Protein in INSANE! Membrane UpperLeaflet>POPC=1.0 LowerLeaflet>POPC=1.0
239324
    1AU     AUC    1   1.494  13.460   7.505
    1AU     AUC    2   1.753  13.455   7.341
    1AU     AUC    3   1.745  13.452   7.647
    1AU     AUC    4   1.242  13.466   7.349
    1AU     AUC    5   1.237  13.492   7.664
    1AU     AUC    6   1.347  13.731   7.514
    1AU     AUC    7   1.669  13.702   7.502
    1AU     AUC    8   1.322  13.220   7.521
    1AU     AUC    9   1.623  13.191   7.519
    1AU     AUC   10   1.486  13.302   7.762
    1AU     AUC   11   1.517  13.625   7.756
    1AU     AUC   12   1.485  13.298   7.246
    1AU     AUC   13   1.484  13.595   7.244
    1AU     AUC   14   1.998  13.446   7.167
    1AU     AUC   15   2.014  13.456   7.469
    1AU     AUC   16   2.020  13.445   7.776
    1AU     AUC   17   0.987  13.454   7.196
    1AU     AUC   18   0.974  13.491   7.493
    1AU     AUC   19   0.985  13.532   7.818
    1AU     AUC   20   1.209  13.994   7.523
    1AU     AUC   21   1.518  13.982   7.511
    1AU     AUC   22   1.820  13.970   7.492
    1AU     AUC   23   1.137  12.972   7.538
    1AU     AUC   24   1.451  12.936   7.513
    1AU     AUC   25   1.772  12.926   7.519
    1AU     AUC   26   1.487  13.152   8.018
    1AU     AUC   27   1.521  13.451   8.030
    1AU     AUC   28   1.553  13.773   8.013
    1AU     AUC   29   1.479  13.112   7.012
    1AU     AUC   30   1.494  13.430   6.980
    1AU     AUC   31   1.478  13.745   6.978
    1AU     AUC   32   1.760  13.277   7.914
    1AU     AUC   33   1.779  13.616   7.919
    1AU     AUC   34   1.755  13.283   7.079
    1AU     AUC   35   1.756  13.594   7.067
    1AU     AUC   36   1.241  13.350   7.944
    1AU     AUC   37   1.245  13.655   7.919
    1AU     AUC   38   1.234  13.288   7.083
    1AU     AUC   39   1.233  13.604   7.081
    1AU     AUC   40   1.913  13.717   7.314
    1AU     AUC   41   1.935  13.687   7.656
    1AU     AUC   42   1.083  13.737   7.361
    1AU     AUC   43   1.100  13.772   7.667
    1AU     AUC   44   1.900  13.181   7.352
    1AU     AUC   45   1.886  13.164   7.658
    1AU     AUC   46   1.059  13.209   7.365
    1AU     AUC   47   1.065  13.250   7.705
    1AU     AUC   48   1.373  13.892   7.779
    1AU     AUC   49   1.702  13.873   7.748
    1AU     AUC   50   1.299  13.058   7.777
    1AU     AUC   51   1.620  13.035   7.775
    1AU     AUC   52   1.345  13.871   7.239
    1AU     AUC   53   1.657  13.854   7.229
    1AU     AUC   54   1.305  13.047   7.259
    1AU     AUC   55   1.635  13.031   7.264
    1AU    AUSL   56   2.023  13.327   8.211
    1AU    AUSL   57   1.790  12.960   8.127
    1AU     AUL   58   2.082  12.999   8.354
    1AU       S   59   2.089  12.575   8.128
    1AU     LIG   60   1.982  12.165   8.303
    1AU     LIG   61   2.111  11.784   8.566
    1AU     LIG   62   2.348  11.632   8.937
    1AU     LIG   63   2.589  11.446   9.296
    1AU     LIG   64   2.732  11.412   9.742
    1AU     LIG   65   2.674  11.245  10.188
    1AU       S   66   1.986  13.383   8.617
    1AU     LIG   67   2.065  13.321   9.067
    1AU     LIG   68   2.308  13.153   9.455
    1AU     LIG   69   2.716  13.098   9.715
    1AU     LIG   70   3.056  13.269  10.018
    1AU     LIG   71   3.417  13.232  10.334
    1AU     LIG   72   3.513  13.138  10.787
    1AU    AUSL   73   1.606  13.262   8.355
    1AU    AUSL   74   1.459  13.681   8.367
    1AU     AUL   75   1.532  13.591   8.710
    1AU       S   76   1.687  13.199   8.531
    1AU     LIG   77   1.585  13.120   8.959
    1AU     LIG   78   1.828  12.936   9.340
    1AU     LIG   79   2.055  12.760   9.733
    1AU     LIG   80   2.120  12.553  10.173
    1AU     LIG   81   2.290  12.494  10.620
    1AU     LIG   82   2.505  12.539  11.037
    1AU       S   83   1.105  13.452   8.699
    1AU     LIG   84   0.958  13.405   9.123
    1AU     LIG   85   0.808  13.288   9.549
    1AU     LIG   86   0.596  13.325   9.970
    1AU     LIG   87   0.638  13.601  10.375
    1AU     LIG   88   0.723  13.862  10.778
    1AU     LIG   89   0.604  14.066  11.200
    1AU    AUSL   90   1.708  13.551   8.063
    1AU    AUSL   91   2.137  13.652   7.967
    1AU     AUL   92   2.209  13.488   8.201
    1AU       S   93   1.924  13.650   8.520
    1AU     LIG   94   1.959  13.938   8.848
    1AU     LIG   95   2.071  14.087   9.290
    1AU     LIG   96   2.061  14.161   9.773
    1AU     LIG   97   2.020  14.251  10.250
    1AU     LIG   98   2.219  14.353  10.670
    1AU     LIG   99   2.585  14.219  10.969
    1AU       S  100   2.405  13.902   8.170
    1AU     LIG  101   2.809  13.920   8.333
    1AU     LIG  102   2.978  13.955   8.754
    1AU     LIG  103   3.215  14.223   9.044
    1AU     LIG  104   3.476  14.527   9.302
    1AU     LIG  105   3.819  14.577   9.624
    1AU     LIG  106   4.124  14.763   9.942
    1AU    AUSL  107   2.018  13.483   6.855
    1AU    AUSL  108   1.771  13.889   6.815
    1AU     AUL  109   2.099  13.833   6.432
    1AU       S  110   2.051  13.514   6.709
    1AU     LIG  111   2.355  13.431   6.346
    1AU     LIG  112   2.434  13.249   5.935
    1AU     LIG  113   2.582  13.119   5.499
    1AU     LIG  114   2.944  13.045   5.179
    1AU     LIG  115   3.329  13.016   4.881
    1AU     LIG  116   3.554  13.169   4.486
    1AU       S  117   1.758  13.962   6.668
    1AU     LIG  118   2.057  14.314   6.576
    1AU     LIG  119   2.417  14.320   6.265
    1AU     LIG  120   2.714  14.490   5.901
    1AU     LIG  121   2.903  14.667   5.465
    1AU     LIG  122   3.066  14.925   5.055
    1AU     LIG  123   3.187  15.273   4.725
    1AU    AUSL  124   1.761  13.165   6.688
    1AU    AUSL  125   2.104  13.099   6.991
    1AU     AUL  126   2.169  13.103   6.654
    1AU       S  127   2.163  12.675   6.836
    1AU     LIG  128   2.336  12.331   6.559
    1AU     LIG  129   2.535  11.914   6.432
    1AU     LIG  130   2.808  11.623   6.164
    1AU     LIG  131   3.195  11.558   5.873
    1AU     LIG  132   3.576  11.569   5.552
    1AU     LIG  133   3.888  11.652   5.181
    1AU       S  134   1.841  13.388   6.434
    1AU     LIG  135   1.995  13.043   6.189
    1AU     LIG  136   2.139  12.857   5.780
    1AU     LIG  137   2.182  12.839   5.314
    1AU     LIG  138   2.201  12.726   4.851
    1AU     LIG  139   2.280  12.546   4.410
    1AU     LIG  140   2.516  12.601   4.003
    1AU    AUSL  141   1.601  13.518   6.870
    1AU    AUSL  142   1.344  13.244   6.676
    1AU     AUL  143   1.551  13.048   6.564
    1AU       S  144   1.282  13.344   6.312
    1AU     LIG  145   1.064  13.152   5.922
    1AU     LIG  146   0.844  12.951   5.554
    1AU     LIG  147   0.615  12.674   5.221
    1AU     LIG  148   0.481  12.568   4.772
    1AU     LIG  149   0.404  12.352   4.346
    1AU     LIG  150   0.533  12.356   3.885
    1AU       S  151   1.720  13.509   6.503
    1AU     LIG  152   1.960  13.526   5.994
    1AU     LIG  153   2.093  13.327   5.559
    1AU     LIG  154   2.265  13.309   5.107
    1AU     LIG  155   2.307  13.514   4.670
    1AU     LIG  156   2.230  13.752   4.255
    1AU     LIG  157   2.412  13.961   3.865
    1AU    AUSL  158   1.054  13.606   8.255
    1AU    AUSL  159   1.332  13.817   7.995
    1AU     AUL  160   1.274  13.890   8.392
    1AU       S  161   0.964  13.622   8.628
    1AU     LIG  162   0.646  13.276   8.703
    1AU     LIG  163   0.537  13.090   9.119
    1AU     LIG  164   0.350  13.058   9.555
    1AU     LIG  165   0.126  13.061   9.971
    1AU     LIG  166  44.729  13.082  10.249
    1AU     LIG  167  44.482  13.146  10.653
    1AU       S  168   0.840  14.013   8.283
    1AU     LIG  169   0.865  14.106   8.732
    1AU     LIG  170   0.751  14.443   9.023
    1AU     LIG  171   0.499  14.721   9.301
    1AU     LIG  172   0.488  14.975   9.709
    1AU     LIG  173   0.246  15.242  10.030
    1AU     LIG  174  44.976  15.460  10.367
    1AU    AUSL  175   1.314  13.346   8.071
    1AU    AUSL  176   0.805  13.343   8.038
    1AU     AUL  177   0.912  13.343   8.268
    1AU       S  178   0.640  12.966   8.265
    1AU     LIG  179   0.262  12.742   8.079
    1AU     LIG  180  44.878  12.464   8.097
    1AU     LIG  181  44.686  12.146   8.398
    1AU     LIG  182  44.493  11.896   8.763
    1AU     LIG  183  44.070  11.758   8.934
    1AU     LIG  184  43.683  11.805   9.203
    1AU       S  185   1.201  13.274   8.603
    1AU     LIG  186   1.029  12.957   8.887
    1AU     LIG  187   0.923  12.830   9.341
    1AU     LIG  188   0.739  12.817   9.792
    1AU     LIG  189   0.523  12.625  10.180
    1AU     LIG  190   0.349  12.453  10.599
    1AU     LIG  191   0.151  12.532  11.039
    1AU    AUSL  192   1.093  13.404   6.970
    1AU    AUSL  193   1.217  12.963   6.950
    1AU     AUL  194   1.057  13.074   6.665
    1AU       S  195   1.037  13.416   6.345
    1AU     LIG  196   0.662  13.433   6.103
    1AU     LIG  197   0.449  13.219   5.773
    1AU     LIG  198   0.431  13.148   5.315
    1AU     LIG  199   0.166  12.945   4.978
    1AU     LIG  200  44.768  13.034   4.718
    1AU     LIG  201  44.385  13.078   4.423
    1AU       S  202   0.774  12.685   6.847
    1AU     LIG  203   0.497  12.303   6.820
    1AU     LIG  204   0.234  12.001   6.577
    1AU     LIG  205   0.053  11.950   6.135
    1AU     LIG  206  44.906  11.623   5.823
    1AU     LIG  207  44.975  11.325   5.461
    1AU     LIG  208  44.981  11.058   5.074
    1AU    AUSL  209   1.271  13.674   6.666
    1AU    AUSL  210   0.879  13.762   6.930
    1AU     AUL  211   0.849  13.506   6.746
    1AU       S  212   0.892  13.978   6.705
    1AU     LIG  213   0.688  13.895   6.319
    1AU     LIG  214   0.450  13.980   5.905
    1AU     LIG  215   0.185  14.257   5.590
    1AU     LIG  216  44.871  14.387   5.225
    1AU     LIG  217  44.419  14.437   5.048
    1AU     LIG  218  44.051  14.718   4.939
    1AU       S  219   1.245  13.603   6.481
    1AU     LIG  220   1.082  13.728   5.987
    1AU     LIG  221   0.847  13.514   5.613
    1AU     LIG  222   0.820  13.445   5.138
    1AU     LIG  223   0.910  13.606   4.685
    1AU     LIG  224   0.818  13.849   4.284
    1AU     LIG  225   0.712  14.072   3.877
    1AU    AUSL  226   2.145  14.056   7.409
    1AU    AUSL  227   2.144  13.826   7.049
    1AU     AUL  228   2.258  14.291   7.214
    1AU       S  229   2.243  13.950   6.856
    1AU     LIG  230   2.586  13.878   6.539
    1AU     LIG  231   2.854  14.045   6.163
    1AU     LIG  232   3.175  14.252   5.857
    1AU     LIG  233   3.570  14.330   5.591
    1AU     LIG  234   3.966  14.511   5.399
    1AU     LIG  235   4.306  14.549   5.059
    1AU       S  236   2.573  13.967   7.276
    1AU     LIG  237   2.951  14.202   7.445
    1AU     LIG  238   3.415  14.158   7.529
    1AU     LIG  239   3.893  14.142   7.502
    1AU     LIG  240   4.336  14.333   7.547
    1AU     LIG  241   4.605  14.744   7.538
    1AU     LIG  242   4.873  15.138   7.628
    1AU    AUSL  243   2.335  13.494   7.215
    1AU    AUSL  244   2.332  13.329   7.700
    1AU     AUL  245   2.558  13.398   7.475
    1AU       S  246   2.608  13.668   7.087
    1AU     LIG  247   3.092  13.744   7.243
    1AU     LIG  248   3.585  13.735   7.288
    1AU     LIG  249   4.074  13.711   7.263
    1AU     LIG  250   4.469  13.690   6.967
    1AU     LIG  251   4.890  13.786   6.744
    1AU     LIG  252   5.314  13.984   6.757
    1AU       S  253   2.680  12.981   7.669
    1AU     LIG  254   3.079  12.715   7.705
    1AU     LIG  255   3.482  12.458   7.725
    1AU     LIG  256   3.892  12.230   7.727
    1AU     LIG  257   4.319  12.363   7.832
    1AU     LIG  258   4.735  12.179   7.986
    1AU     LIG  259   5.079  12.184   8.274
    1AU    AUSL  260   2.132  13.662   7.550
    1AU    AUSL  261   2.074  14.039   7.814
    1AU     AUL  262   2.363  13.852   7.698
    1AU       S  263   2.302  14.091   8.087
    1AU     LIG  264   2.581  14.383   8.302
    1AU     LIG  265   2.963  14.433   8.564
    1AU     LIG  266   3.232  14.695   8.846
    1AU     LIG  267   3.447  15.011   9.108
    1AU     LIG  268   3.694  15.413   9.118
    1AU     LIG  269   3.837  15.860   9.173
    1AU       S  270   2.600  13.851   7.311
    1AU     LIG  271   2.857  13.765   7.701
    1AU     LIG  272   3.324  13.701   7.750
    1AU     LIG  273   3.808  13.696   7.752
    1AU     LIG  274   4.235  13.881   7.815
    1AU     LIG  275   4.699  13.961   7.934
    1AU     LIG  276   5.142  14.027   8.116
    1AU    AUSL  277   0.859  14.019   7.538
    1AU    AUSL  278   0.920  13.768   7.897
    1AU     AUL  279   0.660  14.128   7.814
    1AU       S  280   0.653  13.802   8.144
    1AU     LIG  281   0.432  13.854   8.539
    1AU     LIG  282   0.342  14.151   8.899
    1AU     LIG  283   0.136  14.334   9.296
    1AU     LIG  284  44.865  14.348   9.703
    1AU     LIG  285  44.546  14.565   9.990
    1AU     LIG  286  44.099  14.680  10.120
    1AU       S  287   0.385  14.058   7.470
    1AU     LIG  288   0.360  14.518   7.500
    1AU     LIG  289   0.182  14.981   7.514
    1AU     LIG  290  44.896  15.375   7.530
    1AU     LIG  291  44.536  15.483   7.838
    1AU     LIG  292  44.066  15.540   7.789
    1AU     LIG  293  43.620  15.521   7.608
    1AU    AUSL  294   0.926  13.669   7.327
    1AU    AUSL  295   1.029  14.108   7.164
    1AU     AUL  296   0.756  14.015   7.176
    1AU       S  297   0.336  13.970   7.378
    1AU     LIG  298   0.101  13.992   6.958
    1AU     LIG  299  44.683  14.153   6.693
    1AU     LIG  300  44.216  14.336   6.744
    1AU     LIG  301  43.766  14.568   6.692
    1AU     LIG  302  43.285  14.497   6.619
    1AU     LIG  303  42.901  14.842   6.613
    1AU       S  304   0.907  14.260   6.791
    1AU     LIG  305   0.871  14.562   6.466
    1AU     LIG  306   0.727  14.879   6.161
    1AU     LIG  307   0.317  15.092   6.024
    1AU     LIG  308   0.086  15.481   5.917
    1AU     LIG  309  44.972  15.878   5.689
    1AU     LIG  310  44.760  16.245   5.866
    1AU    AUSL  311   0.626  13.653   7.639
    1AU    AUSL  312   0.655  13.354   7.329
    1AU     AUL  313   0.540  13.605   7.231
    1AU       S  314   0.305  13.237   7.498
    1AU     LIG  315  44.928  13.041   7.796
    1AU     LIG  316  44.414  12.922   7.843
    1AU     LIG  317  43.950  13.085   7.736
    1AU     LIG  318  43.612  12.868   7.460
    1AU     LIG  319  43.170  12.655   7.431
    1AU     LIG  320  42.831  12.466   7.105
    1AU       S  321   0.428  13.716   7.696
    1AU     LIG  322   0.202  14.014   8.019
    1AU     LIG  323  44.737  14.093   8.225
    1AU     LIG  324  44.229  14.142   8.223
    1AU     LIG  325  43.751  14.215   8.340
    1AU     LIG  326  43.307  14.388   8.478
    1AU     LIG  327  42.796  14.493   8.420
    1AU    AUSL  328   2.197  12.956   7.546
    1AU    AUSL  329   1.950  13.217   7.821
    1AU     AUL  330   2.298  13.088   7.915
    1AU       S  331   2.374  12.752   7.562
    1AU     LIG  332   2.647  12.425   7.715
    1AU     LIG  333   3.053  12.194   7.581
    1AU     LIG  334   3.497  12.000   7.462
    1AU     LIG  335   3.927  11.754   7.426
    1AU     LIG  336   4.293  11.437   7.498
    1AU     LIG  337   4.735  11.241   7.442
    1AU       S  338   2.193  12.669   8.033
    1AU     LIG  339   2.488  12.331   8.270
    1AU     LIG  340   2.565  12.041   8.647
    1AU     LIG  341   2.846  11.754   8.935
    1AU     LIG  342   3.086  11.606   9.328
    1AU     LIG  343   3.445  11.656   9.652
    1AU     LIG  344   3.843  11.627   9.928
    1AU    AUSL  345   2.021  13.278   7.355
    1AU    AUSL  346   1.946  12.799   7.251
    1AU     AUL  347   2.288  13.013   7.170
    1AU       S  348   2.507  12.908   7.541
    1AU     LIG  349   2.809  12.662   7.271
    1AU     LIG  350   3.277  12.518   7.249
    1AU     LIG  351   3.752  12.431   7.278
    1AU     LIG  352   4.224  12.328   7.307
    1AU     LIG  353   4.632  12.220   7.048
    1AU     LIG  354   5.064  12.012   7.037
    1AU       S  355   2.203  12.556   7.029
    1AU     LIG  356   2.039  12.075   6.900
    1AU     LIG  357   2.193  11.627   6.706
    1AU     LIG  358   2.438  11.296   6.444
    1AU     LIG  359   2.882  11.118   6.333
    1AU     LIG  360   3.214  10.791   6.213
    1AU     LIG  361   3.681  10.701   6.098
    1AU    AUSL  362   0.769  12.985   7.533
    1AU    AUSL  363   0.838  13.094   7.072
    1AU     AUL  364   0.564  13.146   7.077
    1AU       S  365   0.764  12.738   7.106
    1AU     LIG  366   0.287  12.703   7.060
    1AU     LIG  367  44.979  12.406   6.815
    1AU     LIG  368  44.730  12.093   6.524
    1AU     LIG  369  44.398  11.935   6.213
    1AU     LIG  370  44.105  12.058   5.862
    1AU     LIG  371  43.790  11.996   5.478
    1AU       S  372   0.465  12.963   7.486
    1AU     LIG  373   0.169  12.648   7.577
    1AU     LIG  374  44.717  12.557   7.610
    1AU     LIG  375  44.335  12.366   7.825
    1AU     LIG  376  43.919  12.111   7.821
    1AU     LIG  377  43.575  11.778   7.798
    1AU     LIG  378  43.179  11.688   7.561
    1AU    AUSL  379   0.931  13.369   7.650
    1AU    AUSL  380   1.020  13.021   7.885
    1AU     AUL  381   0.637  13.187   7.847
    1AU       S  382   0.779  12.847   8.111
    1AU     LIG  383   0.642  12.550   7.796
    1AU     LIG  384   0.271  12.224   7.855
    1AU     LIG  385  44.978  11.866   8.071
    1AU     LIG  386  44.680  11.621   8.375
    1AU     LIG  387  44.411  11.375   8.700
    1AU     LIG  388  44.166  10.957   8.809
    1AU       S  389   0.376  13.253   7.489
    1AU     LIG  390  44.940  13.003   7.293
    1AU     LIG  391  44.476  12.924   7.326
    1AU     LIG  392  44.111  12.679   7.484
    1AU     LIG  393  43.825  12.612   7.859
    1AU     LIG  394  43.381  12.669   7.922
    1AU     LIG  395  42.947  12.534   7.938
    1AU    AUSL  396   1.530  14.178   8.021
    1AU    AUSL  397   1.118  14.138   7.840
    1AU     AUL  398   1.289  14.260   8.105
    1AU       S  399   0.884  14.109   8.213
    1AU     LIG  400   0.528  14.370   8.451
    1AU     LIG  401   0.346  14.671   8.786
    1AU     LIG  402   0.136  15.094   8.877
    1AU     LIG  403   0.073  15.508   9.099
    1AU     LIG  404  44.742  15.851   9.108
    1AU     LIG  405  44.518  16.289   9.128
    1AU       S  406   1.618  14.605   8.029
    1AU     LIG  407   1.745  14.874   8.365
    1AU     LIG  408   1.818  15.272   8.585
    1AU     LIG  409   1.850  15.660   8.834
    1AU     LIG  410   1.820  15.811   9.292
    1AU     LIG  411   1.830  16.100   9.676
    1AU     LIG  412   1.771  16.530   9.856
    1AU    AUSL  413   1.407  14.351   7.637
    1AU    AUSL  414   1.731  14.292   7.332
    1AU     AUL  415   1.442  14.562   7.439
    1AU       S  416   1.517  14.650   7.879
    1AU     LIG  417   1.492  15.114   7.980
    1AU     LIG  418   1.637  15.525   8.176
    1AU     LIG  419   1.629  15.940   8.417
    1AU     LIG  420   1.457  16.398   8.473
    1AU     LIG  421   1.248  16.840   8.569
    1AU     LIG  422   1.108  17.318   8.613
    1AU       S  423   1.765  14.654   7.108
    1AU     LIG  424   1.952  15.050   7.069
    1AU     LIG  425   2.244  15.354   6.911
    1AU     LIG  426   2.192  15.732   6.659
    1AU     LIG  427   2.213  16.196   6.602
    1AU     LIG  428   2.410  16.632   6.559
    1AU     LIG  429   2.524  17.102   6.558
    1AU    AUSL  430   1.697  14.035   7.666
    1AU    AUSL  431   1.834  13.924   8.152
    1AU     AUL  432   1.855  14.214   8.019
    1AU       S  433   2.164  13.968   8.284
    1AU     LIG  434   2.440  14.058   8.674
    1AU     LIG  435   2.694  14.327   8.990
    1AU     LIG  436   2.961  14.614   9.276
    1AU     LIG  437   3.195  14.918   9.565
    1AU     LIG  438   3.135  15.227   9.946
    1AU     LIG  439   3.212  15.389  10.396
    1AU       S  440   1.836  14.549   7.717
    1AU     LIG  441   1.986  14.958   7.919
    1AU     LIG  442   2.119  15.344   8.175
    1AU     LIG  443   2.128  15.792   8.382
    1AU     LIG  444   2.283  16.280   8.426
    1AU     LIG  445   2.483  16.760   8.453
    1AU     LIG  446   2.681  17.241   8.463
    1AU    AUSL  447   1.459  12.914   7.875
    1AU    AUSL  448   1.871  12.801   7.745
    1AU     AUL  449   1.656  12.708   8.125
    1AU       S  450   1.472  12.302   8.028
    1AU     LIG  451   1.585  11.864   8.151
    1AU     LIG  452   1.333  11.515   8.297
    1AU     LIG  453   1.125  11.117   8.410
    1AU     LIG  454   1.216  10.696   8.582
    1AU     LIG  455   1.208  10.469   8.990
    1AU     LIG  456   1.146  10.422   9.450
    1AU       S  457   2.008  12.586   7.824
    1AU     LIG  458   2.212  12.158   7.848
    1AU     LIG  459   2.400  11.828   8.148
    1AU     LIG  460   2.633  11.567   8.490
    1AU     LIG  461   2.720  11.247   8.835
    1AU     LIG  462   2.964  10.930   9.079
    1AU     LIG  463   3.270  10.551   9.040
    1AU    AUSL  464   1.149  12.698   7.675
    1AU    AUSL  465   1.256  12.975   8.236
    1AU     AUL  466   1.192  12.684   8.017
    1AU       S  467   1.263  12.243   7.900
    1AU     LIG  468   1.110  11.827   7.927
    1AU     LIG  469   0.960  11.383   7.974
    1AU     LIG  470   0.588  11.106   8.074
    1AU     LIG  471   0.512  10.645   8.106
    1AU     LIG  472   0.631  10.207   8.243
    1AU     LIG  473   0.827   9.781   8.197
    1AU       S  474   0.934  12.883   8.345
    1AU     LIG  475   0.626  12.450   8.340
    1AU     LIG  476   0.223  12.201   8.392
    1AU     LIG  477   0.032  11.864   8.678
    1AU     LIG  478   0.124  11.627   9.093
    1AU     LIG  479   0.164  11.324   9.475
    1AU     LIG  480   0.026  10.988   9.791
    1AU    AUSL  481   1.552  12.557   7.648
    1AU    AUSL  482   1.254  12.642   7.276
    1AU     AUL  483   1.103  12.461   7.529
    1AU       S  484   1.318  12.280   7.145
    1AU     LIG  485   0.931  12.173   7.051
    1AU     LIG  486   0.685  11.796   6.904
    1AU     LIG  487   0.686  11.307   6.857
    1AU     LIG  488   0.447  10.869   6.863
    1AU     LIG  489   0.402  10.376   6.806
    1AU     LIG  490   0.460   9.902   6.708
    1AU       S  491   1.519  12.412   7.755
    1AU     LIG  492   1.565  11.949   7.646
    1AU     LIG  493   1.471  11.498   7.776
    1AU     LIG  494   1.430  11.074   8.002
    1AU     LIG  495   1.414  10.590   8.107
    1AU     LIG  496   1.570  10.125   8.117
    1AU     LIG  497   1.837   9.756   8.275
    1AU    AUSL  498   1.493  14.143   7.001
    1AU    AUSL  499   1.797  13.889   7.253
    1AU     AUL  500   1.845  14.212   7.025
    1AU       S  501   1.518  14.443   6.789
    1AU     LIG  502   1.644  14.570   6.387
    1AU     LIG  503   1.748  14.989   6.211
    1AU     LIG  504   1.874  15.370   6.002
    1AU     LIG  505   1.802  15.643   5.624
    1AU     LIG  506   1.842  16.059   5.406
    1AU     LIG  507   1.681  16.493   5.281
    1AU       S  508   2.202  13.919   6.943
    1AU     LIG  509   2.554  14.310   6.800
    1AU     LIG  510   2.865  14.470   6.458
    1AU     LIG  511   3.141  14.698   6.142
    1AU     LIG  512   3.420  15.085   6.058
    1AU     LIG  513   3.580  15.528   5.938
    1AU     LIG  514   3.656  15.969   5.759
    1AU    AUSL  515   1.363  14.030   7.394
    1AU    AUSL  516   1.288  13.793   7.055
    1AU     AUL  517   1.227  14.287   7.129
    1AU       S  518   1.565  14.594   7.006
    1AU     LIG  519   1.590  14.957   6.713
    1AU     LIG  520   1.812  15.351   6.633
    1AU     LIG  521   1.669  15.802   6.590
    1AU     LIG  522   1.392  16.209   6.549
    1AU     LIG  523   1.067  16.573   6.449
    1AU     LIG  524   0.795  16.970   6.342
    1AU       S  525   1.142  14.110   6.689
    1AU     LIG  526   1.110  14.179   6.245
    1AU     LIG  527   0.793  14.391   5.946
    1AU     LIG  528   0.607  14.584   5.530
    1AU     LIG  529   0.502  14.886   5.153
    1AU     LIG  530   0.230  15.198   4.887
    1AU     LIG  531  44.945  15.568   4.791
    1AU    AUSL  532   1.565  12.736   6.993
    1AU    AUSL  533   1.141  13.032   7.359
    1AU     AUL  534   1.212  12.702   6.977
    1AU       S  535   0.789  12.643   7.219
    1AU     LIG  536   0.485  12.322   7.341
    1AU     LIG  537   0.007  12.229   7.299
    1AU     LIG  538  44.609  12.089   7.030
    1AU     LIG  539  44.375  11.781   6.713
    1AU     LIG  540  44.417  11.329   6.573
    1AU     LIG  541  44.146  11.115   6.240
    1AU       S  542   1.491  12.339   6.947
    1AU     LIG  543   1.462  12.008   6.693
    1AU     LIG  544   1.190  11.679   6.802
    1AU     LIG  545   1.225  11.248   6.687
    1AU     LIG  546   1.386  11.017   6.308
    1AU     LIG  547   1.453  10.850   5.869
    1AU     LIG  548   1.674  10.549   5.596
    1AU    AUSL  549   1.575  12.882   7.413
    1AU    AUSL  550   1.682  13.116   7.081
    1AU     AUL  551   1.773  12.616   7.176
    1AU       S  552   1.454  12.316   7.258
    1AU     LIG  553   1.606  11.862   7.154
    1AU     LIG  554   1.432  11.436   7.190
    1AU     LIG  555   1.587  11.031   6.996
    1AU     LIG  556   1.811  10.601   6.874
    1AU     LIG  557   1.880  10.088   6.898
    1AU     LIG  558   2.007   9.605   6.882
    1AU       S  559   1.944  12.710   6.747
    1AU     LIG  560   1.820  12.349   6.526
    1AU     LIG  561   2.009  11.949   6.358
    1AU     LIG  562   2.272  11.635   6.091
    1AU     LIG  563   2.551  11.503   5.730
    1AU     LIG  564   2.606  11.126   5.441
    1AU     LIG  565   2.820  10.947   5.046
    2AU     AUC  566  44.165  36.840   7.495
    2AU     AUC  567  44.426  36.840   7.334
    2AU     AUC  568  44.415  36.836   7.641
    2AU     AUC  569  43.917  36.841   7.333
    2AU     AUC  570  43.904  36.867   7.648
    2AU     AUC  571  44.013  37.108   7.499
    2AU     AUC  572  44.333  37.085   7.494
    2AU     AUC  573  43.999  36.597   7.509
    2AU     AUC  574  44.301  36.574   7.514
    2AU     AUC  575  44.154  36.683   7.753
    2AU     AUC  576  44.179  37.006   7.745
    2AU     AUC  577  44.165  36.676   7.236
    2AU     AUC  578  44.157  36.974   7.233
    2AU     AUC  579  44.675  36.837   7.168
    2AU     AUC  580  44.685  36.845   7.468
    2AU     AUC  581  44.685  36.834   7.778
    2AU     AUC  582  43.663  36.824   7.175
    2AU     AUC  583  43.645  36.860   7.472
    2AU     AUC  584  43.647  36.902   7.795
    2AU     AUC  585  43.870  37.370   7.501
    2AU     AUC  586  44.179  37.363   7.499
    2AU     AUC  587  44.483  37.356   7.483
    2AU     AUC  588  43.818  36.344   7.522
    2AU     AUC  589  44.132  36.315   7.506
    2AU     AUC  590  44.453  36.312   7.521
    2AU     AUC  591  44.152  36.536   8.010
    2AU     AUC  592  44.180  36.835   8.020
    2AU     AUC  593  44.205  37.155   8.003
    2AU     AUC  594  44.168  36.488   7.005
    2AU     AUC  595  44.174  36.806   6.970
    2AU     AUC  596  44.152  37.122   6.966
    2AU     AUC  597  44.425  36.666   7.912
    2AU     AUC  598  44.438  37.003   7.915
    2AU     AUC  599  44.438  36.666   7.075
    2AU     AUC  600  44.431  36.977   7.059
    2AU     AUC  601  43.904  36.728   7.929
    2AU     AUC  602  43.902  37.033   7.902
    2AU     AUC  603  43.918  36.660   7.068
    2AU     AUC  604  43.910  36.978   7.065
    2AU     AUC  605  44.581  37.105   7.309
    2AU     AUC  606  44.597  37.077   7.655
    2AU     AUC  607  43.752  37.108   7.341
    2AU     AUC  608  43.761  37.144   7.647
    2AU     AUC  609  44.580  36.569   7.353
    2AU     AUC  610  44.559  36.551   7.659
    2AU     AUC  611  43.739  36.579   7.347
    2AU     AUC  612  43.737  36.623   7.687
    2AU     AUC  613  44.030  37.272   7.764
    2AU     AUC  614  44.362  37.258   7.741
    2AU     AUC  615  43.971  36.436   7.766
    2AU     AUC  616  44.292  36.420   7.771
    2AU     AUC  617  44.012  37.247   7.226
    2AU     AUC  618  44.326  37.238   7.219
    2AU     AUC  619  43.991  36.423   7.246
    2AU     AUC  620  44.322  36.412   7.260
    2AU    AUSL  621  44.678  36.722   8.215
    2AU    AUSL  622  44.454  36.352   8.128
    2AU     AUL  623  44.739  36.398   8.364
    2AU       S  624  44.762  35.982   8.131
    2AU     LIG  625  44.598  35.663   8.385
    2AU     LIG  626  44.649  35.257   8.628
    2AU     LIG  627  44.926  35.069   8.977
    2AU     LIG  628   0.231  34.807   9.227
    2AU     LIG  629   0.475  34.841   9.638
    2AU     LIG  630   0.486  34.710  10.100
    2AU       S  631  44.632  36.780   8.624
    2AU     LIG  632  44.801  36.541   8.993
    2AU     LIG  633   0.018  36.399   9.409
    2AU     LIG  634   0.342  36.255   9.744
    2AU     LIG  635   0.744  36.176  10.030
    2AU     LIG  636   1.051  36.279  10.392
    2AU     LIG  637   1.242  36.488  10.772
    2AU    AUSL  638  44.260  36.654   8.350
    2AU    AUSL  639  44.107  37.070   8.352
    2AU     AUL  640  44.174  36.986   8.694
    2AU       S  641  44.340  36.593   8.530
    2AU     LIG  642  44.313  36.360   8.909
    2AU     LIG  643  44.559  36.169   9.282
    2AU     LIG  644  44.769  36.026   9.698
    2AU     LIG  645  44.752  35.888  10.162
    2AU     LIG  646  44.956  35.814  10.588
    2AU     LIG  647   0.207  35.857  10.995
    2AU       S  648  43.750  36.838   8.682
    2AU     LIG  649  43.615  36.766   9.112
    2AU     LIG  650  43.524  36.584   9.539
    2AU     LIG  651  43.361  36.559   9.984
    2AU     LIG  652  43.375  36.796  10.408
    2AU     LIG  653  43.409  37.031  10.835
    2AU     LIG  654  43.467  37.190  11.292
    2AU    AUSL  655  44.364  36.940   8.055
    2AU    AUSL  656  44.799  37.050   7.977
    2AU     AUL  657  44.861  36.884   8.210
    2AU       S  658  44.573  37.053   8.521
    2AU     LIG  659  44.599  37.334   8.894
    2AU     LIG  660  44.741  37.537   9.322
    2AU     LIG  661  44.724  37.631   9.816
    2AU     LIG  662  44.753  37.708  10.308
    2AU     LIG  663  44.917  37.775  10.756
    2AU     LIG  664   0.270  37.708  11.075
    2AU       S  665   0.049  37.303   8.169
    2AU     LIG  666   0.449  37.344   8.337
    2AU     LIG  667   0.617  37.337   8.751
    2AU     LIG  668   0.844  37.601   9.043
    2AU     LIG  669   1.101  37.907   9.297
    2AU     LIG  670   1.502  37.930   9.554
    2AU     LIG  671   1.872  38.058   9.824
    2AU    AUSL  672  44.698  36.864   6.856
    2AU    AUSL  673  44.431  37.268   6.800
    2AU     AUL  674  44.764  37.211   6.435
    2AU       S  675  44.754  36.889   6.715
    2AU     LIG  676   0.020  36.807   6.341
    2AU     LIG  677   0.046  36.670   5.906
    2AU     LIG  678   0.165  36.486   5.486
    2AU     LIG  679   0.382  36.399   5.067
    2AU     LIG  680   0.797  36.332   4.808
    2AU     LIG  681   1.080  36.336   4.418
    2AU       S  682  44.398  37.343   6.631
    2AU     LIG  683  44.708  37.713   6.557
    2AU     LIG  684   0.095  37.728   6.285
    2AU     LIG  685   0.393  37.889   5.925
    2AU     LIG  686   0.587  38.106   5.518
    2AU     LIG  687   0.757  38.345   5.125
    2AU     LIG  688   0.866  38.694   4.808
    2AU    AUSL  689  44.448  36.542   6.685
    2AU    AUSL  690  44.795  36.484   6.993
    2AU     AUL  691  44.814  36.467   6.640
    2AU       S  692  44.922  36.074   6.875
    2AU     LIG  693   0.026  35.658   6.655
    2AU     LIG  694   0.173  35.298   6.371
    2AU     LIG  695   0.431  35.030   6.061
    2AU     LIG  696   0.788  35.068   5.735
    2AU     LIG  697   1.147  35.142   5.416
    2AU     LIG  698   1.518  35.063   5.116
    2AU       S  699  44.514  36.778   6.431
    2AU     LIG  700  44.625  36.452   6.161
    2AU     LIG  701  44.732  36.294   5.731
    2AU     LIG  702  44.757  36.250   5.263
    2AU     LIG  703  44.915  36.161   4.825
    2AU     LIG  704   0.082  35.945   4.427
    2AU     LIG  705   0.177  35.968   3.957
    2AU    AUSL  706  44.281  36.892   6.862
    2AU    AUSL  707  44.031  36.617   6.660
    2AU     AUL  708  44.255  36.410   6.564
    2AU       S  709  43.981  36.700   6.325
    2AU     LIG  710  43.907  36.350   6.049
    2AU     LIG  711  43.648  36.121   5.711
    2AU     LIG  712  43.448  36.032   5.280
    2AU     LIG  713  43.261  35.886   4.853
    2AU     LIG  714  43.338  35.726   4.394
    2AU     LIG  715  43.260  35.826   3.936
    2AU       S  716  44.411  36.877   6.503
    2AU     LIG  717  44.573  36.933   5.979
    2AU     LIG  718  44.713  36.770   5.523
    2AU     LIG  719  44.915  36.700   5.084
    2AU     LIG  720  44.883  36.842   4.638
    2AU     LIG  721  44.852  37.166   4.294
    2AU     LIG  722   0.094  37.448   4.002
    2AU    AUSL  723  43.704  36.985   8.234
    2AU    AUSL  724  43.984  37.197   7.975
    2AU     AUL  725  43.915  37.273   8.369
    2AU       S  726  43.605  37.005   8.611
    2AU     LIG  727  43.310  36.626   8.704
    2AU     LIG  728  43.216  36.422   9.127
    2AU     LIG  729  43.065  36.353   9.584
    2AU     LIG  730  42.784  36.364   9.977
    2AU     LIG  731  42.416  36.437  10.284
    2AU     LIG  732  42.236  36.471  10.716
    2AU       S  733  43.492  37.401   8.247
    2AU     LIG  734  43.597  37.509   8.697
    2AU     LIG  735  43.515  37.828   9.033
    2AU     LIG  736  43.266  38.118   9.320
    2AU     LIG  737  43.032  38.151   9.738
    2AU     LIG  738  42.765  38.337  10.095
    2AU     LIG  739  42.688  38.686  10.422
    2AU    AUSL  740  43.972  36.727   8.059
    2AU    AUSL  741  43.465  36.716   8.012
    2AU     AUL  742  43.568  36.728   8.246
    2AU       S  743  43.312  36.346   8.260
    2AU     LIG  744  42.947  36.095   8.197
    2AU     LIG  745  42.546  35.885   8.186
    2AU     LIG  746  42.323  35.601   8.486
    2AU     LIG  747  42.136  35.316   8.811
    2AU     LIG  748  41.840  35.154   9.142
    2AU     LIG  749  41.458  35.245   9.433
    2AU       S  750  43.851  36.660   8.589
    2AU     LIG  751  43.706  36.321   8.870
    2AU     LIG  752  43.605  36.134   9.307
    2AU     LIG  753  43.476  36.079   9.773
    2AU     LIG  754  43.397  35.845  10.200
    2AU     LIG  755  43.272  35.745  10.665
    2AU     LIG  756  43.125  35.871  11.101
    2AU    AUSL  757  43.776  36.775   6.951
    2AU    AUSL  758  43.914  36.335   6.937
    2AU     AUL  759  43.751  36.439   6.648
    2AU       S  760  43.734  36.777   6.311
    2AU     LIG  761  43.435  36.540   6.009
    2AU     LIG  762  43.229  36.403   5.591
    2AU     LIG  763  43.013  36.289   5.178
    2AU     LIG  764  42.688  36.291   4.835
    2AU     LIG  765  42.269  36.379   4.640
    2AU     LIG  766  42.145  36.585   4.222
    2AU       S  767  43.495  36.045   6.816
    2AU     LIG  768  43.239  35.678   6.763
    2AU     LIG  769  42.865  35.637   6.507
    2AU     LIG  770  42.610  35.400   6.213
    2AU     LIG  771  42.423  35.167   5.860
    2AU     LIG  772  42.363  35.079   5.400
    2AU     LIG  773  42.217  34.892   4.980
    2AU    AUSL  774  43.955  37.047   6.649
    2AU    AUSL  775  43.555  37.129   6.910
    2AU     AUL  776  43.548  36.876   6.714
    2AU       S  777  43.537  37.349   6.664
    2AU     LIG  778  43.225  37.492   6.287
    2AU     LIG  779  42.959  37.651   5.883
    2AU     LIG  780  42.680  37.764   5.484
    2AU     LIG  781  42.270  37.896   5.245
    2AU     LIG  782  41.869  38.140   5.098
    2AU     LIG  783  41.478  38.397   4.981
    2AU       S  784  43.947  36.959   6.439
    2AU     LIG  785  44.005  36.869   5.886
    2AU     LIG  786  43.718  36.621   5.576
    2AU     LIG  787  43.470  36.578   5.155
    2AU     LIG  788  43.398  36.790   4.705
    2AU     LIG  789  43.389  37.045   4.268
    2AU     LIG  790  43.281  37.261   3.836
    2AU    AUSL  791  44.817  37.427   7.404
    2AU    AUSL  792  44.804  37.226   7.027
    2AU     AUL  793  44.886  37.676   7.220
    2AU       S  794  44.898  37.358   6.847
    2AU     LIG  795   0.261  37.275   6.576
    2AU     LIG  796   0.527  37.444   6.202
    2AU     LIG  797   0.847  37.645   5.893
    2AU     LIG  798   1.197  37.663   5.555
    2AU     LIG  799   1.626  37.756   5.359
    2AU     LIG  800   2.025  37.948   5.209
    2AU       S  801   0.227  37.363   7.261
    2AU     LIG  802   0.714  37.530   7.299
    2AU     LIG  803   1.201  37.514   7.407
    2AU     LIG  804   1.678  37.591   7.504
    2AU     LIG  805   2.012  37.958   7.571
    2AU     LIG  806   2.258  38.401   7.617
    2AU     LIG  807   2.510  38.733   7.871
    2AU    AUSL  808  45.000  36.914   7.224
    2AU    AUSL  809   0.004  36.724   7.709
    2AU     AUL  810   0.219  36.778   7.475
    2AU       S  811   0.244  37.054   7.091
    2AU     LIG  812   0.668  37.136   6.974
    2AU     LIG  813   1.110  37.085   7.138
    2AU     LIG  814   1.579  37.146   7.250
    2AU     LIG  815   2.013  37.317   7.098
    2AU     LIG  816   2.463  37.317   6.903
    2AU     LIG  817   2.888  37.347   6.714
    2AU       S  818   0.349  36.372   7.682
    2AU     LIG  819   0.665  36.061   7.832
    2AU     LIG  820   1.088  35.843   7.831
    2AU     LIG  821   1.524  35.663   7.824
    2AU     LIG  822   1.978  35.547   7.878
    2AU     LIG  823   2.406  35.745   8.019
    2AU     LIG  824   2.840  35.766   8.233
    2AU    AUSL  825  44.784  37.044   7.564
    2AU    AUSL  826  44.731  37.432   7.808
    2AU     AUL  827   0.028  37.236   7.698
    2AU       S  828  44.946  37.506   8.064
    2AU     LIG  829   0.164  37.773   8.384
    2AU     LIG  830   0.559  37.838   8.642
    2AU     LIG  831   0.906  38.085   8.847
    2AU     LIG  832   1.119  38.423   9.097
    2AU     LIG  833   1.296  38.868   9.150
    2AU     LIG  834   1.589  39.246   9.151
    2AU       S  835   0.309  37.233   7.341
    2AU     LIG  836   0.720  37.056   7.500
    2AU     LIG  837   1.194  37.058   7.649
    2AU     LIG  838   1.664  37.105   7.773
    2AU     LIG  839   2.097  37.068   8.016
    2AU     LIG  840   2.526  37.219   8.235
    2AU     LIG  841   2.990  37.362   8.241
    2AU    AUSL  842  43.514  37.383   7.509
    2AU    AUSL  843  43.577  37.142   7.872
    2AU     AUL  844  43.312  37.491   7.758
    2AU       S  845  43.308  37.192   8.122
    2AU     LIG  846  43.143  37.286   8.578
    2AU     LIG  847  43.055  37.621   8.923
    2AU     LIG  848  42.838  37.837   9.312
    2AU     LIG  849  42.551  37.984   9.681
    2AU     LIG  850  42.214  38.190   9.938
    2AU     LIG  851  41.785  38.375  10.051
    2AU       S  852  42.956  37.325   7.522
    2AU     LIG  853  42.875  37.803   7.563
    2AU     LIG  854  42.618  38.204   7.473
    2AU     LIG  855  42.299  38.536   7.342
    2AU     LIG  856  41.854  38.666   7.270
    2AU     LIG  857  41.517  38.745   7.572
    2AU     LIG  858  41.230  38.713   7.947
    2AU    AUSL  859  43.599  37.034   7.306
    2AU    AUSL  860  43.698  37.482   7.143
    2AU     AUL  861  43.430  37.382   7.146
    2AU       S  862  43.037  37.366   7.371
    2AU     LIG  863  42.592  37.221   7.187
    2AU     LIG  864  42.114  37.192   7.028
    2AU     LIG  865  41.650  37.360   6.949
    2AU     LIG  866  41.311  37.700   6.941
    2AU     LIG  867  40.887  37.853   6.831
    2AU     LIG  868  40.494  37.763   6.587
    2AU       S  869  43.549  37.641   6.762
    2AU     LIG  870  43.387  37.959   6.441
    2AU     LIG  871  43.299  38.327   6.139
    2AU     LIG  872  43.232  38.805   6.038
    2AU     LIG  873  42.976  39.218   6.000
    2AU     LIG  874  42.530  39.414   5.909
    2AU     LIG  875  42.041  39.489   5.826
    2AU    AUSL  876  43.292  37.009   7.613
    2AU    AUSL  877  43.334  36.715   7.300
    2AU     AUL  878  43.207  36.979   7.214
    2AU       S  879  43.003  36.550   7.437
    2AU     LIG  880  42.632  36.642   7.752
    2AU     LIG  881  42.150  36.651   7.826
    2AU     LIG  882  41.712  36.614   7.658
    2AU     LIG  883  41.367  36.593   7.297
    2AU     LIG  884  41.067  36.218   7.246
    2AU     LIG  885  40.749  35.977   7.001
    2AU       S  886  43.106  37.043   7.690
    2AU     LIG  887  42.690  37.129   7.904
    2AU     LIG  888  42.236  37.188   8.054
    2AU     LIG  889  41.818  37.463   8.130
    2AU     LIG  890  41.434  37.789   8.141
    2AU     LIG  891  41.001  37.897   8.345
    2AU     LIG  892  40.559  38.103   8.250
    2AU    AUSL  893  44.876  36.345   7.562
    2AU    AUSL  894  44.620  36.608   7.824
    2AU     AUL  895  44.970  36.489   7.930
    2AU       S  896   0.039  36.147   7.575
    2AU     LIG  897   0.232  35.779   7.745
    2AU     LIG  898   0.671  35.569   7.650
    2AU     LIG  899   1.135  35.390   7.581
    2AU     LIG  900   1.604  35.216   7.575
    2AU     LIG  901   1.913  34.867   7.699
    2AU     LIG  902   2.304  34.614   7.539
    2AU       S  903  44.865  36.069   8.044
    2AU     LIG  904   0.129  35.690   8.256
    2AU     LIG  905   0.159  35.363   8.591
    2AU     LIG  906   0.434  35.096   8.851
    2AU     LIG  907   0.714  35.043   9.220
    2AU     LIG  908   1.109  35.036   9.480
    2AU     LIG  909   1.532  34.974   9.692
    2AU    AUSL  910  44.707  36.661   7.357
    2AU    AUSL  911  44.638  36.188   7.257
    2AU     AUL  912  44.988  36.432   7.189
    2AU       S  913   0.165  36.275   7.566
    2AU     LIG  914   0.507  35.994   7.350
    2AU     LIG  915   0.990  35.830   7.324
    2AU     LIG  916   1.476  35.664   7.304
    2AU     LIG  917   1.929  35.451   7.244
    2AU     LIG  918   2.411  35.411   7.065
    2AU     LIG  919   2.888  35.515   6.932
    2AU       S  920  44.908  35.968   7.100
    2AU     LIG  921  44.699  35.538   7.039
    2AU     LIG  922  44.822  35.152   6.739
    2AU     LIG  923   0.069  34.798   6.462
    2AU     LIG  924   0.374  34.447   6.294
    2AU     LIG  925   0.656  34.084   6.112
    2AU     LIG  926   0.998  33.772   6.009
    2AU    AUSL  927  43.453  36.347   7.506
    2AU    AUSL  928  43.529  36.457   7.049
    2AU     AUL  929  43.263  36.526   7.040
    2AU       S  930  43.467  36.118   7.062
    2AU     LIG  931  43.007  36.103   6.889
    2AU     LIG  932  42.586  35.865   6.862
    2AU     LIG  933  42.307  35.714   6.505
    2AU     LIG  934  42.110  35.501   6.116
    2AU     LIG  935  41.930  35.260   5.733
    2AU     LIG  936  41.643  35.185   5.354
    2AU       S  937  43.163  36.313   7.438
    2AU     LIG  938  42.823  36.167   7.712
    2AU     LIG  939  42.355  36.210   7.640
    2AU     LIG  940  41.915  36.134   7.771
    2AU     LIG  941  41.598  35.798   7.609
    2AU     LIG  942  41.151  35.606   7.563
    2AU     LIG  943  40.785  35.270   7.609
    2AU    AUSL  944  43.602  36.734   7.628
    2AU    AUSL  945  43.688  36.392   7.872
    2AU     AUL  946  43.311  36.527   7.818
    2AU       S  947  43.453  36.238   8.143
    2AU     LIG  948  43.297  35.971   7.824
    2AU     LIG  949  42.912  35.678   7.870
    2AU     LIG  950  42.607  35.370   8.114
    2AU     LIG  951  42.314  35.082   8.381
    2AU     LIG  952  42.082  34.798   8.700
    2AU     LIG  953  41.813  34.395   8.780
    2AU       S  954  43.053  36.615   7.459
    2AU     LIG  955  42.566  36.708   7.260
    2AU     LIG  956  42.104  36.566   7.293
    2AU     LIG  957  41.736  36.244   7.316
    2AU     LIG  958  41.363  36.237   7.663
    2AU     LIG  959  40.915  36.101   7.782
    2AU     LIG  960  40.510  35.901   7.939
    2AU    AUSL  961  44.176  37.559   8.010
    2AU    AUSL  962  43.769  37.514   7.810
    2AU     AUL  963  43.935  37.643   8.082
    2AU       S  964  43.523  37.497   8.168
    2AU     LIG  965  43.254  37.798   8.460
    2AU     LIG  966  43.164  38.126   8.800
    2AU     LIG  967  43.194  38.556   9.013
    2AU     LIG  968  42.977  38.960   9.130
    2AU     LIG  969  42.599  39.229   9.216
    2AU     LIG  970  42.199  39.475   9.268
    2AU       S  971  44.253  37.990   7.990
    2AU     LIG  972  44.316  38.335   8.302
    2AU     LIG  973  44.387  38.732   8.565
    2AU     LIG  974  44.438  39.123   8.820
    2AU     LIG  975  44.677  39.264   9.220
    2AU     LIG  976  44.636  39.512   9.640
    2AU     LIG  977  44.311  39.779   9.881
    2AU    AUSL  978  44.069  37.728   7.623
    2AU    AUSL  979  44.383  37.674   7.328
    2AU     AUL  980  43.904  37.882   7.455
    2AU       S  981  44.285  37.949   7.734
    2AU     LIG  982  44.341  38.439   7.785
    2AU     LIG  983  44.248  38.814   8.080
    2AU     LIG  984  44.257  39.214   8.328
    2AU     LIG  985  44.114  39.612   8.552
    2AU     LIG  986  43.719  39.900   8.595
    2AU     LIG  987  43.483  40.330   8.633
    2AU       S  988  44.458  37.980   7.249
    2AU     LIG  989  44.753  38.127   6.963
    2AU     LIG  990  44.764  38.590   6.815
    2AU     LIG  991  44.742  39.058   6.661
    2AU     LIG  992  44.856  39.549   6.655
    2AU     LIG  993   0.065  40.019   6.654
    2AU     LIG  994   0.234  40.498   6.603
    2AU    AUSL  995  44.355  37.414   7.660
    2AU    AUSL  996  44.486  37.314   8.144
    2AU     AUL  997  44.486  37.592   8.039
    2AU       S  998  44.822  37.364   8.279
    2AU     LIG  999   0.070  37.367   8.687
    2AU     LIG 1000   0.282  37.633   9.024
    2AU     LIG 1001   0.555  37.983   9.213
    2AU     LIG 1002   0.788  38.301   9.483
    2AU     LIG 1003   0.758  38.652   9.818
    2AU     LIG 1004   0.742  38.977  10.177
    2AU       S 1005  44.541  37.889   7.709
    2AU     LIG 1006  44.730  38.170   8.020
    2AU     LIG 1007  44.724  38.627   8.166
    2AU     LIG 1008  44.751  39.062   8.376
    2AU     LIG 1009  44.950  39.501   8.469
    2AU     LIG 1010   0.226  39.910   8.540
    2AU     LIG 1011   0.402  40.321   8.735
    2AU    AUSL 1012  44.130  36.296   7.868
    2AU    AUSL 1013  44.545  36.190   7.750
    2AU     AUL 1014  44.322  36.094   8.123
    2AU       S 1015  44.138  35.690   8.026
    2AU     LIG 1016  44.261  35.322   8.218
    2AU     LIG 1017  44.005  35.008   8.416
    2AU     LIG 1018  43.986  34.563   8.386
    2AU     LIG 1019  43.801  34.175   8.571
    2AU     LIG 1020  43.789  33.891   8.952
    2AU     LIG 1021  43.849  33.542   9.276
    2AU       S 1022  44.684  35.963   7.835
    2AU     LIG 1023  44.756  35.490   7.932
    2AU     LIG 1024  44.916  35.116   8.213
    2AU     LIG 1025   0.096  34.817   8.566
    2AU     LIG 1026   0.360  34.494   8.818
    2AU     LIG 1027   0.705  34.165   8.894
    2AU     LIG 1028   1.063  33.879   9.045
    2AU    AUSL 1029  43.830  36.076   7.660
    2AU    AUSL 1030  43.923  36.356   8.226
    2AU     AUL 1031  43.852  36.063   8.002
    2AU       S 1032  43.952  35.623   7.884
    2AU     LIG 1033  43.762  35.278   8.048
    2AU     LIG 1034  43.662  34.835   8.059
    2AU     LIG 1035  43.516  34.427   8.198
    2AU     LIG 1036  43.368  34.002   8.312
    2AU     LIG 1037  43.390  33.526   8.318
    2AU     LIG 1038  43.633  33.097   8.306
    2AU       S 1039  43.622  36.273   8.343
    2AU     LIG 1040  43.355  35.825   8.375
    2AU     LIG 1041  42.925  35.613   8.440
    2AU     LIG 1042  42.670  35.279   8.694
    2AU     LIG 1043  42.464  34.979   9.020
    2AU     LIG 1044  42.378  34.743   9.433
    2AU     LIG 1045  42.394  34.552   9.876
    2AU    AUSL 1046  44.234  35.939   7.647
    2AU    AUSL 1047  43.947  36.016   7.265
    2AU     AUL 1048  43.783  35.841   7.518
    2AU       S 1049  44.015  35.658   7.151
    2AU     LIG 1050  43.631  35.541   7.055
    2AU     LIG 1051  43.386  35.161   6.946
    2AU     LIG 1052  43.455  34.675   6.891
    2AU     LIG 1053  43.508  34.223   6.713
    2AU     LIG 1054  43.478  33.748   6.607
    2AU     LIG 1055  43.557  33.283   6.461
    2AU       S 1056  44.199  35.795   7.751
    2AU     LIG 1057  44.302  35.320   7.697
    2AU     LIG 1058  44.152  34.918   7.911
    2AU     LIG 1059  44.310  34.470   7.997
    2AU     LIG 1060  44.474  34.099   8.246
    2AU     LIG 1061  44.501  33.631   8.339
    2AU     LIG 1062  44.574  33.227   8.581
    2AU    AUSL 1063  44.159  37.527   6.991
    2AU    AUSL 1064  44.463  37.276   7.243
    2AU     AUL 1065  44.492  37.596   6.985
    2AU       S 1066  44.229  37.976   6.940
    2AU     LIG 1067  44.409  38.246   6.611
    2AU     LIG 1068  44.470  38.659   6.400
    2AU     LIG 1069  44.461  38.908   6.017
    2AU     LIG 1070  44.327  39.200   5.689
    2AU     LIG 1071  44.298  39.649   5.554
    2AU     LIG 1072  44.362  40.085   5.401
    2AU       S 1073  44.860  37.316   6.927
    2AU     LIG 1074   0.199  37.726   6.814
    2AU     LIG 1075   0.541  37.868   6.498
    2AU     LIG 1076   0.820  38.101   6.179
    2AU     LIG 1077   1.132  38.481   6.111
    2AU     LIG 1078   1.401  38.903   6.083
    2AU     LIG 1079   1.660  39.331   6.039
    2AU    AUSL 1080  44.024  37.405   7.382
    2AU    AUSL 1081  43.963  37.169   7.037
    2AU     AUL 1082  43.916  37.648   7.056
    2AU       S 1083  44.287  37.931   7.228
    2AU     LIG 1084  44.331  38.445   7.094
    2AU     LIG 1085  44.281  38.876   6.839
    2AU     LIG 1086  44.282  39.317   6.602
    2AU     LIG 1087  43.894  39.648   6.507
    2AU     LIG 1088  43.576  40.036   6.613
    2AU     LIG 1089  43.358  40.489   6.638
    2AU       S 1090  43.797  37.471   6.649
    2AU     LIG 1091  43.714  37.621   6.224
    2AU     LIG 1092  43.427  37.860   5.912
    2AU     LIG 1093  43.158  37.994   5.509
    2AU     LIG 1094  42.974  38.235   5.103
    2AU     LIG 1095  42.889  38.603   4.767
    2AU     LIG 1096  42.625  38.895   4.484
    2AU    AUSL 1097  44.265  36.114   6.990
    2AU    AUSL 1098  43.827  36.405   7.343
    2AU     AUL 1099  43.923  36.073   6.963
    2AU       S 1100  43.488  36.010   7.182
    2AU     LIG 1101  43.115  35.800   7.288
    2AU     LIG 1102  42.859  35.482   7.052
    2AU     LIG 1103  42.534  35.317   6.739
    2AU     LIG 1104  42.257  35.081   6.418
    2AU     LIG 1105  42.019  34.670   6.317
    2AU     LIG 1106  41.911  34.267   6.092
    2AU       S 1107  44.189  35.698   6.963
    2AU     LIG 1108  44.044  35.370   6.726
    2AU     LIG 1109  43.821  34.990   6.701
    2AU     LIG 1110  43.914  34.542   6.639
    2AU     LIG 1111  43.882  34.244   6.272
    2AU     LIG 1112  43.993  34.141   5.810
    2AU     LIG 1113  44.062  33.946   5.377
    2AU    AUSL 1114  44.260  36.262   7.408
    2AU    AUSL 1115  44.373  36.496   7.079
    2AU     AUL 1116  44.459  35.993   7.188
    2AU       S 1117  44.145  35.685   7.264
    2AU     LIG 1118  44.285  35.229   7.174
    2AU     LIG 1119  44.142  34.807   7.054
    2AU     LIG 1120  44.314  34.380   7.024
    2AU     LIG 1121  44.523  33.967   6.886
    2AU     LIG 1122  44.513  33.472   6.917
    2AU     LIG 1123  44.629  33.008   6.847
    2AU       S 1124  44.670  36.055   6.782
    2AU     LIG 1125  44.520  35.649   6.571
    2AU     LIG 1126  44.655  35.288   6.280
    2AU     LIG 1127  44.921  35.014   5.997
    2AU     LIG 1128   0.133  34.711   5.703
    2AU     LIG 1129   0.378  34.576   5.309
    2AU     LIG 1130   0.472  34.523   4.840
    3AU     AUC 1131   5.413  26.582   7.504
    3AU     AUC 1132   5.674  26.577   7.343
    3AU     AUC 1133   5.662  26.574   7.650
    3AU     AUC 1134   5.164  26.588   7.343
    3AU     AUC 1135   5.154  26.614   7.660
    3AU     AUC 1136   5.265  26.853   7.510
    3AU     AUC 1137   5.586  26.824   7.503
    3AU     AUC 1138   5.242  26.342   7.517
    3AU     AUC 1139   5.543  26.313   7.520
    3AU     AUC 1140   5.401  26.424   7.761
    3AU     AUC 1141   5.431  26.748   7.755
    3AU     AUC 1142   5.409  26.420   7.244
    3AU     AUC 1143   5.406  26.716   7.242
    3AU     AUC 1144   5.922  26.571   7.175
    3AU     AUC 1145   5.933  26.580   7.476
    3AU     AUC 1146   5.934  26.565   7.784
    3AU     AUC 1147   4.908  26.576   7.186
    3AU     AUC 1148   4.893  26.611   7.484
    3AU     AUC 1149   4.900  26.654   7.808
    3AU     AUC 1150   5.127  27.116   7.517
    3AU     AUC 1151   5.437  27.105   7.508
    3AU     AUC 1152   5.739  27.093   7.494
    3AU     AUC 1153   5.057  26.093   7.530
    3AU     AUC 1154   5.370  26.058   7.511
    3AU     AUC 1155   5.692  26.049   7.522
    3AU     AUC 1156   5.398  26.274   8.016
    3AU     AUC 1157   5.431  26.573   8.029
    3AU     AUC 1158   5.464  26.896   8.011
    3AU     AUC 1159   5.408  26.235   7.011
    3AU     AUC 1160   5.420  26.553   6.979
    3AU     AUC 1161   5.404  26.868   6.976
    3AU     AUC 1162   5.673  26.400   7.917
    3AU     AUC 1163   5.691  26.739   7.923
    3AU     AUC 1164   5.681  26.406   7.082
    3AU     AUC 1165   5.681  26.717   7.068
    3AU     AUC 1166   5.153  26.473   7.938
    3AU     AUC 1167   5.158  26.779   7.914
    3AU     AUC 1168   5.161  26.410   7.077
    3AU     AUC 1169   5.158  26.726   7.076
    3AU     AUC 1170   5.834  26.841   7.319
    3AU     AUC 1171   5.850  26.810   7.664
    3AU     AUC 1172   5.003  26.858   7.354
    3AU     AUC 1173   5.016  26.893   7.660
    3AU     AUC 1174   5.824  26.303   7.357
    3AU     AUC 1175   5.804  26.286   7.663
    3AU     AUC 1176   4.982  26.331   7.357
    3AU     AUC 1177   4.982  26.372   7.697
    3AU     AUC 1178   5.288  27.016   7.775
    3AU     AUC 1179   5.617  26.997   7.750
    3AU     AUC 1180   5.214  26.181   7.773
    3AU     AUC 1181   5.534  26.158   7.775
    3AU     AUC 1182   5.267  26.993   7.235
    3AU     AUC 1183   5.579  26.976   7.230
    3AU     AUC 1184   5.229  26.170   7.253
    3AU     AUC 1185   5.560  26.153   7.264
    3AU    AUSL 1186   5.930  26.449   8.220
    3AU    AUSL 1187   5.699  26.083   8.130
    3AU     AUL 1188   5.989  26.129   8.365
    3AU       S 1189   6.008  25.721   8.120
    3AU     LIG 1190   5.805  25.397   8.323
    3AU     LIG 1191   5.964  25.077   8.617
    3AU     LIG 1192   6.223  24.797   8.908
    3AU     LIG 1193   6.308  24.552   9.321
    3AU     LIG 1194   6.425  24.513   9.793
    3AU     LIG 1195   6.567  24.329  10.202
    3AU       S 1196   5.884  26.507   8.629
    3AU     LIG 1197   6.027  26.361   9.054
    3AU     LIG 1198   6.284  26.130   9.389
    3AU     LIG 1199   6.616  25.980   9.699
    3AU     LIG 1200   7.029  26.029   9.950
    3AU     LIG 1201   7.230  26.222  10.336
    3AU     LIG 1202   7.366  26.281  10.779
    3AU    AUSL 1203   5.511  26.384   8.356
    3AU    AUSL 1204   5.364  26.802   8.365
    3AU     AUL 1205   5.427  26.713   8.709
    3AU       S 1206   5.589  26.320   8.535
    3AU     LIG 1207   5.538  26.199   8.969
    3AU     LIG 1208   5.778  26.004   9.356
    3AU     LIG 1209   6.025  25.835   9.750
    3AU     LIG 1210   6.047  25.611  10.196
    3AU     LIG 1211   6.079  25.570  10.683
    3AU     LIG 1212   6.168  25.468  11.145
    3AU       S 1213   5.006  26.559   8.686
    3AU     LIG 1214   4.877  26.597   9.110
    3AU     LIG 1215   4.745  26.411   9.501
    3AU     LIG 1216   4.581  26.413   9.923
    3AU     LIG 1217   4.640  26.642  10.328
    3AU     LIG 1218   4.622  26.931  10.695
    3AU     LIG 1219   4.505  27.232  11.040
    3AU    AUSL 1220   5.617  26.673   8.065
    3AU    AUSL 1221   6.050  26.778   7.984
    3AU     AUL 1222   6.113  26.616   8.215
    3AU       S 1223   5.823  26.773   8.527
    3AU     LIG 1224   5.740  27.152   8.725
    3AU     LIG 1225   5.941  27.330   9.126
    3AU     LIG 1226   5.955  27.378   9.613
    3AU     LIG 1227   6.015  27.457  10.085
    3AU     LIG 1228   6.048  27.464  10.556
    3AU     LIG 1229   6.154  27.520  11.009
    3AU       S 1230   6.318  27.031   8.195
    3AU     LIG 1231   6.692  27.179   8.438
    3AU     LIG 1232   6.902  27.309   8.842
    3AU     LIG 1233   7.205  27.390   9.202
    3AU     LIG 1234   7.472  27.449   9.591
    3AU     LIG 1235   7.876  27.509   9.834
    3AU     LIG 1236   8.294  27.733   9.874
    3AU    AUSL 1237   5.946  26.605   6.865
    3AU    AUSL 1238   5.693  27.012   6.816
    3AU     AUL 1239   6.022  26.951   6.440
    3AU       S 1240   5.997  26.633   6.723
    3AU     LIG 1241   6.267  26.545   6.331
    3AU     LIG 1242   6.364  26.310   5.941
    3AU     LIG 1243   6.457  26.167   5.504
    3AU     LIG 1244   6.658  26.013   5.098
    3AU     LIG 1245   7.018  25.908   4.778
    3AU     LIG 1246   7.265  26.011   4.385
    3AU       S 1247   5.680  27.095   6.665
    3AU     LIG 1248   5.952  27.479   6.600
    3AU     LIG 1249   6.320  27.535   6.325
    3AU     LIG 1250   6.625  27.667   5.975
    3AU     LIG 1251   6.870  27.770   5.558
    3AU     LIG 1252   7.104  28.048   5.232
    3AU     LIG 1253   7.251  28.424   4.964
    3AU    AUSL 1254   5.692  26.289   6.690
    3AU    AUSL 1255   6.036  26.222   6.998
    3AU     AUL 1256   6.074  26.216   6.645
    3AU       S 1257   6.154  25.815   6.870
    3AU     LIG 1258   6.289  25.509   6.535
    3AU     LIG 1259   6.519  25.183   6.270
    3AU     LIG 1260   6.749  24.920   5.951
    3AU     LIG 1261   7.105  24.902   5.643
    3AU     LIG 1262   7.521  24.933   5.434
    3AU     LIG 1263   7.852  24.975   5.096
    3AU       S 1264   5.768  26.519   6.439
    3AU     LIG 1265   5.896  26.187   6.146
    3AU     LIG 1266   6.043  25.945   5.738
    3AU     LIG 1267   6.216  25.747   5.313
    3AU     LIG 1268   6.321  25.501   4.900
    3AU     LIG 1269   6.298  25.465   4.410
    3AU     LIG 1270   6.211  25.465   3.926
    3AU    AUSL 1271   5.529  26.640   6.871
    3AU    AUSL 1272   5.275  26.367   6.670
    3AU     AUL 1273   5.493  26.163   6.568
    3AU       S 1274   5.230  26.459   6.320
    3AU     LIG 1275   5.136  26.180   5.973
    3AU     LIG 1276   4.835  25.977   5.666
    3AU     LIG 1277   4.598  25.882   5.252
    3AU     LIG 1278   4.424  25.616   4.873
    3AU     LIG 1279   4.363  25.502   4.397
    3AU     LIG 1280   4.337  25.514   3.913
    3AU       S 1281   5.652  26.630   6.515
    3AU     LIG 1282   5.695  26.643   5.984
    3AU     LIG 1283   5.973  26.451   5.627
    3AU     LIG 1284   6.152  26.424   5.174
    3AU     LIG 1285   6.213  26.633   4.738
    3AU     LIG 1286   6.272  26.895   4.336
    3AU     LIG 1287   6.333  27.013   3.886
    3AU    AUSL 1288   4.960  26.734   8.247
    3AU    AUSL 1289   5.246  26.944   7.993
    3AU     AUL 1290   5.188  27.024   8.385
    3AU       S 1291   4.884  26.753   8.618
    3AU     LIG 1292   4.527  26.464   8.725
    3AU     LIG 1293   4.407  26.277   9.136
    3AU     LIG 1294   4.272  26.156   9.578
    3AU     LIG 1295   3.891  26.135   9.884
    3AU     LIG 1296   3.590  26.229  10.246
    3AU     LIG 1297   3.236  26.311  10.550
    3AU       S 1298   4.760  27.154   8.261
    3AU     LIG 1299   4.834  27.304   8.686
    3AU     LIG 1300   4.709  27.664   8.954
    3AU     LIG 1301   4.534  27.750   9.390
    3AU     LIG 1302   4.370  27.903   9.818
    3AU     LIG 1303   4.166  28.202  10.141
    3AU     LIG 1304   3.888  28.459  10.444
    3AU    AUSL 1305   5.221  26.470   8.070
    3AU    AUSL 1306   4.717  26.468   8.026
    3AU     AUL 1307   4.817  26.472   8.258
    3AU       S 1308   4.541  26.101   8.257
    3AU     LIG 1309   4.142  25.905   8.096
    3AU     LIG 1310   3.759  25.647   8.212
    3AU     LIG 1311   3.544  25.375   8.550
    3AU     LIG 1312   3.348  25.074   8.866
    3AU     LIG 1313   3.034  24.980   9.213
    3AU     LIG 1314   2.710  25.164   9.519
    3AU       S 1315   5.101  26.390   8.598
    3AU     LIG 1316   4.878  26.117   8.926
    3AU     LIG 1317   4.722  25.923   9.347
    3AU     LIG 1318   4.550  25.746   9.760
    3AU     LIG 1319   4.529  25.445  10.136
    3AU     LIG 1320   4.469  25.420  10.602
    3AU     LIG 1321   4.459  25.424  11.072
    3AU    AUSL 1322   5.019  26.527   6.960
    3AU    AUSL 1323   5.148  26.087   6.943
    3AU     AUL 1324   4.988  26.200   6.655
    3AU       S 1325   4.974  26.537   6.326
    3AU     LIG 1326   4.680  26.422   5.962
    3AU     LIG 1327   4.432  26.278   5.558
    3AU     LIG 1328   4.089  26.041   5.283
    3AU     LIG 1329   3.724  26.004   4.949
    3AU     LIG 1330   3.428  26.194   4.621
    3AU     LIG 1331   3.250  26.273   4.182
    3AU       S 1332   4.709  25.811   6.825
    3AU     LIG 1333   4.436  25.439   6.810
    3AU     LIG 1334   4.123  25.158   6.569
    3AU     LIG 1335   3.827  24.879   6.301
    3AU     LIG 1336   3.663  24.745   5.862
    3AU     LIG 1337   3.835  24.608   5.421
    3AU     LIG 1338   4.016  24.299   5.088
    3AU    AUSL 1339   5.203  26.797   6.660
    3AU    AUSL 1340   4.802  26.883   6.923
    3AU     AUL 1341   4.787  26.635   6.729
    3AU       S 1342   4.823  27.109   6.688
    3AU     LIG 1343   4.696  27.284   6.265
    3AU     LIG 1344   4.445  27.552   5.938
    3AU     LIG 1345   4.187  27.673   5.523
    3AU     LIG 1346   3.772  27.747   5.250
    3AU     LIG 1347   3.335  27.778   5.022
    3AU     LIG 1348   2.973  27.962   4.763
    3AU       S 1349   5.185  26.715   6.458
    3AU     LIG 1350   5.159  26.712   5.907
    3AU     LIG 1351   4.956  26.465   5.530
    3AU     LIG 1352   4.782  26.414   5.078
    3AU     LIG 1353   4.796  26.600   4.605
    3AU     LIG 1354   4.753  26.802   4.147
    3AU     LIG 1355   4.515  27.001   3.772
    3AU    AUSL 1356   6.070  27.168   7.419
    3AU    AUSL 1357   6.065  26.958   7.046
    3AU     AUL 1358   6.171  27.417   7.231
    3AU       S 1359   6.157  27.099   6.856
    3AU     LIG 1360   6.503  27.023   6.573
    3AU     LIG 1361   6.783  27.280   6.281
    3AU     LIG 1362   7.073  27.413   5.907
    3AU     LIG 1363   7.471  27.485   5.647
    3AU     LIG 1364   7.839  27.592   5.362
    3AU     LIG 1365   8.095  27.850   5.053
    3AU       S 1366   6.478  27.084   7.294
    3AU     LIG 1367   6.854  27.320   7.483
    3AU     LIG 1368   7.291  27.185   7.568
    3AU     LIG 1369   7.760  27.266   7.519
    3AU     LIG 1370   8.082  27.642   7.549
    3AU     LIG 1371   8.359  28.043   7.626
    3AU     LIG 1372   8.619  28.438   7.745
    3AU    AUSL 1373   6.253  26.636   7.232
    3AU    AUSL 1374   6.251  26.451   7.708
    3AU     AUL 1375   6.474  26.503   7.483
    3AU       S 1376   6.523  26.801   7.111
    3AU     LIG 1377   7.027  26.891   7.196
    3AU     LIG 1378   7.527  26.839   7.263
    3AU     LIG 1379   7.989  26.678   7.266
    3AU     LIG 1380   8.460  26.646   7.182
    3AU     LIG 1381   8.880  26.851   7.088
    3AU     LIG 1382   9.215  27.217   7.011
    3AU       S 1383   6.570  26.064   7.644
    3AU     LIG 1384   6.988  25.856   7.663
    3AU     LIG 1385   7.419  25.663   7.669
    3AU     LIG 1386   7.862  25.574   7.719
    3AU     LIG 1387   8.261  25.610   7.962
    3AU     LIG 1388   8.690  25.566   7.808
    3AU     LIG 1389   9.103  25.454   7.989
    3AU    AUSL 1390   6.040  26.780   7.570
    3AU    AUSL 1391   5.986  27.162   7.823
    3AU     AUL 1392   6.280  26.967   7.721
    3AU       S 1393   6.208  27.224   8.098
    3AU     LIG 1394   6.371  27.571   8.372
    3AU     LIG 1395   6.724  27.759   8.640
    3AU     LIG 1396   7.058  27.983   8.898
    3AU     LIG 1397   7.362  28.344   8.919
    3AU     LIG 1398   7.613  28.732   9.019
    3AU     LIG 1399   7.681  29.191   8.957
    3AU       S 1400   6.546  26.964   7.353
    3AU     LIG 1401   6.856  26.826   7.671
    3AU     LIG 1402   7.325  26.679   7.708
    3AU     LIG 1403   7.816  26.636   7.746
    3AU     LIG 1404   8.310  26.633   7.701
    3AU     LIG 1405   8.794  26.761   7.797
    3AU     LIG 1406   9.188  27.035   7.995
    3AU    AUSL 1407   4.773  27.138   7.527
    3AU    AUSL 1408   4.839  26.890   7.883
    3AU     AUL 1409   4.577  27.245   7.780
    3AU       S 1410   4.567  26.945   8.140
    3AU     LIG 1411   4.427  26.990   8.605
    3AU     LIG 1412   4.339  27.265   9.008
    3AU     LIG 1413   4.017  27.415   9.361
    3AU     LIG 1414   3.583  27.530   9.594
    3AU     LIG 1415   3.196  27.740   9.840
    3AU     LIG 1416   2.916  27.895  10.212
    3AU       S 1417   4.222  27.108   7.534
    3AU     LIG 1418   4.318  27.605   7.544
    3AU     LIG 1419   4.152  28.059   7.587
    3AU     LIG 1420   3.759  28.344   7.606
    3AU     LIG 1421   3.318  28.555   7.631
    3AU     LIG 1422   2.868  28.702   7.760
    3AU     LIG 1423   2.434  28.759   7.928
    3AU    AUSL 1424   4.848  26.789   7.320
    3AU    AUSL 1425   4.952  27.232   7.158
    3AU     AUL 1426   4.684  27.138   7.158
    3AU       S 1427   4.297  27.128   7.393
    3AU     LIG 1428   3.884  27.132   7.148
    3AU     LIG 1429   3.602  27.314   6.815
    3AU     LIG 1430   3.141  27.284   6.692
    3AU     LIG 1431   2.661  27.306   6.766
    3AU     LIG 1432   2.220  27.508   6.789
    3AU     LIG 1433   1.804  27.645   6.563
    3AU       S 1434   4.839  27.411   6.786
    3AU     LIG 1435   4.672  27.755   6.472
    3AU     LIG 1436   4.638  28.165   6.208
    3AU     LIG 1437   4.450  28.604   6.109
    3AU     LIG 1438   4.007  28.796   6.074
    3AU     LIG 1439   3.582  29.025   6.009
    3AU     LIG 1440   3.311  29.346   5.785
    3AU    AUSL 1441   4.544  26.768   7.630
    3AU    AUSL 1442   4.578  26.474   7.314
    3AU     AUL 1443   4.454  26.738   7.232
    3AU       S 1444   4.246  26.291   7.447
    3AU     LIG 1445   3.912  26.274   7.800
    3AU     LIG 1446   3.423  26.276   7.849
    3AU     LIG 1447   2.978  26.109   7.794
    3AU     LIG 1448   2.659  25.792   7.585
    3AU     LIG 1449   2.242  25.787   7.349
    3AU     LIG 1450   1.842  25.841   7.135
    3AU       S 1451   4.363  26.803   7.708
    3AU     LIG 1452   4.061  27.027   8.006
    3AU     LIG 1453   3.601  27.115   8.185
    3AU     LIG 1454   3.131  27.202   8.148
    3AU     LIG 1455   2.802  27.569   8.122
    3AU     LIG 1456   2.349  27.722   8.087
    3AU     LIG 1457   1.943  27.634   8.320
    3AU    AUSL 1458   6.112  26.079   7.558
    3AU    AUSL 1459   5.867  26.340   7.828
    3AU     AUL 1460   6.236  26.233   7.933
    3AU       S 1461   6.280  25.825   7.555
    3AU     LIG 1462   6.557  25.551   7.771
    3AU     LIG 1463   6.964  25.338   7.648
    3AU     LIG 1464   7.381  25.117   7.578
    3AU     LIG 1465   7.684  24.737   7.490
    3AU     LIG 1466   8.046  24.415   7.431
    3AU     LIG 1467   8.442  24.162   7.389
    3AU       S 1468   6.112  25.814   8.040
    3AU     LIG 1469   6.390  25.544   8.363
    3AU     LIG 1470   6.478  25.196   8.665
    3AU     LIG 1471   6.744  24.891   8.904
    3AU     LIG 1472   7.121  24.868   9.204
    3AU     LIG 1473   7.472  24.909   9.537
    3AU     LIG 1474   7.759  24.937   9.926
    3AU    AUSL 1475   5.944  26.401   7.360
    3AU    AUSL 1476   5.871  25.922   7.254
    3AU     AUL 1477   6.238  26.165   7.193
    3AU       S 1478   6.272  25.951   7.579
    3AU     LIG 1479   6.668  25.728   7.275
    3AU     LIG 1480   7.159  25.580   7.234
    3AU     LIG 1481   7.645  25.418   7.259
    3AU     LIG 1482   8.159  25.454   7.277
    3AU     LIG 1483   8.653  25.324   7.175
    3AU     LIG 1484   9.127  25.169   7.022
    3AU       S 1485   6.131  25.715   7.079
    3AU     LIG 1486   6.053  25.290   6.935
    3AU     LIG 1487   6.267  24.957   6.661
    3AU     LIG 1488   6.517  24.660   6.366
    3AU     LIG 1489   6.746  24.247   6.239
    3AU     LIG 1490   7.094  23.942   6.094
    3AU     LIG 1491   7.427  23.623   5.947
    3AU    AUSL 1492   4.692  26.102   7.517
    3AU    AUSL 1493   4.767  26.214   7.061
    3AU     AUL 1494   4.506  26.287   7.051
    3AU       S 1495   4.695  25.871   7.081
    3AU     LIG 1496   4.217  25.866   7.028
    3AU     LIG 1497   3.919  25.610   6.747
    3AU     LIG 1498   3.635  25.337   6.456
    3AU     LIG 1499   3.348  25.045   6.192
    3AU     LIG 1500   3.086  24.904   5.830
    3AU     LIG 1501   2.943  24.986   5.382
    3AU       S 1502   4.414  26.074   7.454
    3AU     LIG 1503   4.055  25.823   7.572
    3AU     LIG 1504   3.595  25.816   7.683
    3AU     LIG 1505   3.140  25.615   7.689
    3AU     LIG 1506   2.758  25.281   7.761
    3AU     LIG 1507   2.399  24.935   7.851
    3AU     LIG 1508   2.034  24.630   7.938
    3AU    AUSL 1509   4.849  26.487   7.639
    3AU    AUSL 1510   4.930  26.141   7.879
    3AU     AUL 1511   4.551  26.302   7.829
    3AU       S 1512   4.686  25.972   8.111
    3AU     LIG 1513   4.508  25.687   7.813
    3AU     LIG 1514   4.110  25.403   7.921
    3AU     LIG 1515   3.750  25.111   8.160
    3AU     LIG 1516   3.409  24.821   8.413
    3AU     LIG 1517   3.170  24.390   8.516
    3AU     LIG 1518   3.005  24.025   8.785
    3AU       S 1519   4.293  26.367   7.467
    3AU     LIG 1520   3.778  26.205   7.324
    3AU     LIG 1521   3.285  26.132   7.362
    3AU     LIG 1522   2.801  26.252   7.344
    3AU     LIG 1523   2.393  26.219   7.630
    3AU     LIG 1524   2.004  25.953   7.779
    3AU     LIG 1525   1.579  25.790   7.977
    3AU    AUSL 1526   5.442  27.306   8.014
    3AU    AUSL 1527   5.033  27.261   7.827
    3AU     AUL 1528   5.212  27.393   8.099
    3AU       S 1529   4.803  27.242   8.179
    3AU     LIG 1530   4.826  27.702   8.328
    3AU     LIG 1531   4.559  28.032   8.566
    3AU     LIG 1532   4.525  28.453   8.800
    3AU     LIG 1533   4.254  28.805   9.004
    3AU     LIG 1534   3.839  29.013   9.088
    3AU     LIG 1535   3.367  28.976   9.192
    3AU       S 1536   5.551  27.735   7.987
    3AU     LIG 1537   5.378  27.920   8.366
    3AU     LIG 1538   5.539  28.237   8.677
    3AU     LIG 1539   5.683  28.465   9.052
    3AU     LIG 1540   5.653  28.819   9.344
    3AU     LIG 1541   5.605  29.174   9.648
    3AU     LIG 1542   5.678  29.595   9.850
    3AU    AUSL 1543   5.324  27.475   7.626
    3AU    AUSL 1544   5.656  27.412   7.330
    3AU     AUL 1545   5.400  27.693   7.423
    3AU       S 1546   5.400  27.779   7.868
    3AU     LIG 1547   5.438  28.237   7.971
    3AU     LIG 1548   5.333  28.518   8.295
    3AU     LIG 1549   5.301  28.974   8.419
    3AU     LIG 1550   4.923  29.265   8.376
    3AU     LIG 1551   4.795  29.726   8.369
    3AU     LIG 1552   4.700  30.188   8.483
    3AU       S 1553   5.681  27.776   7.057
    3AU     LIG 1554   5.935  28.052   7.198
    3AU     LIG 1555   6.101  28.409   6.990
    3AU     LIG 1556   6.111  28.798   6.708
    3AU     LIG 1557   6.098  29.275   6.601
    3AU     LIG 1558   6.197  29.764   6.552
    3AU     LIG 1559   6.219  30.267   6.524
    3AU    AUSL 1560   5.613  27.158   7.665
    3AU    AUSL 1561   5.738  27.048   8.156
    3AU     AUL 1562   5.757  27.331   8.035
    3AU       S 1563   6.068  27.090   8.292
    3AU     LIG 1564   6.248  27.177   8.696
    3AU     LIG 1565   6.428  27.486   8.969
    3AU     LIG 1566   6.777  27.679   9.199
    3AU     LIG 1567   7.107  27.826   9.505
    3AU     LIG 1568   7.170  28.112   9.886
    3AU     LIG 1569   7.233  28.496  10.160
    3AU       S 1570   5.768  27.651   7.718
    3AU     LIG 1571   5.870  28.088   7.716
    3AU     LIG 1572   6.104  28.382   7.998
    3AU     LIG 1573   6.408  28.678   8.226
    3AU     LIG 1574   6.543  29.128   8.243
    3AU     LIG 1575   6.549  29.566   8.435
    3AU     LIG 1576   6.367  30.011   8.539
    3AU    AUSL 1577   5.371  26.037   7.873
    3AU    AUSL 1578   5.784  25.923   7.749
    3AU     AUL 1579   5.565  25.828   8.124
    3AU       S 1580   5.372  25.426   8.024
    3AU     LIG 1581   5.470  25.006   8.148
    3AU     LIG 1582   5.215  24.652   8.267
    3AU     LIG 1583   5.087  24.258   8.485
    3AU     LIG 1584   5.143  23.883   8.757
    3AU     LIG 1585   4.902  23.653   9.105
    3AU     LIG 1586   4.866  23.422   9.522
    3AU       S 1587   5.921  25.682   7.839
    3AU     LIG 1588   6.170  25.256   7.996
    3AU     LIG 1589   6.317  24.869   8.302
    3AU     LIG 1590   6.516  24.505   8.592
    3AU     LIG 1591   6.706  24.039   8.684
    3AU     LIG 1592   7.068  23.707   8.775
    3AU     LIG 1593   7.549  23.630   8.856
    3AU    AUSL 1594   5.066  25.823   7.666
    3AU    AUSL 1595   5.165  26.097   8.231
    3AU     AUL 1596   5.099  25.807   8.011
    3AU       S 1597   5.176  25.363   7.889
    3AU     LIG 1598   5.040  24.936   7.830
    3AU     LIG 1599   4.927  24.481   7.869
    3AU     LIG 1600   4.790  24.085   8.079
    3AU     LIG 1601   4.465  23.726   8.096
    3AU     LIG 1602   4.433  23.266   8.084
    3AU     LIG 1603   4.199  22.899   8.236
    3AU       S 1604   4.838  26.011   8.336
    3AU     LIG 1605   4.494  25.600   8.358
    3AU     LIG 1606   4.105  25.335   8.457
    3AU     LIG 1607   3.853  24.994   8.692
    3AU     LIG 1608   3.737  24.879   9.141
    3AU     LIG 1609   3.690  24.719   9.581
    3AU     LIG 1610   3.578  24.372   9.878
    3AU    AUSL 1611   5.466  25.679   7.648
    3AU    AUSL 1612   5.176  25.765   7.269
    3AU     AUL 1613   5.008  25.592   7.529
    3AU       S 1614   5.230  25.422   7.153
    3AU     LIG 1615   4.835  25.263   7.138
    3AU     LIG 1616   4.760  24.805   7.095
    3AU     LIG 1617   4.849  24.337   7.016
    3AU     LIG 1618   4.831  23.916   6.817
    3AU     LIG 1619   4.796  23.480   6.648
    3AU     LIG 1620   4.664  23.024   6.693
    3AU       S 1621   5.427  25.536   7.751
    3AU     LIG 1622   5.509  25.076   7.640
    3AU     LIG 1623   5.427  24.600   7.768
    3AU     LIG 1624   5.332  24.209   8.045
    3AU     LIG 1625   5.517  23.796   8.126
    3AU     LIG 1626   5.694  23.417   8.339
    3AU     LIG 1627   6.133  23.226   8.335
    3AU    AUSL 1628   5.415  27.266   7.001
    3AU    AUSL 1629   5.720  27.009   7.255
    3AU     AUL 1630   5.763  27.335   7.032
    3AU       S 1631   5.440  27.550   6.776
    3AU     LIG 1632   5.564  27.828   6.456
    3AU     LIG 1633   5.659  28.256   6.324
    3AU     LIG 1634   5.794  28.609   6.062
    3AU     LIG 1635   5.775  28.857   5.658
    3AU     LIG 1636   5.909  29.191   5.341
    3AU     LIG 1637   5.715  29.592   5.156
    3AU       S 1638   6.125  27.050   6.944
    3AU     LIG 1639   6.467  27.462   6.828
    3AU     LIG 1640   6.727  27.747   6.546
    3AU     LIG 1641   6.956  28.040   6.261
    3AU     LIG 1642   7.212  28.442   6.130
    3AU     LIG 1643   7.623  28.694   6.034
    3AU     LIG 1644   7.868  29.111   6.044
    3AU    AUSL 1645   5.282  27.149   7.391
    3AU    AUSL 1646   5.210  26.915   7.049
    3AU     AUL 1647   5.153  27.414   7.134
    3AU       S 1648   5.475  27.717   6.979
    3AU     LIG 1649   5.530  28.176   6.829
    3AU     LIG 1650   5.639  28.590   6.732
    3AU     LIG 1651   5.571  29.030   6.617
    3AU     LIG 1652   5.294  29.435   6.597
    3AU     LIG 1653   5.004  29.816   6.563
    3AU     LIG 1654   4.719  30.108   6.799
    3AU       S 1655   5.064  27.231   6.688
    3AU     LIG 1656   5.132  27.544   6.359
    3AU     LIG 1657   4.917  27.769   6.009
    3AU     LIG 1658   4.632  27.978   5.686
    3AU     LIG 1659   4.485  28.165   5.265
    3AU     LIG 1660   4.266  28.442   4.930
    3AU     LIG 1661   4.018  28.772   4.686
    3AU    AUSL 1662   5.493  25.858   6.992
    3AU    AUSL 1663   5.066  26.156   7.351
    3AU     AUL 1664   5.146  25.830   6.960
    3AU       S 1665   4.717  25.763   7.191
    3AU     LIG 1666   4.382  25.486   7.325
    3AU     LIG 1667   4.034  25.236   7.086
    3AU     LIG 1668   3.705  24.968   6.812
    3AU     LIG 1669   3.375  24.685   6.563
    3AU     LIG 1670   3.123  24.299   6.392
    3AU     LIG 1671   2.936  23.940   6.155
    3AU       S 1672   5.402  25.447   6.956
    3AU     LIG 1673   5.152  25.130   6.746
    3AU     LIG 1674   5.127  24.677   6.744
    3AU     LIG 1675   5.190  24.233   6.609
    3AU     LIG 1676   5.058  23.874   6.344
    3AU     LIG 1677   5.149  23.653   5.943
    3AU     LIG 1678   5.007  23.480   5.525
    3AU    AUSL 1679   5.497  26.003   7.411
    3AU    AUSL 1680   5.612  26.237   7.082
    3AU     AUL 1681   5.685  25.729   7.186
    3AU       S 1682   5.358  25.431   7.264
    3AU     LIG 1683   5.253  24.933   7.221
    3AU     LIG 1684   5.322  24.466   7.184
    3AU     LIG 1685   5.295  24.008   7.048
    3AU     LIG 1686   5.274  23.647   6.755
    3AU     LIG 1687   5.614  23.359   6.626
    3AU     LIG 1688   6.074  23.334   6.731
    3AU       S 1689   5.894  25.816   6.777
    3AU     LIG 1690   5.768  25.461   6.544
    3AU     LIG 1691   5.994  25.148   6.269
    3AU     LIG 1692   6.232  24.858   5.969
    3AU     LIG 1693   6.450  24.635   5.596
    3AU     LIG 1694   6.492  24.308   5.226
    3AU     LIG 1695   6.734  24.073   4.874
    4AU     AUC 1696  30.543  23.643   7.503
    4AU     AUC 1697  30.805  23.639   7.344
    4AU     AUC 1698  30.791  23.636   7.653
    4AU     AUC 1699  30.296  23.648   7.340
    4AU     AUC 1700  30.282  23.674   7.655
    4AU     AUC 1701  30.394  23.914   7.508
    4AU     AUC 1702  30.715  23.886   7.503
    4AU     AUC 1703  30.373  23.402   7.516
    4AU     AUC 1704  30.674  23.375   7.523
    4AU     AUC 1705  30.530  23.487   7.761
    4AU     AUC 1706  30.559  23.809   7.754
    4AU     AUC 1707  30.542  23.480   7.244
    4AU     AUC 1708  30.539  23.777   7.242
    4AU     AUC 1709  31.055  23.632   7.179
    4AU     AUC 1710  31.063  23.641   7.480
    4AU     AUC 1711  31.062  23.628   7.789
    4AU     AUC 1712  30.043  23.634   7.181
    4AU     AUC 1713  30.023  23.671   7.478
    4AU     AUC 1714  30.026  23.712   7.803
    4AU     AUC 1715  30.254  24.175   7.512
    4AU     AUC 1716  30.564  24.166   7.509
    4AU     AUC 1717  30.868  24.155   7.495
    4AU     AUC 1718  30.188  23.154   7.528
    4AU     AUC 1719  30.501  23.119   7.513
    4AU     AUC 1720  30.822  23.110   7.527
    4AU     AUC 1721  30.525  23.338   8.017
    4AU     AUC 1722  30.558  23.637   8.029
    4AU     AUC 1723  30.587  23.958   8.012
    4AU     AUC 1724  30.543  23.293   7.013
    4AU     AUC 1725  30.555  23.611   6.979
    4AU     AUC 1726  30.539  23.927   6.976
    4AU     AUC 1727  30.800  23.464   7.920
    4AU     AUC 1728  30.817  23.802   7.924
    4AU     AUC 1729  30.815  23.465   7.084
    4AU     AUC 1730  30.814  23.777   7.070
    4AU     AUC 1731  30.279  23.534   7.936
    4AU     AUC 1732  30.282  23.838   7.911
    4AU     AUC 1733  30.295  23.468   7.075
    4AU     AUC 1734  30.293  23.786   7.073
    4AU     AUC 1735  30.965  23.902   7.320
    4AU     AUC 1736  30.978  23.873   7.666
    4AU     AUC 1737  30.134  23.917   7.348
    4AU     AUC 1738  30.143  23.953   7.655
    4AU     AUC 1739  30.956  23.364   7.361
    4AU     AUC 1740  30.933  23.348   7.668
    4AU     AUC 1741  30.114  23.389   7.354
    4AU     AUC 1742  30.111  23.432   7.693
    4AU     AUC 1743  30.413  24.076   7.773
    4AU     AUC 1744  30.744  24.058   7.750
    4AU     AUC 1745  30.342  23.242   7.772
    4AU     AUC 1746  30.663  23.220   7.778
    4AU     AUC 1747  30.398  24.053   7.233
    4AU     AUC 1748  30.711  24.037   7.231
    4AU     AUC 1749  30.363  23.229   7.253
    4AU     AUC 1750  30.693  23.213   7.268
    4AU    AUSL 1751  31.055  23.514   8.224
    4AU    AUSL 1752  30.824  23.149   8.136
    4AU     AUL 1753  31.113  23.199   8.377
    4AU       S 1754  31.127  22.789   8.137
    4AU     LIG 1755  30.978  22.411   8.294
    4AU     LIG 1756  31.126  22.139   8.646
    4AU     LIG 1757  31.366  21.937   8.997
    4AU     LIG 1758  31.482  21.659   9.360
    4AU     LIG 1759  31.489  21.421   9.777
    4AU     LIG 1760  31.610  21.228  10.190
    4AU       S 1761  31.006  23.579   8.636
    4AU     LIG 1762  31.179  23.408   9.047
    4AU     LIG 1763  31.410  23.190   9.418
    4AU     LIG 1764  31.717  22.987   9.733
    4AU     LIG 1765  32.111  23.068  10.010
    4AU     LIG 1766  32.399  23.370  10.257
    4AU     LIG 1767  32.431  23.635  10.650
    4AU    AUSL 1768  30.634  23.452   8.359
    4AU    AUSL 1769  30.485  23.870   8.362
    4AU     AUL 1770  30.547  23.778   8.712
    4AU       S 1771  30.708  23.390   8.534
    4AU     LIG 1772  30.842  23.080   8.825
    4AU     LIG 1773  30.963  22.965   9.275
    4AU     LIG 1774  31.150  22.821   9.697
    4AU     LIG 1775  31.334  22.623  10.089
    4AU     LIG 1776  31.311  22.595  10.562
    4AU     LIG 1777  31.304  22.542  11.024
    4AU       S 1778  30.114  23.660   8.692
    4AU     LIG 1779  29.998  23.600   9.127
    4AU     LIG 1780  29.922  23.405   9.548
    4AU     LIG 1781  29.752  23.409   9.977
    4AU     LIG 1782  29.726  23.707  10.345
    4AU     LIG 1783  29.661  24.027  10.692
    4AU     LIG 1784  29.443  24.280  11.030
    4AU    AUSL 1785  30.744  23.740   8.068
    4AU    AUSL 1786  31.178  23.843   7.989
    4AU     AUL 1787  31.238  23.681   8.221
    4AU       S 1788  30.941  23.842   8.525
    4AU     LIG 1789  30.906  24.129   8.859
    4AU     LIG 1790  31.152  24.267   9.237
    4AU     LIG 1791  31.229  24.350   9.708
    4AU     LIG 1792  31.168  24.569  10.129
    4AU     LIG 1793  31.225  24.717  10.579
    4AU     LIG 1794  31.350  24.578  11.015
    4AU       S 1795  31.438  24.095   8.196
    4AU     LIG 1796  31.828  24.141   8.436
    4AU     LIG 1797  32.040  24.198   8.844
    4AU     LIG 1798  32.308  24.476   9.100
    4AU     LIG 1799  32.567  24.629   9.463
    4AU     LIG 1800  32.953  24.652   9.751
    4AU     LIG 1801  33.363  24.752   9.976
    4AU    AUSL 1802  31.081  23.661   6.866
    4AU    AUSL 1803  30.824  24.070   6.815
    4AU     AUL 1804  31.156  24.009   6.443
    4AU       S 1805  31.128  23.689   6.724
    4AU     LIG 1806  31.389  23.598   6.325
    4AU     LIG 1807  31.414  23.398   5.910
    4AU     LIG 1808  31.553  23.255   5.476
    4AU     LIG 1809  31.854  23.138   5.106
    4AU     LIG 1810  32.235  23.038   4.802
    4AU     LIG 1811  32.531  23.095   4.422
    4AU       S 1812  30.810  24.153   6.661
    4AU     LIG 1813  31.117  24.515   6.590
    4AU     LIG 1814  31.500  24.563   6.316
    4AU     LIG 1815  31.835  24.754   6.004
    4AU     LIG 1816  32.000  24.953   5.579
    4AU     LIG 1817  32.128  25.277   5.231
    4AU     LIG 1818  32.294  25.383   4.788
    4AU    AUSL 1819  30.828  23.342   6.694
    4AU    AUSL 1820  31.172  23.281   7.006
    4AU     AUL 1821  31.210  23.271   6.651
    4AU       S 1822  31.297  22.878   6.889
    4AU     LIG 1823  31.408  22.610   6.527
    4AU     LIG 1824  31.645  22.260   6.319
    4AU     LIG 1825  31.884  22.007   5.999
    4AU     LIG 1826  32.281  22.039   5.717
    4AU     LIG 1827  32.683  22.030   5.442
    4AU     LIG 1828  33.027  22.039   5.097
    4AU       S 1829  30.899  23.575   6.441
    4AU     LIG 1830  30.998  23.211   6.186
    4AU     LIG 1831  31.084  23.031   5.746
    4AU     LIG 1832  31.159  22.990   5.273
    4AU     LIG 1833  31.067  22.756   4.855
    4AU     LIG 1834  31.138  22.655   4.380
    4AU     LIG 1835  31.294  22.799   3.940
    4AU    AUSL 1836  30.665  23.696   6.871
    4AU    AUSL 1837  30.412  23.424   6.668
    4AU     AUL 1838  30.629  23.217   6.570
    4AU       S 1839  30.369  23.513   6.319
    4AU     LIG 1840  30.314  23.235   5.956
    4AU     LIG 1841  30.095  22.985   5.606
    4AU     LIG 1842  29.839  22.846   5.224
    4AU     LIG 1843  29.533  22.674   4.873
    4AU     LIG 1844  29.484  22.535   4.405
    4AU     LIG 1845  29.360  22.725   3.983
    4AU       S 1846  30.792  23.686   6.512
    4AU     LIG 1847  30.925  23.676   5.975
    4AU     LIG 1848  31.078  23.501   5.532
    4AU     LIG 1849  31.274  23.494   5.087
    4AU     LIG 1850  31.341  23.749   4.661
    4AU     LIG 1851  31.438  23.954   4.219
    4AU     LIG 1852  31.687  24.060   3.806
    4AU    AUSL 1853  30.084  23.784   8.240
    4AU    AUSL 1854  30.366  24.000   7.985
    4AU     AUL 1855  30.295  24.067   8.384
    4AU       S 1856  29.965  23.809   8.613
    4AU     LIG 1857  29.677  23.436   8.744
    4AU     LIG 1858  29.590  23.247   9.185
    4AU     LIG 1859  29.423  23.166   9.644
    4AU     LIG 1860  29.181  23.109  10.068
    4AU     LIG 1861  28.841  23.249  10.383
    4AU     LIG 1862  28.558  23.479  10.693
    4AU       S 1863  29.869  24.195   8.267
    4AU     LIG 1864  29.940  24.305   8.720
    4AU     LIG 1865  29.861  24.624   9.057
    4AU     LIG 1866  29.601  24.928   9.314
    4AU     LIG 1867  29.429  25.144   9.707
    4AU     LIG 1868  29.297  25.400  10.103
    4AU     LIG 1869  29.114  25.692  10.453
    4AU    AUSL 1870  30.353  23.530   8.062
    4AU    AUSL 1871  29.835  23.527   8.016
    4AU     AUL 1872  29.945  23.528   8.252
    4AU       S 1873  29.661  23.165   8.261
    4AU     LIG 1874  29.295  22.974   8.044
    4AU     LIG 1875  28.961  22.674   8.193
    4AU     LIG 1876  28.758  22.388   8.522
    4AU     LIG 1877  28.555  22.090   8.828
    4AU     LIG 1878  28.227  21.955   9.145
    4AU     LIG 1879  27.854  22.018   9.443
    4AU       S 1880  30.220  23.464   8.599
    4AU     LIG 1881  30.077  23.145   8.896
    4AU     LIG 1882  29.994  22.950   9.321
    4AU     LIG 1883  29.861  22.925   9.775
    4AU     LIG 1884  29.722  22.714  10.175
    4AU     LIG 1885  29.563  22.565  10.603
    4AU     LIG 1886  29.598  22.715  11.047
    4AU    AUSL 1887  30.158  23.585   6.958
    4AU    AUSL 1888  30.285  23.144   6.942
    4AU     AUL 1889  30.128  23.255   6.652
    4AU       S 1890  30.116  23.593   6.323
    4AU     LIG 1891  29.844  23.449   5.965
    4AU     LIG 1892  29.638  23.228   5.582
    4AU     LIG 1893  29.359  23.043   5.225
    4AU     LIG 1894  28.979  22.951   4.939
    4AU     LIG 1895  28.596  23.133   4.732
    4AU     LIG 1896  28.508  23.433   4.383
    4AU       S 1897  29.851  22.866   6.825
    4AU     LIG 1898  29.586  22.499   6.798
    4AU     LIG 1899  29.279  22.256   6.531
    4AU     LIG 1900  28.995  22.012   6.227
    4AU     LIG 1901  28.795  21.835   5.824
    4AU     LIG 1902  28.863  21.660   5.364
    4AU     LIG 1903  28.959  21.564   4.892
    4AU    AUSL 1904  30.341  23.855   6.658
    4AU    AUSL 1905  29.942  23.941   6.912
    4AU     AUL 1906  29.923  23.688   6.724
    4AU       S 1907  29.950  24.162   6.681
    4AU     LIG 1908  29.565  24.366   6.461
    4AU     LIG 1909  29.420  24.529   6.025
    4AU     LIG 1910  29.044  24.530   5.695
    4AU     LIG 1911  28.739  24.719   5.358
    4AU     LIG 1912  28.408  25.012   5.155
    4AU     LIG 1913  28.077  25.241   4.886
    4AU       S 1914  30.325  23.772   6.458
    4AU     LIG 1915  30.307  23.766   5.905
    4AU     LIG 1916  30.114  23.500   5.532
    4AU     LIG 1917  29.847  23.389   5.138
    4AU     LIG 1918  29.677  23.599   4.725
    4AU     LIG 1919  29.561  23.825   4.301
    4AU     LIG 1920  29.345  24.070   3.934
    4AU    AUSL 1921  31.206  24.224   7.417
    4AU    AUSL 1922  31.194  24.015   7.045
    4AU     AUL 1923  31.305  24.472   7.228
    4AU       S 1924  31.295  24.146   6.860
    4AU     LIG 1925  31.641  24.065   6.567
    4AU     LIG 1926  31.942  24.290   6.258
    4AU     LIG 1927  32.257  24.451   5.923
    4AU     LIG 1928  32.678  24.494   5.684
    4AU     LIG 1929  33.057  24.574   5.401
    4AU     LIG 1930  33.320  24.769   5.047
    4AU       S 1931  31.612  24.138   7.289
    4AU     LIG 1932  32.003  24.406   7.391
    4AU     LIG 1933  32.467  24.373   7.476
    4AU     LIG 1934  32.953  24.402   7.502
    4AU     LIG 1935  33.362  24.694   7.525
    4AU     LIG 1936  33.659  25.096   7.611
    4AU     LIG 1937  33.890  25.430   7.894
    4AU    AUSL 1938  31.384  23.699   7.240
    4AU    AUSL 1939  31.380  23.514   7.716
    4AU     AUL 1940  31.605  23.569   7.496
    4AU       S 1941  31.647  23.851   7.111
    4AU     LIG 1942  32.131  23.983   7.116
    4AU     LIG 1943  32.621  23.959   7.216
    4AU     LIG 1944  33.112  23.985   7.227
    4AU     LIG 1945  33.586  24.077   7.284
    4AU     LIG 1946  34.063  24.122   7.222
    4AU     LIG 1947  34.452  24.367   7.197
    4AU       S 1948  31.704  23.131   7.657
    4AU     LIG 1949  32.074  22.836   7.670
    4AU     LIG 1950  32.482  22.578   7.683
    4AU     LIG 1951  32.920  22.384   7.690
    4AU     LIG 1952  33.402  22.376   7.713
    4AU     LIG 1953  33.838  22.411   7.879
    4AU     LIG 1954  34.132  22.653   8.165
    4AU    AUSL 1955  31.166  23.840   7.575
    4AU    AUSL 1956  31.116  24.224   7.819
    4AU     AUL 1957  31.409  24.030   7.722
    4AU       S 1958  31.336  24.285   8.103
    4AU     LIG 1959  31.532  24.556   8.453
    4AU     LIG 1960  31.921  24.684   8.720
    4AU     LIG 1961  32.223  24.982   8.950
    4AU     LIG 1962  32.423  25.429   8.951
    4AU     LIG 1963  32.646  25.868   8.964
    4AU     LIG 1964  33.015  26.183   8.914
    4AU       S 1965  31.684  24.024   7.361
    4AU     LIG 1966  32.051  23.935   7.624
    4AU     LIG 1967  32.524  23.922   7.724
    4AU     LIG 1968  33.008  23.912   7.722
    4AU     LIG 1969  33.495  23.827   7.721
    4AU     LIG 1970  33.914  24.075   7.718
    4AU     LIG 1971  34.334  24.334   7.696
    4AU    AUSL 1972  29.902  24.197   7.517
    4AU    AUSL 1973  29.956  23.952   7.883
    4AU     AUL 1974  29.697  24.301   7.796
    4AU       S 1975  29.681  23.984   8.136
    4AU     LIG 1976  29.492  24.078   8.563
    4AU     LIG 1977  29.420  24.403   8.906
    4AU     LIG 1978  29.197  24.598   9.292
    4AU     LIG 1979  28.849  24.650   9.644
    4AU     LIG 1980  28.443  24.740   9.913
    4AU     LIG 1981  28.068  24.906  10.187
    4AU       S 1982  29.447  24.264   7.427
    4AU     LIG 1983  29.370  24.692   7.458
    4AU     LIG 1984  29.163  25.073   7.606
    4AU     LIG 1985  28.806  25.337   7.445
    4AU     LIG 1986  28.318  25.437   7.419
    4AU     LIG 1987  27.863  25.634   7.489
    4AU     LIG 1988  27.421  25.677   7.663
    4AU    AUSL 1989  29.977  23.846   7.310
    4AU    AUSL 1990  30.084  24.289   7.150
    4AU     AUL 1991  29.810  24.187   7.150
    4AU       S 1992  29.391  24.136   7.383
    4AU     LIG 1993  29.227  24.448   7.008
    4AU     LIG 1994  28.817  24.635   6.794
    4AU     LIG 1995  28.347  24.813   6.837
    4AU     LIG 1996  27.859  24.944   6.824
    4AU     LIG 1997  27.387  24.924   6.693
    4AU     LIG 1998  26.917  24.885   6.554
    4AU       S 1999  29.963  24.451   6.786
    4AU     LIG 2000  29.746  24.823   6.608
    4AU     LIG 2001  29.672  25.110   6.262
    4AU     LIG 2002  29.651  25.571   6.119
    4AU     LIG 2003  29.355  25.889   5.926
    4AU     LIG 2004  28.947  26.144   5.857
    4AU     LIG 2005  28.693  26.463   5.604
    4AU    AUSL 2006  29.672  23.828   7.617
    4AU    AUSL 2007  29.710  23.528   7.309
    4AU     AUL 2008  29.591  23.780   7.202
    4AU       S 2009  29.377  23.353   7.458
    4AU     LIG 2010  28.958  23.276   7.714
    4AU     LIG 2011  28.453  23.215   7.733
    4AU     LIG 2012  27.981  23.073   7.754
    4AU     LIG 2013  27.624  22.868   7.490
    4AU     LIG 2014  27.181  22.710   7.326
    4AU     LIG 2015  26.693  22.749   7.203
    4AU       S 2016  29.489  23.885   7.668
    4AU     LIG 2017  29.229  24.176   7.937
    4AU     LIG 2018  28.800  24.329   8.131
    4AU     LIG 2019  28.308  24.397   8.194
    4AU     LIG 2020  27.814  24.452   8.190
    4AU     LIG 2021  27.350  24.514   8.285
    4AU     LIG 2022  27.035  24.867   8.295
    4AU    AUSL 2023  31.242  23.141   7.568
    4AU    AUSL 2024  30.995  23.403   7.832
    4AU     AUL 2025  31.361  23.292   7.937
    4AU       S 2026  31.469  22.897   7.616
    4AU     LIG 2027  31.700  22.501   7.578
    4AU     LIG 2028  32.114  22.260   7.524
    4AU     LIG 2029  32.561  22.052   7.494
    4AU     LIG 2030  32.859  21.674   7.576
    4AU     LIG 2031  33.312  21.536   7.620
    4AU     LIG 2032  33.693  21.352   7.855
    4AU       S 2033  31.228  22.879   8.058
    4AU     LIG 2034  31.506  22.570   8.346
    4AU     LIG 2035  31.632  22.268   8.679
    4AU     LIG 2036  31.883  21.967   8.940
    4AU     LIG 2037  32.262  21.857   9.192
    4AU     LIG 2038  32.633  21.924   9.484
    4AU     LIG 2039  32.988  21.899   9.801
    4AU    AUSL 2040  31.077  23.461   7.366
    4AU    AUSL 2041  31.005  22.983   7.263
    4AU     AUL 2042  31.375  23.229   7.207
    4AU       S 2043  31.379  22.998   7.582
    4AU     LIG 2044  31.766  22.871   7.227
    4AU     LIG 2045  32.222  22.656   7.209
    4AU     LIG 2046  32.692  22.485   7.223
    4AU     LIG 2047  33.175  22.531   7.256
    4AU     LIG 2048  33.599  22.346   7.220
    4AU     LIG 2049  34.059  22.391   7.261
    4AU       S 2050  31.267  22.775   7.110
    4AU     LIG 2051  31.177  22.360   6.912
    4AU     LIG 2052  31.384  21.996   6.674
    4AU     LIG 2053  31.692  21.726   6.418
    4AU     LIG 2054  31.938  21.306   6.356
    4AU     LIG 2055  32.269  20.970   6.265
    4AU     LIG 2056  32.464  20.695   5.950
    4AU    AUSL 2057  29.824  23.160   7.515
    4AU    AUSL 2058  29.902  23.274   7.053
    4AU     AUL 2059  29.631  23.323   7.053
    4AU       S 2060  29.838  22.919   7.083
    4AU     LIG 2061  29.357  22.903   7.026
    4AU     LIG 2062  29.048  22.674   6.749
    4AU     LIG 2063  28.787  22.444   6.412
    4AU     LIG 2064  28.524  22.239   6.062
    4AU     LIG 2065  28.165  22.330   5.741
    4AU     LIG 2066  27.794  22.225   5.437
    4AU       S 2067  29.540  23.122   7.458
    4AU     LIG 2068  29.193  22.856   7.533
    4AU     LIG 2069  28.725  22.859   7.467
    4AU     LIG 2070  28.248  22.764   7.437
    4AU     LIG 2071  27.875  22.431   7.436
    4AU     LIG 2072  27.422  22.232   7.377
    4AU     LIG 2073  27.171  21.838   7.249
    4AU    AUSL 2074  29.980  23.548   7.635
    4AU    AUSL 2075  30.059  23.204   7.879
    4AU     AUL 2076  29.683  23.352   7.826
    4AU       S 2077  29.816  23.046   8.136
    4AU     LIG 2078  29.693  22.758   7.809
    4AU     LIG 2079  29.328  22.452   7.906
    4AU     LIG 2080  28.996  22.138   8.138
    4AU     LIG 2081  28.702  21.823   8.402
    4AU     LIG 2082  28.468  21.443   8.619
    4AU     LIG 2083  28.142  21.101   8.754
    4AU       S 2084  29.424  23.432   7.466
    4AU     LIG 2085  28.983  23.244   7.206
    4AU     LIG 2086  28.492  23.265   7.220
    4AU     LIG 2087  28.023  23.208   7.267
    4AU     LIG 2088  27.640  23.379   7.476
    4AU     LIG 2089  27.230  23.179   7.630
    4AU     LIG 2090  26.853  22.869   7.689
    4AU    AUSL 2091  30.559  24.362   8.020
    4AU    AUSL 2092  30.155  24.320   7.823
    4AU     AUL 2093  30.313  24.436   8.095
    4AU       S 2094  29.908  24.289   8.202
    4AU     LIG 2095  29.608  24.588   8.447
    4AU     LIG 2096  29.523  24.911   8.789
    4AU     LIG 2097  29.529  25.349   8.991
    4AU     LIG 2098  29.343  25.774   9.117
    4AU     LIG 2099  29.059  26.147   9.215
    4AU     LIG 2100  28.639  26.362   9.267
    4AU       S 2101  30.634  24.785   8.053
    4AU     LIG 2102  30.640  25.092   8.367
    4AU     LIG 2103  30.854  25.444   8.543
    4AU     LIG 2104  30.890  25.677   8.950
    4AU     LIG 2105  30.786  25.903   9.354
    4AU     LIG 2106  30.717  26.298   9.595
    4AU     LIG 2107  30.786  26.638   9.908
    4AU    AUSL 2108  30.449  24.535   7.630
    4AU    AUSL 2109  30.782  24.478   7.339
    4AU     AUL 2110  30.459  24.770   7.435
    4AU       S 2111  30.565  24.822   7.875
    4AU     LIG 2112  30.495  25.279   7.911
    4AU     LIG 2113  30.466  25.638   8.210
    4AU     LIG 2114  30.315  26.087   8.269
    4AU     LIG 2115  30.515  26.493   8.353
    4AU     LIG 2116  30.440  26.949   8.378
    4AU     LIG 2117  30.261  27.222   8.707
    4AU       S 2118  30.841  24.829   7.152
    4AU     LIG 2119  31.102  25.049   6.823
    4AU     LIG 2120  31.196  25.519   6.728
    4AU     LIG 2121  31.474  25.930   6.787
    4AU     LIG 2122  31.615  26.395   6.746
    4AU     LIG 2123  31.800  26.827   6.640
    4AU     LIG 2124  31.739  27.238   6.414
    4AU    AUSL 2125  30.738  24.220   7.670
    4AU    AUSL 2126  30.866  24.116   8.152
    4AU     AUL 2127  30.894  24.410   8.004
    4AU       S 2128  31.180  24.161   8.290
    4AU     LIG 2129  31.391  24.134   8.712
    4AU     LIG 2130  31.607  24.411   9.026
    4AU     LIG 2131  31.887  24.712   9.258
    4AU     LIG 2132  32.159  24.943   9.573
    4AU     LIG 2133  32.202  25.201   9.984
    4AU     LIG 2134  32.270  25.474  10.379
    4AU       S 2135  30.859  24.759   7.719
    4AU     LIG 2136  30.995  25.153   7.990
    4AU     LIG 2137  31.213  25.562   8.167
    4AU     LIG 2138  31.570  25.916   8.227
    4AU     LIG 2139  31.718  26.375   8.295
    4AU     LIG 2140  31.489  26.777   8.392
    4AU     LIG 2141  31.273  27.204   8.371
    4AU    AUSL 2142  30.498  23.098   7.876
    4AU    AUSL 2143  30.911  22.986   7.756
    4AU     AUL 2144  30.686  22.892   8.131
    4AU       S 2145  30.493  22.491   8.029
    4AU     LIG 2146  30.556  22.082   8.183
    4AU     LIG 2147  30.266  21.770   8.338
    4AU     LIG 2148  30.002  21.424   8.470
    4AU     LIG 2149  30.081  20.985   8.556
    4AU     LIG 2150  30.250  20.719   8.914
    4AU     LIG 2151  30.237  20.578   9.373
    4AU       S 2152  31.043  22.767   7.842
    4AU     LIG 2153  31.301  22.385   7.889
    4AU     LIG 2154  31.419  22.073   8.227
    4AU     LIG 2155  31.583  21.767   8.556
    4AU     LIG 2156  31.864  21.454   8.801
    4AU     LIG 2157  32.094  21.020   8.842
    4AU     LIG 2158  32.480  20.743   8.926
    4AU    AUSL 2159  30.195  22.885   7.665
    4AU    AUSL 2160  30.291  23.163   8.234
    4AU     AUL 2161  30.219  22.874   8.012
    4AU       S 2162  30.294  22.433   7.900
    4AU     LIG 2163  30.085  22.042   7.918
    4AU     LIG 2164  29.943  21.591   7.971
    4AU     LIG 2165  29.807  21.150   8.071
    4AU     LIG 2166  29.490  20.809   8.161
    4AU     LIG 2167  29.451  20.353   8.259
    4AU     LIG 2168  29.424  19.967   8.506
    4AU       S 2169  29.969  23.071   8.348
    4AU     LIG 2170  29.642  22.648   8.338
    4AU     LIG 2171  29.292  22.380   8.476
    4AU     LIG 2172  29.076  22.015   8.689
    4AU     LIG 2173  28.841  21.664   8.912
    4AU     LIG 2174  28.713  21.520   9.342
    4AU     LIG 2175  28.730  21.429   9.814
    4AU    AUSL 2176  30.595  22.740   7.652
    4AU    AUSL 2177  30.310  22.823   7.270
    4AU     AUL 2178  30.140  22.652   7.529
    4AU       S 2179  30.351  22.474   7.150
    4AU     LIG 2180  29.963  22.303   7.120
    4AU     LIG 2181  29.865  21.836   7.113
    4AU     LIG 2182  29.812  21.356   7.026
    4AU     LIG 2183  29.859  20.903   6.853
    4AU     LIG 2184  29.656  20.456   6.771
    4AU     LIG 2185  29.472  20.008   6.660
    4AU       S 2186  30.554  22.596   7.758
    4AU     LIG 2187  30.572  22.115   7.653
    4AU     LIG 2188  30.447  21.682   7.849
    4AU     LIG 2189  30.353  21.282   8.119
    4AU     LIG 2190  30.533  20.867   8.315
    4AU     LIG 2191  30.692  20.428   8.456
    4AU     LIG 2192  30.779  19.956   8.459
    4AU    AUSL 2193  30.551  24.329   7.002
    4AU    AUSL 2194  30.850  24.075   7.257
    4AU     AUL 2195  30.898  24.394   7.026
    4AU       S 2196  30.587  24.647   6.797
    4AU     LIG 2197  30.772  24.875   6.461
    4AU     LIG 2198  30.928  25.286   6.330
    4AU     LIG 2199  30.966  25.581   5.953
    4AU     LIG 2200  31.036  25.804   5.531
    4AU     LIG 2201  30.990  26.237   5.345
    4AU     LIG 2202  30.889  26.691   5.292
    4AU       S 2203  31.256  24.106   6.943
    4AU     LIG 2204  31.623  24.497   6.833
    4AU     LIG 2205  31.934  24.741   6.532
    4AU     LIG 2206  32.167  25.095   6.280
    4AU     LIG 2207  32.422  25.520   6.203
    4AU     LIG 2208  32.633  25.929   6.027
    4AU     LIG 2209  32.712  26.417   5.905
    4AU    AUSL 2210  30.411  24.212   7.389
    4AU    AUSL 2211  30.349  23.976   7.047
    4AU     AUL 2212  30.288  24.470   7.120
    4AU       S 2213  30.638  24.779   7.022
    4AU     LIG 2214  30.616  25.201   6.828
    4AU     LIG 2215  30.662  25.620   6.638
    4AU     LIG 2216  30.433  26.015   6.529
    4AU     LIG 2217  30.526  26.457   6.470
    4AU     LIG 2218  30.317  26.850   6.489
    4AU     LIG 2219  30.067  27.102   6.196
    4AU       S 2220  30.208  24.293   6.678
    4AU     LIG 2221  30.030  24.516   6.286
    4AU     LIG 2222  29.904  24.774   5.910
    4AU     LIG 2223  30.026  24.961   5.474
    4AU     LIG 2224  29.859  25.264   5.131
    4AU     LIG 2225  29.437  25.432   4.954
    4AU     LIG 2226  29.121  25.682   4.686
    4AU    AUSL 2227  30.630  22.917   6.996
    4AU    AUSL 2228  30.198  23.215   7.347
    4AU     AUL 2229  30.288  22.887   6.959
    4AU       S 2230  29.853  22.822   7.189
    4AU     LIG 2231  29.536  22.529   7.322
    4AU     LIG 2232  29.188  22.299   7.071
    4AU     LIG 2233  28.861  22.079   6.765
    4AU     LIG 2234  28.554  21.856   6.448
    4AU     LIG 2235  28.294  21.452   6.331
    4AU     LIG 2236  28.206  21.003   6.159
    4AU       S 2237  30.538  22.499   6.965
    4AU     LIG 2238  30.285  22.207   6.718
    4AU     LIG 2239  30.090  21.790   6.653
    4AU     LIG 2240  30.058  21.323   6.578
    4AU     LIG 2241  29.924  20.936   6.337
    4AU     LIG 2242  29.986  20.741   5.908
    4AU     LIG 2243  30.203  20.694   5.484
    4AU    AUSL 2244  30.628  23.063   7.415
    4AU    AUSL 2245  30.747  23.297   7.087
    4AU     AUL 2246  30.816  22.788   7.194
    4AU       S 2247  30.491  22.487   7.268
    4AU     LIG 2248  30.378  21.982   7.182
    4AU     LIG 2249  30.310  21.514   7.028
    4AU     LIG 2250  30.382  21.041   6.881
    4AU     LIG 2251  30.654  20.610   6.812
    4AU     LIG 2252  30.795  20.123   6.794
    4AU     LIG 2253  30.867  19.659   6.623
    4AU       S 2254  31.037  22.872   6.792
    4AU     LIG 2255  30.877  22.561   6.546
    4AU     LIG 2256  31.106  22.232   6.314
    4AU     LIG 2257  31.355  21.917   6.065
    4AU     LIG 2258  31.479  21.703   5.659
    4AU     LIG 2259  31.549  21.440   5.264
    4AU     LIG 2260  31.791  21.200   4.930
    5AU     AUC 2261  25.689  11.845   7.505
    5AU     AUC 2262  25.950  11.843   7.344
    5AU     AUC 2263  25.938  11.841   7.652
    5AU     AUC 2264  25.440  11.847   7.343
    5AU     AUC 2265  25.428  11.875   7.658
    5AU     AUC 2266  25.538  12.115   7.508
    5AU     AUC 2267  25.859  12.090   7.502
    5AU     AUC 2268  25.521  11.603   7.519
    5AU     AUC 2269  25.822  11.578   7.524
    5AU     AUC 2270  25.678  11.690   7.763
    5AU     AUC 2271  25.704  12.012   7.754
    5AU     AUC 2272  25.687  11.681   7.246
    5AU     AUC 2273  25.682  11.978   7.243
    5AU     AUC 2274  26.198  11.837   7.176
    5AU     AUC 2275  26.209  11.847   7.477
    5AU     AUC 2276  26.209  11.838   7.787
    5AU     AUC 2277  25.186  11.831   7.185
    5AU     AUC 2278  25.169  11.869   7.482
    5AU     AUC 2279  25.173  11.913   7.806
    5AU     AUC 2280  25.396  12.376   7.512
    5AU     AUC 2281  25.706  12.368   7.507
    5AU     AUC 2282  26.010  12.359   7.492
    5AU     AUC 2283  25.338  11.352   7.534
    5AU     AUC 2284  25.652  11.321   7.517
    5AU     AUC 2285  25.974  11.315   7.530
    5AU     AUC 2286  25.675  11.543   8.020
    5AU     AUC 2287  25.705  11.841   8.030
    5AU     AUC 2288  25.733  12.162   8.011
    5AU     AUC 2289  25.689  11.493   7.016
    5AU     AUC 2290  25.698  11.810   6.980
    5AU     AUC 2291  25.678  12.126   6.975
    5AU     AUC 2292  25.949  11.670   7.921
    5AU     AUC 2293  25.963  12.009   7.923
    5AU     AUC 2294  25.960  11.668   7.085
    5AU     AUC 2295  25.956  11.979   7.068
    5AU     AUC 2296  25.428  11.737   7.938
    5AU     AUC 2297  25.428  12.041   7.912
    5AU     AUC 2298  25.440  11.666   7.079
    5AU     AUC 2299  25.435  11.984   7.074
    5AU     AUC 2300  26.107  12.107   7.318
    5AU     AUC 2301  26.123  12.080   7.663
    5AU     AUC 2302  25.277  12.116   7.350
    5AU     AUC 2303  25.287  12.153   7.656
    5AU     AUC 2304  26.102  11.570   7.362
    5AU     AUC 2305  26.082  11.555   7.668
    5AU     AUC 2306  25.261  11.587   7.358
    5AU     AUC 2307  25.259  11.631   7.698
    5AU     AUC 2308  25.557  12.278   7.772
    5AU     AUC 2309  25.888  12.263   7.748
    5AU     AUC 2310  25.493  11.444   7.776
    5AU     AUC 2311  25.814  11.425   7.781
    5AU     AUC 2312  25.539  12.253   7.234
    5AU     AUC 2313  25.852  12.240   7.228
    5AU     AUC 2314  25.510  11.428   7.258
    5AU     AUC 2315  25.842  11.415   7.271
    5AU    AUSL 2316  26.204  11.725   8.223
    5AU    AUSL 2317  25.979  11.356   8.138
    5AU     AUL 2318  26.269  11.403   8.370
    5AU       S 2319  26.289  10.985   8.139
    5AU     LIG 2320  26.064  10.746   8.434
    5AU     LIG 2321  26.137  10.367   8.693
    5AU     LIG 2322  26.441  10.141   8.975
    5AU     LIG 2323  26.627   9.904   9.319
    5AU     LIG 2324  26.849   9.886   9.730
    5AU     LIG 2325  26.893   9.552  10.047
    5AU       S 2326  26.159  11.784   8.628
    5AU     LIG 2327  26.361  11.552   8.974
    5AU     LIG 2328  26.615  11.384   9.347
    5AU     LIG 2329  26.855  11.205   9.724
    5AU     LIG 2330  27.206  11.185  10.048
    5AU     LIG 2331  27.535  11.390  10.326
    5AU     LIG 2332  27.678  11.774  10.576
    5AU    AUSL 2333  25.785  11.657   8.359
    5AU    AUSL 2334  25.632  12.075   8.362
    5AU     AUL 2335  25.697  11.983   8.705
    5AU       S 2336  25.867  11.589   8.544
    5AU     LIG 2337  26.017  11.217   8.772
    5AU     LIG 2338  26.188  11.111   9.217
    5AU     LIG 2339  26.346  11.077   9.682
    5AU     LIG 2340  26.429  10.991  10.158
    5AU     LIG 2341  26.410  10.963  10.651
    5AU     LIG 2342  26.617  10.955  11.085
    5AU       S 2343  25.264  11.862   8.695
    5AU     LIG 2344  25.075  11.867   9.106
    5AU     LIG 2345  25.011  11.672   9.522
    5AU     LIG 2346  24.859  11.644   9.968
    5AU     LIG 2347  24.893  11.936  10.359
    5AU     LIG 2348  24.990  12.247  10.720
    5AU     LIG 2349  24.847  12.383  11.147
    5AU    AUSL 2350  25.890  11.945   8.066
    5AU    AUSL 2351  26.322  12.053   7.984
    5AU     AUL 2352  26.388  11.891   8.216
    5AU       S 2353  26.093  12.051   8.526
    5AU     LIG 2354  26.027  12.419   8.765
    5AU     LIG 2355  26.253  12.590   9.163
    5AU     LIG 2356  26.308  12.661   9.657
    5AU     LIG 2357  26.349  12.753  10.146
    5AU     LIG 2358  26.352  12.780  10.635
    5AU     LIG 2359  26.610  12.836  11.051
    5AU       S 2360  26.576  12.311   8.195
    5AU     LIG 2361  26.963  12.350   8.435
    5AU     LIG 2362  27.189  12.448   8.825
    5AU     LIG 2363  27.512  12.715   9.020
    5AU     LIG 2364  27.699  12.865   9.423
    5AU     LIG 2365  27.994  12.978   9.786
    5AU     LIG 2366  28.370  13.196   9.999
    5AU    AUSL 2367  26.222  11.866   6.862
    5AU    AUSL 2368  25.961  12.272   6.812
    5AU     AUL 2369  26.287  12.212   6.436
    5AU       S 2370  26.267  11.894   6.720
    5AU     LIG 2371  26.544  11.812   6.339
    5AU     LIG 2372  26.591  11.679   5.902
    5AU     LIG 2373  26.706  11.544   5.461
    5AU     LIG 2374  26.943  11.575   5.046
    5AU     LIG 2375  27.343  11.641   4.769
    5AU     LIG 2376  27.709  11.718   4.460
    5AU       S 2377  25.938  12.354   6.654
    5AU     LIG 2378  26.234  12.714   6.574
    5AU     LIG 2379  26.603  12.727   6.286
    5AU     LIG 2380  26.887  12.896   5.925
    5AU     LIG 2381  27.179  13.089   5.588
    5AU     LIG 2382  27.279  13.286   5.157
    5AU     LIG 2383  27.394  13.605   4.839
    5AU    AUSL 2384  25.971  11.543   6.695
    5AU    AUSL 2385  26.314  11.486   7.003
    5AU     AUL 2386  26.356  11.477   6.651
    5AU       S 2387  26.423  11.071   6.876
    5AU     LIG 2388  26.572  10.727   6.588
    5AU     LIG 2389  26.799  10.373   6.360
    5AU     LIG 2390  27.020  10.154   5.995
    5AU     LIG 2391  27.399  10.156   5.686
    5AU     LIG 2392  27.835  10.270   5.501
    5AU     LIG 2393  28.114  10.173   5.131
    5AU       S 2394  26.041  11.773   6.438
    5AU     LIG 2395  26.179  11.449   6.160
    5AU     LIG 2396  26.288  11.306   5.711
    5AU     LIG 2397  26.324  11.268   5.231
    5AU     LIG 2398  26.269  11.109   4.770
    5AU     LIG 2399  26.237  10.837   4.364
    5AU     LIG 2400  26.349  10.814   3.902
    5AU    AUSL 2401  25.806  11.896   6.871
    5AU    AUSL 2402  25.554  11.621   6.672
    5AU     AUL 2403  25.770  11.418   6.571
    5AU       S 2404  25.506  11.714   6.320
    5AU     LIG 2405  25.425  11.471   5.955
    5AU     LIG 2406  25.129  11.253   5.672
    5AU     LIG 2407  24.883  11.127   5.292
    5AU     LIG 2408  24.686  10.872   4.937
    5AU     LIG 2409  24.654  10.701   4.490
    5AU     LIG 2410  24.583  10.852   4.048
    5AU       S 2411  25.929  11.886   6.511
    5AU     LIG 2412  26.122  11.936   5.994
    5AU     LIG 2413  26.249  11.791   5.526
    5AU     LIG 2414  26.423  11.751   5.061
    5AU     LIG 2415  26.451  11.859   4.576
    5AU     LIG 2416  26.577  12.111   4.165
    5AU     LIG 2417  26.760  12.189   3.717
    5AU    AUSL 2418  25.231  11.991   8.243
    5AU    AUSL 2419  25.511  12.205   7.986
    5AU     AUL 2420  25.449  12.285   8.381
    5AU       S 2421  25.132  12.017   8.606
    5AU     LIG 2422  24.807  11.677   8.688
    5AU     LIG 2423  24.686  11.510   9.117
    5AU     LIG 2424  24.556  11.434   9.572
    5AU     LIG 2425  24.370  11.334  10.007
    5AU     LIG 2426  24.010  11.454  10.328
    5AU     LIG 2427  23.625  11.535  10.627
    5AU       S 2428  25.023  12.406   8.261
    5AU     LIG 2429  25.123  12.511   8.708
    5AU     LIG 2430  25.035  12.857   8.997
    5AU     LIG 2431  24.753  13.096   9.284
    5AU     LIG 2432  24.573  13.304   9.664
    5AU     LIG 2433  24.447  13.601  10.015
    5AU     LIG 2434  24.204  13.886  10.310
    5AU    AUSL 2435  25.499  11.734   8.067
    5AU    AUSL 2436  24.989  11.725   8.023
    5AU     AUL 2437  25.094  11.723   8.257
    5AU       S 2438  24.826  11.345   8.238
    5AU     LIG 2439  24.426  11.188   8.066
    5AU     LIG 2440  24.109  10.887   8.242
    5AU     LIG 2441  23.864  10.624   8.560
    5AU     LIG 2442  23.599  10.331   8.835
    5AU     LIG 2443  23.432  10.177   9.258
    5AU     LIG 2444  23.108  10.223   9.596
    5AU       S 2445  25.372  11.662   8.603
    5AU     LIG 2446  25.167  11.385   8.938
    5AU     LIG 2447  25.007  11.187   9.366
    5AU     LIG 2448  24.857  11.114   9.829
    5AU     LIG 2449  24.633  10.857  10.179
    5AU     LIG 2450  24.582  10.691  10.631
    5AU     LIG 2451  24.665  10.717  11.093
    5AU    AUSL 2452  25.300  11.781   6.963
    5AU    AUSL 2453  25.432  11.341   6.949
    5AU     AUL 2454  25.271  11.449   6.658
    5AU       S 2455  25.252  11.788   6.331
    5AU     LIG 2456  24.956  11.695   5.986
    5AU     LIG 2457  24.725  11.557   5.587
    5AU     LIG 2458  24.477  11.429   5.200
    5AU     LIG 2459  24.146  11.337   4.865
    5AU     LIG 2460  23.897  11.508   4.489
    5AU     LIG 2461  23.637  11.687   4.121
    5AU       S 2462  25.001  11.056   6.834
    5AU     LIG 2463  24.727  10.684   6.798
    5AU     LIG 2464  24.427  10.383   6.566
    5AU     LIG 2465  24.135  10.094   6.292
    5AU     LIG 2466  23.932   9.909   5.876
    5AU     LIG 2467  23.963   9.646   5.452
    5AU     LIG 2468  24.072   9.512   4.987
    5AU    AUSL 2469  25.478  12.050   6.660
    5AU    AUSL 2470  25.082  12.135   6.916
    5AU     AUL 2471  25.059  11.879   6.732
    5AU       S 2472  25.095  12.350   6.679
    5AU     LIG 2473  24.790  12.443   6.336
    5AU     LIG 2474  24.555  12.645   5.961
    5AU     LIG 2475  24.277  12.725   5.567
    5AU     LIG 2476  23.874  12.708   5.291
    5AU     LIG 2477  23.437  12.835   5.118
    5AU     LIG 2478  23.068  13.105   4.974
    5AU       S 2479  25.459  11.974   6.469
    5AU     LIG 2480  25.406  12.019   5.934
    5AU     LIG 2481  25.223  11.756   5.552
    5AU     LIG 2482  24.992  11.635   5.141
    5AU     LIG 2483  24.985  11.762   4.661
    5AU     LIG 2484  24.971  11.953   4.200
    5AU     LIG 2485  24.788  12.182   3.807
    5AU    AUSL 2486  26.344  12.433   7.412
    5AU    AUSL 2487  26.333  12.222   7.041
    5AU     AUL 2488  26.443  12.678   7.217
    5AU       S 2489  26.431  12.354   6.849
    5AU     LIG 2490  26.772  12.262   6.546
    5AU     LIG 2491  27.030  12.444   6.177
    5AU     LIG 2492  27.361  12.701   5.933
    5AU     LIG 2493  27.676  12.905   5.634
    5AU     LIG 2494  28.124  13.010   5.466
    5AU     LIG 2495  28.516  13.164   5.212
    5AU       S 2496  26.747  12.341   7.287
    5AU     LIG 2497  27.128  12.617   7.351
    5AU     LIG 2498  27.583  12.552   7.425
    5AU     LIG 2499  28.055  12.538   7.468
    5AU     LIG 2500  28.437  12.842   7.549
    5AU     LIG 2501  28.713  13.252   7.646
    5AU     LIG 2502  28.944  13.606   7.895
    5AU    AUSL 2503  26.527  11.906   7.232
    5AU    AUSL 2504  26.527  11.724   7.717
    5AU     AUL 2505  26.740  11.757   7.477
    5AU       S 2506  26.784  12.061   7.110
    5AU     LIG 2507  27.247  12.197   7.066
    5AU     LIG 2508  27.710  12.114   7.189
    5AU     LIG 2509  28.189  12.068   7.246
    5AU     LIG 2510  28.664  12.129   7.178
    5AU     LIG 2511  29.166  12.186   7.139
    5AU     LIG 2512  29.551  12.364   6.903
    5AU       S 2513  26.864  11.351   7.685
    5AU     LIG 2514  27.247  11.099   7.726
    5AU     LIG 2515  27.679  10.899   7.742
    5AU     LIG 2516  28.114  10.693   7.767
    5AU     LIG 2517  28.532  10.677   8.028
    5AU     LIG 2518  29.023  10.660   7.967
    5AU     LIG 2519  29.448  10.926   7.923
    5AU    AUSL 2520  26.314  12.048   7.570
    5AU    AUSL 2521  26.257  12.435   7.815
    5AU     AUL 2522  26.549  12.246   7.720
    5AU       S 2523  26.478  12.504   8.100
    5AU     LIG 2524  26.690  12.780   8.442
    5AU     LIG 2525  27.089  12.933   8.693
    5AU     LIG 2526  27.398  13.229   8.925
    5AU     LIG 2527  27.634  13.671   8.921
    5AU     LIG 2528  27.905  14.072   9.008
    5AU     LIG 2529  27.966  14.548   8.912
    5AU       S 2530  26.844  12.211   7.378
    5AU     LIG 2531  27.277  12.153   7.578
    5AU     LIG 2532  27.756  12.142   7.699
    5AU     LIG 2533  28.234  12.142   7.757
    5AU     LIG 2534  28.705  12.087   7.688
    5AU     LIG 2535  29.182  12.083   7.774
    5AU     LIG 2536  29.568  12.330   7.936
    5AU    AUSL 2537  25.042  12.393   7.518
    5AU    AUSL 2538  25.103  12.151   7.883
    5AU     AUL 2539  24.839  12.501   7.775
    5AU       S 2540  24.834  12.197   8.133
    5AU     LIG 2541  24.673  12.269   8.583
    5AU     LIG 2542  24.597  12.599   8.923
    5AU     LIG 2543  24.332  12.786   9.274
    5AU     LIG 2544  23.955  12.831   9.570
    5AU     LIG 2545  23.556  12.957   9.813
    5AU     LIG 2546  23.175  13.137  10.049
    5AU       S 2547  24.499  12.352   7.506
    5AU     LIG 2548  24.324  12.794   7.550
    5AU     LIG 2549  24.138  13.248   7.497
    5AU     LIG 2550  23.837  13.628   7.555
    5AU     LIG 2551  23.456  13.853   7.717
    5AU     LIG 2552  22.973  13.829   7.743
    5AU     LIG 2553  22.625  13.934   7.449
    5AU    AUSL 2554  25.123  12.044   7.314
    5AU    AUSL 2555  25.223  12.486   7.150
    5AU     AUL 2556  24.958  12.388   7.147
    5AU       S 2557  24.572  12.382   7.379
    5AU     LIG 2558  24.285  12.353   7.006
    5AU     LIG 2559  23.809  12.468   6.893
    5AU     LIG 2560  23.327  12.420   6.829
    5AU     LIG 2561  22.948  12.687   6.958
    5AU     LIG 2562  22.573  12.984   7.004
    5AU     LIG 2563  22.126  13.052   6.819
    5AU       S 2564  25.109  12.632   6.763
    5AU     LIG 2565  24.972  12.920   6.433
    5AU     LIG 2566  24.903  13.318   6.176
    5AU     LIG 2567  24.735  13.782   6.189
    5AU     LIG 2568  24.295  13.954   6.110
    5AU     LIG 2569  23.900  14.058   5.916
    5AU     LIG 2570  23.746  14.074   5.494
    5AU    AUSL 2571  24.817  12.023   7.622
    5AU    AUSL 2572  24.856  11.726   7.311
    5AU     AUL 2573  24.730  11.988   7.221
    5AU       S 2574  24.522  11.542   7.450
    5AU     LIG 2575  24.153  11.511   7.762
    5AU     LIG 2576  23.675  11.542   7.775
    5AU     LIG 2577  23.230  11.377   7.681
    5AU     LIG 2578  22.852  11.141   7.436
    5AU     LIG 2579  22.406  11.271   7.257
    5AU     LIG 2580  21.982  11.197   7.029
    5AU       S 2581  24.642  12.058   7.695
    5AU     LIG 2582  24.334  12.291   7.973
    5AU     LIG 2583  23.905  12.364   8.201
    5AU     LIG 2584  23.506  12.606   8.246
    5AU     LIG 2585  23.090  12.829   8.337
    5AU     LIG 2586  22.672  13.054   8.302
    5AU     LIG 2587  22.229  12.940   8.353
    5AU    AUSL 2588  26.396  11.349   7.567
    5AU    AUSL 2589  26.143  11.612   7.832
    5AU     AUL 2590  26.496  11.495   7.937
    5AU       S 2591  26.545  11.141   7.579
    5AU     LIG 2592  26.792  10.815   7.780
    5AU     LIG 2593  27.200  10.594   7.647
    5AU     LIG 2594  27.637  10.441   7.511
    5AU     LIG 2595  28.061  10.226   7.518
    5AU     LIG 2596  28.440   9.920   7.480
    5AU     LIG 2597  28.875   9.714   7.500
    5AU       S 2598  26.389  11.075   8.053
    5AU     LIG 2599  26.661  10.715   8.287
    5AU     LIG 2600  26.717  10.397   8.626
    5AU     LIG 2601  26.965  10.181   8.975
    5AU     LIG 2602  27.346  10.228   9.279
    5AU     LIG 2603  27.746  10.324   9.546
    5AU     LIG 2604  28.192  10.256   9.727
    5AU    AUSL 2605  26.225  11.666   7.365
    5AU    AUSL 2606  26.155  11.188   7.265
    5AU     AUL 2607  26.506  11.427   7.191
    5AU       S 2608  26.659  11.263   7.574
    5AU     LIG 2609  26.956  10.989   7.311
    5AU     LIG 2610  27.434  10.878   7.278
    5AU     LIG 2611  27.923  10.818   7.292
    5AU     LIG 2612  28.328  10.584   7.262
    5AU     LIG 2613  28.775  10.689   7.144
    5AU     LIG 2614  28.971  10.822   6.741
    5AU       S 2615  26.421  10.971   7.096
    5AU     LIG 2616  26.359  10.522   7.008
    5AU     LIG 2617  26.583  10.168   6.785
    5AU     LIG 2618  26.691   9.811   6.483
    5AU     LIG 2619  26.986   9.452   6.310
    5AU     LIG 2620  27.394   9.238   6.134
    5AU     LIG 2621  27.657   8.855   5.978
    5AU    AUSL 2622  24.972  11.359   7.519
    5AU    AUSL 2623  25.049  11.466   7.061
    5AU     AUL 2624  24.783  11.530   7.054
    5AU       S 2625  24.987  11.122   7.086
    5AU     LIG 2626  24.506  11.098   7.027
    5AU     LIG 2627  24.197  10.803   6.782
    5AU     LIG 2628  23.925  10.538   6.465
    5AU     LIG 2629  23.652  10.247   6.187
    5AU     LIG 2630  23.378  10.028   5.879
    5AU     LIG 2631  23.053  10.157   5.565
    5AU       S 2632  24.698  11.321   7.462
    5AU     LIG 2633  24.319  11.078   7.529
    5AU     LIG 2634  23.838  11.123   7.508
    5AU     LIG 2635  23.378  10.978   7.397
    5AU     LIG 2636  23.007  10.644   7.411
    5AU     LIG 2637  22.713  10.314   7.596
    5AU     LIG 2638  22.475  10.011   7.871
    5AU    AUSL 2639  25.126  11.746   7.638
    5AU    AUSL 2640  25.210  11.402   7.880
    5AU     AUL 2641  24.826  11.569   7.828
    5AU       S 2642  24.950  11.191   8.049
    5AU     LIG 2643  24.733  10.859   7.831
    5AU     LIG 2644  24.399  10.539   8.002
    5AU     LIG 2645  24.055  10.253   8.254
    5AU     LIG 2646  23.751   9.935   8.523
    5AU     LIG 2647  23.564   9.555   8.791
    5AU     LIG 2648  23.133   9.348   8.871
    5AU       S 2649  24.568  11.623   7.464
    5AU     LIG 2650  24.066  11.529   7.263
    5AU     LIG 2651  23.565  11.516   7.268
    5AU     LIG 2652  23.067  11.595   7.255
    5AU     LIG 2653  22.749  11.596   7.606
    5AU     LIG 2654  22.439  11.239   7.768
    5AU     LIG 2655  22.052  11.066   7.980
    5AU    AUSL 2656  25.703  12.568   8.017
    5AU    AUSL 2657  25.298  12.521   7.818
    5AU     AUL 2658  25.455  12.648   8.087
    5AU       S 2659  25.049  12.499   8.186
    5AU     LIG 2660  24.773  12.795   8.470
    5AU     LIG 2661  24.645  13.136   8.781
    5AU     LIG 2662  24.604  13.598   8.957
    5AU     LIG 2663  24.443  14.076   9.003
    5AU     LIG 2664  24.048  14.337   9.116
    5AU     LIG 2665  23.906  14.793   9.262
    5AU       S 2666  25.770  12.997   8.029
    5AU     LIG 2667  25.870  13.285   8.366
    5AU     LIG 2668  25.834  13.664   8.622
    5AU     LIG 2669  26.050  14.028   8.761
    5AU     LIG 2670  26.072  14.332   9.104
    5AU     LIG 2671  25.904  14.514   9.505
    5AU     LIG 2672  25.977  14.804   9.882
    5AU    AUSL 2673  25.595  12.737   7.629
    5AU    AUSL 2674  25.917  12.680   7.335
    5AU     AUL 2675  25.537  12.955   7.452
    5AU       S 2676  25.810  13.008   7.817
    5AU     LIG 2677  25.711  13.494   7.917
    5AU     LIG 2678  25.679  13.897   8.184
    5AU     LIG 2679  25.616  14.211   8.541
    5AU     LIG 2680  25.518  14.662   8.684
    5AU     LIG 2681  25.388  15.133   8.685
    5AU     LIG 2682  25.028  15.421   8.522
    5AU       S 2683  25.957  13.007   7.210
    5AU     LIG 2684  26.221  13.224   6.886
    5AU     LIG 2685  26.250  13.692   6.751
    5AU     LIG 2686  26.542  14.091   6.709
    5AU     LIG 2687  26.857  14.468   6.663
    5AU     LIG 2688  26.894  14.921   6.542
    5AU     LIG 2689  26.848  15.361   6.392
    5AU    AUSL 2690  25.881  12.421   7.667
    5AU    AUSL 2691  26.011  12.321   8.151
    5AU     AUL 2692  26.028  12.611   8.016
    5AU       S 2693  26.328  12.369   8.287
    5AU     LIG 2694  26.529  12.371   8.711
    5AU     LIG 2695  26.752  12.676   8.989
    5AU     LIG 2696  27.094  12.901   9.244
    5AU     LIG 2697  27.287  13.069   9.659
    5AU     LIG 2698  27.347  13.399  10.003
    5AU     LIG 2699  27.284  13.837  10.195
    5AU       S 2700  26.031  12.937   7.704
    5AU     LIG 2701  26.196  13.307   7.959
    5AU     LIG 2702  26.166  13.702   8.220
    5AU     LIG 2703  26.356  14.121   8.351
    5AU     LIG 2704  26.638  14.516   8.396
    5AU     LIG 2705  26.825  14.962   8.431
    5AU     LIG 2706  26.750  15.394   8.605
    5AU    AUSL 2707  25.653  11.304   7.880
    5AU    AUSL 2708  26.067  11.194   7.759
    5AU     AUL 2709  25.852  11.107   8.138
    5AU       S 2710  25.674  10.700   8.044
    5AU     LIG 2711  25.779  10.331   8.220
    5AU     LIG 2712  25.454  10.058   8.327
    5AU     LIG 2713  25.446   9.619   8.345
    5AU     LIG 2714  25.433   9.227   8.584
    5AU     LIG 2715  25.446   9.019   9.010
    5AU     LIG 2716  25.506   8.733   9.381
    5AU       S 2717  26.204  10.949   7.853
    5AU     LIG 2718  26.254  10.474   8.047
    5AU     LIG 2719  26.399  10.091   8.368
    5AU     LIG 2720  26.603   9.758   8.657
    5AU     LIG 2721  26.785   9.317   8.700
    5AU     LIG 2722  27.120   9.035   8.864
    5AU     LIG 2723  27.560   8.846   8.906
    5AU    AUSL 2724  25.352  11.082   7.675
    5AU    AUSL 2725  25.440  11.364   8.236
    5AU     AUL 2726  25.390  11.077   8.027
    5AU       S 2727  25.471  10.637   7.915
    5AU     LIG 2728  25.265  10.271   7.884
    5AU     LIG 2729  25.124   9.845   7.975
    5AU     LIG 2730  25.122   9.388   8.026
    5AU     LIG 2731  25.015   9.032   8.312
    5AU     LIG 2732  24.800   8.618   8.433
    5AU     LIG 2733  24.792   8.227   8.706
    5AU       S 2734  25.084  11.260   8.318
    5AU     LIG 2735  24.725  10.867   8.365
    5AU     LIG 2736  24.391  10.548   8.530
    5AU     LIG 2737  24.117  10.224   8.773
    5AU     LIG 2738  23.846   9.928   9.037
    5AU     LIG 2739  23.828   9.565   9.322
    5AU     LIG 2740  23.947   9.362   9.737
    5AU    AUSL 2741  25.754  10.944   7.660
    5AU    AUSL 2742  25.462  11.022   7.278
    5AU     AUL 2743  25.297  10.848   7.545
    5AU       S 2744  25.488  10.664   7.158
    5AU     LIG 2745  25.111  10.498   7.102
    5AU     LIG 2746  24.920  10.073   7.094
    5AU     LIG 2747  24.974   9.599   6.972
    5AU     LIG 2748  25.004   9.133   6.801
    5AU     LIG 2749  24.782   8.670   6.721
    5AU     LIG 2750  24.783   8.192   6.572
    5AU       S 2751  25.717  10.802   7.768
    5AU     LIG 2752  25.782  10.323   7.704
    5AU     LIG 2753  25.627   9.895   7.867
    5AU     LIG 2754  25.838   9.500   8.029
    5AU     LIG 2755  26.097   9.102   8.164
    5AU     LIG 2756  26.248   8.637   8.209
    5AU     LIG 2757  26.199   8.162   8.333
    5AU    AUSL 2758  25.687  12.530   7.000
    5AU    AUSL 2759  25.990  12.278   7.253
    5AU     AUL 2760  26.035  12.597   7.016
    5AU       S 2761  25.729  12.883   6.824
    5AU     LIG 2762  25.909  13.118   6.491
    5AU     LIG 2763  25.959  13.554   6.338
    5AU     LIG 2764  25.986  13.816   5.931
    5AU     LIG 2765  26.008  14.132   5.568
    5AU     LIG 2766  25.881  14.544   5.371
    5AU     LIG 2767  25.882  14.913   5.083
    5AU       S 2768  26.394  12.311   6.934
    5AU     LIG 2769  26.755  12.705   6.795
    5AU     LIG 2770  27.068  12.889   6.440
    5AU     LIG 2771  27.299  13.185   6.120
    5AU     LIG 2772  27.523  13.620   6.047
    5AU     LIG 2773  27.657  14.095   5.979
    5AU     LIG 2774  27.937  14.378   5.712
    5AU    AUSL 2775  25.551  12.414   7.389
    5AU    AUSL 2776  25.489  12.174   7.048
    5AU     AUL 2777  25.424  12.665   7.108
    5AU       S 2778  25.781  12.980   7.074
    5AU     LIG 2779  25.752  13.425   6.875
    5AU     LIG 2780  25.689  13.865   6.695
    5AU     LIG 2781  25.465  14.293   6.649
    5AU     LIG 2782  25.302  14.712   6.500
    5AU     LIG 2783  25.071  15.139   6.424
    5AU     LIG 2784  24.807  15.549   6.416
    5AU       S 2785  25.351  12.486   6.673
    5AU     LIG 2786  25.281  12.543   6.227
    5AU     LIG 2787  25.036  12.834   5.927
    5AU     LIG 2788  24.838  13.109   5.580
    5AU     LIG 2789  24.819  13.436   5.210
    5AU     LIG 2790  24.593  13.701   4.873
    5AU     LIG 2791  24.225  13.792   4.572
    5AU    AUSL 2792  25.780  11.116   7.002
    5AU    AUSL 2793  25.346  11.413   7.354
    5AU     AUL 2794  25.438  11.082   6.968
    5AU       S 2795  25.007  11.015   7.199
    5AU     LIG 2796  24.695  10.731   7.326
    5AU     LIG 2797  24.388  10.451   7.112
    5AU     LIG 2798  24.036  10.242   6.868
    5AU     LIG 2799  23.733   9.979   6.616
    5AU     LIG 2800  23.614   9.720   6.240
    5AU     LIG 2801  23.307   9.384   6.126
    5AU       S 2802  25.686  10.693   6.988
    5AU     LIG 2803  25.495  10.340   6.758
    5AU     LIG 2804  25.226   9.975   6.697
    5AU     LIG 2805  25.275   9.537   6.554
    5AU     LIG 2806  25.412   9.261   6.212
    5AU     LIG 2807  25.409   9.177   5.740
    5AU     LIG 2808  25.518   8.876   5.404
    5AU    AUSL 2809  25.778  11.266   7.419
    5AU    AUSL 2810  25.891  11.499   7.089
    5AU     AUL 2811  25.972  10.993   7.194
    5AU       S 2812  25.646  10.696   7.276
    5AU     LIG 2813  25.659  10.197   7.224
    5AU     LIG 2814  25.396   9.826   7.183
    5AU     LIG 2815  25.459   9.392   7.008
    5AU     LIG 2816  25.632   9.034   6.731
    5AU     LIG 2817  25.924   8.610   6.710
    5AU     LIG 2818  26.237   8.210   6.700
    5AU       S 2819  26.178  11.076   6.784
    5AU     LIG 2820  26.055  10.675   6.625
    5AU     LIG 2821  26.272  10.319   6.405
    5AU     LIG 2822  26.500  10.072   6.071
    5AU     LIG 2823  26.678   9.853   5.691
    5AU     LIG 2824  26.901   9.642   5.318
    5AU     LIG 2825  27.087   9.406   4.947
    6AU     AUC 2826  25.324  39.058   7.500
    6AU     AUC 2827  25.587  39.054   7.343
    6AU     AUC 2828  25.571  39.052   7.650
    6AU     AUC 2829  25.078  39.062   7.335
    6AU     AUC 2830  25.062  39.088   7.650
    6AU     AUC 2831  25.174  39.328   7.502
    6AU     AUC 2832  25.496  39.301   7.501
    6AU     AUC 2833  25.155  38.817   7.512
    6AU     AUC 2834  25.456  38.790   7.521
    6AU     AUC 2835  25.309  38.902   7.758
    6AU     AUC 2836  25.337  39.225   7.750
    6AU     AUC 2837  25.325  38.894   7.242
    6AU     AUC 2838  25.321  39.191   7.238
    6AU     AUC 2839  25.837  39.047   7.178
    6AU     AUC 2840  25.844  39.056   7.479
    6AU     AUC 2841  25.840  39.047   7.789
    6AU     AUC 2842  24.825  39.048   7.175
    6AU     AUC 2843  24.804  39.084   7.472
    6AU     AUC 2844  24.804  39.126   7.796
    6AU     AUC 2845  25.033  39.589   7.505
    6AU     AUC 2846  25.344  39.581   7.504
    6AU     AUC 2847  25.649  39.569   7.492
    6AU     AUC 2848  24.970  38.567   7.524
    6AU     AUC 2849  25.283  38.534   7.511
    6AU     AUC 2850  25.604  38.526   7.528
    6AU     AUC 2851  25.303  38.755   8.015
    6AU     AUC 2852  25.334  39.053   8.025
    6AU     AUC 2853  25.363  39.375   8.008
    6AU     AUC 2854  25.329  38.708   7.011
    6AU     AUC 2855  25.339  39.024   6.976
    6AU     AUC 2856  25.321  39.340   6.972
    6AU     AUC 2857  25.578  38.881   7.919
    6AU     AUC 2858  25.594  39.219   7.922
    6AU     AUC 2859  25.599  38.879   7.084
    6AU     AUC 2860  25.597  39.191   7.067
    6AU     AUC 2861  25.057  38.950   7.931
    6AU     AUC 2862  25.059  39.254   7.905
    6AU     AUC 2863  25.079  38.882   7.071
    6AU     AUC 2864  25.075  39.199   7.068
    6AU     AUC 2865  25.746  39.317   7.318
    6AU     AUC 2866  25.757  39.289   7.664
    6AU     AUC 2867  24.915  39.330   7.342
    6AU     AUC 2868  24.922  39.367   7.648
    6AU     AUC 2869  25.737  38.781   7.363
    6AU     AUC 2870  25.713  38.764   7.669
    6AU     AUC 2871  24.896  38.802   7.348
    6AU     AUC 2872  24.891  38.846   7.688
    6AU     AUC 2873  25.191  39.491   7.767
    6AU     AUC 2874  25.522  39.474   7.746
    6AU     AUC 2875  25.123  38.657   7.769
    6AU     AUC 2876  25.443  38.636   7.777
    6AU     AUC 2877  25.180  39.467   7.228
    6AU     AUC 2878  25.493  39.452   7.227
    6AU     AUC 2879  25.146  38.642   7.249
    6AU     AUC 2880  25.478  38.627   7.267
    6AU    AUSL 2881  25.829  38.934   8.225
    6AU    AUSL 2882  25.602  38.566   8.136
    6AU     AUL 2883  25.891  38.615   8.377
    6AU       S 2884  25.905  38.209   8.137
    6AU     LIG 2885  25.730  37.868   8.327
    6AU     LIG 2886  25.891  37.653   8.703
    6AU     LIG 2887  26.125  37.360   8.986
    6AU     LIG 2888  26.348  37.163   9.351
    6AU     LIG 2889  26.313  36.986   9.799
    6AU     LIG 2890  26.469  36.818  10.224
    6AU       S 2891  25.778  38.998   8.631
    6AU     LIG 2892  26.003  38.751   8.953
    6AU     LIG 2893  26.244  38.561   9.316
    6AU     LIG 2894  26.413  38.532   9.746
    6AU     LIG 2895  26.633  38.773  10.085
    6AU     LIG 2896  26.975  38.925  10.371
    6AU     LIG 2897  27.307  39.077  10.670
    6AU    AUSL 2898  25.409  38.869   8.356
    6AU    AUSL 2899  25.258  39.287   8.357
    6AU     AUL 2900  25.318  39.195   8.703
    6AU       S 2901  25.486  38.801   8.540
    6AU     LIG 2902  25.631  38.438   8.786
    6AU     LIG 2903  25.804  38.314   9.228
    6AU     LIG 2904  25.946  38.281   9.703
    6AU     LIG 2905  25.976  38.068  10.158
    6AU     LIG 2906  25.953  37.975  10.646
    6AU     LIG 2907  26.134  37.919  11.089
    6AU       S 2908  24.888  39.068   8.685
    6AU     LIG 2909  24.720  39.024   9.103
    6AU     LIG 2910  24.635  38.825   9.518
    6AU     LIG 2911  24.492  38.798   9.962
    6AU     LIG 2912  24.536  38.972  10.400
    6AU     LIG 2913  24.634  39.228  10.796
    6AU     LIG 2914  24.687  39.341  11.257
    6AU    AUSL 2915  25.519  39.157   8.064
    6AU    AUSL 2916  25.953  39.261   7.989
    6AU     AUL 2917  26.014  39.100   8.221
    6AU       S 2918  25.715  39.263   8.525
    6AU     LIG 2919  25.649  39.588   8.832
    6AU     LIG 2920  25.876  39.752   9.229
    6AU     LIG 2921  25.879  39.797   9.728
    6AU     LIG 2922  25.823  39.892  10.211
    6AU     LIG 2923  26.027  39.962  10.637
    6AU     LIG 2924  26.272  40.066  11.032
    6AU       S 2925  26.220  39.512   8.198
    6AU     LIG 2926  26.594  39.611   8.474
    6AU     LIG 2927  26.846  39.706   8.863
    6AU     LIG 2928  27.176  39.932   9.114
    6AU     LIG 2929  27.397  39.995   9.527
    6AU     LIG 2930  27.782  40.011   9.807
    6AU     LIG 2931  28.234  40.136   9.898
    6AU    AUSL 2932  25.865  39.075   6.865
    6AU    AUSL 2933  25.606  39.485   6.812
    6AU     AUL 2934  25.935  39.419   6.437
    6AU       S 2935  25.914  39.103   6.723
    6AU     LIG 2936  26.182  39.015   6.337
    6AU     LIG 2937  26.210  38.844   5.915
    6AU     LIG 2938  26.323  38.677   5.488
    6AU     LIG 2939  26.557  38.552   5.095
    6AU     LIG 2940  26.958  38.500   4.822
    6AU     LIG 2941  27.223  38.636   4.449
    6AU       S 2942  25.596  39.567   6.663
    6AU     LIG 2943  25.891  39.915   6.572
    6AU     LIG 2944  26.250  39.948   6.268
    6AU     LIG 2945  26.553  40.124   5.923
    6AU     LIG 2946  26.820  40.236   5.515
    6AU     LIG 2947  27.029  40.466   5.129
    6AU     LIG 2948  27.031  40.752   4.733
    6AU    AUSL 2949  25.613  38.756   6.694
    6AU    AUSL 2950  25.954  38.696   7.006
    6AU     AUL 2951  25.992  38.684   6.652
    6AU       S 2952  26.071  38.286   6.887
    6AU     LIG 2953  26.189  37.986   6.557
    6AU     LIG 2954  26.430  37.701   6.284
    6AU     LIG 2955  26.716  37.462   6.001
    6AU     LIG 2956  27.099  37.422   5.712
    6AU     LIG 2957  27.436  37.460   5.359
    6AU     LIG 2958  27.805  37.381   5.079
    6AU       S 2959  25.684  38.987   6.441
    6AU     LIG 2960  25.792  38.641   6.179
    6AU     LIG 2961  25.909  38.451   5.757
    6AU     LIG 2962  25.943  38.394   5.285
    6AU     LIG 2963  26.017  38.371   4.809
    6AU     LIG 2964  26.089  38.100   4.406
    6AU     LIG 2965  26.117  37.961   3.941
    6AU    AUSL 2966  25.448  39.110   6.868
    6AU    AUSL 2967  25.197  38.837   6.664
    6AU     AUL 2968  25.414  38.630   6.568
    6AU       S 2969  25.157  38.928   6.315
    6AU     LIG 2970  25.086  38.659   5.966
    6AU     LIG 2971  24.796  38.430   5.682
    6AU     LIG 2972  24.566  38.306   5.290
    6AU     LIG 2973  24.460  38.084   4.885
    6AU     LIG 2974  24.189  37.951   4.518
    6AU     LIG 2975  23.982  37.923   4.085
    6AU       S 2976  25.576  39.099   6.512
    6AU     LIG 2977  25.737  39.121   5.986
    6AU     LIG 2978  25.856  38.923   5.545
    6AU     LIG 2979  26.015  38.863   5.087
    6AU     LIG 2980  26.041  38.973   4.621
    6AU     LIG 2981  26.015  39.142   4.167
    6AU     LIG 2982  26.138  39.443   3.821
    6AU    AUSL 2983  24.858  39.204   8.234
    6AU    AUSL 2984  25.142  39.418   7.980
    6AU     AUL 2985  25.072  39.491   8.375
    6AU       S 2986  24.751  39.230   8.605
    6AU     LIG 2987  24.426  38.893   8.683
    6AU     LIG 2988  24.308  38.698   9.101
    6AU     LIG 2989  24.166  38.616   9.554
    6AU     LIG 2990  24.033  38.562  10.005
    6AU     LIG 2991  23.668  38.581  10.296
    6AU     LIG 2992  23.373  38.679  10.653
    6AU       S 2993  24.652  39.622   8.250
    6AU     LIG 2994  24.749  39.726   8.699
    6AU     LIG 2995  24.680  40.067   9.008
    6AU     LIG 2996  24.423  40.340   9.298
    6AU     LIG 2997  24.255  40.496   9.716
    6AU     LIG 2998  24.167  40.671  10.158
    6AU     LIG 2999  23.940  40.956  10.464
    6AU    AUSL 3000  25.128  38.947   8.060
    6AU    AUSL 3001  24.613  38.943   8.009
    6AU     AUL 3002  24.721  38.948   8.244
    6AU       S 3003  24.439  38.584   8.257
    6AU     LIG 3004  24.081  38.412   8.040
    6AU     LIG 3005  23.762  38.119   8.193
    6AU     LIG 3006  23.557  37.854   8.528
    6AU     LIG 3007  23.334  37.590   8.848
    6AU     LIG 3008  23.072  37.325   9.137
    6AU     LIG 3009  22.696  37.365   9.426
    6AU       S 3010  24.993  38.877   8.593
    6AU     LIG 3011  24.781  38.564   8.874
    6AU     LIG 3012  24.646  38.363   9.297
    6AU     LIG 3013  24.533  38.323   9.761
    6AU     LIG 3014  24.358  38.216  10.193
    6AU     LIG 3015  24.195  38.088  10.632
    6AU     LIG 3016  24.101  38.079  11.105
    6AU    AUSL 3017  24.941  38.998   6.952
    6AU    AUSL 3018  25.072  38.557   6.939
    6AU     AUL 3019  24.914  38.668   6.646
    6AU       S 3020  24.902  39.007   6.319
    6AU     LIG 3021  24.613  38.872   5.977
    6AU     LIG 3022  24.385  38.721   5.577
    6AU     LIG 3023  24.090  38.501   5.266
    6AU     LIG 3024  23.694  38.465   5.006
    6AU     LIG 3025  23.467  38.732   4.689
    6AU     LIG 3026  23.283  39.001   4.335
    6AU       S 3027  24.646  38.278   6.816
    6AU     LIG 3028  24.410  37.899   6.809
    6AU     LIG 3029  24.137  37.617   6.559
    6AU     LIG 3030  23.842  37.423   6.238
    6AU     LIG 3031  23.579  37.200   5.908
    6AU     LIG 3032  23.486  36.967   5.497
    6AU     LIG 3033  23.411  36.727   5.086
    6AU    AUSL 3034  25.125  39.267   6.652
    6AU    AUSL 3035  24.723  39.353   6.907
    6AU     AUL 3036  24.706  39.100   6.718
    6AU       S 3037  24.743  39.573   6.671
    6AU     LIG 3038  24.435  39.688   6.333
    6AU     LIG 3039  24.150  39.970   6.055
    6AU     LIG 3040  23.877  39.996   5.656
    6AU     LIG 3041  23.463  39.979   5.389
    6AU     LIG 3042  23.069  40.203   5.222
    6AU     LIG 3043  22.739  40.467   4.986
    6AU       S 3044  25.109  39.187   6.456
    6AU     LIG 3045  25.082  39.195   5.908
    6AU     LIG 3046  24.884  38.929   5.545
    6AU     LIG 3047  24.640  38.862   5.135
    6AU     LIG 3048  24.602  39.081   4.693
    6AU     LIG 3049  24.571  39.278   4.242
    6AU     LIG 3050  24.383  39.360   3.802
    6AU    AUSL 3051  25.987  39.639   7.415
    6AU    AUSL 3052  25.976  39.432   7.043
    6AU     AUL 3053  26.093  39.885   7.223
    6AU       S 3054  26.079  39.558   6.853
    6AU     LIG 3055  26.416  39.496   6.530
    6AU     LIG 3056  26.691  39.673   6.167
    6AU     LIG 3057  27.017  39.899   5.883
    6AU     LIG 3058  27.313  40.038   5.523
    6AU     LIG 3059  27.737  40.153   5.327
    6AU     LIG 3060  28.039  40.460   5.115
    6AU       S 3061  26.394  39.547   7.292
    6AU     LIG 3062  26.824  39.752   7.411
    6AU     LIG 3063  27.252  39.625   7.393
    6AU     LIG 3064  27.712  39.638   7.424
    6AU     LIG 3065  28.084  39.933   7.494
    6AU     LIG 3066  28.300  40.373   7.506
    6AU     LIG 3067  28.578  40.774   7.481
    6AU    AUSL 3068  26.164  39.115   7.237
    6AU    AUSL 3069  26.160  38.932   7.724
    6AU     AUL 3070  26.378  38.975   7.489
    6AU       S 3071  26.424  39.261   7.111
    6AU     LIG 3072  26.915  39.281   7.149
    6AU     LIG 3073  27.390  39.167   7.192
    6AU     LIG 3074  27.881  39.188   7.212
    6AU     LIG 3075  28.383  39.235   7.164
    6AU     LIG 3076  28.770  39.547   7.044
    6AU     LIG 3077  29.095  39.908   7.007
    6AU       S 3078  26.503  38.573   7.702
    6AU     LIG 3079  26.866  38.298   7.739
    6AU     LIG 3080  27.205  37.995   7.879
    6AU     LIG 3081  27.661  37.981   7.782
    6AU     LIG 3082  28.058  37.995   8.021
    6AU     LIG 3083  28.493  38.117   8.105
    6AU     LIG 3084  28.896  37.973   8.273
    6AU    AUSL 3085  25.948  39.255   7.574
    6AU    AUSL 3086  25.893  39.642   7.816
    6AU     AUL 3087  26.187  39.447   7.723
    6AU       S 3088  26.108  39.700   8.102
    6AU     LIG 3089  26.262  39.996   8.431
    6AU     LIG 3090  26.668  40.131   8.641
    6AU     LIG 3091  27.000  40.379   8.870
    6AU     LIG 3092  27.171  40.828   8.937
    6AU     LIG 3093  27.376  41.267   8.962
    6AU     LIG 3094  27.541  41.716   9.043
    6AU       S 3095  26.472  39.425   7.372
    6AU     LIG 3096  26.826  39.261   7.646
    6AU     LIG 3097  27.310  39.229   7.708
    6AU     LIG 3098  27.813  39.231   7.725
    6AU     LIG 3099  28.302  39.301   7.673
    6AU     LIG 3100  28.711  39.557   7.764
    6AU     LIG 3101  29.059  39.866   7.935
    6AU    AUSL 3102  24.677  39.607   7.508
    6AU    AUSL 3103  24.735  39.366   7.873
    6AU     AUL 3104  24.471  39.714   7.759
    6AU       S 3105  24.464  39.416   8.121
    6AU     LIG 3106  24.294  39.499   8.566
    6AU     LIG 3107  24.234  39.834   8.903
    6AU     LIG 3108  23.984  40.064   9.242
    6AU     LIG 3109  23.603  40.120   9.541
    6AU     LIG 3110  23.171  40.138   9.766
    6AU     LIG 3111  22.743  40.156   9.989
    6AU       S 3112  24.119  39.547   7.505
    6AU     LIG 3113  23.994  39.964   7.698
    6AU     LIG 3114  23.753  40.395   7.740
    6AU     LIG 3115  23.416  40.718   7.584
    6AU     LIG 3116  22.964  40.937   7.515
    6AU     LIG 3117  22.554  41.202   7.442
    6AU     LIG 3118  22.087  41.144   7.494
    6AU    AUSL 3119  24.761  39.258   7.304
    6AU    AUSL 3120  24.865  39.702   7.145
    6AU     AUL 3121  24.598  39.605   7.137
    6AU       S 3122  24.210  39.605   7.368
    6AU     LIG 3123  23.893  39.482   7.036
    6AU     LIG 3124  23.511  39.625   6.758
    6AU     LIG 3125  23.053  39.735   6.869
    6AU     LIG 3126  22.590  39.822   6.851
    6AU     LIG 3127  22.212  40.125   6.780
    6AU     LIG 3128  21.856  40.337   6.531
    6AU       S 3129  24.751  39.866   6.765
    6AU     LIG 3130  24.500  40.174   6.476
    6AU     LIG 3131  24.263  40.493   6.183
    6AU     LIG 3132  24.197  40.955   6.009
    6AU     LIG 3133  24.004  41.375   5.844
    6AU     LIG 3134  23.690  41.736   5.748
    6AU     LIG 3135  23.363  42.109   5.773
    6AU    AUSL 3136  24.452  39.236   7.611
    6AU    AUSL 3137  24.492  38.941   7.299
    6AU     AUL 3138  24.368  39.207   7.213
    6AU       S 3139  24.152  38.751   7.434
    6AU     LIG 3140  23.770  38.725   7.737
    6AU     LIG 3141  23.281  38.769   7.812
    6AU     LIG 3142  22.874  38.518   7.738
    6AU     LIG 3143  22.548  38.300   7.443
    6AU     LIG 3144  22.091  38.356   7.280
    6AU     LIG 3145  21.644  38.470   7.152
    6AU       S 3146  24.263  39.273   7.687
    6AU     LIG 3147  23.949  39.500   7.975
    6AU     LIG 3148  23.481  39.627   8.067
    6AU     LIG 3149  23.024  39.775   8.173
    6AU     LIG 3150  22.566  39.949   8.181
    6AU     LIG 3151  22.190  40.224   8.305
    6AU     LIG 3152  21.777  40.463   8.369
    6AU    AUSL 3153  26.029  38.555   7.574
    6AU    AUSL 3154  25.773  38.821   7.833
    6AU     AUL 3155  26.124  38.703   7.944
    6AU       S 3156  26.191  38.352   7.588
    6AU     LIG 3157  26.452  37.995   7.678
    6AU     LIG 3158  26.868  37.809   7.536
    6AU     LIG 3159  27.318  37.620   7.534
    6AU     LIG 3160  27.633  37.242   7.558
    6AU     LIG 3161  28.036  37.026   7.699
    6AU     LIG 3162  28.412  36.749   7.604
    6AU       S 3163  26.009  38.286   8.057
    6AU     LIG 3164  26.261  37.985   8.374
    6AU     LIG 3165  26.412  37.696   8.700
    6AU     LIG 3166  26.647  37.406   8.979
    6AU     LIG 3167  26.977  37.333   9.305
    6AU     LIG 3168  27.355  37.457   9.587
    6AU     LIG 3169  27.710  37.547   9.901
    6AU    AUSL 3170  25.863  38.873   7.369
    6AU    AUSL 3171  25.790  38.400   7.268
    6AU     AUL 3172  26.145  38.638   7.203
    6AU       S 3173  26.307  38.480   7.585
    6AU     LIG 3174  26.614  38.304   7.279
    6AU     LIG 3175  27.075  38.185   7.249
    6AU     LIG 3176  27.523  38.026   7.275
    6AU     LIG 3177  27.967  38.081   7.061
    6AU     LIG 3178  28.487  38.060   7.082
    6AU     LIG 3179  28.922  37.950   6.881
    6AU       S 3180  26.055  38.184   7.110
    6AU     LIG 3181  25.918  37.779   6.947
    6AU     LIG 3182  26.141  37.461   6.654
    6AU     LIG 3183  26.472  37.196   6.401
    6AU     LIG 3184  26.834  36.978   6.159
    6AU     LIG 3185  27.170  36.637   6.099
    6AU     LIG 3186  27.402  36.313   5.836
    6AU    AUSL 3187  24.607  38.573   7.506
    6AU    AUSL 3188  24.688  38.685   7.047
    6AU     AUL 3189  24.420  38.751   7.041
    6AU       S 3190  24.630  38.345   7.069
    6AU     LIG 3191  24.151  38.296   7.012
    6AU     LIG 3192  23.859  38.024   6.729
    6AU     LIG 3193  23.548  37.801   6.424
    6AU     LIG 3194  23.267  37.569   6.105
    6AU     LIG 3195  22.886  37.399   5.854
    6AU     LIG 3196  22.516  37.571   5.603
    6AU       S 3197  24.326  38.534   7.439
    6AU     LIG 3198  23.964  38.278   7.543
    6AU     LIG 3199  23.473  38.299   7.597
    6AU     LIG 3200  23.031  38.075   7.531
    6AU     LIG 3201  22.616  37.812   7.597
    6AU     LIG 3202  22.266  37.495   7.472
    6AU     LIG 3203  21.922  37.251   7.278
    6AU    AUSL 3204  24.760  38.959   7.628
    6AU    AUSL 3205  24.837  38.617   7.875
    6AU     AUL 3206  24.464  38.757   7.816
    6AU       S 3207  24.596  38.467   8.144
    6AU     LIG 3208  24.482  38.192   7.816
    6AU     LIG 3209  24.120  37.896   7.885
    6AU     LIG 3210  23.781  37.610   8.105
    6AU     LIG 3211  23.480  37.362   8.385
    6AU     LIG 3212  23.292  37.092   8.716
    6AU     LIG 3213  23.051  36.773   8.953
    6AU       S 3214  24.208  38.844   7.457
    6AU     LIG 3215  23.761  39.065   7.359
    6AU     LIG 3216  23.264  38.922   7.325
    6AU     LIG 3217  22.787  38.823   7.342
    6AU     LIG 3218  22.356  38.731   7.592
    6AU     LIG 3219  22.053  38.437   7.790
    6AU     LIG 3220  21.585  38.413   7.849
    6AU    AUSL 3221  25.334  39.781   8.013
    6AU    AUSL 3222  24.931  39.735   7.811
    6AU     AUL 3223  25.087  39.856   8.084
    6AU       S 3224  24.674  39.716   8.173
    6AU     LIG 3225  24.419  40.028   8.456
    6AU     LIG 3226  24.315  40.367   8.788
    6AU     LIG 3227  24.284  40.834   8.953
    6AU     LIG 3228  24.075  41.278   9.011
    6AU     LIG 3229  23.715  41.520   9.233
    6AU     LIG 3230  23.282  41.549   9.453
    6AU       S 3231  25.409  40.202   8.043
    6AU     LIG 3232  25.458  40.453   8.393
    6AU     LIG 3233  25.728  40.759   8.573
    6AU     LIG 3234  25.636  41.156   8.787
    6AU     LIG 3235  25.594  41.368   9.212
    6AU     LIG 3236  25.515  41.682   9.559
    6AU     LIG 3237  25.347  42.073   9.767
    6AU    AUSL 3238  25.228  39.951   7.621
    6AU    AUSL 3239  25.565  39.892   7.334
    6AU     AUL 3240  25.258  40.184   7.421
    6AU       S 3241  25.337  40.241   7.866
    6AU     LIG 3242  25.273  40.691   7.963
    6AU     LIG 3243  25.408  41.007   8.264
    6AU     LIG 3244  25.268  41.388   8.477
    6AU     LIG 3245  24.960  41.730   8.381
    6AU     LIG 3246  24.903  42.148   8.529
    6AU     LIG 3247  24.980  42.581   8.670
    6AU       S 3248  25.617  40.255   7.112
    6AU     LIG 3249  25.851  40.547   6.807
    6AU     LIG 3250  26.063  40.973   6.700
    6AU     LIG 3251  26.340  41.379   6.676
    6AU     LIG 3252  26.498  41.839   6.628
    6AU     LIG 3253  26.283  42.256   6.677
    6AU     LIG 3254  26.372  42.691   6.515
    6AU    AUSL 3255  25.517  39.636   7.667
    6AU    AUSL 3256  25.640  39.534   8.148
    6AU     AUL 3257  25.667  39.826   8.003
    6AU       S 3258  25.954  39.578   8.286
    6AU     LIG 3259  26.137  39.569   8.703
    6AU     LIG 3260  26.356  39.872   8.965
    6AU     LIG 3261  26.699  40.102   9.196
    6AU     LIG 3262  26.956  40.286   9.563
    6AU     LIG 3263  26.974  40.584   9.955
    6AU     LIG 3264  26.822  40.967  10.221
    6AU       S 3265  25.641  40.173   7.718
    6AU     LIG 3266  25.775  40.566   8.001
    6AU     LIG 3267  25.987  40.982   8.160
    6AU     LIG 3268  26.373  41.318   8.121
    6AU     LIG 3269  26.508  41.786   8.139
    6AU     LIG 3270  26.596  42.249   8.293
    6AU     LIG 3271  26.551  42.567   8.642
    6AU    AUSL 3272  25.278  38.515   7.874
    6AU    AUSL 3273  25.692  38.404   7.756
    6AU     AUL 3274  25.464  38.309   8.130
    6AU       S 3275  25.271  37.909   8.031
    6AU     LIG 3276  25.327  37.518   8.220
    6AU     LIG 3277  25.030  37.209   8.357
    6AU     LIG 3278  24.907  36.776   8.388
    6AU     LIG 3279  24.904  36.387   8.625
    6AU     LIG 3280  24.972  36.212   9.059
    6AU     LIG 3281  25.023  35.958   9.453
    6AU       S 3282  25.825  38.187   7.844
    6AU     LIG 3283  26.035  37.776   7.919
    6AU     LIG 3284  26.142  37.492   8.279
    6AU     LIG 3285  26.378  37.197   8.565
    6AU     LIG 3286  26.644  36.910   8.832
    6AU     LIG 3287  26.964  36.560   8.894
    6AU     LIG 3288  27.265  36.212   9.033
    6AU    AUSL 3289  24.978  38.301   7.662
    6AU    AUSL 3290  25.068  38.579   8.230
    6AU     AUL 3291  24.996  38.290   8.009
    6AU       S 3292  25.082  37.848   7.899
    6AU     LIG 3293  24.888  37.458   7.908
    6AU     LIG 3294  24.735  37.019   7.964
    6AU     LIG 3295  24.560  36.581   8.046
    6AU     LIG 3296  24.381  36.165   8.190
    6AU     LIG 3297  24.485  35.714   8.321
    6AU     LIG 3298  24.419  35.357   8.631
    6AU       S 3299  24.746  38.490   8.343
    6AU     LIG 3300  24.402  38.074   8.340
    6AU     LIG 3301  24.070  37.783   8.491
    6AU     LIG 3302  23.828  37.458   8.753
    6AU     LIG 3303  23.603  37.226   9.113
    6AU     LIG 3304  23.592  37.034   9.551
    6AU     LIG 3305  23.657  36.958  10.023
    6AU    AUSL 3306  25.378  38.155   7.654
    6AU    AUSL 3307  25.093  38.237   7.267
    6AU     AUL 3308  24.915  38.072   7.537
    6AU       S 3309  25.053  37.882   7.136
    6AU     LIG 3310  24.715  37.596   7.098
    6AU     LIG 3311  24.603  37.125   7.090
    6AU     LIG 3312  24.512  36.650   6.979
    6AU     LIG 3313  24.259  36.200   6.955
    6AU     LIG 3314  24.256  35.722   6.805
    6AU     LIG 3315  24.230  35.260   6.691
    6AU       S 3316  25.336  38.011   7.756
    6AU     LIG 3317  25.386  37.522   7.693
    6AU     LIG 3318  25.258  37.095   7.900
    6AU     LIG 3319  25.300  36.642   8.062
    6AU     LIG 3320  25.591  36.243   8.102
    6AU     LIG 3321  25.813  35.836   8.239
    6AU     LIG 3322  25.930  35.407   8.368
    6AU    AUSL 3323  25.333  39.743   6.999
    6AU    AUSL 3324  25.632  39.489   7.255
    6AU     AUL 3325  25.681  39.811   7.027
    6AU       S 3326  25.366  40.045   6.781
    6AU     LIG 3327  25.564  40.289   6.459
    6AU     LIG 3328  25.667  40.704   6.287
    6AU     LIG 3329  25.600  40.955   5.875
    6AU     LIG 3330  25.555  41.340   5.596
    6AU     LIG 3331  25.670  41.736   5.387
    6AU     LIG 3332  25.675  42.095   5.105
    6AU       S 3333  26.038  39.523   6.939
    6AU     LIG 3334  26.379  39.928   6.795
    6AU     LIG 3335  26.701  40.099   6.461
    6AU     LIG 3336  26.977  40.356   6.155
    6AU     LIG 3337  27.257  40.765   6.095
    6AU     LIG 3338  27.492  41.214   6.091
    6AU     LIG 3339  27.726  41.667   6.102
    6AU    AUSL 3340  25.192  39.625   7.385
    6AU    AUSL 3341  25.129  39.389   7.041
    6AU     AUL 3342  25.066  39.885   7.115
    6AU       S 3343  25.410  40.191   6.998
    6AU     LIG 3344  25.341  40.595   6.803
    6AU     LIG 3345  25.535  41.000   6.705
    6AU     LIG 3346  25.407  41.454   6.690
    6AU     LIG 3347  25.102  41.811   6.611
    6AU     LIG 3348  25.046  42.244   6.451
    6AU     LIG 3349  24.993  42.712   6.414
    6AU       S 3350  24.993  39.702   6.675
    6AU     LIG 3351  24.907  39.892   6.268
    6AU     LIG 3352  24.626  40.134   5.975
    6AU     LIG 3353  24.302  40.340   5.688
    6AU     LIG 3354  24.268  40.641   5.316
    6AU     LIG 3355  24.044  40.850   4.948
    6AU     LIG 3356  23.861  41.156   4.631
    6AU    AUSL 3357  25.417  38.330   6.997
    6AU    AUSL 3358  24.982  38.629   7.343
    6AU     AUL 3359  25.082  38.302   6.951
    6AU       S 3360  24.642  38.234   7.177
    6AU     LIG 3361  24.353  37.959   7.343
    6AU     LIG 3362  24.025  37.716   7.108
    6AU     LIG 3363  23.708  37.499   6.809
    6AU     LIG 3364  23.426  37.269   6.493
    6AU     LIG 3365  23.149  37.063   6.164
    6AU     LIG 3366  22.901  36.794   5.872
    6AU       S 3367  25.315  37.906   6.987
    6AU     LIG 3368  25.068  37.671   6.691
    6AU     LIG 3369  24.896  37.259   6.696
    6AU     LIG 3370  24.913  36.794   6.625
    6AU     LIG 3371  25.086  36.461   6.324
    6AU     LIG 3372  25.076  36.264   5.873
    6AU     LIG 3373  24.959  35.996   5.484
    6AU    AUSL 3374  25.410  38.477   7.414
    6AU    AUSL 3375  25.531  38.711   7.087
    6AU     AUL 3376  25.603  38.202   7.196
    6AU       S 3377  25.255  37.922   7.258
    6AU     LIG 3378  25.196  37.419   7.206
    6AU     LIG 3379  25.114  36.968   7.075
    6AU     LIG 3380  25.292  36.549   6.903
    6AU     LIG 3381  25.480  36.113   6.812
    6AU     LIG 3382  25.722  35.772   6.603
    6AU     LIG 3383  26.077  35.490   6.758
    6AU       S 3384  25.822  38.283   6.793
    6AU     LIG 3385  25.671  37.951   6.531
    6AU     LIG 3386  25.904  37.652   6.239
    6AU     LIG 3387  26.189  37.343   5.997
    6AU     LIG 3388  26.492  37.077   5.731
    6AU     LIG 3389  26.606  36.899   5.297
    6AU     LIG 3390  26.849  36.863   4.875
    7AU     AUC 3391  22.875  22.559   7.498
    7AU     AUC 3392  23.138  22.557   7.340
    7AU     AUC 3393  23.123  22.551   7.648
    7AU     AUC 3394  22.629  22.566   7.333
    7AU     AUC 3395  22.613  22.588   7.648
    7AU     AUC 3396  22.726  22.830   7.503
    7AU     AUC 3397  23.047  22.802   7.501
    7AU     AUC 3398  22.706  22.318   7.507
    7AU     AUC 3399  23.006  22.291   7.516
    7AU     AUC 3400  22.860  22.400   7.754
    7AU     AUC 3401  22.889  22.723   7.750
    7AU     AUC 3402  22.876  22.398   7.238
    7AU     AUC 3403  22.873  22.696   7.238
    7AU     AUC 3404  23.389  22.551   7.175
    7AU     AUC 3405  23.395  22.557   7.476
    7AU     AUC 3406  23.392  22.543   7.786
    7AU     AUC 3407  22.377  22.554   7.173
    7AU     AUC 3408  22.356  22.586   7.470
    7AU     AUC 3409  22.355  22.625   7.794
    7AU     AUC 3410  22.586  23.092   7.508
    7AU     AUC 3411  22.897  23.082   7.508
    7AU     AUC 3412  23.201  23.071   7.495
    7AU     AUC 3413  22.521  22.069   7.516
    7AU     AUC 3414  22.834  22.035   7.502
    7AU     AUC 3415  23.155  22.026   7.520
    7AU     AUC 3416  22.854  22.250   8.009
    7AU     AUC 3417  22.886  22.549   8.023
    7AU     AUC 3418  22.915  22.870   8.010
    7AU     AUC 3419  22.878  22.213   7.004
    7AU     AUC 3420  22.890  22.531   6.973
    7AU     AUC 3421  22.873  22.847   6.972
    7AU     AUC 3422  23.130  22.377   7.914
    7AU     AUC 3423  23.147  22.715   7.921
    7AU     AUC 3424  23.150  22.384   7.079
    7AU     AUC 3425  23.149  22.696   7.066
    7AU     AUC 3426  22.609  22.447   7.928
    7AU     AUC 3427  22.611  22.751   7.904
    7AU     AUC 3428  22.630  22.388   7.066
    7AU     AUC 3429  22.628  22.706   7.067
    7AU     AUC 3430  23.298  22.819   7.319
    7AU     AUC 3431  23.310  22.788   7.664
    7AU     AUC 3432  22.467  22.834   7.342
    7AU     AUC 3433  22.474  22.867   7.649
    7AU     AUC 3434  23.288  22.282   7.356
    7AU     AUC 3435  23.264  22.263   7.663
    7AU     AUC 3436  22.447  22.306   7.343
    7AU     AUC 3437  22.443  22.346   7.683
    7AU     AUC 3438  22.743  22.989   7.769
    7AU     AUC 3439  23.075  22.972   7.749
    7AU     AUC 3440  22.673  22.156   7.761
    7AU     AUC 3441  22.993  22.134   7.770
    7AU     AUC 3442  22.732  22.971   7.231
    7AU     AUC 3443  23.045  22.957   7.229
    7AU     AUC 3444  22.697  22.146   7.242
    7AU     AUC 3445  23.027  22.130   7.259
    7AU    AUSL 3446  23.381  22.426   8.221
    7AU    AUSL 3447  23.152  22.061   8.128
    7AU     AUL 3448  23.443  22.111   8.370
    7AU       S 3449  23.460  21.712   8.117
    7AU     LIG 3450  23.256  21.397   8.321
    7AU     LIG 3451  23.439  21.174   8.669
    7AU     LIG 3452  23.693  20.857   8.896
    7AU     LIG 3453  23.958  20.590   9.182
    7AU     LIG 3454  23.982  20.374   9.609
    7AU     LIG 3455  24.085  20.156  10.020
    7AU       S 3456  23.329  22.488   8.630
    7AU     LIG 3457  23.564  22.232   8.943
    7AU     LIG 3458  23.791  22.070   9.337
    7AU     LIG 3459  24.024  21.930   9.733
    7AU     LIG 3460  24.368  21.913  10.075
    7AU     LIG 3461  24.709  21.982  10.408
    7AU     LIG 3462  25.102  22.099  10.655
    7AU    AUSL 3463  22.961  22.363   8.352
    7AU    AUSL 3464  22.811  22.781   8.357
    7AU     AUL 3465  22.869  22.688   8.702
    7AU       S 3466  23.036  22.295   8.534
    7AU     LIG 3467  23.183  21.928   8.766
    7AU     LIG 3468  23.369  21.800   9.195
    7AU     LIG 3469  23.530  21.722   9.651
    7AU     LIG 3470  23.537  21.539  10.103
    7AU     LIG 3471  23.640  21.430  10.556
    7AU     LIG 3472  23.798  21.478  11.004
    7AU       S 3473  22.441  22.552   8.682
    7AU     LIG 3474  22.273  22.530   9.104
    7AU     LIG 3475  22.192  22.328   9.521
    7AU     LIG 3476  22.036  22.297   9.964
    7AU     LIG 3477  22.015  22.597  10.345
    7AU     LIG 3478  22.073  22.877  10.736
    7AU     LIG 3479  22.011  23.215  11.077
    7AU    AUSL 3480  23.071  22.652   8.062
    7AU    AUSL 3481  23.507  22.755   7.987
    7AU     AUL 3482  23.564  22.596   8.220
    7AU       S 3483  23.267  22.751   8.526
    7AU     LIG 3484  23.188  23.138   8.716
    7AU     LIG 3485  23.413  23.300   9.112
    7AU     LIG 3486  23.480  23.307   9.600
    7AU     LIG 3487  23.534  23.267  10.088
    7AU     LIG 3488  23.658  23.248  10.556
    7AU     LIG 3489  23.757  23.264  11.010
    7AU       S 3490  23.771  23.007   8.198
    7AU     LIG 3491  24.136  23.159   8.460
    7AU     LIG 3492  24.402  23.289   8.825
    7AU     LIG 3493  24.712  23.455   9.144
    7AU     LIG 3494  25.075  23.446   9.458
    7AU     LIG 3495  25.443  23.518   9.763
    7AU     LIG 3496  25.824  23.747   9.943
    7AU    AUSL 3497  23.417  22.582   6.862
    7AU    AUSL 3498  23.158  22.992   6.813
    7AU     AUL 3499  23.487  22.931   6.441
    7AU       S 3500  23.467  22.610   6.722
    7AU     LIG 3501  23.726  22.526   6.317
    7AU     LIG 3502  23.817  22.301   5.920
    7AU     LIG 3503  23.902  22.159   5.476
    7AU     LIG 3504  24.095  22.001   5.065
    7AU     LIG 3505  24.445  21.924   4.729
    7AU     LIG 3506  24.762  21.998   4.379
    7AU       S 3507  23.136  23.074   6.653
    7AU     LIG 3508  23.447  23.416   6.560
    7AU     LIG 3509  23.785  23.493   6.240
    7AU     LIG 3510  24.054  23.615   5.839
    7AU     LIG 3511  24.213  23.756   5.388
    7AU     LIG 3512  24.404  23.966   4.979
    7AU     LIG 3513  24.550  24.351   4.704
    7AU    AUSL 3514  23.164  22.265   6.688
    7AU    AUSL 3515  23.506  22.201   6.999
    7AU     AUL 3516  23.543  22.194   6.640
    7AU       S 3517  23.626  21.796   6.870
    7AU     LIG 3518  23.725  21.531   6.483
    7AU     LIG 3519  23.916  21.123   6.312
    7AU     LIG 3520  24.166  20.796   6.075
    7AU     LIG 3521  24.497  20.752   5.728
    7AU     LIG 3522  24.900  20.848   5.461
    7AU     LIG 3523  25.276  20.811   5.157
    7AU       S 3524  23.235  22.499   6.435
    7AU     LIG 3525  23.351  22.172   6.143
    7AU     LIG 3526  23.475  21.965   5.715
    7AU     LIG 3527  23.631  21.753   5.302
    7AU     LIG 3528  23.618  21.501   4.892
    7AU     LIG 3529  23.682  21.474   4.426
    7AU     LIG 3530  23.884  21.571   3.998
    7AU    AUSL 3531  23.000  22.617   6.867
    7AU    AUSL 3532  22.749  22.348   6.659
    7AU     AUL 3533  22.966  22.140   6.561
    7AU       S 3534  22.707  22.443   6.315
    7AU     LIG 3535  22.654  22.156   5.988
    7AU     LIG 3536  22.373  21.928   5.697
    7AU     LIG 3537  22.155  21.814   5.297
    7AU     LIG 3538  21.873  21.665   4.948
    7AU     LIG 3539  21.824  21.506   4.510
    7AU     LIG 3540  21.924  21.600   4.060
    7AU       S 3541  23.128  22.608   6.510
    7AU     LIG 3542  23.240  22.660   5.985
    7AU     LIG 3543  23.463  22.476   5.585
    7AU     LIG 3544  23.622  22.414   5.118
    7AU     LIG 3545  23.631  22.602   4.660
    7AU     LIG 3546  23.753  22.796   4.220
    7AU     LIG 3547  23.949  22.986   3.814
    7AU    AUSL 3548  22.411  22.698   8.233
    7AU    AUSL 3549  22.694  22.914   7.981
    7AU     AUL 3550  22.623  22.985   8.377
    7AU       S 3551  22.306  22.719   8.607
    7AU     LIG 3552  21.981  22.378   8.689
    7AU     LIG 3553  21.870  22.188   9.114
    7AU     LIG 3554  21.738  22.082   9.568
    7AU     LIG 3555  21.601  21.987  10.024
    7AU     LIG 3556  21.226  21.954  10.337
    7AU     LIG 3557  20.845  22.095  10.597
    7AU       S 3558  22.200  23.113   8.256
    7AU     LIG 3559  22.274  23.216   8.707
    7AU     LIG 3560  22.185  23.529   9.046
    7AU     LIG 3561  21.941  23.823   9.326
    7AU     LIG 3562  21.858  24.011   9.756
    7AU     LIG 3563  21.712  24.279  10.126
    7AU     LIG 3564  21.517  24.654  10.345
    7AU    AUSL 3565  22.679  22.442   8.056
    7AU    AUSL 3566  22.165  22.440   8.005
    7AU     AUL 3567  22.271  22.444   8.241
    7AU       S 3568  21.999  22.073   8.256
    7AU     LIG 3569  21.649  21.849   8.079
    7AU     LIG 3570  21.328  21.563   8.210
    7AU     LIG 3571  21.088  21.322   8.520
    7AU     LIG 3572  20.844  21.070   8.827
    7AU     LIG 3573  20.565  20.851   9.133
    7AU     LIG 3574  20.226  20.955   9.456
    7AU       S 3575  22.545  22.368   8.590
    7AU     LIG 3576  22.343  22.061   8.896
    7AU     LIG 3577  22.203  21.856   9.327
    7AU     LIG 3578  22.087  21.784   9.795
    7AU     LIG 3579  21.940  21.624  10.220
    7AU     LIG 3580  21.872  21.744  10.673
    7AU     LIG 3581  21.625  21.644  11.080
    7AU    AUSL 3582  22.495  22.507   6.951
    7AU    AUSL 3583  22.621  22.064   6.930
    7AU     AUL 3584  22.465  22.179   6.639
    7AU       S 3585  22.459  22.526   6.315
    7AU     LIG 3586  22.194  22.397   5.971
    7AU     LIG 3587  21.978  22.236   5.583
    7AU     LIG 3588  21.675  22.003   5.313
    7AU     LIG 3589  21.394  21.911   4.957
    7AU     LIG 3590  21.089  21.969   4.604
    7AU     LIG 3591  20.827  22.236   4.329
    7AU       S 3592  22.187  21.791   6.804
    7AU     LIG 3593  21.945  21.406   6.808
    7AU     LIG 3594  21.663  21.120   6.567
    7AU     LIG 3595  21.347  20.936   6.256
    7AU     LIG 3596  21.119  20.852   5.841
    7AU     LIG 3597  21.078  20.770   5.365
    7AU     LIG 3598  21.010  20.477   4.993
    7AU    AUSL 3599  22.679  22.779   6.653
    7AU    AUSL 3600  22.277  22.862   6.908
    7AU     AUL 3601  22.260  22.610   6.715
    7AU       S 3602  22.298  23.082   6.679
    7AU     LIG 3603  21.998  23.128   6.328
    7AU     LIG 3604  21.701  23.364   6.030
    7AU     LIG 3605  21.304  23.345   5.747
    7AU     LIG 3606  20.899  23.433   5.499
    7AU     LIG 3607  20.578  23.628   5.202
    7AU     LIG 3608  20.313  23.924   4.965
    7AU       S 3609  22.664  22.706   6.455
    7AU     LIG 3610  22.674  22.705   5.908
    7AU     LIG 3611  22.487  22.420   5.549
    7AU     LIG 3612  22.251  22.313   5.139
    7AU     LIG 3613  22.233  22.438   4.661
    7AU     LIG 3614  22.221  22.613   4.200
    7AU     LIG 3615  22.016  22.759   3.781
    7AU    AUSL 3616  23.538  23.140   7.419
    7AU    AUSL 3617  23.527  22.936   7.045
    7AU     AUL 3618  23.630  23.386   7.239
    7AU       S 3619  23.629  23.067   6.858
    7AU     LIG 3620  23.964  23.049   6.539
    7AU     LIG 3621  24.222  23.227   6.174
    7AU     LIG 3622  24.495  23.338   5.794
    7AU     LIG 3623  24.890  23.393   5.528
    7AU     LIG 3624  25.297  23.569   5.383
    7AU     LIG 3625  25.592  23.899   5.233
    7AU       S 3626  23.949  23.058   7.287
    7AU     LIG 3627  24.413  23.230   7.399
    7AU     LIG 3628  24.875  23.111   7.477
    7AU     LIG 3629  25.326  23.269   7.418
    7AU     LIG 3630  25.602  23.619   7.531
    7AU     LIG 3631  25.766  24.049   7.488
    7AU     LIG 3632  26.147  24.294   7.400
    7AU    AUSL 3633  23.716  22.617   7.237
    7AU    AUSL 3634  23.711  22.428   7.714
    7AU     AUL 3635  23.934  22.476   7.492
    7AU       S 3636  23.968  22.759   7.111
    7AU     LIG 3637  24.425  22.845   7.052
    7AU     LIG 3638  24.887  22.750   7.123
    7AU     LIG 3639  25.284  22.951   7.012
    7AU     LIG 3640  25.704  22.907   7.150
    7AU     LIG 3641  26.161  22.905   7.209
    7AU     LIG 3642  26.439  23.192   6.992
    7AU       S 3643  24.033  22.042   7.658
    7AU     LIG 3644  24.466  21.848   7.673
    7AU     LIG 3645  24.837  21.574   7.730
    7AU     LIG 3646  25.223  21.338   7.767
    7AU     LIG 3647  25.679  21.359   7.822
    7AU     LIG 3648  26.157  21.295   7.862
    7AU     LIG 3649  26.626  21.166   7.930
    7AU    AUSL 3650  23.498  22.755   7.573
    7AU    AUSL 3651  23.447  23.139   7.821
    7AU     AUL 3652  23.740  22.943   7.721
    7AU       S 3653  23.661  23.192   8.104
    7AU     LIG 3654  23.775  23.515   8.424
    7AU     LIG 3655  24.180  23.714   8.598
    7AU     LIG 3656  24.458  24.093   8.759
    7AU     LIG 3657  24.818  24.424   8.707
    7AU     LIG 3658  25.177  24.748   8.810
    7AU     LIG 3659  25.302  25.226   8.832
    7AU       S 3660  24.020  22.934   7.365
    7AU     LIG 3661  24.397  22.731   7.551
    7AU     LIG 3662  24.842  22.574   7.630
    7AU     LIG 3663  25.175  22.533   7.960
    7AU     LIG 3664  25.608  22.666   7.988
    7AU     LIG 3665  26.054  22.805   7.933
    7AU     LIG 3666  26.351  23.061   7.672
    7AU    AUSL 3667  22.228  23.109   7.512
    7AU    AUSL 3668  22.286  22.866   7.875
    7AU     AUL 3669  22.026  23.216   7.762
    7AU       S 3670  22.016  22.910   8.119
    7AU     LIG 3671  21.839  22.958   8.561
    7AU     LIG 3672  21.754  23.274   8.912
    7AU     LIG 3673  21.503  23.567   9.214
    7AU     LIG 3674  21.119  23.637   9.521
    7AU     LIG 3675  20.708  23.746   9.773
    7AU     LIG 3676  20.244  23.834   9.896
    7AU       S 3677  21.667  23.051   7.525
    7AU     LIG 3678  21.606  23.519   7.616
    7AU     LIG 3679  21.372  23.940   7.565
    7AU     LIG 3680  21.005  24.257   7.551
    7AU     LIG 3681  20.643  24.573   7.577
    7AU     LIG 3682  20.220  24.699   7.673
    7AU     LIG 3683  19.814  24.851   7.793
    7AU    AUSL 3684  22.313  22.762   7.304
    7AU    AUSL 3685  22.418  23.208   7.150
    7AU     AUL 3686  22.149  23.113   7.144
    7AU       S 3687  21.758  23.100   7.373
    7AU     LIG 3688  21.354  23.020   7.119
    7AU     LIG 3689  21.041  23.242   6.826
    7AU     LIG 3690  20.575  23.216   6.746
    7AU     LIG 3691  20.130  23.403   6.748
    7AU     LIG 3692  19.843  23.777   6.843
    7AU     LIG 3693  19.402  23.877   6.707
    7AU       S 3694  22.302  23.364   6.764
    7AU     LIG 3695  22.100  23.622   6.423
    7AU     LIG 3696  21.926  23.936   6.100
    7AU     LIG 3697  21.806  24.402   5.987
    7AU     LIG 3698  21.640  24.841   5.840
    7AU     LIG 3699  21.287  25.137   5.709
    7AU     LIG 3700  20.830  25.238   5.563
    7AU    AUSL 3701  22.004  22.738   7.611
    7AU    AUSL 3702  22.044  22.446   7.297
    7AU     AUL 3703  21.922  22.712   7.209
    7AU       S 3704  21.708  22.285   7.434
    7AU     LIG 3705  21.321  22.404   7.725
    7AU     LIG 3706  20.816  22.427   7.761
    7AU     LIG 3707  20.436  22.134   7.812
    7AU     LIG 3708  20.107  21.878   7.555
    7AU     LIG 3709  19.737  22.017   7.298
    7AU     LIG 3710  19.422  21.726   7.101
    7AU       S 3711  21.816  22.773   7.687
    7AU     LIG 3712  21.479  22.934   7.987
    7AU     LIG 3713  21.056  23.047   8.227
    7AU     LIG 3714  20.605  23.241   8.288
    7AU     LIG 3715  20.166  23.438   8.341
    7AU     LIG 3716  19.735  23.248   8.220
    7AU     LIG 3717  19.270  23.381   8.274
    7AU    AUSL 3718  23.575  22.056   7.563
    7AU    AUSL 3719  23.326  22.317   7.828
    7AU     AUL 3720  23.694  22.214   7.939
    7AU       S 3721  23.740  21.801   7.558
    7AU     LIG 3722  24.035  21.534   7.766
    7AU     LIG 3723  24.412  21.305   7.609
    7AU     LIG 3724  24.841  21.122   7.471
    7AU     LIG 3725  25.305  20.948   7.436
    7AU     LIG 3726  25.611  20.563   7.457
    7AU     LIG 3727  25.995  20.417   7.689
    7AU       S 3728  23.565  21.796   8.045
    7AU     LIG 3729  23.766  21.555   8.448
    7AU     LIG 3730  23.972  21.237   8.684
    7AU     LIG 3731  24.222  20.907   8.868
    7AU     LIG 3732  24.523  20.770   9.192
    7AU     LIG 3733  24.933  20.798   9.436
    7AU     LIG 3734  25.296  20.661   9.711
    7AU    AUSL 3735  23.411  22.377   7.362
    7AU    AUSL 3736  23.340  21.901   7.254
    7AU     AUL 3737  23.704  22.142   7.199
    7AU       S 3738  23.743  21.931   7.586
    7AU     LIG 3739  24.140  21.718   7.285
    7AU     LIG 3740  24.632  21.597   7.246
    7AU     LIG 3741  25.115  21.512   7.284
    7AU     LIG 3742  25.572  21.375   7.289
    7AU     LIG 3743  26.013  21.232   7.104
    7AU     LIG 3744  26.468  21.156   6.951
    7AU       S 3745  23.603  21.688   7.075
    7AU     LIG 3746  23.553  21.252   6.874
    7AU     LIG 3747  23.652  20.829   6.643
    7AU     LIG 3748  23.894  20.490   6.415
    7AU     LIG 3749  24.152  20.240   6.116
    7AU     LIG 3750  24.442  19.859   6.107
    7AU     LIG 3751  24.827  19.618   5.991
    7AU    AUSL 3752  22.157  22.076   7.500
    7AU    AUSL 3753  22.238  22.195   7.039
    7AU     AUL 3754  21.969  22.257   7.037
    7AU       S 3755  22.171  21.849   7.060
    7AU     LIG 3756  21.694  21.814   7.001
    7AU     LIG 3757  21.400  21.542   6.728
    7AU     LIG 3758  21.073  21.329   6.434
    7AU     LIG 3759  20.770  21.089   6.144
    7AU     LIG 3760  20.391  20.899   5.920
    7AU     LIG 3761  20.130  20.732   5.554
    7AU       S 3762  21.874  22.042   7.434
    7AU     LIG 3763  21.483  21.865   7.574
    7AU     LIG 3764  21.037  22.015   7.506
    7AU     LIG 3765  20.607  21.846   7.409
    7AU     LIG 3766  20.334  21.442   7.427
    7AU     LIG 3767  19.963  21.152   7.465
    7AU     LIG 3768  19.560  20.977   7.634
    7AU    AUSL 3769  22.312  22.461   7.625
    7AU    AUSL 3770  22.388  22.115   7.868
    7AU     AUL 3771  22.016  22.253   7.814
    7AU       S 3772  22.147  21.964   8.143
    7AU     LIG 3773  22.050  21.669   7.824
    7AU     LIG 3774  21.724  21.329   7.944
    7AU     LIG 3775  21.354  21.047   8.153
    7AU     LIG 3776  21.002  20.814   8.403
    7AU     LIG 3777  20.721  20.568   8.707
    7AU     LIG 3778  20.566  20.156   8.881
    7AU       S 3779  21.763  22.349   7.454
    7AU     LIG 3780  21.299  22.482   7.228
    7AU     LIG 3781  20.804  22.409   7.239
    7AU     LIG 3782  20.328  22.295   7.345
    7AU     LIG 3783  19.947  22.320   7.686
    7AU     LIG 3784  19.624  22.036   7.818
    7AU     LIG 3785  19.280  21.719   7.902
    7AU    AUSL 3786  22.888  23.274   8.022
    7AU    AUSL 3787  22.485  23.234   7.813
    7AU     AUL 3788  22.635  23.351   8.087
    7AU       S 3789  22.224  23.210   8.180
    7AU     LIG 3790  21.917  23.481   8.453
    7AU     LIG 3791  21.804  23.783   8.807
    7AU     LIG 3792  21.763  24.206   9.008
    7AU     LIG 3793  21.524  24.597   9.156
    7AU     LIG 3794  21.249  24.982   9.272
    7AU     LIG 3795  20.927  25.312   9.431
    7AU       S 3796  22.952  23.694   8.044
    7AU     LIG 3797  23.100  23.874   8.412
    7AU     LIG 3798  23.281  24.248   8.586
    7AU     LIG 3799  23.206  24.625   8.850
    7AU     LIG 3800  23.200  24.830   9.283
    7AU     LIG 3801  23.269  25.232   9.509
    7AU     LIG 3802  23.061  25.606   9.704
    7AU    AUSL 3803  22.788  23.450   7.634
    7AU    AUSL 3804  23.114  23.394   7.343
    7AU     AUL 3805  22.732  23.667   7.460
    7AU       S 3806  22.987  23.724   7.837
    7AU     LIG 3807  22.902  24.183   8.016
    7AU     LIG 3808  23.064  24.558   8.237
    7AU     LIG 3809  22.983  24.993   8.384
    7AU     LIG 3810  22.785  25.416   8.453
    7AU     LIG 3811  22.537  25.809   8.364
    7AU     LIG 3812  22.500  26.286   8.309
    7AU       S 3813  23.161  23.716   7.230
    7AU     LIG 3814  23.500  23.813   6.912
    7AU     LIG 3815  23.688  24.249   6.782
    7AU     LIG 3816  23.963  24.658   6.844
    7AU     LIG 3817  24.052  25.151   6.871
    7AU     LIG 3818  23.887  25.572   6.680
    7AU     LIG 3819  23.647  25.976   6.603
    7AU    AUSL 3820  23.070  23.132   7.672
    7AU    AUSL 3821  23.195  23.026   8.152
    7AU     AUL 3822  23.218  23.318   8.016
    7AU       S 3823  23.508  23.069   8.291
    7AU     LIG 3824  23.693  23.081   8.706
    7AU     LIG 3825  23.914  23.416   8.940
    7AU     LIG 3826  24.256  23.713   9.110
    7AU     LIG 3827  24.480  23.997   9.424
    7AU     LIG 3828  24.526  24.226   9.850
    7AU     LIG 3829  24.474  24.627  10.114
    7AU       S 3830  23.212  23.658   7.720
    7AU     LIG 3831  23.389  24.017   8.009
    7AU     LIG 3832  23.586  24.426   8.196
    7AU     LIG 3833  23.800  24.854   8.299
    7AU     LIG 3834  23.860  25.331   8.338
    7AU     LIG 3835  23.890  25.820   8.341
    7AU     LIG 3836  24.016  26.261   8.542
    7AU    AUSL 3837  22.828  22.012   7.866
    7AU    AUSL 3838  23.242  21.901   7.748
    7AU     AUL 3839  23.014  21.803   8.119
    7AU       S 3840  22.814  21.406   8.017
    7AU     LIG 3841  22.784  21.006   8.212
    7AU     LIG 3842  22.474  20.697   8.328
    7AU     LIG 3843  22.381  20.290   8.504
    7AU     LIG 3844  22.534  19.872   8.620
    7AU     LIG 3845  22.567  19.583   8.984
    7AU     LIG 3846  22.502  19.447   9.439
    7AU       S 3847  23.377  21.669   7.840
    7AU     LIG 3848  23.646  21.269   8.007
    7AU     LIG 3849  23.753  20.929   8.337
    7AU     LIG 3850  23.965  20.562   8.574
    7AU     LIG 3851  24.210  20.159   8.651
    7AU     LIG 3852  24.504  19.808   8.786
    7AU     LIG 3853  24.834  19.456   8.827
    7AU    AUSL 3854  22.527  21.800   7.651
    7AU    AUSL 3855  22.620  22.073   8.223
    7AU     AUL 3856  22.543  21.787   7.996
    7AU       S 3857  22.629  21.350   7.876
    7AU     LIG 3858  22.257  21.206   8.004
    7AU     LIG 3859  22.130  20.781   7.947
    7AU     LIG 3860  22.267  20.342   7.994
    7AU     LIG 3861  22.303  19.908   8.156
    7AU     LIG 3862  22.171  19.535   8.404
    7AU     LIG 3863  22.009  19.092   8.457
    7AU       S 3864  22.310  21.988   8.342
    7AU     LIG 3865  22.032  21.542   8.346
    7AU     LIG 3866  21.671  21.272   8.482
    7AU     LIG 3867  21.388  20.954   8.712
    7AU     LIG 3868  21.128  20.693   9.021
    7AU     LIG 3869  21.000  20.568   9.464
    7AU     LIG 3870  20.879  20.424   9.912
    7AU    AUSL 3871  22.927  21.655   7.642
    7AU    AUSL 3872  22.645  21.741   7.256
    7AU     AUL 3873  22.470  21.571   7.510
    7AU       S 3874  22.719  21.408   7.149
    7AU     LIG 3875  22.315  21.265   7.135
    7AU     LIG 3876  22.161  20.848   7.089
    7AU     LIG 3877  22.203  20.392   6.961
    7AU     LIG 3878  22.250  19.962   6.775
    7AU     LIG 3879  22.094  19.538   6.663
    7AU     LIG 3880  22.006  19.085   6.576
    7AU       S 3881  22.883  21.510   7.746
    7AU     LIG 3882  22.917  21.014   7.679
    7AU     LIG 3883  22.711  20.611   7.873
    7AU     LIG 3884  22.746  20.198   8.146
    7AU     LIG 3885  22.930  19.762   8.294
    7AU     LIG 3886  23.191  19.365   8.449
    7AU     LIG 3887  23.376  18.929   8.598
    7AU    AUSL 3888  22.886  23.252   7.003
    7AU    AUSL 3889  23.183  22.994   7.256
    7AU     AUL 3890  23.231  23.313   7.017
    7AU       S 3891  22.934  23.618   6.840
    7AU     LIG 3892  23.158  23.834   6.516
    7AU     LIG 3893  23.323  24.248   6.398
    7AU     LIG 3894  23.337  24.566   6.037
    7AU     LIG 3895  23.284  24.829   5.630
    7AU     LIG 3896  23.239  25.263   5.440
    7AU     LIG 3897  23.103  25.568   5.105
    7AU       S 3898  23.589  23.029   6.942
    7AU     LIG 3899  23.897  23.463   6.828
    7AU     LIG 3900  24.194  23.639   6.518
    7AU     LIG 3901  24.522  23.926   6.361
    7AU     LIG 3902  24.671  24.364   6.293
    7AU     LIG 3903  24.760  24.743   6.028
    7AU     LIG 3904  25.036  25.109   5.920
    7AU    AUSL 3905  22.744  23.130   7.389
    7AU    AUSL 3906  22.684  22.897   7.043
    7AU     AUL 3907  22.623  23.386   7.106
    7AU       S 3908  22.989  23.699   7.092
    7AU     LIG 3909  23.114  24.148   6.914
    7AU     LIG 3910  23.159  24.607   6.759
    7AU     LIG 3911  22.967  25.069   6.755
    7AU     LIG 3912  22.868  25.529   6.613
    7AU     LIG 3913  22.642  25.950   6.458
    7AU     LIG 3914  22.664  26.431   6.331
    7AU       S 3915  22.551  23.214   6.672
    7AU     LIG 3916  22.473  23.296   6.233
    7AU     LIG 3917  22.185  23.510   5.918
    7AU     LIG 3918  21.967  23.715   5.536
    7AU     LIG 3919  21.885  23.923   5.093
    7AU     LIG 3920  21.724  24.183   4.720
    7AU     LIG 3921  21.475  24.562   4.567
    7AU    AUSL 3922  22.966  21.837   6.985
    7AU    AUSL 3923  22.531  22.132   7.335
    7AU     AUL 3924  22.622  21.807   6.944
    7AU       S 3925  22.189  21.747   7.167
    7AU     LIG 3926  21.884  21.491   7.349
    7AU     LIG 3927  21.564  21.236   7.114
    7AU     LIG 3928  21.233  21.036   6.828
    7AU     LIG 3929  20.933  20.808   6.540
    7AU     LIG 3930  20.628  20.576   6.254
    7AU     LIG 3931  20.418  20.199   6.046
    7AU       S 3932  22.877  21.423   6.953
    7AU     LIG 3933  22.607  21.158   6.723
    7AU     LIG 3934  22.462  20.745   6.681
    7AU     LIG 3935  22.563  20.313   6.574
    7AU     LIG 3936  22.525  19.948   6.286
    7AU     LIG 3937  22.603  19.797   5.834
    7AU     LIG 3938  22.727  19.580   5.434
    7AU    AUSL 3939  22.962  21.979   7.405
    7AU    AUSL 3940  23.082  22.216   7.080
    7AU     AUL 3941  23.156  21.708   7.183
    7AU       S 3942  22.832  21.406   7.259
    7AU     LIG 3943  22.692  20.921   7.206
    7AU     LIG 3944  22.711  20.480   7.054
    7AU     LIG 3945  22.949  20.104   6.872
    7AU     LIG 3946  23.217  19.738   6.722
    7AU     LIG 3947  23.327  19.280   6.632
    7AU     LIG 3948  23.274  18.799   6.528
    7AU       S 3949  23.370  21.793   6.777
    7AU     LIG 3950  23.210  21.448   6.546
    7AU     LIG 3951  23.398  21.103   6.286
    7AU     LIG 3952  23.633  20.748   6.056
    7AU     LIG 3953  23.900  20.505   5.737
    7AU     LIG 3954  24.152  20.336   5.369
    7AU     LIG 3955  24.121  20.119   4.929
    8AU     AUC 3956  19.113  16.915   7.497
    8AU     AUC 3957  19.374  16.914   7.338
    8AU     AUC 3958  19.361  16.901   7.645
    8AU     AUC 3959  18.865  16.928   7.335
    8AU     AUC 3960  18.852  16.942   7.650
    8AU     AUC 3961  18.966  17.187   7.510
    8AU     AUC 3962  19.287  17.157   7.504
    8AU     AUC 3963  18.942  16.676   7.504
    8AU     AUC 3964  19.241  16.643   7.509
    8AU     AUC 3965  19.100  16.747   7.751
    8AU     AUC 3966  19.131  17.072   7.752
    8AU     AUC 3967  19.110  16.762   7.232
    8AU     AUC 3968  19.108  17.058   7.240
    8AU     AUC 3969  19.623  16.908   7.170
    8AU     AUC 3970  19.631  16.909   7.471
    8AU     AUC 3971  19.631  16.887   7.779
    8AU     AUC 3972  18.610  16.922   7.177
    8AU     AUC 3973  18.593  16.947   7.476
    8AU     AUC 3974  18.596  16.975   7.801
    8AU     AUC 3975  18.828  17.450   7.522
    8AU     AUC 3976  19.138  17.437   7.519
    8AU     AUC 3977  19.440  17.426   7.504
    8AU     AUC 3978  18.757  16.429   7.508
    8AU     AUC 3979  19.066  16.391   7.489
    8AU     AUC 3980  19.385  16.378   7.504
    8AU     AUC 3981  19.099  16.588   8.003
    8AU     AUC 3982  19.130  16.892   8.022
    8AU     AUC 3983  19.161  17.212   8.014
    8AU     AUC 3984  19.110  16.584   6.994
    8AU     AUC 3985  19.123  16.901   6.972
    8AU     AUC 3986  19.108  17.216   6.978
    8AU     AUC 3987  19.370  16.718   7.907
    8AU     AUC 3988  19.390  17.058   7.920
    8AU     AUC 3989  19.382  16.749   7.072
    8AU     AUC 3990  19.384  17.061   7.067
    8AU     AUC 3991  18.852  16.792   7.926
    8AU     AUC 3992  18.854  17.097   7.910
    8AU     AUC 3993  18.862  16.757   7.064
    8AU     AUC 3994  18.862  17.074   7.072
    8AU     AUC 3995  19.535  17.176   7.321
    8AU     AUC 3996  19.551  17.136   7.663
    8AU     AUC 3997  18.705  17.197   7.352
    8AU     AUC 3998  18.716  17.223   7.659
    8AU     AUC 3999  19.521  16.637   7.345
    8AU     AUC 4000  19.501  16.611   7.652
    8AU     AUC 4001  18.681  16.670   7.341
    8AU     AUC 4002  18.681  16.702   7.681
    8AU     AUC 4003  18.987  17.340   7.780
    8AU     AUC 4004  19.318  17.320   7.756
    8AU     AUC 4005  18.914  16.504   7.753
    8AU     AUC 4006  19.228  16.477   7.762
    8AU     AUC 4007  18.969  17.334   7.242
    8AU     AUC 4008  19.283  17.318   7.235
    8AU     AUC 4009  18.928  16.511   7.233
    8AU     AUC 4010  19.258  16.492   7.245
    8AU    AUSL 4011  19.628  16.765   8.213
    8AU    AUSL 4012  19.390  16.402   8.120
    8AU     AUL 4013  19.744  16.530   8.478
    8AU       S 4014  19.424  16.287   8.271
    8AU     LIG 4015  19.394  15.881   8.430
    8AU     LIG 4016  19.625  15.550   8.625
    8AU     LIG 4017  19.837  15.194   8.838
    8AU     LIG 4018  20.076  14.871   9.077
    8AU     LIG 4019  20.216  14.592   9.423
    8AU     LIG 4020  20.185  14.427   9.867
    8AU       S 4021  19.549  16.916   8.621
    8AU     LIG 4022  19.705  16.660   8.977
    8AU     LIG 4023  20.010  16.469   9.295
    8AU     LIG 4024  20.252  16.393   9.704
    8AU     LIG 4025  20.625  16.413  10.016
    8AU     LIG 4026  20.928  16.576  10.357
    8AU     LIG 4027  21.243  16.814  10.612
    8AU    AUSL 4028  19.206  16.705   8.351
    8AU    AUSL 4029  19.056  17.121   8.359
    8AU     AUL 4030  19.098  17.046   8.708
    8AU       S 4031  19.287  16.668   8.533
    8AU     LIG 4032  19.407  16.289   8.775
    8AU     LIG 4033  19.592  16.178   9.197
    8AU     LIG 4034  19.752  16.197   9.663
    8AU     LIG 4035  19.794  16.189  10.153
    8AU     LIG 4036  19.852  16.182  10.638
    8AU     LIG 4037  20.006  16.059  11.075
    8AU       S 4038  18.688  16.866   8.680
    8AU     LIG 4039  18.523  16.889   9.108
    8AU     LIG 4040  18.398  16.744   9.529
    8AU     LIG 4041  18.239  16.795   9.952
    8AU     LIG 4042  18.290  17.125  10.290
    8AU     LIG 4043  18.314  17.254  10.737
    8AU     LIG 4044  18.080  17.465  11.093
    8AU    AUSL 4045  19.315  16.993   8.062
    8AU    AUSL 4046  19.749  17.092   7.976
    8AU     AUL 4047  19.800  16.946   8.212
    8AU       S 4048  19.501  17.089   8.525
    8AU     LIG 4049  19.425  17.461   8.746
    8AU     LIG 4050  19.648  17.640   9.139
    8AU     LIG 4051  19.666  17.736   9.624
    8AU     LIG 4052  19.753  17.827  10.092
    8AU     LIG 4053  19.790  17.661  10.537
    8AU     LIG 4054  19.945  17.636  10.984
    8AU       S 4055  20.027  17.348   8.196
    8AU     LIG 4056  20.375  17.509   8.476
    8AU     LIG 4057  20.642  17.661   8.841
    8AU     LIG 4058  20.870  17.750   9.234
    8AU     LIG 4059  21.198  17.643   9.565
    8AU     LIG 4060  21.604  17.760   9.775
    8AU     LIG 4061  21.856  18.158   9.784
    8AU    AUSL 4062  19.648  16.951   6.858
    8AU    AUSL 4063  19.399  17.362   6.822
    8AU     AUL 4064  19.727  17.308   6.446
    8AU       S 4065  19.695  16.984   6.719
    8AU     LIG 4066  19.964  16.903   6.323
    8AU     LIG 4067  20.013  16.711   5.907
    8AU     LIG 4068  20.123  16.549   5.468
    8AU     LIG 4069  20.483  16.465   5.144
    8AU     LIG 4070  20.885  16.497   4.868
    8AU     LIG 4071  21.142  16.584   4.465
    8AU       S 4072  19.374  17.445   6.660
    8AU     LIG 4073  19.704  17.788   6.572
    8AU     LIG 4074  20.031  17.894   6.244
    8AU     LIG 4075  20.325  18.041   5.891
    8AU     LIG 4076  20.493  18.296   5.524
    8AU     LIG 4077  20.575  18.469   5.088
    8AU     LIG 4078  20.683  18.782   4.755
    8AU    AUSL 4079  19.393  16.641   6.676
    8AU    AUSL 4080  19.738  16.565   6.986
    8AU     AUL 4081  19.780  16.570   6.633
    8AU       S 4082  19.844  16.162   6.848
    8AU     LIG 4083  19.957  15.900   6.490
    8AU     LIG 4084  20.196  15.512   6.395
    8AU     LIG 4085  20.479  15.320   6.068
    8AU     LIG 4086  20.746  15.169   5.696
    8AU     LIG 4087  21.121  15.115   5.399
    8AU     LIG 4088  21.443  15.159   5.041
    8AU       S 4089  19.467  16.878   6.433
    8AU     LIG 4090  19.581  16.530   6.169
    8AU     LIG 4091  19.692  16.339   5.749
    8AU     LIG 4092  19.689  16.304   5.281
    8AU     LIG 4093  19.712  16.188   4.820
    8AU     LIG 4094  19.765  15.990   4.389
    8AU     LIG 4095  19.897  15.986   3.938
    8AU    AUSL 4096  19.232  16.990   6.866
    8AU    AUSL 4097  18.978  16.727   6.654
    8AU     AUL 4098  19.188  16.524   6.548
    8AU       S 4099  18.932  16.838   6.305
    8AU     LIG 4100  18.806  16.601   5.950
    8AU     LIG 4101  18.583  16.381   5.622
    8AU     LIG 4102  18.397  16.302   5.212
    8AU     LIG 4103  18.101  16.155   4.868
    8AU     LIG 4104  18.063  15.946   4.434
    8AU     LIG 4105  17.964  15.863   3.966
    8AU       S 4106  19.359  16.987   6.505
    8AU     LIG 4107  19.549  17.013   5.983
    8AU     LIG 4108  19.664  16.814   5.543
    8AU     LIG 4109  19.810  16.764   5.082
    8AU     LIG 4110  19.782  16.884   4.613
    8AU     LIG 4111  19.878  17.158   4.222
    8AU     LIG 4112  19.917  17.355   3.781
    8AU    AUSL 4113  18.658  17.027   8.234
    8AU    AUSL 4114  18.938  17.257   7.985
    8AU     AUL 4115  18.862  17.320   8.375
    8AU       S 4116  18.558  17.051   8.613
    8AU     LIG 4117  18.204  16.763   8.710
    8AU     LIG 4118  18.093  16.576   9.132
    8AU     LIG 4119  17.924  16.530   9.585
    8AU     LIG 4120  17.660  16.387   9.970
    8AU     LIG 4121  17.302  16.404  10.300
    8AU     LIG 4122  17.024  16.484  10.686
    8AU       S 4123  18.438  17.448   8.275
    8AU     LIG 4124  18.511  17.549   8.720
    8AU     LIG 4125  18.422  17.863   9.048
    8AU     LIG 4126  18.130  18.110   9.319
    8AU     LIG 4127  18.036  18.420   9.664
    8AU     LIG 4128  17.904  18.711  10.026
    8AU     LIG 4129  17.593  18.896  10.344
    8AU    AUSL 4130  18.931  16.781   8.049
    8AU    AUSL 4131  18.396  16.785   8.004
    8AU     AUL 4132  18.520  16.785   8.240
    8AU       S 4133  18.195  16.458   8.289
    8AU     LIG 4134  17.804  16.236   8.108
    8AU     LIG 4135  17.472  15.917   8.215
    8AU     LIG 4136  17.311  15.615   8.541
    8AU     LIG 4137  17.137  15.294   8.841
    8AU     LIG 4138  16.816  15.172   9.160
    8AU     LIG 4139  16.452  15.046   9.436
    8AU       S 4140  18.796  16.707   8.589
    8AU     LIG 4141  18.556  16.418   8.892
    8AU     LIG 4142  18.452  16.271   9.346
    8AU     LIG 4143  18.300  16.271   9.808
    8AU     LIG 4144  18.051  16.100  10.186
    8AU     LIG 4145  18.000  15.892  10.622
    8AU     LIG 4146  18.155  15.834  11.075
    8AU    AUSL 4147  18.727  16.879   6.952
    8AU    AUSL 4148  18.848  16.439   6.919
    8AU     AUL 4149  18.690  16.563   6.631
    8AU       S 4150  18.676  16.919   6.323
    8AU     LIG 4151  18.357  16.892   5.990
    8AU     LIG 4152  18.168  16.684   5.599
    8AU     LIG 4153  17.916  16.467   5.264
    8AU     LIG 4154  17.558  16.365   4.975
    8AU     LIG 4155  17.182  16.515   4.715
    8AU     LIG 4156  16.985  16.604   4.291
    8AU       S 4157  18.415  16.165   6.798
    8AU     LIG 4158  18.147  15.790   6.787
    8AU     LIG 4159  17.817  15.545   6.569
    8AU     LIG 4160  17.542  15.302   6.275
    8AU     LIG 4161  17.252  15.075   5.964
    8AU     LIG 4162  17.205  14.851   5.541
    8AU     LIG 4163  17.239  14.667   5.098
    8AU    AUSL 4164  18.909  17.158   6.660
    8AU    AUSL 4165  18.510  17.236   6.919
    8AU     AUL 4166  18.484  16.990   6.726
    8AU       S 4167  18.526  17.459   6.686
    8AU     LIG 4168  18.306  17.362   6.276
    8AU     LIG 4169  18.011  17.589   5.951
    8AU     LIG 4170  17.666  17.657   5.593
    8AU     LIG 4171  17.332  17.869   5.288
    8AU     LIG 4172  17.043  18.149   5.015
    8AU     LIG 4173  16.607  18.348   4.953
    8AU       S 4174  18.888  17.092   6.467
    8AU     LIG 4175  18.816  17.166   5.936
    8AU     LIG 4176  18.639  16.910   5.558
    8AU     LIG 4177  18.415  16.823   5.140
    8AU     LIG 4178  18.399  16.994   4.673
    8AU     LIG 4179  18.352  17.236   4.238
    8AU     LIG 4180  18.224  17.411   3.792
    8AU    AUSL 4181  19.770  17.507   7.428
    8AU    AUSL 4182  19.768  17.294   7.058
    8AU     AUL 4183  19.864  17.748   7.255
    8AU       S 4184  19.871  17.432   6.866
    8AU     LIG 4185  20.196  17.463   6.520
    8AU     LIG 4186  20.503  17.645   6.189
    8AU     LIG 4187  20.815  17.698   5.815
    8AU     LIG 4188  21.227  17.651   5.538
    8AU     LIG 4189  21.619  17.739   5.257
    8AU     LIG 4190  21.872  18.098   5.082
    8AU       S 4191  20.181  17.420   7.297
    8AU     LIG 4192  20.539  17.689   7.416
    8AU     LIG 4193  20.986  17.624   7.493
    8AU     LIG 4194  21.457  17.604   7.528
    8AU     LIG 4195  21.911  17.747   7.487
    8AU     LIG 4196  22.226  18.095   7.580
    8AU     LIG 4197  22.543  18.426   7.453
    8AU    AUSL 4198  19.955  16.961   7.226
    8AU    AUSL 4199  19.946  16.776   7.691
    8AU     AUL 4200  20.184  16.831   7.477
    8AU       S 4201  20.224  17.130   7.106
    8AU     LIG 4202  20.717  17.260   7.165
    8AU     LIG 4203  21.213  17.230   7.242
    8AU     LIG 4204  21.705  17.250   7.242
    8AU     LIG 4205  22.119  17.268   7.016
    8AU     LIG 4206  22.564  17.332   6.915
    8AU     LIG 4207  22.941  17.593   7.014
    8AU       S 4208  20.260  16.373   7.614
    8AU     LIG 4209  20.651  16.128   7.672
    8AU     LIG 4210  21.068  15.899   7.699
    8AU     LIG 4211  21.510  15.698   7.699
    8AU     LIG 4212  22.004  15.712   7.725
    8AU     LIG 4213  22.478  15.810   7.773
    8AU     LIG 4214  22.870  15.941   8.025
    8AU    AUSL 4215  19.743  17.112   7.561
    8AU    AUSL 4216  19.692  17.484   7.831
    8AU     AUL 4217  19.983  17.289   7.719
    8AU       S 4218  19.906  17.530   8.105
    8AU     LIG 4219  20.000  17.856   8.412
    8AU     LIG 4220  20.396  18.030   8.583
    8AU     LIG 4221  20.758  18.190   8.818
    8AU     LIG 4222  20.842  18.606   9.006
    8AU     LIG 4223  21.097  18.996   9.005
    8AU     LIG 4224  21.385  19.320   9.175
    8AU       S 4225  20.237  17.297   7.343
    8AU     LIG 4226  20.568  17.216   7.653
    8AU     LIG 4227  21.050  17.169   7.728
    8AU     LIG 4228  21.539  17.130   7.714
    8AU     LIG 4229  21.996  17.305   7.734
    8AU     LIG 4230  22.453  17.441   7.833
    8AU     LIG 4231  22.866  17.221   7.950
    8AU    AUSL 4232  18.474  17.469   7.530
    8AU    AUSL 4233  18.528  17.219   7.890
    8AU     AUL 4234  18.273  17.579   7.785
    8AU       S 4235  18.274  17.261   8.134
    8AU     LIG 4236  18.077  17.294   8.576
    8AU     LIG 4237  17.987  17.609   8.937
    8AU     LIG 4238  17.736  17.754   9.339
    8AU     LIG 4239  17.339  17.785   9.642
    8AU     LIG 4240  16.937  17.938   9.873
    8AU     LIG 4241  16.636  18.300  10.019
    8AU       S 4242  17.921  17.429   7.527
    8AU     LIG 4243  17.855  17.894   7.631
    8AU     LIG 4244  17.623  18.315   7.546
    8AU     LIG 4245  17.269  18.653   7.532
    8AU     LIG 4246  16.840  18.878   7.572
    8AU     LIG 4247  16.366  18.945   7.580
    8AU     LIG 4248  15.988  19.217   7.750
    8AU    AUSL 4249  18.548  17.126   7.312
    8AU    AUSL 4250  18.657  17.576   7.167
    8AU     AUL 4251  18.389  17.476   7.157
    8AU       S 4252  18.005  17.477   7.389
    8AU     LIG 4253  17.620  17.471   7.104
    8AU     LIG 4254  17.214  17.560   6.841
    8AU     LIG 4255  16.770  17.648   6.653
    8AU     LIG 4256  16.366  17.861   6.512
    8AU     LIG 4257  15.903  17.819   6.605
    8AU     LIG 4258  15.556  18.118   6.708
    8AU       S 4259  18.536  17.738   6.784
    8AU     LIG 4260  18.345  17.876   6.383
    8AU     LIG 4261  18.209  18.221   6.079
    8AU     LIG 4262  18.050  18.685   6.042
    8AU     LIG 4263  17.801  19.103   6.113
    8AU     LIG 4264  17.371  19.268   6.034
    8AU     LIG 4265  17.145  19.405   5.667
    8AU    AUSL 4266  18.245  17.101   7.623
    8AU    AUSL 4267  18.278  16.810   7.307
    8AU     AUL 4268  18.154  17.078   7.228
    8AU       S 4269  17.957  16.671   7.489
    8AU     LIG 4270  17.553  16.541   7.745
    8AU     LIG 4271  17.063  16.466   7.796
    8AU     LIG 4272  16.592  16.333   7.758
    8AU     LIG 4273  16.337  16.111   7.412
    8AU     LIG 4274  15.893  15.949   7.296
    8AU     LIG 4275  15.468  16.000   7.116
    8AU       S 4276  18.051  17.153   7.705
    8AU     LIG 4277  17.825  17.464   8.021
    8AU     LIG 4278  17.384  17.627   8.157
    8AU     LIG 4279  16.890  17.700   8.188
    8AU     LIG 4280  16.397  17.771   8.156
    8AU     LIG 4281  15.941  17.924   8.252
    8AU     LIG 4282  15.476  17.877   8.396
    8AU    AUSL 4283  19.804  16.403   7.549
    8AU    AUSL 4284  19.566  16.658   7.820
    8AU     AUL 4285  19.983  16.607   7.911
    8AU       S 4286  19.924  16.132   7.563
    8AU     LIG 4287  20.222  15.843   7.754
    8AU     LIG 4288  20.630  15.606   7.627
    8AU     LIG 4289  21.074  15.426   7.498
    8AU     LIG 4290  21.528  15.228   7.459
    8AU     LIG 4291  21.886  14.876   7.412
    8AU     LIG 4292  22.327  14.748   7.252
    8AU       S 4293  19.709  16.306   8.102
    8AU     LIG 4294  19.858  16.052   8.533
    8AU     LIG 4295  20.125  15.660   8.618
    8AU     LIG 4296  20.341  15.272   8.803
    8AU     LIG 4297  20.659  15.142   9.133
    8AU     LIG 4298  21.073  15.193   9.386
    8AU     LIG 4299  21.448  15.197   9.684
    8AU    AUSL 4300  19.642  16.731   7.354
    8AU    AUSL 4301  19.568  16.260   7.233
    8AU     AUL 4302  19.936  16.485   7.195
    8AU       S 4303  19.955  16.278   7.589
    8AU     LIG 4304  20.316  16.024   7.271
    8AU     LIG 4305  20.807  15.890   7.234
    8AU     LIG 4306  21.300  15.812   7.236
    8AU     LIG 4307  21.796  15.777   7.262
    8AU     LIG 4308  22.302  15.843   7.266
    8AU     LIG 4309  22.694  15.832   6.960
    8AU       S 4310  19.827  16.040   7.044
    8AU     LIG 4311  19.874  15.577   6.874
    8AU     LIG 4312  19.964  15.123   6.692
    8AU     LIG 4313  20.153  14.726   6.498
    8AU     LIG 4314  20.333  14.329   6.302
    8AU     LIG 4315  20.673  13.990   6.240
    8AU     LIG 4316  21.119  13.829   6.140
    8AU    AUSL 4317  18.395  16.434   7.499
    8AU    AUSL 4318  18.466  16.569   7.035
    8AU     AUL 4319  18.184  16.621   7.058
    8AU       S 4320  18.408  16.225   7.053
    8AU     LIG 4321  17.925  16.188   7.016
    8AU     LIG 4322  17.609  15.992   6.749
    8AU     LIG 4323  17.374  15.787   6.403
    8AU     LIG 4324  17.073  15.500   6.206
    8AU     LIG 4325  16.762  15.318   5.923
    8AU     LIG 4326  16.544  15.347   5.518
    8AU       S 4327  18.083  16.407   7.448
    8AU     LIG 4328  17.770  16.115   7.554
    8AU     LIG 4329  17.340  16.035   7.718
    8AU     LIG 4330  16.885  15.930   7.885
    8AU     LIG 4331  16.380  15.868   7.860
    8AU     LIG 4332  15.975  15.631   7.701
    8AU     LIG 4333  15.706  15.223   7.765
    8AU    AUSL 4334  18.551  16.821   7.628
    8AU    AUSL 4335  18.641  16.477   7.860
    8AU     AUL 4336  18.288  16.538   7.833
    8AU       S 4337  18.355  16.338   8.249
    8AU     LIG 4338  18.195  16.041   7.867
    8AU     LIG 4339  17.832  15.716   7.906
    8AU     LIG 4340  17.523  15.381   8.137
    8AU     LIG 4341  17.256  15.052   8.404
    8AU     LIG 4342  17.032  14.677   8.649
    8AU     LIG 4343  16.812  14.223   8.732
    8AU       S 4344  18.020  16.708   7.500
    8AU     LIG 4345  17.584  16.499   7.241
    8AU     LIG 4346  17.123  16.581   7.281
    8AU     LIG 4347  16.639  16.585   7.322
    8AU     LIG 4348  16.189  16.583   7.526
    8AU     LIG 4349  15.914  16.247   7.717
    8AU     LIG 4350  15.481  16.058   7.644
    8AU    AUSL 4351  19.136  17.613   8.038
    8AU    AUSL 4352  18.731  17.586   7.834
    8AU     AUL 4353  18.890  17.701   8.107
    8AU       S 4354  18.477  17.561   8.199
    8AU     LIG 4355  18.142  17.807   8.460
    8AU     LIG 4356  18.041  18.121   8.803
    8AU     LIG 4357  17.941  18.525   9.047
    8AU     LIG 4358  17.747  18.972   9.088
    8AU     LIG 4359  17.419  19.325   9.108
    8AU     LIG 4360  17.211  19.705   9.325
    8AU       S 4361  19.216  18.046   8.061
    8AU     LIG 4362  19.390  18.363   8.366
    8AU     LIG 4363  19.642  18.696   8.586
    8AU     LIG 4364  19.626  19.089   8.829
    8AU     LIG 4365  19.567  19.258   9.270
    8AU     LIG 4366  19.385  19.531   9.620
    8AU     LIG 4367  19.087  19.883   9.748
    8AU    AUSL 4368  19.035  17.803   7.657
    8AU    AUSL 4369  19.350  17.752   7.356
    8AU     AUL 4370  18.945  18.012   7.487
    8AU       S 4371  19.260  18.040   7.821
    8AU     LIG 4372  19.201  18.517   7.901
    8AU     LIG 4373  19.351  18.860   8.185
    8AU     LIG 4374  19.292  19.266   8.402
    8AU     LIG 4375  18.990  19.639   8.357
    8AU     LIG 4376  18.878  20.090   8.416
    8AU     LIG 4377  18.773  20.380   8.753
    8AU       S 4378  19.391  18.065   7.266
    8AU     LIG 4379  19.728  18.161   6.943
    8AU     LIG 4380  19.863  18.609   6.813
    8AU     LIG 4381  19.909  19.080   6.888
    8AU     LIG 4382  20.093  19.503   6.721
    8AU     LIG 4383  20.179  19.941   6.505
    8AU     LIG 4384  20.134  20.414   6.416
    8AU    AUSL 4385  19.316  17.482   7.681
    8AU    AUSL 4386  19.445  17.362   8.160
    8AU     AUL 4387  19.457  17.652   8.045
    8AU       S 4388  19.761  17.408   8.303
    8AU     LIG 4389  19.928  17.426   8.711
    8AU     LIG 4390  20.143  17.757   8.945
    8AU     LIG 4391  20.430  18.056   9.180
    8AU     LIG 4392  20.533  18.472   9.423
    8AU     LIG 4393  20.553  18.627   9.879
    8AU     LIG 4394  20.606  18.933  10.237
    8AU       S 4395  19.483  17.978   7.738
    8AU     LIG 4396  19.682  18.326   7.946
    8AU     LIG 4397  19.838  18.718   8.107
    8AU     LIG 4398  19.795  19.121   8.333
    8AU     LIG 4399  20.111  19.442   8.423
    8AU     LIG 4400  20.250  19.899   8.510
    8AU     LIG 4401  20.225  20.379   8.565
    8AU    AUSL 4402  19.066  16.326   7.866
    8AU    AUSL 4403  19.472  16.241   7.728
    8AU     AUL 4404  19.426  15.994   7.943
    8AU       S 4405  19.007  15.949   8.103
    8AU     LIG 4406  19.093  15.495   8.238
    8AU     LIG 4407  18.815  15.146   8.364
    8AU     LIG 4408  18.763  14.691   8.353
    8AU     LIG 4409  18.935  14.321   8.590
    8AU     LIG 4410  19.051  14.048   8.971
    8AU     LIG 4411  18.919  13.863   9.394
    8AU       S 4412  19.821  16.184   8.053
    8AU     LIG 4413  19.833  15.710   8.154
    8AU     LIG 4414  19.964  15.259   8.338
    8AU     LIG 4415  20.126  14.845   8.556
    8AU     LIG 4416  20.392  14.542   8.838
    8AU     LIG 4417  20.654  14.142   8.971
    8AU     LIG 4418  21.040  13.860   8.946
    8AU    AUSL 4419  18.754  16.158   7.632
    8AU    AUSL 4420  18.859  16.414   8.218
    8AU     AUL 4421  18.655  16.179   7.941
    8AU       S 4422  18.853  15.768   7.905
    8AU     LIG 4423  18.640  15.366   7.931
    8AU     LIG 4424  18.426  14.949   8.033
    8AU     LIG 4425  18.095  14.586   8.042
    8AU     LIG 4426  18.006  14.104   8.006
    8AU     LIG 4427  18.115  13.658   8.178
    8AU     LIG 4428  18.308  13.283   8.421
    8AU       S 4429  18.565  16.331   8.364
    8AU     LIG 4430  18.265  15.883   8.363
    8AU     LIG 4431  17.867  15.622   8.428
    8AU     LIG 4432  17.658  15.259   8.666
    8AU     LIG 4433  17.560  15.225   9.127
    8AU     LIG 4434  17.547  15.190   9.605
    8AU     LIG 4435  17.558  14.865   9.956
    8AU    AUSL 4436  19.150  16.001   7.594
    8AU    AUSL 4437  18.870  16.110   7.235
    8AU     AUL 4438  18.680  15.922   7.489
    8AU       S 4439  18.796  15.756   7.064
    8AU     LIG 4440  18.476  15.462   7.045
    8AU     LIG 4441  18.307  15.012   7.052
    8AU     LIG 4442  18.085  14.570   7.055
    8AU     LIG 4443  17.875  14.125   6.964
    8AU     LIG 4444  17.942  13.744   6.675
    8AU     LIG 4445  18.116  13.299   6.600
    8AU       S 4446  19.034  15.843   7.764
    8AU     LIG 4447  19.110  15.375   7.720
    8AU     LIG 4448  19.039  14.951   7.947
    8AU     LIG 4449  19.219  14.539   8.156
    8AU     LIG 4450  19.317  14.101   8.331
    8AU     LIG 4451  19.365  13.715   8.614
    8AU     LIG 4452  19.447  13.247   8.495
    8AU    AUSL 4453  19.124  17.616   7.013
    8AU    AUSL 4454  19.420  17.353   7.262
    8AU     AUL 4455  19.470  17.677   7.026
    8AU       S 4456  19.179  18.000   6.873
    8AU     LIG 4457  19.408  18.201   6.527
    8AU     LIG 4458  19.641  18.566   6.347
    8AU     LIG 4459  19.789  18.796   5.952
    8AU     LIG 4460  19.721  19.123   5.607
    8AU     LIG 4461  19.547  19.529   5.416
    8AU     LIG 4462  19.244  19.845   5.254
    8AU       S 4463  19.829  17.392   6.953
    8AU     LIG 4464  20.146  17.824   6.871
    8AU     LIG 4465  20.417  18.006   6.557
    8AU     LIG 4466  20.633  18.257   6.240
    8AU     LIG 4467  20.881  18.621   6.115
    8AU     LIG 4468  21.099  19.028   6.015
    8AU     LIG 4469  21.385  19.275   5.719
    8AU    AUSL 4470  18.984  17.492   7.402
    8AU    AUSL 4471  18.918  17.264   7.053
    8AU     AUL 4472  18.865  17.749   7.115
    8AU       S 4473  19.231  18.057   7.140
    8AU     LIG 4474  19.348  18.500   6.938
    8AU     LIG 4475  19.421  18.937   6.739
    8AU     LIG 4476  19.220  19.398   6.740
    8AU     LIG 4477  18.901  19.791   6.752
    8AU     LIG 4478  18.784  20.240   6.592
    8AU     LIG 4479  18.591  20.602   6.333
    8AU       S 4480  18.780  17.591   6.683
    8AU     LIG 4481  18.756  17.592   6.233
    8AU     LIG 4482  18.484  17.799   5.886
    8AU     LIG 4483  18.313  18.122   5.550
    8AU     LIG 4484  18.216  18.391   5.135
    8AU     LIG 4485  17.991  18.725   4.845
    8AU     LIG 4486  17.900  19.133   4.592
    8AU    AUSL 4487  19.192  16.207   6.967
    8AU    AUSL 4488  18.763  16.499   7.326
    8AU     AUL 4489  18.856  16.188   6.918
    8AU       S 4490  18.413  16.117   7.151
    8AU     LIG 4491  18.115  15.812   7.303
    8AU     LIG 4492  17.715  15.625   7.084
    8AU     LIG 4493  17.356  15.432   6.773
    8AU     LIG 4494  17.146  15.067   6.505
    8AU     LIG 4495  16.862  14.824   6.208
    8AU     LIG 4496  16.646  14.459   5.979
    8AU       S 4497  19.075  15.786   6.956
    8AU     LIG 4498  18.978  15.459   6.694
    8AU     LIG 4499  18.710  15.106   6.723
    8AU     LIG 4500  18.769  14.660   6.617
    8AU     LIG 4501  18.831  14.382   6.232
    8AU     LIG 4502  18.857  14.219   5.776
    8AU     LIG 4503  18.721  13.977   5.389
    8AU    AUSL 4504  19.194  16.343   7.390
    8AU    AUSL 4505  19.313  16.582   7.067
    8AU     AUL 4506  19.381  16.070   7.154
    8AU       S 4507  19.018  15.800   7.197
    8AU     LIG 4508  18.983  15.314   7.199
    8AU     LIG 4509  19.064  14.885   7.020
    8AU     LIG 4510  19.219  14.472   6.857
    8AU     LIG 4511  19.259  14.017   6.780
    8AU     LIG 4512  19.296  13.550   6.826
    8AU     LIG 4513  19.505  13.203   6.603
    8AU       S 4514  19.590  16.170   6.748
    8AU     LIG 4515  19.467  15.762   6.618
    8AU     LIG 4516  19.687  15.417   6.374
    8AU     LIG 4517  19.991  15.097   6.153
    8AU     LIG 4518  20.263  14.953   5.780
    8AU     LIG 4519  20.483  14.844   5.368
    8AU     LIG 4520  20.448  14.628   4.940
    9AU     AUC 4521  16.660  40.334   7.500
    9AU     AUC 4522  16.922  40.332   7.341
    9AU     AUC 4523  16.908  40.326   7.650
    9AU     AUC 4524  16.413  40.341   7.337
    9AU     AUC 4525  16.399  40.363   7.652
    9AU     AUC 4526  16.512  40.605   7.507
    9AU     AUC 4527  16.832  40.578   7.503
    9AU     AUC 4528  16.491  40.094   7.511
    9AU     AUC 4529  16.791  40.066   7.517
    9AU     AUC 4530  16.647  40.175   7.757
    9AU     AUC 4531  16.675  40.498   7.752
    9AU     AUC 4532  16.660  40.174   7.240
    9AU     AUC 4533  16.657  40.471   7.240
    9AU     AUC 4534  17.172  40.326   7.176
    9AU     AUC 4535  17.181  40.332   7.477
    9AU     AUC 4536  17.179  40.317   7.786
    9AU     AUC 4537  16.161  40.329   7.178
    9AU     AUC 4538  16.141  40.362   7.474
    9AU     AUC 4539  16.142  40.400   7.800
    9AU     AUC 4540  16.372  40.867   7.513
    9AU     AUC 4541  16.682  40.857   7.510
    9AU     AUC 4542  16.985  40.846   7.498
    9AU     AUC 4543  16.305  39.845   7.521
    9AU     AUC 4544  16.619  39.810   7.505
    9AU     AUC 4545  16.940  39.801   7.520
    9AU     AUC 4546  16.642  40.024   8.012
    9AU     AUC 4547  16.674  40.323   8.025
    9AU     AUC 4548  16.703  40.644   8.012
    9AU     AUC 4549  16.661  39.990   7.006
    9AU     AUC 4550  16.673  40.307   6.976
    9AU     AUC 4551  16.657  40.623   6.975
    9AU     AUC 4552  16.917  40.151   7.916
    9AU     AUC 4553  16.933  40.490   7.923
    9AU     AUC 4554  16.933  40.159   7.080
    9AU     AUC 4555  16.932  40.471   7.068
    9AU     AUC 4556  16.396  40.221   7.931
    9AU     AUC 4557  16.398  40.525   7.909
    9AU     AUC 4558  16.413  40.163   7.070
    9AU     AUC 4559  16.410  40.480   7.071
    9AU     AUC 4560  17.083  40.595   7.321
    9AU     AUC 4561  17.095  40.563   7.665
    9AU     AUC 4562  16.252  40.610   7.347
    9AU     AUC 4563  16.260  40.643   7.653
    9AU     AUC 4564  17.073  40.056   7.357
    9AU     AUC 4565  17.050  40.038   7.662
    9AU     AUC 4566  16.232  40.082   7.348
    9AU     AUC 4567  16.228  40.121   7.687
    9AU     AUC 4568  16.530  40.764   7.773
    9AU     AUC 4569  16.861  40.747   7.751
    9AU     AUC 4570  16.460  39.930   7.765
    9AU     AUC 4571  16.780  39.909   7.771
    9AU     AUC 4572  16.517  40.747   7.234
    9AU     AUC 4573  16.829  40.732   7.230
    9AU     AUC 4574  16.481  39.922   7.246
    9AU     AUC 4575  16.811  39.905   7.261
    9AU    AUSL 4576  17.171  40.200   8.220
    9AU    AUSL 4577  16.942  39.835   8.128
    9AU     AUL 4578  17.230  39.880   8.366
    9AU       S 4579  17.249  39.470   8.116
    9AU     LIG 4580  17.048  39.129   8.328
    9AU     LIG 4581  17.117  38.874   8.727
    9AU     LIG 4582  17.159  38.545   9.089
    9AU     LIG 4583  17.276  38.172   9.388
    9AU     LIG 4584  17.650  37.989   9.613
    9AU     LIG 4585  17.863  37.816  10.002
    9AU       S 4586  17.122  40.257   8.630
    9AU     LIG 4587  17.313  40.084   9.024
    9AU     LIG 4588  17.569  39.877   9.376
    9AU     LIG 4589  17.924  39.781   9.689
    9AU     LIG 4590  18.293  39.762  10.011
    9AU     LIG 4591  18.433  39.806  10.465
    9AU     LIG 4592  18.638  39.857  10.887
    9AU    AUSL 4593  16.750  40.135   8.353
    9AU    AUSL 4594  16.599  40.553   8.360
    9AU     AUL 4595  16.665  40.458   8.706
    9AU       S 4596  16.826  40.068   8.532
    9AU     LIG 4597  16.979  39.749   8.812
    9AU     LIG 4598  17.111  39.643   9.263
    9AU     LIG 4599  17.309  39.539   9.688
    9AU     LIG 4600  17.342  39.445  10.147
    9AU     LIG 4601  17.283  39.471  10.611
    9AU     LIG 4602  17.373  39.719  10.992
    9AU       S 4603  16.228  40.355   8.689
    9AU     LIG 4604  16.068  40.340   9.103
    9AU     LIG 4605  16.049  40.128   9.510
    9AU     LIG 4606  15.923  40.164   9.964
    9AU     LIG 4607  15.936  40.456  10.357
    9AU     LIG 4608  15.831  40.760  10.723
    9AU     LIG 4609  15.564  40.894  11.098
    9AU    AUSL 4610  16.860  40.426   8.065
    9AU    AUSL 4611  17.294  40.530   7.988
    9AU     AUL 4612  17.353  40.369   8.219
    9AU       S 4613  17.060  40.529   8.527
    9AU     LIG 4614  17.078  40.784   8.906
    9AU     LIG 4615  17.046  40.917   9.381
    9AU     LIG 4616  17.054  41.134   9.821
    9AU     LIG 4617  17.200  41.226  10.275
    9AU     LIG 4618  17.230  41.231  10.758
    9AU     LIG 4619  17.487  41.057  11.124
    9AU       S 4620  17.566  40.777   8.190
    9AU     LIG 4621  17.993  40.853   8.379
    9AU     LIG 4622  18.396  40.934   8.614
    9AU     LIG 4623  18.479  41.026   9.045
    9AU     LIG 4624  18.712  41.367   9.242
    9AU     LIG 4625  18.891  41.595   9.613
    9AU     LIG 4626  19.156  41.631  10.023
    9AU    AUSL 4627  17.199  40.356   6.864
    9AU    AUSL 4628  16.945  40.768   6.818
    9AU     AUL 4629  17.269  40.695   6.431
    9AU       S 4630  17.256  40.383   6.724
    9AU     LIG 4631  17.509  40.285   6.330
    9AU     LIG 4632  17.548  40.137   5.900
    9AU     LIG 4633  17.661  39.988   5.464
    9AU     LIG 4634  18.039  39.880   5.168
    9AU     LIG 4635  18.423  39.817   4.876
    9AU     LIG 4636  18.635  39.882   4.451
    9AU       S 4637  16.968  40.845   6.700
    9AU     LIG 4638  17.264  41.199   6.572
    9AU     LIG 4639  17.680  41.186   6.317
    9AU     LIG 4640  18.005  41.286   5.943
    9AU     LIG 4641  18.096  41.528   5.511
    9AU     LIG 4642  18.058  41.798   5.100
    9AU     LIG 4643  18.201  42.169   4.831
    9AU    AUSL 4644  16.943  40.042   6.689
    9AU    AUSL 4645  17.288  39.973   7.000
    9AU     AUL 4646  17.307  39.961   6.644
    9AU       S 4647  17.417  39.568   6.881
    9AU     LIG 4648  17.673  39.236   6.706
    9AU     LIG 4649  17.801  38.958   6.333
    9AU     LIG 4650  18.131  38.707   6.146
    9AU     LIG 4651  18.403  38.513   5.829
    9AU     LIG 4652  18.760  38.596   5.518
    9AU     LIG 4653  19.210  38.635   5.354
    9AU       S 4654  17.010  40.279   6.440
    9AU     LIG 4655  17.103  39.966   6.144
    9AU     LIG 4656  17.226  39.771   5.725
    9AU     LIG 4657  17.272  39.698   5.260
    9AU     LIG 4658  17.242  39.461   4.847
    9AU     LIG 4659  17.253  39.354   4.394
    9AU     LIG 4660  17.472  39.351   3.982
    9AU    AUSL 4661  16.783  40.394   6.867
    9AU    AUSL 4662  16.528  40.124   6.663
    9AU     AUL 4663  16.743  39.918   6.562
    9AU       S 4664  16.485  40.221   6.315
    9AU     LIG 4665  16.461  39.980   5.950
    9AU     LIG 4666  16.217  39.732   5.630
    9AU     LIG 4667  15.941  39.533   5.292
    9AU     LIG 4668  15.733  39.341   4.904
    9AU     LIG 4669  15.604  39.380   4.438
    9AU     LIG 4670  15.514  39.457   3.973
    9AU       S 4671  16.904  40.387   6.519
    9AU     LIG 4672  17.017  40.460   5.999
    9AU     LIG 4673  17.165  40.263   5.582
    9AU     LIG 4674  17.309  40.216   5.130
    9AU     LIG 4675  17.377  40.467   4.722
    9AU     LIG 4676  17.486  40.738   4.338
    9AU     LIG 4677  17.606  40.859   3.889
    9AU    AUSL 4678  16.199  40.469   8.236
    9AU    AUSL 4679  16.481  40.687   7.985
    9AU     AUL 4680  16.413  40.757   8.382
    9AU       S 4681  16.080  40.494   8.599
    9AU     LIG 4682  15.796  40.121   8.701
    9AU     LIG 4683  15.697  39.965   9.139
    9AU     LIG 4684  15.598  39.891   9.601
    9AU     LIG 4685  15.246  39.859   9.924
    9AU     LIG 4686  14.880  40.006  10.194
    9AU     LIG 4687  14.625  40.032  10.594
    9AU       S 4688  15.981  40.876   8.267
    9AU     LIG 4689  16.064  40.979   8.714
    9AU     LIG 4690  15.999  41.300   9.013
    9AU     LIG 4691  15.768  41.567   9.293
    9AU     LIG 4692  15.498  41.749   9.620
    9AU     LIG 4693  15.272  41.888  10.012
    9AU     LIG 4694  15.106  42.257  10.250
    9AU    AUSL 4695  16.469  40.215   8.059
    9AU    AUSL 4696  15.951  40.212   8.011
    9AU     AUL 4697  16.063  40.203   8.247
    9AU       S 4698  15.779  39.838   8.247
    9AU     LIG 4699  15.402  39.612   8.111
    9AU     LIG 4700  15.129  39.300   8.318
    9AU     LIG 4701  14.747  39.068   8.490
    9AU     LIG 4702  14.487  38.752   8.750
    9AU     LIG 4703  14.340  38.571   9.150
    9AU     LIG 4704  13.985  38.669   9.456
    9AU       S 4705  16.335  40.144   8.596
    9AU     LIG 4706  16.177  39.859   8.949
    9AU     LIG 4707  16.022  39.630   9.362
    9AU     LIG 4708  15.842  39.458   9.778
    9AU     LIG 4709  15.765  39.309  10.234
    9AU     LIG 4710  15.609  39.270  10.698
    9AU     LIG 4711  15.517  39.248  11.172
    9AU    AUSL 4712  16.273  40.279   6.957
    9AU    AUSL 4713  16.404  39.841   6.936
    9AU     AUL 4714  16.243  39.954   6.645
    9AU       S 4715  16.228  40.300   6.325
    9AU     LIG 4716  15.972  40.157   5.966
    9AU     LIG 4717  15.780  39.985   5.556
    9AU     LIG 4718  15.465  39.762   5.267
    9AU     LIG 4719  15.078  39.831   4.991
    9AU     LIG 4720  14.789  40.049   4.680
    9AU     LIG 4721  14.561  40.168   4.277
    9AU       S 4722  15.969  39.550   6.821
    9AU     LIG 4723  15.710  39.137   6.777
    9AU     LIG 4724  15.396  38.836   6.519
    9AU     LIG 4725  15.167  38.761   6.080
    9AU     LIG 4726  14.819  38.751   5.740
    9AU     LIG 4727  14.595  38.512   5.396
    9AU     LIG 4728  14.636  38.235   5.018
    9AU    AUSL 4729  16.455  40.553   6.658
    9AU    AUSL 4730  16.061  40.637   6.911
    9AU     AUL 4731  16.030  40.383   6.727
    9AU       S 4732  16.068  40.855   6.669
    9AU     LIG 4733  15.773  40.985   6.292
    9AU     LIG 4734  15.528  41.225   5.925
    9AU     LIG 4735  15.332  41.389   5.500
    9AU     LIG 4736  15.023  41.561   5.163
    9AU     LIG 4737  14.590  41.557   4.953
    9AU     LIG 4738  14.190  41.808   4.909
    9AU       S 4739  16.432  40.458   6.476
    9AU     LIG 4740  16.421  40.528   5.938
    9AU     LIG 4741  16.253  40.260   5.551
    9AU     LIG 4742  16.059  40.161   5.118
    9AU     LIG 4743  16.043  40.335   4.647
    9AU     LIG 4744  16.011  40.556   4.200
    9AU     LIG 4745  15.812  40.745   3.794
    9AU    AUSL 4746  17.324  40.917   7.420
    9AU    AUSL 4747  17.313  40.708   7.049
    9AU     AUL 4748  17.450  41.158   7.228
    9AU       S 4749  17.416  40.835   6.853
    9AU     LIG 4750  17.756  40.700   6.573
    9AU     LIG 4751  18.080  40.849   6.243
    9AU     LIG 4752  18.499  40.979   6.041
    9AU     LIG 4753  18.861  41.249   5.904
    9AU     LIG 4754  19.195  41.492   5.699
    9AU     LIG 4755  19.439  41.662   5.332
    9AU       S 4756  17.740  40.810   7.288
    9AU     LIG 4757  18.110  41.100   7.269
    9AU     LIG 4758  18.567  41.072   7.207
    9AU     LIG 4759  18.944  41.291   7.394
    9AU     LIG 4760  19.318  41.476   7.578
    9AU     LIG 4761  19.697  41.686   7.453
    9AU     LIG 4762  19.981  42.046   7.545
    9AU    AUSL 4763  17.504  40.391   7.241
    9AU    AUSL 4764  17.497  40.204   7.714
    9AU     AUL 4765  17.720  40.238   7.492
    9AU       S 4766  17.755  40.529   7.114
    9AU     LIG 4767  18.193  40.669   7.004
    9AU     LIG 4768  18.654  40.567   7.131
    9AU     LIG 4769  19.129  40.445   7.125
    9AU     LIG 4770  19.568  40.440   6.962
    9AU     LIG 4771  19.970  40.625   6.782
    9AU     LIG 4772  20.097  41.056   6.738
    9AU       S 4773  17.818  39.801   7.659
    9AU     LIG 4774  18.187  39.474   7.679
    9AU     LIG 4775  18.547  39.128   7.677
    9AU     LIG 4776  18.989  38.938   7.728
    9AU     LIG 4777  19.387  39.029   7.978
    9AU     LIG 4778  19.836  39.062   8.091
    9AU     LIG 4779  20.274  39.143   7.944
    9AU    AUSL 4780  17.284  40.531   7.574
    9AU    AUSL 4781  17.232  40.914   7.822
    9AU     AUL 4782  17.524  40.722   7.716
    9AU       S 4783  17.449  40.967   8.100
    9AU     LIG 4784  17.692  41.267   8.357
    9AU     LIG 4785  18.138  41.362   8.480
    9AU     LIG 4786  18.486  41.475   8.773
    9AU     LIG 4787  18.580  41.841   9.077
    9AU     LIG 4788  18.557  42.302   9.248
    9AU     LIG 4789  18.583  42.790   9.197
    9AU       S 4790  17.833  40.688   7.384
    9AU     LIG 4791  18.300  40.684   7.516
    9AU     LIG 4792  18.672  40.550   7.795
    9AU     LIG 4793  19.129  40.530   7.971
    9AU     LIG 4794  19.434  40.809   8.248
    9AU     LIG 4795  19.860  41.072   8.271
    9AU     LIG 4796  20.343  41.132   8.192
    9AU    AUSL 4797  16.018  40.890   7.517
    9AU    AUSL 4798  16.072  40.640   7.880
    9AU     AUL 4799  15.812  40.982   7.799
    9AU       S 4800  15.791  40.666   8.140
    9AU     LIG 4801  15.599  40.784   8.575
    9AU     LIG 4802  15.516  41.113   8.934
    9AU     LIG 4803  15.308  41.332   9.335
    9AU     LIG 4804  15.119  41.436   9.788
    9AU     LIG 4805  14.809  41.648  10.101
    9AU     LIG 4806  14.331  41.678  10.142
    9AU       S 4807  15.583  41.017   7.411
    9AU     LIG 4808  15.285  41.312   7.586
    9AU     LIG 4809  15.101  41.745   7.567
    9AU     LIG 4810  14.741  42.017   7.678
    9AU     LIG 4811  14.288  42.178   7.673
    9AU     LIG 4812  13.900  42.404   7.504
    9AU     LIG 4813  13.469  42.564   7.474
    9AU    AUSL 4814  16.096  40.541   7.309
    9AU    AUSL 4815  16.202  40.983   7.151
    9AU     AUL 4816  15.932  40.881   7.142
    9AU       S 4817  15.521  40.840   7.403
    9AU     LIG 4818  15.102  41.023   7.184
    9AU     LIG 4819  14.743  41.045   6.841
    9AU     LIG 4820  14.276  41.136   6.747
    9AU     LIG 4821  13.893  40.902   6.642
    9AU     LIG 4822  13.431  40.953   6.595
    9AU     LIG 4823  13.128  41.218   6.328
    9AU       S 4824  16.100  41.134   6.769
    9AU     LIG 4825  16.001  41.424   6.422
    9AU     LIG 4826  15.739  41.666   6.110
    9AU     LIG 4827  15.541  42.004   5.846
    9AU     LIG 4828  15.269  42.405   5.832
    9AU     LIG 4829  14.958  42.770   5.804
    9AU     LIG 4830  14.705  43.128   5.966
    9AU    AUSL 4831  15.789  40.517   7.614
    9AU    AUSL 4832  15.830  40.222   7.300
    9AU     AUL 4833  15.706  40.482   7.201
    9AU       S 4834  15.507  40.052   7.438
    9AU     LIG 4835  15.200  39.966   7.782
    9AU     LIG 4836  14.733  39.941   7.744
    9AU     LIG 4837  14.294  39.789   7.627
    9AU     LIG 4838  13.941  39.655   7.336
    9AU     LIG 4839  13.516  39.498   7.255
    9AU     LIG 4840  13.069  39.563   7.134
    9AU       S 4841  15.589  40.587   7.662
    9AU     LIG 4842  15.332  40.881   7.961
    9AU     LIG 4843  14.937  40.989   8.270
    9AU     LIG 4844  14.464  41.167   8.383
    9AU     LIG 4845  14.000  41.255   8.589
    9AU     LIG 4846  13.511  41.376   8.676
    9AU     LIG 4847  13.089  41.631   8.482
    9AU    AUSL 4848  17.360  39.834   7.559
    9AU    AUSL 4849  17.112  40.092   7.828
    9AU     AUL 4850  17.479  39.983   7.935
    9AU       S 4851  17.559  39.598   7.585
    9AU     LIG 4852  17.741  39.226   7.657
    9AU     LIG 4853  18.095  38.978   7.490
    9AU     LIG 4854  18.347  38.586   7.578
    9AU     LIG 4855  18.745  38.425   7.782
    9AU     LIG 4856  19.171  38.248   7.706
    9AU     LIG 4857  19.587  38.048   7.653
    9AU       S 4858  17.351  39.564   8.045
    9AU     LIG 4859  17.567  39.258   8.405
    9AU     LIG 4860  17.643  38.914   8.687
    9AU     LIG 4861  17.963  38.585   8.738
    9AU     LIG 4862  18.363  38.625   9.002
    9AU     LIG 4863  18.683  38.523   9.338
    9AU     LIG 4864  18.981  38.641   9.694
    9AU    AUSL 4865  17.193  40.156   7.359
    9AU    AUSL 4866  17.121  39.675   7.256
    9AU     AUL 4867  17.489  39.921   7.194
    9AU       S 4868  17.496  39.699   7.575
    9AU     LIG 4869  17.894  39.503   7.243
    9AU     LIG 4870  18.381  39.323   7.219
    9AU     LIG 4871  18.881  39.171   7.266
    9AU     LIG 4872  19.375  39.041   7.163
    9AU     LIG 4873  19.721  39.101   6.809
    9AU     LIG 4874  20.211  39.207   6.859
    9AU       S 4875  17.385  39.464   7.107
    9AU     LIG 4876  17.223  39.056   6.950
    9AU     LIG 4877  17.495  38.751   6.672
    9AU     LIG 4878  17.907  38.457   6.555
    9AU     LIG 4879  18.275  38.234   6.274
    9AU     LIG 4880  18.636  37.879   6.156
    9AU     LIG 4881  18.808  37.431   6.151
    9AU    AUSL 4882  15.942  39.852   7.505
    9AU    AUSL 4883  16.021  39.963   7.047
    9AU     AUL 4884  15.756  40.025   7.039
    9AU       S 4885  15.958  39.617   7.075
    9AU     LIG 4886  15.485  39.570   7.008
    9AU     LIG 4887  15.193  39.272   6.761
    9AU     LIG 4888  14.915  39.043   6.432
    9AU     LIG 4889  14.656  38.690   6.220
    9AU     LIG 4890  14.339  38.577   5.862
    9AU     LIG 4891  14.162  38.784   5.458
    9AU       S 4892  15.654  39.822   7.440
    9AU     LIG 4893  15.300  39.545   7.503
    9AU     LIG 4894  14.816  39.535   7.435
    9AU     LIG 4895  14.368  39.356   7.350
    9AU     LIG 4896  13.930  39.118   7.350
    9AU     LIG 4897  13.547  38.826   7.444
    9AU     LIG 4898  13.266  38.612   7.765
    9AU    AUSL 4899  16.096  40.238   7.630
    9AU    AUSL 4900  16.177  39.890   7.870
    9AU     AUL 4901  15.800  40.037   7.818
    9AU       S 4902  15.931  39.718   8.117
    9AU     LIG 4903  15.768  39.445   7.792
    9AU     LIG 4904  15.406  39.121   7.886
    9AU     LIG 4905  15.035  38.855   8.087
    9AU     LIG 4906  14.738  38.572   8.349
    9AU     LIG 4907  14.560  38.245   8.589
    9AU     LIG 4908  14.383  38.092   8.969
    9AU       S 4909  15.547  40.129   7.457
    9AU     LIG 4910  15.055  39.981   7.289
    9AU     LIG 4911  14.578  39.982   7.237
    9AU     LIG 4912  14.126  40.138   7.285
    9AU     LIG 4913  13.803  40.069   7.612
    9AU     LIG 4914  13.414  39.802   7.666
    9AU     LIG 4915  12.930  39.861   7.611
    9AU    AUSL 4916  16.674  41.048   8.025
    9AU    AUSL 4917  16.271  41.008   7.822
    9AU     AUL 4918  16.425  41.128   8.093
    9AU       S 4919  16.023  40.972   8.204
    9AU     LIG 4920  15.729  41.274   8.454
    9AU     LIG 4921  15.632  41.594   8.783
    9AU     LIG 4922  15.480  41.933   9.068
    9AU     LIG 4923  15.272  42.348   9.147
    9AU     LIG 4924  14.945  42.656   9.302
    9AU     LIG 4925  14.612  42.842   9.593
    9AU       S 4926  16.749  41.475   8.069
    9AU     LIG 4927  16.876  41.812   8.369
    9AU     LIG 4928  17.012  42.152   8.655
    9AU     LIG 4929  17.087  42.277   9.101
    9AU     LIG 4930  17.071  42.590   9.438
    9AU     LIG 4931  16.927  42.944   9.694
    9AU     LIG 4932  16.603  43.260   9.859
    9AU    AUSL 4933  16.569  41.226   7.638
    9AU    AUSL 4934  16.898  41.170   7.344
    9AU     AUL 4935  16.569  41.461   7.447
    9AU       S 4936  16.758  41.494   7.860
    9AU     LIG 4937  16.673  41.956   7.915
    9AU     LIG 4938  16.790  42.310   8.201
    9AU     LIG 4939  16.831  42.736   8.397
    9AU     LIG 4940  16.597  43.155   8.487
    9AU     LIG 4941  16.395  43.586   8.564
    9AU     LIG 4942  16.155  43.993   8.504
    9AU       S 4943  16.945  41.535   7.159
    9AU     LIG 4944  17.258  41.738   6.856
    9AU     LIG 4945  17.420  42.186   6.736
    9AU     LIG 4946  17.450  42.675   6.700
    9AU     LIG 4947  17.598  43.138   6.679
    9AU     LIG 4948  17.782  43.495   6.423
    9AU     LIG 4949  17.761  43.960   6.445
    9AU    AUSL 4950  16.855  40.909   7.674
    9AU    AUSL 4951  16.983  40.800   8.154
    9AU     AUL 4952  17.005  41.092   8.019
    9AU       S 4953  17.305  40.847   8.293
    9AU     LIG 4954  17.563  40.890   8.688
    9AU     LIG 4955  17.962  41.098   8.882
    9AU     LIG 4956  18.181  41.419   9.181
    9AU     LIG 4957  18.378  41.683   9.522
    9AU     LIG 4958  18.393  42.124   9.713
    9AU     LIG 4959  18.376  42.440  10.070
    9AU       S 4960  16.997  41.429   7.718
    9AU     LIG 4961  17.168  41.800   7.947
    9AU     LIG 4962  17.284  42.174   8.207
    9AU     LIG 4963  17.393  42.640   8.257
    9AU     LIG 4964  17.644  43.061   8.205
    9AU     LIG 4965  17.748  43.494   8.381
    9AU     LIG 4966  17.631  43.895   8.593
    9AU    AUSL 4967  16.617  39.786   7.868
    9AU    AUSL 4968  17.030  39.676   7.747
    9AU     AUL 4969  16.809  39.579   8.119
    9AU       S 4970  16.618  39.178   8.021
    9AU     LIG 4971  16.635  38.769   8.216
    9AU     LIG 4972  16.279  38.480   8.282
    9AU     LIG 4973  16.032  38.136   8.405
    9AU     LIG 4974  16.112  37.713   8.512
    9AU     LIG 4975  16.414  37.465   8.771
    9AU     LIG 4976  16.397  37.289   9.208
    9AU       S 4977  17.167  39.434   7.832
    9AU     LIG 4978  17.410  39.010   7.973
    9AU     LIG 4979  17.729  38.701   8.222
    9AU     LIG 4980  18.070  38.321   8.294
    9AU     LIG 4981  18.218  37.878   8.499
    9AU     LIG 4982  18.554  37.814   8.850
    9AU     LIG 4983  18.713  37.416   9.067
    9AU    AUSL 4984  16.315  39.574   7.655
    9AU    AUSL 4985  16.408  39.845   8.225
    9AU     AUL 4986  16.342  39.556   8.001
    9AU       S 4987  16.429  39.110   7.881
    9AU     LIG 4988  16.193  38.720   7.828
    9AU     LIG 4989  16.058  38.263   7.860
    9AU     LIG 4990  15.960  37.831   8.005
    9AU     LIG 4991  15.796  37.414   7.941
    9AU     LIG 4992  15.697  36.980   8.032
    9AU     LIG 4993  15.609  36.554   8.288
    9AU       S 4994  16.082  39.745   8.335
    9AU     LIG 4995  15.769  39.304   8.322
    9AU     LIG 4996  15.474  38.914   8.387
    9AU     LIG 4997  15.122  38.751   8.644
    9AU     LIG 4998  14.869  38.465   8.933
    9AU     LIG 4999  14.768  38.193   9.285
    9AU     LIG 5000  14.726  38.079   9.728
    9AU    AUSL 5001  16.715  39.429   7.642
    9AU    AUSL 5002  16.424  39.517   7.258
    9AU     AUL 5003  16.252  39.346   7.532
    9AU       S 5004  16.357  39.151   7.113
    9AU     LIG 5005  16.061  38.770   7.143
    9AU     LIG 5006  16.018  38.287   7.240
    9AU     LIG 5007  15.913  37.857   7.059
    9AU     LIG 5008  15.815  37.490   6.742
    9AU     LIG 5009  15.872  37.121   6.402
    9AU     LIG 5010  15.737  36.642   6.212
    9AU       S 5011  16.678  39.283   7.740
    9AU     LIG 5012  16.806  38.806   7.733
    9AU     LIG 5013  16.595  38.385   7.854
    9AU     LIG 5014  16.445  37.985   8.114
    9AU     LIG 5015  16.524  37.506   8.243
    9AU     LIG 5016  16.592  37.058   8.466
    9AU     LIG 5017  16.896  36.702   8.666
    9AU    AUSL 5018  16.670  41.024   7.005
    9AU    AUSL 5019  16.968  40.768   7.260
    9AU     AUL 5020  17.028  41.099   7.052
    9AU       S 5021  16.712  41.329   6.803
    9AU     LIG 5022  16.917  41.575   6.501
    9AU     LIG 5023  17.088  41.989   6.385
    9AU     LIG 5024  17.112  42.362   6.082
    9AU     LIG 5025  17.115  42.608   5.658
    9AU     LIG 5026  16.987  42.921   5.324
    9AU     LIG 5027  16.911  43.343   5.136
    9AU       S 5028  17.377  40.799   6.947
    9AU     LIG 5029  17.804  41.119   6.849
    9AU     LIG 5030  18.144  41.271   6.532
    9AU     LIG 5031  18.436  41.468   6.195
    9AU     LIG 5032  18.735  41.793   6.005
    9AU     LIG 5033  18.870  42.258   5.935
    9AU     LIG 5034  19.051  42.667   5.759
    9AU    AUSL 5035  16.528  40.907   7.392
    9AU    AUSL 5036  16.468  40.670   7.048
    9AU     AUL 5037  16.403  41.165   7.124
    9AU       S 5038  16.750  41.476   7.032
    9AU     LIG 5039  16.788  41.935   6.846
    9AU     LIG 5040  16.943  42.376   6.697
    9AU     LIG 5041  16.931  42.848   6.628
    9AU     LIG 5042  16.651  43.247   6.585
    9AU     LIG 5043  16.369  43.645   6.569
    9AU     LIG 5044  16.150  44.062   6.487
    9AU       S 5045  16.334  40.989   6.678
    9AU     LIG 5046  16.279  41.023   6.224
    9AU     LIG 5047  16.038  41.292   5.905
    9AU     LIG 5048  15.801  41.594   5.589
    9AU     LIG 5049  15.711  41.816   5.145
    9AU     LIG 5050  15.577  42.114   4.765
    9AU     LIG 5051  15.153  42.268   4.563
    9AU    AUSL 5052  16.749  39.611   6.987
    9AU    AUSL 5053  16.316  39.908   7.342
    9AU     AUL 5054  16.407  39.586   6.947
    9AU       S 5055  15.967  39.509   7.183
    9AU     LIG 5056  15.652  39.163   7.287
    9AU     LIG 5057  15.334  38.862   7.040
    9AU     LIG 5058  14.960  38.658   6.761
    9AU     LIG 5059  14.585  38.353   6.601
    9AU     LIG 5060  14.285  38.168   6.243
    9AU     LIG 5061  14.056  37.787   6.004
    9AU       S 5062  16.638  39.193   6.963
    9AU     LIG 5063  16.462  38.772   6.798
    9AU     LIG 5064  16.169  38.394   6.762
    9AU     LIG 5065  16.092  37.954   6.587
    9AU     LIG 5066  16.205  37.537   6.398
    9AU     LIG 5067  16.231  37.353   5.976
    9AU     LIG 5068  16.305  37.250   5.522
    9AU    AUSL 5069  16.744  39.754   7.406
    9AU    AUSL 5070  16.864  39.991   7.081
    9AU     AUL 5071  16.933  39.479   7.185
    9AU       S 5072  16.577  39.213   7.237
    9AU     LIG 5073  16.754  38.794   7.227
    9AU     LIG 5074  16.534  38.398   7.170
    9AU     LIG 5075  16.422  37.980   6.983
    9AU     LIG 5076  16.574  37.563   6.791
    9AU     LIG 5077  16.858  37.170   6.715
    9AU     LIG 5078  17.064  36.918   6.395
    9AU       S 5079  17.160  39.552   6.787
    9AU     LIG 5080  17.222  39.214   6.464
    9AU     LIG 5081  17.311  38.837   6.191
    9AU     LIG 5082  17.203  38.494   5.892
    9AU     LIG 5083  17.419  38.151   5.667
    9AU     LIG 5084  17.699  38.009   5.316
    9AU     LIG 5085  17.969  38.035   4.923
   10AU     AUC 5086  33.695  39.684   7.503
   10AU     AUC 5087  33.957  39.678   7.344
   10AU     AUC 5088  33.942  39.673   7.652
   10AU     AUC 5089  33.448  39.692   7.339
   10AU     AUC 5090  33.433  39.716   7.654
   10AU     AUC 5091  33.548  39.955   7.508
   10AU     AUC 5092  33.870  39.925   7.504
   10AU     AUC 5093  33.523  39.444   7.514
   10AU     AUC 5094  33.823  39.414   7.521
   10AU     AUC 5095  33.679  39.526   7.760
   10AU     AUC 5096  33.711  39.849   7.754
   10AU     AUC 5097  33.693  39.522   7.243
   10AU     AUC 5098  33.692  39.819   7.242
   10AU     AUC 5099  34.206  39.669   7.179
   10AU     AUC 5100  34.215  39.676   7.479
   10AU     AUC 5101  34.212  39.663   7.789
   10AU     AUC 5102  33.194  39.681   7.181
   10AU     AUC 5103  33.175  39.716   7.477
   10AU     AUC 5104  33.177  39.755   7.801
   10AU     AUC 5105  33.411  40.218   7.515
   10AU     AUC 5106  33.721  40.206   7.511
   10AU     AUC 5107  34.025  40.192   7.498
   10AU     AUC 5108  33.335  39.196   7.525
   10AU     AUC 5109  33.648  39.160   7.510
   10AU     AUC 5110  33.969  39.148   7.526
   10AU     AUC 5111  33.673  39.376   8.016
   10AU     AUC 5112  33.708  39.675   8.028
   10AU     AUC 5113  33.740  39.996   8.013
   10AU     AUC 5114  33.693  39.336   7.010
   10AU     AUC 5115  33.707  39.654   6.978
   10AU     AUC 5116  33.694  39.971   6.976
   10AU     AUC 5117  33.949  39.500   7.919
   10AU     AUC 5118  33.969  39.838   7.924
   10AU     AUC 5119  33.965  39.505   7.083
   10AU     AUC 5120  33.967  39.816   7.070
   10AU     AUC 5121  33.429  39.575   7.934
   10AU     AUC 5122  33.434  39.879   7.910
   10AU     AUC 5123  33.446  39.513   7.073
   10AU     AUC 5124  33.446  39.831   7.073
   10AU     AUC 5125  34.119  39.939   7.322
   10AU     AUC 5126  34.132  39.909   7.666
   10AU     AUC 5127  33.289  39.962   7.349
   10AU     AUC 5128  33.297  39.996   7.655
   10AU     AUC 5129  34.104  39.401   7.361
   10AU     AUC 5130  34.081  39.384   7.667
   10AU     AUC 5131  33.264  39.434   7.351
   10AU     AUC 5132  33.260  39.475   7.691
   10AU     AUC 5133  33.568  40.116   7.774
   10AU     AUC 5134  33.899  40.095   7.752
   10AU     AUC 5135  33.490  39.283   7.769
   10AU     AUC 5136  33.810  39.258   7.776
   10AU     AUC 5137  33.554  40.096   7.235
   10AU     AUC 5138  33.867  40.078   7.232
   10AU     AUC 5139  33.511  39.272   7.250
   10AU     AUC 5140  33.841  39.252   7.266
   10AU    AUSL 5141  34.202  39.549   8.225
   10AU    AUSL 5142  33.970  39.185   8.134
   10AU     AUL 5143  34.261  39.234   8.376
   10AU       S 5144  34.275  38.832   8.126
   10AU     LIG 5145  34.073  38.507   8.324
   10AU     LIG 5146  34.251  38.258   8.667
   10AU     LIG 5147  34.501  37.919   8.887
   10AU     LIG 5148  34.717  37.626   9.199
   10AU     LIG 5149  34.795  37.558   9.673
   10AU     LIG 5150  34.894  37.404  10.121
   10AU       S 5151  34.152  39.615   8.633
   10AU     LIG 5152  34.307  39.459   9.039
   10AU     LIG 5153  34.558  39.296   9.412
   10AU     LIG 5154  34.947  39.243   9.676
   10AU     LIG 5155  35.306  39.336   9.966
   10AU     LIG 5156  35.545  39.300  10.368
   10AU     LIG 5157  35.747  39.355  10.792
   10AU    AUSL 5158  33.782  39.489   8.357
   10AU    AUSL 5159  33.636  39.908   8.362
   10AU     AUL 5160  33.695  39.814   8.710
   10AU       S 5161  33.856  39.423   8.537
   10AU     LIG 5162  34.019  39.092   8.803
   10AU     LIG 5163  34.175  38.980   9.243
   10AU     LIG 5164  34.267  38.884   9.709
   10AU     LIG 5165  34.230  38.731  10.175
   10AU     LIG 5166  34.285  38.797  10.654
   10AU     LIG 5167  34.434  39.117  10.976
   10AU       S 5168  33.264  39.690   8.688
   10AU     LIG 5169  33.111  39.654   9.110
   10AU     LIG 5170  33.029  39.504   9.543
   10AU     LIG 5171  32.863  39.514   9.984
   10AU     LIG 5172  32.887  39.740  10.407
   10AU     LIG 5173  32.958  39.942  10.839
   10AU     LIG 5174  32.854  40.229  11.209
   10AU    AUSL 5175  33.894  39.776   8.067
   10AU    AUSL 5176  34.330  39.873   7.987
   10AU     AUL 5177  34.385  39.717   8.222
   10AU       S 5178  34.091  39.878   8.528
   10AU     LIG 5179  34.103  40.138   8.883
   10AU     LIG 5180  34.384  40.296   9.232
   10AU     LIG 5181  34.528  40.456   9.656
   10AU     LIG 5182  34.406  40.530  10.109
   10AU     LIG 5183  34.454  40.515  10.573
   10AU     LIG 5184  34.640  40.567  10.998
   10AU       S 5185  34.599  40.124   8.193
   10AU     LIG 5186  34.985  40.271   8.393
   10AU     LIG 5187  35.222  40.331   8.789
   10AU     LIG 5188  35.458  40.416   9.184
   10AU     LIG 5189  35.879  40.460   9.427
   10AU     LIG 5190  36.264  40.603   9.692
   10AU     LIG 5191  36.537  40.819  10.035
   10AU    AUSL 5192  34.232  39.699   6.865
   10AU    AUSL 5193  33.981  40.112   6.818
   10AU     AUL 5194  34.308  40.041   6.441
   10AU       S 5195  34.283  39.726   6.727
   10AU     LIG 5196  34.563  39.641   6.351
   10AU     LIG 5197  34.627  39.510   5.917
   10AU     LIG 5198  34.779  39.445   5.467
   10AU     LIG 5199  35.133  39.484   5.125
   10AU     LIG 5200  35.417  39.439   4.726
   10AU     LIG 5201  35.625  39.522   4.288
   10AU       S 5202  33.971  40.206   6.660
   10AU     LIG 5203  34.352  40.530   6.530
   10AU     LIG 5204  34.675  40.612   6.161
   10AU     LIG 5205  34.832  40.666   5.681
   10AU     LIG 5206  35.003  40.883   5.259
   10AU     LIG 5207  35.250  41.224   5.017
   10AU     LIG 5208  35.420  41.667   4.940
   10AU    AUSL 5209  33.975  39.384   6.693
   10AU    AUSL 5210  34.320  39.318   7.004
   10AU     AUL 5211  34.352  39.307   6.648
   10AU       S 5212  34.444  38.911   6.880
   10AU     LIG 5213  34.569  38.679   6.481
   10AU     LIG 5214  34.805  38.326   6.240
   10AU     LIG 5215  35.045  37.997   5.974
   10AU     LIG 5216  35.430  38.010   5.656
   10AU     LIG 5217  35.878  37.981   5.429
   10AU     LIG 5218  36.304  37.817   5.234
   10AU       S 5219  34.050  39.617   6.440
   10AU     LIG 5220  34.192  39.293   6.165
   10AU     LIG 5221  34.325  39.130   5.742
   10AU     LIG 5222  34.388  39.146   5.277
   10AU     LIG 5223  34.372  38.983   4.825
   10AU     LIG 5224  34.407  38.801   4.380
   10AU     LIG 5225  34.479  38.778   3.909
   10AU    AUSL 5226  33.816  39.740   6.870
   10AU    AUSL 5227  33.560  39.471   6.665
   10AU     AUL 5228  33.772  39.266   6.565
   10AU       S 5229  33.516  39.570   6.312
   10AU     LIG 5230  33.395  39.331   5.945
   10AU     LIG 5231  33.126  39.109   5.635
   10AU     LIG 5232  32.880  38.917   5.274
   10AU     LIG 5233  32.750  38.650   4.891
   10AU     LIG 5234  32.678  38.586   4.423
   10AU     LIG 5235  32.710  38.688   3.958
   10AU       S 5236  33.940  39.733   6.515
   10AU     LIG 5237  34.145  39.787   6.005
   10AU     LIG 5238  34.270  39.617   5.563
   10AU     LIG 5239  34.435  39.643   5.118
   10AU     LIG 5240  34.498  39.864   4.702
   10AU     LIG 5241  34.414  39.965   4.236
   10AU     LIG 5242  34.502  40.171   3.811
   10AU    AUSL 5243  33.234  39.827   8.239
   10AU    AUSL 5244  33.519  40.040   7.986
   10AU     AUL 5245  33.448  40.108   8.382
   10AU       S 5246  33.123  39.850   8.611
   10AU     LIG 5247  32.806  39.508   8.696
   10AU     LIG 5248  32.701  39.330   9.126
   10AU     LIG 5249  32.564  39.293   9.587
   10AU     LIG 5250  32.382  39.302  10.032
   10AU     LIG 5251  32.005  39.336  10.336
   10AU     LIG 5252  31.624  39.508  10.562
   10AU       S 5253  33.027  40.244   8.261
   10AU     LIG 5254  33.124  40.343   8.707
   10AU     LIG 5255  33.051  40.676   9.007
   10AU     LIG 5256  32.776  40.915   9.295
   10AU     LIG 5257  32.520  40.989   9.683
   10AU     LIG 5258  32.341  41.219  10.059
   10AU     LIG 5259  32.168  41.524  10.385
   10AU    AUSL 5260  33.501  39.569   8.061
   10AU    AUSL 5261  32.983  39.573   8.013
   10AU     AUL 5262  33.092  39.573   8.248
   10AU       S 5263  32.808  39.210   8.257
   10AU     LIG 5264  32.442  39.009   8.077
   10AU     LIG 5265  32.101  38.730   8.205
   10AU     LIG 5266  31.906  38.452   8.533
   10AU     LIG 5267  31.685  38.181   8.848
   10AU     LIG 5268  31.443  38.070   9.241
   10AU     LIG 5269  31.143  38.212   9.598
   10AU       S 5270  33.367  39.501   8.595
   10AU     LIG 5271  33.172  39.192   8.884
   10AU     LIG 5272  33.071  39.038   9.330
   10AU     LIG 5273  32.955  39.029   9.797
   10AU     LIG 5274  32.808  38.876  10.230
   10AU     LIG 5275  32.688  38.656  10.654
   10AU     LIG 5276  32.435  38.666  11.064
   10AU    AUSL 5277  33.308  39.631   6.958
   10AU    AUSL 5278  33.434  39.190   6.939
   10AU     AUL 5279  33.276  39.305   6.648
   10AU       S 5280  33.259  39.648   6.326
   10AU     LIG 5281  32.940  39.593   5.980
   10AU     LIG 5282  32.718  39.415   5.572
   10AU     LIG 5283  32.410  39.158   5.284
   10AU     LIG 5284  32.070  39.070   4.937
   10AU     LIG 5285  31.776  39.224   4.582
   10AU     LIG 5286  31.525  39.374   4.210
   10AU       S 5287  32.998  38.917   6.816
   10AU     LIG 5288  32.746  38.544   6.812
   10AU     LIG 5289  32.462  38.282   6.544
   10AU     LIG 5290  32.196  38.036   6.229
   10AU     LIG 5291  32.056  37.885   5.793
   10AU     LIG 5292  32.101  37.650   5.363
   10AU     LIG 5293  32.018  37.431   4.938
   10AU    AUSL 5294  33.492  39.901   6.659
   10AU    AUSL 5295  33.095  39.990   6.915
   10AU     AUL 5296  33.069  39.737   6.728
   10AU       S 5297  33.107  40.207   6.675
   10AU     LIG 5298  32.860  40.177   6.255
   10AU     LIG 5299  32.587  40.386   5.898
   10AU     LIG 5300  32.338  40.558   5.519
   10AU     LIG 5301  31.937  40.644   5.265
   10AU     LIG 5302  31.542  40.825   5.057
   10AU     LIG 5303  31.116  41.008   4.949
   10AU       S 5304  33.470  39.830   6.465
   10AU     LIG 5305  33.398  39.890   5.934
   10AU     LIG 5306  33.213  39.633   5.550
   10AU     LIG 5307  32.983  39.589   5.127
   10AU     LIG 5308  32.968  39.795   4.668
   10AU     LIG 5309  33.057  40.009   4.220
   10AU     LIG 5310  33.041  40.199   3.760
   10AU    AUSL 5311  34.361  40.261   7.419
   10AU    AUSL 5312  34.349  40.051   7.049
   10AU     AUL 5313  34.466  40.505   7.235
   10AU       S 5314  34.448  40.183   6.859
   10AU     LIG 5315  34.785  40.114   6.549
   10AU     LIG 5316  35.076  40.287   6.207
   10AU     LIG 5317  35.340  40.475   5.849
   10AU     LIG 5318  35.750  40.538   5.588
   10AU     LIG 5319  36.151  40.761   5.429
   10AU     LIG 5320  36.347  41.177   5.317
   10AU       S 5321  34.774  40.171   7.290
   10AU     LIG 5322  35.227  40.333   7.417
   10AU     LIG 5323  35.650  40.215   7.575
   10AU     LIG 5324  36.108  40.331   7.645
   10AU     LIG 5325  36.408  40.679   7.790
   10AU     LIG 5326  36.734  41.040   7.849
   10AU     LIG 5327  36.984  41.319   7.541
   10AU    AUSL 5328  34.536  39.729   7.237
   10AU    AUSL 5329  34.530  39.546   7.716
   10AU     AUL 5330  34.753  39.593   7.489
   10AU       S 5331  34.803  39.879   7.111
   10AU     LIG 5332  35.299  39.839   7.245
   10AU     LIG 5333  35.803  39.821   7.281
   10AU     LIG 5334  36.258  39.760   7.087
   10AU     LIG 5335  36.746  39.707   7.084
   10AU     LIG 5336  37.119  40.009   6.978
   10AU     LIG 5337  37.426  40.360   7.005
   10AU       S 5338  34.849  39.163   7.669
   10AU     LIG 5339  35.301  39.057   7.656
   10AU     LIG 5340  35.732  38.869   7.631
   10AU     LIG 5341  36.045  38.555   7.735
   10AU     LIG 5342  36.462  38.567   7.964
   10AU     LIG 5343  36.832  38.862   8.021
   10AU     LIG 5344  37.279  38.763   8.130
   10AU    AUSL 5345  34.322  39.875   7.573
   10AU    AUSL 5346  34.274  40.258   7.821
   10AU     AUL 5347  34.565  40.059   7.719
   10AU       S 5348  34.490  40.308   8.101
   10AU     LIG 5349  34.627  40.640   8.389
   10AU     LIG 5350  35.019  40.777   8.602
   10AU     LIG 5351  35.430  40.962   8.684
   10AU     LIG 5352  35.597  41.400   8.629
   10AU     LIG 5353  35.630  41.806   8.853
   10AU     LIG 5354  35.789  42.164   9.127
   10AU       S 5355  34.830  40.055   7.352
   10AU     LIG 5356  35.079  39.916   7.704
   10AU     LIG 5357  35.512  39.735   7.725
   10AU     LIG 5358  35.953  39.854   7.819
   10AU     LIG 5359  36.392  40.000   7.927
   10AU     LIG 5360  36.865  40.018   7.935
   10AU     LIG 5361  37.290  40.206   7.901
   10AU    AUSL 5362  33.056  40.241   7.519
   10AU    AUSL 5363  33.111  39.996   7.881
   10AU     AUL 5364  32.853  40.349   7.774
   10AU       S 5365  32.843  40.044   8.132
   10AU     LIG 5366  32.662  40.125   8.576
   10AU     LIG 5367  32.592  40.450   8.934
   10AU     LIG 5368  32.351  40.625   9.319
   10AU     LIG 5369  32.043  40.779   9.657
   10AU     LIG 5370  31.602  40.885   9.818
   10AU     LIG 5371  31.232  41.129  10.001
   10AU       S 5372  32.500  40.195   7.523
   10AU     LIG 5373  32.358  40.624   7.653
   10AU     LIG 5374  32.153  41.067   7.570
   10AU     LIG 5375  31.839  41.443   7.548
   10AU     LIG 5376  31.424  41.674   7.589
   10AU     LIG 5377  30.984  41.799   7.512
   10AU     LIG 5378  30.532  41.937   7.509
   10AU    AUSL 5379  33.133  39.893   7.312
   10AU    AUSL 5380  33.243  40.335   7.154
   10AU     AUL 5381  32.974  40.243   7.148
   10AU       S 5382  32.587  40.242   7.382
   10AU     LIG 5383  32.210  40.129   7.113
   10AU     LIG 5384  31.789  40.255   6.936
   10AU     LIG 5385  31.474  40.291   6.584
   10AU     LIG 5386  30.988  40.311   6.597
   10AU     LIG 5387  30.538  40.391   6.711
   10AU     LIG 5388  30.277  40.789   6.792
   10AU       S 5389  33.147  40.486   6.771
   10AU     LIG 5390  32.959  40.668   6.396
   10AU     LIG 5391  32.749  40.953   6.076
   10AU     LIG 5392  32.496  41.353   5.968
   10AU     LIG 5393  32.134  41.676   5.924
   10AU     LIG 5394  31.873  42.064   5.834
   10AU     LIG 5395  31.482  42.283   6.000
   10AU    AUSL 5396  32.826  39.872   7.618
   10AU    AUSL 5397  32.862  39.579   7.303
   10AU     AUL 5398  32.740  39.847   7.219
   10AU       S 5399  32.529  39.414   7.437
   10AU     LIG 5400  32.235  39.405   7.816
   10AU     LIG 5401  31.797  39.243   7.835
   10AU     LIG 5402  31.345  39.105   7.724
   10AU     LIG 5403  30.959  38.909   7.481
   10AU     LIG 5404  30.553  39.016   7.309
   10AU     LIG 5405  30.175  38.815   7.136
   10AU       S 5406  32.645  39.906   7.694
   10AU     LIG 5407  32.350  40.101   7.995
   10AU     LIG 5408  32.018  40.372   8.172
   10AU     LIG 5409  31.571  40.259   8.277
   10AU     LIG 5410  31.109  40.271   8.232
   10AU     LIG 5411  30.715  40.391   8.425
   10AU     LIG 5412  30.302  40.513   8.230
   10AU    AUSL 5413  34.390  39.174   7.567
   10AU    AUSL 5414  34.144  39.438   7.833
   10AU     AUL 5415  34.510  39.331   7.943
   10AU       S 5416  34.590  38.919   7.584
   10AU     LIG 5417  34.957  38.654   7.650
   10AU     LIG 5418  35.393  38.505   7.519
   10AU     LIG 5419  35.777  38.221   7.445
   10AU     LIG 5420  36.090  37.847   7.501
   10AU     LIG 5421  36.452  37.566   7.654
   10AU     LIG 5422  36.904  37.642   7.653
   10AU       S 5423  34.376  38.915   8.054
   10AU     LIG 5424  34.575  38.645   8.452
   10AU     LIG 5425  34.782  38.314   8.698
   10AU     LIG 5426  35.013  37.998   8.960
   10AU     LIG 5427  35.351  37.908   9.284
   10AU     LIG 5428  35.713  37.899   9.605
   10AU     LIG 5429  36.120  37.768   9.821
   10AU    AUSL 5430  34.226  39.496   7.366
   10AU    AUSL 5431  34.152  39.020   7.261
   10AU     AUL 5432  34.518  39.257   7.203
   10AU       S 5433  34.535  39.045   7.588
   10AU     LIG 5434  34.932  38.958   7.228
   10AU     LIG 5435  35.426  38.904   7.185
   10AU     LIG 5436  35.843  38.667   7.161
   10AU     LIG 5437  36.298  38.736   6.988
   10AU     LIG 5438  36.767  38.676   7.069
   10AU     LIG 5439  37.211  38.563   7.185
   10AU       S 5440  34.413  38.803   7.095
   10AU     LIG 5441  34.397  38.381   6.857
   10AU     LIG 5442  34.579  38.012   6.583
   10AU     LIG 5443  34.818  37.665   6.330
   10AU     LIG 5444  35.010  37.227   6.239
   10AU     LIG 5445  35.353  36.884   6.208
   10AU     LIG 5446  35.539  36.448   6.106
   10AU    AUSL 5447  32.972  39.208   7.508
   10AU    AUSL 5448  33.052  39.319   7.051
   10AU     AUL 5449  32.790  39.393   7.042
   10AU       S 5450  32.984  38.979   7.073
   10AU     LIG 5451  32.506  38.964   7.011
   10AU     LIG 5452  32.213  38.696   6.744
   10AU     LIG 5453  31.963  38.459   6.405
   10AU     LIG 5454  31.717  38.215   6.067
   10AU     LIG 5455  31.321  38.172   5.789
   10AU     LIG 5456  30.951  37.981   5.547
   10AU       S 5457  32.684  39.180   7.440
   10AU     LIG 5458  32.311  38.948   7.557
   10AU     LIG 5459  31.836  38.893   7.466
   10AU     LIG 5460  31.412  38.657   7.480
   10AU     LIG 5461  31.017  38.449   7.683
   10AU     LIG 5462  30.667  38.159   7.817
   10AU     LIG 5463  30.442  37.801   7.609
   10AU    AUSL 5464  33.131  39.591   7.632
   10AU    AUSL 5465  33.204  39.246   7.876
   10AU     AUL 5466  32.831  39.392   7.819
   10AU       S 5467  32.961  39.095   8.139
   10AU     LIG 5468  32.834  38.821   7.811
   10AU     LIG 5469  32.474  38.515   7.901
   10AU     LIG 5470  32.146  38.212   8.129
   10AU     LIG 5471  31.843  37.947   8.403
   10AU     LIG 5472  31.640  37.669   8.735
   10AU     LIG 5473  31.411  37.271   8.865
   10AU       S 5474  32.575  39.482   7.458
   10AU     LIG 5475  32.053  39.360   7.342
   10AU     LIG 5476  31.564  39.342   7.309
   10AU     LIG 5477  31.085  39.395   7.393
   10AU     LIG 5478  30.777  39.300   7.739
   10AU     LIG 5479  30.503  38.939   7.818
   10AU     LIG 5480  30.048  38.888   7.917
   10AU    AUSL 5481  33.716  40.400   8.024
   10AU    AUSL 5482  33.311  40.363   7.823
   10AU     AUL 5483  33.471  40.478   8.097
   10AU       S 5484  33.058  40.342   8.187
   10AU     LIG 5485  32.778  40.632   8.469
   10AU     LIG 5486  32.675  40.964   8.787
   10AU     LIG 5487  32.640  41.416   8.936
   10AU     LIG 5488  32.429  41.808   9.104
   10AU     LIG 5489  32.135  42.131   9.295
   10AU     LIG 5490  31.682  42.264   9.360
   10AU       S 5491  33.797  40.821   8.055
   10AU     LIG 5492  33.833  41.085   8.390
   10AU     LIG 5493  34.110  41.371   8.579
   10AU     LIG 5494  34.065  41.776   8.786
   10AU     LIG 5495  33.973  42.003   9.193
   10AU     LIG 5496  33.905  42.371   9.477
   10AU     LIG 5497  33.709  42.691   9.756
   10AU    AUSL 5498  33.610  40.576   7.634
   10AU    AUSL 5499  33.943  40.517   7.343
   10AU     AUL 5500  33.627  40.814   7.441
   10AU       S 5501  33.726  40.861   7.882
   10AU     LIG 5502  33.731  41.318   7.932
   10AU     LIG 5503  33.875  41.652   8.217
   10AU     LIG 5504  33.684  42.061   8.367
   10AU     LIG 5505  33.381  42.438   8.330
   10AU     LIG 5506  33.319  42.912   8.371
   10AU     LIG 5507  33.298  43.396   8.377
   10AU       S 5508  34.006  40.870   7.158
   10AU     LIG 5509  34.335  41.045   6.860
   10AU     LIG 5510  34.541  41.469   6.736
   10AU     LIG 5511  34.549  41.953   6.693
   10AU     LIG 5512  34.757  42.397   6.651
   10AU     LIG 5513  34.724  42.887   6.583
   10AU     LIG 5514  34.665  43.374   6.576
   10AU    AUSL 5515  33.896  40.258   7.674
   10AU    AUSL 5516  34.022  40.150   8.153
   10AU     AUL 5517  34.051  40.444   8.009
   10AU       S 5518  34.338  40.195   8.294
   10AU     LIG 5519  34.572  40.232   8.702
   10AU     LIG 5520  34.794  40.516   9.002
   10AU     LIG 5521  35.003  40.619   9.409
   10AU     LIG 5522  35.074  40.895   9.792
   10AU     LIG 5523  35.150  41.266  10.090
   10AU     LIG 5524  35.406  41.641  10.219
   10AU       S 5525  34.023  40.795   7.727
   10AU     LIG 5526  34.205  41.152   8.034
   10AU     LIG 5527  34.428  41.562   8.211
   10AU     LIG 5528  34.794  41.900   8.296
   10AU     LIG 5529  35.015  42.326   8.421
   10AU     LIG 5530  34.964  42.805   8.314
   10AU     LIG 5531  34.868  43.272   8.291
   10AU    AUSL 5532  33.644  39.138   7.873
   10AU    AUSL 5533  34.056  39.023   7.753
   10AU     AUL 5534  33.831  38.927   8.125
   10AU       S 5535  33.628  38.530   8.025
   10AU     LIG 5536  33.700  38.125   8.193
   10AU     LIG 5537  33.428  37.787   8.351
   10AU     LIG 5538  33.159  37.432   8.478
   10AU     LIG 5539  33.163  36.974   8.561
   10AU     LIG 5540  33.172  36.674   8.930
   10AU     LIG 5541  33.337  36.548   9.365
   10AU       S 5542  34.192  38.790   7.841
   10AU     LIG 5543  34.463  38.390   8.002
   10AU     LIG 5544  34.561  38.027   8.326
   10AU     LIG 5545  34.667  37.592   8.532
   10AU     LIG 5546  34.915  37.317   8.816
   10AU     LIG 5547  35.274  37.047   8.925
   10AU     LIG 5548  35.638  36.807   9.105
   10AU    AUSL 5549  33.340  38.928   7.661
   10AU    AUSL 5550  33.436  39.202   8.231
   10AU     AUL 5551  33.361  38.916   8.007
   10AU       S 5552  33.435  38.473   7.895
   10AU     LIG 5553  33.239  38.079   7.935
   10AU     LIG 5554  33.093  37.635   7.984
   10AU     LIG 5555  32.961  37.192   8.067
   10AU     LIG 5556  32.749  36.842   8.283
   10AU     LIG 5557  32.856  36.427   8.439
   10AU     LIG 5558  33.019  35.987   8.356
   10AU       S 5559  33.116  39.116   8.346
   10AU     LIG 5560  32.796  38.692   8.341
   10AU     LIG 5561  32.437  38.432   8.485
   10AU     LIG 5562  32.214  38.085   8.727
   10AU     LIG 5563  32.000  37.844   9.074
   10AU     LIG 5564  31.829  37.829   9.506
   10AU     LIG 5565  31.820  37.750   9.969
   10AU    AUSL 5566  33.739  38.779   7.650
   10AU    AUSL 5567  33.454  38.867   7.265
   10AU     AUL 5568  33.278  38.698   7.528
   10AU       S 5569  33.484  38.523   7.148
   10AU     LIG 5570  33.090  38.336   7.153
   10AU     LIG 5571  32.994  37.863   7.149
   10AU     LIG 5572  32.970  37.377   7.040
   10AU     LIG 5573  32.903  36.927   6.866
   10AU     LIG 5574  32.833  36.446   6.785
   10AU     LIG 5575  32.926  35.988   6.664
   10AU       S 5576  33.694  38.635   7.753
   10AU     LIG 5577  33.718  38.152   7.659
   10AU     LIG 5578  33.602  37.721   7.858
   10AU     LIG 5579  33.492  37.313   8.104
   10AU     LIG 5580  33.603  36.872   8.275
   10AU     LIG 5581  33.895  36.471   8.300
   10AU     LIG 5582  34.122  36.030   8.297
   10AU    AUSL 5583  33.710  40.372   7.006
   10AU    AUSL 5584  34.006  40.113   7.260
   10AU     AUL 5585  34.059  40.434   7.031
   10AU       S 5586  33.745  40.688   6.805
   10AU     LIG 5587  33.992  40.889   6.503
   10AU     LIG 5588  34.185  41.295   6.400
   10AU     LIG 5589  34.174  41.735   6.214
   10AU     LIG 5590  34.049  41.993   5.815
   10AU     LIG 5591  33.963  42.273   5.423
   10AU     LIG 5592  33.990  42.704   5.213
   10AU       S 5593  34.413  40.141   6.947
   10AU     LIG 5594  34.795  40.511   6.866
   10AU     LIG 5595  35.054  40.706   6.530
   10AU     LIG 5596  35.417  40.995   6.435
   10AU     LIG 5597  35.692  41.342   6.273
   10AU     LIG 5598  35.799  41.745   6.062
   10AU     LIG 5599  35.879  42.122   5.769
   10AU    AUSL 5600  33.569  40.254   7.393
   10AU    AUSL 5601  33.503  40.020   7.048
   10AU     AUL 5602  33.447  40.517   7.128
   10AU       S 5603  33.800  40.821   7.026
   10AU     LIG 5604  33.862  41.257   6.835
   10AU     LIG 5605  34.061  41.673   6.731
   10AU     LIG 5606  34.027  42.102   6.567
   10AU     LIG 5607  33.803  42.511   6.548
   10AU     LIG 5608  33.455  42.816   6.499
   10AU     LIG 5609  33.375  43.292   6.474
   10AU       S 5610  33.371  40.338   6.684
   10AU     LIG 5611  33.342  40.338   6.232
   10AU     LIG 5612  33.068  40.559   5.898
   10AU     LIG 5613  32.796  40.807   5.569
   10AU     LIG 5614  32.686  41.045   5.142
   10AU     LIG 5615  32.583  41.423   4.829
   10AU     LIG 5616  32.315  41.746   4.584
   10AU    AUSL 5617  33.777  38.958   6.993
   10AU    AUSL 5618  33.347  39.259   7.345
   10AU     AUL 5619  33.434  38.934   6.952
   10AU       S 5620  32.999  38.868   7.181
   10AU     LIG 5621  32.669  38.609   7.336
   10AU     LIG 5622  32.354  38.339   7.088
   10AU     LIG 5623  32.041  38.114   6.779
   10AU     LIG 5624  31.762  37.864   6.464
   10AU     LIG 5625  31.478  37.480   6.328
   10AU     LIG 5626  31.156  37.103   6.271
   10AU       S 5627  33.678  38.543   6.963
   10AU     LIG 5628  33.383  38.290   6.720
   10AU     LIG 5629  33.210  37.873   6.685
   10AU     LIG 5630  33.216  37.419   6.579
   10AU     LIG 5631  33.247  37.110   6.220
   10AU     LIG 5632  33.272  36.942   5.765
   10AU     LIG 5633  33.326  36.542   5.527
   10AU    AUSL 5634  33.774  39.102   7.412
   10AU    AUSL 5635  33.896  39.337   7.086
   10AU     AUL 5636  33.963  38.827   7.192
   10AU       S 5637  33.627  38.536   7.261
   10AU     LIG 5638  33.515  38.037   7.182
   10AU     LIG 5639  33.442  37.587   7.048
   10AU     LIG 5640  33.482  37.125   6.921
   10AU     LIG 5641  33.835  36.782   6.847
   10AU     LIG 5642  34.150  36.397   6.826
   10AU     LIG 5643  34.256  35.907   6.839
   10AU       S 5644  34.184  38.907   6.790
   10AU     LIG 5645  34.043  38.587   6.544
   10AU     LIG 5646  34.275  38.290   6.273
   10AU     LIG 5647  34.508  37.954   6.040
   10AU     LIG 5648  34.670  37.636   5.730
   10AU     LIG 5649  34.785  37.479   5.290
   10AU     LIG 5650  34.861  37.253   4.868
   11POPC   NC3 5651  17.787   0.044   9.565
   11POPC   PO4 5652  17.371   0.541   9.806
   11POPC   GL1 5653  17.525   0.431   9.360
   11POPC   GL2 5654  17.233   0.343   9.139
   11POPC   C1A 5655  17.660   0.502   8.911
   11POPC   D2A 5656  17.598   0.629   8.474
   11POPC   C3A 5657  17.616   0.360   8.101
   11POPC   C4A 5658  17.493   0.170   7.694
   11POPC   C1B 5659  17.132   0.592   8.715
   11POPC   C2B 5660  17.137   0.525   8.244
   11POPC   C3B 5661  17.034   0.433   7.825
   11POPC   C4B 5662  16.967   0.060   7.567
   12POPC   NC3 5663  26.609  24.817   9.376
   12POPC   PO4 5664  26.991  25.358   9.550
   12POPC   GL1 5665  26.950  25.448   9.151
   12POPC   GL2 5666  26.657  25.274   9.110
   12POPC   C1A 5667  26.986  25.304   8.724
   12POPC   D2A 5668  26.836  25.350   8.313
   12POPC   C3A 5669  27.157  25.289   8.013
   12POPC   C4A 5670  27.101  24.944   7.763
   12POPC   C1B 5671  26.618  25.656   8.814
   12POPC   C2B 5672  26.444  25.864   8.404
   12POPC   C3B 5673  26.512  25.630   8.031
   12POPC   C4B 5674  26.762  25.398   7.731
   13POPC   NC3 5675  24.716  28.480   9.611
   13POPC   PO4 5676  24.123  28.710   9.701
   13POPC   GL1 5677  24.206  28.480   9.263
   13POPC   GL2 5678  24.527  28.280   9.188
   13POPC   C1A 5679  24.274  28.385   8.783
   13POPC   D2A 5680  24.472  28.283   8.371
   13POPC   C3A 5681  24.198  28.298   8.032
   13POPC   C4A 5682  24.040  28.466   7.679
   13POPC   C1B 5683  24.785  28.253   8.785
   13POPC   C2B 5684  24.983  28.167   8.363
   13POPC   C3B 5685  24.882  28.316   7.926
   13POPC   C4B 5686  24.532  28.385   7.646
   14POPC   NC3 5687   9.758  12.387   9.218
   14POPC   PO4 5688   9.938  12.921   9.596
   14POPC   GL1 5689   9.917  13.050   9.170
   14POPC   GL2 5690   9.594  12.937   9.055
   14POPC   C1A 5691   9.966  12.917   8.723
   14POPC   D2A 5692   9.738  12.984   8.334
   14POPC   C3A 5693   9.942  13.071   7.942
   14POPC   C4A 5694   9.754  13.150   7.535
   14POPC   C1B 5695   9.425  12.782   8.700
   14POPC   C2B 5696   9.284  12.723   8.287
   14POPC   C3B 5697   9.462  12.750   7.871
   14POPC   C4B 5698   9.354  12.410   7.565
   15POPC   NC3 5699  37.902  35.741   9.538
   15POPC   PO4 5700  37.589  35.219   9.573
   15POPC   GL1 5701  37.547  35.194   9.157
   15POPC   GL2 5702  37.555  35.553   9.159
   15POPC   C1A 5703  37.638  35.156   8.726
   15POPC   D2A 5704  37.768  34.948   8.344
   15POPC   C3A 5705  37.714  35.224   7.993
   15POPC   C4A 5706  37.445  35.154   7.655
   15POPC   C1B 5707  37.716  35.763   8.792
   15POPC   C2B 5708  37.703  35.580   8.406
   15POPC   C3B 5709  37.704  35.777   8.020
   15POPC   C4B 5710  37.722  35.604   7.634
   16POPC   NC3 5711  23.437  33.976   9.443
   16POPC   PO4 5712  24.011  33.634   9.774
   16POPC   GL1 5713  23.798  33.571   9.329
   16POPC   GL2 5714  23.476  33.634   9.088
   16POPC   C1A 5715  23.908  33.509   8.879
   16POPC   D2A 5716  23.866  33.691   8.484
   16POPC   C3A 5717  24.124  33.451   8.215
   16POPC   C4A 5718  24.106  33.508   7.788
   16POPC   C1B 5719  23.521  33.950   8.774
   16POPC   C2B 5720  23.756  34.202   8.506
   16POPC   C3B 5721  23.812  34.111   8.094
   16POPC   C4B 5722  23.643  33.695   7.991
   17POPC   NC3 5723  12.589  14.160   9.524
   17POPC   PO4 5724  13.051  14.569   9.369
   17POPC   GL1 5725  12.835  14.391   9.064
   17POPC   GL2 5726  12.915  14.077   9.106
   17POPC   C1A 5727  12.644  14.491   8.665
   17POPC   D2A 5728  12.547  14.612   8.222
   17POPC   C3A 5729  12.888  14.441   7.894
   17POPC   C4A 5730  13.235  14.117   7.968
   17POPC   C1B 5731  13.000  14.076   8.675
   17POPC   C2B 5732  12.755  14.140   8.300
   17POPC   C3B 5733  12.762  13.941   7.911
   17POPC   C4B 5734  12.858  14.015   7.484
   18POPC   NC3 5735  21.540  39.209   9.769
   18POPC   PO4 5736  21.008  39.443   9.804
   18POPC   GL1 5737  21.199  39.230   9.376
   18POPC   GL2 5738  21.447  39.442   9.206
   18POPC   C1A 5739  21.157  39.055   8.876
   18POPC   D2A 5740  21.343  39.125   8.388
   18POPC   C3A 5741  21.202  38.921   7.935
   18POPC   C4A 5742  21.334  38.694   7.510
   18POPC   C1B 5743  21.199  39.549   8.787
   18POPC   C2B 5744  21.031  39.526   8.327
   18POPC   C3B 5745  21.116  39.442   7.861
   18POPC   C4B 5746  21.325  39.614   7.478
   19POPC   NC3 5747   8.569  21.222   9.555
   19POPC   PO4 5748   7.844  21.247   9.664
   19POPC   GL1 5749   8.064  21.425   9.268
   19POPC   GL2 5750   8.397  21.529   9.185
   19POPC   C1A 5751   7.977  21.687   8.870
   19POPC   D2A 5752   7.906  21.703   8.408
   19POPC   C3A 5753   8.052  21.323   8.176
   19POPC   C4A 5754   8.132  21.161   7.783
   19POPC   C1B 5755   8.606  21.742   8.848
   19POPC   C2B 5756   8.557  21.601   8.447
   19POPC   C3B 5757   8.432  21.667   8.034
   19POPC   C4B 5758   8.579  21.364   7.755
   20POPC   NC3 5759  24.697   7.641   9.468
   20POPC   PO4 5760  24.018   7.733   9.288
   20POPC   GL1 5761  24.396   7.550   9.042
   20POPC   GL2 5762  24.819   7.460   9.013
   20POPC   C1A 5763  24.442   7.256   8.713
   20POPC   D2A 5764  24.477   7.197   8.302
   20POPC   C3A 5765  24.183   7.420   8.046
   20POPC   C4A 5766  24.349   7.252   7.680
   20POPC   C1B 5767  24.745   7.706   8.686
   20POPC   C2B 5768  24.530   7.701   8.316
   20POPC   C3B 5769  24.667   7.561   7.920
   20POPC   C4B 5770  24.680   7.770   7.530
   21POPC   NC3 5771   2.343  31.904   9.531
   21POPC   PO4 5772   1.813  32.436   9.467
   21POPC   GL1 5773   1.901  32.169   9.144
   21POPC   GL2 5774   2.242  32.238   9.146
   21POPC   C1A 5775   1.971  32.107   8.706
   21POPC   D2A 5776   1.760  31.931   8.339
   21POPC   C3A 5777   2.006  32.077   7.992
   21POPC   C4A 5778   2.178  31.805   7.696
   21POPC   C1B 5779   2.412  32.484   8.819
   21POPC   C2B 5780   2.278  32.374   8.375
   21POPC   C3B 5781   2.340  32.506   7.953
   21POPC   C4B 5782   2.262  32.280   7.568
   22POPC   NC3 5783  24.775  34.741   9.270
   22POPC   PO4 5784  24.170  35.016   9.259
   22POPC   GL1 5785  24.324  34.661   8.999
   22POPC   GL2 5786  24.310  34.346   9.177
   22POPC   C1A 5787  24.642  34.516   8.649
   22POPC   D2A 5788  24.705  34.472   8.184
   22POPC   C3A 5789  24.488  34.805   7.921
   22POPC   C4A 5790  24.516  34.962   7.493
   22POPC   C1B 5791  24.224  34.242   8.716
   22POPC   C2B 5792  24.193  34.438   8.279
   22POPC   C3B 5793  24.352  34.328   7.860
   22POPC   C4B 5794  24.744  34.459   7.627
   23POPC   NC3 5795  30.732  13.564   9.568
   23POPC   PO4 5796  30.463  14.209   9.490
   23POPC   GL1 5797  30.616  13.909   9.184
   23POPC   GL2 5798  30.570  13.531   9.090
   23POPC   C1A 5799  30.920  13.857   8.857
   23POPC   D2A 5800  30.958  14.006   8.441
   23POPC   C3A 5801  30.941  13.728   8.086
   23POPC   C4A 5802  30.780  13.755   7.679
   23POPC   C1B 5803  30.359  13.413   8.714
   23POPC   C2B 5804  30.629  13.357   8.347
   23POPC   C3B 5805  30.543  13.358   7.919
   23POPC   C4B 5806  30.536  13.319   7.458
   24POPC   NC3 5807  31.042  10.493   9.547
   24POPC   PO4 5808  30.583  11.009   9.606
   24POPC   GL1 5809  30.522  10.749   9.222
   24POPC   GL2 5810  30.623  10.386   9.186
   24POPC   C1A 5811  30.597  10.789   8.769
   24POPC   D2A 5812  30.488  10.565   8.373
   24POPC   C3A 5813  30.497  10.753   7.956
   24POPC   C4A 5814  30.686  10.682   7.576
   24POPC   C1B 5815  30.702  10.274   8.750
   24POPC   C2B 5816  30.893  10.202   8.310
   24POPC   C3B 5817  30.646  10.248   7.901
   24POPC   C4B 5818  30.648  10.196   7.417
   25POPC   NC3 5819  35.387   6.870   9.393
   25POPC   PO4 5820  35.179   6.279   9.406
   25POPC   GL1 5821  35.071   6.534   9.084
   25POPC   GL2 5822  35.075   6.920   9.019
   25POPC   C1A 5823  35.323   6.545   8.749
   25POPC   D2A 5824  35.526   6.673   8.414
   25POPC   C3A 5825  35.336   6.664   8.041
   25POPC   C4A 5826  35.592   6.551   7.732
   25POPC   C1B 5827  35.479   7.048   8.781
   25POPC   C2B 5828  35.648   7.140   8.357
   25POPC   C3B 5829  35.658   7.035   7.910
   25POPC   C4B 5830  35.729   7.013   7.434
   26POPC   NC3 5831  40.284  36.113   9.616
   26POPC   PO4 5832  39.630  35.980   9.461
   26POPC   GL1 5833  39.707  36.140   9.049
   26POPC   GL2 5834  40.051  36.124   9.095
   26POPC   C1A 5835  39.852  36.302   8.637
   26POPC   D2A 5836  39.886  36.265   8.191
   26POPC   C3A 5837  39.974  35.887   7.980
   26POPC   C4A 5838  39.762  36.080   7.672
   26POPC   C1B 5839  40.348  36.212   8.736
   26POPC   C2B 5840  40.377  36.348   8.284
   26POPC   C3B 5841  40.308  36.360   7.827
   26POPC   C4B 5842  40.579  36.277   7.421
   27POPC   NC3 5843  39.646  38.171   9.350
   27POPC   PO4 5844  40.066  38.783   9.362
   27POPC   GL1 5845  39.972  38.465   9.057
   27POPC   GL2 5846  39.642  38.373   8.905
   27POPC   C1A 5847  40.048  38.467   8.636
   27POPC   D2A 5848  40.011  38.279   8.291
   27POPC   C3A 5849  40.179  38.460   7.942
   27POPC   C4A 5850  40.263  38.240   7.583
   27POPC   C1B 5851  39.538  38.226   8.511
   27POPC   C2B 5852  39.619  37.908   8.210
   27POPC   C3B 5853  39.798  38.140   7.861
   27POPC   C4B 5854  39.801  38.383   7.477
   28POPC   NC3 5855  32.037  35.548   9.611
   28POPC   PO4 5856  32.489  35.026   9.560
   28POPC   GL1 5857  32.257  35.204   9.203
   28POPC   GL2 5858  32.325  35.537   9.185
   28POPC   C1A 5859  32.147  35.152   8.778
   28POPC   D2A 5860  32.279  35.317   8.385
   28POPC   C3A 5861  32.011  35.280   8.050
   28POPC   C4A 5862  31.750  35.403   7.674
   28POPC   C1B 5863  32.178  35.662   8.776
   28POPC   C2B 5864  32.114  35.802   8.397
   28POPC   C3B 5865  32.295  35.725   8.028
   28POPC   C4B 5866  32.249  35.543   7.695
   29POPC   NC3 5867  40.388  15.776   9.551
   29POPC   PO4 5868  39.904  16.256   9.443
   29POPC   GL1 5869  39.950  16.054   9.104
   29POPC   GL2 5870  40.041  15.722   9.142
   29POPC   C1A 5871  40.115  16.104   8.715
   29POPC   D2A 5872  40.272  16.046   8.321
   29POPC   C3A 5873  40.034  16.143   7.926
   29POPC   C4A 5874  40.172  16.173   7.453
   29POPC   C1B 5875  39.812  15.667   8.760
   29POPC   C2B 5876  39.989  15.615   8.395
   29POPC   C3B 5877  40.177  15.658   7.991
   29POPC   C4B 5878  39.970  15.733   7.622
   30POPC   NC3 5879  43.157   7.062   9.735
   30POPC   PO4 5880  43.258   6.398   9.581
   30POPC   GL1 5881  43.099   6.618   9.181
   30POPC   GL2 5882  43.161   6.992   9.218
   30POPC   C1A 5883  43.245   6.493   8.787
   30POPC   D2A 5884  43.444   6.536   8.375
   30POPC   C3A 5885  43.263   6.605   7.966
   30POPC   C4A 5886  43.181   6.641   7.531
   30POPC   C1B 5887  43.312   6.999   8.814
   30POPC   C2B 5888  43.068   6.880   8.470
   30POPC   C3B 5889  42.981   7.003   8.092
   30POPC   C4B 5890  43.311   7.076   7.738
   31POPC   NC3 5891  17.296  35.811   9.385
   31POPC   PO4 5892  17.687  36.313   9.616
   31POPC   GL1 5893  17.672  36.104   9.162
   31POPC   GL2 5894  17.492  35.872   8.947
   31POPC   C1A 5895  17.725  36.227   8.701
   31POPC   D2A 5896  17.678  36.017   8.336
   31POPC   C3A 5897  17.622  36.246   7.959
   31POPC   C4A 5898  17.681  36.008   7.625
   31POPC   C1B 5899  17.230  35.945   8.630
   31POPC   C2B 5900  17.023  35.854   8.254
   31POPC   C3B 5901  17.212  35.924   7.856
   31POPC   C4B 5902  17.242  36.279   7.547
   32POPC   NC3 5903  11.579  20.548   9.320
   32POPC   PO4 5904  12.216  20.603   9.639
   32POPC   GL1 5905  12.118  20.606   9.206
   32POPC   GL2 5906  12.267  20.866   9.026
   32POPC   C1A 5907  12.022  20.486   8.763
   32POPC   D2A 5908  11.990  20.411   8.309
   32POPC   C3A 5909  11.798  20.711   8.013
   32POPC   C4A 5910  11.676  20.621   7.569
   32POPC   C1B 5911  12.285  20.886   8.548
   32POPC   C2B 5912  12.351  20.780   8.102
   32POPC   C3B 5913  12.168  20.741   7.669
   32POPC   C4B 5914  11.945  20.910   7.261
   33POPC   NC3 5915   7.070  44.403   9.411
   33POPC   PO4 5916   7.627  44.799   9.558
   33POPC   GL1 5917   7.525  44.547   9.192
   33POPC   GL2 5918   7.552  44.195   9.241
   33POPC   C1A 5919   7.525  44.638   8.755
   33POPC   D2A 5920   7.293  44.682   8.388
   33POPC   C3A 5921   7.431  44.891   8.017
   33POPC   C4A 5922   7.382  44.915   7.559
   33POPC   C1B 5923   7.659  44.130   8.793
   33POPC   C2B 5924   7.628  44.285   8.369
   33POPC   C3B 5925   7.768  44.194   7.962
   33POPC   C4B 5926   7.682  44.536   7.706
   34POPC   NC3 5927  20.028   5.728   9.491
   34POPC   PO4 5928  19.598   6.304   9.526
   34POPC   GL1 5929  19.748   6.051   9.187
   34POPC   GL2 5930  19.521   5.788   9.207
   34POPC   C1A 5931  19.933   5.845   8.829
   34POPC   D2A 5932  20.187   5.736   8.473
   34POPC   C3A 5933  20.025   5.766   8.074
   34POPC   C4A 5934  20.130   5.565   7.679
   34POPC   C1B 5935  19.523   5.579   8.814
   34POPC   C2B 5936  19.649   5.594   8.403
   34POPC   C3B 5937  19.518   5.730   7.996
   34POPC   C4B 5938  19.628   5.545   7.578
   35POPC   NC3 5939  42.036   5.072   9.418
   35POPC   PO4 5940  42.645   5.246   9.652
   35POPC   GL1 5941  42.501   5.363   9.255
   35POPC   GL2 5942  42.592   5.029   9.165
   35POPC   C1A 5943  42.324   5.320   8.825
   35POPC   D2A 5944  42.245   5.093   8.441
   35POPC   C3A 5945  42.323   5.241   8.045
   35POPC   C4A 5946  42.073   5.368   7.707
   35POPC   C1B 5947  42.424   4.777   8.824
   35POPC   C2B 5948  42.349   4.587   8.421
   35POPC   C3B 5949  42.431   4.660   7.980
   35POPC   C4B 5950  42.315   4.912   7.617
   36POPC   NC3 5951   5.655  32.784   9.567
   36POPC   PO4 5952   5.981  33.321   9.619
   36POPC   GL1 5953   5.892  33.150   9.223
   36POPC   GL2 5954   5.579  33.050   9.152
   36POPC   C1A 5955   6.031  33.059   8.801
   36POPC   D2A 5956   5.890  32.840   8.413
   36POPC   C3A 5957   6.139  32.828   8.046
   36POPC   C4A 5958   5.961  33.092   7.785
   36POPC   C1B 5959   5.491  33.149   8.760
   36POPC   C2B 5960   5.347  32.960   8.388
   36POPC   C3B 5961   5.517  32.797   7.999
   36POPC   C4B 5962   5.455  33.052   7.646
   37POPC   NC3 5963   3.163  33.963   9.522
   37POPC   PO4 5964   3.631  33.465   9.560
   37POPC   GL1 5965   3.704  33.549   9.139
   37POPC   GL2 5966   3.709  33.918   9.061
   37POPC   C1A 5967   3.570  33.535   8.715
   37POPC   D2A 5968   3.705  33.921   8.516
   37POPC   C3A 5969   3.578  33.849   8.110
   37POPC   C4A 5970   3.622  33.650   7.726
   37POPC   C1B 5971   3.294  33.951   8.829
   37POPC   C2B 5972   3.175  34.059   8.382
   37POPC   C3B 5973   3.219  34.180   7.933
   37POPC   C4B 5974   3.601  34.190   7.689
   38POPC   NC3 5975  20.436  26.796   9.472
   38POPC   PO4 5976  21.008  26.460   9.653
   38POPC   GL1 5977  20.881  26.712   9.242
   38POPC   GL2 5978  20.554  26.610   9.020
   38POPC   C1A 5979  20.891  26.923   8.806
   38POPC   D2A 5980  20.588  26.840   8.439
   38POPC   C3A 5981  20.733  26.818   8.050
   38POPC   C4A 5982  20.661  26.614   7.683
   38POPC   C1B 5983  20.407  27.049   8.847
   38POPC   C2B 5984  20.259  27.233   8.397
   38POPC   C3B 5985  20.246  26.971   8.003
   38POPC   C4B 5986  20.304  26.925   7.527
   39POPC   NC3 5987   1.277   1.348   9.588
   39POPC   PO4 5988   1.045   1.995   9.522
   39POPC   GL1 5989   0.999   1.797   9.166
   39POPC   GL2 5990   0.859   1.460   9.237
   39POPC   C1A 5991   0.979   1.977   8.767
   39POPC   D2A 5992   0.796   1.860   8.378
   39POPC   C3A 5993   1.043   2.067   8.060
   39POPC   C4A 5994   1.456   2.067   7.853
   39POPC   C1B 5995   1.032   1.450   8.804
   39POPC   C2B 5996   1.053   1.404   8.397
   39POPC   C3B 5997   0.844   1.510   8.026
   39POPC   C4B 5998   0.824   1.321   7.675
   40POPC   NC3 5999  43.075  29.697   9.515
   40POPC   PO4 6000  42.880  30.332   9.624
   40POPC   GL1 6001  43.061  30.147   9.223
   40POPC   GL2 6002  42.849  29.864   9.093
   40POPC   C1A 6003  43.181  30.055   8.774
   40POPC   D2A 6004  43.218  29.823   8.392
   40POPC   C3A 6005  43.011  30.011   8.044
   40POPC   C4A 6006  43.333  30.144   7.799
   40POPC   C1B 6007  42.939  29.580   8.760
   40POPC   C2B 6008  42.985  29.373   8.363
   40POPC   C3B 6009  43.087  29.526   7.946
   40POPC   C4B 6010  42.788  29.680   7.649
   41POPC   NC3 6011  34.803  33.942   9.526
   41POPC   PO4 6012  34.399  33.401   9.510
   41POPC   GL1 6013  34.562  33.499   9.091
   41POPC   GL2 6014  34.912  33.575   9.180
   41POPC   C1A 6015  34.432  33.509   8.628
   41POPC   D2A 6016  34.690  33.447   8.240
   41POPC   C3A 6017  34.547  33.495   7.824
   41POPC   C4A 6018  34.346  33.910   7.777
   41POPC   C1B 6019  34.897  33.748   8.759
   41POPC   C2B 6020  34.918  33.933   8.354
   41POPC   C3B 6021  34.869  33.880   7.931
   41POPC   C4B 6022  35.038  34.078   7.586
   42POPC   NC3 6023  10.239  13.988   9.323
   42POPC   PO4 6024  10.335  14.691   9.490
   42POPC   GL1 6025  10.309  14.503   9.120
   42POPC   GL2 6026  10.611  14.299   9.149
   42POPC   C1A 6027  10.545  14.591   8.725
   42POPC   D2A 6028  10.615  14.764   8.316
   42POPC   C3A 6029  10.465  14.425   8.017
   42POPC   C4A 6030  10.125  14.320   7.728
   42POPC   C1B 6031  10.850  14.151   8.800
   42POPC   C2B 6032  10.687  14.056   8.417
   42POPC   C3B 6033  10.893  14.104   8.028
   42POPC   C4B 6034  10.786  14.234   7.627
   43POPC   NC3 6035   0.120   4.895   9.664
   43POPC   PO4 6036   0.557   5.355   9.497
   43POPC   GL1 6037   0.302   5.170   9.229
   43POPC   GL2 6038   0.428   4.854   9.163
   43POPC   C1A 6039   0.365   5.209   8.786
   43POPC   D2A 6040   0.496   5.402   8.414
   43POPC   C3A 6041   0.399   5.147   8.068
   43POPC   C4A 6042   0.072   5.028   7.771
   43POPC   C1B 6043   0.711   4.834   8.769
   43POPC   C2B 6044   0.842   5.017   8.381
   43POPC   C3B 6045   0.872   4.895   7.953
   43POPC   C4B 6046   0.552   4.892   7.660
   44POPC   NC3 6047  31.010  27.491   9.435
   44POPC   PO4 6048  30.592  27.119   9.350
   44POPC   GL1 6049  30.663  27.412   9.003
   44POPC   GL2 6050  30.818  27.753   9.015
   44POPC   C1A 6051  30.660  27.546   8.569
   44POPC   D2A 6052  30.848  27.808   8.251
   44POPC   C3A 6053  30.752  27.588   7.850
   44POPC   C4A 6054  30.687  27.367   7.431
   44POPC   C1B 6055  30.580  28.038   8.717
   44POPC   C2B 6056  30.436  28.145   8.291
   44POPC   C3B 6057  30.682  28.135   7.898
   44POPC   C4B 6058  30.761  27.943   7.487
   45POPC   NC3 6059  38.922  12.570   9.698
   45POPC   PO4 6060  39.424  12.986   9.629
   45POPC   GL1 6061  39.273  12.781   9.208
   45POPC   GL2 6062  39.039  12.529   9.208
   45POPC   C1A 6063  39.347  12.720   8.732
   45POPC   D2A 6064  39.362  13.054   8.368
   45POPC   C3A 6065  39.284  12.951   7.910
   45POPC   C4A 6066  39.289  12.972   7.424
   45POPC   C1B 6067  38.860  12.508   8.811
   45POPC   C2B 6068  38.914  12.795   8.451
   45POPC   C3B 6069  38.756  12.957   8.075
   45POPC   C4B 6070  38.832  12.826   7.666
   46POPC   NC3 6071  17.913   4.946   9.577
   46POPC   PO4 6072  17.188   5.065   9.748
   46POPC   GL1 6073  17.430   5.085   9.311
   46POPC   GL2 6074  17.560   5.387   9.153
   46POPC   C1A 6075  17.625   4.956   8.882
   46POPC   D2A 6076  17.487   4.804   8.471
   46POPC   C3A 6077  17.743   4.897   8.110
   46POPC   C4A 6078  17.652   5.108   7.719
   46POPC   C1B 6079  17.848   5.409   8.823
   46POPC   C2B 6080  17.740   5.296   8.433
   46POPC   C3B 6081  17.717   5.480   8.057
   46POPC   C4B 6082  18.056   5.433   7.804
   47POPC   NC3 6083  36.402  31.676   9.469
   47POPC   PO4 6084  35.936  31.276   9.694
   47POPC   GL1 6085  36.038  31.350   9.200
   47POPC   GL2 6086  36.133  31.650   9.057
   47POPC   C1A 6087  36.275  31.287   8.771
   47POPC   D2A 6088  36.258  31.521   8.382
   47POPC   C3A 6089  36.089  31.245   8.094
   47POPC   C4A 6090  35.945  31.281   7.679
   47POPC   C1B 6091  35.942  31.829   8.692
   47POPC   C2B 6092  36.017  31.982   8.302
   47POPC   C3B 6093  35.955  31.755   7.941
   47POPC   C4B 6094  35.821  31.750   7.534
   48POPC   NC3 6095  38.392  21.776   9.454
   48POPC   PO4 6096  38.156  22.504   9.436
   48POPC   GL1 6097  38.128  22.142   9.205
   48POPC   GL2 6098  38.474  22.181   9.153
   48POPC   C1A 6099  38.124  22.016   8.779
   48POPC   D2A 6100  38.100  22.328   8.476
   48POPC   C3A 6101  38.210  22.228   8.055
   48POPC   C4A 6102  38.416  22.486   7.728
   48POPC   C1B 6103  38.567  22.316   8.793
   48POPC   C2B 6104  38.576  22.111   8.429
   48POPC   C3B 6105  38.713  22.213   8.063
   48POPC   C4B 6106  38.613  22.001   7.688
   49POPC   NC3 6107  39.318   1.013   9.481
   49POPC   PO4 6108  39.426   1.575   9.796
   49POPC   GL1 6109  39.524   1.428   9.283
   49POPC   GL2 6110  39.655   1.114   9.123
   49POPC   C1A 6111  39.332   1.376   8.839
   49POPC   D2A 6112  39.286   1.087   8.500
   49POPC   C3A 6113  39.216   1.238   8.105
   49POPC   C4A 6114  39.167   1.164   7.680
   49POPC   C1B 6115  39.515   0.789   8.864
   49POPC   C2B 6116  39.595   0.668   8.462
   49POPC   C3B 6117  39.559   0.838   8.067
   49POPC   C4B 6118  39.637   0.977   7.633
   50POPC   NC3 6119  13.239  29.369   9.714
   50POPC   PO4 6120  12.989  29.944   9.456
   50POPC   GL1 6121  12.665  29.957   9.147
   50POPC   GL2 6122  12.383  30.195   9.141
   50POPC   C1A 6123  12.841  29.888   8.735
   50POPC   D2A 6124  12.962  30.051   8.340
   50POPC   C3A 6125  12.977  29.681   8.068
   50POPC   C4A 6126  13.002  29.702   7.631
   50POPC   C1B 6127  12.530  30.317   8.751
   50POPC   C2B 6128  12.601  30.503   8.366
   50POPC   C3B 6129  12.486  30.297   8.032
   50POPC   C4B 6130  12.772  30.094   7.839
   51POPC   NC3 6131  27.405   0.240   9.491
   51POPC   PO4 6132  27.887   0.631   9.558
   51POPC   GL1 6133  27.700   0.625   9.146
   51POPC   GL2 6134  27.825   0.953   9.018
   51POPC   C1A 6135  27.443   0.361   8.857
   51POPC   D2A 6136  27.345   0.220   8.460
   51POPC   C3A 6137  27.468   0.423   8.096
   51POPC   C4A 6138  27.467   0.297   7.686
   51POPC   C1B 6139  27.912   0.743   8.632
   51POPC   C2B 6140  27.870   0.730   8.170
   51POPC   C3B 6141  28.070   0.913   7.823
   51POPC   C4B 6142  28.019   0.843   7.370
   52POPC   NC3 6143  10.414  41.700   9.448
   52POPC   PO4 6144  11.104  41.552   9.405
   52POPC   GL1 6145  10.816  41.601   9.099
   52POPC   GL2 6146  10.707  41.253   9.097
   52POPC   C1A 6147  10.613  41.836   8.767
   52POPC   D2A 6148  10.401  41.935   8.360
   52POPC   C3A 6149  10.437  41.718   7.940
   52POPC   C4A 6150  10.449  41.621   7.449
   52POPC   C1B 6151  10.459  41.334   8.678
   52POPC   C2B 6152  10.424  41.250   8.201
   52POPC   C3B 6153  10.643  41.268   7.786
   52POPC   C4B 6154  10.929  41.013   7.514
   53POPC   NC3 6155  29.764   8.286   9.430
   53POPC   PO4 6156  30.357   8.452   9.388
   53POPC   GL1 6157  30.195   8.286   9.079
   53POPC   GL2 6158  30.117   7.971   9.019
   53POPC   C1A 6159  30.079   8.428   8.708
   53POPC   D2A 6160  29.814   8.426   8.379
   53POPC   C3A 6161  30.004   8.457   8.019
   53POPC   C4A 6162  29.717   8.293   7.789
   53POPC   C1B 6163  29.728   8.058   8.764
   53POPC   C2B 6164  29.468   7.987   8.378
   53POPC   C3B 6165  29.444   7.872   7.982
   53POPC   C4B 6166  29.474   7.867   7.550
   54POPC   NC3 6167  27.799  27.432   9.555
   54POPC   PO4 6168  28.055  28.062   9.489
   54POPC   GL1 6169  28.060  27.780   9.170
   54POPC   GL2 6170  28.236  27.475   9.186
   54POPC   C1A 6171  28.251  27.770   8.748
   54POPC   D2A 6172  28.079  27.809   8.372
   54POPC   C3A 6173  28.303  27.755   8.020
   54POPC   C4A 6174  28.266  27.641   7.596
   54POPC   C1B 6175  28.372  27.298   8.801
   54POPC   C2B 6176  28.480  27.450   8.376
   54POPC   C3B 6177  28.430  27.266   7.934
   54POPC   C4B 6178  28.602  27.296   7.501
   55POPC   NC3 6179  28.916  30.890   9.383
   55POPC   PO4 6180  29.282  31.404   9.610
   55POPC   GL1 6181  29.045  31.355   9.223
   55POPC   GL2 6182  29.302  31.110   9.159
   55POPC   C1A 6183  28.864  31.504   8.820
   55POPC   D2A 6184  28.870  31.305   8.389
   55POPC   C3A 6185  28.681  31.500   8.047
   55POPC   C4A 6186  28.785  31.664   7.601
   55POPC   C1B 6187  29.187  31.129   8.752
   55POPC   C2B 6188  29.342  31.151   8.338
   55POPC   C3B 6189  29.191  31.351   7.965
   55POPC   C4B 6190  29.306  31.134   7.586
   56POPC   NC3 6191  32.946  35.174   9.645
   56POPC   PO4 6192  33.391  35.521   9.536
   56POPC   GL1 6193  33.154  35.266   9.195
   56POPC   GL2 6194  32.771  35.204   9.170
   56POPC   C1A 6195  33.052  35.091   8.785
   56POPC   D2A 6196  32.834  35.123   8.395
   56POPC   C3A 6197  33.084  35.101   8.042
   56POPC   C4A 6198  32.950  34.912   7.728
   56POPC   C1B 6199  32.629  35.416   8.782
   56POPC   C2B 6200  32.679  35.609   8.367
   56POPC   C3B 6201  32.724  35.467   7.948
   56POPC   C4B 6202  33.024  35.491   7.653
   57POPC   NC3 6203  20.756  37.565   9.555
   57POPC   PO4 6204  20.185  37.896   9.540
   57POPC   GL1 6205  20.476  37.859   9.215
   57POPC   GL2 6206  20.455  37.504   9.154
   57POPC   C1A 6207  20.667  37.818   8.801
   57POPC   D2A 6208  20.592  37.974   8.386
   57POPC   C3A 6209  20.838  37.999   8.028
   57POPC   C4A 6210  20.647  37.958   7.651
   57POPC   C1B 6211  20.303  37.433   8.753
   57POPC   C2B 6212  20.480  37.481   8.378
   57POPC   C3B 6213  20.682  37.526   8.025
   57POPC   C4B 6214  20.857  37.358   7.715
   58POPC   NC3 6215  15.363   6.821   9.504
   58POPC   PO4 6216  14.818   6.430   9.418
   58POPC   GL1 6217  15.002   6.738   9.146
   58POPC   GL2 6218  15.290   6.496   9.111
   58POPC   C1A 6219  15.181   6.903   8.765
   58POPC   D2A 6220  15.357   6.749   8.360
   58POPC   C3A 6221  15.257   6.954   7.966
   58POPC   C4A 6222  15.188   6.710   7.610
   58POPC   C1B 6223  15.025   6.427   8.736
   58POPC   C2B 6224  14.814   6.402   8.337
   58POPC   C3B 6225  14.955   6.363   7.948
   58POPC   C4B 6226  15.348   6.240   7.853
   59POPC   NC3 6227   9.594  26.413   9.891
   59POPC   PO4 6228  10.036  26.958   9.743
   59POPC   GL1 6229   9.913  26.912   9.282
   59POPC   GL2 6230   9.624  27.147   9.257
   59POPC   C1A 6231   9.873  26.694   8.817
   59POPC   D2A 6232   9.987  26.715   8.352
   59POPC   C3A 6233   9.628  26.745   8.053
   59POPC   C4A 6234   9.652  26.814   7.611
   59POPC   C1B 6235   9.821  27.201   8.819
   59POPC   C2B 6236   9.719  27.158   8.353
   59POPC   C3B 6237   9.914  27.148   7.934
   59POPC   C4B 6238  10.096  27.054   7.508
   60POPC   NC3 6239  32.011   7.381   9.347
   60POPC   PO4 6240  32.145   7.986   9.581
   60POPC   GL1 6241  32.324   7.791   9.170
   60POPC   GL2 6242  32.475   7.432   9.132
   60POPC   C1A 6243  32.223   7.603   8.733
   60POPC   D2A 6244  32.449   7.520   8.363
   60POPC   C3A 6245  32.368   7.301   8.009
   60POPC   C4A 6246  32.215   7.538   7.709
   60POPC   C1B 6247  32.622   7.181   8.739
   60POPC   C2B 6248  32.810   7.157   8.289
   60POPC   C3B 6249  32.810   7.143   7.819
   60POPC   C4B 6250  32.470   7.175   7.481
   61POPC   NC3 6251  14.198  18.619   9.538
   61POPC   PO4 6252  14.629  19.085   9.822
   61POPC   GL1 6253  14.622  19.173   9.331
   61POPC   GL2 6254  14.538  18.837   9.198
   61POPC   C1A 6255  14.486  19.228   8.877
   61POPC   D2A 6256  14.546  19.307   8.416
   61POPC   C3A 6257  14.306  19.098   8.063
   61POPC   C4A 6258  14.134  18.873   7.690
   61POPC   C1B 6259  14.498  18.724   8.741
   61POPC   C2B 6260  14.624  18.782   8.296
   61POPC   C3B 6261  14.604  18.717   7.824
   61POPC   C4B 6262  14.467  18.690   7.343
   62POPC   NC3 6263  44.029   8.424   9.622
   62POPC   PO4 6264  44.061   7.740   9.476
   62POPC   GL1 6265  43.862   7.884   9.163
   62POPC   GL2 6266  43.969   8.202   9.166
   62POPC   C1A 6267  43.753   7.992   8.767
   62POPC   D2A 6268  43.713   8.222   8.381
   62POPC   C3A 6269  43.799   7.991   8.014
   62POPC   C4A 6270  43.809   7.745   7.658
   62POPC   C1B 6271  44.264   8.096   8.805
   62POPC   C2B 6272  44.334   8.183   8.377
   62POPC   C3B 6273  44.296   8.293   7.966
   62POPC   C4B 6274  44.097   8.168   7.595
   63POPC   NC3 6275  11.795  14.844   9.581
   63POPC   PO4 6276  12.139  14.235   9.608
   63POPC   GL1 6277  12.052  14.463   9.251
   63POPC   GL2 6278  12.334  14.337   9.079
   63POPC   C1A 6279  11.918  14.489   8.819
   63POPC   D2A 6280  12.172  14.301   8.488
   63POPC   C3A 6281  11.936  14.323   8.114
   63POPC   C4A 6282  11.988  14.575   7.767
   63POPC   C1B 6283  12.507  14.004   8.820
   63POPC   C2B 6284  12.380  13.805   8.482
   63POPC   C3B 6285  12.292  13.954   8.093
   63POPC   C4B 6286  12.409  14.305   7.828
   64POPC   NC3 6287  34.548   4.328   9.450
   64POPC   PO4 6288  34.838   4.775   9.701
   64POPC   GL1 6289  34.844   4.433   9.093
   64POPC   GL2 6290  34.509   4.331   8.948
   64POPC   C1A 6291  34.849   4.528   8.632
   64POPC   D2A 6292  34.613   4.232   8.381
   64POPC   C3A 6293  34.741   4.111   7.950
   64POPC   C4A 6294  34.856   4.379   7.592
   64POPC   C1B 6295  34.350   4.646   8.665
   64POPC   C2B 6296  34.203   4.528   8.273
   64POPC   C3B 6297  34.347   4.520   7.853
   64POPC   C4B 6298  34.365   4.351   7.452
   65POPC   NC3 6299  19.017   8.983   9.406
   65POPC   PO4 6300  19.510   9.282   9.557
   65POPC   GL1 6301  19.452   9.037   9.165
   65POPC   GL2 6302  19.287   8.724   9.085
   65POPC   C1A 6303  19.187   9.123   8.787
   65POPC   D2A 6304  19.319   9.208   8.413
   65POPC   C3A 6305  19.068   9.218   8.099
   65POPC   C4A 6306  19.221   9.276   7.728
   65POPC   C1B 6307  18.995   8.668   8.744
   65POPC   C2B 6308  19.068   8.763   8.328
   65POPC   C3B 6309  19.198   8.775   7.896
   65POPC   C4B 6310  18.848   8.654   7.712
   66POPC   NC3 6311  37.227  44.815   9.643
   66POPC   PO4 6312  36.944  44.281   9.374
   66POPC   GL1 6313  36.928  44.722   9.163
   66POPC   GL2 6314  36.593  44.940   9.082
   66POPC   C1A 6315  37.073  44.802   8.763
   66POPC   D2A 6316  37.188  44.570   8.375
   66POPC   C3A 6317  37.121  44.814   8.005
   66POPC   C4A 6318  37.042  44.761   7.572
   66POPC   C1B 6319  36.636   0.012   8.620
   66POPC   C2B 6320  36.624  44.994   8.168
   66POPC   C3B 6321  36.587  44.763   7.794
   66POPC   C4B 6322  36.626  44.816   7.294
   67POPC   NC3 6323   4.933   8.591   9.276
   67POPC   PO4 6324   5.353   8.292   9.756
   67POPC   GL1 6325   5.207   8.165   9.279
   67POPC   GL2 6326   4.898   8.084   9.070
   67POPC   C1A 6327   5.329   8.285   8.819
   67POPC   D2A 6328   5.485   8.250   8.405
   67POPC   C3A 6329   5.334   8.495   8.043
   67POPC   C4A 6330   5.402   8.197   7.702
   67POPC   C1B 6331   4.908   8.116   8.622
   67POPC   C2B 6332   4.991   8.131   8.164
   67POPC   C3B 6333   4.910   8.053   7.729
   67POPC   C4B 6334   4.670   8.211   7.374
   68POPC   NC3 6335  24.258  33.866   9.457
   68POPC   PO4 6336  24.812  34.255   9.355
   68POPC   GL1 6337  24.642  34.012   8.974
   68POPC   GL2 6338  24.585  33.699   9.099
   68POPC   C1A 6339  24.371  33.756   8.653
   68POPC   D2A 6340  24.252  33.942   8.274
   68POPC   C3A 6341  24.475  33.851   7.932
   68POPC   C4A 6342  24.882  33.778   7.723
   68POPC   C1B 6343  24.822  33.498   8.749
   68POPC   C2B 6344  24.629  33.361   8.361
   68POPC   C3B 6345  24.604  33.378   7.909
   68POPC   C4B 6346  24.578  33.442   7.439
   69POPC   NC3 6347  28.468   2.237   9.478
   69POPC   PO4 6348  28.324   1.527   9.507
   69POPC   GL1 6349  28.478   1.783   9.162
   69POPC   GL2 6350  28.331   2.090   9.016
   69POPC   C1A 6351  28.540   1.688   8.747
   69POPC   D2A 6352  28.614   1.631   8.311
   69POPC   C3A 6353  28.393   1.902   8.044
   69POPC   C4A 6354  28.536   2.127   7.712
   69POPC   C1B 6355  28.096   2.325   8.701
   69POPC   C2B 6356  27.998   2.126   8.305
   69POPC   C3B 6357  28.049   2.264   7.855
   69POPC   C4B 6358  27.924   2.476   7.482
   70POPC   NC3 6359  31.287  43.692   9.780
   70POPC   PO4 6360  31.608  44.218   9.463
   70POPC   GL1 6361  31.612  43.811   9.227
   70POPC   GL2 6362  31.286  43.610   9.211
   70POPC   C1A 6363  31.682  43.967   8.803
   70POPC   D2A 6364  31.663  44.254   8.459
   70POPC   C3A 6365  31.620  44.090   8.078
   70POPC   C4A 6366  31.602  43.985   7.664
   70POPC   C1B 6367  31.058  43.799   8.801
   70POPC   C2B 6368  31.190  43.988   8.444
   70POPC   C3B 6369  31.018  43.864   8.078
   70POPC   C4B 6370  31.114  43.840   7.686
   71POPC   NC3 6371  35.430   1.594   9.859
   71POPC   PO4 6372  35.303   2.176   9.540
   71POPC   GL1 6373  35.177   2.064   9.140
   71POPC   GL2 6374  35.078   1.742   9.090
   71POPC   C1A 6375  35.117   2.229   8.740
   71POPC   D2A 6376  35.052   2.026   8.344
   71POPC   C3A 6377  35.172   2.209   7.996
   71POPC   C4A 6378  35.022   2.091   7.641
   71POPC   C1B 6379  35.330   1.745   8.713
   71POPC   C2B 6380  35.278   1.550   8.318
   71POPC   C3B 6381  35.255   1.700   7.917
   71POPC   C4B 6382  35.406   1.506   7.567
   72POPC   NC3 6383   4.439  10.861   9.441
   72POPC   PO4 6384   4.171  10.385   9.658
   72POPC   GL1 6385   4.291  10.320   9.244
   72POPC   GL2 6386   4.627  10.377   9.202
   72POPC   C1A 6387   4.215  10.278   8.791
   72POPC   D2A 6388   4.312  10.506   8.415
   72POPC   C3A 6389   4.147  10.490   7.983
   72POPC   C4A 6390   4.436  10.695   7.705
   72POPC   C1B 6391   4.681  10.527   8.802
   72POPC   C2B 6392   4.800  10.317   8.433
   72POPC   C3B 6393   4.621  10.323   8.040
   72POPC   C4B 6394   4.750  10.268   7.658
   73POPC   NC3 6395   5.862   5.628   9.466
   73POPC   PO4 6396   5.844   6.189   9.278
   73POPC   GL1 6397   5.963   5.844   9.007
   73POPC   GL2 6398   6.141   5.515   9.006
   73POPC   C1A 6399   6.106   5.844   8.590
   73POPC   D2A 6400   6.118   5.686   8.188
   73POPC   C3A 6401   6.060   5.974   7.833
   73POPC   C4A 6402   6.227   5.993   7.415
   73POPC   C1B 6403   5.779   5.454   8.704
   73POPC   C2B 6404   5.631   5.493   8.272
   73POPC   C3B 6405   5.701   5.558   7.823
   73POPC   C4B 6406   5.500   5.377   7.435
   74POPC   NC3 6407  41.492  42.846   9.495
   74POPC   PO4 6408  41.790  43.502   9.491
   74POPC   GL1 6409  41.479  43.286   9.251
   74POPC   GL2 6410  41.745  43.052   9.115
   74POPC   C1A 6411  41.286  43.057   8.886
   74POPC   D2A 6412  41.497  42.916   8.512
   74POPC   C3A 6413  41.304  43.021   8.129
   74POPC   C4A 6414  41.429  43.081   7.710
   74POPC   C1B 6415  41.706  43.374   8.793
   74POPC   C2B 6416  41.672  43.378   8.354
   74POPC   C3B 6417  41.805  43.187   7.994
   74POPC   C4B 6418  42.044  43.422   7.723
   75POPC   NC3 6419  11.447  22.224   9.729
   75POPC   PO4 6420  11.050  21.929   9.302
   75POPC   GL1 6421  11.244  22.297   9.257
   75POPC   GL2 6422  11.563  22.132   9.235
   75POPC   C1A 6423  11.316  22.406   8.846
   75POPC   D2A 6424  11.136  22.102   8.566
   75POPC   C3A 6425  11.043  22.234   8.149
   75POPC   C4A 6426  11.268  22.099   7.777
   75POPC   C1B 6427  11.695  22.070   8.812
   75POPC   C2B 6428  11.622  21.850   8.429
   75POPC   C3B 6429  11.716  21.977   8.007
   75POPC   C4B 6430  11.698  22.383   7.790
   76POPC   NC3 6431  23.220  39.003   9.944
   76POPC   PO4 6432  22.933  39.452   9.748
   76POPC   GL1 6433  22.883  39.210   9.354
   76POPC   GL2 6434  22.671  39.378   9.103
   76POPC   C1A 6435  23.072  39.126   8.918
   76POPC   D2A 6436  23.040  39.374   8.527
   76POPC   C3A 6437  23.108  39.265   8.087
   76POPC   C4A 6438  22.892  39.490   7.758
   76POPC   C1B 6439  22.602  39.119   8.706
   76POPC   C2B 6440  22.760  38.956   8.311
   76POPC   C3B 6441  22.735  39.001   7.857
   76POPC   C4B 6442  22.514  39.195   7.534
   77POPC   NC3 6443  10.859  36.136   9.491
   77POPC   PO4 6444  11.571  35.935   9.506
   77POPC   GL1 6445  11.281  35.912   9.150
   77POPC   GL2 6446  11.101  36.246   9.073
   77POPC   C1A 6447  11.297  35.952   8.700
   77POPC   D2A 6448  11.509  36.182   8.372
   77POPC   C3A 6449  11.395  35.957   8.013
   77POPC   C4A 6450  11.097  35.772   7.750
   77POPC   C1B 6451  11.420  36.438   8.840
   77POPC   C2B 6452  11.250  36.639   8.493
   77POPC   C3B 6453  11.160  36.603   8.097
   77POPC   C4B 6454  11.314  36.383   7.774
   78POPC   NC3 6455  31.497  18.585   9.576
   78POPC   PO4 6456  31.787  18.005   9.462
   78POPC   GL1 6457  31.778  18.347   9.134
   78POPC   GL2 6458  31.433  18.311   9.085
   78POPC   C1A 6459  31.725  18.286   8.632
   78POPC   D2A 6460  31.451  18.336   8.244
   78POPC   C3A 6461  31.560  18.261   7.804
   78POPC   C4A 6462  31.706  18.567   7.446
   78POPC   C1B 6463  31.241  18.094   8.719
   78POPC   C2B 6464  30.975  18.207   8.380
   78POPC   C3B 6465  30.955  18.519   8.118
   78POPC   C4B 6466  31.261  18.692   7.858
   79POPC   NC3 6467  42.752  31.350   9.563
   79POPC   PO4 6468  42.114  31.420   9.917
   79POPC   GL1 6469  42.230  31.487   9.439
   79POPC   GL2 6470  42.121  31.229   9.215
   79POPC   C1A 6471  42.369  31.624   8.995
   79POPC   D2A 6472  42.614  31.579   8.590
   79POPC   C3A 6473  42.411  31.640   8.170
   79POPC   C4A 6474  42.385  31.463   7.760
   79POPC   C1B 6475  42.366  31.168   8.795
   79POPC   C2B 6476  42.205  31.226   8.411
   79POPC   C3B 6477  42.177  31.072   8.006
   79POPC   C4B 6478  41.944  31.228   7.674
   80POPC   NC3 6479  25.688  32.345   9.583
   80POPC   PO4 6480  26.308  32.555   9.520
   80POPC   GL1 6481  26.108  32.290   9.236
   80POPC   GL2 6482  25.889  32.586   9.189
   80POPC   C1A 6483  26.236  32.050   8.847
   80POPC   D2A 6484  26.397  31.965   8.416
   80POPC   C3A 6485  26.098  31.877   8.121
   80POPC   C4A 6486  25.947  32.034   7.735
   80POPC   C1B 6487  25.823  32.350   8.823
   80POPC   C2B 6488  26.046  32.330   8.445
   80POPC   C3B 6489  26.105  32.414   8.040
   80POPC   C4B 6490  25.911  32.556   7.637
   81POPC   NC3 6491  13.675  16.496   9.390
   81POPC   PO4 6492  13.642  15.789   9.558
   81POPC   GL1 6493  13.633  15.799   9.146
   81POPC   GL2 6494  13.991  15.724   9.107
   81POPC   C1A 6495  13.377  16.026   8.815
   81POPC   D2A 6496  13.362  16.235   8.400
   81POPC   C3A 6497  13.466  16.078   7.981
   81POPC   C4A 6498  13.345  16.129   7.549
   81POPC   C1B 6499  13.901  16.008   8.765
   81POPC   C2B 6500  13.759  15.860   8.360
   81POPC   C3B 6501  14.004  15.846   7.964
   81POPC   C4B 6502  14.058  15.793   7.512
   82POPC   NC3 6503  10.791  11.821   9.909
   82POPC   PO4 6504  10.399  11.353   9.551
   82POPC   GL1 6505  10.501  11.206   9.151
   82POPC   GL2 6506  10.673  11.441   8.950
   82POPC   C1A 6507  10.531  10.989   8.750
   82POPC   D2A 6508  10.575  10.748   8.388
   82POPC   C3A 6509  10.419  10.891   7.996
   82POPC   C4A 6510  10.309  11.259   7.812
   82POPC   C1B 6511  10.266  11.445   8.702
   82POPC   C2B 6512  10.362  11.428   8.289
   82POPC   C3B 6513  10.724  11.330   8.118
   82POPC   C4B 6514  10.879  11.321   7.730
   83POPC   NC3 6515  42.164  23.499   9.495
   83POPC   PO4 6516  42.415  24.047   9.280
   83POPC   GL1 6517  42.278  23.850   8.949
   83POPC   GL2 6518  42.017  23.615   9.027
   83POPC   C1A 6519  42.517  23.671   8.625
   83POPC   D2A 6520  42.789  23.468   8.318
   83POPC   C3A 6521  42.567  23.623   7.948
   83POPC   C4A 6522  42.714  23.944   7.698
   83POPC   C1B 6523  42.001  23.575   8.622
   83POPC   C2B 6524  42.170  23.726   8.255
   83POPC   C3B 6525  42.081  23.420   7.974
   83POPC   C4B 6526  42.258  23.323   7.613
   84POPC   NC3 6527   8.526  17.104   9.395
   84POPC   PO4 6528   7.848  17.099   9.301
   84POPC   GL1 6529   8.104  16.776   9.145
   84POPC   GL2 6530   8.166  16.441   9.311
   84POPC   C1A 6531   8.097  16.670   8.714
   84POPC   D2A 6532   7.956  16.879   8.340
   84POPC   C3A 6533   8.262  16.937   8.001
   84POPC   C4A 6534   8.182  16.807   7.595
   84POPC   C1B 6535   8.440  16.346   8.940
   84POPC   C2B 6536   8.572  16.554   8.543
   84POPC   C3B 6537   8.381  16.463   8.141
   84POPC   C4B 6538   8.349  16.308   7.705
   85POPC   NC3 6539  41.714  36.983   9.666
   85POPC   PO4 6540  41.195  36.844   9.691
   85POPC   GL1 6541  41.406  36.705   9.311
   85POPC   GL2 6542  41.573  36.998   9.145
   85POPC   C1A 6543  41.454  36.616   8.836
   85POPC   D2A 6544  41.279  36.816   8.449
   85POPC   C3A 6545  41.297  36.692   8.007
   85POPC   C4A 6546  41.339  36.966   7.647
   85POPC   C1B 6547  41.685  37.058   8.667
   85POPC   C2B 6548  41.728  36.947   8.193
   85POPC   C3B 6549  41.836  37.088   7.771
   85POPC   C4B 6550  42.228  37.042   7.514
   86POPC   NC3 6551  10.997  12.657   9.730
   86POPC   PO4 6552  11.396  13.067   9.459
   86POPC   GL1 6553  11.185  12.786   9.221
   86POPC   GL2 6554  10.905  12.943   9.131
   86POPC   C1A 6555  11.244  12.764   8.770
   86POPC   D2A 6556  11.481  12.875   8.405
   86POPC   C3A 6557  11.265  12.720   8.058
   86POPC   C4A 6558  11.122  12.300   7.922
   86POPC   C1B 6559  10.970  13.215   8.800
   86POPC   C2B 6560  11.116  13.257   8.378
   86POPC   C3B 6561  10.934  13.162   7.991
   86POPC   C4B 6562  10.922  12.823   7.690
   87POPC   NC3 6563  12.256   1.414   9.501
   87POPC   PO4 6564  11.560   1.386   9.435
   87POPC   GL1 6565  11.747   1.104   9.126
   87POPC   GL2 6566  12.118   1.059   9.129
   87POPC   C1A 6567  11.828   1.188   8.687
   87POPC   D2A 6568  12.106   1.459   8.524
   87POPC   C3A 6569  12.091   1.473   8.080
   87POPC   C4A 6570  12.079   1.563   7.648
   87POPC   C1B 6571  12.312   1.041   8.708
   87POPC   C2B 6572  12.162   1.009   8.280
   87POPC   C3B 6573  12.173   0.996   7.801
   87POPC   C4B 6574  12.442   0.743   7.474
   88POPC   NC3 6575  34.364   5.174   9.537
   88POPC   PO4 6576  34.895   4.889   9.208
   88POPC   GL1 6577  34.547   5.135   9.041
   88POPC   GL2 6578  34.640   5.455   9.177
   88POPC   C1A 6579  34.212   5.139   8.694
   88POPC   D2A 6580  34.240   5.057   8.237
   88POPC   C3A 6581  34.639   4.862   8.096
   88POPC   C4A 6582  34.692   4.871   7.627
   88POPC   C1B 6583  34.777   5.537   8.761
   88POPC   C2B 6584  34.569   5.442   8.352
   88POPC   C3B 6585  34.588   5.334   7.919
   88POPC   C4B 6586  34.963   5.307   7.654
   89POPC   NC3 6587   9.160  12.058   9.473
   89POPC   PO4 6588   8.616  12.441   9.434
   89POPC   GL1 6589   8.834  12.205   9.095
   89POPC   GL2 6590   9.206  12.322   9.053
   89POPC   C1A 6591   9.049  11.893   8.808
   89POPC   D2A 6592   9.157  11.998   8.378
   89POPC   C3A 6593   8.904  11.903   8.034
   89POPC   C4A 6594   9.183  11.866   7.668
   89POPC   C1B 6595   9.074  12.411   8.681
   89POPC   C2B 6596   8.837  12.409   8.354
   89POPC   C3B 6597   9.060  12.371   7.983
   89POPC   C4B 6598   8.859  12.277   7.616
   90POPC   NC3 6599   5.927  17.066   9.880
   90POPC   PO4 6600   5.745  17.543   9.510
   90POPC   GL1 6601   5.702  17.560   9.146
   90POPC   GL2 6602   5.439  17.316   9.154
   90POPC   C1A 6603   5.974  17.638   8.790
   90POPC   D2A 6604   5.977  17.744   8.353
   90POPC   C3A 6605   5.911  17.447   8.005
   90POPC   C4A 6606   5.806  17.612   7.598
   90POPC   C1B 6607   5.594  17.291   8.756
   90POPC   C2B 6608   5.552  17.455   8.400
   90POPC   C3B 6609   5.425  17.285   8.049
   90POPC   C4B 6610   5.611  17.136   7.680
   91POPC   NC3 6611  14.339  14.004   9.458
   91POPC   PO4 6612  14.708  14.554   9.631
   91POPC   GL1 6613  14.546  14.427   9.216
   91POPC   GL2 6614  14.210  14.498   9.077
   91POPC   C1A 6615  14.683  14.233   8.847
   91POPC   D2A 6616  14.778  14.429   8.445
   91POPC   C3A 6617  14.390  14.459   8.228
   91POPC   C4A 6618  14.258  14.336   7.832
   91POPC   C1B 6619  14.489  14.735   8.786
   91POPC   C2B 6620  14.539  14.925   8.370
   91POPC   C3B 6621  14.395  14.844   7.889
   91POPC   C4B 6622  14.470  14.876   7.406
   92POPC   NC3 6623  14.264  32.521   9.673
   92POPC   PO4 6624  14.557  33.210   9.562
   92POPC   GL1 6625  14.362  33.153   9.158
   92POPC   GL2 6626  14.114  32.861   9.107
   92POPC   C1A 6627  14.427  33.056   8.719
   92POPC   D2A 6628  14.720  33.004   8.384
   92POPC   C3A 6629  14.503  33.020   7.984
   92POPC   C4A 6630  14.416  32.946   7.546
   92POPC   C1B 6631  14.120  32.643   8.702
   92POPC   C2B 6632  14.225  32.673   8.265
   92POPC   C3B 6633  14.040  32.808   7.861
   92POPC   C4B 6634  14.045  32.567   7.460
   93POPC   NC3 6635  31.832  42.761   9.785
   93POPC   PO4 6636  31.401  43.280   9.591
   93POPC   GL1 6637  31.359  43.075   9.197
   93POPC   GL2 6638  31.610  43.233   9.072
   93POPC   C1A 6639  31.357  42.980   8.723
   93POPC   D2A 6640  31.515  43.166   8.360
   93POPC   C3A 6641  31.544  42.945   8.009
   93POPC   C4A 6642  31.559  42.952   7.590
   93POPC   C1B 6643  31.506  43.497   8.774
   93POPC   C2B 6644  31.599  43.677   8.399
   93POPC   C3B 6645  31.479  43.600   8.005
   93POPC   C4B 6646  31.648  43.440   7.655
   94POPC   NC3 6647   6.735  11.657   9.587
   94POPC   PO4 6648   7.075  12.270   9.572
   94POPC   GL1 6649   6.834  12.401   9.216
   94POPC   GL2 6650   6.669  12.068   9.215
   94POPC   C1A 6651   6.882  12.421   8.776
   94POPC   D2A 6652   6.889  11.978   8.577
   94POPC   C3A 6653   6.894  11.955   8.139
   94POPC   C4A 6654   7.051  12.204   7.811
   94POPC   C1B 6655   6.484  12.129   8.837
   94POPC   C2B 6656   6.428  12.098   8.365
   94POPC   C3B 6657   6.525  12.204   7.885
   94POPC   C4B 6658   6.462  12.240   7.410
   95POPC   NC3 6659   4.593   3.756   9.739
   95POPC   PO4 6660   4.335   3.157   9.533
   95POPC   GL1 6661   4.386   3.418   9.173
   95POPC   GL2 6662   4.176   3.736   9.230
   95POPC   C1A 6663   4.532   3.458   8.739
   95POPC   D2A 6664   4.289   3.417   8.353
   95POPC   C3A 6665   4.551   3.466   7.993
   95POPC   C4A 6666   4.563   3.644   7.595
   95POPC   C1B 6667   4.027   3.596   8.792
   95POPC   C2B 6668   3.924   3.769   8.347
   95POPC   C3B 6669   4.163   3.810   7.937
   95POPC   C4B 6670   4.136   3.843   7.439
   96POPC   NC3 6671  34.583  10.677   9.544
   96POPC   PO4 6672  34.270  10.282   9.208
   96POPC   GL1 6673  34.653  10.397   9.043
   96POPC   GL2 6674  34.737  10.788   9.084
   96POPC   C1A 6675  34.521  10.308   8.599
   96POPC   D2A 6676  34.356  10.558   8.285
   96POPC   C3A 6677  34.562  10.380   7.950
   96POPC   C4A 6678  34.418  10.030   7.788
   96POPC   C1B 6679  34.672  10.769   8.674
   96POPC   C2B 6680  34.858  10.626   8.333
   96POPC   C3B 6681  34.697  10.861   8.028
   96POPC   C4B 6682  34.746  10.806   7.622
   97POPC   NC3 6683  36.051  11.000   9.616
   97POPC   PO4 6684  36.341  11.604   9.460
   97POPC   GL1 6685  36.152  11.318   9.210
   97POPC   GL2 6686  36.408  11.075   9.224
   97POPC   C1A 6687  35.904  11.310   8.825
   97POPC   D2A 6688  35.636  11.287   8.486
   97POPC   C3A 6689  35.901  11.256   8.100
   97POPC   C4A 6690  35.822  11.497   7.708
   97POPC   C1B 6691  36.517  11.384   8.878
   97POPC   C2B 6692  36.421  11.457   8.465
   97POPC   C3B 6693  36.463  11.193   8.136
   97POPC   C4B 6694  36.318  11.261   7.747
   98POPC   NC3 6695  14.592   0.493   9.573
   98POPC   PO4 6696  13.998   0.760   9.535
   98POPC   GL1 6697  14.153   0.498   9.170
   98POPC   GL2 6698  14.492   0.409   9.084
   98POPC   C1A 6699  14.199   0.571   8.694
   98POPC   D2A 6700  14.141   0.864   8.322
   98POPC   C3A 6701  14.308   0.676   7.932
   98POPC   C4A 6702  14.463   0.373   7.636
   98POPC   C1B 6703  14.656   0.299   8.659
   98POPC   C2B 6704  14.583   0.289   8.208
   98POPC   C3B 6705  14.883   0.213   7.866
   98POPC   C4B 6706  14.932   0.337   7.429
   99POPC   NC3 6707   6.198  40.322   9.477
   99POPC   PO4 6708   5.533  40.186   9.596
   99POPC   GL1 6709   5.756  40.139   9.165
   99POPC   GL2 6710   6.064  39.924   9.127
   99POPC   C1A 6711   5.986  40.261   8.782
   99POPC   D2A 6712   6.184  40.191   8.401
   99POPC   C3A 6713   5.857  40.194   8.098
   99POPC   C4A 6714   5.838  39.996   7.684
   99POPC   C1B 6715   6.291  39.782   8.759
   99POPC   C2B 6716   6.272  39.690   8.297
   99POPC   C3B 6717   6.294  39.934   7.896
   99POPC   C4B 6718   6.257  39.823   7.414
  100POPC   NC3 6719  28.148   2.958   9.595
  100POPC   PO4 6720  28.745   2.687   9.464
  100POPC   GL1 6721  28.417   2.683   9.188
  100POPC   GL2 6722  28.321   3.061   9.136
  100POPC   C1A 6723  28.586   2.479   8.803
  100POPC   D2A 6724  28.532   2.157   8.488
  100POPC   C3A 6725  28.469   2.414   8.136
  100POPC   C4A 6726  28.440   2.616   7.747
  100POPC   C1B 6727  28.227   2.868   8.760
  100POPC   C2B 6728  28.446   2.858   8.409
  100POPC   C3B 6729  28.328   3.003   8.042
  100POPC   C4B 6730  28.013   2.880   7.774
  101POPC   NC3 6731  21.248  27.402   9.545
  101POPC   PO4 6732  21.741  27.826   9.544
  101POPC   GL1 6733  21.485  27.698   9.171
  101POPC   GL2 6734  21.100  27.708   9.162
  101POPC   C1A 6735  21.424  27.807   8.723
  101POPC   D2A 6736  21.323  27.554   8.373
  101POPC   C3A 6737  21.241  27.700   7.998
  101POPC   C4A 6738  21.502  27.649   7.671
  101POPC   C1B 6739  21.028  27.472   8.782
  101POPC   C2B 6740  20.903  27.242   8.414
  101POPC   C3B 6741  21.059  27.209   8.038
  101POPC   C4B 6742  21.088  27.326   7.638
  102POPC   NC3 6743  41.344  22.505   9.458
  102POPC   PO4 6744  41.413  21.857   9.456
  102POPC   GL1 6745  41.515  22.148   9.145
  102POPC   GL2 6746  41.804  22.356   9.215
  102POPC   C1A 6747  41.466  22.204   8.732
  102POPC   D2A 6748  41.616  22.107   8.346
  102POPC   C3A 6749  41.440  22.324   8.050
  102POPC   C4A 6750  41.354  22.194   7.670
  102POPC   C1B 6751  41.684  22.641   8.846
  102POPC   C2B 6752  41.720  22.622   8.392
  102POPC   C3B 6753  41.951  22.387   8.073
  102POPC   C4B 6754  41.878  22.274   7.664
  103POPC   NC3 6755  23.316  32.380   9.685
  103POPC   PO4 6756  23.748  31.953   9.353
  103POPC   GL1 6757  23.769  32.358   9.200
  103POPC   GL2 6758  23.438  32.385   9.180
  103POPC   C1A 6759  23.775  32.465   8.766
  103POPC   D2A 6760  23.516  32.308   8.442
  103POPC   C3A 6761  23.704  32.332   8.041
  103POPC   C4A 6762  23.788  32.225   7.624
  103POPC   C1B 6763  23.304  32.676   8.888
  103POPC   C2B 6764  23.380  32.795   8.489
  103POPC   C3B 6765  23.371  32.709   8.067
  103POPC   C4B 6766  23.636  32.712   7.703
  104POPC   NC3 6767  10.700  11.682   9.394
  104POPC   PO4 6768  10.377  12.237   9.433
  104POPC   GL1 6769  10.098  12.009   9.166
  104POPC   GL2 6770  10.236  11.688   9.141
  104POPC   C1A 6771  10.005  11.965   8.719
  104POPC   D2A 6772  10.291  11.931   8.369
  104POPC   C3A 6773  10.325  12.194   8.034
  104POPC   C4A 6774  10.182  12.129   7.653
  104POPC   C1B 6775  10.498  11.905   8.827
  104POPC   C2B 6776  10.743  11.705   8.496
  104POPC   C3B 6777  10.711  11.839   8.061
  104POPC   C4B 6778  10.493  11.715   7.702
  105POPC   NC3 6779  24.409  14.783   9.768
  105POPC   PO4 6780  24.965  14.636   9.521
  105POPC   GL1 6781  24.715  14.611   9.142
  105POPC   GL2 6782  24.399  14.671   9.216
  105POPC   C1A 6783  24.591  14.511   8.707
  105POPC   D2A 6784  24.763  14.600   8.286
  105POPC   C3A 6785  24.657  14.509   7.843
  105POPC   C4A 6786  24.311  14.505   7.525
  105POPC   C1B 6787  24.138  14.738   8.807
  105POPC   C2B 6788  24.233  14.737   8.367
  105POPC   C3B 6789  24.179  14.437   8.017
  105POPC   C4B 6790  24.018  14.105   7.710
  106POPC   NC3 6791  32.410   3.409   9.650
  106POPC   PO4 6792  31.869   3.543   9.748
  106POPC   GL1 6793  32.140   3.632   9.285
  106POPC   GL2 6794  32.503   3.771   9.239
  106POPC   C1A 6795  32.229   3.489   8.856
  106POPC   D2A 6796  32.507   3.481   8.491
  106POPC   C3A 6797  32.336   3.459   8.058
  106POPC   C4A 6798  31.981   3.530   7.788
  106POPC   C1B 6799  32.522   3.916   8.779
  106POPC   C2B 6800  32.610   3.962   8.330
  106POPC   C3B 6801  32.697   3.807   7.939
  106POPC   C4B 6802  32.427   3.756   7.569
  107POPC   NC3 6803  24.740   5.743   9.382
  107POPC   PO4 6804  25.381   5.728   9.620
  107POPC   GL1 6805  25.259   5.691   9.188
  107POPC   GL2 6806  25.587   5.851   9.138
  107POPC   C1A 6807  25.032   5.532   8.778
  107POPC   D2A 6808  24.721   5.671   8.442
  107POPC   C3A 6809  24.884   5.671   7.987
  107POPC   C4A 6810  25.240   5.508   7.834
  107POPC   C1B 6811  25.349   5.939   8.749
  107POPC   C2B 6812  25.181   5.884   8.344
  107POPC   C3B 6813  25.384   5.996   7.953
  107POPC   C4B 6814  25.802   6.205   7.904
  108POPC   NC3 6815   9.592  29.554   9.432
  108POPC   PO4 6816   9.977  30.012   9.737
  108POPC   GL1 6817  10.032  29.818   9.294
  108POPC   GL2 6818   9.717  29.942   9.132
  108POPC   C1A 6819  10.139  29.823   8.815
  108POPC   D2A 6820   9.977  30.157   8.504
  108POPC   C3A 6821   9.869  30.144   8.050
  108POPC   C4A 6822  10.123  30.240   7.674
  108POPC   C1B 6823   9.633  29.816   8.718
  108POPC   C2B 6824   9.480  30.019   8.361
  108POPC   C3B 6825   9.329  30.089   7.958
  108POPC   C4B 6826   9.415  29.863   7.541
  109POPC   NC3 6827  20.869  35.961   9.507
  109POPC   PO4 6828  20.605  36.468   9.359
  109POPC   GL1 6829  20.440  36.112   9.186
  109POPC   GL2 6830  20.753  36.088   9.013
  109POPC   C1A 6831  20.292  36.075   8.761
  109POPC   D2A 6832  20.328  36.187   8.354
  109POPC   C3A 6833  20.596  36.021   8.084
  109POPC   C4A 6834  20.611  36.105   7.670
  109POPC   C1B 6835  20.780  36.147   8.576
  109POPC   C2B 6836  21.025  36.305   8.219
  109POPC   C3B 6837  21.033  36.406   7.797
  109POPC   C4B 6838  21.075  36.117   7.477
  110POPC   NC3 6839  35.408  42.523   9.632
  110POPC   PO4 6840  35.311  41.968   9.581
  110POPC   GL1 6841  35.289  42.252   9.188
  110POPC   GL2 6842  35.415  42.631   9.133
  110POPC   C1A 6843  35.434  42.278   8.759
  110POPC   D2A 6844  35.533  42.097   8.382
  110POPC   C3A 6845  35.294  42.192   8.010
  110POPC   C4A 6846  35.492  42.240   7.599
  110POPC   C1B 6847  35.295  42.754   8.704
  110POPC   C2B 6848  35.435  42.609   8.281
  110POPC   C3B 6849  35.405  42.681   7.828
  110POPC   C4B 6850  35.331  42.688   7.381
  111POPC   NC3 6851   9.556  16.123   9.606
  111POPC   PO4 6852   9.964  15.611   9.611
  111POPC   GL1 6853   9.704  15.789   9.250
  111POPC   GL2 6854   9.667  16.123   9.123
  111POPC   C1A 6855   9.852  15.723   8.833
  111POPC   D2A 6856   9.730  15.860   8.415
  111POPC   C3A 6857   9.886  15.890   8.019
  111POPC   C4A 6858   9.825  15.690   7.643
  111POPC   C1B 6859   9.412  15.993   8.781
  111POPC   C2B 6860   9.245  16.019   8.383
  111POPC   C3B 6861   9.411  16.075   7.976
  111POPC   C4B 6862   9.567  16.138   7.543
  112POPC   NC3 6863  17.927   1.682   9.521
  112POPC   PO4 6864  18.514   2.047   9.388
  112POPC   GL1 6865  18.203   2.061   9.030
  112POPC   GL2 6866  18.044   1.749   9.025
  112POPC   C1A 6867  18.338   2.209   8.625
  112POPC   D2A 6868  18.545   1.935   8.329
  112POPC   C3A 6869  18.344   1.911   7.926
  112POPC   C4A 6870  18.410   1.848   7.489
  112POPC   C1B 6871  18.076   1.781   8.556
  112POPC   C2B 6872  17.925   1.618   8.172
  112POPC   C3B 6873  17.944   1.664   7.709
  112POPC   C4B 6874  17.925   1.818   7.277
  113POPC   NC3 6875   6.544  16.376   9.564
  113POPC   PO4 6876   6.300  17.047   9.581
  113POPC   GL1 6877   6.452  16.745   9.221
  113POPC   GL2 6878   6.667  16.862   9.001
  113POPC   C1A 6879   6.481  16.454   8.795
  113POPC   D2A 6880   6.431  16.434   8.336
  113POPC   C3A 6881   6.594  16.760   8.003
  113POPC   C4A 6882   6.568  17.015   7.586
  113POPC   C1B 6883   6.883  16.716   8.628
  113POPC   C2B 6884   7.013  16.917   8.255
  113POPC   C3B 6885   7.068  16.885   7.836
  113POPC   C4B 6886   6.899  16.650   7.490
  114POPC   NC3 6887  12.722  14.885   9.407
  114POPC   PO4 6888  13.155  15.347   9.403
  114POPC   GL1 6889  12.954  15.206   9.018
  114POPC   GL2 6890  12.923  14.875   8.923
  114POPC   C1A 6891  13.047  15.247   8.565
  114POPC   D2A 6892  13.185  15.016   8.242
  114POPC   C3A 6893  13.131  15.238   7.860
  114POPC   C4A 6894  12.883  15.262   7.482
  114POPC   C1B 6895  12.611  15.016   8.593
  114POPC   C2B 6896  12.693  15.165   8.212
  114POPC   C3B 6897  12.756  14.931   7.889
  114POPC   C4B 6898  12.544  14.845   7.576
  115POPC   NC3 6899  39.457  41.131   9.532
  115POPC   PO4 6900  39.009  41.739   9.454
  115POPC   GL1 6901  39.251  41.651   9.090
  115POPC   GL2 6902  39.498  41.379   9.086
  115POPC   C1A 6903  39.001  41.593   8.738
  115POPC   D2A 6904  38.802  41.640   8.348
  115POPC   C3A 6905  39.176  41.595   8.158
  115POPC   C4A 6906  39.357  41.630   7.795
  115POPC   C1B 6907  39.360  41.219   8.690
  115POPC   C2B 6908  39.027  41.170   8.434
  115POPC   C3B 6909  38.953  41.134   8.040
  115POPC   C4B 6910  39.292  41.121   7.764
  116POPC   NC3 6911  30.301   4.213   9.554
  116POPC   PO4 6912  29.691   4.579   9.450
  116POPC   GL1 6913  29.672   4.237   9.138
  116POPC   GL2 6914  29.980   4.051   9.099
  116POPC   C1A 6915  29.673   4.254   8.704
  116POPC   D2A 6916  29.808   4.481   8.363
  116POPC   C3A 6917  29.543   4.450   8.026
  116POPC   C4A 6918  29.754   4.490   7.639
  116POPC   C1B 6919  30.190   4.274   8.775
  116POPC   C2B 6920  30.416   4.316   8.385
  116POPC   C3B 6921  30.218   4.414   7.991
  116POPC   C4B 6922  30.199   4.218   7.579
  117POPC   NC3 6923   1.574  22.132   9.303
  117POPC   PO4 6924   0.970  22.223   9.599
  117POPC   GL1 6925   1.116  22.092   9.116
  117POPC   GL2 6926   1.468  21.949   8.863
  117POPC   C1A 6927   1.109  22.208   8.662
  117POPC   D2A 6928   1.288  22.215   8.268
  117POPC   C3A 6929   0.998  21.979   8.042
  117POPC   C4A 6930   0.837  21.908   7.607
  117POPC   C1B 6931   1.607  22.361   8.672
  117POPC   C2B 6932   1.737  22.489   8.251
  117POPC   C3B 6933   1.521  22.525   7.890
  117POPC   C4B 6934   1.280  22.211   7.703
  118POPC   NC3 6935   0.577  27.588   9.353
  118POPC   PO4 6936   0.031  27.837   9.503
  118POPC   GL1 6937   0.124  27.710   9.110
  118POPC   GL2 6938   0.147  27.362   9.190
  118POPC   C1A 6939   0.302  27.611   8.719
  118POPC   D2A 6940   0.624  27.600   8.413
  118POPC   C3A 6941   0.485  27.614   8.014
  118POPC   C4A 6942   0.750  27.639   7.676
  118POPC   C1B 6943   0.209  27.083   8.855
  118POPC   C2B 6944   0.267  27.167   8.430
  118POPC   C3B 6945   0.382  27.086   8.032
  118POPC   C4B 6946   0.347  27.284   7.670
  119POPC   NC3 6947  10.422  15.899   9.664
  119POPC   PO4 6948  11.018  15.832   9.373
  119POPC   GL1 6949  10.612  16.009   9.194
  119POPC   GL2 6950  10.222  15.920   9.202
  119POPC   C1A 6951  10.472  16.200   8.810
  119POPC   D2A 6952  10.558  16.369   8.393
  119POPC   C3A 6953  10.288  16.198   8.078
  119POPC   C4A 6954  10.303  15.937   7.704
  119POPC   C1B 6955  10.383  15.703   8.844
  119POPC   C2B 6956  10.185  15.588   8.469
  119POPC   C3B 6957  10.304  15.599   8.077
  119POPC   C4B 6958  10.496  15.425   7.753
  120POPC   NC3 6959  36.007   5.061   9.460
  120POPC   PO4 6960  36.683   5.279   9.561
  120POPC   GL1 6961  36.412   5.341   9.222
  120POPC   GL2 6962  36.437   4.998   9.135
  120POPC   C1A 6963  36.137   5.401   8.900
  120POPC   D2A 6964  35.967   5.376   8.528
  120POPC   C3A 6965  36.229   5.180   8.253
  120POPC   C4A 6966  36.259   5.211   7.816
  120POPC   C1B 6967  36.253   4.928   8.739
  120POPC   C2B 6968  36.194   4.630   8.424
  120POPC   C3B 6969  36.263   4.710   8.021
  120POPC   C4B 6970  35.969   4.800   7.726
  121POPC   NC3 6971  42.425   3.700   9.462
  121POPC   PO4 6972  41.998   3.138   9.462
  121POPC   GL1 6973  42.298   3.339   9.150
  121POPC   GL2 6974  42.557   3.160   8.994
  121POPC   C1A 6975  42.523   3.643   8.822
  121POPC   D2A 6976  42.226   3.766   8.507
  121POPC   C3A 6977  42.388   3.816   8.120
  121POPC   C4A 6978  42.513   3.724   7.748
  121POPC   C1B 6979  42.244   3.250   8.671
  121POPC   C2B 6980  42.228   3.169   8.251
  121POPC   C3B 6981  42.303   3.288   7.856
  121POPC   C4B 6982  42.111   3.492   7.505
  122POPC   NC3 6983   7.746  43.730   9.362
  122POPC   PO4 6984   7.130  43.935   9.478
  122POPC   GL1 6985   7.281  43.672   9.153
  122POPC   GL2 6986   7.201  43.942   8.962
  122POPC   C1A 6987   7.527  43.621   8.742
  122POPC   D2A 6988   7.644  43.787   8.321
  122POPC   C3A 6989   7.366  43.858   7.960
  122POPC   C4A 6990   7.440  44.090   7.583
  122POPC   C1B 6991   7.158  44.286   8.721
  122POPC   C2B 6992   7.142  44.143   8.319
  122POPC   C3B 6993   7.274  44.383   7.971
  122POPC   C4B 6994   7.109  44.457   7.554
  123POPC   NC3 6995   1.421  32.194   9.392
  123POPC   PO4 6996   0.829  32.475   9.291
  123POPC   GL1 6997   1.061  32.181   9.018
  123POPC   GL2 6998   1.391  31.997   8.933
  123POPC   C1A 6999   1.099  32.223   8.588
  123POPC   D2A 7000   1.174  32.475   8.290
  123POPC   C3A 7001   1.037  32.254   7.954
  123POPC   C4A 7002   0.969  32.232   7.559
  123POPC   C1B 7003   1.552  32.385   8.755
  123POPC   C2B 7004   1.693  32.415   8.322
  123POPC   C3B 7005   1.535  32.264   7.956
  123POPC   C4B 7006   1.481  32.412   7.543
  124POPC   NC3 7007  37.182   7.210   9.369
  124POPC   PO4 7008  37.803   7.486   9.472
  124POPC   GL1 7009  37.653   7.549   9.089
  124POPC   GL2 7010  38.030   7.528   9.027
  124POPC   C1A 7011  37.387   7.432   8.736
  124POPC   D2A 7012  37.350   7.179   8.356
  124POPC   C3A 7013  37.383   7.448   7.999
  124POPC   C4A 7014  37.445   7.280   7.615
  124POPC   C1B 7015  37.908   7.386   8.687
  124POPC   C2B 7016  37.741   7.516   8.350
  124POPC   C3B 7017  37.885   7.374   7.977
  124POPC   C4B 7018  37.915   7.508   7.620
  125POPC   NC3 7019  17.084  29.997   9.295
  125POPC   PO4 7020  17.689  29.736   9.476
  125POPC   GL1 7021  17.497  29.748   9.089
  125POPC   GL2 7022  17.543  30.104   9.047
  125POPC   C1A 7023  17.441  29.806   8.635
  125POPC   D2A 7024  17.399  29.541   8.266
  125POPC   C3A 7025  17.284  29.758   7.899
  125POPC   C4A 7026  17.686  29.960   7.796
  125POPC   C1B 7027  17.244  30.282   8.749
  125POPC   C2B 7028  17.214  30.176   8.335
  125POPC   C3B 7029  17.299  30.269   7.915
  125POPC   C4B 7030  17.351  30.239   7.487
  126POPC   NC3 7031  32.540  30.501   9.537
  126POPC   PO4 7032  32.443  31.080   9.397
  126POPC   GL1 7033  32.558  30.784   9.106
  126POPC   GL2 7034  32.327  30.489   9.093
  126POPC   C1A 7035  32.520  30.740   8.689
  126POPC   D2A 7036  32.165  30.761   8.438
  126POPC   C3A 7037  32.261  30.724   8.030
  126POPC   C4A 7038  32.092  30.913   7.658
  126POPC   C1B 7039  32.189  30.327   8.724
  126POPC   C2B 7040  32.313  30.257   8.326
  126POPC   C3B 7041  32.065  30.254   7.949
  126POPC   C4B 7042  31.873  30.442   7.574
  127POPC   NC3 7043  10.929  43.308   9.530
  127POPC   PO4 7044  10.351  42.880   9.523
  127POPC   GL1 7045  10.278  42.984   9.148
  127POPC   GL2 7046  10.469  43.281   9.217
  127POPC   C1A 7047  10.527  42.899   8.793
  127POPC   D2A 7048  10.740  43.061   8.449
  127POPC   C3A 7049  10.590  42.954   8.012
  127POPC   C4A 7050  10.490  42.987   7.553
  127POPC   C1B 7051  10.725  43.404   8.887
  127POPC   C2B 7052  10.605  43.558   8.497
  127POPC   C3B 7053  10.752  43.437   8.108
  127POPC   C4B 7054  10.546  43.447   7.739
  128POPC   NC3 7055  30.158  10.026   9.535
  128POPC   PO4 7056  30.059   9.392   9.555
  128POPC   GL1 7057  30.216   9.513   9.182
  128POPC   GL2 7058  30.424   9.821   9.155
  128POPC   C1A 7059  30.007   9.558   8.784
  128POPC   D2A 7060  29.933   9.804   8.390
  128POPC   C3A 7061  29.881   9.548   8.020
  128POPC   C4A 7062  29.750   9.621   7.577
  128POPC   C1B 7063  30.325   9.939   8.751
  128POPC   C2B 7064  30.413  10.046   8.351
  128POPC   C3B 7065  30.285   9.880   7.986
  128POPC   C4B 7066  30.207   9.875   7.568
  129POPC   NC3 7067   1.376  18.334   9.579
  129POPC   PO4 7068   0.911  17.899   9.424
  129POPC   GL1 7069   1.108  18.198   9.153
  129POPC   GL2 7070   1.422  18.012   9.187
  129POPC   C1A 7071   1.419  18.300   8.783
  129POPC   D2A 7072   1.613  18.606   8.579
  129POPC   C3A 7073   1.563  18.527   8.153
  129POPC   C4A 7074   1.261  18.498   7.824
  129POPC   C1B 7075   1.203  17.849   8.774
  129POPC   C2B 7076   1.229  18.094   8.355
  129POPC   C3B 7077   1.122  18.018   7.913
  129POPC   C4B 7078   1.257  17.783   7.532
  130POPC   NC3 7079  12.213  38.121   9.462
  130POPC   PO4 7080  11.567  38.267   9.426
  130POPC   GL1 7081  11.856  38.262   9.130
  130POPC   GL2 7082  12.031  38.536   9.211
  130POPC   C1A 7083  12.051  38.064   8.788
  130POPC   D2A 7084  11.929  37.935   8.380
  130POPC   C3A 7085  11.926  38.267   8.096
  130POPC   C4A 7086  12.070  38.332   7.673
  130POPC   C1B 7087  12.140  38.552   8.783
  130POPC   C2B 7088  12.072  38.718   8.399
  130POPC   C3B 7089  12.275  38.650   8.025
  130POPC   C4B 7090  12.484  38.615   7.644
  131POPC   NC3 7091  38.374  33.307   9.343
  131POPC   PO4 7092  38.721  33.733   9.644
  131POPC   GL1 7093  38.718  33.665   9.173
  131POPC   GL2 7094  38.389  33.669   9.006
  131POPC   C1A 7095  38.783  33.551   8.717
  131POPC   D2A 7096  38.498  33.727   8.395
  131POPC   C3A 7097  38.588  33.836   7.957
  131POPC   C4A 7098  38.265  33.708   7.695
  131POPC   C1B 7099  38.381  34.070   8.836
  131POPC   C2B 7100  38.197  34.140   8.454
  131POPC   C3B 7101  38.088  33.987   8.086
  131POPC   C4B 7102  38.192  34.205   7.699
  132POPC   NC3 7103  31.926  43.379   9.429
  132POPC   PO4 7104  32.266  42.794   9.646
  132POPC   GL1 7105  32.353  43.115   9.282
  132POPC   GL2 7106  32.078  43.044   9.060
  132POPC   C1A 7107  32.430  43.313   8.825
  132POPC   D2A 7108  32.372  43.138   8.385
  132POPC   C3A 7109  32.560  43.217   7.963
  132POPC   C4A 7110  32.899  43.081   7.670
  132POPC   C1B 7111  31.928  43.215   8.649
  132POPC   C2B 7112  31.953  43.356   8.201
  132POPC   C3B 7113  32.007  43.090   7.834
  132POPC   C4B 7114  32.066  42.757   7.517
  133POPC   NC3 7115  39.616  36.451   9.436
  133POPC   PO4 7116  39.040  36.108   9.623
  133POPC   GL1 7117  39.199  36.018   9.195
  133POPC   GL2 7118  39.222  36.346   9.153
  133POPC   C1A 7119  38.981  36.079   8.820
  133POPC   D2A 7120  39.011  36.301   8.455
  133POPC   C3A 7121  38.945  36.108   8.082
  133POPC   C4A 7122  39.079  36.009   7.702
  133POPC   C1B 7123  39.385  36.458   8.772
  133POPC   C2B 7124  39.445  36.534   8.316
  133POPC   C3B 7125  39.405  36.359   7.896
  133POPC   C4B 7126  39.421  36.331   7.417
  134POPC   NC3 7127  16.705  30.375   9.528
  134POPC   PO4 7128  16.813  31.028   9.467
  134POPC   GL1 7129  16.974  30.717   9.180
  134POPC   GL2 7130  17.240  30.820   8.954
  134POPC   C1A 7131  16.798  30.624   8.759
  134POPC   D2A 7132  16.598  30.841   8.392
  134POPC   C3A 7133  16.476  30.554   8.062
  134POPC   C4A 7134  16.385  30.616   7.681
  134POPC   C1B 7135  17.253  30.722   8.500
  134POPC   C2B 7136  16.982  30.611   8.141
  134POPC   C3B 7137  16.819  30.886   7.825
  134POPC   C4B 7138  16.947  31.169   7.423
  135POPC   NC3 7139  39.786  24.007   9.715
  135POPC   PO4 7140  39.652  23.550   9.276
  135POPC   GL1 7141  39.929  23.792   9.069
  135POPC   GL2 7142  40.129  23.503   8.996
  135POPC   C1A 7143  40.203  23.904   8.703
  135POPC   D2A 7144  40.289  23.686   8.312
  135POPC   C3A 7145  40.028  23.782   7.980
  135POPC   C4A 7146  39.915  24.083   7.672
  135POPC   C1B 7147  39.857  23.498   8.630
  135POPC   C2B 7148  39.850  23.142   8.392
  135POPC   C3B 7149  40.206  23.136   8.218
  135POPC   C4B 7150  40.305  23.351   7.873
  136POPC   NC3 7151   6.087   1.724   9.439
  136POPC   PO4 7152   5.578   1.290   9.457
  136POPC   GL1 7153   5.559   1.508   9.061
  136POPC   GL2 7154   5.829   1.683   9.028
  136POPC   C1A 7155   5.665   1.445   8.622
  136POPC   D2A 7156   5.952   1.182   8.394
  136POPC   C3A 7157   5.757   1.077   8.036
  136POPC   C4A 7158   5.701   1.127   7.617
  136POPC   C1B 7159   6.148   1.499   8.762
  136POPC   C2B 7160   6.211   1.608   8.336
  136POPC   C3B 7161   6.017   1.509   7.915
  136POPC   C4B 7162   5.959   1.631   7.479
  137POPC   NC3 7163  15.521  20.631   9.385
  137POPC   PO4 7164  14.823  20.693   9.549
  137POPC   GL1 7165  15.054  20.704   9.165
  137POPC   GL2 7166  15.179  20.368   9.104
  137POPC   C1A 7167  15.255  20.739   8.765
  137POPC   D2A 7168  15.049  20.514   8.462
  137POPC   C3A 7169  15.095  20.676   8.051
  137POPC   C4A 7170  15.077  20.563   7.609
  137POPC   C1B 7171  15.445  20.260   8.729
  137POPC   C2B 7172  15.425  20.265   8.251
  137POPC   C3B 7173  15.488  20.344   7.799
  137POPC   C4B 7174  15.383  20.260   7.342
  138POPC   NC3 7175  44.628  27.417   9.618
  138POPC   PO4 7176  44.350  28.025   9.598
  138POPC   GL1 7177  44.358  27.719   9.248
  138POPC   GL2 7178  44.644  27.523   9.144
  138POPC   C1A 7179  44.449  27.794   8.779
  138POPC   D2A 7180  44.756  27.809   8.454
  138POPC   C3A 7181  44.539  27.656   8.113
  138POPC   C4A 7182  44.463  27.795   7.732
  138POPC   C1B 7183  44.817  27.403   8.775
  138POPC   C2B 7184  44.749  27.252   8.371
  138POPC   C3B 7185  44.978  27.394   8.042
  138POPC   C4B 7186  44.858  27.496   7.624
  139POPC   NC3 7187  44.617  29.050   9.499
  139POPC   PO4 7188  44.303  29.646   9.467
  139POPC   GL1 7189  44.231  29.309   9.136
  139POPC   GL2 7190  44.384  28.962   9.053
  139POPC   C1A 7191  44.367  29.307   8.681
  139POPC   D2A 7192  44.195  29.127   8.294
  139POPC   C3A 7193  44.398  29.352   7.968
  139POPC   C4A 7194  44.762  29.100   7.969
  139POPC   C1B 7195  44.728  28.907   8.730
  139POPC   C2B 7196  44.883  28.623   8.368
  139POPC   C3B 7197  44.831  28.610   7.924
  139POPC   C4B 7198  44.577  28.803   7.590
  140POPC   NC3 7199   3.180   3.326   9.558
  140POPC   PO4 7200   2.739   3.838   9.646
  140POPC   GL1 7201   2.849   3.740   9.197
  140POPC   GL2 7202   2.840   3.401   9.150
  140POPC   C1A 7203   2.998   3.698   8.738
  140POPC   D2A 7204   2.820   3.910   8.360
  140POPC   C3A 7205   2.837   3.721   7.979
  140POPC   C4A 7206   2.774   3.426   7.691
  140POPC   C1B 7207   2.798   3.228   8.752
  140POPC   C2B 7208   2.784   3.343   8.339
  140POPC   C3B 7209   3.001   3.119   8.027
  140POPC   C4B 7210   2.991   2.939   7.635
  141POPC   NC3 7211  10.658  31.881   9.508
  141POPC   PO4 7212  10.255  31.359   9.533
  141POPC   GL1 7213  10.464  31.508   9.183
  141POPC   GL2 7214  10.253  31.771   9.186
  141POPC   C1A 7215  10.666  31.468   8.771
  141POPC   D2A 7216  10.859  31.286   8.415
  141POPC   C3A 7217  10.723  31.469   8.020
  141POPC   C4A 7218  10.400  31.398   7.699
  141POPC   C1B 7219  10.263  31.790   8.785
  141POPC   C2B 7220  10.543  31.892   8.463
  141POPC   C3B 7221  10.402  31.860   8.053
  141POPC   C4B 7222  10.653  31.834   7.675
  142POPC   NC3 7223  40.311   0.079  10.029
  142POPC   PO4 7224  40.304  44.608   9.557
  142POPC   GL1 7225  40.128  44.798   9.194
  142POPC   GL2 7226  39.779  44.779   9.150
  142POPC   C1A 7227  40.127  44.857   8.734
  142POPC   D2A 7228  40.326  44.963   8.318
  142POPC   C3A 7229  40.147  44.780   7.930
  142POPC   C4A 7230  40.341  44.456   7.648
  142POPC   C1B 7231  39.805  44.475   8.791
  142POPC   C2B 7232  39.852  44.606   8.345
  142POPC   C3B 7233  39.885  44.351   7.945
  142POPC   C4B 7234  39.607  44.371   7.599
  143POPC   NC3 7235   5.907  15.075   9.587
  143POPC   PO4 7236   6.211  14.485   9.482
  143POPC   GL1 7237   5.927  14.417   9.090
  143POPC   GL2 7238   5.971  14.075   8.914
  143POPC   C1A 7239   6.072  14.543   8.667
  143POPC   D2A 7240   6.146  14.402   8.249
  143POPC   C3A 7241   5.901  14.540   7.869
  143POPC   C4A 7242   5.760  14.297   7.501
  143POPC   C1B 7243   5.661  14.243   8.648
  143POPC   C2B 7244   5.580  14.419   8.234
  143POPC   C3B 7245   5.376  14.445   7.812
  143POPC   C4B 7246   5.061  14.169   7.624
  144POPC   NC3 7247  25.640  43.766   9.556
  144POPC   PO4 7248  26.242  43.905   9.683
  144POPC   GL1 7249  26.200  43.978   9.250
  144POPC   GL2 7250  25.845  44.077   9.184
  144POPC   C1A 7251  26.119  43.885   8.816
  144POPC   D2A 7252  25.954  44.237   8.567
  144POPC   C3A 7253  25.975  44.136   8.137
  144POPC   C4A 7254  26.280  44.121   7.831
  144POPC   C1B 7255  25.601  43.935   8.830
  144POPC   C2B 7256  25.483  43.964   8.411
  144POPC   C3B 7257  25.586  43.795   8.001
  144POPC   C4B 7258  25.877  43.850   7.685
  145POPC   NC3 7259  31.632  44.765   9.495
  145POPC   PO4 7260  32.310  44.616   9.546
  145POPC   GL1 7261  32.210  44.577   9.100
  145POPC   GL2 7262  31.851  44.555   9.070
  145POPC   C1A 7263  32.273  44.735   8.679
  145POPC   D2A 7264  32.527  44.815   8.307
  145POPC   C3A 7265  32.554  44.505   7.980
  145POPC   C4A 7266  32.379  44.466   7.557
  145POPC   C1B 7267  31.831  44.962   8.771
  145POPC   C2B 7268  31.986  44.938   8.293
  145POPC   C3B 7269  32.156  44.808   7.876
  145POPC   C4B 7270  32.017  44.765   7.407
  146POPC   NC3 7271  18.542  31.969   9.215
  146POPC   PO4 7272  19.083  32.214   9.536
  146POPC   GL1 7273  18.973  32.280   9.141
  146POPC   GL2 7274  18.743  32.543   9.168
  146POPC   C1A 7275  19.168  32.179   8.758
  146POPC   D2A 7276  19.007  32.191   8.364
  146POPC   C3A 7277  19.242  32.216   8.031
  146POPC   C4A 7278  19.111  31.956   7.730
  146POPC   C1B 7279  18.688  32.405   8.730
  146POPC   C2B 7280  18.604  32.542   8.319
  146POPC   C3B 7281  18.832  32.472   7.936
  146POPC   C4B 7282  18.714  32.243   7.579
  147POPC   NC3 7283   3.408  38.781   9.420
  147POPC   PO4 7284   3.813  39.322   9.575
  147POPC   GL1 7285   3.598  39.204   9.218
  147POPC   GL2 7286   3.784  38.917   9.116
  147POPC   C1A 7287   3.398  39.275   8.814
  147POPC   D2A 7288   3.549  39.254   8.395
  147POPC   C3A 7289   3.454  39.462   8.042
  147POPC   C4A 7290   3.424  39.564   7.631
  147POPC   C1B 7291   3.692  38.848   8.663
  147POPC   C2B 7292   3.733  38.819   8.209
  147POPC   C3B 7293   3.529  38.949   7.856
  147POPC   C4B 7294   3.168  39.157   7.756
  148POPC   NC3 7295   2.548   0.338   9.435
  148POPC   PO4 7296   1.814   0.415   9.418
  148POPC   GL1 7297   2.083   0.495   9.087
  148POPC   GL2 7298   2.324   0.746   9.165
  148POPC   C1A 7299   2.030   0.408   8.648
  148POPC   D2A 7300   2.130   0.441   8.214
  148POPC   C3A 7301   1.818   0.510   7.929
  148POPC   C4A 7302   1.633   0.269   7.586
  148POPC   C1B 7303   2.166   0.894   8.763
  148POPC   C2B 7304   1.897   0.893   8.407
  148POPC   C3B 7305   2.088   0.932   8.027
  148POPC   C4B 7306   2.126   0.736   7.608
  149POPC   NC3 7307  37.313  28.324   9.381
  149POPC   PO4 7308  38.022  28.357   9.452
  149POPC   GL1 7309  37.951  28.463   9.067
  149POPC   GL2 7310  37.644  28.633   9.114
  149POPC   C1A 7311  37.895  28.165   8.779
  149POPC   D2A 7312  37.678  28.168   8.415
  149POPC   C3A 7313  37.592  28.243   7.976
  149POPC   C4A 7314  37.767  28.564   7.748
  149POPC   C1B 7315  37.469  28.562   8.695
  149POPC   C2B 7316  37.531  28.678   8.264
  149POPC   C3B 7317  37.283  28.742   7.896
  149POPC   C4B 7318  37.127  28.366   7.752
  150POPC   NC3 7319  23.750  28.756   9.439
  150POPC   PO4 7320  23.674  28.079   9.681
  150POPC   GL1 7321  23.738  28.243   9.227
  150POPC   GL2 7322  23.589  28.535   9.036
  150POPC   C1A 7323  23.803  28.201   8.751
  150POPC   D2A 7324  23.926  28.501   8.430
  150POPC   C3A 7325  23.689  28.405   8.076
  150POPC   C4A 7326  23.755  28.052   7.784
  150POPC   C1B 7327  23.580  28.806   8.666
  150POPC   C2B 7328  23.528  29.011   8.252
  150POPC   C3B 7329  23.417  28.828   7.879
  150POPC   C4B 7330  23.532  28.470   7.596
  151POPC   NC3 7331  35.920  43.624   9.451
  151POPC   PO4 7332  36.316  44.171   9.376
  151POPC   GL1 7333  36.193  43.840   9.087
  151POPC   GL2 7334  35.899  43.909   8.887
  151POPC   C1A 7335  36.311  43.638   8.701
  151POPC   D2A 7336  36.095  43.838   8.361
  151POPC   C3A 7337  36.133  43.722   7.963
  151POPC   C4A 7338  36.391  43.426   7.774
  151POPC   C1B 7339  36.310  44.146   8.721
  151POPC   C2B 7340  36.547  44.122   8.402
  151POPC   C3B 7341  36.570  44.290   8.023
  151POPC   C4B 7342  36.287  44.130   7.711
  152POPC   NC3 7343  14.232  34.530   9.570
  152POPC   PO4 7344  14.890  34.714   9.623
  152POPC   GL1 7345  14.623  34.623   9.228
  152POPC   GL2 7346  14.253  34.548   9.067
  152POPC   C1A 7347  14.653  34.690   8.799
  152POPC   D2A 7348  14.675  34.483   8.406
  152POPC   C3A 7349  14.480  34.519   8.038
  152POPC   C4A 7350  14.669  34.671   7.658
  152POPC   C1B 7351  14.171  34.568   8.584
  152POPC   C2B 7352  14.053  34.814   8.188
  152POPC   C3B 7353  14.078  34.689   7.761
  152POPC   C4B 7354  14.291  34.408   7.493
  153POPC   NC3 7355  42.028  44.184   9.620
  153POPC   PO4 7356  42.621  44.111   9.835
  153POPC   GL1 7357  42.468  43.997   9.336
  153POPC   GL2 7358  42.538  44.215   9.024
  153POPC   C1A 7359  42.356  43.776   8.890
  153POPC   D2A 7360  42.554  43.732   8.446
  153POPC   C3A 7361  42.272  43.798   8.083
  153POPC   C4A 7362  42.360  43.816   7.663
  153POPC   C1B 7363  42.332  44.267   8.599
  153POPC   C2B 7364  42.244  44.333   8.132
  153POPC   C3B 7365  42.078  44.218   7.727
  153POPC   C4B 7366  41.826  44.336   7.357
  154POPC   NC3 7367   4.856  38.281   9.681
  154POPC   PO4 7368   5.272  38.725   9.457
  154POPC   GL1 7369   5.021  38.501   9.197
  154POPC   GL2 7370   4.718  38.642   9.328
  154POPC   C1A 7371   5.108  38.537   8.752
  154POPC   D2A 7372   5.207  38.647   8.329
  154POPC   C3A 7373   5.151  38.307   8.031
  154POPC   C4A 7374   5.082  38.136   7.579
  154POPC   C1B 7375   4.642  38.688   8.894
  154POPC   C2B 7376   4.671  38.524   8.462
  154POPC   C3B 7377   4.767  38.677   8.057
  154POPC   C4B 7378   4.992  38.622   7.645
  155POPC   NC3 7379  22.422  31.956   9.537
  155POPC   PO4 7380  22.050  32.545   9.511
  155POPC   GL1 7381  22.194  32.468   9.126
  155POPC   GL2 7382  22.230  32.125   9.090
  155POPC   C1A 7383  22.075  32.502   8.718
  155POPC   D2A 7384  22.079  32.265   8.321
  155POPC   C3A 7385  22.495  32.315   8.062
  155POPC   C4A 7386  22.496  32.449   7.620
  155POPC   C1B 7387  22.152  31.905   8.727
  155POPC   C2B 7388  21.965  31.674   8.418
  155POPC   C3B 7389  21.977  31.840   8.056
  155POPC   C4B 7390  22.166  32.089   7.755
  156POPC   NC3 7391  39.373  38.875   9.551
  156POPC   PO4 7392  39.258  38.243   9.595
  156POPC   GL1 7393  39.225  38.498   9.226
  156POPC   GL2 7394  38.958  38.321   9.126
  156POPC   C1A 7395  39.276  38.679   8.809
  156POPC   D2A 7396  39.539  38.727   8.452
  156POPC   C3A 7397  39.350  38.782   8.066
  156POPC   C4A 7398  39.384  38.602   7.664
  156POPC   C1B 7399  38.926  38.378   8.664
  156POPC   C2B 7400  38.953  38.437   8.220
  156POPC   C3B 7401  39.318  38.269   8.034
  156POPC   C4B 7402  39.361  37.948   7.709
  157POPC   NC3 7403  14.836  21.132   9.355
  157POPC   PO4 7404  15.173  21.697   9.505
  157POPC   GL1 7405  15.117  21.520   9.121
  157POPC   GL2 7406  15.294  21.195   9.111
  157POPC   C1A 7407  14.903  21.635   8.761
  157POPC   D2A 7408  15.106  21.644   8.397
  157POPC   C3A 7409  14.890  21.414   8.073
  157POPC   C4A 7410  14.988  21.612   7.710
  157POPC   C1B 7411  15.259  21.231   8.662
  157POPC   C2B 7412  15.462  21.000   8.284
  157POPC   C3B 7413  15.479  20.932   7.830
  157POPC   C4B 7414  15.073  21.097   7.665
  158POPC   NC3 7415  32.384  11.394   9.670
  158POPC   PO4 7416  31.970  10.948   9.633
  158POPC   GL1 7417  32.089  11.015   9.186
  158POPC   GL2 7418  32.387  11.194   9.171
  158POPC   C1A 7419  31.955  11.186   8.762
  158POPC   D2A 7420  31.710  11.268   8.389
  158POPC   C3A 7421  31.893  11.261   8.003
  158POPC   C4A 7422  32.098  11.239   7.628
  158POPC   C1B 7423  32.391  11.447   8.797
  158POPC   C2B 7424  32.179  11.508   8.375
  158POPC   C3B 7425  32.319  11.569   7.939
  158POPC   C4B 7426  32.586  11.424   7.582
  159POPC   NC3 7427  16.131   7.393   9.791
  159POPC   PO4 7428  16.038   7.280   9.186
  159POPC   GL1 7429  15.739   7.316   8.978
  159POPC   GL2 7430  15.536   7.059   9.087
  159POPC   C1A 7431  15.775   7.403   8.564
  159POPC   D2A 7432  15.910   7.600   8.226
  159POPC   C3A 7433  16.328   7.672   8.183
  159POPC   C4A 7434  16.280   7.666   7.779
  159POPC   C1B 7435  15.720   6.905   8.680
  159POPC   C2B 7436  15.843   6.946   8.264
  159POPC   C3B 7437  15.878   7.173   7.890
  159POPC   C4B 7438  15.601   7.035   7.565
  160POPC   NC3 7439  13.176  12.139   9.363
  160POPC   PO4 7440  12.641  12.032   9.675
  160POPC   GL1 7441  12.706  12.067   9.216
  160POPC   GL2 7442  12.443  12.250   9.149
  160POPC   C1A 7443  12.955  12.053   8.773
  160POPC   D2A 7444  13.015  11.863   8.358
  160POPC   C3A 7445  12.716  11.824   8.004
  160POPC   C4A 7446  13.042  11.879   7.722
  160POPC   C1B 7447  12.447  12.009   8.796
  160POPC   C2B 7448  12.579  12.199   8.437
  160POPC   C3B 7449  12.699  12.319   8.077
  160POPC   C4B 7450  12.571  12.249   7.707
  161POPC   NC3 7451   5.709  12.145   9.774
  161POPC   PO4 7452   6.294  11.858   9.551
  161POPC   GL1 7453   5.923  12.011   9.324
  161POPC   GL2 7454   6.084  12.219   9.139
  161POPC   C1A 7455   5.604  12.246   9.013
  161POPC   D2A 7456   5.510  12.189   8.547
  161POPC   C3A 7457   5.550  12.147   8.068
  161POPC   C4A 7458   5.583  11.911   7.646
  161POPC   C1B 7459   6.010  12.186   8.729
  161POPC   C2B 7460   5.968  12.351   8.368
  161POPC   C3B 7461   6.044  12.134   8.030
  161POPC   C4B 7462   6.070  12.058   7.653
  162POPC   NC3 7463  23.510  29.725   9.491
  162POPC   PO4 7464  23.915  30.254   9.461
  162POPC   GL1 7465  23.834  30.026   9.100
  162POPC   GL2 7466  23.876  29.656   9.106
  162POPC   C1A 7467  23.791  30.248   8.679
  162POPC   D2A 7468  23.628  30.308   8.234
  162POPC   C3A 7469  23.872  30.098   7.907
  162POPC   C4A 7470  23.927  29.704   7.660
  162POPC   C1B 7471  23.547  29.789   8.777
  162POPC   C2B 7472  23.357  29.809   8.380
  162POPC   C3B 7473  23.505  29.722   7.976
  162POPC   C4B 7474  23.453  29.877   7.576
  163POPC   NC3 7475  40.279  16.472   9.279
  163POPC   PO4 7476  39.855  16.926   9.529
  163POPC   GL1 7477  40.009  16.898   9.122
  163POPC   GL2 7478  39.825  16.600   9.091
  163POPC   C1A 7479  40.094  16.713   8.685
  163POPC   D2A 7480  40.154  16.563   8.257
  163POPC   C3A 7481  40.036  16.859   7.946
  163POPC   C4A 7482  40.223  16.942   7.547
  163POPC   C1B 7483  39.640  16.339   8.795
  163POPC   C2B 7484  39.761  16.257   8.368
  163POPC   C3B 7485  39.676  16.498   8.027
  163POPC   C4B 7486  39.837  16.506   7.638
  164POPC   NC3 7487  18.080  29.396   9.418
  164POPC   PO4 7488  18.430  28.773   9.357
  164POPC   GL1 7489  18.342  29.104   9.072
  164POPC   GL2 7490  18.550  29.385   9.159
  164POPC   C1A 7491  18.173  29.095   8.655
  164POPC   D2A 7492  18.134  28.724   8.408
  164POPC   C3A 7493  18.175  28.783   7.966
  164POPC   C4A 7494  18.452  29.005   7.737
  164POPC   C1B 7495  18.773  29.378   8.755
  164POPC   C2B 7496  18.643  29.262   8.359
  164POPC   C3B 7497  18.275  29.265   8.147
  164POPC   C4B 7498  18.202  29.487   7.785
  165POPC   NC3 7499  37.210  43.193   9.497
  165POPC   PO4 7500  36.794  42.766   9.707
  165POPC   GL1 7501  36.746  43.033   9.281
  165POPC   GL2 7502  37.053  42.950   9.087
  165POPC   C1A 7503  36.752  43.264   8.846
  165POPC   D2A 7504  37.042  43.010   8.561
  165POPC   C3A 7505  37.044  42.963   8.104
  165POPC   C4A 7506  36.759  43.069   7.741
  165POPC   C1B 7507  37.270  43.331   8.878
  165POPC   C2B 7508  37.295  43.642   8.550
  165POPC   C3B 7509  37.143  43.550   8.142
  165POPC   C4B 7510  37.198  43.317   7.764
  166POPC   NC3 7511  15.627  31.764   9.503
  166POPC   PO4 7512  15.822  31.155   9.465
  166POPC   GL1 7513  15.778  31.461   9.127
  166POPC   GL2 7514  15.990  31.797   9.146
  166POPC   C1A 7515  15.777  31.413   8.710
  166POPC   D2A 7516  15.555  31.273   8.359
  166POPC   C3A 7517  15.658  31.439   7.956
  166POPC   C4A 7518  15.599  31.261   7.537
  166POPC   C1B 7519  16.108  31.795   8.707
  166POPC   C2B 7520  16.054  31.573   8.294
  166POPC   C3B 7521  16.147  31.447   7.855
  166POPC   C4B 7522  16.377  31.637   7.530
  167POPC   NC3 7523  43.640  24.290   9.517
  167POPC   PO4 7524  44.201  24.685   9.509
  167POPC   GL1 7525  43.939  24.520   9.171
  167POPC   GL2 7526  43.990  24.203   9.048
  167POPC   C1A 7527  43.707  24.605   8.780
  167POPC   D2A 7528  43.858  24.619   8.345
  167POPC   C3A 7529  43.585  24.705   7.998
  167POPC   C4A 7530  43.711  24.680   7.532
  167POPC   C1B 7531  43.859  24.132   8.598
  167POPC   C2B 7532  43.621  24.175   8.189
  167POPC   C3B 7533  43.899  24.311   7.889
  167POPC   C4B 7534  44.306  24.108   7.829
  168POPC   NC3 7535  35.665  18.120   9.379
  168POPC   PO4 7536  35.092  18.329   9.650
  168POPC   GL1 7537  35.224  18.410   9.173
  168POPC   GL2 7538  35.546  18.529   9.119
  168POPC   C1A 7539  35.257  18.380   8.683
  168POPC   D2A 7540  34.968  18.151   8.376
  168POPC   C3A 7541  35.007  18.127   7.935
  168POPC   C4A 7542  35.075  18.005   7.509
  168POPC   C1B 7543  35.766  18.344   8.784
  168POPC   C2B 7544  35.739  18.435   8.383
  168POPC   C3B 7545  35.474  18.219   8.152
  168POPC   C4B 7546  35.447  18.316   7.739
  169POPC   NC3 7547  32.922  18.167   9.781
  169POPC   PO4 7548  33.398  18.311   9.331
  169POPC   GL1 7549  33.221  18.215   8.978
  169POPC   GL2 7550  33.298  17.859   8.916
  169POPC   C1A 7551  33.006  18.417   8.642
  169POPC   D2A 7552  32.754  18.395   8.260
  169POPC   C3A 7553  32.972  18.388   7.838
  169POPC   C4A 7554  33.353  18.533   7.642
  169POPC   C1B 7555  33.238  17.937   8.549
  169POPC   C2B 7556  33.191  18.136   8.238
  169POPC   C3B 7557  33.186  17.929   7.916
  169POPC   C4B 7558  33.323  18.030   7.513
  170POPC   NC3 7559  20.036  37.431   9.526
  170POPC   PO4 7560  19.459  37.675   9.370
  170POPC   GL1 7561  19.714  37.529   9.075
  170POPC   GL2 7562  19.995  37.712   9.093
  170POPC   C1A 7563  19.817  37.543   8.644
  170POPC   D2A 7564  19.921  37.344   8.286
  170POPC   C3A 7565  19.709  37.631   7.996
  170POPC   C4A 7566  19.366  37.593   7.726
  170POPC   C1B 7567  20.166  37.908   8.720
  170POPC   C2B 7568  20.113  37.816   8.299
  170POPC   C3B 7569  20.213  37.705   7.911
  170POPC   C4B 7570  20.370  37.530   7.574
  171POPC   NC3 7571  24.727   4.706   9.536
  171POPC   PO4 7572  24.665   5.409   9.713
  171POPC   GL1 7573  24.400   5.341   9.313
  171POPC   GL2 7574  24.440   4.992   9.209
  171POPC   C1A 7575  24.476   5.371   8.848
  171POPC   D2A 7576  24.632   5.139   8.494
  171POPC   C3A 7577  24.572   5.293   8.098
  171POPC   C4A 7578  24.784   5.217   7.733
  171POPC   C1B 7579  24.330   4.823   8.786
  171POPC   C2B 7580  24.388   4.704   8.337
  171POPC   C3B 7581  24.564   4.800   7.928
  171POPC   C4B 7582  24.576   4.821   7.444
  172POPC   NC3 7583  18.307  10.140   9.499
  172POPC   PO4 7584  18.521  10.812   9.389
  172POPC   GL1 7585  18.294  10.497   9.131
  172POPC   GL2 7586  18.543  10.257   8.997
  172POPC   C1A 7587  18.112  10.349   8.713
  172POPC   D2A 7588  17.874  10.331   8.320
  172POPC   C3A 7589  18.048  10.460   7.946
  172POPC   C4A 7590  18.113  10.850   7.783
  172POPC   C1B 7591  18.503  10.673   8.705
  172POPC   C2B 7592  18.305  10.809   8.304
  172POPC   C3B 7593  18.622  10.818   7.989
  172POPC   C4B 7594  18.757  10.427   7.801
  173POPC   NC3 7595  13.127  23.763   9.461
  173POPC   PO4 7596  12.558  24.122   9.454
  173POPC   GL1 7597  12.572  23.926   9.071
  173POPC   GL2 7598  12.852  23.745   9.044
  173POPC   C1A 7599  12.503  23.813   8.673
  173POPC   D2A 7600  12.680  24.032   8.286
  173POPC   C3A 7601  12.729  23.832   7.926
  173POPC   C4A 7602  12.566  23.442   7.850
  173POPC   C1B 7603  12.999  23.853   8.638
  173POPC   C2B 7604  12.831  23.509   8.367
  173POPC   C3B 7605  13.046  23.443   8.011
  173POPC   C4B 7606  13.234  23.886   7.972
  174POPC   NC3 7607  14.398  36.059   9.575
  174POPC   PO4 7608  14.304  36.778   9.511
  174POPC   GL1 7609  14.412  36.408   9.197
  174POPC   GL2 7610  14.337  36.058   9.080
  174POPC   C1A 7611  14.679  36.393   8.823
  174POPC   D2A 7612  14.690  36.166   8.436
  174POPC   C3A 7613  14.602  36.265   8.004
  174POPC   C4A 7614  14.634  35.946   7.683
  174POPC   C1B 7615  14.194  36.281   8.713
  174POPC   C2B 7616  14.181  36.088   8.302
  174POPC   C3B 7617  14.193  35.901   7.898
  174POPC   C4B 7618  14.213  36.154   7.509
  175POPC   NC3 7619  41.025  19.447   9.312
  175POPC   PO4 7620  40.701  20.032   9.515
  175POPC   GL1 7621  40.788  19.887   9.150
  175POPC   GL2 7622  41.148  19.942   9.176
  175POPC   C1A 7623  40.627  19.795   8.747
  175POPC   D2A 7624  40.511  19.519   8.404
  175POPC   C3A 7625  40.634  19.746   8.025
  175POPC   C4A 7626  40.904  19.580   7.738
  175POPC   C1B 7627  41.089  20.020   8.760
  175POPC   C2B 7628  40.918  20.003   8.349
  175POPC   C3B 7629  41.109  20.024   7.950
  175POPC   C4B 7630  41.374  19.720   7.726
  176POPC   NC3 7631  13.485   9.054   9.918
  176POPC   PO4 7632  13.993   9.175   9.473
  176POPC   GL1 7633  13.820   9.140   9.057
  176POPC   GL2 7634  13.684   8.831   9.037
  176POPC   C1A 7635  13.825   9.107   8.598
  176POPC   D2A 7636  13.661   8.919   8.259
  176POPC   C3A 7637  13.619   9.179   7.907
  176POPC   C4A 7638  13.575   9.175   7.423
  176POPC   C1B 7639  14.030   8.689   8.785
  176POPC   C2B 7640  14.182   8.788   8.374
  176POPC   C3B 7641  14.006   8.740   7.937
  176POPC   C4B 7642  13.582   8.710   7.718
  177POPC   NC3 7643  18.016  22.138   9.419
  177POPC   PO4 7644  18.450  22.577   9.304
  177POPC   GL1 7645  18.333  22.283   9.070
  177POPC   GL2 7646  17.985  22.425   8.997
  177POPC   C1A 7647  18.175  21.996   8.762
  177POPC   D2A 7648  18.357  21.854   8.377
  177POPC   C3A 7649  18.179  21.956   7.987
  177POPC   C4A 7650  18.172  22.034   7.560
  177POPC   C1B 7651  18.268  22.465   8.610
  177POPC   C2B 7652  18.264  22.401   8.190
  177POPC   C3B 7653  18.522  22.319   7.816
  177POPC   C4B 7654  18.469  22.420   7.380
  178POPC   NC3 7655  22.712  30.283   9.665
  178POPC   PO4 7656  23.026  29.653   9.554
  178POPC   GL1 7657  22.867  29.931   9.257
  178POPC   GL2 7658  23.244  30.020   9.176
  178POPC   C1A 7659  22.588  29.837   8.879
  178POPC   D2A 7660  22.778  29.630   8.506
  178POPC   C3A 7661  22.685  29.714   8.062
  178POPC   C4A 7662  22.970  29.723   7.708
  178POPC   C1B 7663  23.063  29.964   8.777
  178POPC   C2B 7664  22.923  30.101   8.361
  178POPC   C3B 7665  23.179  30.131   7.991
  178POPC   C4B 7666  23.076  30.232   7.584
  179POPC   NC3 7667  17.535  25.459   9.543
  179POPC   PO4 7668  17.834  24.841   9.368
  179POPC   GL1 7669  17.551  25.092   9.136
  179POPC   GL2 7670  17.593  25.427   9.047
  179POPC   C1A 7671  17.484  25.054   8.717
  179POPC   D2A 7672  17.221  25.109   8.382
  179POPC   C3A 7673  17.502  25.023   8.062
  179POPC   C4A 7674  17.297  24.931   7.722
  179POPC   C1B 7675  17.483  25.577   8.681
  179POPC   C2B 7676  17.508  25.511   8.275
  179POPC   C3B 7677  17.350  25.494   7.883
  179POPC   C4B 7678  17.600  25.737   7.643
  180POPC   NC3 7679  37.986  17.298   9.572
  180POPC   PO4 7680  38.474  17.828   9.491
  180POPC   GL1 7681  38.551  17.574   9.123
  180POPC   GL2 7682  38.306  17.352   9.169
  180POPC   C1A 7683  38.725  17.411   8.746
  180POPC   D2A 7684  38.575  17.150   8.374
  180POPC   C3A 7685  38.485  17.324   7.946
  180POPC   C4A 7686  38.681  17.496   7.554
  180POPC   C1B 7687  38.087  17.517   8.842
  180POPC   C2B 7688  38.129  17.465   8.413
  180POPC   C3B 7689  38.164  17.720   8.052
  180POPC   C4B 7690  38.097  17.575   7.666
  181POPC   NC3 7691  12.691  13.194   9.430
  181POPC   PO4 7692  12.985  13.879   9.559
  181POPC   GL1 7693  13.062  13.573   9.247
  181POPC   GL2 7694  12.714  13.614   9.140
  181POPC   C1A 7695  13.100  13.529   8.795
  181POPC   D2A 7696  12.872  13.664   8.421
  181POPC   C3A 7697  13.080  13.574   8.024
  181POPC   C4A 7698  12.921  13.518   7.628
  181POPC   C1B 7699  12.577  13.405   8.783
  181POPC   C2B 7700  12.431  13.292   8.406
  181POPC   C3B 7701  12.549  13.482   8.054
  181POPC   C4B 7702  12.529  13.219   7.743
  182POPC   NC3 7703  34.894  33.166   9.613
  182POPC   PO4 7704  34.528  32.681   9.488
  182POPC   GL1 7705  34.588  32.992   9.192
  182POPC   GL2 7706  34.897  33.077   9.109
  182POPC   C1A 7707  34.368  33.044   8.833
  182POPC   D2A 7708  34.491  32.969   8.421
  182POPC   C3A 7709  34.307  33.094   8.080
  182POPC   C4A 7710  34.367  32.988   7.688
  182POPC   C1B 7711  34.862  33.232   8.704
  182POPC   C2B 7712  34.983  33.041   8.310
  182POPC   C3B 7713  34.837  32.991   7.887
  182POPC   C4B 7714  34.840  33.073   7.406
  183POPC   NC3 7715  30.759  16.195   9.378
  183POPC   PO4 7716  30.893  16.832   9.495
  183POPC   GL1 7717  30.634  16.853   9.116
  183POPC   GL2 7718  30.394  16.584   9.059
  183POPC   C1A 7719  30.762  16.737   8.721
  183POPC   D2A 7720  30.687  16.472   8.378
  183POPC   C3A 7721  30.694  16.735   8.017
  183POPC   C4A 7722  30.984  17.004   7.756
  183POPC   C1B 7723  30.240  16.396   8.673
  183POPC   C2B 7724  30.231  16.200   8.243
  183POPC   C3B 7725  30.203  16.475   7.861
  183POPC   C4B 7726  30.328  16.514   7.375
  184POPC   NC3 7727   1.307   6.510   9.645
  184POPC   PO4 7728   1.089   6.964   9.153
  184POPC   GL1 7729   1.273   6.599   9.138
  184POPC   GL2 7730   1.022   6.340   9.250
  184POPC   C1A 7731   1.475   6.565   8.749
  184POPC   D2A 7732   1.246   6.555   8.337
  184POPC   C3A 7733   1.374   6.656   7.914
  184POPC   C4A 7734   1.398   6.578   7.430
  184POPC   C1B 7735   1.020   6.314   8.795
  184POPC   C2B 7736   0.773   6.355   8.403
  184POPC   C3B 7737   0.940   6.275   7.983
  184POPC   C4B 7738   0.947   6.606   7.687
  185POPC   NC3 7739  37.907   2.879   9.478
  185POPC   PO4 7740  37.698   2.276   9.707
  185POPC   GL1 7741  37.548   2.549   9.287
  185POPC   GL2 7742  37.502   2.950   9.200
  185POPC   C1A 7743  37.502   2.645   8.807
  185POPC   D2A 7744  37.368   2.582   8.367
  185POPC   C3A 7745  37.677   2.470   8.049
  185POPC   C4A 7746  37.712   2.607   7.607
  185POPC   C1B 7747  37.745   3.139   8.850
  185POPC   C2B 7748  37.768   2.928   8.452
  185POPC   C3B 7749  37.589   2.967   8.086
  185POPC   C4B 7750  37.755   3.146   7.759
  186POPC   NC3 7751  18.676  30.520   9.407
  186POPC   PO4 7752  18.089  30.651   9.425
  186POPC   GL1 7753  18.179  30.788   9.014
  186POPC   GL2 7754  18.519  30.954   9.059
  186POPC   C1A 7755  18.151  30.678   8.549
  186POPC   D2A 7756  18.500  30.710   8.246
  186POPC   C3A 7757  18.276  30.640   7.882
  186POPC   C4A 7758  17.856  30.440   7.825
  186POPC   C1B 7759  18.591  30.604   8.772
  186POPC   C2B 7760  18.505  30.265   8.517
  186POPC   C3B 7761  18.729  30.245   8.156
  186POPC   C4B 7762  18.646  30.306   7.721
  187POPC   NC3 7763  35.575  10.718   9.469
  187POPC   PO4 7764  34.985  10.400   9.551
  187POPC   GL1 7765  35.173  10.530   9.186
  187POPC   GL2 7766  35.514  10.431   9.060
  187POPC   C1A 7767  35.085  10.488   8.780
  187POPC   D2A 7768  35.389  10.414   8.530
  187POPC   C3A 7769  35.307  10.463   8.145
  187POPC   C4A 7770  35.163  10.529   7.746
  187POPC   C1B 7771  35.512  10.828   8.788
  187POPC   C2B 7772  35.680  10.817   8.362
  187POPC   C3B 7773  35.588  10.831   7.948
  187POPC   C4B 7774  35.695  10.428   7.782
  188POPC   NC3 7775  40.944  27.157   9.466
  188POPC   PO4 7776  40.465  26.706   9.641
  188POPC   GL1 7777  40.332  26.779   9.209
  188POPC   GL2 7778  40.668  26.848   9.143
  188POPC   C1A 7779  40.344  26.698   8.727
  188POPC   D2A 7780  40.639  26.547   8.338
  188POPC   C3A 7781  40.581  26.688   7.864
  188POPC   C4A 7782  40.640  27.156   7.761
  188POPC   C1B 7783  40.842  26.830   8.751
  188POPC   C2B 7784  41.095  26.778   8.413
  188POPC   C3B 7785  41.008  26.899   8.015
  188POPC   C4B 7786  41.009  26.841   7.544
  189POPC   NC3 7787   5.347  35.139   9.467
  189POPC   PO4 7788   4.730  35.408   9.300
  189POPC   GL1 7789   5.054  35.252   9.055
  189POPC   GL2 7790   5.393  35.446   9.058
  189POPC   C1A 7791   5.043  35.329   8.634
  189POPC   D2A 7792   4.675  35.379   8.377
  189POPC   C3A 7793   4.766  35.117   8.007
  189POPC   C4A 7794   4.877  35.245   7.594
  189POPC   C1B 7795   5.474  35.097   8.808
  189POPC   C2B 7796   5.339  34.925   8.414
  189POPC   C3B 7797   5.309  35.124   7.992
  189POPC   C4B 7798   5.452  34.974   7.603
  190POPC   NC3 7799  17.637  10.003   9.544
  190POPC   PO4 7800  17.074   9.670   9.392
  190POPC   GL1 7801  17.410   9.797   9.140
  190POPC   GL2 7802  17.750   9.630   9.195
  190POPC   C1A 7803  17.370   9.882   8.744
  190POPC   D2A 7804  17.575   9.894   8.403
  190POPC   C3A 7805  17.417   9.689   8.060
  190POPC   C4A 7806  17.266   9.936   7.715
  190POPC   C1B 7807  17.881   9.923   8.868
  190POPC   C2B 7808  18.072   9.888   8.431
  190POPC   C3B 7809  17.908   9.891   7.992
  190POPC   C4B 7810  17.904  10.104   7.591
  191POPC   NC3 7811   9.487  13.085   9.517
  191POPC   PO4 7812   9.948  13.653   9.456
  191POPC   GL1 7813   9.662  13.753   9.132
  191POPC   GL2 7814   9.444  13.464   9.162
  191POPC   C1A 7815   9.842  13.838   8.734
  191POPC   D2A 7816  10.176  13.780   8.406
  191POPC   C3A 7817   9.958  13.826   7.978
  191POPC   C4A 7818   9.652  14.142   7.821
  191POPC   C1B 7819   9.680  13.349   8.784
  191POPC   C2B 7820   9.739  13.498   8.371
  191POPC   C3B 7821   9.567  13.465   7.992
  191POPC   C4B 7822   9.575  13.644   7.584
  192POPC   NC3 7823  37.207   5.402   9.532
  192POPC   PO4 7824  36.908   6.094   9.543
  192POPC   GL1 7825  37.013   5.815   9.235
  192POPC   GL2 7826  37.163   6.072   9.006
  192POPC   C1A 7827  36.943   5.663   8.833
  192POPC   D2A 7828  37.175   5.756   8.493
  192POPC   C3A 7829  37.010   5.752   8.097
  192POPC   C4A 7830  36.877   5.749   7.705
  192POPC   C1B 7831  36.813   6.144   8.751
  192POPC   C2B 7832  36.883   6.173   8.356
  192POPC   C3B 7833  36.704   6.183   7.998
  192POPC   C4B 7834  36.819   6.238   7.560
  193POPC   NC3 7835   0.847   4.899   9.478
  193POPC   PO4 7836   1.279   5.353   9.328
  193POPC   GL1 7837   1.130   5.053   9.043
  193POPC   GL2 7838   0.806   5.203   9.086
  193POPC   C1A 7839   1.291   5.108   8.602
  193POPC   D2A 7840   1.341   5.238   8.120
  193POPC   C3A 7841   1.353   4.947   7.736
  193POPC   C4A 7842   1.394   4.811   7.267
  193POPC   C1B 7843   0.874   5.410   8.760
  193POPC   C2B 7844   1.028   5.521   8.411
  193POPC   C3B 7845   0.843   5.401   8.030
  193POPC   C4B 7846   0.994   5.324   7.632
  194POPC   NC3 7847  29.815  34.854   9.455
  194POPC   PO4 7848  29.661  35.549   9.453
  194POPC   GL1 7849  29.826  35.499   9.087
  194POPC   GL2 7850  30.022  35.226   9.042
  194POPC   C1A 7851  29.781  35.463   8.662
  194POPC   D2A 7852  29.835  35.217   8.337
  194POPC   C3A 7853  29.814  35.498   8.014
  194POPC   C4A 7854  29.893  35.714   7.634
  194POPC   C1B 7855  30.260  35.138   8.646
  194POPC   C2B 7856  30.271  35.062   8.160
  194POPC   C3B 7857  29.898  35.050   7.830
  194POPC   C4B 7858  29.910  35.246   7.424
  195POPC   NC3 7859   4.326  17.270   9.352
  195POPC   PO4 7860   3.932  17.604   9.756
  195POPC   GL1 7861   3.955  17.692   9.274
  195POPC   GL2 7862   4.278  17.783   9.108
  195POPC   C1A 7863   3.922  17.612   8.802
  195POPC   D2A 7864   4.167  17.791   8.423
  195POPC   C3A 7865   4.282  17.511   8.059
  195POPC   C4A 7866   4.364  17.545   7.626
  195POPC   C1B 7867   4.485  17.544   8.762
  195POPC   C2B 7868   4.698  17.482   8.377
  195POPC   C3B 7869   4.786  17.176   8.061
  195POPC   C4B 7870   4.648  17.138   7.653
  196POPC   NC3 7871   7.162   2.853   9.401
  196POPC   PO4 7872   7.824   2.555   9.421
  196POPC   GL1 7873   7.560   2.722   9.092
  196POPC   GL2 7874   7.231   2.551   9.013
  196POPC   C1A 7875   7.399   2.977   8.737
  196POPC   D2A 7876   7.234   2.953   8.310
  196POPC   C3A 7877   7.523   2.936   7.991
  196POPC   C4A 7878   7.656   2.588   7.735
  196POPC   C1B 7879   6.992   2.639   8.663
  196POPC   C2B 7880   6.988   2.480   8.264
  196POPC   C3B 7881   7.132   2.620   7.879
  196POPC   C4B 7882   7.048   2.539   7.454
  197POPC   NC3 7883   0.544   0.865   9.500
  197POPC   PO4 7884   0.358   1.469   9.445
  197POPC   GL1 7885   0.398   1.239   9.080
  197POPC   GL2 7886   0.280   0.881   9.081
  197POPC   C1A 7887   0.728   1.047   8.857
  197POPC   D2A 7888   0.844   0.938   8.437
  197POPC   C3A 7889   0.596   1.057   8.086
  197POPC   C4A 7890   0.430   0.995   7.667
  197POPC   C1B 7891   0.031   1.047   8.777
  197POPC   C2B 7892   0.113   1.143   8.402
  197POPC   C3B 7893   0.072   0.996   8.024
  197POPC   C4B 7894  44.954   1.127   7.640
  198POPC   NC3 7895   7.180  33.326   9.510
  198POPC   PO4 7896   7.624  32.908   9.588
  198POPC   GL1 7897   7.565  33.168   9.182
  198POPC   GL2 7898   7.234  33.051   9.077
  198POPC   C1A 7899   7.496  33.337   8.746
  198POPC   D2A 7900   7.259  33.070   8.448
  198POPC   C3A 7901   7.511  32.975   8.082
  198POPC   C4A 7902   7.844  32.865   7.790
  198POPC   C1B 7903   6.988  33.368   8.842
  198POPC   C2B 7904   6.811  33.355   8.410
  198POPC   C3B 7905   7.081  33.327   8.028
  198POPC   C4B 7906   7.479  33.386   7.798
  199POPC   NC3 7907  10.153  43.314   9.644
  199POPC   PO4 7908   9.517  43.053   9.539
  199POPC   GL1 7909   9.764  43.152   9.171
  199POPC   GL2 7910   9.963  43.408   9.168
  199POPC   C1A 7911   9.693  43.052   8.742
  199POPC   D2A 7912   9.629  42.837   8.329
  199POPC   C3A 7913   9.554  43.126   8.003
  199POPC   C4A 7914   9.497  43.008   7.604
  199POPC   C1B 7915  10.176  43.326   8.765
  199POPC   C2B 7916  10.262  43.229   8.320
  199POPC   C3B 7917  10.069  43.255   7.898
  199POPC   C4B 7918  10.122  43.314   7.450
  200POPC   NC3 7919  25.745  31.621   9.269
  200POPC   PO4 7920  25.340  31.237   9.607
  200POPC   GL1 7921  25.194  31.525   9.251
  200POPC   GL2 7922  25.378  31.378   8.965
  200POPC   C1A 7923  24.930  31.575   8.846
  200POPC   D2A 7924  25.143  31.470   8.437
  200POPC   C3A 7925  25.116  31.624   8.004
  200POPC   C4A 7926  25.224  31.324   7.658
  200POPC   C1B 7927  25.600  31.629   8.634
  200POPC   C2B 7928  25.629  31.649   8.204
  200POPC   C3B 7929  25.662  31.594   7.805
  200POPC   C4B 7930  25.444  31.897   7.672
  201POPC   NC3 7931  33.411  32.727   9.539
  201POPC   PO4 7932  32.811  33.168   9.451
  201POPC   GL1 7933  32.986  33.014   9.090
  201POPC   GL2 7934  33.350  32.955   9.088
  201POPC   C1A 7935  32.842  32.996   8.672
  201POPC   D2A 7936  33.082  32.893   8.304
  201POPC   C3A 7937  32.843  32.828   7.915
  201POPC   C4A 7938  32.927  33.043   7.521
  201POPC   C1B 7939  33.324  33.201   8.720
  201POPC   C2B 7940  33.023  33.415   8.416
  201POPC   C3B 7941  33.050  33.301   7.975
  201POPC   C4B 7942  33.323  32.960   7.837
  202POPC   NC3 7943  41.265  18.213   9.525
  202POPC   PO4 7944  41.954  18.067   9.486
  202POPC   GL1 7945  41.697  18.274   9.190
  202POPC   GL2 7946  41.496  17.970   9.134
  202POPC   C1A 7947  41.567  18.519   8.799
  202POPC   D2A 7948  41.371  18.393   8.376
  202POPC   C3A 7949  41.602  18.491   7.982
  202POPC   C4A 7950  41.685  18.346   7.545
  202POPC   C1B 7951  41.706  18.025   8.735
  202POPC   C2B 7952  41.610  17.923   8.325
  202POPC   C3B 7953  41.627  17.987   7.902
  202POPC   C4B 7954  41.951  17.918   7.560
  203POPC   NC3 7955  22.358  35.489   9.623
  203POPC   PO4 7956  22.341  34.836   9.735
  203POPC   GL1 7957  22.484  35.076   9.319
  203POPC   GL2 7958  22.495  34.874   9.018
  203POPC   C1A 7959  22.265  35.357   8.972
  203POPC   D2A 7960  21.974  35.210   8.607
  203POPC   C3A 7961  22.034  35.341   8.163
  203POPC   C4A 7962  22.206  35.533   7.804
  203POPC   C1B 7963  22.438  34.796   8.621
  203POPC   C2B 7964  22.648  34.930   8.263
  203POPC   C3B 7965  22.520  35.138   7.935
  203POPC   C4B 7966  22.165  35.027   7.716
  204POPC   NC3 7967  38.113   6.002   9.535
  204POPC   PO4 7968  38.690   6.181   9.778
  204POPC   GL1 7969  38.527   6.250   9.302
  204POPC   GL2 7970  38.298   6.006   9.074
  204POPC   C1A 7971  38.687   6.208   8.856
  204POPC   D2A 7972  38.380   6.105   8.499
  204POPC   C3A 7973  38.544   5.848   8.192
  204POPC   C4A 7974  38.716   5.997   7.811
  204POPC   C1B 7975  38.248   5.679   8.739
  204POPC   C2B 7976  38.097   5.541   8.346
  204POPC   C3B 7977  38.103   5.723   7.963
  204POPC   C4B 7978  38.454   5.576   7.758
  205POPC   NC3 7979   0.698  32.878   9.490
  205POPC   PO4 7980   0.326  33.334   9.202
  205POPC   GL1 7981   0.527  32.945   9.013
  205POPC   GL2 7982   0.801  33.165   9.058
  205POPC   C1A 7983   0.700  32.663   8.635
  205POPC   D2A 7984   0.674  32.569   8.160
  205POPC   C3A 7985   0.277  32.694   7.918
  205POPC   C4A 7986  44.938  33.001   7.724
  205POPC   C1B 7987   0.922  33.153   8.644
  205POPC   C2B 7988   1.013  32.959   8.271
  205POPC   C3B 7989   0.744  33.027   7.932
  205POPC   C4B 7990   0.442  33.087   7.606
  206POPC   NC3 7991   0.019  20.470   9.344
  206POPC   PO4 7992  44.440  20.618   9.549
  206POPC   GL1 7993  44.527  20.820   9.158
  206POPC   GL2 7994  44.885  20.934   9.140
  206POPC   C1A 7995  44.441  20.641   8.737
  206POPC   D2A 7996  44.231  20.520   8.338
  206POPC   C3A 7997  44.452  20.679   7.978
  206POPC   C4A 7998  44.520  20.580   7.548
  206POPC   C1B 7999  44.974  20.819   8.746
  206POPC   C2B 8000   0.046  20.688   8.330
  206POPC   C3B 8001  44.946  20.865   7.953
  206POPC   C4B 8002   0.002  20.753   7.526
  207POPC   NC3 8003  26.669  34.838   9.329
  207POPC   PO4 8004  27.039  34.351   9.499
  207POPC   GL1 8005  26.923  34.441   9.071
  207POPC   GL2 8006  26.557  34.415   9.034
  207POPC   C1A 8007  27.055  34.654   8.682
  207POPC   D2A 8008  27.092  34.849   8.265
  207POPC   C3A 8009  26.899  34.674   7.909
  207POPC   C4A 8010  27.019  34.501   7.535
  207POPC   C1B 8011  26.675  34.308   8.607
  207POPC   C2B 8012  26.960  34.314   8.273
  207POPC   C3B 8013  26.816  34.161   7.878
  207POPC   C4B 8014  26.534  34.350   7.619
  208POPC   NC3 8015  29.709   1.170   9.564
  208POPC   PO4 8016  30.332   0.801   9.457
  208POPC   GL1 8017  30.056   1.058   9.191
  208POPC   GL2 8018  29.797   0.838   9.186
  208POPC   C1A 8019  29.911   1.231   8.776
  208POPC   D2A 8020  30.088   1.143   8.329
  208POPC   C3A 8021  29.974   1.364   7.899
  208POPC   C4A 8022  29.825   1.485   7.463
  208POPC   C1B 8023  29.711   0.753   8.788
  208POPC   C2B 8024  29.554   0.826   8.391
  208POPC   C3B 8025  29.752   0.883   8.024
  208POPC   C4B 8026  29.607   1.074   7.653
  209POPC   NC3 8027  33.399   8.055   9.545
  209POPC   PO4 8028  32.933   8.511   9.426
  209POPC   GL1 8029  33.102   8.260   9.163
  209POPC   GL2 8030  32.821   8.040   9.091
  209POPC   C1A 8031  33.442   8.369   8.888
  209POPC   D2A 8032  33.523   8.318   8.447
  209POPC   C3A 8033  33.242   8.520   8.153
  209POPC   C4A 8034  33.030   8.467   7.743
  209POPC   C1B 8035  33.165   7.961   8.753
  209POPC   C2B 8036  33.417   7.811   8.426
  209POPC   C3B 8037  33.308   7.963   8.061
  209POPC   C4B 8038  33.155   7.934   7.687
  210POPC   NC3 8039  39.980  37.183   9.473
  210POPC   PO4 8040  40.094  36.509   9.438
  210POPC   GL1 8041  39.876  36.641   9.052
  210POPC   GL2 8042  40.047  36.938   9.027
  210POPC   C1A 8043  39.727  36.806   8.650
  210POPC   D2A 8044  39.907  36.770   8.232
  210POPC   C3A 8045  39.837  36.642   7.804
  210POPC   C4A 8046  39.972  36.890   7.425
  210POPC   C1B 8047  40.224  36.703   8.662
  210POPC   C2B 8048  40.402  36.873   8.295
  210POPC   C3B 8049  40.285  36.912   7.871
  210POPC   C4B 8050  40.470  36.751   7.524
  211POPC   NC3 8051  10.014  36.489   9.566
  211POPC   PO4 8052  10.444  36.015   9.683
  211POPC   GL1 8053  10.452  36.007   9.197
  211POPC   GL2 8054  10.132  35.799   9.131
  211POPC   C1A 8055  10.723  36.042   8.767
  211POPC   D2A 8056  10.975  36.187   8.356
  211POPC   C3A 8057  10.834  36.165   7.898
  211POPC   C4A 8058  10.982  36.197   7.434
  211POPC   C1B 8059  10.164  36.078   8.785
  211POPC   C2B 8060  10.381  36.228   8.419
  211POPC   C3B 8061  10.314  36.116   8.009
  211POPC   C4B 8062  10.400  35.862   7.669
  212POPC   NC3 8063  37.137  27.728   9.763
  212POPC   PO4 8064  36.848  28.259   9.474
  212POPC   GL1 8065  36.913  28.221   9.072
  212POPC   GL2 8066  37.117  27.920   9.138
  212POPC   C1A 8067  36.917  28.469   8.699
  212POPC   D2A 8068  36.973  28.691   8.316
  212POPC   C3A 8069  36.723  28.524   8.001
  212POPC   C4A 8070  36.645  28.576   7.557
  212POPC   C1B 8071  37.268  28.089   8.733
  212POPC   C2B 8072  37.198  28.238   8.296
  212POPC   C3B 8073  37.179  27.920   7.979
  212POPC   C4B 8074  37.261  27.896   7.530
  213POPC   NC3 8075   5.776  39.782   9.525
  213POPC   PO4 8076   6.078  39.108   9.420
  213POPC   GL1 8077   5.779  39.332   9.181
  213POPC   GL2 8078   5.653  39.647   9.034
  213POPC   C1A 8079   5.702  39.236   8.743
  213POPC   D2A 8080   5.946  39.276   8.392
  213POPC   C3A 8081   5.799  39.024   8.055
  213POPC   C4A 8082   5.978  38.687   7.816
  213POPC   C1B 8083   5.790  39.754   8.577
  213POPC   C2B 8084   5.809  39.684   8.092
  213POPC   C3B 8085   5.837  39.486   7.680
  213POPC   C4B 8086   5.582  39.414   7.270
  214POPC   NC3 8087  33.335  11.426   9.362
  214POPC   PO4 8088  33.743  10.979   9.694
  214POPC   GL1 8089  33.887  11.234   9.309
  214POPC   GL2 8090  33.662  11.188   9.051
  214POPC   C1A 8091  34.048  11.498   8.924
  214POPC   D2A 8092  34.209  11.562   8.487
  214POPC   C3A 8093  33.933  11.438   8.107
  214POPC   C4A 8094  33.900  11.235   7.683
  214POPC   C1B 8095  33.937  11.030   8.706
  214POPC   C2B 8096  33.960  10.920   8.256
  214POPC   C3B 8097  33.640  10.880   7.928
  214POPC   C4B 8098  33.466  10.987   7.493
  215POPC   NC3 8099   5.890  31.892   9.466
  215POPC   PO4 8100   6.170  31.329   9.817
  215POPC   GL1 8101   6.023  31.414   9.367
  215POPC   GL2 8102   6.257  31.606   9.165
  215POPC   C1A 8103   5.794  31.489   8.930
  215POPC   D2A 8104   5.911  31.314   8.471
  215POPC   C3A 8105   5.860  31.416   8.019
  215POPC   C4A 8106   5.852  31.505   7.574
  215POPC   C1B 8107   6.183  31.694   8.686
  215POPC   C2B 8108   6.204  31.764   8.230
  215POPC   C3B 8109   6.323  31.551   7.840
  215POPC   C4B 8110   6.350  31.554   7.384
  216POPC   NC3 8111  20.393  27.761   9.566
  216POPC   PO4 8112  20.814  27.204   9.591
  216POPC   GL1 8113  20.682  27.345   9.150
  216POPC   GL2 8114  20.326  27.460   9.149
  216POPC   C1A 8115  20.550  27.526   8.690
  216POPC   D2A 8116  20.812  27.753   8.344
  216POPC   C3A 8117  20.732  27.635   7.907
  216POPC   C4A 8118  20.607  27.238   7.785
  216POPC   C1B 8119  20.302  27.898   8.936
  216POPC   C2B 8120  20.373  27.986   8.494
  216POPC   C3B 8121  20.314  27.933   8.052
  216POPC   C4B 8122  20.329  27.858   7.615
  217POPC   NC3 8123   5.480  34.250   9.457
  217POPC   PO4 8124   6.104  34.377   9.490
  217POPC   GL1 8125   5.925  34.515   9.171
  217POPC   GL2 8126   5.639  34.745   9.248
  217POPC   C1A 8127   6.092  34.493   8.770
  217POPC   D2A 8128   6.303  34.481   8.413
  217POPC   C3A 8129   6.077  34.496   8.014
  217POPC   C4A 8130   6.149  34.489   7.577
  217POPC   C1B 8131   5.609  34.628   8.804
  217POPC   C2B 8132   5.760  34.616   8.405
  217POPC   C3B 8133   5.576  34.673   8.022
  217POPC   C4B 8134   5.641  34.479   7.656
  218POPC   NC3 8135  41.210  41.932   9.328
  218POPC   PO4 8136  41.914  41.745   9.456
  218POPC   GL1 8137  41.660  41.648   9.088
  218POPC   GL2 8138  41.985  41.678   8.957
  218POPC   C1A 8139  41.357  41.548   8.716
  218POPC   D2A 8140  41.463  41.276   8.363
  218POPC   C3A 8141  41.320  41.302   7.959
  218POPC   C4A 8142  41.561  41.516   7.645
  218POPC   C1B 8143  41.778  41.812   8.590
  218POPC   C2B 8144  41.753  41.695   8.156
  218POPC   C3B 8145  41.744  41.990   7.807
  218POPC   C4B 8146  41.825  41.886   7.356
  219POPC   NC3 8147   9.825  32.668   9.729
  219POPC   PO4 8148  10.094  32.094   9.534
  219POPC   GL1 8149  10.000  32.244   9.144
  219POPC   GL2 8150   9.824  32.535   9.231
  219POPC   C1A 8151   9.827  32.109   8.757
  219POPC   D2A 8152   9.624  32.164   8.349
  219POPC   C3A 8153   9.822  32.217   7.949
  219POPC   C4A 8154   9.622  32.008   7.589
  219POPC   C1B 8155   9.501  32.587   8.943
  219POPC   C2B 8156   9.474  32.609   8.513
  219POPC   C3B 8157   9.451  32.595   8.055
  219POPC   C4B 8158   9.287  32.863   7.736
  220POPC   NC3 8159  29.660   7.295   9.518
  220POPC   PO4 8160  30.205   7.661   9.415
  220POPC   GL1 8161  29.876   7.531   9.122
  220POPC   GL2 8162  29.984   7.209   9.136
  220POPC   C1A 8163  29.666   7.544   8.706
  220POPC   D2A 8164  29.852   7.695   8.285
  220POPC   C3A 8165  29.760   7.473   7.889
  220POPC   C4A 8166  29.922   7.566   7.495
  220POPC   C1B 8167  30.078   7.235   8.746
  220POPC   C2B 8168  29.931   7.216   8.374
  220POPC   C3B 8169  30.221   7.375   8.079
  220POPC   C4B 8170  30.196   7.169   7.719
  221POPC   NC3 8171  43.667   9.741   9.558
  221POPC   PO4 8172  44.264  10.129   9.582
  221POPC   GL1 8173  44.007   9.937   9.220
  221POPC   GL2 8174  44.048   9.571   9.253
  221POPC   C1A 8175  43.793   9.940   8.799
  221POPC   D2A 8176  43.763   9.829   8.354
  221POPC   C3A 8177  43.859  10.003   7.951
  221POPC   C4A 8178  44.215   9.839   7.722
  221POPC   C1B 8179  43.761   9.434   8.895
  221POPC   C2B 8180  43.752   9.334   8.434
  221POPC   C3B 8181  43.923   9.467   8.012
  221POPC   C4B 8182  43.779   9.606   7.603
  222POPC   NC3 8183   3.499  17.755   9.635
  222POPC   PO4 8184   3.821  17.202   9.401
  222POPC   GL1 8185   3.496  17.493   9.182
  222POPC   GL2 8186   3.263  17.270   9.060
  222POPC   C1A 8187   3.412  17.814   8.845
  222POPC   D2A 8188   3.634  17.813   8.415
  222POPC   C3A 8189   3.460  17.733   7.968
  222POPC   C4A 8190   3.601  17.675   7.522
  222POPC   C1B 8191   3.495  17.337   8.663
  222POPC   C2B 8192   3.425  17.286   8.220
  222POPC   C3B 8193   3.379  17.270   7.755
  222POPC   C4B 8194   3.513  17.191   7.323
  223POPC   NC3 8195  35.840  24.341   9.421
  223POPC   PO4 8196  36.418  24.681   9.486
  223POPC   GL1 8197  36.241  24.473   9.138
  223POPC   GL2 8198  36.359  24.155   9.054
  223POPC   C1A 8199  35.965  24.355   8.792
  223POPC   D2A 8200  35.710  24.558   8.502
  223POPC   C3A 8201  35.879  24.757   8.142
  223POPC   C4A 8202  35.750  24.680   7.720
  223POPC   C1B 8203  36.387  24.140   8.604
  223POPC   C2B 8204  36.216  24.400   8.314
  223POPC   C3B 8205  36.115  24.369   7.896
  223POPC   C4B 8206  36.181  24.044   7.597
  224POPC   NC3 8207   9.104  14.602   9.393
  224POPC   PO4 8208   8.754  13.979   9.450
  224POPC   GL1 8209   8.802  14.265   9.124
  224POPC   GL2 8210   8.596  14.549   9.149
  224POPC   C1A 8211   9.003  14.307   8.731
  224POPC   D2A 8212   8.943  14.089   8.335
  224POPC   C3A 8213   8.747  14.235   7.923
  224POPC   C4A 8214   8.790  14.497   7.502
  224POPC   C1B 8215   8.734  14.766   8.777
  224POPC   C2B 8216   8.925  14.646   8.370
  224POPC   C3B 8217   8.832  14.735   7.972
  224POPC   C4B 8218   8.637  15.033   7.725
  225POPC   NC3 8219   9.444  39.768   9.926
  225POPC   PO4 8220   9.632  40.209   9.433
  225POPC   GL1 8221   9.803  40.218   9.109
  225POPC   GL2 8222   9.845  39.863   9.088
  225POPC   C1A 8223   9.891  40.198   8.713
  225POPC   D2A 8224   9.708  40.149   8.326
  225POPC   C3A 8225   9.792  40.103   7.913
  225POPC   C4A 8226   9.494  39.857   7.662
  225POPC   C1B 8227   9.681  39.723   8.673
  225POPC   C2B 8228   9.886  39.670   8.253
  225POPC   C3B 8229   9.953  39.624   7.806
  225POPC   C4B 8230   9.768  39.516   7.411
  226POPC   NC3 8231  16.298  32.355   9.280
  226POPC   PO4 8232  15.691  32.214   9.457
  226POPC   GL1 8233  15.802  32.326   9.079
  226POPC   GL2 8234  15.718  32.663   9.167
  226POPC   C1A 8235  15.853  32.259   8.639
  226POPC   D2A 8236  16.054  32.104   8.296
  226POPC   C3A 8237  15.880  31.943   7.963
  226POPC   C4A 8238  16.211  32.075   7.728
  226POPC   C1B 8239  15.515  32.631   8.772
  226POPC   C2B 8240  15.701  32.665   8.351
  226POPC   C3B 8241  15.651  32.431   7.981
  226POPC   C4B 8242  15.387  32.547   7.623
  227POPC   NC3 8243   0.184  24.188   9.347
  227POPC   PO4 8244   0.630  24.615   9.751
  227POPC   GL1 8245   0.587  24.537   9.289
  227POPC   GL2 8246   0.633  24.203   9.101
  227POPC   C1A 8247   0.466  24.589   8.840
  227POPC   D2A 8248   0.483  24.464   8.375
  227POPC   C3A 8249   0.289  24.725   8.021
  227POPC   C4A 8250   0.592  24.791   7.677
  227POPC   C1B 8251   0.269  24.128   8.718
  227POPC   C2B 8252   0.247  23.957   8.276
  227POPC   C3B 8253   0.304  24.234   7.906
  227POPC   C4B 8254   0.305  24.428   7.482
  228POPC   NC3 8255  24.359   5.620  10.026
  228POPC   PO4 8256  24.422   6.055   9.512
  228POPC   GL1 8257  24.293   5.834   9.136
  228POPC   GL2 8258  24.571   5.873   8.911
  228POPC   C1A 8259  24.101   5.733   8.749
  228POPC   D2A 8260  24.222   5.545   8.378
  228POPC   C3A 8261  24.394   5.816   8.072
  228POPC   C4A 8262  24.455   5.659   7.696
  228POPC   C1B 8263  24.758   6.263   8.762
  228POPC   C2B 8264  24.868   6.370   8.343
  228POPC   C3B 8265  24.899   6.170   7.998
  228POPC   C4B 8266  24.727   6.091   7.622
  229POPC   NC3 8267  30.309  43.648   9.576
  229POPC   PO4 8268  30.902  43.934   9.624
  229POPC   GL1 8269  30.534  43.970   9.248
  229POPC   GL2 8270  30.321  43.682   9.085
  229POPC   C1A 8271  30.444  44.062   8.798
  229POPC   D2A 8272  30.665  43.951   8.437
  229POPC   C3A 8273  30.463  43.894   8.030
  229POPC   C4A 8274  30.621  43.943   7.609
  229POPC   C1B 8275  30.580  43.537   8.724
  229POPC   C2B 8276  30.669  43.484   8.260
  229POPC   C3B 8277  30.728  43.499   7.829
  229POPC   C4B 8278  30.579  43.257   7.515
  230POPC   NC3 8279   6.025  23.922   9.539
  230POPC   PO4 8280   5.493  23.808   9.378
  230POPC   GL1 8281   5.849  23.715   9.090
  230POPC   GL2 8282   5.845  24.052   9.032
  230POPC   C1A 8283   6.065  23.605   8.686
  230POPC   D2A 8284   6.045  23.746   8.229
  230POPC   C3A 8285   6.083  23.450   7.872
  230POPC   C4A 8286   6.010  23.383   7.404
  230POPC   C1B 8287   5.698  23.960   8.602
  230POPC   C2B 8288   5.832  24.201   8.229
  230POPC   C3B 8289   5.757  24.158   7.780
  230POPC   C4B 8290   5.349  24.105   7.551
  231POPC   NC3 8291  41.602   8.769   9.401
  231POPC   PO4 8292  41.508   9.454   9.363
  231POPC   GL1 8293  41.477   9.142   9.061
  231POPC   GL2 8294  41.808   8.989   8.988
  231POPC   C1A 8295  41.213   8.978   8.756
  231POPC   D2A 8296  41.322   8.796   8.351
  231POPC   C3A 8297  41.300   8.969   7.950
  231POPC   C4A 8298  41.341   9.022   7.503
  231POPC   C1B 8299  41.650   8.656   8.742
  231POPC   C2B 8300  41.681   8.424   8.384
  231POPC   C3B 8301  41.699   8.642   8.025
  231POPC   C4B 8302  41.802   8.910   7.691
  232POPC   NC3 8303  44.001  17.527   9.659
  232POPC   PO4 8304  43.512  17.315   9.221
  232POPC   GL1 8305  43.821  17.481   9.041
  232POPC   GL2 8306  44.127  17.433   9.175
  232POPC   C1A 8307  43.844  17.684   8.640
  232POPC   D2A 8308  44.082  17.545   8.277
  232POPC   C3A 8309  43.875  17.518   7.904
  232POPC   C4A 8310  43.639  17.232   7.727
  232POPC   C1B 8311  44.287  17.475   8.786
  232POPC   C2B 8312  44.318  17.890   8.569
  232POPC   C3B 8313  44.335  17.952   8.087
  232POPC   C4B 8314  44.221  17.834   7.649
  233POPC   NC3 8315  28.272  19.140   9.425
  233POPC   PO4 8316  28.591  18.554   9.452
  233POPC   GL1 8317  28.619  18.811   9.058
  233POPC   GL2 8318  28.523  19.163   8.984
  233POPC   C1A 8319  28.506  18.863   8.608
  233POPC   D2A 8320  28.255  18.937   8.272
  233POPC   C3A 8321  28.545  19.088   7.991
  233POPC   C4A 8322  28.508  19.335   7.643
  233POPC   C1B 8323  28.172  19.285   8.741
  233POPC   C2B 8324  28.118  19.559   8.366
  233POPC   C3B 8325  28.069  19.364   7.959
  233POPC   C4B 8326  27.699  19.236   7.759
  234POPC   NC3 8327   6.897  23.439   9.607
  234POPC   PO4 8328   6.437  23.860   9.699
  234POPC   GL1 8329   6.473  23.680   9.278
  234POPC   GL2 8330   6.337  23.927   9.066
  234POPC   C1A 8331   6.571  23.530   8.832
  234POPC   D2A 8332   6.508  23.637   8.392
  234POPC   C3A 8333   6.722  23.438   8.037
  234POPC   C4A 8334   7.037  23.538   7.745
  234POPC   C1B 8335   6.198  24.092   8.657
  234POPC   C2B 8336   6.381  24.129   8.262
  234POPC   C3B 8337   6.427  23.867   7.911
  234POPC   C4B 8338   6.141  23.867   7.569
  235POPC   NC3 8339  29.830   2.853   9.534
  235POPC   PO4 8340  29.644   2.263   9.352
  235POPC   GL1 8341  29.976   2.589   9.103
  235POPC   GL2 8342  29.918   2.985   9.074
  235POPC   C1A 8343  30.174   2.773   8.703
  235POPC   D2A 8344  30.265   2.879   8.286
  235POPC   C3A 8345  29.962   2.639   8.093
  235POPC   C4A 8346  29.915   2.492   7.712
  235POPC   C1B 8347  29.722   3.186   8.775
  235POPC   C2B 8348  29.755   3.051   8.351
  235POPC   C3B 8349  29.932   3.124   7.937
  235POPC   C4B 8350  29.731   3.151   7.542
  236POPC   NC3 8351  27.070   1.418   9.431
  236POPC   PO4 8352  26.414   1.436   9.469
  236POPC   GL1 8353  26.680   1.349   9.095
  236POPC   GL2 8354  26.826   1.071   9.096
  236POPC   C1A 8355  26.987   1.357   8.694
  236POPC   D2A 8356  27.138   1.517   8.268
  236POPC   C3A 8357  26.793   1.612   7.957
  236POPC   C4A 8358  26.773   1.511   7.512
  236POPC   C1B 8359  26.902   0.847   8.720
  236POPC   C2B 8360  26.759   0.924   8.286
  236POPC   C3B 8361  26.945   1.122   7.939
  236POPC   C4B 8362  27.137   0.997   7.547
  237POPC   NC3 8363  11.447  35.497   9.493
  237POPC   PO4 8364  10.858  35.684   9.355
  237POPC   GL1 8365  11.107  35.401   9.137
  237POPC   GL2 8366  10.875  35.145   9.158
  237POPC   C1A 8367  11.419  35.446   8.797
  237POPC   D2A 8368  11.567  35.621   8.379
  237POPC   C3A 8369  11.466  35.452   7.951
  237POPC   C4A 8370  11.212  35.336   7.534
  237POPC   C1B 8371  11.048  35.077   8.751
  237POPC   C2B 8372  11.204  35.239   8.381
  237POPC   C3B 8373  11.013  35.230   8.003
  237POPC   C4B 8374  10.963  34.941   7.701
  238POPC   NC3 8375  10.715  44.109   9.870
  238POPC   PO4 8376  10.567  43.473   9.767
  238POPC   GL1 8377  10.499  43.764   9.369
  238POPC   GL2 8378  10.141  43.829   9.399
  238POPC   C1A 8379  10.564  43.906   8.891
  238POPC   D2A 8380  10.551  44.075   8.471
  238POPC   C3A 8381  10.750  43.936   8.139
  238POPC   C4A 8382  10.565  43.955   7.747
  238POPC   C1B 8383  10.079  43.856   8.958
  238POPC   C2B 8384  10.111  43.796   8.521
  238POPC   C3B 8385  10.266  43.708   8.115
  238POPC   C4B 8386  10.103  43.759   7.706
  239POPC   NC3 8387  22.788  28.468   9.642
  239POPC   PO4 8388  23.388  28.478   9.538
  239POPC   GL1 8389  23.127  28.346   9.165
  239POPC   GL2 8390  22.771  28.515   9.150
  239POPC   C1A 8391  23.275  28.306   8.708
  239POPC   D2A 8392  23.255  28.589   8.353
  239POPC   C3A 8393  23.171  28.398   8.000
  239POPC   C4A 8394  23.057  28.336   7.607
  239POPC   C1B 8395  22.863  28.615   8.747
  239POPC   C2B 8396  22.824  28.318   8.410
  239POPC   C3B 8397  22.659  28.393   8.022
  239POPC   C4B 8398  22.562  28.411   7.625
  240POPC   NC3 8399  16.475   2.288   9.433
  240POPC   PO4 8400  16.798   1.648   9.502
  240POPC   GL1 8401  16.500   1.837   9.199
  240POPC   GL2 8402  16.808   2.022   9.150
  240POPC   C1A 8403  16.341   2.023   8.783
  240POPC   D2A 8404  16.518   2.249   8.407
  240POPC   C3A 8405  16.453   2.071   7.995
  240POPC   C4A 8406  16.710   2.114   7.671
  240POPC   C1B 8407  16.805   2.266   8.831
  240POPC   C2B 8408  17.016   2.329   8.501
  240POPC   C3B 8409  16.954   2.256   8.092
  240POPC   C4B 8410  17.209   2.323   7.748
  241POPC   NC3 8411  41.675  33.228   9.480
  241POPC   PO4 8412  41.376  32.642   9.334
  241POPC   GL1 8413  41.715  32.720   9.054
  241POPC   GL2 8414  41.706  33.085   8.978
  241POPC   C1A 8415  41.814  32.683   8.613
  241POPC   D2A 8416  41.877  33.031   8.325
  241POPC   C3A 8417  41.795  32.946   7.891
  241POPC   C4A 8418  41.438  32.734   7.757
  241POPC   C1B 8419  41.439  33.056   8.624
  241POPC   C2B 8420  41.375  33.052   8.195
  241POPC   C3B 8421  41.357  33.221   7.812
  241POPC   C4B 8422  41.272  33.339   7.422
  242POPC   NC3 8423  14.568  12.358   9.283
  242POPC   PO4 8424  14.121  12.857   9.457
  242POPC   GL1 8425  14.332  12.957   9.119
  242POPC   GL2 8426  14.202  12.649   8.975
  242POPC   C1A 8427  14.500  12.959   8.715
  242POPC   D2A 8428  14.339  12.823   8.321
  242POPC   C3A 8429  14.550  12.928   7.941
  242POPC   C4A 8430  14.669  12.699   7.567
  242POPC   C1B 8431  13.904  12.862   8.719
  242POPC   C2B 8432  13.848  12.958   8.287
  242POPC   C3B 8433  14.029  12.805   7.910
  242POPC   C4B 8434  14.205  12.954   7.538
  243POPC   NC3 8435  14.218   9.579   9.485
  243POPC   PO4 8436  14.351  10.104   9.717
  243POPC   GL1 8437  14.417   9.904   9.190
  243POPC   GL2 8438  14.092   9.774   9.040
  243POPC   C1A 8439  14.532   9.717   8.791
  243POPC   D2A 8440  14.778   9.650   8.435
  243POPC   C3A 8441  14.508   9.655   8.092
  243POPC   C4A 8442  14.530   9.365   7.803
  243POPC   C1B 8443  14.048   9.954   8.639
  243POPC   C2B 8444  14.063   9.891   8.189
  243POPC   C3B 8445  14.100   9.720   7.763
  243POPC   C4B 8446  14.243   9.859   7.354
  244POPC   NC3 8447  41.317  43.698   9.560
  244POPC   PO4 8448  41.627  44.225   9.836
  244POPC   GL1 8449  41.511  44.134   9.338
  244POPC   GL2 8450  41.605  43.810   9.143
  244POPC   C1A 8451  41.338  44.111   8.864
  244POPC   D2A 8452  41.442  43.852   8.501
  244POPC   C3A 8453  41.723  44.035   8.194
  244POPC   C4A 8454  41.617  44.046   7.768
  244POPC   C1B 8455  41.252  43.591   8.903
  244POPC   C2B 8456  41.175  43.390   8.485
  244POPC   C3B 8457  41.244  43.534   8.029
  244POPC   C4B 8458  41.441  43.583   7.593
  245POPC   NC3 8459  44.901  31.496   9.492
  245POPC   PO4 8460  44.204  31.309   9.522
  245POPC   GL1 8461  44.483  31.412   9.178
  245POPC   GL2 8462  44.522  31.762   9.090
  245POPC   C1A 8463  44.807  31.322   8.863
  245POPC   D2A 8464  44.708  31.133   8.476
  245POPC   C3A 8465  44.799  31.250   8.089
  245POPC   C4A 8466  44.742  31.432   7.718
  245POPC   C1B 8467  44.513  31.673   8.635
  245POPC   C2B 8468  44.381  31.708   8.209
  245POPC   C3B 8469  44.269  31.595   7.798
  245POPC   C4B 8470  44.270  31.758   7.373
  246POPC   NC3 8471  24.262  29.951   9.420
  246POPC   PO4 8472  24.759  30.362   9.388
  246POPC   GL1 8473  24.508  30.203   9.072
  246POPC   GL2 8474  24.208  30.359   9.033
  246POPC   C1A 8475  24.246  29.891   8.785
  246POPC   D2A 8476  24.024  29.911   8.383
  246POPC   C3A 8477  24.247  29.752   8.038
  246POPC   C4A 8478  24.437  29.562   7.662
  246POPC   C1B 8479  24.337  30.359   8.625
  246POPC   C2B 8480  24.159  30.395   8.272
  246POPC   C3B 8481  24.403  30.268   7.947
  246POPC   C4B 8482  24.295  30.039   7.615
  247POPC   NC3 8483   0.356  26.943   9.491
  247POPC   PO4 8484   0.656  26.318   9.596
  247POPC   GL1 8485   0.679  26.404   9.141
  247POPC   GL2 8486   0.598  26.759   9.090
  247POPC   C1A 8487   0.674  26.492   8.683
  247POPC   D2A 8488   0.407  26.661   8.383
  247POPC   C3A 8489   0.588  26.624   7.973
  247POPC   C4A 8490   0.397  26.783   7.578
  247POPC   C1B 8491   0.692  27.009   8.718
  247POPC   C2B 8492   0.786  27.027   8.315
  247POPC   C3B 8493   0.862  27.219   7.925
  247POPC   C4B 8494   0.812  27.136   7.505
  248POPC   NC3 8495  31.060  32.601   9.298
  248POPC   PO4 8496  30.660  33.101   9.534
  248POPC   GL1 8497  30.643  33.200   9.117
  248POPC   GL2 8498  30.602  32.852   9.041
  248POPC   C1A 8499  30.555  33.244   8.698
  248POPC   D2A 8500  30.722  33.080   8.347
  248POPC   C3A 8501  30.525  33.208   8.021
  248POPC   C4A 8502  30.670  33.119   7.659
  248POPC   C1B 8503  30.962  32.918   8.756
  248POPC   C2B 8504  31.082  32.708   8.378
  248POPC   C3B 8505  30.973  32.809   7.953
  248POPC   C4B 8506  30.649  32.626   7.716
  249POPC   NC3 8507  13.987   1.233   9.548
  249POPC   PO4 8508  13.424   1.439   9.472
  249POPC   GL1 8509  13.597   1.235   9.132
  249POPC   GL2 8510  13.389   0.932   9.235
  249POPC   C1A 8511  13.566   1.363   8.664
  249POPC   D2A 8512  13.478   1.083   8.306
  249POPC   C3A 8513  13.688   1.210   7.967
  249POPC   C4A 8514  14.097   1.138   7.870
  249POPC   C1B 8515  13.320   0.951   8.798
  249POPC   C2B 8516  13.121   0.747   8.489
  249POPC   C3B 8517  13.144   0.687   8.117
  249POPC   C4B 8518  13.324   0.886   7.815
  250POPC   NC3 8519  18.778  36.409   9.405
  250POPC   PO4 8520  19.344  36.115   9.685
  250POPC   GL1 8521  19.223  36.222   9.237
  250POPC   GL2 8522  19.311  36.558   9.252
  250POPC   C1A 8523  19.000  36.257   8.782
  250POPC   D2A 8524  18.687  35.975   8.521
  250POPC   C3A 8525  18.733  35.884   8.065
  250POPC   C4A 8526  19.003  36.022   7.737
  250POPC   C1B 8527  19.372  36.664   8.813
  250POPC   C2B 8528  19.270  36.566   8.420
  250POPC   C3B 8529  19.107  36.395   8.069
  250POPC   C4B 8530  19.260  36.516   7.682
  251POPC   NC3 8531   9.339   1.705   9.637
  251POPC   PO4 8532   9.826   2.187   9.426
  251POPC   GL1 8533   9.679   1.957   9.124
  251POPC   GL2 8534  10.008   1.792   9.042
  251POPC   C1A 8535   9.687   2.174   8.734
  251POPC   D2A 8536   9.940   2.076   8.354
  251POPC   C3A 8537   9.781   2.226   7.944
  251POPC   C4A 8538   9.675   2.076   7.490
  251POPC   C1B 8539   9.758   1.687   8.663
  251POPC   C2B 8540   9.657   1.673   8.226
  251POPC   C3B 8541   9.920   1.736   7.864
  251POPC   C4B 8542   9.829   1.532   7.483
  252POPC   NC3 8543  33.500   1.203   9.429
  252POPC   PO4 8544  34.155   1.067   9.487
  252POPC   GL1 8545  34.236   1.166   9.091
  252POPC   GL2 8546  34.056   1.481   9.174
  252POPC   C1A 8547  34.192   1.107   8.672
  252POPC   D2A 8548  33.855   1.069   8.426
  252POPC   C3A 8549  33.818   1.208   8.045
  252POPC   C4A 8550  33.957   0.958   7.745
  252POPC   C1B 8551  33.774   1.345   8.859
  252POPC   C2B 8552  33.570   1.532   8.542
  252POPC   C3B 8553  33.498   1.622   8.145
  252POPC   C4B 8554  33.686   1.598   7.762
  253POPC   NC3 8555   9.518  34.116   9.548
  253POPC   PO4 8556  10.044  33.686   9.494
  253POPC   GL1 8557   9.851  33.939   9.194
  253POPC   GL2 8558   9.568  33.769   9.148
  253POPC   C1A 8559   9.939  33.888   8.765
  253POPC   D2A 8560   9.784  33.525   8.529
  253POPC   C3A 8561   9.793  33.563   8.070
  253POPC   C4A 8562   9.851  33.976   7.874
  253POPC   C1B 8563   9.453  33.870   8.744
  253POPC   C2B 8564   9.541  33.940   8.307
  253POPC   C3B 8565   9.369  33.840   7.865
  253POPC   C4B 8566   9.491  34.039   7.440
  254POPC   NC3 8567   0.168   5.633   9.520
  254POPC   PO4 8568   0.288   6.213   9.484
  254POPC   GL1 8569   0.561   5.979   9.158
  254POPC   GL2 8570   0.471   5.633   9.077
  254POPC   C1A 8571   0.722   5.894   8.712
  254POPC   D2A 8572   0.684   5.858   8.266
  254POPC   C3A 8573   0.381   6.107   8.110
  254POPC   C4A 8574   0.414   6.168   7.694
  254POPC   C1B 8575   0.176   5.684   8.740
  254POPC   C2B 8576   0.096   5.696   8.319
  254POPC   C3B 8577   0.319   5.640   7.922
  254POPC   C4B 8578   0.124   5.758   7.529
  255POPC   NC3 8579  33.656  16.598   9.480
  255POPC   PO4 8580  34.158  16.754   9.721
  255POPC   GL1 8581  34.012  16.779   9.195
  255POPC   GL2 8582  33.773  17.036   9.231
  255POPC   C1A 8583  33.815  16.671   8.800
  255POPC   D2A 8584  33.537  16.591   8.452
  255POPC   C3A 8585  33.689  16.664   8.022
  255POPC   C4A 8586  33.722  16.362   7.691
  255POPC   C1B 8587  33.866  17.178   8.798
  255POPC   C2B 8588  33.873  17.013   8.386
  255POPC   C3B 8589  34.000  17.112   7.964
  255POPC   C4B 8590  33.722  17.086   7.610
  256POPC   NC3 8591  38.367  25.345   9.759
  256POPC   PO4 8592  38.756  25.082   9.259
  256POPC   GL1 8593  38.367  25.320   9.208
  256POPC   GL2 8594  38.041  25.224   9.076
  256POPC   C1A 8595  38.354  25.531   8.788
  256POPC   D2A 8596  38.400  25.471   8.348
  256POPC   C3A 8597  38.754  25.358   8.118
  256POPC   C4A 8598  38.583  25.509   7.785
  256POPC   C1B 8599  38.322  25.020   8.785
  256POPC   C2B 8600  38.560  25.006   8.435
  256POPC   C3B 8601  38.372  25.018   8.009
  256POPC   C4B 8602  38.102  25.017   7.642
  257POPC   NC3 8603  15.897  36.850   9.407
  257POPC   PO4 8604  15.755  37.409   9.090
  257POPC   GL1 8605  15.662  36.994   8.968
  257POPC   GL2 8606  15.927  36.686   8.929
  257POPC   C1A 8607  15.724  36.957   8.542
  257POPC   D2A 8608  16.079  36.733   8.296
  257POPC   C3A 8609  15.923  36.554   7.895
  257POPC   C4A 8610  15.966  36.822   7.546
  257POPC   C1B 8611  16.168  37.028   8.755
  257POPC   C2B 8612  16.111  37.232   8.339
  257POPC   C3B 8613  16.220  37.124   7.898
  257POPC   C4B 8614  16.161  37.270   7.433
  258POPC   NC3 8615   9.842  26.382   9.377
  258POPC   PO4 8616   9.444  25.980   9.791
  258POPC   GL1 8617   9.609  25.940   9.277
  258POPC   GL2 8618   9.977  25.927   9.152
  258POPC   C1A 8619   9.653  26.177   8.800
  258POPC   D2A 8620   9.969  26.201   8.426
  258POPC   C3A 8621   9.858  26.306   7.979
  258POPC   C4A 8622   9.958  26.094   7.561
  258POPC   C1B 8623   9.775  25.697   8.808
  258POPC   C2B 8624   9.656  25.789   8.394
  258POPC   C3B 8625   9.728  25.825   7.958
  258POPC   C4B 8626   9.454  25.662   7.678
  259POPC   NC3 8627  42.886  43.727   9.854
  259POPC   PO4 8628  42.917  44.222   9.396
  259POPC   GL1 8629  43.069  44.117   9.009
  259POPC   GL2 8630  42.872  43.854   8.842
  259POPC   C1A 8631  43.324  44.038   8.676
  259POPC   D2A 8632  43.094  43.899   8.321
  259POPC   C3A 8633  43.289  43.864   7.918
  259POPC   C4A 8634  43.311  44.035   7.485
  259POPC   C1B 8635  43.093  43.492   8.647
  259POPC   C2B 8636  42.980  43.389   8.218
  259POPC   C3B 8637  42.781  43.717   7.957
  259POPC   C4B 8638  42.855  43.861   7.556
  260POPC   NC3 8639  18.339  44.210   9.553
  260POPC   PO4 8640  18.021  43.679   9.484
  260POPC   GL1 8641  18.282  43.867   9.164
  260POPC   GL2 8642  18.125  44.166   9.050
  260POPC   C1A 8643  18.570  44.035   8.823
  260POPC   D2A 8644  18.475  44.144   8.374
  260POPC   C3A 8645  18.531  43.932   7.950
  260POPC   C4A 8646  18.511  43.768   7.490
  260POPC   C1B 8647  18.127  43.843   8.671
  260POPC   C2B 8648  18.056  43.879   8.217
  260POPC   C3B 8649  18.065  43.946   7.768
  260POPC   C4B 8650  17.933  44.318   7.557
  261POPC   NC3 8651  39.576  19.867   9.408
  261POPC   PO4 8652  38.975  19.455   9.531
  261POPC   GL1 8653  39.100  19.666   9.144
  261POPC   GL2 8654  39.081  20.023   9.141
  261POPC   C1A 8655  39.286  19.766   8.722
  261POPC   D2A 8656  39.225  19.580   8.311
  261POPC   C3A 8657  39.341  19.704   7.854
  261POPC   C4A 8658  39.453  19.466   7.423
  261POPC   C1B 8659  39.193  20.258   8.736
  261POPC   C2B 8660  39.383  20.269   8.326
  261POPC   C3B 8661  39.302  20.271   7.886
  261POPC   C4B 8662  39.019  20.054   7.663
  262POPC   NC3 8663   8.615   7.479   9.438
  262POPC   PO4 8664   8.945   6.917   9.576
  262POPC   GL1 8665   8.955   7.187   9.179
  262POPC   GL2 8666   9.264   7.367   9.096
  262POPC   C1A 8667   8.683   7.138   8.788
  262POPC   D2A 8668   8.552   7.261   8.341
  262POPC   C3A 8669   8.847   7.411   8.039
  262POPC   C4A 8670   9.163   7.113   7.882
  262POPC   C1B 8671   9.123   7.404   8.682
  262POPC   C2B 8672   9.324   7.439   8.280
  262POPC   C3B 8673   9.315   7.605   7.838
  262POPC   C4B 8674   9.375   7.725   7.405
  263POPC   NC3 8675  43.156  41.936   9.530
  263POPC   PO4 8676  42.996  42.547   9.458
  263POPC   GL1 8677  43.289  42.329   9.180
  263POPC   GL2 8678  43.123  42.062   9.016
  263POPC   C1A 8679  43.335  42.496   8.754
  263POPC   D2A 8680  43.115  42.353   8.384
  263POPC   C3A 8681  43.251  42.431   7.955
  263POPC   C4A 8682  43.394  42.315   7.569
  263POPC   C1B 8683  42.804  42.364   8.821
  263POPC   C2B 8684  42.699  42.630   8.448
  263POPC   C3B 8685  42.747  42.524   8.004
  263POPC   C4B 8686  42.874  42.275   7.600
  264POPC   NC3 8687  21.719   0.242   9.488
  264POPC   PO4 8688  22.064   0.851   9.526
  264POPC   GL1 8689  21.926   0.691   9.141
  264POPC   GL2 8690  21.987   0.321   9.057
  264POPC   C1A 8691  22.131   0.731   8.762
  264POPC   D2A 8692  22.055   0.515   8.366
  264POPC   C3A 8693  22.047   0.769   7.981
  264POPC   C4A 8694  22.071   0.438   7.690
  264POPC   C1B 8695  22.291   0.111   8.772
  264POPC   C2B 8696  22.437   0.183   8.347
  264POPC   C3B 8697  22.437   0.156   7.954
  264POPC   C4B 8698  22.381  44.750   7.885
  265POPC   NC3 8699  32.187  13.071   9.521
  265POPC   PO4 8700  32.414  12.429   9.499
  265POPC   GL1 8701  32.263  12.740   9.122
  265POPC   GL2 8702  31.957  12.976   9.085
  265POPC   C1A 8703  32.290  12.935   8.693
  265POPC   D2A 8704  32.069  12.975   8.296
  265POPC   C3A 8705  32.346  12.921   7.945
  265POPC   C4A 8706  32.717  12.718   7.799
  265POPC   C1B 8707  31.796  13.189   8.721
  265POPC   C2B 8708  31.800  13.416   8.348
  265POPC   C3B 8709  31.983  13.370   7.962
  265POPC   C4B 8710  31.890  12.999   7.732
  266POPC   NC3 8711  23.992   0.319   9.500
  266POPC   PO4 8712  24.465   0.866   9.486
  266POPC   GL1 8713  24.336   0.524   9.172
  266POPC   GL2 8714  24.575   0.250   9.185
  266POPC   C1A 8715  24.339   0.315   8.731
  266POPC   D2A 8716  24.707   0.288   8.433
  266POPC   C3A 8717  24.548   0.288   8.012
  266POPC   C4A 8718  24.349   0.582   7.755
  266POPC   C1B 8719  24.742   0.578   8.875
  266POPC   C2B 8720  24.552   0.779   8.543
  266POPC   C3B 8721  24.700   0.763   8.150
  266POPC   C4B 8722  24.896   0.580   7.811
  267POPC   NC3 8723   0.924   4.070   9.390
  267POPC   PO4 8724   1.228   4.623   9.381
  267POPC   GL1 8725   1.397   4.278   9.134
  267POPC   GL2 8726   1.138   4.126   8.914
  267POPC   C1A 8727   1.584   4.264   8.721
  267POPC   D2A 8728   1.312   4.221   8.340
  267POPC   C3A 8729   1.166   3.981   7.954
  267POPC   C4A 8730   1.356   4.100   7.557
  267POPC   C1B 8731   1.163   4.573   8.712
  267POPC   C2B 8732   1.263   4.722   8.275
  267POPC   C3B 8733   1.183   4.489   7.910
  267POPC   C4B 8734   1.023   4.574   7.527
  268POPC   NC3 8735   2.831   7.232   9.401
  268POPC   PO4 8736   2.448   7.752   9.389
  268POPC   GL1 8737   2.658   7.529   9.011
  268POPC   GL2 8738   2.940   7.244   8.921
  268POPC   C1A 8739   2.632   7.459   8.584
  268POPC   D2A 8740   3.005   7.549   8.383
  268POPC   C3A 8741   2.785   7.822   8.121
  268POPC   C4A 8742   2.667   7.653   7.772
  268POPC   C1B 8743   2.495   7.035   8.849
  268POPC   C2B 8744   2.425   6.992   8.397
  268POPC   C3B 8745   2.703   7.248   8.092
  268POPC   C4B 8746   2.808   7.206   7.617
  269POPC   NC3 8747  34.469  10.001   9.494
  269POPC   PO4 8748  35.037   9.672   9.558
  269POPC   GL1 8749  34.912   9.659   9.118
  269POPC   GL2 8750  34.543   9.644   9.088
  269POPC   C1A 8751  34.844   9.948   8.760
  269POPC   D2A 8752  34.868  10.078   8.301
  269POPC   C3A 8753  34.771   9.739   7.999
  269POPC   C4A 8754  34.620   9.599   7.587
  269POPC   C1B 8755  34.326   9.846   8.723
  269POPC   C2B 8756  34.322   9.915   8.270
  269POPC   C3B 8757  34.231   9.576   7.952
  269POPC   C4B 8758  34.151   9.411   7.518
  270POPC   NC3 8759  15.181   0.932   9.613
  270POPC   PO4 8760  15.007   1.549   9.456
  270POPC   GL1 8761  14.984   1.211   9.188
  270POPC   GL2 8762  15.344   1.173   9.173
  270POPC   C1A 8763  14.935   1.245   8.754
  270POPC   D2A 8764  15.096   1.489   8.427
  270POPC   C3A 8765  15.314   1.373   8.084
  270POPC   C4A 8766  15.332   1.518   7.680
  270POPC   C1B 8767  15.301   0.896   8.809
  270POPC   C2B 8768  15.124   0.916   8.376
  270POPC   C3B 8769  15.321   0.854   7.968
  270POPC   C4B 8770  15.563   1.070   7.653
  271POPC   NC3 8771  38.946   8.399   9.543
  271POPC   PO4 8772  39.368   7.884   9.812
  271POPC   GL1 8773  39.189   7.987   9.309
  271POPC   GL2 8774  39.248   8.345   9.157
  271POPC   C1A 8775  39.313   7.981   8.849
  271POPC   D2A 8776  39.097   8.023   8.467
  271POPC   C3A 8777  39.309   7.922   8.103
  271POPC   C4A 8778  39.152   7.941   7.728
  271POPC   C1B 8779  39.014   8.521   8.829
  271POPC   C2B 8780  38.992   8.618   8.399
  271POPC   C3B 8781  39.377   8.635   8.164
  271POPC   C4B 8782  39.450   8.358   7.850
  272POPC   NC3 8783  23.552  18.422   9.405
  272POPC   PO4 8784  23.916  17.792   9.411
  272POPC   GL1 8785  23.869  18.101   9.128
  272POPC   GL2 8786  23.552  18.042   9.071
  272POPC   C1A 8787  23.882  18.049   8.688
  272POPC   D2A 8788  23.659  18.094   8.312
  272POPC   C3A 8789  23.964  18.107   7.994
  272POPC   C4A 8790  24.152  18.519   7.946
  272POPC   C1B 8791  23.536  18.402   8.764
  272POPC   C2B 8792  23.757  18.599   8.404
  272POPC   C3B 8793  23.625  18.516   7.979
  272POPC   C4B 8794  23.469  18.123   7.835
  273POPC   NC3 8795  20.741  40.439   9.622
  273POPC   PO4 8796  20.926  41.041   9.842
  273POPC   GL1 8797  20.699  40.898   9.312
  273POPC   GL2 8798  20.775  40.598   9.120
  273POPC   C1A 8799  20.535  40.934   8.824
  273POPC   D2A 8800  20.429  40.674   8.412
  273POPC   C3A 8801  20.567  40.703   7.947
  273POPC   C4A 8802  20.569  40.458   7.525
  273POPC   C1B 8803  20.904  40.636   8.649
  273POPC   C2B 8804  20.861  40.932   8.287
  273POPC   C3B 8805  21.136  40.982   7.917
  273POPC   C4B 8806  21.045  40.578   7.762
  274POPC   NC3 8807  37.919  37.942   9.443
  274POPC   PO4 8808  37.384  37.546   9.499
  274POPC   GL1 8809  37.779  37.482   9.195
  274POPC   GL2 8810  37.817  37.757   8.935
  274POPC   C1A 8811  38.096  37.342   8.845
  274POPC   D2A 8812  38.134  37.436   8.391
  274POPC   C3A 8813  37.804  37.618   8.181
  274POPC   C4A 8814  37.666  37.462   7.786
  274POPC   C1B 8815  38.102  37.913   8.561
  274POPC   C2B 8816  38.040  38.081   8.121
  274POPC   C3B 8817  37.710  38.001   7.795
  274POPC   C4B 8818  37.591  38.231   7.415
  275POPC   NC3 8819  44.215   4.497   9.504
  275POPC   PO4 8820  44.534   3.938   9.718
  275POPC   GL1 8821  44.539   4.173   9.291
  275POPC   GL2 8822  44.334   4.043   9.063
  275POPC   C1A 8823  44.729   4.256   8.845
  275POPC   D2A 8824   0.060   4.373   8.523
  275POPC   C3A 8825  44.910   4.392   8.082
  275POPC   C4A 8826  44.778   4.131   7.691
  275POPC   C1B 8827  44.213   4.131   8.673
  275POPC   C2B 8828  44.476   4.230   8.372
  275POPC   C3B 8829  44.397   4.313   7.981
  275POPC   C4B 8830  44.560   4.587   7.757
  276POPC   NC3 8831  14.241  26.399   9.933
  276POPC   PO4 8832  14.359  26.972   9.580
  276POPC   GL1 8833  14.454  26.815   9.180
  276POPC   GL2 8834  14.639  27.092   9.087
  276POPC   C1A 8835  14.424  26.801   8.730
  276POPC   D2A 8836  14.294  26.707   8.335
  276POPC   C3A 8837  14.604  26.610   8.025
  276POPC   C4A 8838  14.365  26.796   7.738
  276POPC   C1B 8839  14.602  27.271   8.740
  276POPC   C2B 8840  14.651  27.100   8.374
  276POPC   C3B 8841  14.651  27.152   7.992
  276POPC   C4B 8842  14.438  27.287   7.650
  277POPC   NC3 8843  31.362  16.924   9.554
  277POPC   PO4 8844  31.788  16.386   9.489
  277POPC   GL1 8845  31.628  16.687   9.205
  277POPC   GL2 8846  31.818  17.028   9.225
  277POPC   C1A 8847  31.322  16.745   8.881
  277POPC   D2A 8848  31.182  16.481   8.553
  277POPC   C3A 8849  31.188  16.658   8.153
  277POPC   C4A 8850  31.457  16.645   7.806
  277POPC   C1B 8851  31.847  16.852   8.797
  277POPC   C2B 8852  31.610  16.862   8.456
  277POPC   C3B 8853  31.812  16.768   8.119
  277POPC   C4B 8854  31.944  16.812   7.699
  278POPC   NC3 8855   0.128  16.557   9.412
  278POPC   PO4 8856  44.582  16.779   9.626
  278POPC   GL1 8857  44.678  16.796   9.221
  278POPC   GL2 8858  44.732  17.107   9.190
  278POPC   C1A 8859  44.728  16.643   8.809
  278POPC   D2A 8860  44.461  16.574   8.461
  278POPC   C3A 8861  44.674  16.516   8.067
  278POPC   C4A 8862  44.753  16.822   7.774
  278POPC   C1B 8863  44.729  17.151   8.747
  278POPC   C2B 8864  44.848  16.934   8.375
  278POPC   C3B 8865   0.092  17.096   8.030
  278POPC   C4B 8866  44.928  17.280   7.640
  279POPC   NC3 8867  34.264  30.296   9.536
  279POPC   PO4 8868  34.595  29.588   9.447
  279POPC   GL1 8869  34.727  29.805   9.108
  279POPC   GL2 8870  34.443  30.021   9.132
  279POPC   C1A 8871  34.786  29.905   8.676
  279POPC   D2A 8872  34.542  29.866   8.284
  279POPC   C3A 8873  34.667  30.073   7.897
  279POPC   C4A 8874  34.873  29.747   7.679
  279POPC   C1B 8875  34.285  29.802   8.767
  279POPC   C2B 8876  34.046  29.867   8.397
  279POPC   C3B 8877  34.144  30.012   7.967
  279POPC   C4B 8878  34.359  29.790   7.593
  280POPC   NC3 8879  41.422  24.934   9.650
  280POPC   PO4 8880  41.244  25.540   9.394
  280POPC   GL1 8881  41.553  25.363   9.122
  280POPC   GL2 8882  41.510  25.012   9.172
  280POPC   C1A 8883  41.700  25.447   8.682
  280POPC   D2A 8884  41.619  25.434   8.235
  280POPC   C3A 8885  41.830  25.679   7.980
  280POPC   C4A 8886  41.942  25.465   7.627
  280POPC   C1B 8887  41.516  24.966   8.771
  280POPC   C2B 8888  41.412  25.008   8.378
  280POPC   C3B 8889  41.256  24.858   8.013
  280POPC   C4B 8890  41.493  24.756   7.662
  281POPC   NC3 8891   6.538  34.255   9.567
  281POPC   PO4 8892   6.897  33.699   9.488
  281POPC   GL1 8893   6.740  33.929   9.165
  281POPC   GL2 8894   6.393  33.879   9.151
  281POPC   C1A 8895   6.741  33.803   8.725
  281POPC   D2A 8896   6.941  33.870   8.344
  281POPC   C3A 8897   6.740  33.704   8.001
  281POPC   C4A 8898   6.599  33.670   7.613
  281POPC   C1B 8899   6.283  34.018   8.726
  281POPC   C2B 8900   6.438  34.007   8.292
  281POPC   C3B 8901   6.442  34.126   7.851
  281POPC   C4B 8902   6.284  34.017   7.426
  282POPC   NC3 8903  34.893  15.534   9.505
  282POPC   PO4 8904  35.321  14.973   9.538
  282POPC   GL1 8905  35.342  15.189   9.152
  282POPC   GL2 8906  35.089  15.444   9.038
  282POPC   C1A 8907  35.500  15.308   8.734
  282POPC   D2A 8908  35.455  15.499   8.363
  282POPC   C3A 8909  35.662  15.285   8.047
  282POPC   C4A 8910  35.525  15.329   7.620
  282POPC   C1B 8911  35.031  15.094   8.769
  282POPC   C2B 8912  35.269  14.957   8.407
  282POPC   C3B 8913  35.235  15.060   7.998
  282POPC   C4B 8914  34.999  15.300   7.740
  283POPC   NC3 8915  40.980  29.768   9.394
  283POPC   PO4 8916  41.742  29.591   9.532
  283POPC   GL1 8917  41.533  29.730   9.182
  283POPC   GL2 8918  41.298  29.501   9.099
  283POPC   C1A 8919  41.689  29.600   8.772
  283POPC   D2A 8920  41.845  29.760   8.401
  283POPC   C3A 8921  41.540  29.734   8.127
  283POPC   C4A 8922  41.549  29.734   7.716
  283POPC   C1B 8923  41.188  29.680   8.668
  283POPC   C2B 8924  41.196  30.045   8.355
  283POPC   C3B 8925  41.202  30.075   7.884
  283POPC   C4B 8926  41.164  29.862   7.428
  284POPC   NC3 8927  40.885  18.688   9.599
  284POPC   PO4 8928  40.606  19.239   9.367
  284POPC   GL1 8929  40.616  18.879   9.112
  284POPC   GL2 8930  40.960  18.913   9.123
  284POPC   C1A 8931  40.619  18.864   8.637
  284POPC   D2A 8932  40.373  18.971   8.271
  284POPC   C3A 8933  40.572  19.233   7.965
  284POPC   C4A 8934  40.970  19.051   7.791
  284POPC   C1B 8935  41.087  18.704   8.756
  284POPC   C2B 8936  41.068  18.823   8.324
  284POPC   C3B 8937  41.104  18.586   7.973
  284POPC   C4B 8938  41.314  18.689   7.612
  285POPC   NC3 8939  10.080  39.022   9.496
  285POPC   PO4 8940   9.765  39.571   9.665
  285POPC   GL1 8941   9.684  39.329   9.246
  285POPC   GL2 8942   9.933  39.107   9.038
  285POPC   C1A 8943   9.489  39.199   8.836
  285POPC   D2A 8944   9.790  39.232   8.485
  285POPC   C3A 8945   9.590  39.269   8.057
  285POPC   C4A 8946   9.210  39.485   7.900
  285POPC   C1B 8947  10.298  39.076   8.801
  285POPC   C2B 8948  10.236  38.973   8.424
  285POPC   C3B 8949  10.107  39.174   8.072
  285POPC   C4B 8950   9.908  39.057   7.691
  286POPC   NC3 8951  16.160  33.048   9.625
  286POPC   PO4 8952  15.474  32.988   9.548
  286POPC   GL1 8953  15.840  33.161   9.220
  286POPC   GL2 8954  16.164  32.935   9.140
  286POPC   C1A 8955  16.031  33.276   8.783
  286POPC   D2A 8956  16.124  33.076   8.365
  286POPC   C3A 8957  15.914  33.287   8.023
  286POPC   C4A 8958  15.601  33.060   7.773
  286POPC   C1B 8959  16.032  32.739   8.772
  286POPC   C2B 8960  16.253  32.564   8.445
  286POPC   C3B 8961  16.156  32.543   8.014
  286POPC   C4B 8962  16.078  32.877   7.750
  287POPC   NC3 8963  34.892  13.226   9.522
  287POPC   PO4 8964  34.412  13.738   9.620
  287POPC   GL1 8965  34.417  13.662   9.165
  287POPC   GL2 8966  34.689  13.434   9.072
  287POPC   C1A 8967  34.515  13.808   8.750
  287POPC   D2A 8968  34.475  13.683   8.327
  287POPC   C3A 8969  34.468  13.998   7.996
  287POPC   C4A 8970  34.676  13.869   7.605
  287POPC   C1B 8971  34.874  13.176   8.721
  287POPC   C2B 8972  34.825  13.249   8.274
  287POPC   C3B 8973  34.737  13.492   7.921
  287POPC   C4B 8974  34.602  13.382   7.483
  288POPC   NC3 8975  16.835   8.227   9.457
  288POPC   PO4 8976  16.404   7.695   9.562
  288POPC   GL1 8977  16.467   7.989   9.180
  288POPC   GL2 8978  16.813   7.870   9.096
  288POPC   C1A 8979  16.550   8.259   8.771
  288POPC   D2A 8980  16.601   8.594   8.403
  288POPC   C3A 8981  16.653   8.481   7.955
  288POPC   C4A 8982  16.925   8.334   7.609
  288POPC   C1B 8983  16.952   7.936   8.700
  288POPC   C2B 8984  16.928   8.198   8.341
  288POPC   C3B 8985  17.171   8.148   8.003
  288POPC   C4B 8986  17.173   7.777   7.770
  289POPC   NC3 8987  40.918   7.640   9.375
  289POPC   PO4 8988  40.638   8.240   9.525
  289POPC   GL1 8989  40.778   8.394   9.118
  289POPC   GL2 8990  40.880   8.084   9.078
  289POPC   C1A 8991  40.674   8.283   8.659
  289POPC   D2A 8992  40.422   8.258   8.282
  289POPC   C3A 8993  40.694   8.207   7.952
  289POPC   C4A 8994  40.888   8.263   7.583
  289POPC   C1B 8995  41.063   7.926   8.728
  289POPC   C2B 8996  40.938   7.842   8.316
  289POPC   C3B 8997  41.123   7.923   7.918
  289POPC   C4B 8998  40.903   7.744   7.573
  290POPC   NC3 8999  35.400  41.530   9.523
  290POPC   PO4 9000  35.560  41.053   9.327
  290POPC   GL1 9001  35.302  41.360   9.048
  290POPC   GL2 9002  35.189  41.728   9.105
  290POPC   C1A 9003  35.085  41.351   8.652
  290POPC   D2A 9004  35.221  41.169   8.258
  290POPC   C3A 9005  35.122  41.371   7.850
  290POPC   C4A 9006  35.384  41.403   7.471
  290POPC   C1B 9007  35.151  41.861   8.675
  290POPC   C2B 9008  35.274  41.680   8.279
  290POPC   C3B 9009  35.464  41.743   7.876
  290POPC   C4B 9010  35.154  41.864   7.575
  291POPC   NC3 9011   8.412  38.267   9.419
  291POPC   PO4 9012   7.837  38.575   9.444
  291POPC   GL1 9013   8.100  38.523   9.086
  291POPC   GL2 9014   8.429  38.703   9.102
  291POPC   C1A 9015   8.055  38.250   8.705
  291POPC   D2A 9016   7.927  38.056   8.301
  291POPC   C3A 9017   7.859  38.408   8.019
  291POPC   C4A 9018   7.984  38.436   7.562
  291POPC   C1B 9019   8.390  38.662   8.677
  291POPC   C2B 9020   8.282  38.500   8.283
  291POPC   C3B 9021   8.333  38.278   7.910
  291POPC   C4B 9022   8.588  38.265   7.566
  292POPC   NC3 9023  41.981  26.744   9.301
  292POPC   PO4 9024  42.606  26.995   9.509
  292POPC   GL1 9025  42.669  26.715   9.167
  292POPC   GL2 9026  42.468  26.395   9.193
  292POPC   C1A 9027  42.490  26.814   8.773
  292POPC   D2A 9028  42.140  26.841   8.495
  292POPC   C3A 9029  42.353  26.933   8.124
  292POPC   C4A 9030  42.636  26.903   7.801
  292POPC   C1B 9031  42.293  26.342   8.749
  292POPC   C2B 9032  42.416  26.446   8.302
  292POPC   C3B 9033  42.283  26.491   7.843
  292POPC   C4B 9034  42.155  26.301   7.402
  293POPC   NC3 9035  16.767  10.000   9.466
  293POPC   PO4 9036  16.474   9.361   9.546
  293POPC   GL1 9037  16.363   9.569   9.165
  293POPC   GL2 9038  16.169   9.289   9.060
  293POPC   C1A 9039  16.709   9.607   8.811
  293POPC   D2A 9040  17.043   9.572   8.481
  293POPC   C3A 9041  16.902   9.673   8.063
  293POPC   C4A 9042  16.809   9.711   7.624
  293POPC   C1B 9043  16.262   9.414   8.667
  293POPC   C2B 9044  16.437   9.640   8.342
  293POPC   C3B 9045  16.409   9.752   7.931
  293POPC   C4B 9046  16.364  10.192   7.886
  294POPC   NC3 9047   0.689  21.102   9.479
  294POPC   PO4 9048   0.182  21.551   9.524
  294POPC   GL1 9049   0.299  21.282   9.190
  294POPC   GL2 9050   0.607  21.473   9.124
  294POPC   C1A 9051   0.419  21.080   8.792
  294POPC   D2A 9052   0.219  21.162   8.397
  294POPC   C3A 9053   0.411  21.231   8.009
  294POPC   C4A 9054   0.262  21.200   7.583
  294POPC   C1B 9055   0.507  21.578   8.701
  294POPC   C2B 9056   0.758  21.514   8.338
  294POPC   C3B 9057   0.830  21.504   7.900
  294POPC   C4B 9058   0.706  21.423   7.449
  295POPC   NC3 9059   1.323  19.941   9.540
  295POPC   PO4 9060   1.026  19.441   9.176
  295POPC   GL1 9061   1.138  19.866   9.063
  295POPC   GL2 9062   1.458  20.043   9.067
  295POPC   C1A 9063   1.178  19.895   8.639
  295POPC   D2A 9064   1.021  19.639   8.335
  295POPC   C3A 9065   1.006  19.957   8.084
  295POPC   C4A 9066   1.011  19.971   7.689
  295POPC   C1B 9067   1.604  19.663   8.875
  295POPC   C2B 9068   1.538  19.527   8.461
  295POPC   C3B 9069   1.469  19.735   8.071
  295POPC   C4B 9070   1.461  19.775   7.637
  296POPC   NC3 9071  27.521  18.482   9.456
  296POPC   PO4 9072  27.695  17.895   9.491
  296POPC   GL1 9073  27.775  18.163   9.114
  296POPC   GL2 9074  27.838  18.555   9.080
  296POPC   C1A 9075  27.551  18.294   8.740
  296POPC   D2A 9076  27.697  18.425   8.337
  296POPC   C3A 9077  27.549  18.193   8.016
  296POPC   C4A 9078  27.485  18.233   7.647
  296POPC   C1B 9079  28.048  18.501   8.718
  296POPC   C2B 9080  28.090  18.110   8.494
  296POPC   C3B 9081  28.048  18.112   8.062
  296POPC   C4B 9082  27.930  18.444   7.796
  297POPC   NC3 9083   9.905   5.800   9.747
  297POPC   PO4 9084   9.598   6.292   9.453
  297POPC   GL1 9085   9.849   5.980   9.268
  297POPC   GL2 9086   9.550   5.987   9.040
  297POPC   C1A 9087   9.921   5.677   8.901
  297POPC   D2A 9088   9.655   5.785   8.526
  297POPC   C3A 9089   9.836   5.811   8.097
  297POPC   C4A 9090   9.782   5.820   7.665
  297POPC   C1B 9091   9.494   6.283   8.677
  297POPC   C2B 9092   9.603   6.274   8.252
  297POPC   C3B 9093   9.421   6.130   7.873
  297POPC   C4B 9094   9.450   6.118   7.411
  298POPC   NC3 9095  24.955  26.078   9.357
  298POPC   PO4 9096  25.351  25.533   9.455
  298POPC   GL1 9097  25.200  25.735   9.068
  298POPC   GL2 9098  25.372  26.053   9.084
  298POPC   C1A 9099  25.257  25.867   8.615
  298POPC   D2A 9100  25.376  26.159   8.322
  298POPC   C3A 9101  25.167  26.083   7.963
  298POPC   C4A 9102  25.131  25.858   7.572
  298POPC   C1B 9103  25.640  26.229   8.777
  298POPC   C2B 9104  25.696  26.535   8.430
  298POPC   C3B 9105  25.699  26.425   7.984
  298POPC   C4B 9106  25.596  26.088   7.680
  299POPC   NC3 9107  13.435  18.937   9.537
  299POPC   PO4 9108  14.136  19.140   9.479
  299POPC   GL1 9109  13.932  18.852   9.175
  299POPC   GL2 9110  13.593  18.974   9.065
  299POPC   C1A 9111  13.981  18.867   8.738
  299POPC   D2A 9112  13.659  19.018   8.474
  299POPC   C3A 9113  13.800  18.994   8.050
  299POPC   C4A 9114  13.668  19.087   7.623
  299POPC   C1B 9115  13.187  18.821   8.895
  299POPC   C2B 9116  13.219  18.749   8.466
  299POPC   C3B 9117  13.303  19.003   8.095
  299POPC   C4B 9118  13.243  18.793   7.714
  300POPC   NC3 9119  15.621   2.514   9.438
  300POPC   PO4 9120  16.075   3.020   9.535
  300POPC   GL1 9121  15.818   2.914   9.169
  300POPC   GL2 9122  16.155   2.846   9.059
  300POPC   C1A 9123  15.787   2.788   8.712
  300POPC   D2A 9124  15.819   2.977   8.299
  300POPC   C3A 9125  15.897   2.767   7.879
  300POPC   C4A 9126  15.955   2.905   7.432
  300POPC   C1B 9127  16.293   2.582   8.741
  300POPC   C2B 9128  16.168   2.601   8.324
  300POPC   C3B 9129  16.406   2.565   7.992
  300POPC   C4B 9130  16.316   2.450   7.596
  301POPC   NC3 9131   0.924   7.261   9.468
  301POPC   PO4 9132   0.289   7.110   9.614
  301POPC   GL1 9133   0.413   7.336   9.236
  301POPC   GL2 9134   0.661   7.204   9.044
  301POPC   C1A 9135   0.302   7.515   8.824
  301POPC   D2A 9136   0.043   7.482   8.468
  301POPC   C3A 9137   0.222   7.604   8.071
  301POPC   C4A 9138   0.370   7.430   7.680
  301POPC   C1B 9139   0.786   7.380   8.692
  301POPC   C2B 9140   0.533   7.300   8.385
  301POPC   C3B 9141   0.707   7.360   8.046
  301POPC   C4B 9142   0.855   7.595   7.733
  302POPC   NC3 9143  44.593  23.580   9.586
  302POPC   PO4 9144  44.775  24.058   9.216
  302POPC   GL1 9145  44.621  23.871   8.944
  302POPC   GL2 9146  44.577  23.527   9.088
  302POPC   C1A 9147  44.788  23.936   8.548
  302POPC   D2A 9148  44.824  23.654   8.229
  302POPC   C3A 9149  44.728  23.828   7.848
  302POPC   C4A 9150  44.995  24.033   7.563
  302POPC   C1B 9151  44.655  23.423   8.689
  302POPC   C2B 9152  44.351  23.319   8.417
  302POPC   C3B 9153  44.401  23.442   8.038
  302POPC   C4B 9154  44.307  23.602   7.679
  303POPC   NC3 9155  31.756  14.834   9.263
  303POPC   PO4 9156  31.659  15.415   9.635
  303POPC   GL1 9157  31.569  15.274   9.168
  303POPC   GL2 9158  31.273  15.192   9.035
  303POPC   C1A 9159  31.720  15.177   8.740
  303POPC   D2A 9160  31.538  15.257   8.379
  303POPC   C3A 9161  31.781  15.110   8.058
  303POPC   C4A 9162  31.723  15.231   7.678
  303POPC   C1B 9163  31.085  15.198   8.661
  303POPC   C2B 9164  31.114  14.985   8.289
  303POPC   C3B 9165  31.276  15.131   7.927
  303POPC   C4B 9166  31.138  15.338   7.600
  304POPC   NC3 9167  11.419  31.992   9.435
  304POPC   PO4 9168  11.584  32.618   9.432
  304POPC   GL1 9169  11.329  32.432   9.090
  304POPC   GL2 9170  11.212  32.094   9.004
  304POPC   C1A 9171  11.283  32.426   8.645
  304POPC   D2A 9172  11.555  32.224   8.433
  304POPC   C3A 9173  11.342  32.123   8.088
  304POPC   C4A 9174  11.477  32.162   7.696
  304POPC   C1B 9175  11.089  31.895   8.650
  304POPC   C2B 9176  11.045  31.751   8.261
  304POPC   C3B 9177  11.155  31.724   7.814
  304POPC   C4B 9178  11.237  31.830   7.389
  305POPC   NC3 9179   1.592   4.962   9.338
  305POPC   PO4 9180   2.224   5.266   9.296
  305POPC   GL1 9181   2.060   4.993   9.063
  305POPC   GL2 9182   2.374   4.842   9.019
  305POPC   C1A 9183   1.812   5.110   8.697
  305POPC   D2A 9184   1.839   5.326   8.307
  305POPC   C3A 9185   1.822   5.186   7.874
  305POPC   C4A 9186   1.829   4.975   7.489
  305POPC   C1B 9187   2.329   5.014   8.626
  305POPC   C2B 9188   2.292   4.735   8.286
  305POPC   C3B 9189   2.166   4.801   7.887
  305POPC   C4B 9190   2.326   5.086   7.622
  306POPC   NC3 9191   9.941   9.731   9.320
  306POPC   PO4 9192   9.249   9.981   9.390
  306POPC   GL1 9193   9.505   9.970   9.044
  306POPC   GL2 9194   9.584   9.630   8.934
  306POPC   C1A 9195   9.435   9.992   8.603
  306POPC   D2A 9196   9.568   9.724   8.314
  306POPC   C3A 9197   9.661   9.850   7.929
  306POPC   C4A 9198   9.695   9.673   7.573
  306POPC   C1B 9199   9.958   9.635   8.656
  306POPC   C2B 9200  10.094   9.842   8.269
  306POPC   C3B 9201  10.154   9.681   7.848
  306POPC   C4B 9202  10.179   9.644   7.402
  307POPC   NC3 9203  39.772   5.132   9.392
  307POPC   PO4 9204  40.430   5.037   9.298
  307POPC   GL1 9205  40.158   5.240   9.064
  307POPC   GL2 9206  40.033   4.953   8.972
  307POPC   C1A 9207  39.922   5.341   8.710
  307POPC   D2A 9208  40.140   5.192   8.402
  307POPC   C3A 9209  39.934   5.270   8.042
  307POPC   C4A 9210  39.814   5.191   7.635
  307POPC   C1B 9211  40.331   4.786   8.671
  307POPC   C2B 9212  40.169   4.712   8.265
  307POPC   C3B 9213  40.092   4.802   7.863
  307POPC   C4B 9214  39.904   4.715   7.482
  308POPC   NC3 9215  13.954  23.331   9.479
  308POPC   PO4 9216  13.549  22.740   9.514
  308POPC   GL1 9217  13.544  22.787   9.122
  308POPC   GL2 9218  13.899  22.760   9.091
  308POPC   C1A 9219  13.612  22.591   8.733
  308POPC   D2A 9220  13.835  22.717   8.382
  308POPC   C3A 9221  13.689  23.049   8.145
  308POPC   C4A 9222  13.383  23.074   7.802
  308POPC   C1B 9223  13.737  23.105   8.762
  308POPC   C2B 9224  13.846  23.440   8.458
  308POPC   C3B 9225  14.036  23.484   8.039
  308POPC   C4B 9226  13.861  23.292   7.680
  309POPC   NC3 9227  23.699   1.820   9.677
  309POPC   PO4 9228  23.878   2.376   9.525
  309POPC   GL1 9229  23.832   2.200   9.141
  309POPC   GL2 9230  23.832   1.862   9.190
  309POPC   C1A 9231  23.647   2.221   8.745
  309POPC   D2A 9232  23.931   2.186   8.423
  309POPC   C3A 9233  23.755   2.242   8.050
  309POPC   C4A 9234  23.933   2.222   7.678
  309POPC   C1B 9235  23.604   1.739   8.828
  309POPC   C2B 9236  23.527   1.861   8.349
  309POPC   C3B 9237  23.762   1.751   7.937
  309POPC   C4B 9238  23.816   1.750   7.461
  310POPC   NC3 9239  27.687  23.899   9.764
  310POPC   PO4 9240  27.550  23.454   9.765
  310POPC   GL1 9241  27.560  23.656   9.315
  310POPC   GL2 9242  27.439  24.004   9.281
  310POPC   C1A 9243  27.665  23.689   8.817
  310POPC   D2A 9244  27.846  23.631   8.350
  310POPC   C3A 9245  27.590  23.639   7.942
  310POPC   C4A 9246  27.258  23.718   7.613
  310POPC   C1B 9247  27.441  24.152   8.813
  310POPC   C2B 9248  27.524  24.033   8.360
  310POPC   C3B 9249  27.481  24.152   7.911
  310POPC   C4B 9250  27.317  24.275   7.498
  311POPC   NC3 9251   1.761  11.278  10.071
  311POPC   PO4 9252   2.111  10.995   9.751
  311POPC   GL1 9253   1.978  11.055   9.278
  311POPC   GL2 9254   2.265  11.115   9.064
  311POPC   C1A 9255   1.793  11.179   8.810
  311POPC   D2A 9256   1.826  11.408   8.356
  311POPC   C3A 9257   1.899  11.255   7.913
  311POPC   C4A 9258   1.725  11.135   7.496
  311POPC   C1B 9259   2.252  11.248   8.616
  311POPC   C2B 9260   2.323  11.311   8.178
  311POPC   C3B 9261   2.377  11.428   7.741
  311POPC   C4B 9262   2.392  11.340   7.283
  312POPC   NC3 9263  40.879  42.578   9.569
  312POPC   PO4 9264  40.689  41.933   9.511
  312POPC   GL1 9265  40.804  42.187   9.155
  312POPC   GL2 9266  40.591  42.441   9.169
  312POPC   C1A 9267  40.756  42.277   8.705
  312POPC   D2A 9268  40.894  42.230   8.286
  312POPC   C3A 9269  40.586  42.178   7.988
  312POPC   C4A 9270  40.680  42.439   7.675
  312POPC   C1B 9271  40.848  42.737   8.910
  312POPC   C2B 9272  41.045  42.674   8.511
  312POPC   C3B 9273  40.882  42.724   8.090
  312POPC   C4B 9274  41.125  42.689   7.741
  313POPC   NC3 9275  32.076  44.232   9.460
  313POPC   PO4 9276  32.318  43.627   9.395
  313POPC   GL1 9277  32.118  43.883   9.080
  313POPC   GL2 9278  31.989  43.581   8.973
  313POPC   C1A 9279  32.128  44.219   8.722
  313POPC   D2A 9280  32.117  44.438   8.288
  313POPC   C3A 9281  32.128  44.218   7.902
  313POPC   C4A 9282  32.293  43.979   7.537
  313POPC   C1B 9283  32.144  43.693   8.601
  313POPC   C2B 9284  32.042  43.903   8.284
  313POPC   C3B 9285  31.983  43.744   7.886
  313POPC   C4B 9286  32.241  43.493   7.669
  314POPC   NC3 9287  36.439  14.254   9.556
  314POPC   PO4 9288  35.789  14.405   9.431
  314POPC   GL1 9289  36.096  14.356   9.165
  314POPC   GL2 9290  36.251  14.685   9.156
  314POPC   C1A 9291  36.012  14.308   8.766
  314POPC   D2A 9292  36.203  14.045   8.463
  314POPC   C3A 9293  36.045  14.115   8.071
  314POPC   C4A 9294  36.203  14.121   7.694
  314POPC   C1B 9295  36.205  14.793   8.717
  314POPC   C2B 9296  36.178  14.559   8.346
  314POPC   C3B 9297  36.295  14.576   7.932
  314POPC   C4B 9298  36.130  14.797   7.619
  315POPC   NC3 9299  40.915  13.454   9.497
  315POPC   PO4 9300  40.742  14.158   9.311
  315POPC   GL1 9301  40.815  13.769   9.105
  315POPC   GL2 9302  40.575  13.468   9.113
  315POPC   C1A 9303  41.029  13.507   8.750
  315POPC   D2A 9304  41.200  13.363   8.306
  315POPC   C3A 9305  40.966  13.533   7.911
  315POPC   C4A 9306  40.582  13.790   7.818
  315POPC   C1B 9307  40.506  13.693   8.724
  315POPC   C2B 9308  40.676  13.500   8.370
  315POPC   C3B 9309  40.524  13.322   8.026
  315POPC   C4B 9310  40.581  13.254   7.653
  316POPC   NC3 9311  21.746  29.768   9.633
  316POPC   PO4 9312  22.348  30.024   9.519
  316POPC   GL1 9313  22.113  29.919   9.157
  316POPC   GL2 9314  21.997  29.601   9.192
  316POPC   C1A 9315  22.107  30.023   8.709
  316POPC   D2A 9316  22.357  30.048   8.313
  316POPC   C3A 9317  22.146  29.861   7.937
  316POPC   C4A 9318  22.059  30.032   7.507
  316POPC   C1B 9319  21.757  29.639   8.811
  316POPC   C2B 9320  21.910  29.598   8.389
  316POPC   C3B 9321  21.728  29.455   7.998
  316POPC   C4B 9322  21.828  29.597   7.568
  317POPC   NC3 9323   9.312   3.554   9.480
  317POPC   PO4 9324   8.772   3.853   9.592
  317POPC   GL1 9325   8.841   3.650   9.223
  317POPC   GL2 9326   9.007   3.319   9.135
  317POPC   C1A 9327   8.853   3.832   8.848
  317POPC   D2A 9328   8.811   3.640   8.449
  317POPC   C3A 9329   8.922   3.810   8.054
  317POPC   C4A 9330   8.944   3.641   7.652
  317POPC   C1B 9331   9.267   3.564   8.824
  317POPC   C2B 9332   9.306   3.518   8.394
  317POPC   C3B 9333   9.261   3.417   7.986
  317POPC   C4B 9334   9.472   3.638   7.671
  318POPC   NC3 9335   3.311  44.931   9.797
  318POPC   PO4 9336   3.931  44.836   9.525
  318POPC   GL1 9337   3.938  44.656   9.122
  318POPC   GL2 9338   3.647  44.435   9.045
  318POPC   C1A 9339   3.739  44.867   8.752
  318POPC   D2A 9340   3.548  44.803   8.336
  318POPC   C3A 9341   3.572  44.407   8.121
  318POPC   C4A 9342   3.733  44.406   7.707
  318POPC   C1B 9343   3.376  44.478   8.674
  318POPC   C2B 9344   3.114  44.540   8.279
  318POPC   C3B 9345   3.289  44.771   7.892
  318POPC   C4B 9346   3.456   0.099   7.596
  319POPC   NC3 9347  18.267   7.880   9.343
  319POPC   PO4 9348  18.223   7.267   9.557
  319POPC   GL1 9349  18.213   7.367   9.114
  319POPC   GL2 9350  18.562   7.312   9.101
  319POPC   C1A 9351  18.286   7.522   8.666
  319POPC   D2A 9352  18.345   7.625   8.209
  319POPC   C3A 9353  17.975   7.519   7.941
  319POPC   C4A 9354  17.846   7.210   7.656
  319POPC   C1B 9355  18.558   7.077   8.739
  319POPC   C2B 9356  18.341   7.087   8.348
  319POPC   C3B 9357  18.331   7.176   7.917
  319POPC   C4B 9358  18.529   7.466   7.676
  320POPC   NC3 9359   8.236  34.640   9.928
  320POPC   PO4 9360   8.368  34.176   9.446
  320POPC   GL1 9361   8.075  34.505   9.281
  320POPC   GL2 9362   8.359  34.554   9.072
  320POPC   C1A 9363   7.928  34.715   8.865
  320POPC   D2A 9364   8.149  34.686   8.447
  320POPC   C3A 9365   7.991  34.738   8.068
  320POPC   C4A 9366   8.078  34.624   7.622
  320POPC   C1B 9367   8.571  34.714   8.725
  320POPC   C2B 9368   8.592  34.906   8.278
  320POPC   C3B 9369   8.450  34.871   7.847
  320POPC   C4B 9370   8.480  34.846   7.367
  321POPC   NC3 9371  18.689  22.263   9.529
  321POPC   PO4 9372  19.312  22.043   9.837
  321POPC   GL1 9373  19.194  22.233   9.335
  321POPC   GL2 9374  18.892  22.398   9.110
  321POPC   C1A 9375  19.250  22.269   8.805
  321POPC   D2A 9376  19.213  22.059   8.361
  321POPC   C3A 9377  19.146  22.214   7.920
  321POPC   C4A 9378  19.234  22.014   7.481
  321POPC   C1B 9379  18.706  22.172   8.740
  321POPC   C2B 9380  18.726  22.200   8.290
  321POPC   C3B 9381  18.727  21.884   7.964
  321POPC   C4B 9382  18.718  21.948   7.517
  322POPC   NC3 9383   9.187  28.596   9.719
  322POPC   PO4 9384   9.232  29.252   9.474
  322POPC   GL1 9385   9.179  29.475   9.106
  322POPC   GL2 9386   9.146  29.151   8.961
  322POPC   C1A 9387   9.210  29.537   8.651
  322POPC   D2A 9388   8.867  29.497   8.337
  322POPC   C3A 9389   8.873  29.323   7.918
  322POPC   C4A 9390   8.873  29.409   7.482
  322POPC   C1B 9391   9.431  29.060   8.610
  322POPC   C2B 9392   9.366  28.795   8.253
  322POPC   C3B 9393   9.147  28.852   7.848
  322POPC   C4B 9394   9.129  28.971   7.431
  323POPC   NC3 9395  39.270  26.678   9.400
  323POPC   PO4 9396  38.797  27.130   9.685
  323POPC   GL1 9397  38.849  26.948   9.236
  323POPC   GL2 9398  38.988  27.230   9.122
  323POPC   C1A 9399  39.071  26.792   8.801
  323POPC   D2A 9400  39.367  26.660   8.464
  323POPC   C3A 9401  39.200  26.727   8.086
  323POPC   C4A 9402  39.247  26.828   7.692
  323POPC   C1B 9403  39.225  27.293   8.741
  323POPC   C2B 9404  39.251  27.145   8.372
  323POPC   C3B 9405  39.144  27.243   7.977
  323POPC   C4B 9406  38.897  27.177   7.574
  324POPC   NC3 9407  34.854  16.277   9.628
  324POPC   PO4 9408  35.259  15.736   9.731
  324POPC   GL1 9409  35.304  15.836   9.270
  324POPC   GL2 9410  35.602  15.620   9.106
  324POPC   C1A 9411  35.338  15.914   8.798
  324POPC   D2A 9412  35.499  16.024   8.376
  324POPC   C3A 9413  35.203  15.864   8.043
  324POPC   C4A 9414  35.202  15.760   7.590
  324POPC   C1B 9415  35.825  15.737   8.724
  324POPC   C2B 9416  35.924  15.704   8.295
  324POPC   C3B 9417  35.682  15.757   7.934
  324POPC   C4B 9418  35.751  15.787   7.536
  325POPC   NC3 9419  34.228  20.910   9.409
  325POPC   PO4 9420  33.675  20.669   9.628
  325POPC   GL1 9421  33.907  20.554   9.215
  325POPC   GL2 9422  34.069  20.227   9.285
  325POPC   C1A 9423  33.962  20.738   8.759
  325POPC   D2A 9424  33.979  20.772   8.272
  325POPC   C3A 9425  33.575  20.861   7.995
  325POPC   C4A 9426  33.439  21.007   7.547
  325POPC   C1B 9427  34.087  20.254   8.831
  325POPC   C2B 9428  33.842  20.280   8.458
  325POPC   C3B 9429  34.028  20.302   8.053
  325POPC   C4B 9430  33.942  20.640   7.748
  326POPC   NC3 9431  14.164  15.770   9.582
  326POPC   PO4 9432  14.133  16.373   9.362
  326POPC   GL1 9433  14.391  16.066   9.203
  326POPC   GL2 9434  14.648  16.327   9.153
  326POPC   C1A 9435  14.397  15.836   8.808
  326POPC   D2A 9436  14.274  16.006   8.402
  326POPC   C3A 9437  14.535  15.880   8.096
  326POPC   C4A 9438  14.490  15.688   7.742
  326POPC   C1B 9439  14.404  16.352   8.755
  326POPC   C2B 9440  14.435  16.497   8.335
  326POPC   C3B 9441  14.622  16.388   7.941
  326POPC   C4B 9442  14.352  16.183   7.661
  327POPC   NC3 9443  28.877  44.708   9.515
  327POPC   PO4 9444  29.546  44.543   9.604
  327POPC   GL1 9445  29.274  44.485   9.240
  327POPC   GL2 9446  29.141  44.798   9.106
  327POPC   C1A 9447  29.338  44.481   8.792
  327POPC   D2A 9448  29.201  44.821   8.549
  327POPC   C3A 9449  29.139  44.794   8.085
  327POPC   C4A 9450  29.342  44.453   7.839
  327POPC   C1B 9451  28.844  44.587   8.835
  327POPC   C2B 9452  28.699  44.740   8.450
  327POPC   C3B 9453  28.710  44.539   8.072
  327POPC   C4B 9454  28.872  44.521   7.680
  328POPC   NC3 9455   7.548  12.163   9.603
  328POPC   PO4 9456   7.855  11.620   9.376
  328POPC   GL1 9457   7.517  11.856   9.164
  328POPC   GL2 9458   7.137  11.839   9.178
  328POPC   C1A 9459   7.379  12.215   8.907
  328POPC   D2A 9460   7.275  12.308   8.484
  328POPC   C3A 9461   7.532  12.106   8.223
  328POPC   C4A 9462   7.571  12.294   7.835
  328POPC   C1B 9463   7.272  11.675   8.735
  328POPC   C2B 9464   7.266  11.631   8.255
  328POPC   C3B 9465   7.391  11.814   7.830
  328POPC   C4B 9466   7.305  11.739   7.372
  329POPC   NC3 9467  11.521  38.646   9.672
  329POPC   PO4 9468  10.969  38.244   9.599
  329POPC   GL1 9469  11.125  38.389   9.176
  329POPC   GL2 9470  11.339  38.678   9.188
  329POPC   C1A 9471  11.138  38.510   8.712
  329POPC   D2A 9472  11.131  38.765   8.316
  329POPC   C3A 9473  11.172  38.479   7.946
  329POPC   C4A 9474  11.121  38.597   7.503
  329POPC   C1B 9475  11.621  38.589   8.850
  329POPC   C2B 9476  11.594  38.568   8.421
  329POPC   C3B 9477  11.641  38.676   7.993
  329POPC   C4B 9478  11.595  38.477   7.577
  330POPC   NC3 9479  15.129  14.506   9.811
  330POPC   PO4 9480  15.600  14.144   9.555
  330POPC   GL1 9481  15.355  14.172   9.164
  330POPC   GL2 9482  15.053  14.346   9.250
  330POPC   C1A 9483  15.190  14.197   8.713
  330POPC   D2A 9484  15.287  14.414   8.296
  330POPC   C3A 9485  15.005  14.452   7.941
  330POPC   C4A 9486  14.699  14.472   7.615
  330POPC   C1B 9487  14.986  14.636   8.887
  330POPC   C2B 9488  15.031  14.875   8.495
  330POPC   C3B 9489  14.975  14.965   8.062
  330POPC   C4B 9490  15.336  14.850   7.809
  331POPC   NC3 9491   7.948   4.535   9.333
  331POPC   PO4 9492   7.291   4.288   9.437
  331POPC   GL1 9493   7.580   4.230   9.098
  331POPC   GL2 9494   7.734   3.895   9.043
  331POPC   C1A 9495   7.468   4.397   8.681
  331POPC   D2A 9496   7.195   4.655   8.386
  331POPC   C3A 9497   7.330   4.538   7.951
  331POPC   C4A 9498   7.711   4.244   7.856
  331POPC   C1B 9499   7.349   3.904   8.765
  331POPC   C2B 9500   7.236   3.815   8.354
  331POPC   C3B 9501   7.213   4.022   7.946
  331POPC   C4B 9502   6.896   4.177   7.730
  332POPC   NC3 9503  38.032  44.798   9.072
  332POPC   PO4 9504  37.686  44.547   9.589
  332POPC   GL1 9505  37.419  44.573   9.229
  332POPC   GL2 9506  37.409  44.931   9.177
  332POPC   C1A 9507  37.496  44.529   8.801
  332POPC   D2A 9508  37.723  44.630   8.437
  332POPC   C3A 9509  37.574  44.491   8.043
  332POPC   C4A 9510  37.699  44.690   7.677
  332POPC   C1B 9511  37.509   0.082   8.788
  332POPC   C2B 9512  37.386   0.053   8.402
  332POPC   C3B 9513  37.607   0.027   8.049
  332POPC   C4B 9514  37.399   0.129   7.685
  333POPC   NC3 9515  28.271  19.807   9.609
  333POPC   PO4 9516  28.719  19.338   9.405
  333POPC   GL1 9517  28.340  19.601   9.158
  333POPC   GL2 9518  28.464  19.962   9.152
  333POPC   C1A 9519  28.094  19.851   8.824
  333POPC   D2A 9520  28.066  20.138   8.453
  333POPC   C3A 9521  28.041  19.973   8.058
  333POPC   C4A 9522  28.350  19.766   7.847
  333POPC   C1B 9523  28.530  20.141   8.725
  333POPC   C2B 9524  28.524  20.021   8.273
  333POPC   C3B 9525  28.605  20.200   7.853
  333POPC   C4B 9526  28.270  20.170   7.529
  334POPC   NC3 9527  40.401   7.027   9.348
  334POPC   PO4 9528  40.834   6.598   9.683
  334POPC   GL1 9529  40.847   6.673   9.210
  334POPC   GL2 9530  41.095   6.398   9.171
  334POPC   C1A 9531  40.898   6.893   8.781
  334POPC   D2A 9532  40.637   6.900   8.393
  334POPC   C3A 9533  40.880   6.874   7.996
  334POPC   C4A 9534  40.804   6.777   7.540
  334POPC   C1B 9535  40.849   6.373   8.776
  334POPC   C2B 9536  40.973   6.505   8.355
  334POPC   C3B 9537  41.099   6.413   7.909
  334POPC   C4B 9538  41.004   6.341   7.418
  335POPC   NC3 9539  22.229  41.497   9.606
  335POPC   PO4 9540  22.394  40.921   9.543
  335POPC   GL1 9541  22.054  40.911   9.226
  335POPC   GL2 9542  22.212  41.170   9.062
  335POPC   C1A 9543  21.935  40.793   8.773
  335POPC   D2A 9544  22.152  40.897   8.366
  335POPC   C3A 9545  22.084  40.641   8.019
  335POPC   C4A 9546  21.978  40.670   7.629
  335POPC   C1B 9547  21.997  41.292   8.690
  335POPC   C2B 9548  21.986  41.406   8.241
  335POPC   C3B 9549  22.287  41.222   7.943
  335POPC   C4B 9550  22.481  40.827   7.773
  336POPC   NC3 9551  27.767   3.571   9.526
  336POPC   PO4 9552  27.106   3.308   9.482
  336POPC   GL1 9553  27.384   3.603   9.204
  336POPC   GL2 9554  27.545   3.369   8.990
  336POPC   C1A 9555  27.438   3.811   8.794
  336POPC   D2A 9556  27.605   3.593   8.440
  336POPC   C3A 9557  27.642   3.691   8.026
  336POPC   C4A 9558  27.575   3.490   7.625
  336POPC   C1B 9559  27.863   3.237   8.684
  336POPC   C2B 9560  27.845   3.137   8.239
  336POPC   C3B 9561  28.009   3.360   7.870
  336POPC   C4B 9562  28.021   3.328   7.393
  337POPC   NC3 9563  31.890  12.260   9.597
  337POPC   PO4 9564  31.622  11.760   9.860
  337POPC   GL1 9565  31.685  11.902   9.316
  337POPC   GL2 9566  31.445  12.152   9.202
  337POPC   C1A 9567  31.778  12.131   8.845
  337POPC   D2A 9568  31.913  12.243   8.424
  337POPC   C3A 9569  31.585  12.197   8.114
  337POPC   C4A 9570  31.672  12.160   7.683
  337POPC   C1B 9571  31.316  11.912   8.848
  337POPC   C2B 9572  31.257  12.037   8.464
  337POPC   C3B 9573  31.161  11.872   8.097
  337POPC   C4B 9574  31.042  12.086   7.803
  338POPC   NC3 9575  36.490  33.944   9.679
  338POPC   PO4 9576  37.101  33.635   9.480
  338POPC   GL1 9577  37.009  33.890   9.150
  338POPC   GL2 9578  36.793  34.173   9.252
  338POPC   C1A 9579  36.953  33.661   8.756
  338POPC   D2A 9580  36.947  33.446   8.362
  338POPC   C3A 9581  36.832  33.642   7.974
  338POPC   C4A 9582  36.686  33.447   7.608
  338POPC   C1B 9583  36.617  34.028   8.844
  338POPC   C2B 9584  36.631  33.876   8.402
  338POPC   C3B 9585  36.509  34.060   7.986
  338POPC   C4B 9586  36.561  33.933   7.554
  339POPC   NC3 9587   9.699  27.287   9.778
  339POPC   PO4 9588   9.791  27.882   9.649
  339POPC   GL1 9589   9.790  27.660   9.238
  339POPC   GL2 9590  10.043  27.442   9.271
  339POPC   C1A 9591   9.640  27.702   8.787
  339POPC   D2A 9592   9.575  27.825   8.320
  339POPC   C3A 9593   9.525  27.498   7.959
  339POPC   C4A 9594   9.391  27.445   7.503
  339POPC   C1B 9595  10.138  27.591   8.855
  339POPC   C2B 9596   9.988  27.566   8.434
  339POPC   C3B 9597   9.992  27.700   8.009
  339POPC   C4B 9598   9.898  27.517   7.565
  340POPC   NC3 9599  10.129  23.052   9.454
  340POPC   PO4 9600   9.624  22.691   9.780
  340POPC   GL1 9601   9.668  22.822   9.289
  340POPC   GL2 9602   9.941  22.705   9.140
  340POPC   C1A 9603   9.554  22.930   8.809
  340POPC   D2A 9604   9.574  22.840   8.329
  340POPC   C3A 9605   9.798  22.788   7.927
  340POPC   C4A 9606   9.836  23.175   7.824
  340POPC   C1B 9607  10.058  22.975   8.772
  340POPC   C2B 9608  10.085  22.864   8.352
  340POPC   C3B 9609  10.306  22.923   7.975
  340POPC   C4B 9610  10.263  23.101   7.549
  341POPC   NC3 9611  12.204  12.144   9.595
  341POPC   PO4 9612  12.199  11.589   9.284
  341POPC   GL1 9613  11.999  11.978   9.113
  341POPC   GL2 9614  11.716  12.198   9.187
  341POPC   C1A 9615  11.948  12.097   8.693
  341POPC   D2A 9616  12.165  11.897   8.396
  341POPC   C3A 9617  12.200  12.115   8.057
  341POPC   C4A 9618  12.131  11.955   7.679
  341POPC   C1B 9619  11.710  12.519   8.810
  341POPC   C2B 9620  11.921  12.538   8.383
  341POPC   C3B 9621  11.772  12.686   8.011
  341POPC   C4B 9622  11.551  12.566   7.645
  342POPC   NC3 9623  37.285  17.069   9.287
  342POPC   PO4 9624  36.980  16.538   9.600
  342POPC   GL1 9625  36.951  16.667   9.173
  342POPC   GL2 9626  36.697  16.941   9.103
  342POPC   C1A 9627  36.968  16.728   8.730
  342POPC   D2A 9628  36.796  16.900   8.381
  342POPC   C3A 9629  36.784  16.734   7.975
  342POPC   C4A 9630  37.123  16.727   7.706
  342POPC   C1B 9631  36.508  17.160   8.723
  342POPC   C2B 9632  36.656  17.368   8.306
  342POPC   C3B 9633  36.583  17.206   7.866
  342POPC   C4B 9634  36.419  17.140   7.422
  343POPC   NC3 9635  16.530  33.789   9.503
  343POPC   PO4 9636  17.143  33.493   9.664
  343POPC   GL1 9637  16.742  33.433   9.252
  343POPC   GL2 9638  16.791  33.812   9.077
  343POPC   C1A 9639  16.705  33.423   8.782
  343POPC   D2A 9640  16.900  33.713   8.505
  343POPC   C3A 9641  16.815  33.605   8.105
  343POPC   C4A 9642  16.898  33.700   7.701
  343POPC   C1B 9643  16.701  34.125   8.772
  343POPC   C2B 9644  16.526  34.060   8.390
  343POPC   C3B 9645  16.686  34.111   8.021
  343POPC   C4B 9646  16.648  34.127   7.618
  344POPC   NC3 9647  41.707  19.258   9.606
  344POPC   PO4 9648  41.322  18.712   9.463
  344POPC   GL1 9649  41.438  19.079   9.184
  344POPC   GL2 9650  41.770  19.221   9.125
  344POPC   C1A 9651  41.435  19.066   8.731
  344POPC   D2A 9652  41.595  18.846   8.379
  344POPC   C3A 9653  41.484  19.015   7.970
  344POPC   C4A 9654  41.422  19.194   7.549
  344POPC   C1B 9655  41.931  18.960   8.847
  344POPC   C2B 9656  42.051  19.060   8.449
  344POPC   C3B 9657  41.985  18.849   8.029
  344POPC   C4B 9658  41.815  18.825   7.599
  345POPC   NC3 9659  28.029   6.291   9.452
  345POPC   PO4 9660  28.505   6.765   9.560
  345POPC   GL1 9661  28.404   6.858   9.139
  345POPC   GL2 9662  28.374   6.490   9.123
  345POPC   C1A 9663  28.218   6.741   8.713
  345POPC   D2A 9664  28.262   6.524   8.327
  345POPC   C3A 9665  28.201   6.762   7.958
  345POPC   C4A 9666  27.947   6.536   7.740
  345POPC   C1B 9667  28.675   6.555   8.804
  345POPC   C2B 9668  28.741   6.720   8.388
  345POPC   C3B 9669  28.662   6.574   7.968
  345POPC   C4B 9670  28.867   6.370   7.639
  346POPC   NC3 9671  29.062  42.976   9.433
  346POPC   PO4 9672  29.235  43.646   9.445
  346POPC   GL1 9673  29.041  43.507   9.077
  346POPC   GL2 9674  29.266  43.283   9.065
  346POPC   C1A 9675  28.991  43.433   8.638
  346POPC   D2A 9676  29.317  43.314   8.346
  346POPC   C3A 9677  29.255  43.419   7.933
  346POPC   C4A 9678  28.921  43.188   7.763
  346POPC   C1B 9679  29.189  42.945   8.768
  346POPC   C2B 9680  29.439  42.831   8.406
  346POPC   C3B 9681  29.366  42.923   7.979
  346POPC   C4B 9682  29.358  42.994   7.553
  347POPC   NC3 9683  16.764  27.937   9.355
  347POPC   PO4 9684  16.362  27.434   9.405
  347POPC   GL1 9685  16.620  27.497   9.005
  347POPC   GL2 9686  16.925  27.717   8.923
  347POPC   C1A 9687  16.578  27.667   8.565
  347POPC   D2A 9688  16.411  28.006   8.334
  347POPC   C3A 9689  16.489  27.911   7.918
  347POPC   C4A 9690  16.421  27.633   7.589
  347POPC   C1B 9691  17.006  27.965   8.578
  347POPC   C2B 9692  16.936  27.930   8.161
  347POPC   C3B 9693  16.964  27.624   7.842
  347POPC   C4B 9694  16.935  27.705   7.418
  348POPC   NC3 9695  22.517  33.605   9.567
  348POPC   PO4 9696  23.179  33.560   9.516
  348POPC   GL1 9697  22.942  33.662   9.172
  348POPC   GL2 9698  22.740  33.952   9.260
  348POPC   C1A 9699  23.084  33.667   8.760
  348POPC   D2A 9700  23.343  33.642   8.414
  348POPC   C3A 9701  23.062  33.613   8.099
  348POPC   C4A 9702  23.185  33.831   7.757
  348POPC   C1B 9703  22.652  33.942   8.821
  348POPC   C2B 9704  22.873  33.985   8.426
  348POPC   C3B 9705  22.768  34.009   7.999
  348POPC   C4B 9706  22.549  33.713   7.802
  349POPC   NC3 9707  36.669  36.448   9.457
  349POPC   PO4 9708  36.753  35.797   9.421
  349POPC   GL1 9709  37.032  35.874   9.103
  349POPC   GL2 9710  37.009  36.244   9.082
  349POPC   C1A 9711  36.892  35.896   8.682
  349POPC   D2A 9712  36.980  36.162   8.346
  349POPC   C3A 9713  36.814  36.066   7.954
  349POPC   C4A 9714  36.836  35.695   7.746
  349POPC   C1B 9715  36.740  36.405   8.723
  349POPC   C2B 9716  36.708  36.576   8.248
  349POPC   C3B 9717  36.837  36.533   7.787
  349POPC   C4B 9718  36.677  36.381   7.378
  350POPC   NC3 9719   8.331   3.732   9.557
  350POPC   PO4 9720   7.761   3.456   9.682
  350POPC   GL1 9721   7.991   3.453   9.258
  350POPC   GL2 9722   8.356   3.355   9.226
  350POPC   C1A 9723   8.082   3.564   8.826
  350POPC   D2A 9724   7.981   3.706   8.404
  350POPC   C3A 9725   7.989   3.398   8.054
  350POPC   C4A 9726   7.930   3.550   7.623
  350POPC   C1B 9727   8.570   3.379   8.847
  350POPC   C2B 9728   8.387   3.362   8.443
  350POPC   C3B 9729   8.484   3.529   8.051
  350POPC   C4B 9730   8.348   3.275   7.710
  351POPC   NC3 9731   6.333   3.244   9.555
  351POPC   PO4 9732   5.828   3.660   9.313
  351POPC   GL1 9733   5.909   3.421   9.011
  351POPC   GL2 9734   6.242   3.382   9.094
  351POPC   C1A 9735   5.743   3.386   8.607
  351POPC   D2A 9736   5.508   3.645   8.287
  351POPC   C3A 9737   5.562   3.545   7.842
  351POPC   C4A 9738   5.735   3.134   7.756
  351POPC   C1B 9739   6.300   3.725   8.843
  351POPC   C2B 9740   6.094   3.718   8.464
  351POPC   C3B 9741   5.970   3.427   8.149
  351POPC   C4B 9742   6.132   3.488   7.775
  352POPC   NC3 9743  15.968  34.125   9.629
  352POPC   PO4 9744  16.149  33.520   9.555
  352POPC   GL1 9745  16.017  33.804   9.208
  352POPC   GL2 9746  16.295  33.977   9.085
  352POPC   C1A 9747  15.837  33.921   8.783
  352POPC   D2A 9748  16.011  33.966   8.339
  352POPC   C3A 9749  15.846  33.807   7.946
  352POPC   C4A 9750  15.791  33.973   7.537
  352POPC   C1B 9751  16.312  33.738   8.751
  352POPC   C2B 9752  16.351  33.553   8.374
  352POPC   C3B 9753  16.346  33.733   7.985
  352POPC   C4B 9754  16.246  33.769   7.595
  353POPC   NC3 9755   6.867  15.378   9.693
  353POPC   PO4 9756   6.458  15.684   9.326
  353POPC   GL1 9757   6.726  15.355   9.158
  353POPC   GL2 9758   6.889  15.034   9.276
  353POPC   C1A 9759   6.694  15.222   8.750
  353POPC   D2A 9760   6.451  15.399   8.398
  353POPC   C3A 9761   6.615  15.264   8.001
  353POPC   C4A 9762   6.428  15.528   7.699
  353POPC   C1B 9763   7.044  14.850   8.849
  353POPC   C2B 9764   6.946  14.931   8.391
  353POPC   C3B 9765   6.983  14.796   7.962
  353POPC   C4B 9766   6.958  14.987   7.570
  354POPC   NC3 9767  24.917   0.700   9.483
  354POPC   PO4 9768  25.313   0.190   9.515
  354POPC   GL1 9769  25.256   0.463   9.172
  354POPC   GL2 9770  25.064   0.220   9.010
  354POPC   C1A 9771  25.223   0.794   8.867
  354POPC   D2A 9772  25.107   0.608   8.480
  354POPC   C3A 9773  25.246   0.827   8.139
  354POPC   C4A 9774  25.346   0.785   7.731
  354POPC   C1B 9775  25.426   0.016   8.861
  354POPC   C2B 9776  25.396  44.861   8.456
  354POPC   C3B 9777  25.159   0.093   8.179
  354POPC   C4B 9778  25.169   0.165   7.789
  355POPC   NC3 9779  13.644   7.130   9.382
  355POPC   PO4 9780  13.840   7.766   9.530
  355POPC   GL1 9781  13.816   7.547   9.122
  355POPC   GL2 9782  13.450   7.503   9.089
  355POPC   C1A 9783  13.724   7.452   8.659
  355POPC   D2A 9784  13.772   7.697   8.278
  355POPC   C3A 9785  13.661   7.577   7.847
  355POPC   C4A 9786  13.837   7.269   7.600
  355POPC   C1B 9787  13.350   7.133   8.818
  355POPC   C2B 9788  13.368   6.991   8.424
  355POPC   C3B 9789  13.578   7.058   8.045
  355POPC   C4B 9790  13.343   7.092   7.674
  356POPC   NC3 9791  16.434   1.358   9.512
  356POPC   PO4 9792  15.781   1.260   9.477
  356POPC   GL1 9793  15.866   1.307   9.081
  356POPC   GL2 9794  16.203   1.129   9.092
  356POPC   C1A 9795  15.576   1.334   8.731
  356POPC   D2A 9796  15.603   1.073   8.384
  356POPC   C3A 9797  15.811   1.258   8.056
  356POPC   C4A 9798  16.198   1.183   7.864
  356POPC   C1B 9799  16.270   1.490   8.816
  356POPC   C2B 9800  16.126   1.525   8.393
  356POPC   C3B 9801  16.105   1.680   7.977
  356POPC   C4B 9802  15.901   1.507   7.606
  357POPC   NC3 9803  19.401   0.650   9.532
  357POPC   PO4 9804  19.166  44.972   9.480
  357POPC   GL1 9805  19.177   0.122   9.040
  357POPC   GL2 9806  19.318   0.421   9.083
  357POPC   C1A 9807  18.894   0.408   8.749
  357POPC   D2A 9808  18.668   0.602   8.385
  357POPC   C3A 9809  18.750   0.352   8.022
  357POPC   C4A 9810  19.069   0.299   7.726
  357POPC   C1B 9811  19.405   0.510   8.674
  357POPC   C2B 9812  19.192   0.518   8.280
  357POPC   C3B 9813  18.983   0.791   8.021
  357POPC   C4B 9814  18.964   0.772   7.605
  358POPC   NC3 9815  25.727  31.459   9.790
  358POPC   PO4 9816  26.178  31.746   9.406
  358POPC   GL1 9817  26.317  31.587   9.058
  358POPC   GL2 9818  26.166  31.291   9.082
  358POPC   C1A 9819  26.175  31.574   8.667
  358POPC   D2A 9820  26.036  31.392   8.357
  358POPC   C3A 9821  26.259  31.321   8.044
  358POPC   C4A 9822  26.203  31.569   7.726
  358POPC   C1B 9823  25.813  31.185   8.775
  358POPC   C2B 9824  25.601  31.139   8.353
  358POPC   C3B 9825  25.806  31.121   7.919
  358POPC   C4B 9826  25.699  31.192   7.452
  359POPC   NC3 9827  39.432  22.371   9.497
  359POPC   PO4 9828  38.828  22.029   9.474
  359POPC   GL1 9829  39.189  22.059   9.190
  359POPC   GL2 9830  39.026  22.374   9.101
  359POPC   C1A 9831  39.423  22.267   8.786
  359POPC   D2A 9832  39.660  22.220   8.382
  359POPC   C3A 9833  39.492  22.304   7.977
  359POPC   C4A 9834  39.399  22.189   7.542
  359POPC   C1B 9835  38.976  22.030   8.748
  359POPC   C2B 9836  39.166  22.022   8.334
  359POPC   C3B 9837  39.119  21.957   7.907
  359POPC   C4B 9838  39.136  21.600   7.733
  360POPC   NC3 9839  24.868  31.252   9.575
  360POPC   PO4 9840  24.599  31.869   9.388
  360POPC   GL1 9841  24.377  31.619   9.106
  360POPC   GL2 9842  24.469  31.279   9.214
  360POPC   C1A 9843  24.449  31.657   8.661
  360POPC   D2A 9844  24.342  31.721   8.241
  360POPC   C3A 9845  24.589  31.759   7.859
  360POPC   C4A 9846  24.526  31.758   7.404
  360POPC   C1B 9847  24.286  31.181   8.812
  360POPC   C2B 9848  24.527  31.161   8.448
  360POPC   C3B 9849  24.472  31.257   8.034
  360POPC   C4B 9850  24.705  31.292   7.678
  361POPC   NC3 9851  10.645   2.955   9.798
  361POPC   PO4 9852  10.781   2.367   9.661
  361POPC   GL1 9853  10.526   2.635   9.339
  361POPC   GL2 9854  10.594   2.987   9.256
  361POPC   C1A 9855  10.368   2.720   8.892
  361POPC   D2A 9856  10.244   2.556   8.497
  361POPC   C3A 9857  10.538   2.668   8.166
  361POPC   C4A 9858  10.476   2.807   7.743
  361POPC   C1B 9859  10.740   3.141   8.842
  361POPC   C2B 9860  10.703   3.159   8.363
  361POPC   C3B 9861  10.830   3.109   7.912
  361POPC   C4B 9862  10.688   3.139   7.416
  362POPC   NC3 9863  31.379  34.860   9.356
  362POPC   PO4 9864  31.592  35.468   9.544
  362POPC   GL1 9865  31.740  35.215   9.230
  362POPC   GL2 9866  31.816  35.529   9.086
  362POPC   C1A 9867  31.644  35.102   8.801
  362POPC   D2A 9868  31.760  35.408   8.498
  362POPC   C3A 9869  31.521  35.327   8.138
  362POPC   C4A 9870  31.275  35.199   7.795
  362POPC   C1B 9871  31.370  35.523   8.902
  362POPC   C2B 9872  31.174  35.490   8.506
  362POPC   C3B 9873  31.089  35.571   8.082
  362POPC   C4B 9874  31.362  35.722   7.801
  363POPC   NC3 9875   8.774  10.071   9.471
  363POPC   PO4 9876   8.779  10.705   9.618
  363POPC   GL1 9877   8.889  10.520   9.228
  363POPC   GL2 9878   9.228  10.588   9.237
  363POPC   C1A 9879   8.649  10.392   8.850
  363POPC   D2A 9880   8.474  10.557   8.467
  363POPC   C3A 9881   8.780  10.616   8.159
  363POPC   C4A 9882   9.073  10.560   7.788
  363POPC   C1B 9883   9.234  10.399   8.846
  363POPC   C2B 9884   9.230  10.443   8.399
  363POPC   C3B 9885   9.246  10.151   8.042
  363POPC   C4B 9886   9.382  10.143   7.590
  364POPC   NC3 9887  19.932   7.478   9.427
  364POPC   PO4 9888  19.189   7.453   9.447
  364POPC   GL1 9889  19.536   7.489   9.080
  364POPC   GL2 9890  19.795   7.713   8.992
  364POPC   C1A 9891  19.689   7.313   8.658
  364POPC   D2A 9892  20.078   7.220   8.404
  364POPC   C3A 9893  20.014   7.191   7.925
  364POPC   C4A 9894  19.724   7.149   7.564
  364POPC   C1B 9895  19.921   7.779   8.612
  364POPC   C2B 9896  19.815   7.645   8.224
  364POPC   C3B 9897  19.969   7.676   7.825
  364POPC   C4B 9898  19.828   7.628   7.407
  365POPC   NC3 9899  11.894  30.742   9.703
  365POPC   PO4 9900  12.367  30.317   9.627
  365POPC   GL1 9901  12.291  30.665   9.365
  365POPC   GL2 9902  11.955  30.599   9.204
  365POPC   C1A 9903  12.375  30.812   8.967
  365POPC   D2A 9904  12.174  30.721   8.604
  365POPC   C3A 9905  12.303  30.902   8.233
  365POPC   C4A 9906  12.218  30.698   7.855
  365POPC   C1B 9907  11.763  30.863   8.870
  365POPC   C2B 9908  11.601  30.758   8.503
  365POPC   C3B 9909  11.847  30.651   8.204
  365POPC   C4B 9910  11.760  30.975   7.937
  366POPC   NC3 9911   8.923   0.186   9.504
  366POPC   PO4 9912   8.703   0.829   9.485
  366POPC   GL1 9913   8.799   0.587   9.159
  366POPC   GL2 9914   9.145   0.561   9.185
  366POPC   C1A 9915   8.815   0.390   8.762
  366POPC   D2A 9916   8.599   0.217   8.420
  366POPC   C3A 9917   8.725   0.408   8.033
  366POPC   C4A 9918   9.062   0.537   7.771
  366POPC   C1B 9919   9.304   0.290   8.840
  366POPC   C2B 9920   9.193   0.368   8.391
  366POPC   C3B 9921   9.366   0.145   8.050
  366POPC   C4B 9922   9.497   0.237   7.638
  367POPC   NC3 9923  42.472   2.967   9.462
  367POPC   PO4 9924  42.156   2.293   9.371
  367POPC   GL1 9925  42.344   2.589   9.143
  367POPC   GL2 9926  42.159   2.840   9.045
  367POPC   C1A 9927  42.562   2.712   8.753
  367POPC   D2A 9928  42.472   2.461   8.389
  367POPC   C3A 9929  42.409   2.723   8.021
  367POPC   C4A 9930  42.559   2.874   7.616
  367POPC   C1B 9931  42.091   2.785   8.585
  367POPC   C2B 9932  41.789   2.861   8.266
  367POPC   C3B 9933  41.792   3.147   7.958
  367POPC   C4B 9934  42.030   2.904   7.695
  368POPC   NC3 9935  43.165  13.251   9.658
  368POPC   PO4 9936  42.741  12.688   9.558
  368POPC   GL1 9937  42.795  12.739   9.166
  368POPC   GL2 9938  42.878  13.083   9.202
  368POPC   C1A 9939  42.957  12.602   8.776
  368POPC   D2A 9940  43.181  12.708   8.394
  368POPC   C3A 9941  43.022  13.023   8.131
  368POPC   C4A 9942  42.899  13.129   7.716
  368POPC   C1B 9943  43.322  13.152   9.018
  368POPC   C2B 9944  43.504  13.333   8.629
  368POPC   C3B 9945  43.550  13.104   8.228
  368POPC   C4B 9946  43.403  13.149   7.814
  369POPC   NC3 9947  13.268  18.104   9.887
  369POPC   PO4 9948  13.726  18.530   9.601
  369POPC   GL1 9949  13.505  18.474   9.228
  369POPC   GL2 9950  13.390  18.123   9.164
  369POPC   C1A 9951  13.582  18.529   8.800
  369POPC   D2A 9952  13.765  18.495   8.435
  369POPC   C3A 9953  13.526  18.527   8.105
  369POPC   C4A 9954  13.715  18.581   7.740
  369POPC   C1B 9955  13.690  18.041   8.821
  369POPC   C2B 9956  13.833  17.990   8.406
  369POPC   C3B 9957  13.889  18.089   7.987
  369POPC   C4B 9958  13.983  17.669   7.802
  370POPC   NC3 9959  12.997  21.779   9.299
  370POPC   PO4 9960  12.672  22.406   9.408
  370POPC   GL1 9961  12.585  22.174   9.047
  370POPC   GL2 9962  12.492  21.812   9.113
  370POPC   C1A 9963  12.664  22.266   8.597
  370POPC   D2A 9964  13.008  22.139   8.305
  370POPC   C3A 9965  13.009  22.396   7.934
  370POPC   C4A 9966  12.587  22.477   7.716
  370POPC   C1B 9967  12.544  21.781   8.705
  370POPC   C2B 9968  12.604  21.828   8.303
  370POPC   C3B 9969  12.651  22.022   7.927
  370POPC   C4B 9970  13.058  21.933   7.747
  371POPC   NC3 9971   3.099   2.554   9.499
  371POPC   PO4 9972   2.634   3.091   9.492
  371POPC   GL1 9973   2.664   2.897   9.110
  371POPC   GL2 9974   2.789   2.578   9.094
  371POPC   C1A 9975   2.532   2.788   8.699
  371POPC   D2A 9976   2.837   2.807   8.413
  371POPC   C3A 9977   2.730   2.675   8.022
  371POPC   C4A 9978   2.519   2.783   7.650
  371POPC   C1B 9979   2.774   2.336   8.724
  371POPC   C2B 9980   2.581   2.264   8.335
  371POPC   C3B 9981   2.799   2.173   7.941
  371POPC   C4B 9982   2.899   2.436   7.601
  372POPC   NC3 9983  10.186  30.906   9.517
  372POPC   PO4 9984  10.598  30.437   9.479
  372POPC   GL1 9985  10.468  30.636   9.101
  372POPC   GL2 9986  10.532  30.994   9.156
  372POPC   C1A 9987  10.301  30.578   8.655
  372POPC   D2A 9988  10.164  30.542   8.191
  372POPC   C3A 9989  10.321  30.689   7.746
  372POPC   C4A 9990  10.268  30.533   7.265
  372POPC   C1B 9991  10.681  30.934   8.738
  372POPC   C2B 9992  10.572  30.855   8.321
  372POPC   C3B 9993  10.649  30.998   7.941
  372POPC   C4B 9994  10.726  30.912   7.504
  373POPC   NC3 9995   8.703  34.827   9.363
  373POPC   PO4 9996   9.295  34.532   9.558
  373POPC   GL1 9997   9.182  34.739   9.165
  373POPC   GL2 9998   8.914  34.468   9.077
  373POPC   C1A 9999   9.078  34.787   8.712
  373POPC   D2A10000   8.862  34.475   8.405
  373POPC   C3A10001   8.955  34.482   7.993
  373POPC   C4A10002   8.934  34.815   7.729
  373POPC   C1B10003   8.644  34.188   8.837
  373POPC   C2B10004   8.537  34.070   8.409
  373POPC   C3B10005   8.425  34.372   8.114
  373POPC   C4B10006   8.531  34.390   7.704
  374POPC   NC310007   6.681  32.467   9.619
  374POPC   PO410008   6.297  31.907   9.703
  374POPC   GL110009   6.363  32.092   9.281
  374POPC   GL210010   6.681  32.227   9.196
  374POPC   C1A10011   6.416  32.106   8.808
  374POPC   D2A10012   6.555  32.340   8.450
  374POPC   C3A10013   6.363  32.360   8.087
  374POPC   C4A10014   6.643  32.455   7.766
  374POPC   C1B10015   6.868  32.379   8.839
  374POPC   C2B10016   7.070  32.207   8.479
  374POPC   C3B10017   7.051  32.286   8.045
  374POPC   C4B10018   6.994  32.075   7.663
  375POPC   NC310019  35.745  13.932   9.316
  375POPC   PO410020  35.347  13.386   9.591
  375POPC   GL110021  35.198  13.420   9.163
  375POPC   GL210022  35.503  13.548   9.059
  375POPC   C1A10023  35.080  13.623   8.754
  375POPC   D2A10024  35.302  13.506   8.387
  375POPC   C3A10025  35.231  13.390   7.956
  375POPC   C4A10026  35.157  13.678   7.571
  375POPC   C1B10027  35.546  13.867   8.727
  375POPC   C2B10028  35.717  13.806   8.355
  375POPC   C3B10029  35.502  13.826   8.007
  375POPC   C4B10030  35.735  13.931   7.701
  376POPC   NC310031  10.452  35.591   9.516
  376POPC   PO410032   9.939  35.199   9.401
  376POPC   GL110033  10.335  35.249   9.136
  376POPC   GL210034  10.553  35.534   8.984
  376POPC   C1A10035  10.536  35.081   8.763
  376POPC   D2A10036  10.689  35.277   8.396
  376POPC   C3A10037  10.486  35.174   8.022
  376POPC   C4A10038  10.237  35.383   7.762
  376POPC   C1B10039  10.935  35.585   8.708
  376POPC   C2B10040  11.029  35.695   8.292
  376POPC   C3B10041  10.692  35.654   8.022
  376POPC   C4B10042  10.723  35.437   7.624
  377POPC   NC310043  36.898  21.759   9.545
  377POPC   PO410044  36.546  22.331   9.516
  377POPC   GL110045  36.822  22.304   9.129
  377POPC   GL210046  37.225  22.444   9.084
  377POPC   C1A10047  36.660  22.173   8.739
  377POPC   D2A10048  36.525  21.949   8.381
  377POPC   C3A10049  36.722  22.010   7.997
  377POPC   C4A10050  36.433  22.163   7.712
  377POPC   C1B10051  37.155  22.098   8.806
  377POPC   C2B10052  37.217  21.975   8.403
  377POPC   C3B10053  37.363  22.134   8.032
  377POPC   C4B10054  37.311  22.536   7.868
  378POPC   NC310055  37.137  35.566   9.524
  378POPC   PO410056  36.539  35.131   9.436
  378POPC   GL110057  36.770  35.166   9.093
  378POPC   GL210058  37.060  35.338   9.099
  378POPC   C1A10059  36.768  35.371   8.698
  378POPC   D2A10060  36.983  35.328   8.355
  378POPC   C3A10061  36.761  35.259   8.030
  378POPC   C4A10062  36.931  35.207   7.658
  378POPC   C1B10063  37.260  35.543   8.743
  378POPC   C2B10064  37.245  35.746   8.323
  378POPC   C3B10065  37.270  35.545   7.925
  378POPC   C4B10066  37.238  35.587   7.448
  379POPC   NC310067  16.746   5.209   9.832
  379POPC   PO410068  16.480   4.847   9.315
  379POPC   GL110069  16.653   5.052   8.988
  379POPC   GL210070  17.016   5.179   8.966
  379POPC   C1A10071  16.522   5.274   8.659
  379POPC   D2A10072  16.681   5.336   8.248
  379POPC   C3A10073  16.713   5.016   7.971
  379POPC   C4A10074  16.514   4.742   7.698
  379POPC   C1B10075  17.293   5.346   8.671
  379POPC   C2B10076  17.224   5.527   8.247
  379POPC   C3B10077  17.032   5.412   7.841
  379POPC   C4B10078  17.181   5.128   7.499
  380POPC   NC310079  39.482  13.452   9.417
  380POPC   PO410080  40.171  13.560   9.422
  380POPC   GL110081  39.927  13.545   9.112
  380POPC   GL210082  39.714  13.848   9.184
  380POPC   C1A10083  40.071  13.398   8.705
  380POPC   D2A10084  40.190  13.595   8.316
  380POPC   C3A10085  40.021  13.480   7.932
  380POPC   C4A10086  39.911  13.734   7.566
  380POPC   C1B10087  39.947  13.912   8.782
  380POPC   C2B10088  39.929  14.036   8.374
  380POPC   C3B10089  39.731  13.918   8.020
  380POPC   C4B10090  39.442  13.859   7.700
  381POPC   NC310091  37.693  41.595   9.721
  381POPC   PO410092  37.305  41.286   9.252
  381POPC   GL110093  37.774  41.433   9.231
  381POPC   GL210094  37.880  41.798   9.283
  381POPC   C1A10095  37.993  41.513   8.849
  381POPC   D2A10096  37.943  41.301   8.440
  381POPC   C3A10097  37.813  41.532   8.042
  381POPC   C4A10098  37.427  41.467   7.775
  381POPC   C1B10099  37.582  41.814   8.920
  381POPC   C2B10100  37.563  41.868   8.458
  381POPC   C3B10101  37.588  42.054   8.028
  381POPC   C4B10102  37.973  42.062   7.752
  382POPC   NC310103   0.733   3.299   9.624
  382POPC   PO410104   0.491   3.891   9.502
  382POPC   GL110105   0.452   3.556   9.240
  382POPC   GL210106   0.113   3.387   9.163
  382POPC   C1A10107   0.574   3.466   8.837
  382POPC   D2A10108   0.494   3.307   8.401
  382POPC   C3A10109   0.364   3.626   8.100
  382POPC   C4A10110   0.548   3.724   7.689
  382POPC   C1B10111   0.125   3.225   8.774
  382POPC   C2B10112  44.988   3.408   8.405
  382POPC   C3B10113   0.036   3.239   8.033
  382POPC   C4B10114  44.899   3.261   7.645
  383POPC   NC310115  28.899   6.109   9.445
  383POPC   PO410116  29.327   5.601   9.313
  383POPC   GL110117  29.089   5.788   9.078
  383POPC   GL210118  28.755   5.709   9.149
  383POPC   C1A10119  29.004   5.640   8.683
  383POPC   D2A10120  29.063   5.889   8.367
  383POPC   C3A10121  29.148   5.713   7.982
  383POPC   C4A10122  29.261   6.070   7.773
  383POPC   C1B10123  28.762   6.065   8.815
  383POPC   C2B10124  28.659   6.202   8.405
  383POPC   C3B10125  28.739   6.056   8.018
  383POPC   C4B10126  28.773   5.887   7.635
  384POPC   NC310127   1.492   0.559   9.735
  384POPC   PO410128   1.004   0.996   9.501
  384POPC   GL110129   1.177   1.069   9.117
  384POPC   GL210130   1.429   1.324   9.108
  384POPC   C1A10131   1.302   1.022   8.689
  384POPC   D2A10132   1.350   0.882   8.283
  384POPC   C3A10133   1.143   1.086   8.011
  384POPC   C4A10134   1.300   1.177   7.657
  384POPC   C1B10135   1.462   1.714   8.848
  384POPC   C2B10136   1.341   1.832   8.419
  384POPC   C3B10137   1.334   1.603   8.016
  384POPC   C4B10138   1.524   1.605   7.610
  385POPC   NC310139  17.329  31.051   9.538
  385POPC   PO410140  17.269  30.373   9.456
  385POPC   GL110141  17.610  30.580   9.205
  385POPC   GL210142  17.708  30.913   9.194
  385POPC   C1A10143  17.696  30.540   8.756
  385POPC   D2A10144  17.651  30.439   8.297
  385POPC   C3A10145  17.437  30.739   7.990
  385POPC   C4A10146  17.242  30.748   7.566
  385POPC   C1B10147  17.787  31.039   8.772
  385POPC   C2B10148  17.742  30.934   8.354
  385POPC   C3B10149  17.868  30.964   7.915
  385POPC   C4B10150  17.661  31.157   7.566
  386POPC   NC310151  19.503  36.615   9.748
  386POPC   PO410152  18.952  36.892   9.511
  386POPC   GL110153  19.045  36.981   9.098
  386POPC   GL210154  19.411  37.043   9.115
  386POPC   C1A10155  18.871  36.780   8.723
  386POPC   D2A10156  18.708  36.623   8.324
  386POPC   C3A10157  18.786  36.805   7.923
  386POPC   C4A10158  18.925  36.997   7.567
  386POPC   C1B10159  19.506  37.165   8.745
  386POPC   C2B10160  19.370  37.122   8.352
  386POPC   C3B10161  19.258  36.917   8.016
  386POPC   C4B10162  19.424  37.099   7.673
  387POPC   NC310163   3.124   4.056   9.545
  387POPC   PO410164   3.602   4.553   9.481
  387POPC   GL110165   3.468   4.275   9.143
  387POPC   GL210166   3.214   4.052   9.057
  387POPC   C1A10167   3.585   4.203   8.732
  387POPC   D2A10168   3.661   4.550   8.447
  387POPC   C3A10169   3.492   4.505   8.051
  387POPC   C4A10170   3.467   4.312   7.678
  387POPC   C1B10171   3.012   4.210   8.726
  387POPC   C2B10172   3.222   4.243   8.382
  387POPC   C3B10173   3.240   4.025   8.028
  387POPC   C4B10174   2.941   4.182   7.741
  388POPC   NC310175  15.244  13.021   9.433
  388POPC   PO410176  15.017  12.420   9.440
  388POPC   GL110177  15.233  12.639   9.087
  388POPC   GL210178  15.522  12.900   9.011
  388POPC   C1A10179  15.043  12.864   8.748
  388POPC   D2A10180  14.834  12.773   8.373
  388POPC   C3A10181  15.008  12.722   7.994
  388POPC   C4A10182  15.017  12.386   7.764
  388POPC   C1B10183  15.486  12.610   8.645
  388POPC   C2B10184  15.604  12.450   8.254
  388POPC   C3B10185  15.495  12.612   7.870
  388POPC   C4B10186  15.565  13.057   7.722
  389POPC   NC310187   8.501   6.729   9.472
  389POPC   PO410188   7.853   6.689   9.735
  389POPC   GL110189   8.014   6.726   9.305
  389POPC   GL210190   8.192   6.439   9.166
  389POPC   C1A10191   8.073   6.842   8.863
  389POPC   D2A10192   8.294   6.836   8.450
  389POPC   C3A10193   8.022   6.852   8.087
  389POPC   C4A10194   7.840   6.566   7.818
  389POPC   C1B10195   8.383   6.426   8.745
  389POPC   C2B10196   8.297   6.304   8.310
  389POPC   C3B10197   8.364   6.482   7.902
  389POPC   C4B10198   8.467   6.385   7.454
  390POPC   NC310199  21.826  33.692   9.394
  390POPC   PO410200  22.355  34.123   9.573
  390POPC   GL110201  22.232  33.897   9.171
  390POPC   GL210202  21.928  34.131   9.173
  390POPC   C1A10203  22.263  33.625   8.757
  390POPC   D2A10204  22.449  33.697   8.360
  390POPC   C3A10205  22.104  33.744   8.104
  390POPC   C4A10206  22.036  33.704   7.705
  390POPC   C1B10207  21.907  34.003   8.746
  390POPC   C2B10208  21.836  34.181   8.341
  390POPC   C3B10209  21.840  34.149   7.887
  390POPC   C4B10210  21.826  34.136   7.448
  391POPC   NC310211   2.268  43.284   9.443
  391POPC   PO410212   1.712  42.888   9.585
  391POPC   GL110213   1.967  42.941   9.210
  391POPC   GL210214   1.927  43.277   9.015
  391POPC   C1A10215   2.238  42.879   8.841
  391POPC   D2A10216   2.388  43.059   8.461
  391POPC   C3A10217   2.264  42.920   8.074
  391POPC   C4A10218   2.421  43.088   7.723
  391POPC   C1B10219   1.632  43.416   8.647
  391POPC   C2B10220   1.726  43.540   8.248
  391POPC   C3B10221   2.068  43.395   8.059
  391POPC   C4B10222   1.932  43.205   7.716
  392POPC   NC310223   5.115  20.646   9.383
  392POPC   PO410224   5.369  20.082   9.501
  392POPC   GL110225   5.350  20.239   9.059
  392POPC   GL210226   5.076  20.466   8.919
  392POPC   C1A10227   5.431  20.311   8.590
  392POPC   D2A10228   5.416  20.719   8.358
  392POPC   C3A10229   5.098  20.708   8.058
  392POPC   C4A10230   5.036  20.412   7.743
  392POPC   C1B10231   4.915  20.720   8.596
  392POPC   C2B10232   4.647  20.548   8.299
  392POPC   C3B10233   4.584  20.613   7.878
  392POPC   C4B10234   4.839  20.883   7.638
  393POPC   NC310235  27.556  21.363   9.414
  393POPC   PO410236  26.991  21.129   9.493
  393POPC   GL110237  27.260  21.022   9.098
  393POPC   GL210238  27.610  21.004   9.035
  393POPC   C1A10239  27.334  21.113   8.631
  393POPC   D2A10240  27.706  21.244   8.359
  393POPC   C3A10241  27.568  21.343   7.916
  393POPC   C4A10242  27.187  21.494   7.654
  393POPC   C1B10243  27.721  20.799   8.668
  393POPC   C2B10244  27.536  20.794   8.233
  393POPC   C3B10245  27.822  20.876   7.886
  393POPC   C4B10246  27.963  21.183   7.585
  394POPC   NC310247  22.515   0.745   9.495
  394POPC   PO410248  22.953   0.283   9.357
  394POPC   GL110249  22.729   0.560   9.075
  394POPC   GL210250  22.881   0.892   9.128
  394POPC   C1A10251  22.707   0.455   8.653
  394POPC   D2A10252  22.928   0.071   8.437
  394POPC   C3A10253  22.996   0.158   7.989
  394POPC   C4A10254  22.790   0.282   7.594
  394POPC   C1B10255  23.135   0.685   8.794
  394POPC   C2B10256  23.142   0.525   8.354
  394POPC   C3B10257  22.992   0.680   7.968
  394POPC   C4B10258  23.091   0.687   7.536
  395POPC   NC310259  11.490  43.994   9.478
  395POPC   PO410260  10.844  44.162   9.440
  395POPC   GL110261  10.983  43.836   9.148
  395POPC   GL210262  11.280  43.951   9.038
  395POPC   C1A10263  11.014  43.803   8.656
  395POPC   D2A10264  11.177  44.106   8.381
  395POPC   C3A10265  11.239  43.995   7.962
  395POPC   C4A10266  11.035  43.671   7.738
  395POPC   C1B10267  11.541  43.918   8.683
  395POPC   C2B10268  11.523  43.711   8.304
  395POPC   C3B10269  11.812  43.957   8.096
  395POPC   C4B10270  11.771  44.153   7.740
  396POPC   NC310271   5.590  36.095   9.630
  396POPC   PO410272   6.182  35.989   9.481
  396POPC   GL110273   5.857  36.011   9.173
  396POPC   GL210274   5.564  36.249   9.136
  396POPC   C1A10275   5.746  35.943   8.758
  396POPC   D2A10276   5.848  35.798   8.361
  396POPC   C3A10277   6.136  35.859   8.045
  396POPC   C4A10278   6.094  35.891   7.586
  396POPC   C1B10279   5.539  36.530   8.737
  396POPC   C2B10280   5.655  36.278   8.350
  396POPC   C3B10281   5.663  36.029   7.936
  396POPC   C4B10282   5.638  36.158   7.508
  397POPC   NC310283  17.615   0.889   9.593
  397POPC   PO410284  17.443   1.562   9.545
  397POPC   GL110285  17.635   1.448   9.176
  397POPC   GL210286  17.646   1.122   9.152
  397POPC   C1A10287  17.686   1.510   8.744
  397POPC   D2A10288  17.447   1.476   8.383
  397POPC   C3A10289  17.584   1.262   8.022
  397POPC   C4A10290  17.391   1.320   7.649
  397POPC   C1B10291  17.456   1.041   8.765
  397POPC   C2B10292  17.274   1.000   8.374
  397POPC   C3B10293  17.152   0.969   7.974
  397POPC   C4B10294  17.425   0.741   7.784
  398POPC   NC310295  35.837  25.975   9.691
  398POPC   PO410296  35.398  26.363   9.387
  398POPC   GL110297  35.380  26.134   9.016
  398POPC   GL210298  35.736  26.106   9.059
  398POPC   C1A10299  35.238  25.952   8.618
  398POPC   D2A10300  35.548  26.029   8.256
  398POPC   C3A10301  35.419  26.196   7.865
  398POPC   C4A10302  35.086  26.010   7.602
  398POPC   C1B10303  35.711  25.824   8.720
  398POPC   C2B10304  35.772  25.579   8.360
  398POPC   C3B10305  35.675  25.597   7.907
  398POPC   C4B10306  35.506  25.693   7.491
  399POPC   NC310307  38.289  36.511   9.423
  399POPC   PO410308  38.665  36.947   9.713
  399POPC   GL110309  38.586  37.105   9.234
  399POPC   GL210310  38.473  36.805   9.073
  399POPC   C1A10311  38.659  37.109   8.747
  399POPC   D2A10312  38.336  36.980   8.430
  399POPC   C3A10313  38.558  36.884   8.078
  399POPC   C4A10314  38.737  37.020   7.696
  399POPC   C1B10315  38.148  36.664   8.800
  399POPC   C2B10316  38.094  36.502   8.403
  399POPC   C3B10317  38.110  36.663   7.999
  399POPC   C4B10318  38.254  36.874   7.657
  400POPC   NC310319  42.703   5.696   9.724
  400POPC   PO410320  42.313   6.260   9.540
  400POPC   GL110321  42.482   6.092   9.152
  400POPC   GL210322  42.727   5.837   9.227
  400POPC   C1A10323  42.353   5.847   8.763
  400POPC   D2A10324  42.109   5.620   8.402
  400POPC   C3A10325  42.243   5.777   7.977
  400POPC   C4A10326  42.462   6.151   7.781
  400POPC   C1B10327  42.814   5.584   8.845
  400POPC   C2B10328  42.643   5.452   8.444
  400POPC   C3B10329  42.763   5.513   8.029
  400POPC   C4B10330  42.592   5.510   7.639
  401POPC   NC310331  40.129  10.273   9.561
  401POPC   PO410332  39.672  10.754   9.715
  401POPC   GL110333  39.962  10.677   9.275
  401POPC   GL210334  39.898  10.318   9.124
  401POPC   C1A10335  39.933  10.685   8.788
  401POPC   D2A10336  39.636  10.421   8.551
  401POPC   C3A10337  39.653  10.532   8.133
  401POPC   C4A10338  39.834  10.644   7.698
  401POPC   C1B10339  40.071  10.189   8.758
  401POPC   C2B10340  40.215  10.332   8.381
  401POPC   C3B10341  40.079  10.308   7.969
  401POPC   C4B10342  39.984  10.185   7.505
  402POPC   NC310343  18.242   4.340   9.465
  402POPC   PO410344  18.278   3.713   9.703
  402POPC   GL110345  18.226   3.848   9.231
  402POPC   GL210346  17.956   4.086   9.112
  402POPC   C1A10347  18.230   3.817   8.766
  402POPC   D2A10348  18.299   4.086   8.382
  402POPC   C3A10349  18.567   4.006   7.999
  402POPC   C4A10350  18.615   3.883   7.545
  402POPC   C1B10351  18.149   4.378   8.798
  402POPC   C2B10352  18.059   4.609   8.415
  402POPC   C3B10353  18.282   4.478   8.057
  402POPC   C4B10354  18.268   4.295   7.653
  403POPC   NC310355  42.822  20.185   9.445
  403POPC   PO410356  43.194  19.630   9.535
  403POPC   GL110357  43.159  19.783   9.142
  403POPC   GL210358  42.829  19.669   9.091
  403POPC   C1A10359  43.409  19.788   8.757
  403POPC   D2A10360  43.607  19.643   8.375
  403POPC   C3A10361  43.410  19.698   7.972
  403POPC   C4A10362  42.995  19.645   7.783
  403POPC   C1B10363  42.902  19.855   8.665
  403POPC   C2B10364  43.159  20.045   8.324
  403POPC   C3B10365  43.049  20.120   7.892
  403POPC   C4B10366  42.952  20.012   7.409
  404POPC   NC310367  35.196   0.783   9.493
  404POPC   PO410368  34.639   0.466   9.528
  404POPC   GL110369  34.561   0.331   9.134
  404POPC   GL210370  34.278   0.555   9.034
  404POPC   C1A10371  34.693   0.494   8.725
  404POPC   D2A10372  34.627   0.760   8.340
  404POPC   C3A10373  34.868   0.633   7.969
  404POPC   C4A10374  34.907   0.261   7.687
  404POPC   C1B10375  34.270   0.177   8.742
  404POPC   C2B10376  34.449   0.275   8.334
  404POPC   C3B10377  34.418   0.311   7.915
  404POPC   C4B10378  34.199  44.930   7.865
  405POPC   NC310379  34.230  44.230   9.488
  405POPC   PO410380  34.769  43.804   9.622
  405POPC   GL110381  34.574  43.951   9.233
  405POPC   GL210382  34.837  43.887   9.033
  405POPC   C1A10383  34.413  44.011   8.781
  405POPC   D2A10384  34.636  43.939   8.372
  405POPC   C3A10385  34.345  43.938   8.025
  405POPC   C4A10386  34.247  43.701   7.644
  405POPC   C1B10387  34.988  44.137   8.705
  405POPC   C2B10388  34.919  44.385   8.340
  405POPC   C3B10389  34.833  44.201   7.951
  405POPC   C4B10390  34.784  43.758   7.804
  406POPC   NC310391  20.227  35.057   9.355
  406POPC   PO410392  19.634  34.715   9.365
  406POPC   GL110393  19.782  34.413   9.045
  406POPC   GL210394  20.129  34.319   9.187
  406POPC   C1A10395  19.638  34.486   8.610
  406POPC   D2A10396  19.663  34.857   8.308
  406POPC   C3A10397  19.612  34.755   7.880
  406POPC   C4A10398  19.695  34.349   7.695
  406POPC   C1B10399  20.194  34.351   8.755
  406POPC   C2B10400  19.947  34.091   8.488
  406POPC   C3B10401  19.903  34.374   8.149
  406POPC   C4B10402  20.119  34.662   7.859
  407POPC   NC310403   8.850  18.646   9.318
  407POPC   PO410404   9.210  18.024   9.569
  407POPC   GL110405   9.075  18.230   9.155
  407POPC   GL210406   8.745  18.261   9.023
  407POPC   C1A10407   9.171  18.390   8.707
  407POPC   D2A10408   9.336  18.168   8.399
  407POPC   C3A10409   9.309  18.372   8.056
  407POPC   C4A10410   9.226  18.228   7.657
  407POPC   C1B10411   8.731  18.639   8.675
  407POPC   C2B10412   8.806  18.693   8.211
  407POPC   C3B10413   8.682  18.528   7.793
  407POPC   C4B10414   8.498  18.648   7.393
  408POPC   NC310415  37.741  39.562   9.609
  408POPC   PO410416  37.439  38.974   9.722
  408POPC   GL110417  37.564  39.187   9.311
  408POPC   GL210418  37.915  39.299   9.179
  408POPC   C1A10419  37.510  39.223   8.849
  408POPC   D2A10420  37.747  39.042   8.467
  408POPC   C3A10421  37.746  38.940   8.002
  408POPC   C4A10422  37.995  38.654   7.706
  408POPC   C1B10423  37.917  39.491   8.771
  408POPC   C2B10424  37.834  39.533   8.334
  408POPC   C3B10425  37.707  39.441   7.916
  408POPC   C4B10426  37.517  39.486   7.506
  409POPC   NC310427  15.044   3.323   9.548
  409POPC   PO410428  15.205   3.915   9.475
  409POPC   GL110429  15.155   3.665   9.128
  409POPC   GL210430  15.389   3.417   9.163
  409POPC   C1A10431  15.329   3.719   8.713
  409POPC   D2A10432  15.185   3.749   8.304
  409POPC   C3A10433  15.185   3.509   7.961
  409POPC   C4A10434  14.781   3.458   7.825
  409POPC   C1B10435  15.582   3.262   8.803
  409POPC   C2B10436  15.413   3.279   8.386
  409POPC   C3B10437  15.430   3.054   7.992
  409POPC   C4B10438  15.512   3.260   7.644
  410POPC   NC310439  15.738  14.598   9.524
  410POPC   PO410440  16.274  14.370   9.357
  410POPC   GL110441  15.900  14.168   9.132
  410POPC   GL210442  15.765  13.820   9.195
  410POPC   C1A10443  15.704  14.311   8.755
  410POPC   D2A10444  15.801  14.416   8.286
  410POPC   C3A10445  15.998  14.266   7.880
  410POPC   C4A10446  15.927  14.102   7.459
  410POPC   C1B10447  15.527  13.821   8.821
  410POPC   C2B10448  15.555  13.978   8.412
  410POPC   C3B10449  15.593  13.973   7.998
  410POPC   C4B10450  15.487  14.296   7.736
  411POPC   NC310451  12.295   9.048   9.358
  411POPC   PO410452  11.651   9.264   9.302
  411POPC   GL110453  11.772   8.901   9.013
  411POPC   GL210454  12.122   8.836   8.949
  411POPC   C1A10455  11.803   8.785   8.571
  411POPC   D2A10456  12.027   9.043   8.318
  411POPC   C3A10457  11.801   9.171   7.969
  411POPC   C4A10458  11.958   9.354   7.607
  411POPC   C1B10459  12.390   8.781   8.621
  411POPC   C2B10460  12.282   8.589   8.234
  411POPC   C3B10461  12.230   8.818   7.900
  411POPC   C4B10462  12.328   9.250   7.943
  412POPC   NC310463   6.323  35.724   9.132
  412POPC   PO410464   6.553  35.168   9.512
  412POPC   GL110465   6.613  35.271   9.073
  412POPC   GL210466   6.798  35.579   8.999
  412POPC   C1A10467   6.532  35.330   8.633
  412POPC   D2A10468   6.242  35.406   8.296
  412POPC   C3A10469   6.399  35.113   7.993
  412POPC   C4A10470   6.616  35.336   7.670
  412POPC   C1B10471   6.900  35.774   8.613
  412POPC   C2B10472   6.922  35.700   8.166
  412POPC   C3B10473   7.059  35.669   7.749
  412POPC   C4B10474   6.879  35.727   7.341
  413POPC   NC310475   9.748  22.317   9.538
  413POPC   PO410476   9.711  21.700   9.890
  413POPC   GL110477   9.610  21.878   9.338
  413POPC   GL210478   9.769  22.221   9.070
  413POPC   C1A10479   9.580  21.854   8.844
  413POPC   D2A10480   9.852  21.743   8.496
  413POPC   C3A10481   9.746  21.965   8.145
  413POPC   C4A10482   9.655  22.080   7.734
  413POPC   C1B10483   9.841  22.500   8.699
  413POPC   C2B10484   9.831  22.422   8.286
  413POPC   C3B10485   9.438  22.438   8.016
  413POPC   C4B10486   9.461  22.518   7.559
  414POPC   NC310487  35.795  21.061   9.291
  414POPC   PO410488  35.150  21.009   9.522
  414POPC   GL110489  35.292  21.359   9.208
  414POPC   GL210490  35.635  21.501   9.133
  414POPC   C1A10491  35.159  21.351   8.768
  414POPC   D2A10492  35.354  21.180   8.397
  414POPC   C3A10493  35.266  21.448   8.055
  414POPC   C4A10494  35.315  21.328   7.633
  414POPC   C1B10495  35.656  21.392   8.742
  414POPC   C2B10496  35.556  21.648   8.424
  414POPC   C3B10497  35.609  21.859   8.073
  414POPC   C4B10498  35.719  21.620   7.735
  415POPC   NC310499   6.257  22.665   9.535
  415POPC   PO410500   6.890  22.971   9.629
  415POPC   GL110501   6.786  22.769   9.237
  415POPC   GL210502   7.103  22.744   9.178
  415POPC   C1A10503   6.615  22.799   8.796
  415POPC   D2A10504   6.629  23.129   8.455
  415POPC   C3A10505   6.501  22.984   8.026
  415POPC   C4A10506   6.297  23.013   7.602
  415POPC   C1B10507   7.111  22.742   8.741
  415POPC   C2B10508   6.974  22.786   8.316
  415POPC   C3B10509   7.013  22.933   7.898
  415POPC   C4B10510   6.797  23.120   7.564
  416POPC   NC310511  40.792   4.830   9.490
  416POPC   PO410512  40.450   4.219   9.636
  416POPC   GL110513  40.509   4.061   9.236
  416POPC   GL210514  40.259   3.823   9.128
  416POPC   C1A10515  40.819   4.226   8.944
  416POPC   D2A10516  40.872   4.519   8.607
  416POPC   C3A10517  40.903   4.374   8.181
  416POPC   C4A10518  40.894   4.494   7.734
  416POPC   C1B10519  40.569   3.788   8.806
  416POPC   C2B10520  40.760   3.955   8.507
  416POPC   C3B10521  40.703   3.918   8.096
  416POPC   C4B10522  40.625   4.040   7.694
  417POPC   NC310523  30.979   4.839   9.790
  417POPC   PO410524  30.486   5.081   9.385
  417POPC   GL110525  30.602   5.271   9.039
  417POPC   GL210526  30.857   5.536   9.043
  417POPC   C1A10527  30.591   5.040   8.651
  417POPC   D2A10528  30.743   5.103   8.253
  417POPC   C3A10529  30.462   4.917   8.010
  417POPC   C4A10530  30.328   5.053   7.615
  417POPC   C1B10531  31.022   5.304   8.695
  417POPC   C2B10532  31.237   5.035   8.397
  417POPC   C3B10533  31.115   4.833   8.009
  417POPC   C4B10534  30.862   5.004   7.693
  418POPC   NC310535  37.823   9.564   9.594
  418POPC   PO410536  37.263   9.501   9.205
  418POPC   GL110537  37.701   9.609   9.076
  418POPC   GL210538  37.902   9.913   9.205
  418POPC   C1A10539  37.646   9.533   8.654
  418POPC   D2A10540  37.380   9.783   8.372
  418POPC   C3A10541  37.466   9.537   8.019
  418POPC   C4A10542  37.918   9.505   7.883
  418POPC   C1B10543  37.835   9.997   8.758
  418POPC   C2B10544  37.896   9.828   8.323
  418POPC   C3B10545  37.726   9.969   7.943
  418POPC   C4B10546  37.890  10.267   7.677
  419POPC   NC310547  40.764  39.960   9.553
  419POPC   PO410548  40.377  40.479   9.475
  419POPC   GL110549  40.505  40.165   9.142
  419POPC   GL210550  40.703  39.850   9.067
  419POPC   C1A10551  40.677  40.220   8.711
  419POPC   D2A10552  40.840  40.324   8.298
  419POPC   C3A10553  40.804  40.039   7.954
  419POPC   C4A10554  40.666  39.642   7.908
  419POPC   C1B10555  41.075  39.910   8.789
  419POPC   C2B10556  41.202  39.961   8.346
  419POPC   C3B10557  41.237  39.748   7.937
  419POPC   C4B10558  41.137  39.756   7.522
  420POPC   NC310559   4.591  34.966   9.260
  420POPC   PO410560   5.130  34.603   9.469
  420POPC   GL110561   5.146  34.667   9.067
  420POPC   GL210562   4.960  34.341   9.029
  420POPC   C1A10563   4.931  34.770   8.702
  420POPC   D2A10564   4.826  34.507   8.358
  420POPC   C3A10565   5.048  34.684   8.049
  420POPC   C4A10566   4.979  34.765   7.636
  420POPC   C1B10567   5.329  34.230   8.803
  420POPC   C2B10568   5.351  34.323   8.380
  420POPC   C3B10569   5.302  34.249   7.967
  420POPC   C4B10570   4.910  34.266   7.802
  421POPC   NC310571  41.535   3.249   9.534
  421POPC   PO410572  41.325   3.902   9.588
  421POPC   GL110573  41.418   3.652   9.212
  421POPC   GL210574  41.197   3.364   9.203
  421POPC   C1A10575  41.601   3.480   8.842
  421POPC   D2A10576  41.784   3.334   8.456
  421POPC   C3A10577  41.933   3.596   8.107
  421POPC   C4A10578  41.671   3.614   7.748
  421POPC   C1B10579  41.113   3.317   8.813
  421POPC   C2B10580  41.262   3.436   8.429
  421POPC   C3B10581  41.242   3.504   8.020
  421POPC   C4B10582  41.273   3.257   7.686
  422POPC   NC310583   1.372  24.271   9.306
  422POPC   PO410584   1.085  24.753   9.425
  422POPC   GL110585   1.011  24.577   8.996
  422POPC   GL210586   1.092  24.212   8.873
  422POPC   C1A10587   0.871  24.766   8.597
  422POPC   D2A10588   0.756  24.877   8.155
  422POPC   C3A10589   1.078  24.714   7.878
  422POPC   C4A10590   1.526  24.754   7.832
  422POPC   C1B10591   1.529  24.079   8.729
  422POPC   C2B10592   1.709  24.282   8.381
  422POPC   C3B10593   1.584  24.267   7.951
  422POPC   C4B10594   1.529  23.957   7.608
  423POPC   NC310595  26.348  27.373   9.412
  423POPC   PO410596  27.049  27.710   9.341
  423POPC   GL110597  26.896  27.794   8.970
  423POPC   GL210598  26.585  27.681   9.074
  423POPC   C1A10599  26.814  27.690   8.545
  423POPC   D2A10600  26.454  27.712   8.274
  423POPC   C3A10601  26.640  27.954   7.995
  423POPC   C4A10602  26.957  27.763   7.749
  423POPC   C1B10603  26.426  27.433   8.744
  423POPC   C2B10604  26.574  27.221   8.364
  423POPC   C3B10605  26.653  27.362   7.955
  423POPC   C4B10606  26.442  27.625   7.684
  424POPC   NC310607  20.392  13.028   9.353
  424POPC   PO410608  20.733  13.619   9.477
  424POPC   GL110609  20.558  13.493   9.090
  424POPC   GL210610  20.768  13.223   9.031
  424POPC   C1A10611  20.434  13.596   8.661
  424POPC   D2A10612  20.624  13.641   8.232
  424POPC   C3A10613  20.463  13.441   7.831
  424POPC   C4A10614  20.379  13.455   7.381
  424POPC   C1B10615  20.946  13.456   8.660
  424POPC   C2B10616  21.146  13.629   8.272
  424POPC   C3B10617  20.979  13.447   7.872
  424POPC   C4B10618  20.874  13.552   7.467
  425POPC   NC310619   9.741   4.794   9.606
  425POPC   PO410620   9.957   5.373   9.633
  425POPC   GL110621   9.907   5.070   9.203
  425POPC   GL210622   9.892   4.684   9.119
  425POPC   C1A10623   9.643   5.011   8.784
  425POPC   D2A10624   9.413   5.040   8.347
  425POPC   C3A10625   9.500   5.402   8.041
  425POPC   C4A10626   9.490   5.432   7.577
  425POPC   C1B10627  10.166   4.868   8.770
  425POPC   C2B10628  10.238   4.952   8.301
  425POPC   C3B10629  10.009   4.795   7.903
  425POPC   C4B10630   9.974   4.791   7.425
  426POPC   NC310631  35.581  31.430   9.464
  426POPC   PO410632  35.140  31.892   9.533
  426POPC   GL110633  35.341  31.796   9.113
  426POPC   GL210634  35.633  31.656   9.040
  426POPC   C1A10635  35.301  31.653   8.658
  426POPC   D2A10636  35.131  31.411   8.281
  426POPC   C3A10637  35.075  31.646   7.881
  426POPC   C4A10638  35.414  31.902   7.797
  426POPC   C1B10639  35.763  31.347   8.741
  426POPC   C2B10640  35.723  31.514   8.333
  426POPC   C3B10641  35.546  31.430   7.945
  426POPC   C4B10642  35.252  31.130   7.840
  427POPC   NC310643  28.225   9.019   9.941
  427POPC   PO410644  28.592   8.653   9.609
  427POPC   GL110645  28.453   8.633   9.163
  427POPC   GL210646  28.374   8.980   9.146
  427POPC   C1A10647  28.515   8.758   8.707
  427POPC   D2A10648  28.476   8.600   8.305
  427POPC   C3A10649  28.610   8.919   8.016
  427POPC   C4A10650  28.556   8.888   7.590
  427POPC   C1B10651  28.101   9.044   8.759
  427POPC   C2B10652  28.193   9.061   8.289
  427POPC   C3B10653  28.246   9.235   7.832
  427POPC   C4B10654  28.469   9.366   7.422
  428POPC   NC310655  12.927  17.694   9.510
  428POPC   PO410656  13.149  17.165   9.685
  428POPC   GL110657  12.982  17.208   9.210
  428POPC   GL210658  12.862  17.522   9.046
  428POPC   C1A10659  12.784  17.143   8.730
  428POPC   D2A10660  12.962  17.493   8.382
  428POPC   C3A10661  13.060  17.342   7.963
  428POPC   C4A10662  12.785  17.230   7.585
  428POPC   C1B10663  12.578  17.599   8.688
  428POPC   C2B10664  12.473  17.336   8.319
  428POPC   C3B10665  12.589  17.534   7.952
  428POPC   C4B10666  12.972  17.855   7.907
  429POPC   NC310667  10.484  19.449   9.252
  429POPC   PO410668  10.302  20.044   9.490
  429POPC   GL110669  10.484  20.118   9.099
  429POPC   GL210670  10.620  19.809   8.928
  429POPC   C1A10671  10.579  20.247   8.673
  429POPC   D2A10672  10.531  19.916   8.408
  429POPC   C3A10673  10.649  19.870   8.016
  429POPC   C4A10674  10.493  19.716   7.636
  429POPC   C1B10675  10.904  19.623   8.634
  429POPC   C2B10676  10.784  19.425   8.287
  429POPC   C3B10677  10.709  19.353   7.891
  429POPC   C4B10678  10.975  19.534   7.537
  430POPC   NC310679   5.165  44.216   9.577
  430POPC   PO410680   5.420  43.544   9.574
  430POPC   GL110681   5.099  43.711   9.236
  430POPC   GL210682   4.980  44.067   9.120
  430POPC   C1A10683   5.152  43.670   8.790
  430POPC   D2A10684   5.334  43.433   8.469
  430POPC   C3A10685   5.355  43.623   8.079
  430POPC   C4A10686   5.106  43.756   7.769
  430POPC   C1B10687   4.782  44.011   8.698
  430POPC   C2B10688   4.853  43.928   8.244
  430POPC   C3B10689   4.728  44.070   7.821
  430POPC   C4B10690   4.817  43.954   7.407
  431POPC   NC310691   7.795  14.384   9.793
  431POPC   PO410692   7.205  14.575   9.546
  431POPC   GL110693   7.411  14.409   9.230
  431POPC   GL210694   7.557  14.685   9.050
  431POPC   C1A10695   7.328  14.278   8.824
  431POPC   D2A10696   7.479  14.128   8.433
  431POPC   C3A10697   7.444  14.422   8.080
  431POPC   C4A10698   7.572  14.310   7.669
  431POPC   C1B10699   7.708  14.584   8.663
  431POPC   C2B10700   7.877  14.695   8.288
  431POPC   C3B10701   7.892  14.642   7.875
  431POPC   C4B10702   7.948  14.651   7.439
  432POPC   NC310703  11.357  19.855   9.521
  432POPC   PO410704  10.956  19.414   9.247
  432POPC   GL110705  11.325  19.666   9.044
  432POPC   GL210706  11.465  20.038   9.056
  432POPC   C1A10707  11.415  19.732   8.623
  432POPC   D2A10708  11.303  19.454   8.309
  432POPC   C3A10709  11.129  19.681   8.011
  432POPC   C4A10710  11.385  19.799   7.722
  432POPC   C1B10711  11.595  20.210   8.677
  432POPC   C2B10712  11.403  20.178   8.274
  432POPC   C3B10713  11.461  20.267   7.853
  432POPC   C4B10714  11.372  20.218   7.411
  433POPC   NC310715   9.486  41.739   9.406
  433POPC   PO410716  10.023  41.301   9.577
  433POPC   GL110717   9.905  41.513   9.202
  433POPC   GL210718   9.605  41.381   9.065
  433POPC   C1A10719   9.918  41.794   8.837
  433POPC   D2A10720   9.974  41.667   8.410
  433POPC   C3A10721   9.745  41.845   8.105
  433POPC   C4A10722   9.761  41.820   7.672
  433POPC   C1B10723   9.571  41.458   8.655
  433POPC   C2B10724   9.380  41.523   8.277
  433POPC   C3B10725   9.640  41.368   7.954
  433POPC   C4B10726   9.589  41.363   7.506
  434POPC   NC310727  34.560   3.852   9.734
  434POPC   PO410728  34.292   3.296   9.462
  434POPC   GL110729  34.589   3.528   9.189
  434POPC   GL210730  34.550   3.872   9.179
  434POPC   C1A10731  34.800   3.593   8.783
  434POPC   D2A10732  34.853   3.779   8.376
  434POPC   C3A10733  34.525   3.640   8.103
  434POPC   C4A10734  34.548   3.226   7.931
  434POPC   C1B10735  34.373   3.886   8.741
  434POPC   C2B10736  34.165   3.989   8.329
  434POPC   C3B10737  34.245   4.000   7.854
  434POPC   C4B10738  34.415   3.846   7.448
  435POPC   NC310739   4.050   0.287   9.664
  435POPC   PO410740   4.571   0.724   9.416
  435POPC   GL110741   4.300   0.482   9.157
  435POPC   GL210742   4.107   0.172   9.178
  435POPC   C1A10743   4.420   0.535   8.751
  435POPC   D2A10744   4.481   0.802   8.407
  435POPC   C3A10745   4.487   0.571   8.026
  435POPC   C4A10746   4.431   0.638   7.582
  435POPC   C1B10747   4.207   0.071   8.760
  435POPC   C2B10748   4.046  44.928   8.356
  435POPC   C3B10749   3.851   0.037   7.973
  435POPC   C4B10750   4.192   0.213   7.729
  436POPC   NC310751  13.797  18.005   9.515
  436POPC   PO410752  14.385  18.172   9.496
  436POPC   GL110753  14.438  18.307   9.113
  436POPC   GL210754  14.617  17.970   9.037
  436POPC   C1A10755  14.115  18.377   8.819
  436POPC   D2A10756  14.247  18.312   8.404
  436POPC   C3A10757  14.152  18.562   8.089
  436POPC   C4A10758  14.217  18.376   7.703
  436POPC   C1B10759  14.693  18.248   8.657
  436POPC   C2B10760  14.721  18.297   8.171
  436POPC   C3B10761  14.729  18.216   7.706
  436POPC   C4B10762  14.871  17.952   7.334
  437POPC   NC310763  13.651  34.393   9.492
  437POPC   PO410764  13.403  33.773   9.606
  437POPC   GL110765  13.422  33.863   9.164
  437POPC   GL210766  13.736  33.961   9.191
  437POPC   C1A10767  13.573  33.689   8.736
  437POPC   D2A10768  13.964  33.625   8.452
  437POPC   C3A10769  13.969  33.792   8.031
  437POPC   C4A10770  13.720  33.724   7.687
  437POPC   C1B10771  13.963  33.992   8.827
  437POPC   C2B10772  13.899  34.137   8.447
  437POPC   C3B10773  14.010  34.309   8.091
  437POPC   C4B10774  13.873  34.212   7.696
  438POPC   NC310775   1.866  23.104   9.484
  438POPC   PO410776   1.865  22.458   9.367
  438POPC   GL110777   2.047  22.617   9.046
  438POPC   GL210778   1.952  22.953   9.019
  438POPC   C1A10779   2.037  22.644   8.626
  438POPC   D2A10780   2.247  22.799   8.306
  438POPC   C3A10781   2.021  22.840   7.949
  438POPC   C4A10782   2.088  23.112   7.614
  438POPC   C1B10783   1.599  22.888   8.790
  438POPC   C2B10784   1.708  22.979   8.387
  438POPC   C3B10785   1.707  23.228   8.066
  438POPC   C4B10786   1.602  22.985   7.681
  439POPC   NC310787  19.205  31.257   9.462
  439POPC   PO410788  18.703  31.609   9.462
  439POPC   GL110789  18.985  31.740   9.086
  439POPC   GL210790  19.170  31.438   8.994
  439POPC   C1A10791  19.040  31.701   8.596
  439POPC   D2A10792  19.156  31.304   8.373
  439POPC   C3A10793  18.964  31.341   7.967
  439POPC   C4A10794  18.685  31.663   7.836
  439POPC   C1B10795  19.470  31.785   8.883
  439POPC   C2B10796  19.568  31.898   8.466
  439POPC   C3B10797  19.326  31.726   8.149
  439POPC   C4B10798  19.407  31.542   7.779
  440POPC   NC310799  11.375  33.638   9.608
  440POPC   PO410800  11.412  34.321   9.799
  440POPC   GL110801  11.185  34.062   9.331
  440POPC   GL210802  11.422  33.796   9.134
  440POPC   C1A10803  11.182  34.067   8.794
  440POPC   D2A10804  11.290  34.228   8.332
  440POPC   C3A10805  11.197  34.029   7.905
  440POPC   C4A10806  11.160  33.703   7.550
  440POPC   C1B10807  11.555  33.640   8.721
  440POPC   C2B10808  11.346  33.701   8.327
  440POPC   C3B10809  11.471  33.580   7.919
  440POPC   C4B10810  11.628  33.464   7.500
  441POPC   NC310811  14.735  23.667   9.520
  441POPC   PO410812  14.149  24.109   9.437
  441POPC   GL110813  14.110  23.747   9.187
  441POPC   GL210814  14.399  23.549   9.155
  441POPC   C1A10815  14.085  23.775   8.747
  441POPC   D2A10816  14.295  24.070   8.471
  441POPC   C3A10817  14.336  23.939   8.050
  441POPC   C4A10818  14.247  24.024   7.644
  441POPC   C1B10819  14.573  23.735   8.783
  441POPC   C2B10820  14.455  23.559   8.375
  441POPC   C3B10821  14.510  23.355   7.975
  441POPC   C4B10822  14.343  23.485   7.590
  442POPC   NC310823  38.103  21.121   9.532
  442POPC   PO410824  38.644  21.388   9.542
  442POPC   GL110825  38.489  21.306   9.156
  442POPC   GL210826  38.194  21.332   9.084
  442POPC   C1A10827  38.525  21.444   8.712
  442POPC   D2A10828  38.517  21.312   8.286
  442POPC   C3A10829  38.686  21.594   7.986
  442POPC   C4A10830  38.688  21.521   7.523
  442POPC   C1B10831  37.992  21.515   8.777
  442POPC   C2B10832  38.104  21.625   8.386
  442POPC   C3B10833  38.029  21.435   8.009
  442POPC   C4B10834  38.250  21.651   7.739
  443POPC   NC310835  44.879   8.901   9.703
  443POPC   PO410836  44.354   8.555   9.304
  443POPC   GL110837  44.499   8.885   9.051
  443POPC   GL210838  44.823   8.958   9.176
  443POPC   C1A10839  44.545   9.146   8.748
  443POPC   D2A10840  44.667   9.139   8.361
  443POPC   C3A10841  44.292   9.015   8.179
  443POPC   C4A10842  44.440   8.901   7.813
  443POPC   C1B10843  44.977   8.809   8.757
  443POPC   C2B10844   0.095   8.820   8.308
  443POPC   C3B10845  44.968   8.980   7.865
  443POPC   C4B10846  44.893   8.748   7.440
  444POPC   NC310847  40.489  37.722   9.850
  444POPC   PO410848  39.853  37.876   9.628
  444POPC   GL110849  39.708  37.683   9.194
  444POPC   GL210850  39.459  37.401   9.127
  444POPC   C1A10851  39.748  37.819   8.741
  444POPC   D2A10852  40.080  37.779   8.401
  444POPC   C3A10853  40.024  37.678   7.936
  444POPC   C4A10854  40.301  37.727   7.550
  444POPC   C1B10855  39.757  37.301   8.775
  444POPC   C2B10856  39.947  37.268   8.345
  444POPC   C3B10857  39.823  37.176   7.900
  444POPC   C4B10858  39.902  37.382   7.504
  445POPC   NC310859  21.480   3.524   9.666
  445POPC   PO410860  21.234   4.164   9.563
  445POPC   GL110861  21.365   3.808   9.277
  445POPC   GL210862  21.100   3.612   9.324
  445POPC   C1A10863  21.531   3.488   8.976
  445POPC   D2A10864  21.716   3.222   8.629
  445POPC   C3A10865  21.697   3.401   8.202
  445POPC   C4A10866  21.576   3.408   7.728
  445POPC   C1B10867  21.038   3.652   8.893
  445POPC   C2B10868  21.251   3.467   8.530
  445POPC   C3B10869  21.235   3.571   8.113
  445POPC   C4B10870  21.037   3.520   7.776
  446POPC   NC310871  32.188  18.274   9.513
  446POPC   PO410872  32.821  18.573   9.581
  446POPC   GL110873  32.753  18.353   9.156
  446POPC   GL210874  32.492  18.161   9.147
  446POPC   C1A10875  32.505  18.358   8.708
  446POPC   D2A10876  32.203  18.454   8.434
  446POPC   C3A10877  32.287  18.332   8.053
  446POPC   C4A10878  32.047  18.342   7.743
  446POPC   C1B10879  32.118  18.069   8.869
  446POPC   C2B10880  32.049  17.905   8.443
  446POPC   C3B10881  31.973  17.891   7.993
  446POPC   C4B10882  32.291  17.869   7.652
  447POPC   NC310883  34.482   1.390   9.482
  447POPC   PO410884  35.184   1.303   9.558
  447POPC   GL110885  34.873   1.170   9.208
  447POPC   GL210886  34.677   1.447   9.015
  447POPC   C1A10887  34.680   1.001   8.809
  447POPC   D2A10888  34.610   1.289   8.444
  447POPC   C3A10889  34.322   1.116   8.142
  447POPC   C4A10890  34.440   0.846   7.812
  447POPC   C1B10891  34.324   1.588   8.768
  447POPC   C2B10892  34.070   1.535   8.386
  447POPC   C3B10893  34.200   1.572   7.955
  447POPC   C4B10894  34.481   1.376   7.682
  448POPC   NC310895  44.279   2.090   9.527
  448POPC   PO410896  43.830   1.629   9.414
  448POPC   GL110897  43.753   2.000   9.106
  448POPC   GL210898  43.550   2.331   9.135
  448POPC   C1A10899  43.736   1.884   8.689
  448POPC   D2A10900  43.899   1.566   8.412
  448POPC   C3A10901  43.874   1.792   8.040
  448POPC   C4A10902  44.173   1.965   7.760
  448POPC   C1B10903  43.436   2.302   8.684
  448POPC   C2B10904  43.491   2.328   8.230
  448POPC   C3B10905  43.837   2.312   7.905
  448POPC   C4B10906  43.900   2.307   7.416
  449POPC   NC310907  32.270  16.512   9.618
  449POPC   PO410908  32.129  15.829   9.683
  449POPC   GL110909  32.154  16.056   9.273
  449POPC   GL210910  32.451  16.239   9.232
  449POPC   C1A10911  32.322  15.948   8.842
  449POPC   D2A10912  32.136  15.963   8.427
  449POPC   C3A10913  32.429  15.800   8.122
  449POPC   C4A10914  32.402  15.863   7.694
  449POPC   C1B10915  32.529  16.420   8.796
  449POPC   C2B10916  32.609  16.216   8.395
  449POPC   C3B10917  32.530  16.335   7.989
  449POPC   C4B10918  32.732  16.326   7.619
  450POPC   NC310919  25.232  18.912   9.527
  450POPC   PO410920  25.610  19.418   9.614
  450POPC   GL110921  25.565  19.184   9.227
  450POPC   GL210922  25.671  18.847   9.289
  450POPC   C1A10923  25.306  19.187   8.828
  450POPC   D2A10924  25.118  19.288   8.418
  450POPC   C3A10925  25.207  19.049   8.039
  450POPC   C4A10926  25.043  18.943   7.617
  450POPC   C1B10927  25.707  18.852   8.861
  450POPC   C2B10928  25.474  18.839   8.469
  450POPC   C3B10929  25.664  18.806   8.068
  450POPC   C4B10930  25.607  18.972   7.706
  451POPC   NC310931  31.999   9.717   9.368
  451POPC   PO410932  32.570   9.442   9.445
  451POPC   GL110933  32.428   9.753   9.087
  451POPC   GL210934  32.615   9.743   8.779
  451POPC   C1A10935  32.141   9.838   8.700
  451POPC   D2A10936  32.208   9.604   8.303
  451POPC   C3A10937  31.900   9.609   7.981
  451POPC   C4A10938  31.988   9.989   7.767
  451POPC   C1B10939  32.734  10.140   8.753
  451POPC   C2B10940  32.592  10.222   8.370
  451POPC   C3B10941  32.578   9.910   8.035
  451POPC   C4B10942  32.373   9.653   7.773
  452POPC   NC310943  41.762  31.234   9.640
  452POPC   PO410944  41.212  31.672   9.513
  452POPC   GL110945  41.632  31.617   9.253
  452POPC   GL210946  41.606  31.294   9.151
  452POPC   C1A10947  41.889  31.533   8.830
  452POPC   D2A10948  41.704  31.408   8.431
  452POPC   C3A10949  41.903  31.518   8.080
  452POPC   C4A10950  41.749  31.722   7.722
  452POPC   C1B10951  41.400  31.167   8.749
  452POPC   C2B10952  41.262  31.124   8.312
  452POPC   C3B10953  41.381  31.383   7.940
  452POPC   C4B10954  41.457  31.160   7.540
  453POPC   NC310955  42.936  14.649   9.533
  453POPC   PO410956  43.557  14.350   9.422
  453POPC   GL110957  43.201  14.308   9.090
  453POPC   GL210958  42.874  14.474   9.064
  453POPC   C1A10959  42.952  14.120   8.716
  453POPC   D2A10960  42.986  14.069   8.250
  453POPC   C3A10961  43.082  14.340   7.904
  453POPC   C4A10962  42.890  13.983   7.752
  453POPC   C1B10963  43.019  14.775   8.767
  453POPC   C2B10964  43.128  14.828   8.302
  453POPC   C3B10965  42.831  14.772   7.948
  453POPC   C4B10966  43.016  14.743   7.517
  454POPC   NC310967   0.317   6.647   9.629
  454POPC   PO410968   1.009   6.869   9.711
  454POPC   GL110969   0.680   6.742   9.307
  454POPC   GL210970   0.316   6.837   9.173
  454POPC   C1A10971   0.640   6.658   8.833
  454POPC   D2A10972   0.909   6.894   8.560
  454POPC   C3A10973   0.812   6.840   8.149
  454POPC   C4A10974   0.529   6.578   7.968
  454POPC   C1B10975   0.264   7.006   8.769
  454POPC   C2B10976   0.322   6.833   8.369
  454POPC   C3B10977   0.288   7.024   7.961
  454POPC   C4B10978   0.230   7.015   7.454
  455POPC   NC310979  21.665   4.249   9.447
  455POPC   PO410980  21.089   4.704   9.406
  455POPC   GL110981  21.411   4.556   9.111
  455POPC   GL210982  21.364   4.241   9.054
  455POPC   C1A10983  21.562   4.467   8.682
  455POPC   D2A10984  21.274   4.359   8.426
  455POPC   C3A10985  21.364   4.378   8.042
  455POPC   C4A10986  21.521   4.447   7.644
  455POPC   C1B10987  21.440   3.952   8.711
  455POPC   C2B10988  21.553   3.941   8.251
  455POPC   C3B10989  21.382   3.937   7.788
  455POPC   C4B10990  21.267   4.088   7.363
  456POPC   NC310991  26.062   3.122   9.285
  456POPC   PO410992  25.736   3.647   9.485
  456POPC   GL110993  25.796   3.527   9.111
  456POPC   GL210994  26.126   3.604   9.059
  456POPC   C1A10995  25.809   3.447   8.684
  456POPC   D2A10996  26.161   3.463   8.437
  456POPC   C3A10997  26.034   3.530   8.033
  456POPC   C4A10998  25.769   3.539   7.647
  456POPC   C1B10999  26.366   3.891   8.812
  456POPC   C2B11000  26.397   4.100   8.418
  456POPC   C3B11001  26.367   3.937   7.998
  456POPC   C4B11002  26.172   3.828   7.618
  457POPC   NC311003   8.077  44.677   9.478
  457POPC   PO411004   8.122  43.992   9.369
  457POPC   GL111005   8.018  44.385   9.058
  457POPC   GL211006   7.937  44.774   9.002
  457POPC   C1A11007   8.019  44.495   8.610
  457POPC   D2A11008   8.156  44.307   8.262
  457POPC   C3A11009   8.160  44.545   7.900
  457POPC   C4A11010   8.575  44.572   7.915
  457POPC   C1B11011   8.358  44.818   8.837
  457POPC   C2B11012   8.460  44.720   8.407
  457POPC   C3B11013   8.189  44.971   8.164
  457POPC   C4B11014   7.908  44.988   7.778
  458POPC   NC311015   7.423  32.500   9.639
  458POPC   PO411016   6.964  32.069   9.624
  458POPC   GL111017   7.187  32.189   9.258
  458POPC   GL211018   7.121  32.559   9.226
  458POPC   C1A11019   7.382  32.047   8.871
  458POPC   D2A11020   7.676  32.021   8.516
  458POPC   C3A11021   7.517  32.017   8.074
  458POPC   C4A11022   7.534  32.080   7.610
  458POPC   C1B11023   7.327  32.598   8.781
  458POPC   C2B11024   7.467  32.506   8.322
  458POPC   C3B11025   7.468  32.517   7.851
  458POPC   C4B11026   7.167  32.529   7.519
  459POPC   NC311027  38.628  42.568   9.805
  459POPC   PO411028  38.230  42.223   9.342
  459POPC   GL111029  38.384  42.638   9.218
  459POPC   GL211030  38.736  42.657   9.316
  459POPC   C1A11031  38.450  42.652   8.777
  459POPC   D2A11032  38.372  42.382   8.433
  459POPC   C3A11033  38.411  42.598   8.082
  459POPC   C4A11034  38.645  42.468   7.733
  459POPC   C1B11035  38.866  42.402   8.969
  459POPC   C2B11036  38.903  42.413   8.517
  459POPC   C3B11037  38.800  42.185   8.147
  459POPC   C4B11038  39.046  42.059   7.806
  460POPC   NC311039  37.280   2.103   9.543
  460POPC   PO411040  36.595   1.796   9.562
  460POPC   GL111041  36.805   1.974   9.223
  460POPC   GL211042  37.118   1.784   9.124
  460POPC   C1A11043  36.698   1.908   8.801
  460POPC   D2A11044  36.963   1.747   8.502
  460POPC   C3A11045  36.774   1.829   8.110
  460POPC   C4A11046  36.727   2.141   7.761
  460POPC   C1B11047  37.152   2.176   8.852
  460POPC   C2B11048  36.969   2.250   8.431
  460POPC   C3B11049  37.158   2.233   8.023
  460POPC   C4B11050  37.252   2.610   7.831
  461POPC   NC311051  32.710  12.281   9.840
  461POPC   PO411052  32.231  11.843   9.610
  461POPC   GL111053  32.161  11.824   9.150
  461POPC   GL211054  32.200  12.181   9.116
  461POPC   C1A11055  32.205  11.905   8.693
  461POPC   D2A11056  32.367  11.998   8.284
  461POPC   C3A11057  32.061  12.006   7.965
  461POPC   C4A11058  32.163  12.033   7.488
  461POPC   C1B11059  32.317  12.409   8.723
  461POPC   C2B11060  32.317  12.519   8.281
  461POPC   C3B11061  32.392  12.359   7.872
  461POPC   C4B11062  32.523  12.375   7.429
  462POPC   NC311063  12.481  20.944   9.491
  462POPC   PO411064  12.939  20.320   9.492
  462POPC   GL111065  12.667  20.536   9.243
  462POPC   GL211066  12.887  20.816   9.233
  462POPC   C1A11067  12.527  20.451   8.855
  462POPC   D2A11068  12.487  20.418   8.442
  462POPC   C3A11069  12.820  20.400   8.137
  462POPC   C4A11070  12.749  20.637   7.753
  462POPC   C1B11071  12.735  20.917   8.834
  462POPC   C2B11072  12.797  20.847   8.393
  462POPC   C3B11073  12.950  21.046   8.009
  462POPC   C4B11074  12.971  21.041   7.546
  463POPC   NC311075   8.327  15.196   9.561
  463POPC   PO411076   7.706  15.368   9.328
  463POPC   GL111077   7.927  15.057   9.105
  463POPC   GL211078   8.324  14.994   9.096
  463POPC   C1A11079   8.029  15.001   8.692
  463POPC   D2A11080   8.344  14.868   8.438
  463POPC   C3A11081   8.232  15.018   8.046
  463POPC   C4A11082   8.132  15.097   7.626
  463POPC   C1B11083   8.467  15.281   8.765
  463POPC   C2B11084   8.327  15.421   8.356
  463POPC   C3B11085   8.540  15.486   7.952
  463POPC   C4B11086   8.659  15.833   7.678
  464POPC   NC311087   0.355  25.963   9.693
  464POPC   PO411088   0.663  25.496   9.362
  464POPC   GL111089   0.419  25.779   9.140
  464POPC   GL211090   0.254  26.111   9.198
  464POPC   C1A11091   0.539  26.005   8.781
  464POPC   D2A11092   0.395  26.132   8.387
  464POPC   C3A11093   0.566  26.010   7.999
  464POPC   C4A11094   0.577  26.219   7.644
  464POPC   C1B11095   0.163  26.381   8.790
  464POPC   C2B11096  44.965  26.341   8.336
  464POPC   C3B11097   0.117  26.398   7.854
  464POPC   C4B11098   0.199  26.379   7.350
  465POPC   NC311099  12.627  32.192   9.556
  465POPC   PO411100  13.120  32.608   9.319
  465POPC   GL111101  12.821  32.321   9.092
  465POPC   GL211102  12.706  31.973   9.115
  465POPC   C1A11103  12.819  32.246   8.666
  465POPC   D2A11104  12.941  32.499   8.350
  465POPC   C3A11105  12.727  32.351   8.025
  465POPC   C4A11106  12.902  32.303   7.682
  465POPC   C1B11107  12.609  31.768   8.750
  465POPC   C2B11108  12.536  31.929   8.346
  465POPC   C3B11109  12.353  31.841   7.945
  465POPC   C4B11110  12.537  31.963   7.600
  466POPC   NC311111  21.599   5.822   9.781
  466POPC   PO411112  21.146   6.052   9.244
  466POPC   GL111113  21.496   5.830   9.121
  466POPC   GL211114  21.236   5.575   9.039
  466POPC   C1A11115  21.694   5.842   8.690
  466POPC   D2A11116  21.539   5.629   8.275
  466POPC   C3A11117  21.376   5.866   7.910
  466POPC   C4A11118  21.516   5.891   7.470
  466POPC   C1B11119  21.194   5.758   8.651
  466POPC   C2B11120  20.988   5.773   8.266
  466POPC   C3B11121  20.946   5.537   7.904
  466POPC   C4B11122  21.139   5.567   7.503
  467POPC   NC311123  24.390  15.712   9.668
  467POPC   PO411124  24.778  16.150   9.429
  467POPC   GL111125  24.542  16.108   9.039
  467POPC   GL211126  24.251  15.956   9.154
  467POPC   C1A11127  24.296  16.306   8.687
  467POPC   D2A11128  24.106  16.291   8.235
  467POPC   C3A11129  24.393  16.193   7.876
  467POPC   C4A11130  24.820  15.997   7.930
  467POPC   C1B11131  24.095  15.695   8.781
  467POPC   C2B11132  23.968  15.694   8.329
  467POPC   C3B11133  24.167  15.685   7.912
  467POPC   C4B11134  24.505  15.736   7.613
  468POPC   NC311135  29.279  27.319   9.440
  468POPC   PO411136  29.068  26.705   9.695
  468POPC   GL111137  29.205  26.767   9.202
  468POPC   GL211138  29.382  27.048   9.021
  468POPC   C1A11139  29.081  26.741   8.751
  468POPC   D2A11140  28.823  26.644   8.391
  468POPC   C3A11141  29.007  26.635   7.980
  468POPC   C4A11142  28.907  26.945   7.677
  468POPC   C1B11143  29.366  27.130   8.584
  468POPC   C2B11144  29.132  27.067   8.202
  468POPC   C3B11145  29.374  27.072   7.810
  468POPC   C4B11146  29.641  27.312   7.502
  469POPC   NC311147   4.623  30.815   9.405
  469POPC   PO411148   4.111  30.479   9.752
  469POPC   GL111149   3.950  30.467   9.278
  469POPC   GL211150   4.174  30.704   9.085
  469POPC   C1A11151   3.798  30.502   8.808
  469POPC   D2A11152   3.997  30.852   8.512
  469POPC   C3A11153   4.041  30.926   8.034
  469POPC   C4A11154   4.072  30.614   7.737
  469POPC   C1B11155   4.458  30.760   8.712
  469POPC   C2B11156   4.474  30.929   8.288
  469POPC   C3B11157   4.565  30.669   7.919
  469POPC   C4B11158   4.920  30.814   7.674
  470POPC   NC311159   4.187  20.749   9.614
  470POPC   PO411160   4.873  20.962   9.625
  470POPC   GL111161   4.616  20.718   9.249
  470POPC   GL211162   4.270  20.855   9.130
  470POPC   C1A11163   4.517  20.470   8.834
  470POPC   D2A11164   4.170  20.495   8.499
  470POPC   C3A11165   4.237  20.300   8.088
  470POPC   C4A11166   4.196  20.293   7.615
  470POPC   C1B11167   4.408  20.949   8.718
  470POPC   C2B11168   4.405  21.001   8.271
  470POPC   C3B11169   4.168  20.913   7.910
  470POPC   C4B11170   4.245  20.785   7.492
  471POPC   NC311171  25.672  34.789   9.395
  471POPC   PO411172  26.249  35.026   9.327
  471POPC   GL111173  26.093  34.619   9.129
  471POPC   GL211174  25.830  34.346   9.184
  471POPC   C1A11175  25.970  34.537   8.710
  471POPC   D2A11176  26.058  34.335   8.317
  471POPC   C3A11177  26.449  34.529   8.117
  471POPC   C4A11178  26.438  34.832   7.747
  471POPC   C1B11179  25.709  34.111   8.816
  471POPC   C2B11180  25.563  34.150   8.384
  471POPC   C3B11181  25.584  34.321   7.961
  471POPC   C4B11182  25.664  34.731   7.739
  472POPC   NC311183   6.410  18.736   9.507
  472POPC   PO411184   7.035  18.675   9.185
  472POPC   GL111185   6.771  19.026   9.122
  472POPC   GL211186   7.043  19.300   9.040
  472POPC   C1A11187   6.454  18.950   8.809
  472POPC   D2A11188   6.596  18.863   8.390
  472POPC   C3A11189   6.347  19.130   8.115
  472POPC   C4A11190   6.312  19.060   7.712
  472POPC   C1B11191   6.941  19.174   8.630
  472POPC   C2B11192   6.794  19.335   8.218
  472POPC   C3B11193   6.814  19.119   7.845
  472POPC   C4B11194   7.086  19.081   7.462
  473POPC   NC311195   9.475  20.807   9.478
  473POPC   PO411196  10.110  20.590   9.456
  473POPC   GL111197   9.796  20.625   9.139
  473POPC   GL211198   9.920  20.952   9.056
  473POPC   C1A11199   9.538  20.416   8.811
  473POPC   D2A11200   9.458  20.137   8.450
  473POPC   C3A11201   9.701  20.247   8.080
  473POPC   C4A11202   9.825  20.420   7.704
  473POPC   C1B11203   9.847  20.810   8.654
  473POPC   C2B11204   9.600  20.671   8.338
  473POPC   C3B11205   9.459  20.695   7.917
  473POPC   C4B11206   9.591  20.854   7.506
  474POPC   NC311207  17.238  26.409   9.326
  474POPC   PO411208  17.552  25.911   9.713
  474POPC   GL111209  17.497  25.906   9.250
  474POPC   GL211210  17.652  26.180   9.130
  474POPC   C1A11211  17.290  26.018   8.818
  474POPC   D2A11212  17.520  26.019   8.429
  474POPC   C3A11213  17.291  25.971   8.085
  474POPC   C4A11214  17.155  25.974   7.705
  474POPC   C1B11215  17.669  26.413   8.761
  474POPC   C2B11216  17.555  26.511   8.345
  474POPC   C3B11217  17.625  26.341   7.992
  474POPC   C4B11218  17.852  26.152   7.735
  475POPC   NC311219   8.342  14.221   9.456
  475POPC   PO411220   7.970  14.794   9.644
  475POPC   GL111221   8.045  14.591   9.257
  475POPC   GL211222   7.901  14.313   9.204
  475POPC   C1A11223   8.201  14.525   8.831
  475POPC   D2A11224   8.503  14.373   8.537
  475POPC   C3A11225   8.325  14.445   8.135
  475POPC   C4A11226   8.373  14.613   7.746
  475POPC   C1B11227   7.832  14.098   8.850
  475POPC   C2B11228   8.000  14.195   8.462
  475POPC   C3B11229   7.881  14.136   8.060
  475POPC   C4B11230   8.110  14.193   7.713
  476POPC   NC311231  42.541  30.534   9.403
  476POPC   PO411232  41.895  30.379   9.460
  476POPC   GL111233  42.136  30.425   9.099
  476POPC   GL211234  42.269  30.767   9.066
  476POPC   C1A11235  42.058  30.547   8.679
  476POPC   D2A11236  42.256  30.706   8.349
  476POPC   C3A11237  42.095  30.561   7.967
  476POPC   C4A11238  42.208  30.762   7.569
  476POPC   C1B11239  42.592  30.677   8.744
  476POPC   C2B11240  42.758  30.602   8.345
  476POPC   C3B11241  42.598  30.699   7.916
  476POPC   C4B11242  42.702  30.739   7.457
  477POPC   NC311243   7.575   0.238   9.432
  477POPC   PO411244   7.083   0.730   9.412
  477POPC   GL111245   7.264   0.471   9.103
  477POPC   GL211246   7.546   0.680   9.034
  477POPC   C1A11247   7.502   0.185   8.800
  477POPC   D2A11248   7.794   0.006   8.502
  477POPC   C3A11249   7.776   0.299   8.158
  477POPC   C4A11250   7.492   0.377   7.843
  477POPC   C1B11251   7.251   0.700   8.660
  477POPC   C2B11252   7.089   0.914   8.290
  477POPC   C3B11253   7.147   0.768   7.868
  477POPC   C4B11254   7.411   0.705   7.473
  478POPC   NC311255  20.047  32.996   9.901
  478POPC   PO411256  19.405  33.088   9.567
  478POPC   GL111257  19.628  33.174   9.207
  478POPC   GL211258  19.526  32.823   9.089
  478POPC   C1A11259  19.858  33.104   8.819
  478POPC   D2A11260  19.774  32.855   8.445
  478POPC   C3A11261  19.844  33.104   8.080
  478POPC   C4A11262  20.008  33.010   7.678
  478POPC   C1B11263  19.170  32.686   8.815
  478POPC   C2B11264  19.101  32.701   8.370
  478POPC   C3B11265  19.363  32.938   8.091
  478POPC   C4B11266  19.524  32.871   7.659
  479POPC   NC311267  32.578   8.181   9.537
  479POPC   PO411268  32.045   8.622   9.653
  479POPC   GL111269  32.195   8.424   9.240
  479POPC   GL211270  32.524   8.501   9.128
  479POPC   C1A11271  32.168   8.162   8.844
  479POPC   D2A11272  32.050   7.978   8.431
  479POPC   C3A11273  32.015   8.291   8.127
  479POPC   C4A11274  31.965   8.387   7.698
  479POPC   C1B11275  32.657   8.331   8.727
  479POPC   C2B11276  32.565   8.016   8.421
  479POPC   C3B11277  32.407   7.970   8.015
  479POPC   C4B11278  32.482   8.386   7.849
  480POPC   NC311279  10.821  39.551   9.516
  480POPC   PO411280  11.251  39.022   9.579
  480POPC   GL111281  11.106  39.172   9.201
  480POPC   GL211282  11.469  39.170   9.128
  480POPC   C1A11283  11.168  39.490   8.865
  480POPC   D2A11284  11.367  39.454   8.464
  480POPC   C3A11285  11.235  39.238   8.076
  480POPC   C4A11286  11.354  39.485   7.693
  480POPC   C1B11287  11.378  39.013   8.717
  480POPC   C2B11288  11.670  39.062   8.350
  480POPC   C3B11289  11.719  39.187   7.916
  480POPC   C4B11290  11.437  38.985   7.593
  481POPC   NC311291   4.885  20.152  10.007
  481POPC   PO411292   5.048  19.556   9.678
  481POPC   GL111293   5.124  19.700   9.237
  481POPC   GL211294   4.907  19.454   9.089
  481POPC   C1A11295   5.276  19.794   8.828
  481POPC   D2A11296   5.107  19.895   8.446
  481POPC   C3A11297   5.312  20.092   8.111
  481POPC   C4A11298   5.174  19.910   7.736
  481POPC   C1B11299   4.914  19.430   8.640
  481POPC   C2B11300   4.710  19.572   8.274
  481POPC   C3B11301   4.752  19.611   7.838
  481POPC   C4B11302   4.744  19.670   7.402
  482POPC   NC311303  33.166  17.893   9.383
  482POPC   PO411304  33.280  17.215   9.480
  482POPC   GL111305  33.054  17.441   9.137
  482POPC   GL211306  32.765  17.681   9.178
  482POPC   C1A11307  32.945  17.511   8.708
  482POPC   D2A11308  33.080  17.472   8.279
  482POPC   C3A11309  32.876  17.510   7.887
  482POPC   C4A11310  33.109  17.549   7.496
  482POPC   C1B11311  32.805  17.969   8.819
  482POPC   C2B11312  32.723  17.883   8.400
  482POPC   C3B11313  32.662  17.978   7.984
  482POPC   C4B11314  32.816  17.950   7.591
  483POPC   NC311315  33.622  20.259   9.867
  483POPC   PO411316  34.061  19.755   9.506
  483POPC   GL111317  34.069  19.547   9.100
  483POPC   GL211318  34.232  19.814   9.000
  483POPC   C1A11319  33.973  19.518   8.672
  483POPC   D2A11320  34.109  19.854   8.422
  483POPC   C3A11321  34.107  19.716   8.007
  483POPC   C4A11322  33.745  19.501   7.831
  483POPC   C1B11323  33.748  19.898   8.902
  483POPC   C2B11324  33.552  19.804   8.494
  483POPC   C3B11325  33.643  19.945   8.071
  483POPC   C4B11326  33.538  20.313   7.826
  484POPC   NC311327  35.777  13.519   9.701
  484POPC   PO411328  36.355  13.803   9.485
  484POPC   GL111329  36.162  13.578   9.138
  484POPC   GL211330  36.027  13.822   8.908
  484POPC   C1A11331  36.362  13.503   8.721
  484POPC   D2A11332  36.154  13.545   8.322
  484POPC   C3A11333  36.326  13.693   7.966
  484POPC   C4A11334  36.141  13.626   7.584
  484POPC   C1B11335  35.842  13.432   8.712
  484POPC   C2B11336  35.736  13.241   8.296
  484POPC   C3B11337  35.746  13.400   7.849
  484POPC   C4B11338  35.652  13.551   7.401
  485POPC   NC311339  17.578   8.477   9.504
  485POPC   PO411340  17.178   7.862   9.459
  485POPC   GL111341  17.260   8.188   9.141
  485POPC   GL211342  17.628   8.201   9.035
  485POPC   C1A11343  17.269   8.357   8.710
  485POPC   D2A11344  17.568   8.205   8.393
  485POPC   C3A11345  17.616   8.410   7.990
  485POPC   C4A11346  17.388   8.574   7.641
  485POPC   C1B11347  17.914   7.958   8.743
  485POPC   C2B11348  17.844   7.781   8.348
  485POPC   C3B11349  17.626   7.893   7.948
  485POPC   C4B11350  17.590   7.642   7.534
  486POPC   NC311351  27.843   4.568   9.504
  486POPC   PO411352  27.377   4.022   9.518
  486POPC   GL111353  27.609   4.167   9.164
  486POPC   GL211354  27.475   4.502   9.086
  486POPC   C1A11355  27.738   4.251   8.735
  486POPC   D2A11356  27.773   4.444   8.323
  486POPC   C3A11357  27.476   4.190   8.086
  486POPC   C4A11358  27.450   4.006   7.677
  486POPC   C1B11359  27.444   4.679   8.643
  486POPC   C2B11360  27.276   4.807   8.272
  486POPC   C3B11361  27.487   4.695   7.946
  486POPC   C4B11362  27.319   4.498   7.641
  487POPC   NC311363  11.578  11.138   9.690
  487POPC   PO411364  11.060  11.540   9.648
  487POPC   GL111365  11.163  11.456   9.201
  487POPC   GL211366  11.456  11.632   9.086
  487POPC   C1A11367  11.158  11.457   8.722
  487POPC   D2A11368  11.216  11.373   8.276
  487POPC   C3A11369  11.413  11.036   8.050
  487POPC   C4A11370  11.380  11.279   7.694
  487POPC   C1B11371  11.754  11.627   8.765
  487POPC   C2B11372  11.676  11.790   8.352
  487POPC   C3B11373  11.676  11.629   7.936
  487POPC   C4B11374  11.739  11.688   7.491
  488POPC   NC311375  25.722   4.760   9.625
  488POPC   PO411376  26.095   5.266   9.563
  488POPC   GL111377  26.014   5.102   9.149
  488POPC   GL211378  25.750   4.858   9.137
  488POPC   C1A11379  26.134   5.302   8.759
  488POPC   D2A11380  25.968   5.439   8.381
  488POPC   C3A11381  26.114   5.289   7.973
  488POPC   C4A11382  26.103   5.340   7.525
  488POPC   C1B11383  25.846   4.848   8.736
  488POPC   C2B11384  25.802   4.946   8.348
  488POPC   C3B11385  25.939   4.805   7.989
  488POPC   C4B11386  26.093   4.846   7.606
  489POPC   NC311387  29.824   6.310   9.458
  489POPC   PO411388  30.146   6.868   9.490
  489POPC   GL111389  29.923   6.713   9.139
  489POPC   GL211390  29.577   6.638   9.166
  489POPC   C1A11391  29.746   6.858   8.742
  489POPC   D2A11392  29.880   6.706   8.335
  489POPC   C3A11393  29.786   6.937   7.961
  489POPC   C4A11394  29.804   6.644   7.653
  489POPC   C1B11395  29.774   6.358   8.814
  489POPC   C2B11396  29.820   6.204   8.411
  489POPC   C3B11397  30.060   6.252   8.054
  489POPC   C4B11398  29.779   6.144   7.775
  490POPC   NC311399  36.842  19.492   9.374
  490POPC   PO411400  37.215  19.986   9.056
  490POPC   GL111401  36.775  19.943   8.982
  490POPC   GL211402  36.759  19.606   8.913
  490POPC   C1A11403  36.583  19.920   8.576
  490POPC   D2A11404  36.950  19.936   8.310
  490POPC   C3A11405  36.864  20.063   7.918
  490POPC   C4A11406  36.983  20.094   7.487
  490POPC   C1B11407  37.040  19.501   8.643
  490POPC   C2B11408  36.939  19.425   8.267
  490POPC   C3B11409  37.043  19.570   7.864
  490POPC   C4B11410  36.845  19.457   7.495
  491POPC   NC311411  38.056  44.296   9.762
  491POPC   PO411412  38.680  44.121   9.588
  491POPC   GL111413  38.404  44.079   9.244
  491POPC   GL211414  38.290  44.388   9.245
  491POPC   C1A11415  38.286  43.835   8.876
  491POPC   D2A11416  38.413  43.567   8.522
  491POPC   C3A11417  38.107  43.586   8.190
  491POPC   C4A11418  38.255  43.786   7.839
  491POPC   C1B11419  38.490  44.322   8.812
  491POPC   C2B11420  38.445  44.084   8.408
  491POPC   C3B11421  38.365  44.258   7.978
  491POPC   C4B11422  38.303  44.184   7.524
  492POPC   NC311423  10.466  30.008   9.606
  492POPC   PO411424  10.755  29.389   9.665
  492POPC   GL111425  10.541  29.654   9.256
  492POPC   GL211426  10.508  30.051   9.114
  492POPC   C1A11427  10.707  29.701   8.825
  492POPC   D2A11428  10.705  29.902   8.452
  492POPC   C3A11429  10.351  29.940   8.181
  492POPC   C4A11430  10.546  29.865   7.766
  492POPC   C1B11431  10.757  30.299   8.801
  492POPC   C2B11432  10.795  30.395   8.354
  492POPC   C3B11433  10.587  30.328   7.977
  492POPC   C4B11434  10.643  30.335   7.528
  493POPC   NC311435  32.963  31.856   9.522
  493POPC   PO411436  33.342  31.268   9.532
  493POPC   GL111437  33.099  31.423   9.166
  493POPC   GL211438  33.135  31.763   9.053
  493POPC   C1A11439  33.264  31.400   8.735
  493POPC   D2A11440  33.269  31.421   8.320
  493POPC   C3A11441  32.990  31.295   8.034
  493POPC   C4A11442  32.818  31.489   7.686
  493POPC   C1B11443  33.065  31.963   8.643
  493POPC   C2B11444  33.163  31.936   8.228
  493POPC   C3B11445  33.303  31.701   7.895
  493POPC   C4B11446  33.222  31.696   7.472
  494POPC   NC311447  22.368   3.923   9.436
  494POPC   PO411448  21.974   4.617   9.470
  494POPC   GL111449  21.918   4.449   9.064
  494POPC   GL211450  22.236   4.286   9.107
  494POPC   C1A11451  22.014   4.234   8.661
  494POPC   D2A11452  22.222   4.310   8.279
  494POPC   C3A11453  21.896   4.318   7.987
  494POPC   C4A11454  21.988   4.218   7.574
  494POPC   C1B11455  22.310   4.662   8.841
  494POPC   C2B11456  22.455   4.762   8.441
  494POPC   C3B11457  22.607   4.633   8.074
  494POPC   C4B11458  22.392   4.511   7.711
  495POPC   NC311459  33.888  44.931   9.570
  495POPC   PO411460  33.877  44.336   9.777
  495POPC   GL111461  33.836  44.478   9.294
  495POPC   GL211462  33.589  44.705   9.171
  495POPC   C1A11463  34.056  44.477   8.852
  495POPC   D2A11464  33.911  44.619   8.442
  495POPC   C3A11465  33.882  44.382   8.067
  495POPC   C4A11466  33.871  44.607   7.661
  495POPC   C1B11467  33.813  44.926   8.850
  495POPC   C2B11468  33.803   0.124   8.414
  495POPC   C3B11469  33.694  44.890   8.056
  495POPC   C4B11470  33.415  44.836   7.747
  496POPC   NC311471  36.540  30.762   9.546
  496POPC   PO411472  37.154  30.643   9.476
  496POPC   GL111473  36.886  30.669   9.114
  496POPC   GL211474  36.854  31.006   9.152
  496POPC   C1A11475  36.804  30.415   8.717
  496POPC   D2A11476  36.965  30.327   8.284
  496POPC   C3A11477  36.708  30.360   7.913
  496POPC   C4A11478  36.742  30.675   7.596
  496POPC   C1B11479  36.970  31.136   8.770
  496POPC   C2B11480  36.996  30.832   8.458
  496POPC   C3B11481  36.984  30.826   8.033
  496POPC   C4B11482  36.976  31.225   7.764
  497POPC   NC311483  18.645  34.480   9.539
  497POPC   PO411484  18.042  34.896   9.494
  497POPC   GL111485  18.152  34.727   9.078
  497POPC   GL211486  18.341  34.432   9.122
  497POPC   C1A11487  18.175  34.560   8.656
  497POPC   D2A11488  18.180  34.294   8.291
  497POPC   C3A11489  18.237  34.600   7.975
  497POPC   C4A11490  17.899  34.684   7.691
  497POPC   C1B11491  18.631  34.249   8.868
  497POPC   C2B11492  18.657  34.408   8.485
  497POPC   C3B11493  18.790  34.443   8.085
  497POPC   C4B11494  18.665  34.220   7.734
  498POPC   NC311495   6.229   9.919   9.595
  498POPC   PO411496   6.722   9.496   9.386
  498POPC   GL111497   6.607   9.466   8.992
  498POPC   GL211498   6.308   9.551   9.076
  498POPC   C1A11499   6.696   9.588   8.581
  498POPC   D2A11500   6.834   9.924   8.337
  498POPC   C3A11501   6.766   9.853   7.923
  498POPC   C4A11502   6.784   9.400   7.883
  498POPC   C1B11503   6.226   9.767   8.691
  498POPC   C2B11504   6.301   9.778   8.246
  498POPC   C3B11505   6.323   9.628   7.811
  498POPC   C4B11506   6.623   9.626   7.456
  499POPC   NC311507  15.443  31.093   9.709
  499POPC   PO411508  15.177  31.663   9.602
  499POPC   GL111509  15.253  31.587   9.170
  499POPC   GL211510  14.945  31.761   9.113
  499POPC   C1A11511  15.271  31.324   8.791
  499POPC   D2A11512  15.017  31.354   8.409
  499POPC   C3A11513  15.055  31.141   8.050
  499POPC   C4A11514  15.181  31.427   7.758
  499POPC   C1B11515  15.128  31.798   8.669
  499POPC   C2B11516  14.913  31.919   8.280
  499POPC   C3B11517  14.864  31.827   7.836
  499POPC   C4B11518  14.846  31.626   7.431
  500POPC   NC311519   4.675  19.751   9.460
  500POPC   PO411520   4.411  20.326   9.648
  500POPC   GL111521   4.502  20.188   9.250
  500POPC   GL211522   4.873  20.188   9.295
  500POPC   C1A11523   4.295  19.992   8.868
  500POPC   D2A11524   4.115  19.900   8.436
  500POPC   C3A11525   4.319  19.807   8.026
  500POPC   C4A11526   4.260  19.763   7.566
  500POPC   C1B11527   4.815  20.008   8.873
  500POPC   C2B11528   4.610  20.054   8.472
  500POPC   C3B11529   4.777  20.086   8.081
  500POPC   C4B11530   4.651  20.088   7.690
  501POPC   NC311531  36.027   9.236   9.490
  501POPC   PO411532  35.952   8.499   9.486
  501POPC   GL111533  35.987   8.766   9.146
  501POPC   GL211534  36.315   8.603   9.094
  501POPC   C1A11535  36.048   8.855   8.718
  501POPC   D2A11536  35.872   8.956   8.326
  501POPC   C3A11537  36.103   9.228   8.102
  501POPC   C4A11538  36.035   9.244   7.702
  501POPC   C1B11539  36.545   8.656   8.711
  501POPC   C2B11540  36.371   8.822   8.329
  501POPC   C3B11541  36.185   8.757   7.911
  501POPC   C4B11542  36.437   8.643   7.554
  502POPC   NC311543  17.861  36.796   9.496
  502POPC   PO411544  17.256  36.913   9.236
  502POPC   GL111545  17.554  36.602   9.096
  502POPC   GL211546  17.295  36.395   8.909
  502POPC   C1A11547  17.886  36.696   8.781
  502POPC   D2A11548  17.894  36.816   8.347
  502POPC   C3A11549  17.484  36.694   8.152
  502POPC   C4A11550  17.320  36.729   7.749
  502POPC   C1B11551  17.402  36.764   8.634
  502POPC   C2B11552  17.512  37.145   8.410
  502POPC   C3B11553  17.447  37.184   7.963
  502POPC   C4B11554  17.605  37.127   7.545
  503POPC   NC311555  19.611  44.837   9.356
  503POPC   PO411556  19.989  44.411   9.785
  503POPC   GL111557  20.047  44.553   9.259
  503POPC   GL211558  20.011  44.922   9.093
  503POPC   C1A11559  19.958  44.520   8.784
  503POPC   D2A11560  19.892  44.786   8.414
  503POPC   C3A11561  19.827  44.668   7.973
  503POPC   C4A11562  19.934  44.441   7.607
  503POPC   C1B11563  19.688   0.099   8.783
  503POPC   C2B11564  19.485   0.094   8.351
  503POPC   C3B11565  19.481   0.054   7.888
  503POPC   C4B11566  19.484   0.210   7.400
  504POPC   NC311567   1.115  26.574   9.471
  504POPC   PO411568   0.764  27.170   9.368
  504POPC   GL111569   1.072  26.995   9.051
  504POPC   GL211570   1.094  26.652   8.975
  504POPC   C1A11571   1.218  27.001   8.631
  504POPC   D2A11572   1.103  26.638   8.393
  504POPC   C3A11573   1.115  26.785   7.979
  504POPC   C4A11574   1.472  27.001   7.844
  504POPC   C1B11575   1.495  26.613   8.797
  504POPC   C2B11576   1.611  26.739   8.381
  504POPC   C3B11577   1.512  26.466   8.055
  504POPC   C4B11578   1.390  26.498   7.641
  505POPC   NC311579  10.201  39.101  10.160
  505POPC   PO411580  10.544  39.149   9.581
  505POPC   GL111581  10.442  39.333   9.212
  505POPC   GL211582  10.167  39.526   9.303
  505POPC   C1A11583  10.651  39.460   8.832
  505POPC   D2A11584  10.865  39.350   8.450
  505POPC   C3A11585  10.702  39.139   8.086
  505POPC   C4A11586  10.877  39.151   7.655
  505POPC   C1B11587  10.126  39.537   8.840
  505POPC   C2B11588  10.338  39.488   8.430
  505POPC   C3B11589  10.430  39.570   8.007
  505POPC   C4B11590  10.359  39.338   7.669
  506POPC   NC311591  42.666   1.133   9.464
  506POPC   PO411592  43.284   1.338   9.562
  506POPC   GL111593  43.196   1.267   9.134
  506POPC   GL211594  43.552   1.318   9.096
  506POPC   C1A11595  43.087   1.030   8.734
  506POPC   D2A11596  43.131   0.786   8.313
  506POPC   C3A11597  43.192   1.034   7.929
  506POPC   C4A11598  43.005   1.408   7.859
  506POPC   C1B11599  43.480   1.411   8.711
  506POPC   C2B11600  43.341   1.270   8.364
  506POPC   C3B11601  43.621   1.291   8.092
  506POPC   C4B11602  43.498   1.507   7.808
  507POPC   NC311603  41.680  41.267   9.441
  507POPC   PO411604  41.358  40.638   9.359
  507POPC   GL111605  41.504  40.733   8.999
  507POPC   GL211606  41.440  41.095   9.028
  507POPC   C1A11607  41.502  40.827   8.587
  507POPC   D2A11608  41.692  40.825   8.186
  507POPC   C3A11609  41.415  40.740   7.872
  507POPC   C4A11610  41.109  40.424   7.842
  507POPC   C1B11611  41.764  41.245   8.793
  507POPC   C2B11612  41.956  41.164   8.470
  507POPC   C3B11613  41.987  41.202   8.036
  507POPC   C4B11614  41.790  41.059   7.682
  508POPC   NC311615  12.415  39.089   9.609
  508POPC   PO411616  12.996  38.805   9.592
  508POPC   GL111617  12.749  39.018   9.194
  508POPC   GL211618  12.391  38.903   9.145
  508POPC   C1A11619  12.781  39.277   8.761
  508POPC   D2A11620  12.542  39.424   8.353
  508POPC   C3A11621  12.728  39.359   7.909
  508POPC   C4A11622  13.118  39.376   7.612
  508POPC   C1B11623  12.385  38.984   8.735
  508POPC   C2B11624  12.575  38.876   8.377
  508POPC   C3B11625  12.798  38.804   8.004
  508POPC   C4B11626  12.834  38.963   7.588
  509POPC   NC311627  29.844  37.989   9.590
  509POPC   PO411628  29.849  37.432   9.544
  509POPC   GL111629  30.013  37.455   9.124
  509POPC   GL211630  30.259  37.200   9.091
  509POPC   C1A11631  29.991  37.570   8.657
  509POPC   D2A11632  29.779  37.673   8.247
  509POPC   C3A11633  29.987  37.711   7.841
  509POPC   C4A11634  29.946  37.835   7.402
  509POPC   C1B11635  30.201  37.107   8.640
  509POPC   C2B11636  30.222  37.307   8.215
  509POPC   C3B11637  30.296  37.302   7.752
  509POPC   C4B11638  30.245  37.433   7.294
  510POPC   NC311639   4.851   6.920   9.553
  510POPC   PO411640   5.390   6.508   9.574
  510POPC   GL111641   5.100   6.505   9.188
  510POPC   GL211642   4.832   6.745   9.065
  510POPC   C1A11643   5.244   6.461   8.744
  510POPC   D2A11644   5.525   6.460   8.377
  510POPC   C3A11645   5.322   6.557   8.019
  510POPC   C4A11646   4.940   6.504   7.780
  510POPC   C1B11647   5.212   6.961   8.921
  510POPC   C2B11648   5.396   6.933   8.519
  510POPC   C3B11649   5.257   7.058   8.085
  510POPC   C4B11650   5.290   6.936   7.646
  511POPC   NC311651  18.365  19.484   9.661
  511POPC   PO411652  18.262  20.136   9.547
  511POPC   GL111653  18.332  20.008   9.163
  511POPC   GL211654  18.222  19.678   9.185
  511POPC   C1A11655  18.306  20.146   8.756
  511POPC   D2A11656  18.399  19.925   8.385
  511POPC   C3A11657  18.217  20.039   8.004
  511POPC   C4A11658  18.378  20.011   7.619
  511POPC   C1B11659  18.144  19.622   8.735
  511POPC   C2B11660  17.993  19.655   8.271
  511POPC   C3B11661  18.309  19.552   7.911
  511POPC   C4B11662  18.302  19.511   7.443
  512POPC   NC311663   3.740  21.680   9.523
  512POPC   PO411664   3.170  21.238   9.519
  512POPC   GL111665   3.249  21.299   9.096
  512POPC   GL211666   3.260  21.617   9.149
  512POPC   C1A11667   3.483  21.178   8.705
  512POPC   D2A11668   3.375  21.184   8.266
  512POPC   C3A11669   3.651  21.020   7.934
  512POPC   C4A11670   3.778  20.971   7.530
  512POPC   C1B11671   3.249  21.633   8.719
  512POPC   C2B11672   3.595  21.632   8.438
  512POPC   C3B11673   3.562  21.610   8.011
  512POPC   C4B11674   3.483  21.382   7.645
  513POPC   NC311675   9.774  37.266   9.703
  513POPC   PO411676  10.092  37.835   9.740
  513POPC   GL111677  10.066  37.785   9.264
  513POPC   GL211678   9.863  38.076   9.183
  513POPC   C1A11679  10.086  37.597   8.800
  513POPC   D2A11680   9.771  37.464   8.491
  513POPC   C3A11681   9.868  37.562   8.076
  513POPC   C4A11682   9.571  37.515   7.725
  513POPC   C1B11683   9.694  37.927   8.758
  513POPC   C2B11684   9.550  37.913   8.334
  513POPC   C3B11685   9.611  37.995   7.930
  513POPC   C4B11686   9.947  37.925   7.712
  514POPC   NC311687  41.112   8.330   9.508
  514POPC   PO411688  41.734   8.047   9.662
  514POPC   GL111689  41.618   8.271   9.220
  514POPC   GL211690  41.324   8.467   9.085
  514POPC   C1A11691  41.599   8.121   8.785
  514POPC   D2A11692  41.447   7.925   8.397
  514POPC   C3A11693  41.611   8.105   7.993
  514POPC   C4A11694  41.893   7.910   7.713
  514POPC   C1B11695  41.164   8.436   8.684
  514POPC   C2B11696  41.168   8.317   8.244
  514POPC   C3B11697  41.278   8.462   7.816
  514POPC   C4B11698  41.260   8.543   7.349
  515POPC   NC311699  15.589  10.297   9.465
  515POPC   PO411700  14.906  10.438   9.518
  515POPC   GL111701  15.138  10.293   9.156
  515POPC   GL211702  15.319  10.597   9.047
  515POPC   C1A11703  15.377  10.192   8.745
  515POPC   D2A11704  15.487  10.504   8.400
  515POPC   C3A11705  15.282  10.459   7.983
  515POPC   C4A11706  14.940  10.250   7.756
  515POPC   C1B11707  15.025  10.558   8.693
  515POPC   C2B11708  14.756  10.540   8.315
  515POPC   C3B11709  14.791  10.705   7.913
  515POPC   C4B11710  14.905  10.692   7.478
  516POPC   NC311711  36.319  17.320   9.351
  516POPC   PO411712  35.954  17.825   9.591
  516POPC   GL111713  35.995  17.708   9.211
  516POPC   GL211714  36.362  17.824   9.206
  516POPC   C1A11715  35.896  17.438   8.852
  516POPC   D2A11716  35.784  17.332   8.423
  516POPC   C3A11717  36.109  17.235   8.129
  516POPC   C4A11718  35.989  17.101   7.723
  516POPC   C1B11719  36.222  17.879   8.808
  516POPC   C2B11720  36.232  17.614   8.485
  516POPC   C3B11721  36.343  17.705   8.091
  516POPC   C4B11722  36.230  17.539   7.715
  517POPC   NC311723  15.942  27.214   9.484
  517POPC   PO411724  15.637  27.815   9.753
  517POPC   GL111725  15.825  27.730   9.321
  517POPC   GL211726  15.969  28.013   9.167
  517POPC   C1A11727  15.976  27.539   8.893
  517POPC   D2A11728  16.223  27.297   8.580
  517POPC   C3A11729  16.194  27.504   8.164
  517POPC   C4A11730  15.999  27.324   7.797
  517POPC   C1B11731  15.711  27.962   8.788
  517POPC   C2B11732  15.760  27.698   8.429
  517POPC   C3B11733  15.631  27.618   8.004
  517POPC   C4B11734  15.799  27.751   7.587
  518POPC   NC311735   2.319  23.787   9.495
  518POPC   PO411736   1.640  23.921   9.433
  518POPC   GL111737   1.819  23.766   9.036
  518POPC   GL211738   2.013  23.464   9.117
  518POPC   C1A11739   2.020  23.898   8.609
  518POPC   D2A11740   2.120  24.106   8.172
  518POPC   C3A11741   2.369  23.941   7.842
  518POPC   C4A11742   2.461  23.892   7.426
  518POPC   C1B11743   1.841  23.368   8.709
  518POPC   C2B11744   1.608  23.644   8.457
  518POPC   C3B11745   1.697  23.785   8.070
  518POPC   C4B11746   1.967  23.593   7.772
  519POPC   NC311747  33.446  44.290   9.601
  519POPC   PO411748  33.929  43.951   9.264
  519POPC   GL111749  33.748  44.094   8.954
  519POPC   GL211750  33.420  44.227   9.085
  519POPC   C1A11751  33.902  44.101   8.522
  519POPC   D2A11752  33.656  43.864   8.244
  519POPC   C3A11753  33.721  43.907   7.823
  519POPC   C4A11754  33.773  43.702   7.432
  519POPC   C1B11755  33.497  44.391   8.659
  519POPC   C2B11756  33.391  44.305   8.221
  519POPC   C3B11757  33.455  44.336   7.771
  519POPC   C4B11758  33.684  44.206   7.371
  520POPC   NC311759  16.932   4.898   9.388
  520POPC   PO411760  16.865   4.211   9.499
  520POPC   GL111761  16.595   4.361   9.195
  520POPC   GL211762  16.856   4.500   9.069
  520POPC   C1A11763  16.470   4.525   8.768
  520POPC   D2A11764  16.507   4.312   8.411
  520POPC   C3A11765  16.737   4.497   8.101
  520POPC   C4A11766  16.821   4.275   7.732
  520POPC   C1B11767  16.958   4.735   8.736
  520POPC   C2B11768  17.009   4.990   8.407
  520POPC   C3B11769  17.228   4.963   8.025
  520POPC   C4B11770  17.036   4.710   7.721
  521POPC   NC311771   4.989   0.290   9.740
  521POPC   PO411772   5.142  44.669   9.686
  521POPC   GL111773   5.142  44.577   9.220
  521POPC   GL211774   5.018  44.890   9.087
  521POPC   C1A11775   5.331  44.409   8.830
  521POPC   D2A11776   5.346  44.579   8.396
  521POPC   C3A11777   5.121  44.351   8.051
  521POPC   C4A11778   5.031  44.412   7.620
  521POPC   C1B11779   4.719   0.030   8.742
  521POPC   C2B11780   4.559  44.896   8.383
  521POPC   C3B11781   4.907  44.794   8.162
  521POPC   C4B11782   5.120  44.889   7.810
  522POPC   NC311783  37.415  44.100   9.464
  522POPC   PO411784  38.035  43.805   9.701
  522POPC   GL111785  37.895  43.906   9.259
  522POPC   GL211786  37.809  44.247   9.148
  522POPC   C1A11787  37.686  43.844   8.835
  522POPC   D2A11788  37.489  44.123   8.493
  522POPC   C3A11789  37.486  43.952   8.072
  522POPC   C4A11790  37.622  43.656   7.736
  522POPC   C1B11791  37.979  44.244   8.707
  522POPC   C2B11792  37.943  44.163   8.250
  522POPC   C3B11793  37.870  44.138   7.793
  522POPC   C4B11794  37.964  43.843   7.425
  523POPC   NC311795  38.844  16.628   9.613
  523POPC   PO411796  38.393  17.109   9.623
  523POPC   GL111797  38.610  16.955   9.258
  523POPC   GL211798  38.252  16.839   9.192
  523POPC   C1A11799  38.717  16.908   8.810
  523POPC   D2A11800  38.743  16.641   8.405
  523POPC   C3A11801  38.610  16.809   7.980
  523POPC   C4A11802  38.746  16.972   7.591
  523POPC   C1B11803  38.291  16.614   8.822
  523POPC   C2B11804  38.224  16.682   8.418
  523POPC   C3B11805  38.255  16.478   8.055
  523POPC   C4B11806  38.063  16.790   7.782
  524POPC   NC311807  18.587   8.486   9.532
  524POPC   PO411808  17.968   8.223   9.410
  524POPC   GL111809  18.198   8.277   9.035
  524POPC   GL211810  18.393   8.557   9.061
  524POPC   C1A11811  18.422   8.032   8.730
  524POPC   D2A11812  18.467   8.128   8.331
  524POPC   C3A11813  18.083   8.225   8.151
  524POPC   C4A11814  18.071   8.016   7.771
  524POPC   C1B11815  18.508   8.566   8.622
  524POPC   C2B11816  18.598   8.600   8.174
  524POPC   C3B11817  18.480   8.322   7.823
  524POPC   C4B11818  18.207   8.409   7.436
  525POPC   NC311819  36.520   5.711   9.574
  525POPC   PO411820  35.967   6.138   9.596
  525POPC   GL111821  36.140   5.935   9.225
  525POPC   GL211822  36.517   6.049   9.199
  525POPC   C1A11823  35.931   5.866   8.798
  525POPC   D2A11824  36.117   5.846   8.379
  525POPC   C3A11825  35.934   5.757   7.979
  525POPC   C4A11826  35.908   6.079   7.663
  525POPC   C1B11827  36.447   5.797   8.833
  525POPC   C2B11828  36.613   5.746   8.435
  525POPC   C3B11829  36.465   5.669   8.019
  525POPC   C4B11830  36.400   5.939   7.698
  526POPC   NC311831   7.191  39.252   9.694
  526POPC   PO411832   7.726  39.176   9.441
  526POPC   GL111833   7.457  39.295   9.146
  526POPC   GL211834   7.402  39.666   9.143
  526POPC   C1A11835   7.383  39.049   8.770
  526POPC   D2A11836   7.417  38.867   8.370
  526POPC   C3A11837   7.257  39.043   7.969
  526POPC   C4A11838   7.370  39.131   7.520
  526POPC   C1B11839   7.298  39.552   8.732
  526POPC   C2B11840   7.467  39.381   8.357
  526POPC   C3B11841   7.502  39.506   7.931
  526POPC   C4B11842   7.493  39.628   7.487
  527POPC   NC311843  36.644  26.944   9.385
  527POPC   PO411844  35.922  27.064   9.478
  527POPC   GL111845  36.028  26.840   9.106
  527POPC   GL211846  36.365  26.828   8.990
  527POPC   C1A11847  35.787  26.573   8.801
  527POPC   D2A11848  35.645  26.628   8.372
  527POPC   C3A11849  35.985  26.876   8.190
  527POPC   C4A11850  36.259  26.844   7.822
  527POPC   C1B11851  36.566  27.106   8.720
  527POPC   C2B11852  36.434  27.178   8.288
  527POPC   C3B11853  36.464  27.388   7.910
  527POPC   C4B11854  36.538  27.169   7.516
  528POPC   NC311855  18.523  27.815   9.805
  528POPC   PO411856  17.946  27.492   9.634
  528POPC   GL111857  18.188  27.749   9.320
  528POPC   GL211858  18.505  27.583   9.294
  528POPC   C1A11859  18.168  27.877   8.868
  528POPC   D2A11860  18.386  27.878   8.442
  528POPC   C3A11861  18.063  27.814   8.112
  528POPC   C4A11862  17.903  27.708   7.694
  528POPC   C1B11863  18.586  27.592   8.832
  528POPC   C2B11864  18.683  27.384   8.441
  528POPC   C3B11865  18.587  27.269   8.024
  528POPC   C4B11866  18.368  27.561   7.793
  529POPC   NC311867  40.206  27.078   9.771
  529POPC   PO411868  39.828  26.722   9.439
  529POPC   GL111869  39.858  26.663   9.033
  529POPC   GL211870  39.530  26.707   8.967
  529POPC   C1A11871  39.843  26.508   8.611
  529POPC   D2A11872  40.151  26.416   8.336
  529POPC   C3A11873  40.204  26.799   8.173
  529POPC   C4A11874  40.090  26.883   7.765
  529POPC   C1B11875  39.658  27.015   8.709
  529POPC   C2B11876  39.790  27.028   8.368
  529POPC   C3B11877  39.632  27.013   7.991
  529POPC   C4B11878  39.659  26.587   7.843
  530POPC   NC311879  18.580  20.429   9.417
  530POPC   PO411880  18.193  20.904   9.461
  530POPC   GL111881  18.212  20.732   9.098
  530POPC   GL211882  18.055  20.446   9.200
  530POPC   C1A11883  18.358  20.662   8.680
  530POPC   D2A11884  18.282  20.427   8.305
  530POPC   C3A11885  18.369  20.521   7.826
  530POPC   C4A11886  18.316  20.443   7.330
  530POPC   C1B11887  17.887  20.491   8.796
  530POPC   C2B11888  17.758  20.666   8.425
  530POPC   C3B11889  17.885  20.591   7.994
  530POPC   C4B11890  17.957  20.288   7.647
  531POPC   NC311891   6.080   4.021   9.459
  531POPC   PO411892   5.738   4.605   9.500
  531POPC   GL111893   5.770   4.560   9.092
  531POPC   GL211894   6.110   4.455   9.089
  531POPC   C1A11895   5.735   4.543   8.657
  531POPC   D2A11896   5.459   4.499   8.310
  531POPC   C3A11897   5.723   4.399   7.957
  531POPC   C4A11898   5.969   4.635   7.727
  531POPC   C1B11899   5.957   4.114   8.805
  531POPC   C2B11900   5.764   4.091   8.394
  531POPC   C3B11901   5.887   3.916   8.004
  531POPC   C4B11902   5.749   3.955   7.590
  532POPC   NC311903  39.006  13.133   9.492
  532POPC   PO411904  39.176  13.856   9.496
  532POPC   GL111905  39.085  13.653   9.120
  532POPC   GL211906  39.191  13.314   9.019
  532POPC   C1A11907  39.009  13.694   8.693
  532POPC   D2A11908  39.282  13.814   8.343
  532POPC   C3A11909  39.044  13.741   7.986
  532POPC   C4A11910  39.097  13.386   7.714
  532POPC   C1B11911  39.506  13.615   8.774
  532POPC   C2B11912  39.695  13.528   8.385
  532POPC   C3B11913  39.499  13.448   8.020
  532POPC   C4B11914  39.596  13.323   7.626
  533POPC   NC311915  37.906  16.427   9.600
  533POPC   PO411916  37.606  15.795   9.490
  533POPC   GL111917  37.548  16.042   9.139
  533POPC   GL211918  37.412  16.377   9.196
  533POPC   C1A11919  37.545  15.900   8.722
  533POPC   D2A11920  37.782  15.968   8.376
  533POPC   C3A11921  37.616  15.878   8.014
  533POPC   C4A11922  37.912  15.876   7.707
  533POPC   C1B11923  37.257  16.317   8.783
  533POPC   C2B11924  37.277  16.162   8.363
  533POPC   C3B11925  37.301  16.311   7.963
  533POPC   C4B11926  37.467  16.167   7.592
  534POPC   NC311927  44.268  17.063   9.476
  534POPC   PO411928  43.678  17.197   9.715
  534POPC   GL111929  43.854  16.967   9.221
  534POPC   GL211930  44.117  16.674   9.194
  534POPC   C1A11931  43.849  17.100   8.706
  534POPC   D2A11932  43.844  17.099   8.224
  534POPC   C3A11933  43.637  16.771   7.987
  534POPC   C4A11934  43.612  16.766   7.555
  534POPC   C1B11935  44.298  16.927   8.859
  534POPC   C2B11936  44.323  17.078   8.441
  534POPC   C3B11937  44.298  16.870   8.052
  534POPC   C4B11938  44.052  16.942   7.727
  535POPC   NC311939  43.324   9.122   9.505
  535POPC   PO411940  42.872   8.646   9.497
  535POPC   GL111941  43.047   8.894   9.121
  535POPC   GL211942  43.436   8.952   9.044
  535POPC   C1A11943  42.987   8.832   8.671
  535POPC   D2A11944  42.777   8.593   8.331
  535POPC   C3A11945  43.023   8.676   7.959
  535POPC   C4A11946  42.991   9.109   7.812
  535POPC   C1B11947  43.300   9.251   8.737
  535POPC   C2B11948  43.205   9.151   8.308
  535POPC   C3B11949  43.426   9.333   7.966
  535POPC   C4B11950  43.459   9.194   7.574
  536POPC   NC311951  27.513   1.950   9.464
  536POPC   PO411952  27.978   2.464   9.494
  536POPC   GL111953  27.828   2.212   9.125
  536POPC   GL211954  27.478   2.225   9.029
  536POPC   C1A11955  27.827   1.878   8.766
  536POPC   D2A11956  27.622   1.718   8.364
  536POPC   C3A11957  27.701   1.897   7.948
  536POPC   C4A11958  27.641   1.752   7.538
  536POPC   C1B11959  27.312   1.999   8.688
  536POPC   C2B11960  27.338   2.121   8.253
  536POPC   C3B11961  27.185   1.931   7.877
  536POPC   C4B11962  27.151   1.854   7.427
  537POPC   NC311963  38.086   0.324   9.581
  537POPC   PO411964  37.551   0.673   9.646
  537POPC   GL111965  37.453   0.511   9.219
  537POPC   GL211966  37.778   0.317   9.154
  537POPC   C1A11967  37.502   0.599   8.762
  537POPC   D2A11968  37.725   0.456   8.371
  537POPC   C3A11969  37.569   0.546   7.944
  537POPC   C4A11970  37.398   0.644   7.508
  537POPC   C1B11971  38.043   0.381   8.780
  537POPC   C2B11972  38.229   0.198   8.408
  537POPC   C3B11973  38.057   0.284   8.017
  537POPC   C4B11974  38.019   0.104   7.659
  538POPC   NC311975   8.322  10.654   9.632
  538POPC   PO411976   7.757  10.737   9.314
  538POPC   GL111977   8.118  10.559   9.137
  538POPC   GL211978   8.435  10.748   9.156
  538POPC   C1A11979   8.072  10.394   8.738
  538POPC   D2A11980   7.942  10.338   8.298
  538POPC   C3A11981   8.275  10.474   7.998
  538POPC   C4A11982   8.631  10.284   7.820
  538POPC   C1B11983   8.270  10.912   8.793
  538POPC   C2B11984   7.906  10.850   8.520
  538POPC   C3B11985   7.902  10.825   8.078
  538POPC   C4B11986   8.054  10.760   7.622
  539POPC   NC311987  10.281  34.083   9.471
  539POPC   PO411988  10.786  33.702   9.466
  539POPC   GL111989  10.642  33.916   9.113
  539POPC   GL211990  10.332  33.766   9.078
  539POPC   C1A11991  10.762  33.768   8.704
  539POPC   D2A11992  10.870  33.922   8.307
  539POPC   C3A11993  10.925  33.597   7.996
  539POPC   C4A11994  10.658  33.493   7.657
  539POPC   C1B11995  10.301  33.542   8.724
  539POPC   C2B11996  10.227  33.728   8.343
  539POPC   C3B11997  10.451  33.829   8.007
  539POPC   C4B11998  10.263  33.819   7.634
  540POPC   NC311999  20.127  12.081   9.394
  540POPC   PO412000  19.491  12.162   9.262
  540POPC   GL112001  19.778  11.908   9.066
  540POPC   GL212002  19.910  12.221   8.940
  540POPC   C1A12003  20.079  11.802   8.728
  540POPC   D2A12004  19.880  11.814   8.320
  540POPC   C3A12005  19.908  12.054   7.963
  540POPC   C4A12006  19.601  12.298   7.793
  540POPC   C1B12007  19.654  12.274   8.538
  540POPC   C2B12008  19.660  12.618   8.198
  540POPC   C3B12009  19.853  12.757   7.800
  540POPC   C4B12010  19.971  12.465   7.478
  541POPC   NC312011  35.165  34.640   9.491
  541POPC   PO412012  35.878  34.458   9.324
  541POPC   GL112013  35.593  34.575   9.077
  541POPC   GL212014  35.375  34.344   9.140
  541POPC   C1A12015  35.605  34.628   8.645
  541POPC   D2A12016  35.404  34.842   8.317
  541POPC   C3A12017  35.581  34.714   7.959
  541POPC   C4A12018  35.621  34.882   7.521
  541POPC   C1B12019  35.126  34.565   8.825
  541POPC   C2B12020  35.076  34.449   8.416
  541POPC   C3B12021  35.093  34.497   8.007
  541POPC   C4B12022  35.269  34.533   7.610
  542POPC   NC312023  40.881   6.001   9.602
  542POPC   PO412024  40.251   5.881   9.437
  542POPC   GL112025  40.503   6.012   9.069
  542POPC   GL212026  40.859   5.938   9.106
  542POPC   C1A12027  40.607   5.943   8.615
  542POPC   D2A12028  40.655   6.130   8.199
  542POPC   C3A12029  40.454   5.873   7.919
  542POPC   C4A12030  40.681   5.527   7.742
  542POPC   C1B12031  41.129   5.936   8.788
  542POPC   C2B12032  41.127   6.012   8.396
  542POPC   C3B12033  41.025   5.746   8.101
  542POPC   C4B12034  40.955   5.956   7.756
  543POPC   NC312035  43.259  32.413   9.495
  543POPC   PO412036  42.812  31.844   9.483
  543POPC   GL112037  42.955  32.078   9.116
  543POPC   GL212038  43.040  32.439   8.997
  543POPC   C1A12039  43.263  32.052   8.795
  543POPC   D2A12040  43.285  32.366   8.480
  543POPC   C3A12041  43.176  32.217   8.083
  543POPC   C4A12042  43.418  32.063   7.710
  543POPC   C1B12043  42.780  32.214   8.642
  543POPC   C2B12044  42.492  32.143   8.269
  543POPC   C3B12045  42.699  32.197   7.859
  543POPC   C4B12046  43.046  32.446   7.645
  544POPC   NC312047  34.179  32.962   9.485
  544POPC   PO412048  33.583  33.189   9.492
  544POPC   GL112049  33.849  33.140   9.133
  544POPC   GL212050  33.854  32.803   9.117
  544POPC   C1A12051  33.869  33.134   8.678
  544POPC   D2A12052  33.594  33.040   8.316
  544POPC   C3A12053  33.803  33.110   7.940
  544POPC   C4A12054  33.567  33.409   7.736
  544POPC   C1B12055  33.669  32.675   8.754
  544POPC   C2B12056  33.892  32.638   8.370
  544POPC   C3B12057  33.663  32.602   7.989
  544POPC   C4B12058  33.625  32.667   7.549
  545POPC   NC312059  35.790  23.584   9.479
  545POPC   PO412060  35.126  23.801   9.509
  545POPC   GL112061  35.344  23.773   9.080
  545POPC   GL212062  35.705  23.885   9.084
  545POPC   C1A12063  35.350  23.677   8.604
  545POPC   D2A12064  35.224  23.327   8.342
  545POPC   C3A12065  35.073  23.467   7.926
  545POPC   C4A12066  35.185  23.879   7.750
  545POPC   C1B12067  35.711  23.461   8.858
  545POPC   C2B12068  35.809  23.511   8.404
  545POPC   C3B12069  35.538  23.637   8.077
  545POPC   C4B12070  35.503  23.232   7.840
  546POPC   NC312071  12.026  25.208   9.601
  546POPC   PO412072  12.203  25.831   9.471
  546POPC   GL112073  11.991  25.553   9.138
  546POPC   GL212074  11.981  25.169   9.117
  546POPC   C1A12075  12.190  25.411   8.743
  546POPC   D2A12076  12.215  25.164   8.381
  546POPC   C3A12077  12.192  25.360   8.001
  546POPC   C4A12078  12.442  25.433   7.698
  546POPC   C1B12079  11.941  24.910   8.759
  546POPC   C2B12080  11.980  24.660   8.415
  546POPC   C3B12081  12.026  24.827   8.035
  546POPC   C4B12082  11.753  25.151   7.886
  547POPC   NC312083   2.227  33.992   9.671
  547POPC   PO412084   1.958  33.492   9.328
  547POPC   GL112085   2.243  33.570   9.031
  547POPC   GL212086   2.353  33.843   9.197
  547POPC   C1A12087   2.075  33.673   8.638
  547POPC   D2A12088   2.087  33.609   8.187
  547POPC   C3A12089   1.797  33.700   7.914
  547POPC   C4A12090   2.070  33.584   7.597
  547POPC   C1B12091   2.378  34.059   8.812
  547POPC   C2B12092   2.365  33.997   8.359
  547POPC   C3B12093   2.182  34.055   7.919
  547POPC   C4B12094   2.226  34.065   7.464
  548POPC   NC312095   2.250   6.757   9.551
  548POPC   PO412096   1.745   6.392   9.521
  548POPC   GL112097   1.922   6.623   9.150
  548POPC   GL212098   2.303   6.560   9.099
  548POPC   C1A12099   1.981   6.838   8.735
  548POPC   D2A12100   1.725   6.794   8.358
  548POPC   C3A12101   1.802   6.910   7.958
  548POPC   C4A12102   1.839   6.486   7.847
  548POPC   C1B12103   2.424   6.517   8.700
  548POPC   C2B12104   2.180   6.506   8.331
  548POPC   C3B12105   2.305   6.637   7.933
  548POPC   C4B12106   2.450   6.841   7.548
  549POPC   NC312107  32.142  20.693   9.495
  549POPC   PO412108  32.318  20.139   9.454
  549POPC   GL112109  32.087  20.295   9.143
  549POPC   GL212110  31.902  20.035   9.069
  549POPC   C1A12111  32.073  20.496   8.742
  549POPC   D2A12112  32.036  20.662   8.323
  549POPC   C3A12113  32.380  20.760   8.041
  549POPC   C4A12114  32.433  20.964   7.632
  549POPC   C1B12115  32.073  19.976   8.698
  549POPC   C2B12116  32.212  20.167   8.373
  549POPC   C3B12117  32.184  20.286   7.990
  549POPC   C4B12118  32.350  20.450   7.631
  550POPC   NC312119  24.402  16.448   9.407
  550POPC   PO412120  24.777  17.011   9.467
  550POPC   GL112121  24.571  16.839   9.120
  550POPC   GL212122  24.808  16.566   9.110
  550POPC   C1A12123  24.272  16.839   8.753
  550POPC   D2A12124  24.412  16.702   8.349
  550POPC   C3A12125  24.246  16.697   7.894
  550POPC   C4A12126  24.399  16.666   7.484
  550POPC   C1B12127  24.948  16.366   8.742
  550POPC   C2B12128  25.060  16.524   8.330
  550POPC   C3B12129  24.759  16.577   7.999
  550POPC   C4B12130  24.841  16.408   7.621
  551POPC   NC312131  15.119  17.016   9.485
  551POPC   PO412132  15.194  17.651   9.472
  551POPC   GL112133  14.912  17.518   9.167
  551POPC   GL212134  15.140  17.275   9.052
  551POPC   C1A12135  14.964  17.656   8.750
  551POPC   D2A12136  15.275  17.398   8.530
  551POPC   C3A12137  15.251  17.504   8.119
  551POPC   C4A12138  14.866  17.778   7.987
  551POPC   C1B12139  14.883  17.152   8.747
  551POPC   C2B12140  14.778  17.398   8.348
  551POPC   C3B12141  14.857  17.276   7.904
  551POPC   C4B12142  15.263  17.246   7.677
  552POPC   NC312143  25.212  17.161   9.543
  552POPC   PO412144  25.497  17.798   9.380
  552POPC   GL112145  25.260  17.505   9.151
  552POPC   GL212146  25.506  17.260   9.107
  552POPC   C1A12147  25.072  17.431   8.747
  552POPC   D2A12148  25.199  17.536   8.332
  552POPC   C3A12149  25.026  17.678   7.961
  552POPC   C4A12150  25.213  17.599   7.538
  552POPC   C1B12151  25.444  17.101   8.692
  552POPC   C2B12152  25.613  17.243   8.324
  552POPC   C3B12153  25.499  17.280   7.897
  552POPC   C4B12154  25.529  17.201   7.441
  553POPC   NC312155  31.344  13.148   9.491
  553POPC   PO412156  31.453  12.472   9.612
  553POPC   GL112157  31.529  12.688   9.216
  553POPC   GL212158  31.806  12.507   9.166
  553POPC   C1A12159  31.392  12.883   8.807
  553POPC   D2A12160  31.339  13.128   8.408
  553POPC   C3A12161  31.449  12.959   8.009
  553POPC   C4A12162  31.334  12.558   7.843
  553POPC   C1B12163  31.845  12.640   8.744
  553POPC   C2B12164  31.661  12.675   8.362
  553POPC   C3B12165  31.893  12.566   7.984
  553POPC   C4B12166  32.021  12.522   7.565
  554POPC   NC312167  38.773   5.104   9.421
  554POPC   PO412168  38.456   5.684   9.497
  554POPC   GL112169  38.393   5.434   9.154
  554POPC   GL212170  38.286   5.108   9.187
  554POPC   C1A12171  38.638   5.322   8.788
  554POPC   D2A12172  38.952   5.475   8.486
  554POPC   C3A12173  38.799   5.376   8.093
  554POPC   C4A12174  38.471   5.088   7.881
  554POPC   C1B12175  38.142   5.145   8.759
  554POPC   C2B12176  38.218   5.035   8.327
  554POPC   C3B12177  38.003   4.927   7.933
  554POPC   C4B12178  38.159   4.866   7.499
  555POPC   NC312179  16.917  28.408  10.108
  555POPC   PO412180  16.552  28.412   9.484
  555POPC   GL112181  16.832  28.429   9.147
  555POPC   GL212182  16.644  28.186   8.924
  555POPC   C1A12183  17.016  28.458   8.740
  555POPC   D2A12184  16.768  28.380   8.378
  555POPC   C3A12185  16.887  28.607   8.057
  555POPC   C4A12186  17.088  28.565   7.648
  555POPC   C1B12187  16.505  28.604   8.756
  555POPC   C2B12188  16.251  28.574   8.385
  555POPC   C3B12189  16.345  28.423   8.002
  555POPC   C4B12190  16.565  28.620   7.687
  556POPC   NC312191  36.641   1.335   9.593
  556POPC   PO412192  37.197   1.041   9.302
  556POPC   GL112193  37.037   0.896   8.953
  556POPC   GL212194  36.713   0.995   9.101
  556POPC   C1A12195  37.056   1.028   8.502
  556POPC   D2A12196  37.151   1.386   8.197
  556POPC   C3A12197  36.910   1.339   7.819
  556POPC   C4A12198  36.874   0.937   7.588
  556POPC   C1B12199  36.759   1.371   8.834
  556POPC   C2B12200  36.656   1.341   8.388
  556POPC   C3B12201  36.571   1.028   8.078
  556POPC   C4B12202  36.425   1.194   7.690
  557POPC   NC312203  40.486   3.057   9.491
  557POPC   PO412204  40.663   2.496   9.236
  557POPC   GL112205  40.577   2.823   9.029
  557POPC   GL212206  40.860   2.982   9.137
  557POPC   C1A12207  40.550   2.686   8.618
  557POPC   D2A12208  40.377   2.515   8.304
  557POPC   C3A12209  40.600   2.697   7.974
  557POPC   C4A12210  40.614   2.508   7.605
  557POPC   C1B12211  41.014   2.786   8.775
  557POPC   C2B12212  40.956   3.002   8.432
  557POPC   C3B12213  41.216   2.980   8.112
  557POPC   C4B12214  41.041   2.802   7.732
  558POPC   NC312215  37.014  22.579   9.517
  558POPC   PO412216  36.863  23.210   9.481
  558POPC   GL112217  36.960  23.128   9.072
  558POPC   GL212218  36.844  22.811   9.095
  558POPC   C1A12219  36.722  23.089   8.700
  558POPC   D2A12220  36.772  22.888   8.301
  558POPC   C3A12221  36.628  23.108   7.978
  558POPC   C4A12222  36.748  23.201   7.605
  558POPC   C1B12223  36.956  22.600   8.692
  558POPC   C2B12224  36.952  22.397   8.287
  558POPC   C3B12225  36.799  22.540   7.881
  558POPC   C4B12226  36.998  22.760   7.521
  559POPC   NC312227  19.748  40.455   9.589
  559POPC   PO412228  20.345  40.684   9.605
  559POPC   GL112229  20.181  40.748   9.164
  559POPC   GL212230  19.802  40.709   9.142
  559POPC   C1A12231  20.029  40.805   8.698
  559POPC   D2A12232  19.891  40.560   8.307
  559POPC   C3A12233  19.834  40.754   7.878
  559POPC   C4A12234  20.192  40.815   7.622
  559POPC   C1B12235  19.647  40.455   8.775
  559POPC   C2B12236  19.442  40.314   8.373
  559POPC   C3B12237  19.578  40.317   7.924
  559POPC   C4B12238  19.455  40.574   7.540
  560POPC   NC312239   5.365  40.692   9.464
  560POPC   PO412240   4.671  41.043   9.640
  560POPC   GL112241   4.833  41.033   9.162
  560POPC   GL212242   5.105  40.826   9.048
  560POPC   C1A12243   4.783  40.994   8.708
  560POPC   D2A12244   4.925  40.623   8.495
  560POPC   C3A12245   4.854  40.651   8.055
  560POPC   C4A12246   4.855  40.801   7.666
  560POPC   C1B12247   5.422  40.700   8.756
  560POPC   C2B12248   5.455  40.648   8.327
  560POPC   C3B12249   5.363  40.722   7.910
  560POPC   C4B12250   5.576  40.419   7.696
  561POPC   NC312251  15.669   8.487   9.428
  561POPC   PO412252  15.792   9.180   9.426
  561POPC   GL112253  15.796   8.873   9.112
  561POPC   GL212254  15.498   8.642   8.993
  561POPC   C1A12255  16.048   8.858   8.772
  561POPC   D2A12256  16.111   9.016   8.380
  561POPC   C3A12257  16.189   8.692   8.117
  561POPC   C4A12258  16.190   8.816   7.747
  561POPC   C1B12259  15.568   8.825   8.629
  561POPC   C2B12260  15.684   8.720   8.241
  561POPC   C3B12261  15.711   8.946   7.868
  561POPC   C4B12262  15.755   8.807   7.433
  562POPC   NC312263  15.261  16.705  10.008
  562POPC   PO412264  14.853  16.644   9.529
  562POPC   GL112265  15.009  16.707   9.074
  562POPC   GL212266  15.378  16.830   9.083
  562POPC   C1A12267  14.867  16.626   8.596
  562POPC   D2A12268  14.989  16.942   8.271
  562POPC   C3A12269  15.027  16.800   7.848
  562POPC   C4A12270  15.016  16.897   7.398
  562POPC   C1B12271  15.318  16.800   8.645
  562POPC   C2B12272  15.323  16.563   8.217
  562POPC   C3B12273  15.501  16.584   7.774
  562POPC   C4B12274  15.620  16.438   7.334
  563POPC   NC312275  13.575  10.134   9.501
  563POPC   PO412276  13.449   9.471   9.723
  563POPC   GL112277  13.648   9.615   9.270
  563POPC   GL212278  13.554   9.928   9.052
  563POPC   C1A12279  13.713   9.552   8.787
  563POPC   D2A12280  13.706   9.532   8.330
  563POPC   C3A12281  13.369   9.635   8.053
  563POPC   C4A12282  13.576   9.611   7.668
  563POPC   C1B12283  13.386  10.186   8.705
  563POPC   C2B12284  13.529  10.271   8.270
  563POPC   C3B12285  13.696  10.053   7.887
  563POPC   C4B12286  13.756   9.996   7.408
  564POPC   NC312287  10.139  15.150   9.620
  564POPC   PO412288  10.682  15.517   9.729
  564POPC   GL112289  10.432  15.466   9.327
  564POPC   GL212290  10.730  15.463   9.156
  564POPC   C1A12291  10.183  15.259   8.933
  564POPC   D2A12292  10.175  14.956   8.574
  564POPC   C3A12293  10.277  15.098   8.156
  564POPC   C4A12294  10.413  14.898   7.791
  564POPC   C1B12295  10.663  15.105   8.895
  564POPC   C2B12296  10.584  15.283   8.512
  564POPC   C3B12297  10.814  15.390   8.157
  564POPC   C4B12298  10.905  15.111   7.791
  565POPC   NC312299   2.190  32.656   9.610
  565POPC   PO412300   2.049  33.226   9.758
  565POPC   GL112301   2.077  33.022   9.274
  565POPC   GL212302   2.047  32.708   9.109
  565POPC   C1A12303   2.100  33.123   8.805
  565POPC   D2A12304   1.850  33.241   8.455
  565POPC   C3A12305   1.800  33.197   7.989
  565POPC   C4A12306   2.013  33.055   7.624
  565POPC   C1B12307   1.967  32.668   8.663
  565POPC   C2B12308   2.007  32.798   8.224
  565POPC   C3B12309   1.875  32.610   7.818
  565POPC   C4B12310   1.922  32.609   7.369
  566POPC   NC312311  36.281   2.151   9.546
  566POPC   PO412312  35.841   1.645   9.637
  566POPC   GL112313  35.901   1.929   9.248
  566POPC   GL212314  35.810   1.717   8.983
  566POPC   C1A12315  36.170   2.119   8.879
  566POPC   D2A12316  36.425   2.240   8.490
  566POPC   C3A12317  36.295   2.101   8.062
  566POPC   C4A12318  36.014   1.904   7.766
  566POPC   C1B12319  36.203   1.612   8.843
  566POPC   C2B12320  36.323   1.725   8.447
  566POPC   C3B12321  36.303   1.567   8.038
  566POPC   C4B12322  36.504   1.689   7.694
  567POPC   NC312323  16.031  20.592   9.786
  567POPC   PO412324  15.690  21.057   9.428
  567POPC   GL112325  15.988  20.821   9.214
  567POPC   GL212326  16.048  20.500   9.274
  567POPC   C1A12327  15.881  20.875   8.784
  567POPC   D2A12328  15.702  20.615   8.484
  567POPC   C3A12329  15.822  20.625   8.079
  567POPC   C4A12330  16.017  20.822   7.766
  567POPC   C1B12331  15.928  20.354   8.854
  567POPC   C2B12332  15.874  20.077   8.492
  567POPC   C3B12333  15.859  20.099   8.053
  567POPC   C4B12334  16.095  20.312   7.752
  568POPC   NC312335  11.943  15.358   9.247
  568POPC   PO412336  12.264  14.898   9.465
  568POPC   GL112337  12.419  15.159   9.105
  568POPC   GL212338  12.415  14.821   8.991
  568POPC   C1A12339  12.358  15.447   8.742
  568POPC   D2A12340  12.222  15.307   8.336
  568POPC   C3A12341  11.921  15.368   7.990
  568POPC   C4A12342  11.917  15.182   7.578
  568POPC   C1B12343  12.098  14.959   8.713
  568POPC   C2B12344  12.031  14.805   8.297
  568POPC   C3B12345  12.243  14.972   7.950
  568POPC   C4B12346  12.440  15.368   7.828
  569POPC   NC312347  11.038  14.208   9.431
  569POPC   PO412348  11.317  14.880   9.460
  569POPC   GL112349  11.287  14.613   9.131
  569POPC   GL212350  11.530  14.337   9.234
  569POPC   C1A12351  11.072  14.697   8.737
  569POPC   D2A12352  11.006  14.451   8.381
  569POPC   C3A12353  10.943  14.616   7.948
  569POPC   C4A12354  11.168  14.551   7.575
  569POPC   C1B12355  11.406  14.200   8.815
  569POPC   C2B12356  11.516  14.405   8.440
  569POPC   C3B12357  11.377  14.330   8.036
  569POPC   C4B12358  11.572  14.297   7.684
  570POPC   NC312359  37.888  20.233   9.577
  570POPC   PO412360  38.556  20.362   9.569
  570POPC   GL112361  38.245  20.451   9.242
  570POPC   GL212362  38.235  20.806   9.165
  570POPC   C1A12363  38.269  20.451   8.794
  570POPC   D2A12364  38.483  20.264   8.444
  570POPC   C3A12365  38.293  20.390   8.055
  570POPC   C4A12366  38.406  20.617   7.689
  570POPC   C1B12367  38.409  20.943   8.777
  570POPC   C2B12368  38.467  20.762   8.377
  570POPC   C3B12369  38.670  20.874   8.034
  570POPC   C4B12370  38.463  21.155   7.788
  571POPC   NC312371  44.161  28.457   9.734
  571POPC   PO412372  43.421  28.357   9.736
  571POPC   GL112373  43.757  28.367   9.345
  571POPC   GL212374  43.873  28.030   9.188
  571POPC   C1A12375  44.083  28.465   8.974
  571POPC   D2A12376  44.254  28.697   8.582
  571POPC   C3A12377  44.120  28.541   8.149
  571POPC   C4A12378  43.877  28.524   7.743
  571POPC   C1B12379  43.955  27.940   8.739
  571POPC   C2B12380  43.933  28.021   8.295
  571POPC   C3B12381  44.079  28.087   7.882
  571POPC   C4B12382  43.787  28.063   7.535
  572POPC   NC312383  42.012  24.251   9.412
  572POPC   PO412384  41.335  24.492   9.535
  572POPC   GL112385  41.583  24.491   9.197
  572POPC   GL212386  41.916  24.715   9.226
  572POPC   C1A12387  41.397  24.301   8.810
  572POPC   D2A12388  41.399  24.100   8.385
  572POPC   C3A12389  41.396  24.344   8.011
  572POPC   C4A12390  41.445  24.251   7.572
  572POPC   C1B12391  41.850  24.594   8.795
  572POPC   C2B12392  41.662  24.539   8.446
  572POPC   C3B12393  41.747  24.695   8.108
  572POPC   C4B12394  41.824  25.052   7.941
  573POPC   NC312395  21.915  16.639  10.046
  573POPC   PO412396  22.380  16.880   9.847
  573POPC   GL112397  22.474  16.836   9.360
  573POPC   GL212398  22.694  17.084   9.184
  573POPC   C1A12399  22.406  16.726   8.893
  573POPC   D2A12400  22.507  16.528   8.460
  573POPC   C3A12401  22.287  16.555   8.063
  573POPC   C4A12402  21.961  16.802   7.863
  573POPC   C1B12403  22.696  17.087   8.679
  573POPC   C2B12404  22.463  17.017   8.236
  573POPC   C3B12405  22.463  16.941   7.768
  573POPC   C4B12406  22.570  17.179   7.398
  574POPC   NC312407  19.249  37.287   9.493
  574POPC   PO412408  18.843  37.886   9.522
  574POPC   GL112409  19.030  37.809   9.102
  574POPC   GL212410  19.200  37.487   9.000
  574POPC   C1A12411  19.044  37.797   8.655
  574POPC   D2A12412  19.359  37.634   8.397
  574POPC   C3A12413  19.242  37.907   8.083
  574POPC   C4A12414  18.844  37.860   7.867
  574POPC   C1B12415  18.995  37.277   8.676
  574POPC   C2B12416  18.863  37.136   8.306
  574POPC   C3B12417  18.957  37.352   7.942
  574POPC   C4B12418  18.920  37.502   7.510
  575POPC   NC312419   7.462  19.686   9.525
  575POPC   PO412420   7.046  20.194   9.355
  575POPC   GL112421   7.295  19.909   9.094
  575POPC   GL212422   7.654  19.866   9.089
  575POPC   C1A12423   7.328  19.661   8.750
  575POPC   D2A12424   7.241  19.495   8.364
  575POPC   C3A12425   7.365  19.678   7.999
  575POPC   C4A12426   7.698  19.828   7.755
  575POPC   C1B12427   7.667  20.070   8.695
  575POPC   C2B12428   7.662  20.025   8.250
  575POPC   C3B12429   7.364  20.183   7.907
  575POPC   C4B12430   7.113  20.037   7.534
  576POPC   NC312431   9.284  32.008   9.208
  576POPC   PO412432   8.776  32.151   9.602
  576POPC   GL112433   8.867  32.400   9.228
  576POPC   GL212434   8.782  32.133   9.064
  576POPC   C1A12435   9.004  32.513   8.769
  576POPC   D2A12436   9.065  32.353   8.320
  576POPC   C3A12437   8.923  32.580   7.941
  576POPC   C4A12438   8.871  32.633   7.469
  576POPC   C1B12439   8.782  32.075   8.655
  576POPC   C2B12440   8.594  32.060   8.271
  576POPC   C3B12441   8.834  32.080   7.906
  576POPC   C4B12442   9.277  32.025   7.972
  577POPC   NC312443  35.254  32.561   9.644
  577POPC   PO412444  35.312  33.219   9.794
  577POPC   GL112445  35.355  33.130   9.341
  577POPC   GL212446  35.331  32.825   9.219
  577POPC   C1A12447  35.355  33.131   8.837
  577POPC   D2A12448  35.463  32.973   8.419
  577POPC   C3A12449  35.404  33.177   8.014
  577POPC   C4A12450  35.793  33.283   7.811
  577POPC   C1B12451  35.283  32.609   8.838
  577POPC   C2B12452  35.303  32.486   8.425
  577POPC   C3B12453  35.227  32.661   8.012
  577POPC   C4B12454  35.177  32.737   7.563
  578POPC   NC312455  42.951  28.849   9.359
  578POPC   PO412456  43.440  29.271   9.569
  578POPC   GL112457  43.208  29.341   9.169
  578POPC   GL212458  42.833  29.301   9.154
  578POPC   C1A12459  43.316  29.216   8.757
  578POPC   D2A12460  43.244  28.860   8.475
  578POPC   C3A12461  43.245  29.049   8.066
  578POPC   C4A12462  43.462  29.235   7.717
  578POPC   C1B12463  42.798  29.046   8.731
  578POPC   C2B12464  42.771  28.925   8.261
  578POPC   C3B12465  42.841  28.801   7.855
  578POPC   C4B12466  42.895  29.153   7.666
  579POPC   NC312467  36.321  25.103   9.634
  579POPC   PO412468  36.156  25.702   9.486
  579POPC   GL112469  36.275  25.437   9.117
  579POPC   GL212470  36.345  25.055   9.115
  579POPC   C1A12471  36.202  25.331   8.669
  579POPC   D2A12472  36.099  25.226   8.218
  579POPC   C3A12473  36.204  25.448   7.834
  579POPC   C4A12474  35.967  25.509   7.461
  579POPC   C1B12475  36.170  24.830   8.754
  579POPC   C2B12476  36.428  24.868   8.399
  579POPC   C3B12477  36.510  25.051   7.993
  579POPC   C4B12478  36.171  24.948   7.708
  580POPC   NC312479   1.119  30.571   9.664
  580POPC   PO412480   1.370  31.142   9.478
  580POPC   GL112481   1.110  30.879   9.199
  580POPC   GL212482   1.365  30.629   9.194
  580POPC   C1A12483   0.906  30.796   8.768
  580POPC   D2A12484   0.813  30.969   8.326
  580POPC   C3A12485   1.134  30.818   8.013
  580POPC   C4A12486   1.250  30.889   7.564
  580POPC   C1B12487   1.452  30.762   8.761
  580POPC   C2B12488   1.503  30.611   8.310
  580POPC   C3B12489   1.552  30.510   7.845
  580POPC   C4B12490   1.494  30.473   7.370
  581POPC   NC312491   6.882   4.056   9.473
  581POPC   PO412492   6.693   4.613   9.575
  581POPC   GL112493   6.798   4.479   9.172
  581POPC   GL212494   6.560   4.192   9.101
  581POPC   C1A12495   6.961   4.336   8.782
  581POPC   D2A12496   6.884   4.196   8.364
  581POPC   C3A12497   6.771   4.527   8.101
  581POPC   C4A12498   6.818   4.665   7.679
  581POPC   C1B12499   6.452   4.186   8.665
  581POPC   C2B12500   6.308   4.124   8.258
  581POPC   C3B12501   6.387   3.963   7.857
  581POPC   C4B12502   6.395   4.371   7.785
  582POPC   NC312503  19.116   3.854   9.456
  582POPC   PO412504  19.095   3.281   9.653
  582POPC   GL112505  19.170   3.439   9.147
  582POPC   GL212506  19.463   3.610   9.118
  582POPC   C1A12507  18.956   3.393   8.681
  582POPC   D2A12508  19.001   3.427   8.201
  582POPC   C3A12509  18.800   3.315   7.799
  582POPC   C4A12510  18.830   3.419   7.347
  582POPC   C1B12511  19.253   3.937   8.840
  582POPC   C2B12512  19.131   4.110   8.432
  582POPC   C3B12513  19.105   3.901   8.055
  582POPC   C4B12514  19.136   3.712   7.652
  583POPC   NC312515   9.183   0.930   9.574
  583POPC   PO412516   8.847   1.534   9.585
  583POPC   GL112517   8.962   1.411   9.192
  583POPC   GL212518   9.012   1.071   9.129
  583POPC   C1A12519   9.076   1.393   8.759
  583POPC   D2A12520   9.067   1.179   8.394
  583POPC   C3A12521   9.088   1.487   8.098
  583POPC   C4A12522   8.942   1.450   7.703
  583POPC   C1B12523   8.820   0.914   8.768
  583POPC   C2B12524   8.709   0.766   8.385
  583POPC   C3B12525   8.805   0.952   7.980
  583POPC   C4B12526   8.593   1.071   7.613
  584POPC   NC312527  43.346  15.561   9.495
  584POPC   PO412528  42.913  15.090   9.617
  584POPC   GL112529  43.111  15.152   9.212
  584POPC   GL212530  43.361  14.861   9.166
  584POPC   C1A12531  43.093  15.517   8.899
  584POPC   D2A12532  43.419  15.588   8.532
  584POPC   C3A12533  43.301  15.490   8.060
  584POPC   C4A12534  43.255  15.057   7.872
  584POPC   C1B12535  43.375  15.116   8.753
  584POPC   C2B12536  43.027  15.270   8.472
  584POPC   C3B12537  42.843  15.265   8.064
  584POPC   C4B12538  42.702  15.152   7.635
  585POPC   NC312539  15.283  12.026   9.520
  585POPC   PO412540  14.670  11.909   9.287
  585POPC   GL112541  15.067  12.006   9.075
  585POPC   GL212542  15.416  11.745   9.127
  585POPC   C1A12543  15.090  12.291   8.733
  585POPC   D2A12544  15.080  12.329   8.309
  585POPC   C3A12545  14.891  11.950   8.166
  585POPC   C4A12546  14.971  11.884   7.748
  585POPC   C1B12547  15.506  11.975   8.780
  585POPC   C2B12548  15.364  11.915   8.394
  585POPC   C3B12549  15.382  12.050   7.985
  585POPC   C4B12550  15.542  11.777   7.646
  586POPC   NC312551   3.832  41.273   9.508
  586POPC   PO412552   3.315  41.621   9.504
  586POPC   GL112553   3.571  41.580   9.155
  586POPC   GL212554   3.639  41.226   9.033
  586POPC   C1A12555   3.620  41.605   8.722
  586POPC   D2A12556   3.418  41.377   8.398
  586POPC   C3A12557   3.394  41.556   7.980
  586POPC   C4A12558   3.534  41.704   7.583
  586POPC   C1B12559   3.900  41.205   8.601
  586POPC   C2B12560   3.895  41.458   8.196
  586POPC   C3B12561   3.810  41.303   7.776
  586POPC   C4B12562   3.993  41.000   7.488
  587POPC   NC312563   0.899   9.719   9.627
  587POPC   PO412564   1.450   9.838   9.510
  587POPC   GL112565   1.197   9.633   9.165
  587POPC   GL212566   1.024   9.927   9.132
  587POPC   C1A12567   1.057   9.589   8.696
  587POPC   D2A12568   1.322   9.721   8.339
  587POPC   C3A12569   1.241   9.760   7.895
  587POPC   C4A12570   1.367   9.581   7.503
  587POPC   C1B12571   1.296  10.025   8.766
  587POPC   C2B12572   1.146  10.214   8.382
  587POPC   C3B12573   1.044  10.224   7.942
  587POPC   C4B12574   0.674  10.021   7.740
  588POPC   NC312575   6.252  21.984   9.256
  588POPC   PO412576   5.827  22.409   9.548
  588POPC   GL112577   5.755  22.117   9.184
  588POPC   GL212578   5.758  21.793   9.323
  588POPC   C1A12579   5.895  22.085   8.718
  588POPC   D2A12580   6.060  22.284   8.324
  588POPC   C3A12581   6.065  22.121   7.893
  588POPC   C4A12582   6.100  21.822   7.562
  588POPC   C1B12583   5.614  21.691   8.915
  588POPC   C2B12584   5.710  21.626   8.515
  588POPC   C3B12585   5.735  21.806   8.133
  588POPC   C4B12586   5.582  21.937   7.748
  589POPC   NC312587   3.474  40.391   9.551
  589POPC   PO412588   3.928  40.827   9.667
  589POPC   GL112589   3.645  40.767   9.262
  589POPC   GL212590   3.298  40.816   9.263
  589POPC   C1A12591   3.631  40.785   8.787
  589POPC   D2A12592   3.765  40.720   8.359
  589POPC   C3A12593   3.580  40.874   7.963
  589POPC   C4A12594   3.665  40.611   7.585
  589POPC   C1B12595   3.187  40.580   8.878
  589POPC   C2B12596   3.107  40.411   8.460
  589POPC   C3B12597   3.268  40.473   8.041
  589POPC   C4B12598   3.158  40.741   7.688
  590POPC   NC312599  19.221   5.545   9.571
  590POPC   PO412600  18.765   5.048   9.556
  590POPC   GL112601  18.674   5.152   9.145
  590POPC   GL212602  18.756   5.488   9.155
  590POPC   C1A12603  18.763   5.065   8.729
  590POPC   D2A12604  18.998   4.900   8.404
  590POPC   C3A12605  18.842   5.026   8.006
  590POPC   C4A12606  19.116   4.789   7.787
  590POPC   C1B12607  19.118   5.328   8.956
  590POPC   C2B12608  19.152   5.385   8.507
  590POPC   C3B12609  19.304   5.259   8.116
  590POPC   C4B12610  19.226   5.269   7.705
  591POPC   NC312611  10.698  18.313   9.574
  591POPC   PO412612   9.997  18.102   9.539
  591POPC   GL112613  10.349  18.165   9.252
  591POPC   GL212614  10.418  18.531   9.213
  591POPC   C1A12615  10.456  18.122   8.822
  591POPC   D2A12616  10.260  18.249   8.437
  591POPC   C3A12617  10.504  18.253   8.067
  591POPC   C4A12618  10.241  18.198   7.724
  591POPC   C1B12619  10.169  18.553   8.856
  591POPC   C2B12620  10.203  18.751   8.494
  591POPC   C3B12621  10.157  18.612   8.063
  591POPC   C4B12622  10.042  18.683   7.624
  592POPC   NC312623  39.199  30.156   9.472
  592POPC   PO412624  39.459  29.533   9.539
  592POPC   GL112625  39.345  29.734   9.171
  592POPC   GL212626  39.072  29.589   8.996
  592POPC   C1A12627  39.353  29.928   8.767
  592POPC   D2A12628  39.250  29.702   8.397
  592POPC   C3A12629  39.298  29.903   8.046
  592POPC   C4A12630  39.428  29.787   7.618
  592POPC   C1B12631  38.861  29.796   8.699
  592POPC   C2B12632  38.720  29.873   8.301
  592POPC   C3B12633  38.835  29.674   7.949
  592POPC   C4B12634  38.931  29.905   7.611
  593POPC   NC312635  23.463  30.737   9.489
  593POPC   PO412636  24.072  31.021   9.438
  593POPC   GL112637  23.875  30.728   9.140
  593POPC   GL212638  23.580  30.469   9.089
  593POPC   C1A12639  23.994  30.734   8.695
  593POPC   D2A12640  24.063  30.956   8.286
  593POPC   C3A12641  23.943  30.690   7.922
  593POPC   C4A12642  24.080  30.473   7.579
  593POPC   C1B12643  23.473  30.800   8.810
  593POPC   C2B12644  23.569  30.822   8.382
  593POPC   C3B12645  23.582  31.032   7.996
  593POPC   C4B12646  23.560  30.966   7.539
  594POPC   NC312647  11.404  37.855   9.531
  594POPC   PO412648  11.116  37.353   9.169
  594POPC   GL112649  11.079  37.837   9.114
  594POPC   GL212650  11.423  37.969   9.042
  594POPC   C1A12651  11.072  37.973   8.675
  594POPC   D2A12652  11.350  37.664   8.452
  594POPC   C3A12653  11.199  37.465   8.074
  594POPC   C4A12654  11.358  37.436   7.664
  594POPC   C1B12655  11.560  38.121   8.672
  594POPC   C2B12656  11.444  38.122   8.254
  594POPC   C3B12657  11.086  37.980   8.110
  594POPC   C4B12658  11.205  37.908   7.732
  595POPC   NC312659  26.009  16.854   9.704
  595POPC   PO412660  25.681  16.401   9.358
  595POPC   GL112661  25.843  16.769   9.128
  595POPC   GL212662  26.187  16.839   9.200
  595POPC   C1A12663  26.072  16.734   8.721
  595POPC   D2A12664  26.207  16.528   8.317
  595POPC   C3A12665  25.874  16.466   7.996
  595POPC   C4A12666  25.689  16.745   7.661
  595POPC   C1B12667  26.406  17.125   8.894
  595POPC   C2B12668  26.317  17.078   8.451
  595POPC   C3B12669  26.023  16.971   8.140
  595POPC   C4B12670  26.182  16.776   7.757
  596POPC   NC312671  18.839   4.691   9.826
  596POPC   PO412672  19.318   4.255   9.605
  596POPC   GL112673  19.060   4.343   9.226
  596POPC   GL212674  18.737   4.516   9.357
  596POPC   C1A12675  19.157   4.489   8.780
  596POPC   D2A12676  19.396   4.567   8.385
  596POPC   C3A12677  19.297   4.379   7.987
  596POPC   C4A12678  18.967   4.221   7.699
  596POPC   C1B12679  18.660   4.597   8.937
  596POPC   C2B12680  18.690   4.415   8.528
  596POPC   C3B12681  18.805   4.492   8.111
  596POPC   C4B12682  18.638   4.637   7.713
  597POPC   NC312683   9.918  14.554   9.587
  597POPC   PO412684   9.438  14.268   9.359
  597POPC   GL112685   9.835  14.253   9.150
  597POPC   GL212686   9.741  14.543   9.019
  597POPC   C1A12687  10.073  14.282   8.732
  597POPC   D2A12688   9.896  14.213   8.326
  597POPC   C3A12689   9.931  14.600   8.131
  597POPC   C4A12690   9.766  14.702   7.752
  597POPC   C1B12691   9.535  14.265   8.719
  597POPC   C2B12692   9.413  14.450   8.367
  597POPC   C3B12693   9.228  14.368   8.027
  597POPC   C4B12694   9.264  14.462   7.645
  598POPC   NC312695  41.099   9.330   9.519
  598POPC   PO412696  41.461   9.966   9.610
  598POPC   GL112697  41.461   9.934   9.144
  598POPC   GL212698  41.819   9.933   8.995
  598POPC   C1A12699  41.442  10.126   8.725
  598POPC   D2A12700  41.813  10.107   8.436
  598POPC   C3A12701  41.675   9.874   8.061
  598POPC   C4A12702  41.302   9.869   7.789
  598POPC   C1B12703  41.860   9.488   8.819
  598POPC   C2B12704  41.650   9.186   8.543
  598POPC   C3B12705  41.739   9.191   8.113
  598POPC   C4B12706  41.588   9.430   7.768
  599POPC   NC312707  39.258  39.693   9.557
  599POPC   PO412708  38.958  39.076   9.538
  599POPC   GL112709  39.184  39.101   9.141
  599POPC   GL212710  39.274  39.429   9.125
  599POPC   C1A12711  39.423  39.143   8.739
  599POPC   D2A12712  39.494  39.269   8.326
  599POPC   C3A12713  39.105  39.225   8.074
  599POPC   C4A12714  39.064  39.302   7.632
  599POPC   C1B12715  39.306  39.625   8.725
  599POPC   C2B12716  39.154  39.670   8.315
  599POPC   C3B12717  39.341  39.666   7.904
  599POPC   C4B12718  39.238  39.759   7.451
  600POPC   NC312719  24.667   1.309   9.509
  600POPC   PO412720  24.071   1.573   9.546
  600POPC   GL112721  24.261   1.341   9.161
  600POPC   GL212722  24.274   1.013   9.024
  600POPC   C1A12723  24.395   1.409   8.711
  600POPC   D2A12724  24.189   1.132   8.419
  600POPC   C3A12725  24.286   1.037   8.013
  600POPC   C4A12726  24.229   1.209   7.617
  600POPC   C1B12727  24.753   1.089   8.895
  600POPC   C2B12728  24.967   1.120   8.482
  600POPC   C3B12729  24.799   1.263   8.070
  600POPC   C4B12730  24.707   1.029   7.693
  601POPC   NC312731   8.047  17.981   9.426
  601POPC   PO412732   8.401  18.574   9.458
  601POPC   GL112733   8.247  18.368   9.131
  601POPC   GL212734   7.926  18.516   9.176
  601POPC   C1A12735   8.370  18.280   8.703
  601POPC   D2A12736   8.322  18.478   8.343
  601POPC   C3A12737   8.379  18.180   8.085
  601POPC   C4A12738   8.432  18.008   7.727
  601POPC   C1B12739   7.880  18.229   8.810
  601POPC   C2B12740   8.006  18.030   8.424
  601POPC   C3B12741   7.991  17.853   8.037
  601POPC   C4B12742   7.903  18.125   7.751
  602POPC   NC312743  29.685  38.891   9.619
  602POPC   PO412744  29.996  39.494   9.476
  602POPC   GL112745  29.785  39.374   9.109
  602POPC   GL212746  29.771  39.006   9.004
  602POPC   C1A12747  29.820  39.396   8.665
  602POPC   D2A12748  29.913  39.324   8.233
  602POPC   C3A12749  29.667  39.224   7.881
  602POPC   C4A12750  29.600  39.378   7.474
  602POPC   C1B12751  30.111  38.997   8.621
  602POPC   C2B12752  30.391  39.210   8.266
  602POPC   C3B12753  30.247  39.373   7.847
  602POPC   C4B12754  30.102  39.230   7.473
  603POPC   NC312755  40.855   3.977   9.618
  603POPC   PO412756  40.411   3.503   9.513
  603POPC   GL112757  40.680   3.467   9.179
  603POPC   GL212758  40.920   3.768   9.152
  603POPC   C1A12759  40.619   3.266   8.772
  603POPC   D2A12760  40.710   3.454   8.390
  603POPC   C3A12761  40.766   3.229   8.003
  603POPC   C4A12762  40.817   3.553   7.728
  603POPC   C1B12763  41.181   3.834   8.758
  603POPC   C2B12764  41.200   3.945   8.279
  603POPC   C3B12765  41.131   3.978   7.834
  603POPC   C4B12766  41.248   3.715   7.486
  604POPC   NC312767  13.729   5.103   9.899
  604POPC   PO412768  13.436   4.609   9.553
  604POPC   GL112769  13.594   4.928   9.262
  604POPC   GL212770  13.734   5.254   9.241
  604POPC   C1A12771  13.496   5.075   8.834
  604POPC   D2A12772  13.435   4.952   8.416
  604POPC   C3A12773  13.504   5.168   8.044
  604POPC   C4A12774  13.523   4.852   7.714
  604POPC   C1B12775  13.970   5.311   8.870
  604POPC   C2B12776  13.937   5.106   8.481
  604POPC   C3B12777  13.984   5.052   8.066
  604POPC   C4B12778  13.856   5.267   7.692
  605POPC   NC312779  38.573  41.899   9.356
  605POPC   PO412780  38.194  41.433   9.632
  605POPC   GL112781  38.422  41.425   9.204
  605POPC   GL212782  38.793  41.361   9.202
  605POPC   C1A12783  38.492  41.585   8.785
  605POPC   D2A12784  38.261  41.693   8.420
  605POPC   C3A12785  38.409  41.862   8.054
  605POPC   C4A12786  38.252  41.640   7.739
  605POPC   C1B12787  38.733  41.138   8.841
  605POPC   C2B12788  38.508  41.203   8.448
  605POPC   C3B12789  38.487  41.332   8.051
  605POPC   C4B12790  38.802  41.568   7.804
  606POPC   NC312791  39.034   3.310   9.496
  606POPC   PO412792  39.540   3.808   9.572
  606POPC   GL112793  39.323   3.680   9.151
  606POPC   GL212794  38.952   3.567   9.060
  606POPC   C1A12795  39.322   3.490   8.715
  606POPC   D2A12796  39.143   3.371   8.308
  606POPC   C3A12797  39.245   3.543   7.941
  606POPC   C4A12798  39.420   3.585   7.537
  606POPC   C1B12799  38.766   3.459   8.639
  606POPC   C2B12800  38.667   3.227   8.220
  606POPC   C3B12801  38.899   3.177   7.791
  606POPC   C4B12802  38.888   3.189   7.307
  607POPC   NC312803  26.633  43.604   9.617
  607POPC   PO412804  27.224  44.070   9.591
  607POPC   GL112805  27.102  44.173   9.088
  607POPC   GL212806  26.681  44.079   9.021
  607POPC   C1A12807  27.029  43.972   8.677
  607POPC   D2A12808  27.037  43.948   8.259
  607POPC   C3A12809  27.177  43.647   8.002
  607POPC   C4A12810  27.010  43.917   7.699
  607POPC   C1B12811  26.511  44.138   8.651
  607POPC   C2B12812  26.517  43.884   8.316
  607POPC   C3B12813  26.615  43.699   7.928
  607POPC   C4B12814  26.333  43.660   7.580
  608POPC   NC312815  29.983  30.403   9.481
  608POPC   PO412816  30.123  31.060   9.191
  608POPC   GL112817  29.969  30.703   9.045
  608POPC   GL212818  29.652  30.763   9.117
  608POPC   C1A12819  29.833  30.560   8.652
  608POPC   D2A12820  29.647  30.735   8.276
  608POPC   C3A12821  29.977  30.723   7.965
  608POPC   C4A12822  29.999  30.401   7.653
  608POPC   C1B12823  29.685  31.073   8.739
  608POPC   C2B12824  29.840  31.249   8.345
  608POPC   C3B12825  29.668  31.121   7.936
  608POPC   C4B12826  29.802  31.158   7.459
  609POPC   NC312827  28.854  32.524   9.504
  609POPC   PO412828  28.841  33.247   9.339
  609POPC   GL112829  29.068  32.905   9.148
  609POPC   GL212830  29.410  32.776   9.184
  609POPC   C1A12831  29.171  32.987   8.729
  609POPC   D2A12832  28.987  32.820   8.377
  609POPC   C3A12833  28.929  33.096   8.083
  609POPC   C4A12834  28.942  32.959   7.669
  609POPC   C1B12835  29.577  32.679   8.753
  609POPC   C2B12836  29.458  32.622   8.347
  609POPC   C3B12837  29.355  32.842   7.973
  609POPC   C4B12838  29.406  32.866   7.505
  610POPC   NC312839   6.427   9.165   9.524
  610POPC   PO412840   7.104   8.962   9.625
  610POPC   GL112841   6.755   9.001   9.196
  610POPC   GL212842   6.440   8.986   9.064
  610POPC   C1A12843   6.764   9.074   8.692
  610POPC   D2A12844   6.697   8.828   8.331
  610POPC   C3A12845   6.909   8.867   7.944
  610POPC   C4A12846   6.912   8.618   7.572
  610POPC   C1B12847   6.258   9.147   8.697
  610POPC   C2B12848   6.413   9.259   8.301
  610POPC   C3B12849   6.410   9.067   7.906
  610POPC   C4B12850   6.324   9.206   7.503
  611POPC   NC312851  16.716  35.467   9.595
  611POPC   PO412852  17.057  35.000   9.353
  611POPC   GL112853  16.868  35.219   9.057
  611POPC   GL212854  16.589  35.373   9.117
  611POPC   C1A12855  16.852  35.098   8.675
  611POPC   D2A12856  16.981  35.294   8.346
  611POPC   C3A12857  16.714  35.416   8.075
  611POPC   C4A12858  16.806  35.395   7.678
  611POPC   C1B12859  16.371  35.109   8.858
  611POPC   C2B12860  16.411  35.201   8.447
  611POPC   C3B12861  16.417  34.999   8.099
  611POPC   C4B12862  16.330  35.188   7.727
  612POPC   NC312863  25.356  30.799   9.723
  612POPC   PO412864  25.720  30.356   9.393
  612POPC   GL112865  25.386  30.704   9.211
  612POPC   GL212866  25.075  30.551   9.011
  612POPC   C1A12867  25.420  30.861   8.794
  612POPC   D2A12868  25.660  30.631   8.479
  612POPC   C3A12869  25.431  30.599   8.090
  612POPC   C4A12870  25.423  30.853   7.732
  612POPC   C1B12871  25.197  30.414   8.597
  612POPC   C2B12872  24.947  30.269   8.240
  612POPC   C3B12873  24.907  30.457   7.876
  612POPC   C4B12874  25.237  30.397   7.580
  613POPC   NC312875   3.992  35.323   9.458
  613POPC   PO412876   4.234  35.951   9.484
  613POPC   GL112877   4.265  35.634   9.112
  613POPC   GL212878   4.562  35.636   8.881
  613POPC   C1A12879   4.196  35.309   8.767
  613POPC   D2A12880   4.032  35.192   8.366
  613POPC   C3A12881   4.289  35.273   8.048
  613POPC   C4A12882   4.393  35.125   7.634
  613POPC   C1B12883   4.334  35.865   8.562
  613POPC   C2B12884   4.291  35.836   8.097
  613POPC   C3B12885   4.519  35.613   7.763
  613POPC   C4B12886   4.505  35.519   7.286
  614POPC   NC312887  38.001  10.505   9.987
  614POPC   PO412888  38.723  10.474   9.759
  614POPC   GL112889  38.495  10.547   9.341
  614POPC   GL212890  38.188  10.344   9.373
  614POPC   C1A12891  38.363  10.758   8.930
  614POPC   D2A12892  38.197  10.637   8.528
  614POPC   C3A12893  38.546  10.507   8.252
  614POPC   C4A12894  38.819  10.593   7.911
  614POPC   C1B12895  38.255  10.256   8.941
  614POPC   C2B12896  38.280  10.138   8.525
  614POPC   C3B12897  38.167  10.218   8.113
  614POPC   C4B12898  38.370  10.396   7.756
  615POPC   NC312899  19.892  43.933   9.677
  615POPC   PO412900  19.595  44.364   9.357
  615POPC   GL112901  19.893  44.077   9.147
  615POPC   GL212902  20.230  44.004   9.301
  615POPC   C1A12903  19.851  44.021   8.692
  615POPC   D2A12904  19.795  44.285   8.331
  615POPC   C3A12905  19.619  44.140   7.937
  615POPC   C4A12906  19.344  43.806   7.739
  615POPC   C1B12907  20.286  43.836   8.869
  615POPC   C2B12908  20.201  43.737   8.424
  615POPC   C3B12909  20.010  43.816   8.031
  615POPC   C4B12910  20.180  43.771   7.644
  616POPC   NC312911  40.583  27.930   9.407
  616POPC   PO412912  40.466  27.223   9.419
  616POPC   GL112913  40.734  27.515   9.155
  616POPC   GL212914  40.855  27.290   8.981
  616POPC   C1A12915  40.961  27.760   8.787
  616POPC   D2A12916  40.924  27.853   8.320
  616POPC   C3A12917  41.003  27.451   8.079
  616POPC   C4A12918  41.134  27.295   7.687
  616POPC   C1B12919  40.638  27.339   8.653
  616POPC   C2B12920  40.541  27.223   8.261
  616POPC   C3B12921  40.520  27.599   8.006
  616POPC   C4B12922  40.788  27.702   7.656
  617POPC   NC312923  21.527  30.740   9.705
  617POPC   PO412924  21.861  30.836   9.198
  617POPC   GL112925  21.522  30.546   9.083
  617POPC   GL212926  21.155  30.594   9.165
  617POPC   C1A12927  21.404  30.702   8.699
  617POPC   D2A12928  21.345  30.869   8.307
  617POPC   C3A12929  21.663  30.887   8.002
  617POPC   C4A12930  21.574  31.061   7.586
  617POPC   C1B12931  21.063  30.353   8.762
  617POPC   C2B12932  21.346  30.342   8.352
  617POPC   C3B12933  21.448  30.447   7.940
  617POPC   C4B12934  21.184  30.773   7.808
  618POPC   NC312935  44.065  42.495   9.460
  618POPC   PO412936  43.578  42.104   9.631
  618POPC   GL112937  43.770  42.121   9.218
  618POPC   GL212938  43.584  41.833   9.134
  618POPC   C1A12939  43.891  42.415   8.835
  618POPC   D2A12940  44.246  42.504   8.520
  618POPC   C3A12941  44.063  42.612   8.133
  618POPC   C4A12942  43.885  42.441   7.765
  618POPC   C1B12943  43.564  42.054   8.722
  618POPC   C2B12944  43.579  42.194   8.267
  618POPC   C3B12945  43.647  41.985   7.871
  618POPC   C4B12946  43.810  42.052   7.438
  619POPC   NC312947  44.652   9.895   9.630
  619POPC   PO412948  44.724   9.305   9.553
  619POPC   GL112949  44.566   9.461   9.147
  619POPC   GL212950  44.494   9.835   9.136
  619POPC   C1A12951  44.708   9.629   8.707
  619POPC   D2A12952  44.510   9.926   8.394
  619POPC   C3A12953  44.675   9.904   7.965
  619POPC   C4A12954  44.928   9.536   7.834
  619POPC   C1B12955  44.219   9.669   8.794
  619POPC   C2B12956  44.260   9.473   8.413
  619POPC   C3B12957  44.447   9.454   8.000
  619POPC   C4B12958  44.300   9.352   7.614
  620POPC   NC312959  26.571   5.347   9.642
  620POPC   PO412960  27.084   4.976   9.549
  620POPC   GL112961  26.842   5.243   9.219
  620POPC   GL212962  26.515   5.101   9.198
  620POPC   C1A12963  26.717   5.315   8.785
  620POPC   D2A12964  26.867   5.056   8.474
  620POPC   C3A12965  26.905   5.148   8.048
  620POPC   C4A12966  26.925   5.461   7.726
  620POPC   C1B12967  26.396   4.872   8.807
  620POPC   C2B12968  26.347   5.041   8.380
  620POPC   C3B12969  26.449   4.901   7.986
  620POPC   C4B12970  26.587   5.084   7.606
  621POPC   NC312971  21.690  35.104   9.365
  621POPC   PO412972  21.192  35.614   9.513
  621POPC   GL112973  21.331  35.418   9.167
  621POPC   GL212974  21.226  35.078   9.097
  621POPC   C1A12975  21.510  35.425   8.783
  621POPC   D2A12976  21.287  35.359   8.412
  621POPC   C3A12977  21.486  35.514   8.057
  621POPC   C4A12978  21.733  35.305   7.752
  621POPC   C1B12979  21.470  34.919   8.699
  621POPC   C2B12980  21.603  34.965   8.233
  621POPC   C3B12981  21.654  34.800   7.782
  621POPC   C4B12982  21.796  34.967   7.358
  622POPC   NC312983  17.316  28.757   9.509
  622POPC   PO412984  17.348  28.166   9.798
  622POPC   GL112985  17.269  28.202   9.360
  622POPC   GL212986  17.592  28.366   9.300
  622POPC   C1A12987  17.353  28.121   8.920
  622POPC   D2A12988  17.511  28.069   8.500
  622POPC   C3A12989  17.291  28.303   8.194
  622POPC   C4A12990  17.454  28.261   7.778
  622POPC   C1B12991  17.725  28.485   8.884
  622POPC   C2B12992  17.628  28.578   8.473
  622POPC   C3B12993  17.769  28.506   8.085
  622POPC   C4B12994  17.792  28.612   7.637
  623POPC   NC312995  13.215  21.487   9.806
  623POPC   PO412996  12.494  21.560   9.559
  623POPC   GL112997  12.728  21.338   9.174
  623POPC   GL212998  13.088  21.285   9.148
  623POPC   C1A12999  12.864  21.386   8.698
  623POPC   D2A13000  12.632  21.317   8.310
  623POPC   C3A13001  12.779  21.523   7.922
  623POPC   C4A13002  12.501  21.664   7.598
  623POPC   C1B13003  13.344  21.500   8.830
  623POPC   C2B13004  13.327  21.764   8.475
  623POPC   C3B13005  13.328  21.625   8.057
  623POPC   C4B13006  13.260  21.438   7.685
  624POPC   NC313007  37.855  32.671   9.637
  624POPC   PO413008  37.254  32.759   9.386
  624POPC   GL113009  37.513  32.871   9.055
  624POPC   GL213010  37.901  32.898   9.114
  624POPC   C1A13011  37.681  32.902   8.626
  624POPC   D2A13012  38.044  32.857   8.365
  624POPC   C3A13013  37.966  32.972   7.959
  624POPC   C4A13014  37.584  33.120   7.830
  624POPC   C1B13015  38.092  33.177   8.771
  624POPC   C2B13016  37.916  33.357   8.368
  624POPC   C3B13017  37.866  33.524   7.950
  624POPC   C4B13018  37.856  33.451   7.474
  625POPC   NC313019  24.916  27.790   9.473
  625POPC   PO413020  25.281  27.311   9.667
  625POPC   GL113021  25.263  27.413   9.223
  625POPC   GL213022  25.282  27.760   9.112
  625POPC   C1A13023  25.380  27.391   8.773
  625POPC   D2A13024  25.560  27.544   8.373
  625POPC   C3A13025  25.363  27.338   8.035
  625POPC   C4A13026  25.425  27.478   7.656
  625POPC   C1B13027  25.018  27.773   8.729
  625POPC   C2B13028  25.060  27.660   8.291
  625POPC   C3B13029  25.201  27.877   7.932
  625POPC   C4B13030  25.173  27.867   7.437
  626POPC   NC313031  34.327  29.523   9.825
  626POPC   PO413032  33.710  29.397   9.480
  626POPC   GL113033  33.754  29.240   9.106
  626POPC   GL213034  33.964  28.981   9.209
  626POPC   C1A13035  33.711  29.022   8.734
  626POPC   D2A13036  33.409  28.965   8.412
  626POPC   C3A13037  33.669  28.968   8.044
  626POPC   C4A13038  33.752  29.339   7.763
  626POPC   C1B13039  34.108  28.709   8.880
  626POPC   C2B13040  34.184  28.783   8.435
  626POPC   C3B13041  34.222  28.980   8.020
  626POPC   C4B13042  33.965  28.878   7.641
  627POPC   NC313043  15.313  34.847   9.783
  627POPC   PO413044  15.334  35.550   9.697
  627POPC   GL113045  15.250  35.533   9.222
  627POPC   GL213046  14.941  35.444   9.061
  627POPC   C1A13047  15.393  35.515   8.789
  627POPC   D2A13048  15.367  35.727   8.387
  627POPC   C3A13049  15.200  35.432   8.086
  627POPC   C4A13050  15.368  35.259   7.748
  627POPC   C1B13051  14.998  35.091   8.776
  627POPC   C2B13052  14.944  35.066   8.338
  627POPC   C3B13053  15.027  34.919   7.933
  627POPC   C4B13054  14.896  35.123   7.548
  628POPC   NC313055  39.212  11.667   9.297
  628POPC   PO413056  39.293  12.294   9.579
  628POPC   GL113057  39.403  12.126   9.158
  628POPC   GL213058  39.055  12.062   9.024
  628POPC   C1A13059  39.415  11.936   8.720
  628POPC   D2A13060  39.281  12.289   8.432
  628POPC   C3A13061  39.240  12.058   8.053
  628POPC   C4A13062  39.503  12.043   7.695
  628POPC   C1B13063  38.891  12.012   8.595
  628POPC   C2B13064  38.762  12.331   8.326
  628POPC   C3B13065  39.018  12.515   8.022
  628POPC   C4B13066  39.253  12.495   7.641
  629POPC   NC313067  24.921   2.946   9.458
  629POPC   PO413068  24.543   2.438   9.379
  629POPC   GL113069  24.625   2.719   9.073
  629POPC   GL213070  24.830   2.535   8.856
  629POPC   C1A13071  24.458   2.977   8.726
  629POPC   D2A13072  24.122   2.979   8.396
  629POPC   C3A13073  24.294   2.991   7.960
  629POPC   C4A13074  24.265   2.612   7.706
  629POPC   C1B13075  24.985   2.952   8.790
  629POPC   C2B13076  24.902   2.965   8.396
  629POPC   C3B13077  24.775   2.669   8.062
  629POPC   C4B13078  24.762   2.725   7.620
  630POPC   NC313079  37.641  29.499   9.571
  630POPC   PO413080  37.892  30.089   9.477
  630POPC   GL113081  37.731  29.813   9.133
  630POPC   GL213082  37.452  29.521   9.111
  630POPC   C1A13083  37.860  29.992   8.725
  630POPC   D2A13084  37.703  30.125   8.302
  630POPC   C3A13085  37.936  30.129   7.910
  630POPC   C4A13086  37.854  29.873   7.568
  630POPC   C1B13087  37.708  29.454   8.762
  630POPC   C2B13088  37.927  29.616   8.402
  630POPC   C3B13089  37.773  29.653   8.021
  630POPC   C4B13090  37.594  29.453   7.684
  631POPC   NC313091  14.761   9.947   9.548
  631POPC   PO413092  15.490   9.782   9.504
  631POPC   GL113093  15.290   9.792   9.104
  631POPC   GL213094  14.940   9.755   9.099
  631POPC   C1A13095  15.448   9.692   8.699
  631POPC   D2A13096  15.358   9.685   8.283
  631POPC   C3A13097  15.471   9.876   7.891
  631POPC   C4A13098  15.216   9.898   7.505
  631POPC   C1B13099  14.891  10.066   8.756
  631POPC   C2B13100  15.034  10.095   8.307
  631POPC   C3B13101  14.970   9.781   7.951
  631POPC   C4B13102  14.678   9.837   7.596
  632POPC   NC313103  41.481  16.990   9.420
  632POPC   PO413104  41.543  16.322   9.423
  632POPC   GL113105  41.568  16.565   9.133
  632POPC   GL213106  41.858  16.707   9.224
  632POPC   C1A13107  41.479  16.551   8.730
  632POPC   D2A13108  41.638  16.815   8.453
  632POPC   C3A13109  41.590  16.619   8.080
  632POPC   C4A13110  41.553  16.789   7.675
  632POPC   C1B13111  41.982  16.599   8.783
  632POPC   C2B13112  41.908  16.274   8.473
  632POPC   C3B13113  42.050  16.280   8.045
  632POPC   C4B13114  42.013  16.590   7.780
  633POPC   NC313115   7.594  16.739   9.438
  633POPC   PO413116   6.926  16.578   9.367
  633POPC   GL113117   7.184  16.868   9.086
  633POPC   GL213118   7.553  16.857   8.948
  633POPC   C1A13119   7.212  17.107   8.681
  633POPC   D2A13120   7.481  17.124   8.297
  633POPC   C3A13121   7.483  16.699   8.138
  633POPC   C4A13122   7.346  16.470   7.770
  633POPC   C1B13123   7.622  16.462   8.712
  633POPC   C2B13124   7.867  16.352   8.339
  633POPC   C3B13125   7.912  16.516   7.930
  633POPC   C4B13126   7.785  16.417   7.519
  634POPC   NC313127   9.582  18.268   9.778
  634POPC   PO413128   9.349  18.662   9.240
  634POPC   GL113129   9.550  18.289   9.008
  634POPC   GL213130   9.562  18.031   9.209
  634POPC   C1A13131   9.825  18.194   8.715
  634POPC   D2A13132   9.776  18.467   8.391
  634POPC   C3A13133   9.834  18.214   8.045
  634POPC   C4A13134   9.730  18.258   7.624
  634POPC   C1B13135   9.470  17.834   8.785
  634POPC   C2B13136   9.674  17.803   8.355
  634POPC   C3B13137   9.468  17.874   7.934
  634POPC   C4B13138   9.475  17.831   7.442
  635POPC   NC313139  21.288  41.836   9.614
  635POPC   PO413140  21.586  42.471   9.578
  635POPC   GL113141  21.508  42.483   9.167
  635POPC   GL213142  21.359  42.160   9.186
  635POPC   C1A13143  21.627  42.447   8.743
  635POPC   D2A13144  21.474  42.236   8.395
  635POPC   C3A13145  21.563  42.388   7.993
  635POPC   C4A13146  21.727  42.373   7.602
  635POPC   C1B13147  21.135  42.290   8.802
  635POPC   C2B13148  20.987  42.352   8.379
  635POPC   C3B13149  21.103  42.150   7.975
  635POPC   C4B13150  21.225  42.347   7.567
  636POPC   NC313151  30.569   5.680   9.437
  636POPC   PO413152  30.912   6.235   9.380
  636POPC   GL113153  30.609   6.062   9.080
  636POPC   GL213154  30.364   5.780   8.996
  636POPC   C1A13155  30.733   5.950   8.678
  636POPC   D2A13156  30.872   6.140   8.330
  636POPC   C3A13157  30.612   6.048   8.017
  636POPC   C4A13158  30.762   5.909   7.622
  636POPC   C1B13159  30.469   5.527   8.636
  636POPC   C2B13160  30.694   5.610   8.262
  636POPC   C3B13161  30.576   5.464   7.837
  636POPC   C4B13162  30.472   5.565   7.396
  637POPC   NC313163  38.773   0.337   9.403
  637POPC   PO413164  38.243   0.766   9.530
  637POPC   GL113165  38.358   0.558   9.139
  637POPC   GL213166  38.531   0.282   8.961
  637POPC   C1A13167  38.497   0.711   8.714
  637POPC   D2A13168  38.640   0.516   8.335
  637POPC   C3A13169  38.430   0.621   7.969
  637POPC   C4A13170  38.043   0.826   8.058
  637POPC   C1B13171  38.846   0.162   8.672
  637POPC   C2B13172  38.757   0.033   8.267
  637POPC   C3B13173  38.524   0.072   7.893
  637POPC   C4B13174  38.864  44.981   7.619
  638POPC   NC313175  25.843   2.420   9.493
  638POPC   PO413176  26.355   2.778   9.216
  638POPC   GL113177  26.116   2.503   9.035
  638POPC   GL213178  25.845   2.713   9.053
  638POPC   C1A13179  25.918   2.372   8.656
  638POPC   D2A13180  25.750   2.612   8.336
  638POPC   C3A13181  26.040   2.742   8.028
  638POPC   C4A13182  25.830   2.520   7.766
  638POPC   C1B13183  25.999   2.923   8.658
  638POPC   C2B13184  25.807   3.120   8.298
  638POPC   C3B13185  25.743   3.111   7.887
  638POPC   C4B13186  25.826   2.972   7.522
  639POPC   NC313187  11.984  32.456   9.589
  639POPC   PO413188  11.833  31.771   9.411
  639POPC   GL113189  12.156  32.087   9.270
  639POPC   GL213190  11.899  32.321   9.102
  639POPC   C1A13191  12.334  32.208   8.865
  639POPC   D2A13192  12.060  32.277   8.522
  639POPC   C3A13193  12.240  32.315   8.139
  639POPC   C4A13194  12.138  32.298   7.697
  639POPC   C1B13195  11.726  32.607   8.778
  639POPC   C2B13196  11.581  32.731   8.373
  639POPC   C3B13197  11.663  32.521   8.018
  639POPC   C4B13198  11.761  32.641   7.635
  640POPC   NC313199  40.316  16.914   9.632
  640POPC   PO413200  41.016  16.855   9.447
  640POPC   GL113201  40.666  16.807   9.209
  640POPC   GL213202  40.765  16.457   9.096
  640POPC   C1A13203  40.546  16.972   8.803
  640POPC   D2A13204  40.749  17.046   8.370
  640POPC   C3A13205  40.567  16.832   8.000
  640POPC   C4A13206  40.381  16.506   7.763
  640POPC   C1B13207  41.001  16.723   8.793
  640POPC   C2B13208  41.153  16.749   8.367
  640POPC   C3B13209  41.099  16.810   7.930
  640POPC   C4B13210  41.130  16.499   7.611
  641POPC   NC313211   0.954  22.699   9.537
  641POPC   PO413212   1.409  23.165   9.557
  641POPC   GL113213   1.223  22.954   9.176
  641POPC   GL213214   1.282  22.580   9.124
  641POPC   C1A13215   1.081  22.899   8.754
  641POPC   D2A13216   1.267  22.705   8.400
  641POPC   C3A13217   1.248  22.965   8.049
  641POPC   C4A13218   0.987  23.208   7.781
  641POPC   C1B13219   0.833  22.508   8.938
  641POPC   C2B13220   0.771  22.532   8.460
  641POPC   C3B13221   0.938  22.497   8.016
  641POPC   C4B13222   1.069  22.709   7.635
  642POPC   NC313223  11.719  34.576   9.580
  642POPC   PO413224  12.285  34.599   9.283
  642POPC   GL113225  11.909  34.765   9.116
  642POPC   GL213226  11.830  34.504   8.916
  642POPC   C1A13227  12.032  34.880   8.682
  642POPC   D2A13228  12.274  34.706   8.367
  642POPC   C3A13229  12.113  34.642   7.993
  642POPC   C4A13230  12.114  34.477   7.606
  642POPC   C1B13231  12.145  34.326   8.677
  642POPC   C2B13232  12.179  34.194   8.257
  642POPC   C3B13233  12.514  34.291   7.984
  642POPC   C4B13234  12.578  34.294   7.566
  643POPC   NC313235  43.250  42.880   9.667
  643POPC   PO413236  43.914  42.922   9.590
  643POPC   GL113237  43.910  43.145   9.230
  643POPC   GL213238  43.916  42.861   9.055
  643POPC   C1A13239  44.092  43.316   8.862
  643POPC   D2A13240  43.922  43.372   8.476
  643POPC   C3A13241  43.965  43.160   8.084
  643POPC   C4A13242  44.251  43.366   7.759
  643POPC   C1B13243  43.899  42.878   8.614
  643POPC   C2B13244  43.612  42.702   8.362
  643POPC   C3B13245  43.595  42.822   7.959
  643POPC   C4B13246  43.564  42.770   7.526
  644POPC   NC313247  24.473  26.531   9.484
  644POPC   PO413248  24.938  26.954   9.238
  644POPC   GL113249  24.482  26.848   9.043
  644POPC   GL213250  24.291  26.509   9.020
  644POPC   C1A13251  24.200  26.874   8.670
  644POPC   D2A13252  24.246  26.926   8.228
  644POPC   C3A13253  24.685  26.912   8.123
  644POPC   C4A13254  24.905  27.171   7.853
  644POPC   C1B13255  24.525  26.380   8.663
  644POPC   C2B13256  24.805  26.272   8.301
  644POPC   C3B13257  24.782  26.439   7.897
  644POPC   C4B13258  24.427  26.680   7.750
  645POPC   NC313259   9.385  21.444   9.647
  645POPC   PO413260   8.791  21.651   9.502
  645POPC   GL113261   8.915  21.351   9.176
  645POPC   GL213262   9.288  21.251   9.155
  645POPC   C1A13263   8.958  21.289   8.734
  645POPC   D2A13264   8.795  21.150   8.325
  645POPC   C3A13265   8.949  21.507   8.084
  645POPC   C4A13266   8.962  21.665   7.668
  645POPC   C1B13267   9.353  20.930   8.817
  645POPC   C2B13268   9.294  21.079   8.379
  645POPC   C3B13269   9.352  21.187   7.965
  645POPC   C4B13270   9.189  21.201   7.580
  646POPC   NC313271  20.266  25.278   9.898
  646POPC   PO413272  19.759  25.353   9.474
  646POPC   GL113273  19.865  25.548   9.095
  646POPC   GL213274  20.233  25.570   9.152
  646POPC   C1A13275  19.790  25.621   8.653
  646POPC   D2A13276  19.586  25.451   8.312
  646POPC   C3A13277  19.741  25.457   7.925
  646POPC   C4A13278  19.650  25.267   7.551
  646POPC   C1B13279  20.197  25.337   8.750
  646POPC   C2B13280  20.081  25.309   8.291
  646POPC   C3B13281  20.193  25.205   7.836
  646POPC   C4B13282  20.462  25.099   7.456
  647POPC   NC313283  22.352   7.588   9.360
  647POPC   PO413284  21.987   7.221   9.801
  647POPC   GL113285  21.986   7.136   9.289
  647POPC   GL213286  21.919   7.446   9.116
  647POPC   C1A13287  22.191   7.179   8.784
  647POPC   D2A13288  22.095   7.321   8.310
  647POPC   C3A13289  22.382   7.190   7.969
  647POPC   C4A13290  22.507   7.520   7.771
  647POPC   C1B13291  22.079   7.692   8.768
  647POPC   C2B13292  21.890   7.815   8.405
  647POPC   C3B13293  21.719   7.825   8.047
  647POPC   C4B13294  22.012   7.668   7.773
  648POPC   NC313295  20.294  13.775   9.436
  648POPC   PO413296  19.640  13.981   9.485
  648POPC   GL113297  19.841  14.301   9.235
  648POPC   GL213298  20.151  14.166   9.137
  648POPC   C1A13299  19.878  14.454   8.802
  648POPC   D2A13300  19.688  14.557   8.394
  648POPC   C3A13301  19.687  14.274   8.018
  648POPC   C4A13302  19.614  14.272   7.543
  648POPC   C1B13303  20.230  14.079   8.704
  648POPC   C2B13304  20.152  14.342   8.302
  648POPC   C3B13305  20.148  14.223   7.814
  648POPC   C4B13306  20.089  14.235   7.332
  649POPC   NC313307  36.865   4.014   9.940
  649POPC   PO413308  37.008   3.713   9.417
  649POPC   GL113309  37.056   4.049   9.159
  649POPC   GL213310  36.767   4.258   9.218
  649POPC   C1A13311  37.157   4.377   8.829
  649POPC   D2A13312  37.240   4.639   8.432
  649POPC   C3A13313  37.067   4.380   8.098
  649POPC   C4A13314  36.983   4.292   7.654
  649POPC   C1B13315  36.724   4.098   8.783
  649POPC   C2B13316  36.643   4.256   8.364
  649POPC   C3B13317  36.686   4.003   7.972
  649POPC   C4B13318  36.685   3.913   7.514
  650POPC   NC313319   9.448  39.789   9.379
  650POPC   PO413320   8.918  40.176   9.584
  650POPC   GL113321   8.920  40.117   9.161
  650POPC   GL213322   9.239  40.266   9.120
  650POPC   C1A13323   8.845  39.988   8.719
  650POPC   D2A13324   9.031  39.788   8.336
  650POPC   C3A13325   8.827  39.846   7.934
  650POPC   C4A13326   8.560  40.164   7.741
  650POPC   C1B13327   9.373  40.149   8.755
  650POPC   C2B13328   9.217  40.266   8.387
  650POPC   C3B13329   9.263  40.146   7.996
  650POPC   C4B13330   9.065  40.164   7.610
  651POPC   NC313331   5.736  38.789   9.418
  651POPC   PO413332   6.050  38.111   9.503
  651POPC   GL113333   5.870  38.341   9.205
  651POPC   GL213334   5.521  38.315   9.277
  651POPC   C1A13335   5.980  38.578   8.838
  651POPC   D2A13336   5.953  38.670   8.412
  651POPC   C3A13337   6.245  38.410   8.149
  651POPC   C4A13338   6.326  38.317   7.707
  651POPC   C1B13339   5.511  38.222   8.851
  651POPC   C2B13340   5.638  38.218   8.437
  651POPC   C3B13341   5.629  38.462   8.088
  651POPC   C4B13342   5.514  38.425   7.694
  652POPC   NC313343  35.823  11.678   9.339
  652POPC   PO413344  36.290  12.087   9.694
  652POPC   GL113345  36.191  12.070   9.236
  652POPC   GL213346  36.369  12.340   9.084
  652POPC   C1A13347  36.228  11.798   8.833
  652POPC   D2A13348  35.959  11.672   8.474
  652POPC   C3A13349  35.988  11.788   8.075
  652POPC   C4A13350  36.260  11.766   7.786
  652POPC   C1B13351  36.346  12.249   8.650
  652POPC   C2B13352  36.402  11.970   8.335
  652POPC   C3B13353  36.405  12.207   7.980
  652POPC   C4B13354  36.329  12.243   7.568
  653POPC   NC313355  11.013  13.374   9.476
  653POPC   PO413356  11.407  13.889   9.474
  653POPC   GL113357  11.143  13.755   9.140
  653POPC   GL213358  11.320  13.441   9.095
  653POPC   C1A13359  11.109  13.705   8.697
  653POPC   D2A13360  11.249  13.904   8.345
  653POPC   C3A13361  11.241  13.633   7.977
  653POPC   C4A13362  11.199  13.932   7.674
  653POPC   C1B13363  11.504  13.276   8.756
  653POPC   C2B13364  11.558  13.480   8.392
  653POPC   C3B13365  11.615  13.250   8.041
  653POPC   C4B13366  11.350  13.114   7.724
  654POPC   NC313367   4.125   0.874   9.454
  654POPC   PO413368   4.126   1.554   9.594
  654POPC   GL113369   4.263   1.440   9.193
  654POPC   GL213370   4.419   1.104   9.101
  654POPC   C1A13371   4.237   1.504   8.770
  654POPC   D2A13372   4.373   1.301   8.410
  654POPC   C3A13373   4.222   1.494   8.042
  654POPC   C4A13374   4.433   1.428   7.687
  654POPC   C1B13375   4.133   0.972   8.789
  654POPC   C2B13376   3.962   0.912   8.402
  654POPC   C3B13377   4.180   0.982   8.002
  654POPC   C4B13378   4.000   0.933   7.602
  655POPC   NC313379  34.899  27.862   9.507
  655POPC   PO413380  34.586  27.257   9.505
  655POPC   GL113381  34.508  27.461   9.121
  655POPC   GL213382  34.498  27.800   9.145
  655POPC   C1A13383  34.337  27.548   8.717
  655POPC   D2A13384  34.524  27.452   8.361
  655POPC   C3A13385  34.258  27.309   8.071
  655POPC   C4A13386  34.270  27.435   7.678
  655POPC   C1B13387  34.771  27.798   8.809
  655POPC   C2B13388  34.618  27.969   8.416
  655POPC   C3B13389  34.551  27.809   8.009
  655POPC   C4B13390  34.678  27.747   7.608
  656POPC   NC313391  16.110  13.167   9.629
  656POPC   PO413392  16.475  12.600   9.428
  656POPC   GL113393  16.180  12.667   9.111
  656POPC   GL213394  16.024  12.978   9.120
  656POPC   C1A13395  15.985  12.688   8.695
  656POPC   D2A13396  15.807  12.997   8.428
  656POPC   C3A13397  15.920  12.875   8.019
  656POPC   C4A13398  15.953  12.666   7.603
  656POPC   C1B13399  16.197  13.160   8.719
  656POPC   C2B13400  16.267  13.434   8.393
  656POPC   C3B13401  16.320  13.320   7.966
  656POPC   C4B13402  16.067  13.197   7.614
  657POPC   NC313403  41.692  26.541   9.732
  657POPC   PO413404  41.391  27.079   9.571
  657POPC   GL113405  41.521  27.087   9.161
  657POPC   GL213406  41.220  26.948   9.073
  657POPC   C1A13407  41.720  27.057   8.751
  657POPC   D2A13408  41.602  26.899   8.357
  657POPC   C3A13409  41.890  26.783   8.022
  657POPC   C4A13410  41.868  26.690   7.562
  657POPC   C1B13411  41.401  26.623   8.830
  657POPC   C2B13412  41.422  26.393   8.463
  657POPC   C3B13413  41.421  26.541   8.050
  657POPC   C4B13414  41.460  26.919   7.813
  658POPC   NC313415  15.001  33.107   9.695
  658POPC   PO413416  15.075  33.750   9.430
  658POPC   GL113417  15.068  33.713   9.035
  658POPC   GL213418  15.366  33.837   8.949
  658POPC   C1A13419  14.856  33.875   8.690
  658POPC   D2A13420  14.865  34.033   8.285
  658POPC   C3A13421  15.002  33.796   7.966
  658POPC   C4A13422  15.385  33.975   7.837
  658POPC   C1B13423  15.433  33.416   8.719
  658POPC   C2B13424  15.448  33.180   8.324
  658POPC   C3B13425  15.420  33.478   7.996
  658POPC   C4B13426  15.513  33.543   7.566
  659POPC   NC313427  42.146  43.210   9.423
  659POPC   PO413428  42.734  43.343   9.203
  659POPC   GL113429  42.601  43.095   8.900
  659POPC   GL213430  42.295  42.949   9.015
  659POPC   C1A13431  42.341  43.300   8.633
  659POPC   D2A13432  42.215  43.313   8.242
  659POPC   C3A13433  42.542  43.272   7.942
  659POPC   C4A13434  42.686  42.941   7.656
  659POPC   C1B13435  41.981  42.950   8.685
  659POPC   C2B13436  41.966  42.782   8.282
  659POPC   C3B13437  42.218  42.883   7.935
  659POPC   C4B13438  42.196  42.995   7.503
  660POPC   NC313439  43.606  23.576   9.538
  660POPC   PO413440  44.051  24.034   9.574
  660POPC   GL113441  44.140  23.752   9.238
  660POPC   GL213442  43.804  23.710   9.091
  660POPC   C1A13443  44.190  23.695   8.768
  660POPC   D2A13444  44.323  23.854   8.368
  660POPC   C3A13445  43.996  23.806   8.111
  660POPC   C4A13446  43.862  23.834   7.699
  660POPC   C1B13447  43.514  23.787   8.754
  660POPC   C2B13448  43.334  23.627   8.416
  660POPC   C3B13449  43.497  23.689   8.041
  660POPC   C4B13450  43.359  23.961   7.697
  661POPC   NC313451   3.787  19.454   9.345
  661POPC   PO413452   3.462  18.943   9.506
  661POPC   GL113453   3.455  19.121   9.136
  661POPC   GL213454   3.761  19.017   9.065
  661POPC   C1A13455   3.356  18.982   8.733
  661POPC   D2A13456   3.331  19.171   8.324
  661POPC   C3A13457   3.333  18.977   7.915
  661POPC   C4A13458   3.633  19.062   7.590
  661POPC   C1B13459   3.846  18.782   8.715
  661POPC   C2B13460   4.005  18.797   8.312
  661POPC   C3B13461   3.843  19.117   8.055
  661POPC   C4B13462   3.928  19.462   7.779
  662POPC   NC313463  40.169  14.801   9.507
  662POPC   PO413464  40.042  15.462   9.581
  662POPC   GL113465  39.943  15.191   9.221
  662POPC   GL213466  39.658  15.361   9.147
  662POPC   C1A13467  40.017  14.901   8.849
  662POPC   D2A13468  40.056  15.061   8.414
  662POPC   C3A13469  40.019  14.885   7.993
  662POPC   C4A13470  40.129  15.000   7.574
  662POPC   C1B13471  39.602  15.181   8.767
  662POPC   C2B13472  39.569  15.276   8.368
  662POPC   C3B13473  39.796  15.323   8.028
  662POPC   C4B13474  39.721  15.293   7.659
  663POPC   NC313475  19.168   2.241   9.375
  663POPC   PO413476  19.410   1.687   9.663
  663POPC   GL113477  19.270   1.726   9.186
  663POPC   GL213478  18.924   1.900   9.084
  663POPC   C1A13479  19.214   1.734   8.711
  663POPC   D2A13480  19.059   2.015   8.369
  663POPC   C3A13481  19.215   1.962   7.950
  663POPC   C4A13482  18.878   1.762   7.734
  663POPC   C1B13483  18.833   2.272   8.782
  663POPC   C2B13484  18.737   2.444   8.348
  663POPC   C3B13485  18.768   2.222   7.949
  663POPC   C4B13486  18.812   2.184   7.474
  664POPC   NC313487  36.568   3.848   9.469
  664POPC   PO413488  35.940   3.573   9.429
  664POPC   GL113489  36.047   3.711   9.057
  664POPC   GL213490  36.284   3.986   9.070
  664POPC   C1A13491  35.980   3.589   8.644
  664POPC   D2A13492  35.998   3.714   8.227
  664POPC   C3A13493  35.966   3.373   7.968
  664POPC   C4A13494  36.178   3.215   7.635
  664POPC   C1B13495  36.462   3.664   8.780
  664POPC   C2B13496  36.481   3.467   8.391
  664POPC   C3B13497  36.471   3.504   7.949
  664POPC   C4B13498  36.244   3.794   7.753
  665POPC   NC313499  39.118  44.002   9.686
  665POPC   PO413500  39.640  43.989   9.429
  665POPC   GL113501  39.263  43.863   9.185
  665POPC   GL213502  38.996  44.092   9.186
  665POPC   C1A13503  39.278  43.695   8.767
  665POPC   D2A13504  39.439  43.785   8.364
  665POPC   C3A13505  39.390  43.570   7.950
  665POPC   C4A13506  39.404  43.551   7.459
  665POPC   C1B13507  38.812  43.927   8.846
  665POPC   C2B13508  38.946  43.921   8.438
  665POPC   C3B13509  38.775  43.775   8.078
  665POPC   C4B13510  38.718  43.988   7.708
  666POPC   NC313511  18.848  24.616   9.585
  666POPC   PO413512  19.444  24.539   9.412
  666POPC   GL113513  19.102  24.703   9.131
  666POPC   GL213514  18.840  24.454   9.104
  666POPC   C1A13515  19.064  24.643   8.675
  666POPC   D2A13516  19.012  24.836   8.276
  666POPC   C3A13517  19.045  24.555   7.958
  666POPC   C4A13518  18.684  24.355   7.817
  666POPC   C1B13519  18.739  24.251   8.697
  666POPC   C2B13520  18.851  24.155   8.251
  666POPC   C3B13521  19.066  24.013   7.840
  666POPC   C4B13522  19.207  23.874   7.397
  667POPC   NC313523  44.131  25.733   9.446
  667POPC   PO413524  44.034  26.350   9.475
  667POPC   GL113525  44.023  26.157   9.073
  667POPC   GL213526  43.773  25.880   9.060
  667POPC   C1A13527  43.993  26.344   8.659
  667POPC   D2A13528  43.874  26.570   8.260
  667POPC   C3A13529  44.125  26.371   7.927
  667POPC   C4A13530  44.294  25.917   7.829
  667POPC   C1B13531  43.918  25.713   8.663
  667POPC   C2B13532  44.071  25.937   8.302
  667POPC   C3B13533  43.815  25.953   7.947
  667POPC   C4B13534  43.427  25.836   7.965
  668POPC   NC313535  31.868  14.554   9.681
  668POPC   PO413536  31.360  14.217   9.480
  668POPC   GL113537  31.688  14.327   9.215
  668POPC   GL213538  31.438  14.493   9.051
  668POPC   C1A13539  31.790  14.277   8.779
  668POPC   D2A13540  31.442  14.137   8.556
  668POPC   C3A13541  31.382  14.069   8.091
  668POPC   C4A13542  31.496  14.236   7.653
  668POPC   C1B13543  31.373  14.778   8.727
  668POPC   C2B13544  31.644  14.755   8.419
  668POPC   C3B13545  31.596  14.549   8.066
  668POPC   C4B13546  31.257  14.647   7.801
  669POPC   NC313547  41.949   1.869   9.473
  669POPC   PO413548  41.532   2.376   9.514
  669POPC   GL113549  41.679   2.166   9.137
  669POPC   GL213550  41.687   1.788   9.064
  669POPC   C1A13551  41.493   2.116   8.729
  669POPC   D2A13552  41.489   1.856   8.388
  669POPC   C3A13553  41.614   2.083   8.058
  669POPC   C4A13554  41.342   2.055   7.704
  669POPC   C1B13555  41.747   1.540   8.711
  669POPC   C2B13556  41.732   1.396   8.276
  669POPC   C3B13557  41.536   1.612   7.916
  669POPC   C4B13558  41.830   1.845   7.654
  670POPC   NC313559  32.350  13.721   9.407
  670POPC   PO413560  31.807  13.325   9.423
  670POPC   GL113561  32.030  13.492   9.078
  670POPC   GL213562  32.337  13.314   9.081
  670POPC   C1A13563  32.231  13.751   8.754
  670POPC   D2A13564  32.535  13.833   8.431
  670POPC   C3A13565  32.277  13.808   8.063
  670POPC   C4A13566  32.177  13.811   7.615
  670POPC   C1B13567  32.567  13.372   8.736
  670POPC   C2B13568  32.450  13.340   8.289
  670POPC   C3B13569  32.499  13.404   7.834
  670POPC   C4B13570  32.249  13.318   7.521
  671POPC   NC313571  39.047  21.611   9.524
  671POPC   PO413572  39.266  20.965   9.466
  671POPC   GL113573  39.266  21.316   9.116
  671POPC   GL213574  38.942  21.538   9.043
  671POPC   C1A13575  39.225  21.388   8.634
  671POPC   D2A13576  39.442  21.510   8.226
  671POPC   C3A13577  39.484  21.265   7.822
  671POPC   C4A13578  39.513  21.545   7.402
  671POPC   C1B13579  38.871  21.093   8.910
  671POPC   C2B13580  38.892  21.019   8.483
  671POPC   C3B13581  39.020  21.238   8.119
  671POPC   C4B13582  38.996  21.109   7.702
  672POPC   NC313583   3.937  37.941   9.874
  672POPC   PO413584   4.129  37.559   9.360
  672POPC   GL113585   4.321  37.786   9.038
  672POPC   GL213586   4.642  37.816   9.164
  672POPC   C1A13587   4.439  37.758   8.599
  672POPC   D2A13588   4.379  37.451   8.261
  672POPC   C3A13589   4.086  37.607   7.942
  672POPC   C4A13590   4.145  37.988   7.828
  672POPC   C1B13591   4.840  37.550   8.834
  672POPC   C2B13592   4.780  37.219   8.532
  672POPC   C3B13593   4.762  37.161   8.067
  672POPC   C4B13594   4.448  37.348   7.714
  673POPC   NC313595  40.049  18.776   9.357
  673POPC   PO413596  39.897  19.437   9.506
  673POPC   GL113597  40.118  19.251   9.159
  673POPC   GL213598  39.830  19.073   9.014
  673POPC   C1A13599  40.224  19.171   8.724
  673POPC   D2A13600  40.014  19.357   8.368
  673POPC   C3A13601  40.006  19.130   7.965
  673POPC   C4A13602  39.735  19.093   7.612
  673POPC   C1B13603  39.916  18.725   8.724
  673POPC   C2B13604  39.930  18.700   8.313
  673POPC   C3B13605  39.636  18.774   8.027
  673POPC   C4B13606  39.593  18.630   7.669
  674POPC   NC313607  23.427   9.000   9.503
  674POPC   PO413608  23.963   8.715   9.471
  674POPC   GL113609  23.857   8.689   9.071
  674POPC   GL213610  23.517   8.805   9.025
  674POPC   C1A13611  23.899   8.809   8.657
  674POPC   D2A13612  23.590   8.612   8.413
  674POPC   C3A13613  23.621   8.643   7.977
  674POPC   C4A13614  23.726   8.801   7.545
  674POPC   C1B13615  23.462   9.061   8.627
  674POPC   C2B13616  23.275   8.977   8.218
  674POPC   C3B13617  23.337   9.057   7.778
  674POPC   C4B13618  23.202   8.952   7.369
  675POPC   NC313619  13.457   9.147   9.394
  675POPC   PO413620  12.762   9.129   9.321
  675POPC   GL113621  12.870   8.840   8.989
  675POPC   GL213622  13.174   8.808   9.113
  675POPC   C1A13623  12.918   8.813   8.557
  675POPC   D2A13624  12.659   9.048   8.276
  675POPC   C3A13625  12.725   8.908   7.889
  675POPC   C4A13626  13.062   8.595   7.781
  675POPC   C1B13627  13.314   9.126   8.789
  675POPC   C2B13628  13.281   9.247   8.398
  675POPC   C3B13629  13.172   9.004   8.097
  675POPC   C4B13630  13.154   9.086   7.689
  676POPC   NC313631  11.119  34.553   9.522
  676POPC   PO413632  11.640  34.240   9.283
  676POPC   GL113633  11.354  34.507   9.081
  676POPC   GL213634  11.345  34.870   9.163
  676POPC   C1A13635  11.087  34.573   8.748
  676POPC   D2A13636  11.199  34.740   8.366
  676POPC   C3A13637  11.023  34.538   8.024
  676POPC   C4A13638  11.276  34.499   7.708
  676POPC   C1B13639  11.535  34.922   8.763
  676POPC   C2B13640  11.666  35.046   8.345
  676POPC   C3B13641  11.466  34.938   7.958
  676POPC   C4B13642  11.709  34.758   7.665
  677POPC   NC313643  34.254  27.572   9.567
  677POPC   PO413644  33.622  27.796   9.546
  677POPC   GL113645  33.704  27.495   9.209
  677POPC   GL213646  34.000  27.662   9.114
  677POPC   C1A13647  33.747  27.393   8.750
  677POPC   D2A13648  33.584  27.598   8.353
  677POPC   C3A13649  33.777  27.536   7.929
  677POPC   C4A13650  33.756  27.243   7.592
  677POPC   C1B13651  33.943  27.862   8.693
  677POPC   C2B13652  34.098  27.781   8.260
  677POPC   C3B13653  34.098  27.927   7.795
  677POPC   C4B13654  33.967  27.697   7.398
  678POPC   NC313655  21.906  44.337   9.449
  678POPC   PO413656  22.176   0.001   9.452
  678POPC   GL113657  21.956  44.795   9.155
  678POPC   GL213658  22.248  44.613   9.110
  678POPC   C1A13659  21.813  44.892   8.747
  678POPC   D2A13660  22.051  44.861   8.365
  678POPC   C3A13661  21.908   0.099   8.055
  678POPC   C4A13662  21.858  44.881   7.700
  678POPC   C1B13663  22.197  44.501   8.696
  678POPC   C2B13664  22.191  44.364   8.258
  678POPC   C3B13665  22.045  44.376   7.860
  678POPC   C4B13666  22.159  44.562   7.453
  679POPC   NC313667   2.268  22.196   9.371
  679POPC   PO413668   1.693  21.775   9.569
  679POPC   GL113669   1.900  21.791   9.142
  679POPC   GL213670   1.959  22.116   8.977
  679POPC   C1A13671   2.016  21.715   8.697
  679POPC   D2A13672   1.850  21.975   8.393
  679POPC   C3A13673   1.996  21.861   7.986
  679POPC   C4A13674   1.718  21.945   7.696
  679POPC   C1B13675   2.258  22.191   8.661
  679POPC   C2B13676   2.215  22.294   8.231
  679POPC   C3B13677   2.051  22.354   7.820
  679POPC   C4B13678   2.171  22.634   7.459
  680POPC   NC313679   9.289  38.234   9.393
  680POPC   PO413680   8.706  38.653   9.523
  680POPC   GL113681   8.930  38.555   9.179
  680POPC   GL213682   9.196  38.777   9.166
  680POPC   C1A13683   8.862  38.433   8.753
  680POPC   D2A13684   8.891  38.253   8.353
  680POPC   C3A13685   8.932  38.455   7.997
  680POPC   C4A13686   9.252  38.315   7.745
  680POPC   C1B13687   9.333  38.662   8.819
  680POPC   C2B13688   9.349  38.324   8.566
  680POPC   C3B13689   9.473  38.431   8.171
  680POPC   C4B13690   9.460  38.785   7.858
  681POPC   NC313691  26.955  33.874   9.619
  681POPC   PO413692  26.932  33.304   9.297
  681POPC   GL113693  27.002  33.726   9.135
  681POPC   GL213694  26.725  33.949   9.174
  681POPC   C1A13695  27.060  34.016   8.791
  681POPC   D2A13696  26.888  33.841   8.419
  681POPC   C3A13697  27.138  33.825   8.054
  681POPC   C4A13698  26.969  33.653   7.642
  681POPC   C1B13699  26.574  33.700   8.820
  681POPC   C2B13700  26.553  33.445   8.448
  681POPC   C3B13701  26.623  33.623   8.013
  681POPC   C4B13702  26.474  33.795   7.587
  682POPC   NC313703  29.138   2.432   9.364
  682POPC   PO413704  29.395   3.075   9.505
  682POPC   GL113705  29.290   2.988   9.098
  682POPC   GL213706  29.480   2.706   9.118
  682POPC   C1A13707  29.091   2.719   8.756
  682POPC   D2A13708  28.955   2.469   8.372
  682POPC   C3A13709  28.922   2.723   7.959
  682POPC   C4A13710  28.883   2.584   7.503
  682POPC   C1B13711  29.635   2.686   8.718
  682POPC   C2B13712  29.493   2.594   8.307
  682POPC   C3B13713  29.477   2.871   7.955
  682POPC   C4B13714  29.211   3.032   7.613
  683POPC   NC313715  36.371  42.766   9.517
  683POPC   PO413716  36.372  43.460   9.369
  683POPC   GL113717  36.090  43.331   9.044
  683POPC   GL213718  36.250  42.995   9.055
  683POPC   C1A13719  35.848  43.459   8.632
  683POPC   D2A13720  36.083  43.282   8.244
  683POPC   C3A13721  35.827  42.972   7.969
  683POPC   C4A13722  35.831  42.816   7.530
  683POPC   C1B13723  36.582  42.802   8.778
  683POPC   C2B13724  36.579  42.989   8.340
  683POPC   C3B13725  36.340  42.896   7.963
  683POPC   C4B13726  36.287  42.556   7.646
  684POPC   NC313727  23.269  27.954   9.501
  684POPC   PO413728  22.730  27.736   9.663
  684POPC   GL113729  22.883  27.736   9.205
  684POPC   GL213730  22.620  27.514   9.098
  684POPC   C1A13731  22.988  27.667   8.717
  684POPC   D2A13732  23.211  27.549   8.259
  684POPC   C3A13733  22.928  27.539   7.891
  684POPC   C4A13734  22.766  27.943   7.763
  684POPC   C1B13735  22.714  27.217   8.770
  684POPC   C2B13736  22.888  27.193   8.375
  684POPC   C3B13737  22.740  27.072   7.983
  684POPC   C4B13738  22.609  27.175   7.573
  685POPC   NC313739  16.971   9.216   9.524
  685POPC   PO413740  17.604   8.903   9.708
  685POPC   GL113741  17.373   8.931   9.305
  685POPC   GL213742  17.362   9.273   9.202
  685POPC   C1A13743  17.446   8.874   8.842
  685POPC   D2A13744  17.524   8.707   8.416
  685POPC   C3A13745  17.607   8.932   8.045
  685POPC   C4A13746  17.864   8.768   7.703
  685POPC   C1B13747  17.478   9.395   8.799
  685POPC   C2B13748  17.409   9.213   8.431
  685POPC   C3B13749  17.125   9.186   8.116
  685POPC   C4B13750  17.162   9.355   7.737
  686POPC   NC313751  41.925  21.731   9.557
  686POPC   PO413752  41.908  21.119   9.251
  686POPC   GL113753  41.670  21.418   9.066
  686POPC   GL213754  41.836  21.759   9.067
  686POPC   C1A13755  41.398  21.279   8.694
  686POPC   D2A13756  41.311  21.148   8.273
  686POPC   C3A13757  41.586  21.161   7.952
  686POPC   C4A13758  41.490  21.511   7.735
  686POPC   C1B13759  41.655  21.720   8.669
  686POPC   C2B13760  41.681  21.580   8.254
  686POPC   C3B13761  41.812  21.852   7.926
  686POPC   C4B13762  41.817  21.803   7.470
  687POPC   NC313763  37.743  14.223   9.559
  687POPC   PO413764  37.706  14.825   9.266
  687POPC   GL113765  37.679  14.415   9.093
  687POPC   GL213766  37.394  14.464   8.981
  687POPC   C1A13767  37.703  14.066   8.779
  687POPC   D2A13768  37.608  13.949   8.340
  687POPC   C3A13769  37.701  14.308   8.030
  687POPC   C4A13770  37.943  14.330   7.619
  687POPC   C1B13771  37.306  14.810   8.671
  687POPC   C2B13772  37.445  15.063   8.321
  687POPC   C3B13773  37.310  14.911   7.922
  687POPC   C4B13774  37.548  14.671   7.655
  688POPC   NC313775  42.465  13.161   9.522
  688POPC   PO413776  42.028  12.661   9.613
  688POPC   GL113777  42.266  12.749   9.217
  688POPC   GL213778  42.211  13.098   9.103
  688POPC   C1A13779  42.060  12.762   8.778
  688POPC   D2A13780  41.997  12.517   8.410
  688POPC   C3A13781  42.024  12.713   8.014
  688POPC   C4A13782  42.177  12.705   7.604
  688POPC   C1B13783  42.533  12.993   8.823
  688POPC   C2B13784  42.648  12.840   8.441
  688POPC   C3B13785  42.539  12.834   8.037
  688POPC   C4B13786  42.331  13.136   7.863
  689POPC   NC313787  40.001  21.605   9.482
  689POPC   PO413788  40.062  21.056   9.170
  689POPC   GL113789  39.954  21.418   8.992
  689POPC   GL213790  40.289  21.502   9.064
  689POPC   C1A13791  39.743  21.295   8.620
  689POPC   D2A13792  39.899  20.963   8.350
  689POPC   C3A13793  39.929  21.276   8.067
  689POPC   C4A13794  39.936  21.418   7.653
  689POPC   C1B13795  40.294  21.720   8.699
  689POPC   C2B13796  40.626  21.849   8.443
  689POPC   C3B13797  40.579  21.747   8.012
  689POPC   C4B13798  40.244  21.829   7.730
  690POPC   NC313799  13.171  31.311   9.489
  690POPC   PO413800  12.721  31.726   9.562
  690POPC   GL113801  12.761  31.470   9.214
  690POPC   GL213802  13.045  31.577   9.079
  690POPC   C1A13803  12.617  31.261   8.844
  690POPC   D2A13804  12.424  31.375   8.446
  690POPC   C3A13805  12.690  31.482   8.115
  690POPC   C4A13806  12.780  31.543   7.699
  690POPC   C1B13807  13.131  31.879   8.813
  690POPC   C2B13808  13.026  31.732   8.420
  690POPC   C3B13809  12.994  31.903   8.019
  690POPC   C4B13810  13.195  31.866   7.633
  691POPC   NC313811  13.460  28.058   9.506
  691POPC   PO413812  13.864  28.583   9.482
  691POPC   GL113813  13.690  28.538   9.089
  691POPC   GL213814  13.346  28.409   9.118
  691POPC   C1A13815  13.839  28.431   8.708
  691POPC   D2A13816  13.689  28.263   8.383
  691POPC   C3A13817  13.903  28.470   8.063
  691POPC   C4A13818  13.858  28.364   7.693
  691POPC   C1B13819  13.196  28.299   8.691
  691POPC   C2B13820  13.152  28.172   8.276
  691POPC   C3B13821  13.391  28.370   7.957
  691POPC   C4B13822  13.400  28.475   7.512
  692POPC   NC313823  11.190  24.838   9.358
  692POPC   PO413824  10.993  24.207   9.549
  692POPC   GL113825  11.166  24.232   9.094
  692POPC   GL213826  11.356  24.540   8.989
  692POPC   C1A13827  11.067  24.335   8.633
  692POPC   D2A13828  11.029  24.576   8.241
  692POPC   C3A13829  11.235  24.366   7.859
  692POPC   C4A13830  11.072  24.093   7.522
  692POPC   C1B13831  11.200  24.862   8.667
  692POPC   C2B13832  11.481  25.055   8.353
  692POPC   C3B13833  11.367  24.847   7.977
  692POPC   C4B13834  10.921  24.854   7.780
  693POPC   NC313835  36.652  43.865   9.328
  693POPC   PO413836  37.277  43.644   9.455
  693POPC   GL113837  37.103  43.808   9.048
  693POPC   GL213838  37.281  44.114   8.987
  693POPC   C1A13839  36.808  43.738   8.660
  693POPC   D2A13840  36.576  43.607   8.259
  693POPC   C3A13841  36.721  43.822   7.885
  693POPC   C4A13842  37.142  43.842   7.707
  693POPC   C1B13843  37.001  44.205   8.684
  693POPC   C2B13844  37.020  44.056   8.258
  693POPC   C3B13845  37.082  44.309   7.902
  693POPC   C4B13846  37.337  44.365   7.548
  694POPC   NC313847  21.882  31.263   9.420
  694POPC   PO413848  22.549  31.525   9.426
  694POPC   GL113849  22.299  31.553   9.081
  694POPC   GL213850  21.950  31.688   9.127
  694POPC   C1A13851  22.355  31.416   8.653
  694POPC   D2A13852  22.264  31.220   8.278
  694POPC   C3A13853  22.521  31.316   7.959
  694POPC   C4A13854  22.287  31.597   7.704
  694POPC   C1B13855  21.871  31.370   8.804
  694POPC   C2B13856  21.784  31.167   8.426
  694POPC   C3B13857  21.818  31.360   8.004
  694POPC   C4B13858  22.082  31.089   7.771
  695POPC   NC313859   1.422  29.682   9.338
  695POPC   PO413860   1.043  30.095   9.723
  695POPC   GL113861   1.026  30.234   9.277
  695POPC   GL213862   1.039  29.916   9.129
  695POPC   C1A13863   1.155  30.333   8.823
  695POPC   D2A13864   1.018  30.118   8.427
  695POPC   C3A13865   1.123  30.250   7.988
  695POPC   C4A13866   1.265  30.046   7.578
  695POPC   C1B13867   0.934  29.716   8.767
  695POPC   C2B13868   0.929  29.575   8.364
  695POPC   C3B13869   1.139  29.715   7.992
  695POPC   C4B13870   1.042  29.580   7.592
  696POPC   NC313871  33.031  13.434   9.701
  696POPC   PO413872  33.549  13.744   9.560
  696POPC   GL113873  33.196  13.575   9.236
  696POPC   GL213874  32.830  13.684   9.142
  696POPC   C1A13875  33.130  13.405   8.824
  696POPC   D2A13876  32.948  13.465   8.436
  696POPC   C3A13877  32.878  13.630   8.087
  696POPC   C4A13878  32.952  13.587   7.670
  696POPC   C1B13879  33.018  13.881   8.740
  696POPC   C2B13880  33.153  13.996   8.332
  696POPC   C3B13881  33.058  14.054   7.894
  696POPC   C4B13882  32.648  13.990   7.773
  697POPC   NC313883  14.793  11.719   9.680
  697POPC   PO413884  14.155  11.865   9.582
  697POPC   GL113885  14.235  11.835   9.054
  697POPC   GL213886  14.240  12.150   8.940
  697POPC   C1A13887  14.594  11.894   8.663
  697POPC   D2A13888  14.581  12.321   8.467
  697POPC   C3A13889  14.575  12.326   8.018
  697POPC   C4A13890  14.466  11.929   7.756
  697POPC   C1B13891  14.106  11.932   8.573
  697POPC   C2B13892  14.303  11.747   8.237
  697POPC   C3B13893  14.014  11.699   7.936
  697POPC   C4B13894  13.980  11.959   7.584
  698POPC   NC313895  15.734  30.685   9.378
  698POPC   PO413896  16.277  30.268   9.388
  698POPC   GL113897  16.238  30.377   8.965
  698POPC   GL213898  15.884  30.466   8.915
  698POPC   C1A13899  16.242  30.812   8.775
  698POPC   D2A13900  16.086  31.088   8.457
  698POPC   C3A13901  16.171  30.966   8.049
  698POPC   C4A13902  15.963  30.916   7.676
  698POPC   C1B13903  15.529  30.409   8.625
  698POPC   C2B13904  15.491  30.291   8.198
  698POPC   C3B13905  15.707  30.479   7.836
  698POPC   C4B13906  15.978  30.444   7.448
  699POPC   NC313907  38.998  31.670   9.294
  699POPC   PO413908  39.525  31.293   9.650
  699POPC   GL113909  39.503  31.521   9.264
  699POPC   GL213910  39.464  31.257   9.048
  699POPC   C1A13911  39.502  31.808   8.892
  699POPC   D2A13912  39.615  31.833   8.461
  699POPC   C3A13913  39.391  31.830   8.089
  699POPC   C4A13914  39.293  31.495   7.789
  699POPC   C1B13915  39.262  31.424   8.678
  699POPC   C2B13916  39.275  31.342   8.280
  699POPC   C3B13917  38.968  31.191   8.055
  699POPC   C4B13918  38.964  31.107   7.655
  700POPC   NC313919  43.916  18.496   9.428
  700POPC   PO413920  44.199  17.897   9.467
  700POPC   GL113921  43.954  17.969   9.109
  700POPC   GL213922  43.587  17.931   9.021
  700POPC   C1A13923  43.906  18.232   8.764
  700POPC   D2A13924  44.022  18.256   8.361
  700POPC   C3A13925  43.824  18.501   8.061
  700POPC   C4A13926  44.088  18.329   7.753
  700POPC   C1B13927  43.394  18.222   8.762
  700POPC   C2B13928  43.509  18.164   8.351
  700POPC   C3B13929  43.753  17.997   8.008
  700POPC   C4B13930  43.548  18.215   7.728
  701POPC   NC313931  40.010  11.888   9.486
  701POPC   PO413932  40.152  12.550   9.464
  701POPC   GL113933  39.912  12.289   9.148
  701POPC   GL213934  39.879  11.935   9.006
  701POPC   C1A13935  39.727  12.319   8.725
  701POPC   D2A13936  39.720  12.062   8.315
  701POPC   C3A13937  39.895  12.300   7.967
  701POPC   C4A13938  39.864  12.360   7.514
  701POPC   C1B13939  40.232  11.685   8.867
  701POPC   C2B13940  40.385  11.673   8.446
  701POPC   C3B13941  40.115  11.779   8.093
  701POPC   C4B13942  40.106  11.929   7.672
  702POPC   NC313943  15.903  43.843  10.011
  702POPC   PO413944  16.221  44.110   9.641
  702POPC   GL113945  16.041  43.896   9.240
  702POPC   GL213946  15.677  43.914   9.192
  702POPC   C1A13947  15.953  43.648   8.840
  702POPC   D2A13948  15.904  43.549   8.383
  702POPC   C3A13949  15.999  43.834   8.027
  702POPC   C4A13950  15.992  43.839   7.562
  702POPC   C1B13951  15.700  44.092   8.739
  702POPC   C2B13952  15.717  44.210   8.265
  702POPC   C3B13953  15.731  44.238   7.779
  702POPC   C4B13954  15.620  44.108   7.323
  703POPC   NC313955  29.848   8.979   9.614
  703POPC   PO413956  30.459   8.846   9.740
  703POPC   GL113957  30.230   8.939   9.292
  703POPC   GL213958  29.942   8.717   9.177
  703POPC   C1A13959  30.164   9.054   8.859
  703POPC   D2A13960  29.976   9.172   8.455
  703POPC   C3A13961  30.069   8.979   8.090
  703POPC   C4A13962  29.969   9.176   7.687
  703POPC   C1B13963  29.726   8.777   8.759
  703POPC   C2B13964  29.544   8.878   8.354
  703POPC   C3B13965  29.621   8.787   7.936
  703POPC   C4B13966  29.731   8.766   7.521
  704POPC   NC313967  35.961  34.908   9.256
  704POPC   PO413968  36.351  34.394   9.624
  704POPC   GL113969  36.361  34.419   9.140
  704POPC   GL213970  36.399  34.765   9.063
  704POPC   C1A13971  36.358  34.451   8.659
  704POPC   D2A13972  36.045  34.515   8.337
  704POPC   C3A13973  36.011  34.278   7.964
  704POPC   C4A13974  35.841  34.443   7.606
  704POPC   C1B13975  36.583  34.902   8.701
  704POPC   C2B13976  36.459  34.817   8.280
  704POPC   C3B13977  36.441  34.579   7.923
  704POPC   C4B13978  36.541  34.862   7.593
  705POPC   NC313979  19.471  31.924   9.581
  705POPC   PO413980  19.992  32.279   9.548
  705POPC   GL113981  19.793  32.072   9.199
  705POPC   GL213982  19.483  32.276   9.192
  705POPC   C1A13983  19.966  32.014   8.786
  705POPC   D2A13984  20.045  32.310   8.440
  705POPC   C3A13985  20.016  32.111   8.060
  705POPC   C4A13986  19.660  31.992   7.866
  705POPC   C1B13987  19.632  32.408   8.799
  705POPC   C2B13988  19.525  32.406   8.389
  705POPC   C3B13989  19.717  32.533   8.008
  705POPC   C4B13990  20.166  32.607   7.979
  706POPC   NC313991  30.533   9.265   9.545
  706POPC   PO413992  30.749  10.015   9.517
  706POPC   GL113993  30.945   9.905   9.112
  706POPC   GL213994  30.846   9.539   9.117
  706POPC   C1A13995  30.834   9.795   8.673
  706POPC   D2A13996  30.874   9.462   8.373
  706POPC   C3A13997  30.780   9.727   8.075
  706POPC   C4A13998  30.698   9.775   7.679
  706POPC   C1B13999  30.523   9.427   8.805
  706POPC   C2B14000  30.364   9.532   8.393
  706POPC   C3B14001  30.369   9.384   7.978
  706POPC   C4B14002  30.424   9.372   7.545
  707POPC   NC314003   6.683  14.456   9.470
  707POPC   PO414004   6.442  15.106   9.556
  707POPC   GL114005   6.458  14.805   9.105
  707POPC   GL214006   6.423  14.410   9.045
  707POPC   C1A14007   6.640  14.614   8.660
  707POPC   D2A14008   7.032  14.411   8.427
  707POPC   C3A14009   6.942  14.280   8.004
  707POPC   C4A14010   6.540  14.483   7.933
  707POPC   C1B14011   6.428  14.148   8.714
  707POPC   C2B14012   6.621  14.108   8.365
  707POPC   C3B14013   6.517  13.966   7.995
  707POPC   C4B14014   6.164  14.119   7.792
  708POPC   NC314015  11.010  18.996   9.442
  708POPC   PO414016  11.655  19.146   9.558
  708POPC   GL114017  11.424  19.153   9.174
  708POPC   GL214018  11.281  18.819   9.057
  708POPC   C1A14019  11.503  19.236   8.748
  708POPC   D2A14020  11.569  19.017   8.358
  708POPC   C3A14021  11.751  19.261   8.058
  708POPC   C4A14022  11.702  19.420   7.655
  708POPC   C1B14023  11.050  18.996   8.694
  708POPC   C2B14024  11.074  18.987   8.268
  708POPC   C3B14025  11.156  19.139   7.871
  708POPC   C4B14026  10.832  19.071   7.483
  709POPC   NC314027   5.396   6.110   9.334
  709POPC   PO414028   5.074   5.675   9.709
  709POPC   GL114029   4.997   5.788   9.220
  709POPC   GL214030   5.276   5.816   8.930
  709POPC   C1A14031   4.877   6.123   8.883
  709POPC   D2A14032   4.763   6.292   8.446
  709POPC   C3A14033   4.899   6.049   8.072
  709POPC   C4A14034   4.893   5.620   7.832
  709POPC   C1B14035   5.603   6.021   8.678
  709POPC   C2B14036   5.746   6.014   8.266
  709POPC   C3B14037   5.550   6.097   7.918
  709POPC   C4B14038   5.207   6.048   7.676
  710POPC   NC314039  36.607  25.807   9.339
  710POPC   PO414040  36.263  26.319   9.681
  710POPC   GL114041  36.215  26.136   9.263
  710POPC   GL214042  36.181  26.370   9.128
  710POPC   C1A14043  36.196  25.888   8.833
  710POPC   D2A14044  36.281  25.734   8.384
  710POPC   C3A14045  36.065  25.890   8.048
  710POPC   C4A14046  35.909  25.986   7.646
  710POPC   C1B14047  36.261  26.398   8.725
  710POPC   C2B14048  35.993  26.220   8.440
  710POPC   C3B14049  35.967  26.378   8.027
  710POPC   C4B14050  36.323  26.319   7.718
  711POPC   NC314051  18.386  37.825   9.507
  711POPC   PO414052  18.094  37.224   9.550
  711POPC   GL114053  18.217  37.457   9.141
  711POPC   GL214054  18.022  37.762   9.072
  711POPC   C1A14055  18.391  37.380   8.686
  711POPC   D2A14056  18.647  37.603   8.380
  711POPC   C3A14057  18.434  37.566   8.019
  711POPC   C4A14058  18.475  37.200   7.790
  711POPC   C1B14059  18.187  38.157   8.941
  711POPC   C2B14060  18.482  38.293   8.617
  711POPC   C3B14061  18.548  38.122   8.188
  711POPC   C4B14062  18.337  38.085   7.780
  712POPC   NC314063  10.386  27.204   9.543
  712POPC   PO414064  10.393  27.871   9.507
  712POPC   GL114065  10.543  27.534   9.161
  712POPC   GL214066  10.888  27.550   9.058
  712POPC   C1A14067  10.573  27.368   8.719
  712POPC   D2A14068  10.459  27.676   8.428
  712POPC   C3A14069  10.547  27.699   8.046
  712POPC   C4A14070  10.338  27.398   7.817
  712POPC   C1B14071  10.858  27.804   8.709
  712POPC   C2B14072  10.937  27.541   8.372
  712POPC   C3B14073  11.057  27.559   7.990
  712POPC   C4B14074  11.002  27.995   7.925
  713POPC   NC314075  32.862  31.188   9.574
  713POPC   PO414076  32.994  30.454   9.689
  713POPC   GL114077  32.988  30.559   9.262
  713POPC   GL214078  33.072  30.897   9.228
  713POPC   C1A14079  33.017  30.556   8.806
  713POPC   D2A14080  32.805  30.441   8.416
  713POPC   C3A14081  32.719  30.301   8.005
  713POPC   C4A14082  32.900  30.408   7.603
  713POPC   C1B14083  32.897  31.066   8.851
  713POPC   C2B14084  33.022  30.954   8.443
  713POPC   C3B14085  32.818  30.809   8.071
  713POPC   C4B14086  32.963  30.920   7.696
  714POPC   NC314087  33.484  26.603   9.677
  714POPC   PO414088  33.005  27.007   9.560
  714POPC   GL114089  33.282  26.904   9.224
  714POPC   GL214090  33.101  26.578   9.250
  714POPC   C1A14091  33.298  27.111   8.778
  714POPC   D2A14092  33.108  27.028   8.322
  714POPC   C3A14093  33.215  26.906   7.859
  714POPC   C4A14094  33.170  26.525   7.579
  714POPC   C1B14095  32.982  26.705   8.826
  714POPC   C2B14096  32.919  26.563   8.396
  714POPC   C3B14097  32.818  26.600   7.961
  714POPC   C4B14098  32.662  26.596   7.535
  715POPC   NC314099   6.646  38.219   9.584
  715POPC   PO414100   6.903  38.913   9.566
  715POPC   GL114101   6.755  38.735   9.154
  715POPC   GL214102   6.643  38.359   9.080
  715POPC   C1A14103   6.748  38.687   8.693
  715POPC   D2A14104   6.910  38.806   8.292
  715POPC   C3A14105   6.742  38.599   7.919
  715POPC   C4A14106   6.714  38.535   7.459
  715POPC   C1B14107   6.863  38.161   8.709
  715POPC   C2B14108   6.967  38.268   8.276
  715POPC   C3B14109   7.005  38.142   7.824
  715POPC   C4B14110   6.694  38.017   7.496
  716POPC   NC314111  30.958  43.141   9.509
  716POPC   PO414112  30.279  43.176   9.537
  716POPC   GL114113  30.550  43.241   9.191
  716POPC   GL214114  30.786  43.523   9.221
  716POPC   C1A14115  30.606  43.023   8.808
  716POPC   D2A14116  30.854  43.034   8.436
  716POPC   C3A14117  30.664  43.006   8.009
  716POPC   C4A14118  30.794  42.805   7.612
  716POPC   C1B14119  31.018  43.316   8.873
  716POPC   C2B14120  31.127  43.462   8.437
  716POPC   C3B14121  31.117  43.253   8.039
  716POPC   C4B14122  31.155  43.303   7.601
  717POPC   NC314123   4.901  16.583   9.558
  717POPC   PO414124   5.471  17.064   9.643
  717POPC   GL114125   5.235  16.870   9.277
  717POPC   GL214126   5.206  16.523   9.159
  717POPC   C1A14127   5.249  16.933   8.830
  717POPC   D2A14128   5.147  17.093   8.432
  717POPC   C3A14129   5.174  16.845   8.071
  717POPC   C4A14130   5.058  16.849   7.664
  717POPC   C1B14131   5.170  16.421   8.752
  717POPC   C2B14132   5.362  16.474   8.392
  717POPC   C3B14133   5.224  16.342   8.048
  717POPC   C4B14134   5.027  16.361   7.692
  718POPC   NC314135  37.862  42.517   9.373
  718POPC   PO414136  37.436  42.081   9.705
  718POPC   GL114137  37.472  42.195   9.252
  718POPC   GL214138  37.349  42.531   9.208
  718POPC   C1A14139  37.531  42.308   8.783
  718POPC   D2A14140  37.870  42.464   8.532
  718POPC   C3A14141  37.922  42.459   8.076
  718POPC   C4A14142  38.129  42.563   7.650
  718POPC   C1B14143  37.472  42.817   8.833
  718POPC   C2B14144  37.417  42.683   8.410
  718POPC   C3B14145  37.534  42.776   8.001
  718POPC   C4B14146  37.622  42.526   7.627
  719POPC   NC314147  18.214  31.117   9.457
  719POPC   PO414148  18.161  31.839   9.440
  719POPC   GL114149  18.333  31.515   9.134
  719POPC   GL214150  18.129  31.321   9.003
  719POPC   C1A14151  18.664  31.418   8.818
  719POPC   D2A14152  18.639  31.417   8.354
  719POPC   C3A14153  18.270  31.627   8.136
  719POPC   C4A14154  17.965  31.461   7.866
  719POPC   C1B14155  18.269  31.164   8.645
  719POPC   C2B14156  18.215  31.128   8.249
  719POPC   C3B14157  18.360  31.157   7.859
  719POPC   C4B14158  18.151  30.989   7.480
  720POPC   NC314159  31.472  30.963   9.526
  720POPC   PO414160  31.151  30.387   9.481
  720POPC   GL114161  31.351  30.595   9.134
  720POPC   GL214162  31.238  30.944   9.095
  720POPC   C1A14163  31.673  30.514   8.798
  720POPC   D2A14164  31.802  30.378   8.379
  720POPC   C3A14165  31.732  30.653   8.042
  720POPC   C4A14166  31.428  30.641   7.731
  720POPC   C1B14167  31.088  31.195   8.784
  720POPC   C2B14168  31.195  31.284   8.397
  720POPC   C3B14169  31.329  31.033   8.072
  720POPC   C4B14170  31.630  31.103   7.778
  721POPC   NC314171   9.500  30.248   9.682
  721POPC   PO414172   9.717  30.906   9.532
  721POPC   GL114173   9.580  30.757   9.144
  721POPC   GL214174   9.461  30.406   9.182
  721POPC   C1A14175   9.801  30.831   8.754
  721POPC   D2A14176   9.793  31.074   8.366
  721POPC   C3A14177   9.865  30.878   7.946
  721POPC   C4A14178   9.884  30.724   7.522
  721POPC   C1B14179   9.550  30.358   8.743
  721POPC   C2B14180   9.629  30.562   8.337
  721POPC   C3B14181   9.448  30.594   7.929
  721POPC   C4B14182   9.611  30.331   7.636
  722POPC   NC314183  35.547  32.059   9.633
  722POPC   PO414184  35.704  32.718   9.531
  722POPC   GL114185  35.626  32.401   9.204
  722POPC   GL214186  35.316  32.283   9.230
  722POPC   C1A14187  35.573  32.180   8.791
  722POPC   D2A14188  35.506  32.004   8.366
  722POPC   C3A14189  35.604  32.274   8.058
  722POPC   C4A14190  35.517  32.387   7.657
  722POPC   C1B14191  35.032  32.153   8.896
  722POPC   C2B14192  34.985  32.083   8.472
  722POPC   C3B14193  35.043  32.173   8.049
  722POPC   C4B14194  35.008  32.196   7.606
  723POPC   NC314195  15.833   6.022   9.603
  723POPC   PO414196  16.446   5.716   9.587
  723POPC   GL114197  16.208   5.873   9.206
  723POPC   GL214198  15.893   5.749   9.183
  723POPC   C1A14199  16.240   5.819   8.718
  723POPC   D2A14200  16.177   6.087   8.352
  723POPC   C3A14201  16.090   5.927   7.980
  723POPC   C4A14202  15.837   6.187   7.753
  723POPC   C1B14203  15.739   5.913   8.830
  723POPC   C2B14204  15.764   5.777   8.448
  723POPC   C3B14205  15.597   5.875   8.103
  723POPC   C4B14206  15.528   5.761   7.712
  724POPC   NC314207  20.316  10.513   9.474
  724POPC   PO414208  20.894  10.834   9.413
  724POPC   GL114209  20.582  10.736   9.110
  724POPC   GL214210  20.668  10.376   9.104
  724POPC   C1A14211  20.518  10.851   8.687
  724POPC   D2A14212  20.702  10.535   8.409
  724POPC   C3A14213  20.801  10.635   7.999
  724POPC   C4A14214  20.449  10.753   7.722
  724POPC   C1B14215  20.352  10.378   8.800
  724POPC   C2B14216  20.273  10.232   8.395
  724POPC   C3B14217  20.419  10.315   7.975
  724POPC   C4B14218  20.260  10.233   7.552
  725POPC   NC314219  31.810   3.254   9.379
  725POPC   PO414220  31.240   2.885   9.426
  725POPC   GL114221  31.546   2.934   9.066
  725POPC   GL214222  31.779   3.192   8.879
  725POPC   C1A14223  31.617   2.759   8.666
  725POPC   D2A14224  31.806   2.812   8.272
  725POPC   C3A14225  31.571   2.587   7.971
  725POPC   C4A14226  31.180   2.584   7.699
  725POPC   C1B14227  31.342   3.249   8.744
  725POPC   C2B14228  31.099   3.077   8.464
  725POPC   C3B14229  31.212   2.935   8.084
  725POPC   C4B14230  31.181   3.125   7.686
  726POPC   NC314231  44.368   8.994   9.503
  726POPC   PO414232  43.747   9.273   9.579
  726POPC   GL114233  43.963   9.063   9.208
  726POPC   GL214234  43.880   8.712   9.183
  726POPC   C1A14235  44.023   9.005   8.761
  726POPC   D2A14236  43.624   8.852   8.562
  726POPC   C3A14237  43.654   8.920   8.140
  726POPC   C4A14238  43.932   8.998   7.800
  726POPC   C1B14239  43.946   8.501   8.763
  726POPC   C2B14240  44.048   8.601   8.331
  726POPC   C3B14241  43.841   8.500   7.929
  726POPC   C4B14242  43.510   8.689   7.700
  727POPC   NC314243  37.367  31.895   9.321
  727POPC   PO414244  37.746  32.247   9.774
  727POPC   GL114245  37.691  32.307   9.303
  727POPC   GL214246  37.792  32.010   9.085
  727POPC   C1A14247  37.759  32.472   8.890
  727POPC   D2A14248  37.776  32.423   8.445
  727POPC   C3A14249  37.612  32.671   8.140
  727POPC   C4A14250  37.624  32.639   7.705
  727POPC   C1B14251  37.508  32.065   8.707
  727POPC   C2B14252  37.643  31.925   8.300
  727POPC   C3B14253  37.816  31.977   7.905
  727POPC   C4B14254  37.574  31.862   7.579
  728POPC   NC314255  33.272  28.128   9.486
  728POPC   PO414256  32.892  28.624   9.717
  728POPC   GL114257  32.966  28.581   9.268
  728POPC   GL214258  32.670  28.632   9.088
  728POPC   C1A14259  33.112  28.372   8.856
  728POPC   D2A14260  33.333  28.124   8.495
  728POPC   C3A14261  33.162  28.236   8.065
  728POPC   C4A14262  32.851  28.125   7.759
  728POPC   C1B14263  32.883  28.835   8.705
  728POPC   C2B14264  32.968  28.706   8.258
  728POPC   C3B14265  32.772  28.590   7.864
  728POPC   C4B14266  32.803  28.603   7.403
  729POPC   NC314267   7.730  36.951   9.400
  729POPC   PO414268   8.401  36.856   9.549
  729POPC   GL114269   8.194  36.847   9.144
  729POPC   GL214270   7.954  36.550   9.145
  729POPC   C1A14271   8.201  37.043   8.693
  729POPC   D2A14272   7.976  37.125   8.264
  729POPC   C3A14273   8.313  37.142   7.967
  729POPC   C4A14274   8.321  37.043   7.536
  729POPC   C1B14275   8.127  36.547   8.744
  729POPC   C2B14276   8.247  36.703   8.323
  729POPC   C3B14277   8.176  36.621   7.903
  729POPC   C4B14278   8.490  36.563   7.621
  730POPC   NC314279  34.847  13.776   9.439
  730POPC   PO414280  34.864  14.464   9.772
  730POPC   GL114281  34.678  14.487   9.332
  730POPC   GL214282  34.915  14.248   9.246
  730POPC   C1A14283  34.594  14.317   8.866
  730POPC   D2A14284  34.728  14.186   8.441
  730POPC   C3A14285  34.567  14.465   8.161
  730POPC   C4A14286  34.303  14.462   7.771
  730POPC   C1B14287  35.063  14.116   8.819
  730POPC   C2B14288  35.220  14.047   8.389
  730POPC   C3B14289  34.982  13.977   8.021
  730POPC   C4B14290  34.802  14.315   7.740
  731POPC   NC314291  42.474  13.931   9.423
  731POPC   PO414292  42.099  13.457   9.450
  731POPC   GL114293  42.211  13.634   9.072
  731POPC   GL214294  42.541  13.505   9.093
  731POPC   C1A14295  42.102  13.824   8.654
  731POPC   D2A14296  42.198  13.662   8.209
  731POPC   C3A14297  42.303  13.927   7.823
  731POPC   C4A14298  42.557  13.931   7.386
  731POPC   C1B14299  42.460  13.455   8.637
  731POPC   C2B14300  42.619  13.348   8.209
  731POPC   C3B14301  42.631  13.543   7.770
  731POPC   C4B14302  42.823  13.512   7.342
  732POPC   NC314303  39.553  30.877   9.426
  732POPC   PO414304  38.960  31.208   9.211
  732POPC   GL114305  39.148  30.869   9.047
  732POPC   GL214306  39.194  30.591   9.226
  732POPC   C1A14307  39.316  30.881   8.643
  732POPC   D2A14308  39.043  30.716   8.352
  732POPC   C3A14309  39.172  30.717   7.977
  732POPC   C4A14310  39.022  30.617   7.581
  732POPC   C1B14311  39.145  30.408   8.816
  732POPC   C2B14312  39.076  30.209   8.423
  732POPC   C3B14313  38.967  30.263   7.988
  732POPC   C4B14314  39.345  30.269   7.715
  733POPC   NC314315  24.125  41.178   9.667
  733POPC   PO414316  24.280  41.779   9.553
  733POPC   GL114317  24.350  41.775   9.105
  733POPC   GL214318  24.553  41.486   9.052
  733POPC   C1A14319  24.507  41.840   8.672
  733POPC   D2A14320  24.470  41.577   8.301
  733POPC   C3A14321  24.515  41.754   7.897
  733POPC   C4A14322  24.682  41.787   7.478
  733POPC   C1B14323  24.765  41.338   8.662
  733POPC   C2B14324  24.859  41.237   8.206
  733POPC   C3B14325  24.816  41.354   7.758
  733POPC   C4B14326  24.803  41.328   7.285
  734POPC   NC314327  38.082   1.972   9.851
  734POPC   PO414328  37.584   1.775   9.419
  734POPC   GL114329  37.601   1.923   9.031
  734POPC   GL214330  37.762   2.239   8.940
  734POPC   C1A14331  37.484   1.818   8.659
  734POPC   D2A14332  37.539   2.074   8.338
  734POPC   C3A14333  37.461   1.778   8.021
  734POPC   C4A14334  37.127   1.794   7.729
  734POPC   C1B14335  37.986   1.970   8.685
  734POPC   C2B14336  37.933   1.752   8.306
  734POPC   C3B14337  37.924   2.015   7.954
  734POPC   C4B14338  37.597   2.120   7.674
  735POPC   NC314339  28.102  30.913   9.551
  735POPC   PO414340  28.745  30.564   9.674
  735POPC   GL114341  28.506  30.637   9.235
  735POPC   GL214342  28.179  30.671   9.128
  735POPC   C1A14343  28.472  30.564   8.739
  735POPC   D2A14344  28.616  30.440   8.332
  735POPC   C3A14345  28.525  30.474   7.905
  735POPC   C4A14346  28.707  30.127   7.645
  735POPC   C1B14347  27.965  30.672   8.752
  735POPC   C2B14348  28.131  30.645   8.347
  735POPC   C3B14349  27.996  30.561   7.983
  735POPC   C4B14350  28.104  30.690   7.595
  736POPC   NC314351  35.147  29.057   9.636
  736POPC   PO414352  35.553  29.512   9.455
  736POPC   GL114353  35.358  29.242   9.160
  736POPC   GL214354  35.450  28.885   9.211
  736POPC   C1A14355  35.289  29.324   8.721
  736POPC   D2A14356  35.396  29.290   8.294
  736POPC   C3A14357  35.219  29.351   7.890
  736POPC   C4A14358  35.551  29.323   7.529
  736POPC   C1B14359  35.088  28.894   8.899
  736POPC   C2B14360  35.114  28.872   8.428
  736POPC   C3B14361  35.318  28.844   7.998
  736POPC   C4B14362  35.211  28.958   7.565
  737POPC   NC314363  23.126   7.441   9.411
  737POPC   PO414364  22.463   7.148   9.412
  737POPC   GL114365  22.803   7.129   9.087
  737POPC   GL214366  22.751   7.442   9.016
  737POPC   C1A14367  22.962   7.240   8.622
  737POPC   D2A14368  22.746   7.462   8.260
  737POPC   C3A14369  22.938   7.284   7.903
  737POPC   C4A14370  23.348   7.336   7.870
  737POPC   C1B14371  22.859   7.733   8.708
  737POPC   C2B14372  23.127   7.859   8.357
  737POPC   C3B14373  23.029   7.790   7.941
  737POPC   C4B14374  22.942   7.624   7.536
  738POPC   NC314375  37.333  15.396   9.356
  738POPC   PO414376  37.828  15.071   9.708
  738POPC   GL114377  37.907  15.266   9.202
  738POPC   GL214378  37.710  15.539   9.048
  738POPC   C1A14379  37.773  15.153   8.723
  738POPC   D2A14380  37.798  15.452   8.355
  738POPC   C3A14381  37.905  15.314   7.916
  738POPC   C4A14382  37.670  15.149   7.553
  738POPC   C1B14383  37.360  15.435   8.710
  738POPC   C2B14384  37.295  15.591   8.319
  738POPC   C3B14385  37.411  15.420   7.929
  738POPC   C4B14386  37.508  15.630   7.550
  739POPC   NC314387  12.687  35.694   9.527
  739POPC   PO414388  12.872  36.299   9.532
  739POPC   GL114389  13.012  36.241   9.129
  739POPC   GL214390  13.024  35.890   9.178
  739POPC   C1A14391  12.819  36.398   8.760
  739POPC   D2A14392  12.509  36.217   8.517
  739POPC   C3A14393  12.651  36.345   8.150
  739POPC   C4A14394  12.633  36.355   7.720
  739POPC   C1B14395  12.790  35.886   8.797
  739POPC   C2B14396  12.933  35.936   8.356
  739POPC   C3B14397  12.748  35.890   7.954
  739POPC   C4B14398  12.888  35.901   7.546
  740POPC   NC314399  21.198  10.882   9.766
  740POPC   PO414400  21.456  11.487   9.407
  740POPC   GL114401  21.417  11.497   9.015
  740POPC   GL214402  21.676  11.247   8.999
  740POPC   C1A14403  21.279  11.316   8.638
  740POPC   D2A14404  21.186  11.612   8.320
  740POPC   C3A14405  21.154  11.437   7.905
  740POPC   C4A14406  20.947  11.465   7.490
  740POPC   C1B14407  21.731  11.076   8.587
  740POPC   C2B14408  21.505  11.167   8.202
  740POPC   C3B14409  21.657  11.406   7.874
  740POPC   C4B14410  21.947  11.300   7.531
  741POPC   NC314411  40.410   2.126   9.294
  741POPC   PO414412  39.770   2.140   9.507
  741POPC   GL114413  39.917   2.227   9.094
  741POPC   GL214414  39.592   2.206   8.939
  741POPC   C1A14415  40.156   2.207   8.679
  741POPC   D2A14416  39.948   2.204   8.270
  741POPC   C3A14417  40.222   2.212   7.917
  741POPC   C4A14418  40.215   2.246   7.489
  741POPC   C1B14419  39.762   1.889   8.668
  741POPC   C2B14420  40.096   1.690   8.431
  741POPC   C3B14421  39.998   1.738   8.024
  741POPC   C4B14422  39.787   1.977   7.703
  742POPC   NC314423  44.927   7.333   9.433
  742POPC   PO414424  44.516   7.734   9.725
  742POPC   GL114425  44.511   7.637   9.230
  742POPC   GL214426  44.497   7.308   9.131
  742POPC   C1A14427  44.632   7.647   8.778
  742POPC   D2A14428  44.462   7.448   8.413
  742POPC   C3A14429  44.689   7.453   8.010
  742POPC   C4A14430  44.837   7.117   7.746
  742POPC   C1B14431  44.263   7.116   8.817
  742POPC   C2B14432  44.350   6.953   8.459
  742POPC   C3B14433  44.225   7.121   8.079
  742POPC   C4B14434  44.310   7.043   7.673
  743POPC   NC314435   8.930   8.245   9.557
  743POPC   PO414436   9.128   7.629   9.496
  743POPC   GL114437   9.152   7.897   9.171
  743POPC   GL214438   8.802   7.932   9.148
  743POPC   C1A14439   9.237   7.913   8.742
  743POPC   D2A14440   8.995   7.815   8.381
  743POPC   C3A14441   8.921   7.933   7.959
  743POPC   C4A14442   9.240   8.134   7.718
  743POPC   C1B14443   8.764   8.146   8.745
  743POPC   C2B14444   8.552   8.405   8.439
  743POPC   C3B14445   8.573   8.567   7.998
  743POPC   C4B14446   8.660   8.302   7.641
  744POPC   NC314447  11.784   7.288   9.602
  744POPC   PO414448  12.297   7.598   9.440
  744POPC   GL114449  12.057   7.307   9.128
  744POPC   GL214450  11.872   6.985   9.197
  744POPC   C1A14451  12.208   7.007   8.782
  744POPC   D2A14452  12.366   7.015   8.344
  744POPC   C3A14453  12.351   7.446   8.191
  744POPC   C4A14454  12.210   7.556   7.790
  744POPC   C1B14455  11.704   7.111   8.798
  744POPC   C2B14456  11.904   7.300   8.438
  744POPC   C3B14457  11.949   7.165   8.026
  744POPC   C4B14458  11.809   7.266   7.639
  745POPC   NC314459  32.651  33.848   9.546
  745POPC   PO414460  32.058  33.566   9.368
  745POPC   GL114461  32.321  33.818   9.151
  745POPC   GL214462  32.560  33.556   9.142
  745POPC   C1A14463  32.358  33.945   8.744
  745POPC   D2A14464  32.417  33.781   8.335
  745POPC   C3A14465  32.137  33.945   8.035
  745POPC   C4A14466  32.324  34.126   7.757
  745POPC   C1B14467  32.591  33.451   8.718
  745POPC   C2B14468  32.472  33.243   8.333
  745POPC   C3B14469  32.164  33.427   8.042
  745POPC   C4B14470  32.223  33.629   7.626
  746POPC   NC314471  26.842  29.827   9.619
  746POPC   PO414472  26.250  29.640   9.331
  746POPC   GL114473  26.692  29.774   9.138
  746POPC   GL214474  26.809  30.142   9.188
  746POPC   C1A14475  26.984  29.788   8.806
  746POPC   D2A14476  26.849  29.588   8.450
  746POPC   C3A14477  26.752  29.869   8.139
  746POPC   C4A14478  26.956  29.721   7.770
  746POPC   C1B14479  27.022  30.300   8.802
  746POPC   C2B14480  27.150  30.121   8.395
  746POPC   C3B14481  27.052  30.245   7.987
  746POPC   C4B14482  26.848  30.208   7.655
  747POPC   NC314483  18.020  28.615   9.480
  747POPC   PO414484  18.557  28.279   9.721
  747POPC   GL114485  18.397  28.248   9.292
  747POPC   GL214486  18.597  28.038   9.101
  747POPC   C1A14487  18.218  28.384   8.867
  747POPC   D2A14488  18.011  28.228   8.503
  747POPC   C3A14489  18.221  28.292   8.126
  747POPC   C4A14490  18.025  28.192   7.763
  747POPC   C1B14491  18.715  28.399   8.892
  747POPC   C2B14492  18.585  28.377   8.496
  747POPC   C3B14493  18.717  28.274   8.105
  747POPC   C4B14494  18.543  28.075   7.735
  748POPC   NC314495  32.098   1.956   9.676
  748POPC   PO414496  32.547   2.051   9.272
  748POPC   GL114497  32.229   2.099   9.009
  748POPC   GL214498  31.986   2.252   9.245
  748POPC   C1A14499  32.237   2.117   8.559
  748POPC   D2A14500  32.599   2.060   8.272
  748POPC   C3A14501  32.446   2.157   7.881
  748POPC   C4A14502  32.296   1.805   7.743
  748POPC   C1B14503  31.802   2.313   8.839
  748POPC   C2B14504  31.739   2.289   8.402
  748POPC   C3B14505  31.883   2.012   8.086
  748POPC   C4B14506  31.969   2.180   7.689
  749POPC   NC314507  26.163   1.754   9.683
  749POPC   PO414508  26.280   2.416   9.611
  749POPC   GL114509  26.130   2.061   9.278
  749POPC   GL214510  25.979   1.713   9.210
  749POPC   C1A14511  26.189   1.976   8.840
  749POPC   D2A14512  26.377   2.103   8.467
  749POPC   C3A14513  26.131   2.252   8.115
  749POPC   C4A14514  26.284   2.293   7.672
  749POPC   C1B14515  25.743   1.679   8.800
  749POPC   C2B14516  25.885   1.844   8.409
  749POPC   C3B14517  25.812   1.662   8.008
  749POPC   C4B14518  25.882   1.992   7.717
  750POPC   NC314519  36.094  32.610   9.292
  750POPC   PO414520  35.936  31.945   9.426
  750POPC   GL114521  36.055  32.146   9.085
  750POPC   GL214522  36.402  32.172   9.164
  750POPC   C1A14523  36.088  32.323   8.698
  750POPC   D2A14524  36.320  32.431   8.346
  750POPC   C3A14525  36.094  32.401   8.013
  750POPC   C4A14526  35.973  32.199   7.681
  750POPC   C1B14527  36.444  31.933   8.781
  750POPC   C2B14528  36.548  31.943   8.357
  750POPC   C3B14529  36.405  32.003   7.942
  750POPC   C4B14530  36.345  31.922   7.501
  751POPC   NC314531   5.607  19.697   9.410
  751POPC   PO414532   6.201  20.122   9.496
  751POPC   GL114533   5.969  20.021   9.155
  751POPC   GL214534   6.060  19.657   9.178
  751POPC   C1A14535   5.869  20.064   8.716
  751POPC   D2A14536   5.639  19.783   8.475
  751POPC   C3A14537   5.659  19.697   8.076
  751POPC   C4A14538   5.560  19.565   7.658
  751POPC   C1B14539   6.066  19.578   8.728
  751POPC   C2B14540   6.142  19.634   8.279
  751POPC   C3B14541   6.017  19.437   7.849
  751POPC   C4B14542   6.116  19.524   7.413
  752POPC   NC314543   7.007  18.227   9.324
  752POPC   PO414544   7.598  17.938   9.560
  752POPC   GL114545   7.564  18.096   9.179
  752POPC   GL214546   7.438  18.393   9.062
  752POPC   C1A14547   7.459  17.947   8.779
  752POPC   D2A14548   7.242  17.981   8.402
  752POPC   C3A14549   7.523  18.094   8.110
  752POPC   C4A14550   7.350  18.174   7.725
  752POPC   C1B14551   7.291  18.436   8.625
  752POPC   C2B14552   7.224  18.493   8.180
  752POPC   C3B14553   7.212  18.680   7.781
  752POPC   C4B14554   7.187  18.572   7.359
  753POPC   NC314555  40.158  26.368   9.493
  753POPC   PO414556  39.621  25.905   9.598
  753POPC   GL114557  39.764  25.786   9.151
  753POPC   GL214558  40.142  25.843   9.115
  753POPC   C1A14559  39.846  26.028   8.777
  753POPC   D2A14560  40.026  25.921   8.371
  753POPC   C3A14561  39.764  26.167   8.129
  753POPC   C4A14562  39.685  26.057   7.716
  753POPC   C1B14563  40.351  26.073   8.740
  753POPC   C2B14564  40.520  26.041   8.325
  753POPC   C3B14565  40.468  26.183   7.925
  753POPC   C4B14566  40.107  26.362   7.799
  754POPC   NC314567   8.051  42.263   9.510
  754POPC   PO414568   8.678  42.462   9.458
  754POPC   GL114569   8.511  42.162   9.160
  754POPC   GL214570   8.301  42.438   9.090
  754POPC   C1A14571   8.357  42.091   8.728
  754POPC   D2A14572   8.156  42.388   8.436
  754POPC   C3A14573   7.986  42.260   8.050
  754POPC   C4A14574   8.000  42.334   7.604
  754POPC   C1B14575   8.558  42.564   8.749
  754POPC   C2B14576   8.652  42.453   8.320
  754POPC   C3B14577   8.468  42.390   7.865
  754POPC   C4B14578   8.415  42.513   7.389
  755POPC   NC314579  25.800   7.613   9.367
  755POPC   PO414580  26.217   7.102   9.359
  755POPC   GL114581  26.151   7.200   8.985
  755POPC   GL214582  26.138   7.530   8.960
  755POPC   C1A14583  26.250   7.206   8.563
  755POPC   D2A14584  25.960   7.182   8.236
  755POPC   C3A14585  26.133   7.102   7.859
  755POPC   C4A14586  26.358   7.322   7.599
  755POPC   C1B14587  25.779   7.424   8.669
  755POPC   C2B14588  25.661   7.588   8.239
  755POPC   C3B14589  25.940   7.586   7.842
  755POPC   C4B14590  26.328   7.808   7.681
  756POPC   NC314591  10.779  16.870   9.838
  756POPC   PO414592  10.420  16.375   9.579
  756POPC   GL114593  10.618  16.557   9.201
  756POPC   GL214594  10.545  16.881   8.996
  756POPC   C1A14595  10.872  16.532   8.832
  756POPC   D2A14596  10.764  16.830   8.519
  756POPC   C3A14597  10.765  16.739   8.098
  756POPC   C4A14598  10.636  16.422   7.775
  756POPC   C1B14599  10.291  16.669   8.725
  756POPC   C2B14600  10.087  16.604   8.354
  756POPC   C3B14601  10.094  16.805   8.006
  756POPC   C4B14602  10.394  16.877   7.784
  757POPC   NC314603  42.018   1.218   9.372
  757POPC   PO414604  42.422   0.779   9.652
  757POPC   GL114605  42.341   0.907   9.151
  757POPC   GL214606  42.409   1.277   9.052
  757POPC   C1A14607  42.538   0.974   8.690
  757POPC   D2A14608  42.292   1.126   8.336
  757POPC   C3A14609  42.523   1.174   7.939
  757POPC   C4A14610  42.311   1.108   7.547
  757POPC   C1B14611  42.277   1.521   8.710
  757POPC   C2B14612  42.431   1.614   8.300
  757POPC   C3B14613  42.310   1.635   7.850
  757POPC   C4B14614  42.237   1.608   7.406
  758POPC   NC314615   7.153   9.334   9.324
  758POPC   PO414616   7.689   9.747   9.423
  758POPC   GL114617   7.501   9.975   9.118
  758POPC   GL214618   7.379   9.666   8.980
  758POPC   C1A14619   7.599  10.046   8.711
  758POPC   D2A14620   7.565   9.690   8.452
  758POPC   C3A14621   7.774   9.772   8.109
  758POPC   C4A14622   7.644   9.743   7.686
  758POPC   C1B14623   7.176   9.398   8.665
  758POPC   C2B14624   7.146   9.310   8.256
  758POPC   C3B14625   7.233   9.650   8.015
  758POPC   C4B14626   7.139   9.680   7.585
  759POPC   NC314627  22.038  36.421   9.455
  759POPC   PO414628  21.967  35.761   9.612
  759POPC   GL114629  21.981  35.946   9.226
  759POPC   GL214630  21.712  36.138   9.105
  759POPC   C1A14631  21.980  35.768   8.817
  759POPC   D2A14632  21.783  35.688   8.437
  759POPC   C3A14633  21.946  35.898   8.070
  759POPC   C4A14634  22.368  36.021   7.900
  759POPC   C1B14635  21.725  36.203   8.661
  759POPC   C2B14636  21.596  36.448   8.296
  759POPC   C3B14637  21.923  36.602   7.988
  759POPC   C4B14638  22.339  36.588   7.751
  760POPC   NC314639  17.799  20.099   9.582
  760POPC   PO414640  17.915  19.480   9.571
  760POPC   GL114641  17.709  19.728   9.222
  760POPC   GL214642  17.828  20.010   9.082
  760POPC   C1A14643  17.411  19.792   8.851
  760POPC   D2A14644  17.433  19.868   8.375
  760POPC   C3A14645  17.155  19.970   7.997
  760POPC   C4A14646  17.012  19.921   7.559
  760POPC   C1B14647  17.834  20.004   8.667
  760POPC   C2B14648  17.833  20.180   8.312
  760POPC   C3B14649  17.696  19.995   7.957
  760POPC   C4B14650  17.919  19.757   7.666
  761POPC   NC314651  18.212  43.221   9.622
  761POPC   PO414652  17.917  42.700   9.347
  761POPC   GL114653  18.041  43.115   9.141
  761POPC   GL214654  18.341  43.342   9.152
  761POPC   C1A14655  18.082  43.286   8.705
  761POPC   D2A14656  18.149  43.164   8.258
  761POPC   C3A14657  18.011  43.448   7.940
  761POPC   C4A14658  18.092  43.469   7.496
  761POPC   C1B14659  18.524  43.525   8.774
  761POPC   C2B14660  18.447  43.575   8.319
  761POPC   C3B14661  18.509  43.413   7.870
  761POPC   C4B14662  18.790  43.347   7.485
  762POPC   NC314663  36.692  18.740   9.517
  762POPC   PO414664  37.209  19.175   9.413
  762POPC   GL114665  37.095  19.165   9.022
  762POPC   GL214666  36.779  19.097   9.059
  762POPC   C1A14667  37.118  18.919   8.652
  762POPC   D2A14668  37.387  18.888   8.326
  762POPC   C3A14669  37.211  19.086   8.000
  762POPC   C4A14670  37.062  18.873   7.662
  762POPC   C1B14671  36.667  19.147   8.672
  762POPC   C2B14672  36.643  19.004   8.294
  762POPC   C3B14673  36.706  19.164   7.903
  762POPC   C4B14674  36.572  18.990   7.536
  763POPC   NC314675  30.371  13.054   9.277
  763POPC   PO414676  30.276  13.629   9.486
  763POPC   GL114677  30.086  13.746   9.082
  763POPC   GL214678  29.719  13.749   9.151
  763POPC   C1A14679  30.076  13.873   8.654
  763POPC   D2A14680  30.045  13.553   8.321
  763POPC   C3A14681  29.961  13.686   7.946
  763POPC   C4A14682  30.276  13.732   7.689
  763POPC   C1B14683  29.569  13.967   8.754
  763POPC   C2B14684  29.671  13.970   8.305
  763POPC   C3B14685  29.453  13.775   7.940
  763POPC   C4B14686  29.641  13.634   7.548
  764POPC   NC314687  11.470  15.757   9.454
  764POPC   PO414688  11.416  16.443   9.525
  764POPC   GL114689  11.356  16.171   9.104
  764POPC   GL214690  11.335  15.784   8.961
  764POPC   C1A14691  11.205  16.168   8.659
  764POPC   D2A14692  11.164  15.851   8.320
  764POPC   C3A14693  11.291  15.991   7.924
  764POPC   C4A14694  11.410  15.836   7.517
  764POPC   C1B14695  10.897  15.739   8.750
  764POPC   C2B14696  10.632  15.854   8.399
  764POPC   C3B14697  10.745  15.894   7.964
  764POPC   C4B14698  11.006  15.609   7.732
  765POPC   NC314699  37.165  40.063   9.575
  765POPC   PO414700  37.832  40.010   9.548
  765POPC   GL114701  37.858  39.841   9.140
  765POPC   GL214702  37.551  39.672   9.121
  765POPC   C1A14703  37.913  39.992   8.689
  765POPC   D2A14704  38.009  40.088   8.230
  765POPC   C3A14705  37.772  39.953   7.851
  765POPC   C4A14706  37.564  40.164   7.474
  765POPC   C1B14707  37.465  39.709   8.672
  765POPC   C2B14708  37.426  39.807   8.233
  765POPC   C3B14709  37.243  39.687   7.864
  765POPC   C4B14710  37.131  39.890   7.474
  766POPC   NC314711  40.064  13.076   9.365
  766POPC   PO414712  40.720  12.967   9.551
  766POPC   GL114713  40.933  13.029   9.168
  766POPC   GL214714  40.827  12.691   9.103
  766POPC   C1A14715  41.030  12.979   8.720
  766POPC   D2A14716  40.797  13.001   8.331
  766POPC   C3A14717  41.010  13.025   7.943
  766POPC   C4A14718  41.168  12.716   7.672
  766POPC   C1B14719  40.690  12.530   8.730
  766POPC   C2B14720  40.519  12.577   8.333
  766POPC   C3B14721  40.722  12.604   7.937
  766POPC   C4B14722  40.698  12.790   7.524
  767POPC   NC314723  16.101  29.837   9.388
  767POPC   PO414724  15.542  30.279   9.266
  767POPC   GL114725  15.789  29.961   9.016
  767POPC   GL214726  15.726  29.584   9.149
  767POPC   C1A14727  15.931  30.025   8.594
  767POPC   D2A14728  16.027  30.346   8.259
  767POPC   C3A14729  16.158  30.166   7.843
  767POPC   C4A14730  16.165  29.897   7.430
  767POPC   C1B14731  15.899  29.455   8.749
  767POPC   C2B14732  16.030  29.537   8.320
  767POPC   C3B14733  15.852  29.604   7.897
  767POPC   C4B14734  15.845  29.514   7.438
  768POPC   NC314735  28.960  18.860   9.444
  768POPC   PO414736  29.550  19.217   9.325
  768POPC   GL114737  29.287  18.923   9.063
  768POPC   GL214738  29.026  19.143   9.015
  768POPC   C1A14739  29.021  18.744   8.708
  768POPC   D2A14740  28.921  18.880   8.277
  768POPC   C3A14741  29.256  18.900   7.951
  768POPC   C4A14742  29.169  18.858   7.486
  768POPC   C1B14743  28.947  19.304   8.593
  768POPC   C2B14744  29.101  19.382   8.153
  768POPC   C3B14745  28.991  19.267   7.715
  768POPC   C4B14746  28.826  19.233   7.259
  769POPC   NC314747  31.795  29.970   9.574
  769POPC   PO414748  31.250  29.670   9.820
  769POPC   GL114749  31.334  29.677   9.333
  769POPC   GL214750  31.414  30.026   9.219
  769POPC   C1A14751  31.363  29.697   8.843
  769POPC   D2A14752  31.547  29.571   8.464
  769POPC   C3A14753  31.406  29.664   8.073
  769POPC   C4A14754  31.458  29.684   7.653
  769POPC   C1B14755  31.267  30.190   8.807
  769POPC   C2B14756  31.393  30.061   8.384
  769POPC   C3B14757  31.570  30.139   7.939
  769POPC   C4B14758  31.410  30.194   7.506
  770POPC   NC314759  13.295  11.158   9.514
  770POPC   PO414760  13.976  11.081   9.382
  770POPC   GL114761  13.816  11.287   9.037
  770POPC   GL214762  13.444  11.271   9.032
  770POPC   C1A14763  13.909  10.993   8.695
  770POPC   D2A14764  13.683  10.790   8.405
  770POPC   C3A14765  13.599  11.046   8.074
  770POPC   C4A14766  13.840  11.178   7.738
  770POPC   C1B14767  13.500  11.273   8.578
  770POPC   C2B14768  13.588  11.543   8.228
  770POPC   C3B14769  13.524  11.665   7.790
  770POPC   C4B14770  13.273  11.622   7.356
  771POPC   NC314771  10.686   9.138   9.712
  771POPC   PO414772  10.231   8.684   9.696
  771POPC   GL114773  10.330   9.017   9.324
  771POPC   GL214774  10.700   9.114   9.199
  771POPC   C1A14775  10.298   9.185   8.872
  771POPC   D2A14776  10.423   8.978   8.483
  771POPC   C3A14777  10.175   8.911   8.094
  771POPC   C4A14778  10.367   8.768   7.710
  771POPC   C1B14779  10.799   9.328   8.798
  771POPC   C2B14780  10.919   9.194   8.384
  771POPC   C3B14781  10.675   9.076   8.024
  771POPC   C4B14782  10.433   9.267   7.672
  772POPC   NC314783  21.957  30.397   9.313
  772POPC   PO414784  22.279  31.021   9.493
  772POPC   GL114785  22.333  30.745   9.050
  772POPC   GL214786  22.120  30.929   8.769
  772POPC   C1A14787  22.383  30.547   8.602
  772POPC   D2A14788  22.110  30.730   8.251
  772POPC   C3A14789  22.363  30.687   7.929
  772POPC   C4A14790  22.716  30.380   7.960
  772POPC   C1B14791  21.876  30.513   8.644
  772POPC   C2B14792  21.855  30.224   8.295
  772POPC   C3B14793  21.962  30.352   7.894
  772POPC   C4B14794  21.815  30.623   7.579
  773POPC   NC314795  17.302   2.850   9.475
  773POPC   PO414796  17.915   3.118   9.527
  773POPC   GL114797  17.704   2.933   9.170
  773POPC   GL214798  17.672   2.557   9.170
  773POPC   C1A14799  17.621   2.981   8.746
  773POPC   D2A14800  17.728   2.896   8.314
  773POPC   C3A14801  17.360   2.963   8.046
  773POPC   C4A14802  17.237   2.863   7.610
  773POPC   C1B14803  17.454   2.498   8.729
  773POPC   C2B14804  17.430   2.470   8.252
  773POPC   C3B14805  17.660   2.558   7.876
  773POPC   C4B14806  17.583   2.512   7.448
  774POPC   NC314807  20.788   1.805   9.516
  774POPC   PO414808  20.139   1.990   9.660
  774POPC   GL114809  20.350   2.035   9.212
  774POPC   GL214810  20.335   2.399   9.104
  774POPC   C1A14811  20.631   1.840   8.843
  774POPC   D2A14812  20.737   1.959   8.391
  774POPC   C3A14813  20.644   1.734   7.995
  774POPC   C4A14814  20.578   1.858   7.559
  774POPC   C1B14815  20.536   2.354   8.687
  774POPC   C2B14816  20.587   2.421   8.225
  774POPC   C3B14817  20.790   2.222   7.879
  774POPC   C4B14818  20.842   2.275   7.409
  775POPC   NC314819  35.323  14.505   9.597
  775POPC   PO414820  35.290  13.881   9.386
  775POPC   GL114821  35.408  14.289   9.130
  775POPC   GL214822  35.217  14.645   9.091
  775POPC   C1A14823  35.478  14.400   8.716
  775POPC   D2A14824  35.699  14.312   8.375
  775POPC   C3A14825  35.541  14.348   7.986
  775POPC   C4A14826  35.293  14.169   7.678
  775POPC   C1B14827  34.997  14.591   8.647
  775POPC   C2B14828  35.080  14.514   8.184
  775POPC   C3B14829  35.176  14.641   7.753
  775POPC   C4B14830  35.238  14.943   7.459
  776POPC   NC314831  19.983  25.809   9.527
  776POPC   PO414832  19.376  25.992   9.698
  776POPC   GL114833  19.668  26.018   9.201
  776POPC   GL214834  19.765  26.351   9.107
  776POPC   C1A14835  19.644  26.111   8.676
  776POPC   D2A14836  19.801  25.925   8.239
  776POPC   C3A14837  19.763  25.933   7.754
  776POPC   C4A14838  19.583  25.716   7.328
  776POPC   C1B14839  20.090  26.463   8.828
  776POPC   C2B14840  20.133  26.279   8.414
  776POPC   C3B14841  20.023  26.341   7.966
  776POPC   C4B14842  20.149  26.456   7.511
  777POPC   NC314843  37.437   3.871   9.499
  777POPC   PO414844  37.687   3.279   9.574
  777POPC   GL114845  37.718   3.529   9.192
  777POPC   GL214846  37.403   3.594   9.070
  777POPC   C1A14847  37.849   3.646   8.741
  777POPC   D2A14848  37.856   3.419   8.339
  777POPC   C3A14849  38.002   3.537   7.956
  777POPC   C4A14850  37.745   3.629   7.592
  777POPC   C1B14851  37.385   3.877   8.745
  777POPC   C2B14852  37.490   3.842   8.306
  777POPC   C3B14853  37.251   3.921   7.947
  777POPC   C4B14854  37.292   3.899   7.525
  778POPC   NC314855  16.521   2.933   9.507
  778POPC   PO414856  16.925   2.417   9.512
  778POPC   GL114857  16.985   2.620   9.148
  778POPC   GL214858  16.654   2.679   9.094
  778POPC   C1A14859  17.009   2.781   8.738
  778POPC   D2A14860  16.691   2.761   8.401
  778POPC   C3A14861  16.882   2.767   7.996
  778POPC   C4A14862  16.807   2.600   7.597
  778POPC   C1B14863  16.567   3.041   8.826
  778POPC   C2B14864  16.272   3.085   8.525
  778POPC   C3B14865  16.280   3.064   8.092
  778POPC   C4B14866  16.472   2.967   7.703
  779POPC   NC314867  28.605  42.117   9.664
  779POPC   PO414868  28.087  42.508   9.737
  779POPC   GL114869  28.228  42.319   9.319
  779POPC   GL214870  28.577  42.369   9.226
  779POPC   C1A14871  28.148  42.373   8.832
  779POPC   D2A14872  27.993  42.436   8.366
  779POPC   C3A14873  28.277  42.360   7.967
  779POPC   C4A14874  28.529  42.521   7.595
  779POPC   C1B14875  28.622  42.169   8.829
  779POPC   C2B14876  28.554  42.333   8.408
  779POPC   C3B14877  28.791  42.356   8.018
  779POPC   C4B14878  28.836  42.116   7.641
  780POPC   NC314879  15.571  17.491   9.689
  780POPC   PO414880  16.112  17.800   9.749
  780POPC   GL114881  15.876  17.628   9.293
  780POPC   GL214882  15.638  17.310   9.204
  780POPC   C1A14883  15.757  17.644   8.798
  780POPC   D2A14884  15.761  17.454   8.349
  780POPC   C3A14885  15.986  17.503   7.959
  780POPC   C4A14886  16.090  17.873   7.717
  780POPC   C1B14887  15.663  17.141   8.744
  780POPC   C2B14888  15.519  17.037   8.252
  780POPC   C3B14889  15.712  17.075   7.843
  780POPC   C4B14890  16.001  17.076   7.474
  781POPC   NC314891  27.650  43.866   9.543
  781POPC   PO414892  26.935  43.773   9.316
  781POPC   GL114893  27.291  43.660   9.013
  781POPC   GL214894  27.660  43.741   9.044
  781POPC   C1A14895  27.413  43.620   8.567
  781POPC   D2A14896  27.528  43.988   8.314
  781POPC   C3A14897  27.550  43.957   7.876
  781POPC   C4A14898  27.409  43.704   7.517
  781POPC   C1B14899  27.514  44.093   8.808
  781POPC   C2B14900  27.357  44.426   8.510
  781POPC   C3B14901  27.218  44.382   8.052
  781POPC   C4B14902  27.310  44.316   7.631
  782POPC   NC314903  42.787   6.358   9.497
  782POPC   PO414904  43.137   5.703   9.544
  782POPC   GL114905  43.230   5.731   9.136
  782POPC   GL214906  43.180   6.096   9.169
  782POPC   C1A14907  43.330   5.888   8.712
  782POPC   D2A14908  43.078   5.742   8.372
  782POPC   C3A14909  43.260   5.622   7.942
  782POPC   C4A14910  43.244   5.795   7.494
  782POPC   C1B14911  42.884   6.117   8.823
  782POPC   C2B14912  43.001   6.255   8.409
  782POPC   C3B14913  43.271   6.119   8.081
  782POPC   C4B14914  43.009   6.186   7.727
  783POPC   NC314915  27.424   7.086   9.397
  783POPC   PO414916  27.564   6.389   9.372
  783POPC   GL114917  27.517   6.674   9.107
  783POPC   GL214918  27.881   6.774   9.132
  783POPC   C1A14919  27.262   6.690   8.754
  783POPC   D2A14920  27.353   6.879   8.395
  783POPC   C3A14921  27.514   6.582   8.114
  783POPC   C4A14922  27.335   6.638   7.740
  783POPC   C1B14923  27.743   6.933   8.737
  783POPC   C2B14924  27.873   6.905   8.315
  783POPC   C3B14925  27.736   6.989   7.863
  783POPC   C4B14926  27.968   6.939   7.443
  784POPC   NC314927  14.849   4.209   9.480
  784POPC   PO414928  14.208   3.995   9.453
  784POPC   GL114929  14.307   4.289   9.115
  784POPC   GL214930  14.504   4.597   9.216
  784POPC   C1A14931  14.383   4.095   8.709
  784POPC   D2A14932  14.119   3.856   8.401
  784POPC   C3A14933  14.082   4.081   7.998
  784POPC   C4A14934  14.149   4.309   7.595
  784POPC   C1B14935  14.664   4.688   8.774
  784POPC   C2B14936  14.649   4.385   8.370
  784POPC   C3B14937  14.437   4.481   7.965
  784POPC   C4B14938  14.521   4.725   7.554
  785POPC   NC314939  37.176  17.867   9.447
  785POPC   PO414940  36.779  17.270   9.483
  785POPC   GL114941  36.773  17.483   9.141
  785POPC   GL214942  37.122  17.523   9.069
  785POPC   C1A14943  36.697  17.639   8.760
  785POPC   D2A14944  37.040  17.715   8.474
  785POPC   C3A14945  36.892  17.825   8.074
  785POPC   C4A14946  36.980  17.585   7.733
  785POPC   C1B14947  37.023  17.247   8.733
  785POPC   C2B14948  37.229  17.201   8.387
  785POPC   C3B14949  37.082  17.155   8.017
  785POPC   C4B14950  37.342  17.201   7.723
  786POPC   NC314951  44.929  25.657   9.290
  786POPC   PO414952  44.673  26.136   9.608
  786POPC   GL114953  44.502  26.020   9.224
  786POPC   GL214954  44.763  26.149   9.043
  786POPC   C1A14955  44.397  25.904   8.785
  786POPC   D2A14956  44.570  25.993   8.377
  786POPC   C3A14957  44.766  26.011   7.999
  786POPC   C4A14958  44.618  26.322   7.722
  786POPC   C1B14959  44.976  25.913   8.697
  786POPC   C2B14960   0.029  25.684   8.328
  786POPC   C3B14961   0.179  25.694   7.906
  786POPC   C4B14962   0.014  25.964   7.556
  787POPC   NC314963  11.423  26.607   9.825
  787POPC   PO414964  11.214  25.929   9.582
  787POPC   GL114965  11.237  25.897   9.162
  787POPC   GL214966  11.095  26.171   9.014
  787POPC   C1A14967  11.533  25.849   8.836
  787POPC   D2A14968  11.652  26.046   8.474
  787POPC   C3A14969  11.347  26.013   8.142
  787POPC   C4A14970  11.467  26.051   7.687
  787POPC   C1B14971  11.213  26.281   8.620
  787POPC   C2B14972  10.966  26.345   8.265
  787POPC   C3B14973  11.020  26.258   7.835
  787POPC   C4B14974  11.009  26.259   7.404
  788POPC   NC314975  25.879  29.910   9.364
  788POPC   PO414976  26.414  30.197   9.638
  788POPC   GL114977  26.313  30.080   9.093
  788POPC   GL214978  26.087  29.846   8.903
  788POPC   C1A14979  26.522  29.994   8.701
  788POPC   D2A14980  26.332  29.714   8.434
  788POPC   C3A14981  26.234  29.924   8.075
  788POPC   C4A14982  26.466  29.853   7.698
  788POPC   C1B14983  25.674  29.965   8.712
  788POPC   C2B14984  25.545  30.145   8.322
  788POPC   C3B14985  25.592  30.148   7.886
  788POPC   C4B14986  25.772  29.769   7.702
  789POPC   NC314987  29.186  19.531   9.314
  789POPC   PO414988  29.314  20.126   9.248
  789POPC   GL114989  28.965  19.950   8.988
  789POPC   GL214990  28.819  19.623   8.986
  789POPC   C1A14991  28.935  19.858   8.537
  789POPC   D2A14992  29.020  20.089   8.183
  789POPC   C3A14993  29.349  19.848   7.969
  789POPC   C4A14994  29.470  19.808   7.506
  789POPC   C1B14995  28.530  19.614   8.664
  789POPC   C2B14996  28.619  19.531   8.222
  789POPC   C3B14997  28.846  19.731   7.857
  789POPC   C4B14998  28.982  19.704   7.419
  790POPC   NC314999   2.999  32.244  10.047
  790POPC   PO415000   2.525  32.346   9.559
  790POPC   GL115001   2.738  32.102   9.198
  790POPC   GL215002   2.547  31.820   9.086
  790POPC   C1A15003   2.917  32.289   8.814
  790POPC   D2A15004   2.783  32.411   8.425
  790POPC   C3A15005   2.980  32.288   8.078
  790POPC   C4A15006   2.787  32.411   7.712
  790POPC   C1B15007   2.493  32.003   8.733
  790POPC   C2B15008   2.561  31.934   8.348
  790POPC   C3B15009   2.534  32.049   7.975
  790POPC   C4B15010   2.658  31.915   7.593
  791POPC   NC315011  17.628   6.608   9.384
  791POPC   PO415012  17.190   7.148   9.508
  791POPC   GL115013  17.312   6.903   9.124
  791POPC   GL215014  17.277   6.513   9.042
  791POPC   C1A15015  17.413   6.839   8.699
  791POPC   D2A15016  17.516   6.765   8.353
  791POPC   C3A15017  17.289   6.468   8.206
  791POPC   C4A15018  17.232   6.403   7.813
  791POPC   C1B15019  17.513   6.316   8.691
  791POPC   C2B15020  17.795   6.312   8.348
  791POPC   C3B15021  17.785   6.442   7.967
  791POPC   C4B15022  17.663   6.199   7.664
  792POPC   NC315023  15.370  24.100   9.517
  792POPC   PO415024  15.153  23.432   9.594
  792POPC   GL115025  15.209  23.694   9.225
  792POPC   GL215026  14.948  23.526   9.049
  792POPC   C1A15027  15.309  23.844   8.773
  792POPC   D2A15028  15.429  23.604   8.362
  792POPC   C3A15029  15.265  23.683   7.931
  792POPC   C4A15030  15.416  23.994   7.676
  792POPC   C1B15031  14.962  23.514   8.559
  792POPC   C2B15032  14.883  23.820   8.243
  792POPC   C3B15033  14.762  23.787   7.814
  792POPC   C4B15034  14.855  23.476   7.540
  793POPC   NC315035   1.271  21.871   9.741
  793POPC   PO415036   1.130  21.236   9.559
  793POPC   GL115037   1.216  21.270   9.136
  793POPC   GL215038   1.338  21.608   9.216
  793POPC   C1A15039   1.108  21.221   8.680
  793POPC   D2A15040   1.349  21.283   8.280
  793POPC   C3A15041   1.220  21.184   7.869
  793POPC   C4A15042   0.822  21.015   7.741
  793POPC   C1B15043   1.029  21.679   8.862
  793POPC   C2B15044   1.207  21.740   8.467
  793POPC   C3B15045   1.458  21.768   8.107
  793POPC   C4B15046   1.276  21.690   7.714
  794POPC   NC315047  35.847  27.544   9.471
  794POPC   PO415048  36.486  27.332   9.562
  794POPC   GL115049  36.213  27.346   9.164
  794POPC   GL215050  35.843  27.309   9.035
  794POPC   C1A15051  36.186  27.635   8.828
  794POPC   D2A15052  36.397  27.660   8.459
  794POPC   C3A15053  36.165  27.788   8.145
  794POPC   C4A15054  36.133  27.777   7.738
  794POPC   C1B15055  36.056  27.147   8.698
  794POPC   C2B15056  35.963  27.368   8.378
  794POPC   C3B15057  35.932  27.358   7.993
  794POPC   C4B15058  36.053  27.274   7.628
  795POPC   NC315059   2.431   3.569   9.437
  795POPC   PO415060   1.787   3.622   9.431
  795POPC   GL115061   2.072   3.598   9.051
  795POPC   GL215062   2.339   3.309   9.001
  795POPC   C1A15063   1.998   3.499   8.617
  795POPC   D2A15064   1.797   3.543   8.240
  795POPC   C3A15065   1.998   3.547   7.860
  795POPC   C4A15066   2.291   3.233   7.721
  795POPC   C1B15067   2.482   3.634   8.683
  795POPC   C2B15068   2.310   3.780   8.267
  795POPC   C3B15069   2.378   3.875   7.818
  795POPC   C4B15070   2.301   3.638   7.412
  796POPC   NC315071  37.412  13.332   9.388
  796POPC   PO415072  37.335  13.998   9.456
  796POPC   GL115073  37.507  13.753   9.120
  796POPC   GL215074  37.835  13.559   9.144
  796POPC   C1A15075  37.410  13.577   8.718
  796POPC   D2A15076  37.302  13.352   8.329
  796POPC   C3A15077  37.446  13.593   7.989
  796POPC   C4A15078  37.796  13.855   7.827
  796POPC   C1B15079  37.932  13.593   8.709
  796POPC   C2B15080  37.840  13.455   8.289
  796POPC   C3B15081  37.851  13.275   7.862
  796POPC   C4B15082  37.893  13.506   7.460
  797POPC   NC315083  12.567   5.346   9.318
  797POPC   PO415084  12.266   5.937   9.632
  797POPC   GL115085  12.104   5.739   9.269
  797POPC   GL215086  11.814   5.950   9.206
  797POPC   C1A15087  12.175   5.771   8.839
  797POPC   D2A15088  12.232   6.050   8.499
  797POPC   C3A15089  12.267   5.866   8.117
  797POPC   C4A15090  12.218   5.792   7.675
  797POPC   C1B15091  11.749   6.091   8.782
  797POPC   C2B15092  11.806   6.278   8.367
  797POPC   C3B15093  11.862   6.108   7.960
  797POPC   C4B15094  11.879   6.170   7.513
  798POPC   NC315095  36.916   0.741   9.506
  798POPC   PO415096  36.804   0.017   9.591
  798POPC   GL115097  36.986   0.253   9.208
  798POPC   GL215098  36.733   0.483   9.105
  798POPC   C1A15099  37.046   0.336   8.728
  798POPC   D2A15100  37.206   0.558   8.336
  798POPC   C3A15101  37.017   0.518   7.925
  798POPC   C4A15102  36.853   0.189   7.738
  798POPC   C1B15103  36.650   0.695   8.701
  798POPC   C2B15104  36.660   0.490   8.329
  798POPC   C3B15105  36.421   0.441   7.986
  798POPC   C4B15106  36.432   0.696   7.681
  799POPC   NC315107   2.108  42.720   9.773
  799POPC   PO415108   2.069  42.097   9.511
  799POPC   GL115109   2.024  42.077   9.100
  799POPC   GL215110   2.101  42.435   9.074
  799POPC   C1A15111   1.786  42.122   8.701
  799POPC   D2A15112   1.805  42.472   8.395
  799POPC   C3A15113   1.924  42.354   7.977
  799POPC   C4A15114   1.705  41.997   7.837
  799POPC   C1B15115   2.261  42.291   8.688
  799POPC   C2B15116   2.306  42.487   8.333
  799POPC   C3B15117   2.443  42.443   7.924
  799POPC   C4B15118   2.367  42.253   7.499
  800POPC   NC315119   6.469   0.103   9.511
  800POPC   PO415120   6.210   0.688   9.428
  800POPC   GL115121   6.355   0.438   9.100
  800POPC   GL215122   6.699   0.594   9.007
  800POPC   C1A15123   6.399   0.401   8.658
  800POPC   D2A15124   6.753   0.554   8.444
  800POPC   C3A15125   6.616   0.633   8.013
  800POPC   C4A15126   6.295   0.452   7.718
  800POPC   C1B15127   6.862   0.216   8.884
  800POPC   C2B15128   7.073   0.126   8.513
  800POPC   C3B15129   7.060   0.292   8.117
  800POPC   C4B15130   6.991   0.275   7.709
  801POPC   NC315131  33.228   0.265   9.644
  801POPC   PO415132  32.633   0.528   9.600
  801POPC   GL115133  32.902   0.352   9.238
  801POPC   GL215134  33.231   0.112   9.167
  801POPC   C1A15135  33.127   0.571   8.920
  801POPC   D2A15136  33.129   0.730   8.520
  801POPC   C3A15137  32.961   0.630   8.116
  801POPC   C4A15138  33.081   0.774   7.737
  801POPC   C1B15139  33.383   0.172   8.747
  801POPC   C2B15140  33.278   0.272   8.336
  801POPC   C3B15141  33.340   0.307   7.939
  801POPC   C4B15142  33.043   0.244   7.679
  802POPC   NC315143  12.583   6.139   9.923
  802POPC   PO415144  12.299   6.580   9.421
  802POPC   GL115145  12.138   6.569   9.059
  802POPC   GL215146  12.199   6.259   8.977
  802POPC   C1A15147  11.816   6.605   8.764
  802POPC   D2A15148  11.897   6.796   8.407
  802POPC   C3A15149  11.903   6.652   7.998
  802POPC   C4A15150  12.311   6.857   7.810
  802POPC   C1B15151  12.343   6.532   8.608
  802POPC   C2B15152  12.333   6.488   8.175
  802POPC   C3B15153  12.310   6.326   7.733
  802POPC   C4B15154  12.304   6.212   7.254
  803POPC   NC315155  38.312  26.333   9.610
  803POPC   PO415156  38.638  25.728   9.658
  803POPC   GL115157  38.472  25.972   9.238
  803POPC   GL215158  38.363  26.353   9.116
  803POPC   C1A15159  38.505  26.021   8.769
  803POPC   D2A15160  38.474  26.155   8.327
  803POPC   C3A15161  38.306  25.887   8.023
  803POPC   C4A15162  38.266  25.866   7.562
  803POPC   C1B15163  38.610  26.534   8.776
  803POPC   C2B15164  38.919  26.374   8.470
  803POPC   C3B15165  38.805  26.422   8.029
  803POPC   C4B15166  38.594  26.195   7.742
  804POPC   NC315167  29.256  14.566   9.553
  804POPC   PO415168  29.408  13.936   9.529
  804POPC   GL115169  29.321  14.226   9.175
  804POPC   GL215170  28.970  14.236   9.216
  804POPC   C1A15171  29.102  14.616   8.913
  804POPC   D2A15172  28.845  14.715   8.555
  804POPC   C3A15173  29.025  14.649   8.147
  804POPC   C4A15174  29.016  14.803   7.736
  804POPC   C1B15175  29.051  14.114   8.760
  804POPC   C2B15176  29.154  13.985   8.318
  804POPC   C3B15177  29.047  14.122   7.896
  804POPC   C4B15178  28.718  14.051   7.570
  805POPC   NC315179  38.771   9.357   9.314
  805POPC   PO415180  38.663   8.763   9.668
  805POPC   GL115181  38.662   8.765   9.226
  805POPC   GL215182  38.400   9.033   9.151
  805POPC   C1A15183  38.517   8.665   8.816
  805POPC   D2A15184  38.409   8.969   8.514
  805POPC   C3A15185  38.703   8.996   8.174
  805POPC   C4A15186  38.675   8.636   7.893
  805POPC   C1B15187  38.065   9.212   8.855
  805POPC   C2B15188  38.027   9.306   8.393
  805POPC   C3B15189  38.232   9.141   8.031
  805POPC   C4B15190  38.045   9.068   7.629
  806POPC   NC315191  38.852  15.048   9.404
  806POPC   PO415192  39.219  15.528   9.431
  806POPC   GL115193  39.194  15.188   9.072
  806POPC   GL215194  39.346  14.883   9.204
  806POPC   C1A15195  39.116  15.083   8.615
  806POPC   D2A15196  38.966  15.157   8.185
  806POPC   C3A15197  39.267  15.316   7.919
  806POPC   C4A15198  39.266  15.091   7.548
  806POPC   C1B15199  39.409  14.681   8.803
  806POPC   C2B15200  39.615  14.773   8.415
  806POPC   C3B15201  39.515  14.879   8.003
  806POPC   C4B15202  39.688  14.761   7.625
  807POPC   NC315203  12.764   7.657   9.459
  807POPC   PO415204  13.137   7.062   9.425
  807POPC   GL115205  12.942   7.314   9.089
  807POPC   GL215206  12.995   7.710   9.016
  807POPC   C1A15207  12.753   7.153   8.708
  807POPC   D2A15208  12.845   7.269   8.296
  807POPC   C3A15209  12.717   7.259   7.880
  807POPC   C4A15210  12.673   7.619   7.617
  807POPC   C1B15211  13.139   7.537   8.617
  807POPC   C2B15212  13.297   7.483   8.200
  807POPC   C3B15213  13.156   7.581   7.775
  807POPC   C4B15214  13.080   7.797   7.358
  808POPC   NC315215  16.894   3.762   9.429
  808POPC   PO415216  16.926   3.091   9.378
  808POPC   GL115217  16.603   3.400   9.193
  808POPC   GL215218  16.416   3.768   9.217
  808POPC   C1A15219  16.814   3.526   8.805
  808POPC   D2A15220  16.967   3.240   8.509
  808POPC   C3A15221  16.747   3.249   8.146
  808POPC   C4A15222  16.925   3.240   7.747
  808POPC   C1B15223  16.605   4.001   8.837
  808POPC   C2B15224  16.847   3.919   8.438
  808POPC   C3B15225  16.753   3.831   7.994
  808POPC   C4B15226  16.587   3.898   7.524
  809POPC   NC315227   5.434  19.335   9.828
  809POPC   PO415228   5.134  18.739   9.543
  809POPC   GL115229   5.232  18.915   9.174
  809POPC   GL215230   5.313  19.226   9.341
  809POPC   C1A15231   5.049  18.911   8.734
  809POPC   D2A15232   5.080  19.015   8.285
  809POPC   C3A15233   5.137  18.762   7.952
  809POPC   C4A15234   4.820  18.818   7.676
  809POPC   C1B15235   5.379  19.307   8.909
  809POPC   C2B15236   5.396  19.342   8.487
  809POPC   C3B15237   5.201  19.496   8.118
  809POPC   C4B15238   5.102  19.255   7.769
  810POPC   NC315239  36.185   6.560   9.662
  810POPC   PO415240  35.815   7.053   9.377
  810POPC   GL115241  35.974   6.794   9.062
  810POPC   GL215242  35.961   6.444   9.173
  810POPC   C1A15243  36.007   6.721   8.611
  810POPC   D2A15244  36.294   6.762   8.245
  810POPC   C3A15245  36.083   6.779   7.833
  810POPC   C4A15246  36.215   6.890   7.420
  810POPC   C1B15247  36.271   6.318   8.864
  810POPC   C2B15248  36.395   6.282   8.447
  810POPC   C3B15249  36.204   6.287   8.035
  810POPC   C4B15250  36.370   6.436   7.625
  811POPC   NC315251  12.057  17.790   9.431
  811POPC   PO415252  11.556  17.399   9.357
  811POPC   GL115253  11.947  17.418   9.084
  811POPC   GL215254  12.323  17.495   9.114
  811POPC   C1A15255  12.112  17.323   8.682
  811POPC   D2A15256  11.902  17.358   8.299
  811POPC   C3A15257  12.127  17.276   7.933
  811POPC   C4A15258  12.396  16.955   7.794
  811POPC   C1B15259  12.141  17.819   8.788
  811POPC   C2B15260  12.193  17.764   8.335
  811POPC   C3B15261  12.037  17.769   7.920
  811POPC   C4B15262  12.177  17.873   7.513
  812POPC   NC315263  30.932   4.936   9.274
  812POPC   PO415264  30.621   4.531   9.696
  812POPC   GL115265  30.690   4.450   9.256
  812POPC   GL215266  31.041   4.407   9.168
  812POPC   C1A15267  30.632   4.552   8.811
  812POPC   D2A15268  30.877   4.637   8.440
  812POPC   C3A15269  30.767   4.462   8.030
  812POPC   C4A15270  30.558   4.580   7.648
  812POPC   C1B15271  30.880   4.121   8.868
  812POPC   C2B15272  30.902   4.109   8.438
  812POPC   C3B15273  30.830   3.942   8.049
  812POPC   C4B15274  30.777   4.119   7.628
  813POPC   NC315275  34.762  25.638   9.970
  813POPC   PO415276  35.002  25.478   9.403
  813POPC   GL115277  34.686  25.349   9.114
  813POPC   GL215278  34.962  25.285   8.921
  813POPC   C1A15279  34.468  25.284   8.684
  813POPC   D2A15280  34.331  25.380   8.230
  813POPC   C3A15281  34.549  25.199   7.846
  813POPC   C4A15282  34.623  24.787   7.621
  813POPC   C1B15283  34.871  25.564   8.577
  813POPC   C2B15284  34.854  25.229   8.294
  813POPC   C3B15285  35.048  25.030   7.958
  813POPC   C4B15286  34.989  25.125   7.537
  814POPC   NC315287  41.050   1.465   9.441
  814POPC   PO415288  40.949   0.834   9.428
  814POPC   GL115289  40.928   1.103   9.082
  814POPC   GL215290  40.802   1.491   9.000
  814POPC   C1A15291  40.749   1.083   8.719
  814POPC   D2A15292  40.736   1.424   8.438
  814POPC   C3A15293  40.780   1.199   8.068
  814POPC   C4A15294  40.907   1.033   7.657
  814POPC   C1B15295  40.565   1.822   8.735
  814POPC   C2B15296  40.509   1.997   8.326
  814POPC   C3B15297  40.513   1.670   8.032
  814POPC   C4B15298  40.560   1.406   7.674
  815POPC   NC315299  22.932  42.204   9.534
  815POPC   PO415300  23.068  42.858   9.653
  815POPC   GL115301  23.151  42.587   9.249
  815POPC   GL215302  22.804  42.554   9.138
  815POPC   C1A15303  23.177  42.434   8.785
  815POPC   D2A15304  23.080  42.590   8.337
  815POPC   C3A15305  23.023  42.348   7.955
  815POPC   C4A15306  23.254  42.198   7.587
  815POPC   C1B15307  22.816  42.803   8.734
  815POPC   C2B15308  22.667  42.890   8.305
  815POPC   C3B15309  22.614  42.662   7.918
  815POPC   C4B15310  22.498  42.667   7.438
  816POPC   NC315311   4.177  39.680   9.578
  816POPC   PO415312   4.507  39.076   9.507
  816POPC   GL115313   4.204  39.220   9.196
  816POPC   GL215314   4.008  39.527   9.137
  816POPC   C1A15315   4.389  39.336   8.803
  816POPC   D2A15316   4.556  39.035   8.492
  816POPC   C3A15317   4.491  39.219   8.122
  816POPC   C4A15318   4.349  39.271   7.732
  816POPC   C1B15319   3.895  39.298   8.793
  816POPC   C2B15320   4.058  39.184   8.420
  816POPC   C3B15321   3.933  39.255   8.024
  816POPC   C4B15322   3.843  39.279   7.602
  817POPC   NC315323   6.584  31.543   9.733
  817POPC   PO415324   7.132  31.319   9.543
  817POPC   GL115325   6.765  31.389   9.274
  817POPC   GL215326   6.766  31.734   9.284
  817POPC   C1A15327   6.622  31.432   8.836
  817POPC   D2A15328   6.462  31.342   8.410
  817POPC   C3A15329   6.784  31.418   8.102
  817POPC   C4A15330   6.826  31.597   7.708
  817POPC   C1B15331   6.887  31.869   8.873
  817POPC   C2B15332   6.694  31.820   8.461
  817POPC   C3B15333   6.649  31.947   8.033
  817POPC   C4B15334   6.435  32.017   7.626
  818POPC   NC315335  28.948   6.787   9.479
  818POPC   PO415336  29.361   6.250   9.519
  818POPC   GL115337  29.159   6.353   9.074
  818POPC   GL215338  29.106   6.738   8.998
  818POPC   C1A15339  29.128   6.397   8.607
  818POPC   D2A15340  29.098   6.379   8.155
  818POPC   C3A15341  29.306   6.608   7.814
  818POPC   C4A15342  29.362   6.863   7.436
  818POPC   C1B15343  28.831   7.046   8.792
  818POPC   C2B15344  28.881   7.239   8.375
  818POPC   C3B15345  28.963   6.992   7.988
  818POPC   C4B15346  28.859   6.856   7.560
  819POPC   NC315347  21.661   7.421   9.557
  819POPC   PO415348  21.192   7.879   9.655
  819POPC   GL115349  21.244   7.597   9.288
  819POPC   GL215350  21.115   7.283   9.314
  819POPC   C1A15351  21.456   7.343   8.944
  819POPC   D2A15352  21.688   7.381   8.605
  819POPC   C3A15353  21.531   7.324   8.181
  819POPC   C4A15354  21.509   7.460   7.747
  819POPC   C1B15355  20.988   7.170   8.900
  819POPC   C2B15356  21.132   7.342   8.534
  819POPC   C3B15357  20.966   7.385   8.153
  819POPC   C4B15358  20.998   7.456   7.766
  820POPC   NC315359  22.891   5.549   9.735
  820POPC   PO415360  22.815   4.892   9.686
  820POPC   GL115361  22.781   5.078   9.255
  820POPC   GL215362  22.910   5.370   9.118
  820POPC   C1A15363  22.684   5.041   8.810
  820POPC   D2A15364  22.940   4.924   8.480
  820POPC   C3A15365  22.925   5.031   8.061
  820POPC   C4A15366  22.843   4.840   7.665
  820POPC   C1B15367  23.128   5.363   8.726
  820POPC   C2B15368  23.311   5.281   8.351
  820POPC   C3B15369  23.291   5.409   7.956
  820POPC   C4B15370  23.179   5.219   7.596
  821POPC   NC315371  13.960   2.227   9.439
  821POPC   PO415372  14.624   2.337   9.740
  821POPC   GL115373  14.469   2.267   9.280
  821POPC   GL215374  14.326   1.990   9.120
  821POPC   C1A15375  14.621   2.268   8.824
  821POPC   D2A15376  14.560   2.352   8.377
  821POPC   C3A15377  14.376   2.066   8.078
  821POPC   C4A15378  14.506   1.942   7.683
  821POPC   C1B15379  14.275   1.884   8.691
  821POPC   C2B15380  13.967   1.920   8.389
  821POPC   C3B15381  13.909   1.822   7.973
  821POPC   C4B15382  14.099   1.701   7.573
  822POPC   NC315383  39.512  16.523   9.484
  822POPC   PO415384  39.068  17.025   9.544
  822POPC   GL115385  39.176  16.834   9.183
  822POPC   GL215386  39.482  16.998   9.173
  822POPC   C1A15387  39.136  16.628   8.785
  822POPC   D2A15388  39.312  16.536   8.392
  822POPC   C3A15389  39.091  16.634   8.007
  822POPC   C4A15390  38.958  16.513   7.564
  822POPC   C1B15391  39.582  16.857   8.756
  822POPC   C2B15392  39.714  16.869   8.373
  822POPC   C3B15393  39.479  16.979   8.047
  822POPC   C4B15394  39.409  16.834   7.665
  823POPC   NC315395  39.424   4.218   9.341
  823POPC   PO415396  38.938   4.697   9.592
  823POPC   GL115397  39.010   4.508   9.154
  823POPC   GL215398  39.007   4.122   9.049
  823POPC   C1A15399  39.254   4.523   8.761
  823POPC   D2A15400  39.478   4.428   8.377
  823POPC   C3A15401  39.264   4.463   7.997
  823POPC   C4A15402  39.426   4.535   7.585
  823POPC   C1B15403  39.262   4.004   8.663
  823POPC   C2B15404  39.557   3.876   8.298
  823POPC   C3B15405  39.455   3.994   7.876
  823POPC   C4B15406  38.982   4.027   7.880
  824POPC   NC315407  38.125  18.169   9.533
  824POPC   PO415408  38.654  18.509   9.490
  824POPC   GL115409  38.509  18.332   9.120
  824POPC   GL215410  38.703  18.056   9.041
  824POPC   C1A15411  38.611  18.378   8.666
  824POPC   D2A15412  38.477  18.167   8.284
  824POPC   C3A15413  38.597  18.349   7.912
  824POPC   C4A15414  38.234  18.422   7.644
  824POPC   C1B15415  38.444  17.876   8.714
  824POPC   C2B15416  38.591  17.675   8.344
  824POPC   C3B15417  38.714  17.803   7.973
  824POPC   C4B15418  38.452  17.945   7.625
  825POPC   NC315419   0.827   8.886   9.318
  825POPC   PO415420   0.277   8.652   9.678
  825POPC   GL115421   0.286   8.644   9.199
  825POPC   GL215422   0.352   8.977   9.102
  825POPC   C1A15423   0.502   8.615   8.763
  825POPC   D2A15424   0.645   8.691   8.325
  825POPC   C3A15425   0.430   8.765   7.930
  825POPC   C4A15426   0.367   8.890   7.484
  825POPC   C1B15427   0.424   9.108   8.656
  825POPC   C2B15428   0.527   9.186   8.208
  825POPC   C3B15429   0.390   9.316   7.782
  825POPC   C4B15430   0.224   9.536   7.409
  826POPC   NC315431   5.409   3.463   9.241
  826POPC   PO415432   4.934   3.845   9.450
  826POPC   GL115433   4.917   3.498   9.089
  826POPC   GL215434   4.927   3.140   8.876
  826POPC   C1A15435   5.078   3.576   8.659
  826POPC   D2A15436   5.022   3.375   8.270
  826POPC   C3A15437   5.046   3.648   7.919
  826POPC   C4A15438   5.033   3.542   7.494
  826POPC   C1B15439   5.320   3.116   8.637
  826POPC   C2B15440   5.479   3.144   8.211
  826POPC   C3B15441   5.224   3.173   7.811
  826POPC   C4B15442   5.398   3.225   7.365
  827POPC   NC315443  28.982  39.499   9.988
  827POPC   PO415444  29.238  38.977   9.737
  827POPC   GL115445  29.321  39.142   9.293
  827POPC   GL215446  29.000  39.065   9.111
  827POPC   C1A15447  29.363  39.281   8.841
  827POPC   D2A15448  29.459  39.161   8.399
  827POPC   C3A15449  29.226  38.947   8.074
  827POPC   C4A15450  29.287  38.975   7.605
  827POPC   C1B15451  28.932  39.134   8.627
  827POPC   C2B15452  29.029  39.397   8.239
  827POPC   C3B15453  29.196  39.405   7.820
  827POPC   C4B15454  29.126  39.587   7.428
  828POPC   NC315455  41.391  32.206   9.511
  828POPC   PO415456  42.018  32.256   9.408
  828POPC   GL115457  41.668  32.167   9.080
  828POPC   GL215458  41.312  31.979   9.074
  828POPC   C1A15459  41.437  32.357   8.742
  828POPC   D2A15460  41.381  32.563   8.376
  828POPC   C3A15461  41.691  32.490   8.118
  828POPC   C4A15462  41.646  32.263   7.755
  828POPC   C1B15463  41.524  31.857   8.686
  828POPC   C2B15464  41.543  31.872   8.223
  828POPC   C3B15465  41.297  31.918   7.864
  828POPC   C4B15466  41.387  31.958   7.437
  829POPC   NC315467   6.835  17.042   9.462
  829POPC   PO415468   6.823  17.784   9.484
  829POPC   GL115469   6.679  17.555   9.139
  829POPC   GL215470   6.878  17.310   9.042
  829POPC   C1A15471   6.531  17.671   8.723
  829POPC   D2A15472   6.698  17.767   8.305
  829POPC   C3A15473   6.361  17.690   8.024
  829POPC   C4A15474   6.317  17.464   7.630
  829POPC   C1B15475   6.722  17.216   8.607
  829POPC   C2B15476   6.623  17.259   8.165
  829POPC   C3B15477   6.858  17.360   7.803
  829POPC   C4B15478   7.049  17.134   7.392
  830POPC   NC315479  29.444  44.081   9.529
  830POPC   PO415480  28.806  44.244   9.417
  830POPC   GL115481  29.086  44.024   9.117
  830POPC   GL215482  29.437  43.876   9.059
  830POPC   C1A15483  29.083  44.040   8.691
  830POPC   D2A15484  29.122  44.334   8.349
  830POPC   C3A15485  29.009  44.114   7.996
  830POPC   C4A15486  29.090  44.098   7.560
  830POPC   C1B15487  29.450  43.655   8.703
  830POPC   C2B15488  29.339  43.824   8.293
  830POPC   C3B15489  29.466  43.895   7.867
  830POPC   C4B15490  29.341  43.689   7.501
  831POPC   NC315491  24.929  15.061   9.368
  831POPC   PO415492  24.311  15.242   9.699
  831POPC   GL115493  24.427  15.167   9.305
  831POPC   GL215494  24.454  15.483   9.198
  831POPC   C1A15495  24.540  15.021   8.865
  831POPC   D2A15496  24.652  15.079   8.439
  831POPC   C3A15497  24.517  14.977   8.027
  831POPC   C4A15498  24.395  15.252   7.730
  831POPC   C1B15499  24.570  15.521   8.766
  831POPC   C2B15500  24.490  15.555   8.317
  831POPC   C3B15501  24.783  15.426   8.013
  831POPC   C4B15502  24.911  15.374   7.585
  832POPC   NC315503  18.134  21.345   9.558
  832POPC   PO415504  18.413  21.879   9.438
  832POPC   GL115505  18.076  21.668   9.159
  832POPC   GL215506  17.970  21.267   9.082
  832POPC   C1A15507  18.295  21.506   8.798
  832POPC   D2A15508  18.380  21.342   8.423
  832POPC   C3A15509  18.097  21.461   8.099
  832POPC   C4A15510  18.323  21.568   7.697
  832POPC   C1B15511  18.024  21.041   8.700
  832POPC   C2B15512  18.168  20.920   8.276
  832POPC   C3B15513  18.155  21.010   7.865
  832POPC   C4B15514  17.756  21.171   7.783
  833POPC   NC315515  16.393  36.218   9.493
  833POPC   PO415516  15.783  35.990   9.476
  833POPC   GL115517  16.041  35.964   9.135
  833POPC   GL215518  16.433  35.876   9.109
  833POPC   C1A15519  15.812  35.834   8.771
  833POPC   D2A15520  15.753  36.078   8.417
  833POPC   C3A15521  15.777  35.901   8.037
  833POPC   C4A15522  15.761  36.117   7.663
  833POPC   C1B15523  16.286  36.091   8.714
  833POPC   C2B15524  16.230  36.241   8.290
  833POPC   C3B15525  16.233  36.143   7.873
  833POPC   C4B15526  16.173  36.360   7.489
  834POPC   NC315527  41.588  10.757   9.372
  834POPC   PO415528  41.268  11.381   9.485
  834POPC   GL115529  41.492  11.391   9.113
  834POPC   GL215530  41.756  11.157   9.099
  834POPC   C1A15531  41.623  11.576   8.757
  834POPC   D2A15532  41.656  11.693   8.370
  834POPC   C3A15533  41.439  11.480   8.054
  834POPC   C4A15534  41.545  11.189   7.785
  834POPC   C1B15535  41.542  11.057   8.704
  834POPC   C2B15536  41.706  11.105   8.286
  834POPC   C3B15537  41.950  10.938   7.926
  834POPC   C4B15538  41.757  10.712   7.572
  835POPC   NC315539  11.602   3.293   9.438
  835POPC   PO415540  10.988   3.118   9.526
  835POPC   GL115541  11.103   3.351   9.177
  835POPC   GL215542  11.293   3.671   9.260
  835POPC   C1A15543  11.334   3.322   8.797
  835POPC   D2A15544  11.444   3.244   8.369
  835POPC   C3A15545  11.220   3.423   8.012
  835POPC   C4A15546  11.132   3.383   7.560
  835POPC   C1B15547  11.097   3.776   8.858
  835POPC   C2B15548  11.232   3.767   8.421
  835POPC   C3B15549  11.547   3.802   8.085
  835POPC   C4B15550  11.438   3.787   7.673
  836POPC   NC315551   0.141  28.277   9.647
  836POPC   PO415552   0.771  28.687   9.610
  836POPC   GL115553   0.460  28.538   9.333
  836POPC   GL215554   0.553  28.175   9.353
  836POPC   C1A15555   0.409  28.583   8.889
  836POPC   D2A15556   0.409  28.701   8.454
  836POPC   C3A15557   0.310  28.445   8.097
  836POPC   C4A15558   0.262  28.606   7.649
  836POPC   C1B15559   0.591  28.080   8.919
  836POPC   C2B15560   0.641  28.187   8.524
  836POPC   C3B15561   0.710  28.061   8.117
  836POPC   C4B15562   0.522  28.130   7.750
  837POPC   NC315563  33.850  31.300   9.468
  837POPC   PO415564  34.101  31.887   9.735
  837POPC   GL115565  33.870  31.804   9.288
  837POPC   GL215566  33.589  31.594   9.167
  837POPC   C1A15567  33.869  31.813   8.819
  837POPC   D2A15568  33.602  31.777   8.460
  837POPC   C3A15569  33.729  31.515   8.095
  837POPC   C4A15570  33.746  31.628   7.640
  837POPC   C1B15571  33.753  31.299   8.822
  837POPC   C2B15572  33.663  31.090   8.429
  837POPC   C3B15573  33.419  30.996   8.065
  837POPC   C4B15574  33.399  31.243   7.707
  838POPC   NC315575  37.980  43.328   9.753
  838POPC   PO415576  37.560  42.881   9.487
  838POPC   GL115577  37.705  43.180   9.211
  838POPC   GL215578  38.050  43.074   9.261
  838POPC   C1A15579  37.769  43.319   8.775
  838POPC   D2A15580  37.512  43.182   8.429
  838POPC   C3A15581  37.637  43.270   8.038
  838POPC   C4A15582  37.631  43.088   7.595
  838POPC   C1B15583  37.992  42.869   8.842
  838POPC   C2B15584  38.053  42.917   8.389
  838POPC   C3B15585  38.024  42.960   7.955
  838POPC   C4B15586  38.080  43.334   7.709
  839POPC   NC315587  33.910   3.646   9.404
  839POPC   PO415588  33.568   3.079   9.444
  839POPC   GL115589  33.878   3.193   9.112
  839POPC   GL215590  34.134   3.477   8.988
  839POPC   C1A15591  33.802   3.282   8.685
  839POPC   D2A15592  33.699   3.393   8.293
  839POPC   C3A15593  33.997   3.587   8.066
  839POPC   C4A15594  34.175   3.462   7.685
  839POPC   C1B15595  33.863   3.785   8.740
  839POPC   C2B15596  33.562   3.882   8.427
  839POPC   C3B15597  33.525   3.802   7.994
  839POPC   C4B15598  33.789   3.840   7.666
  840POPC   NC315599  32.098   6.134   9.393
  840POPC   PO415600  31.912   5.483   9.513
  840POPC   GL115601  32.099   5.663   9.141
  840POPC   GL215602  32.418   5.800   9.170
  840POPC   C1A15603  32.171   5.804   8.708
  840POPC   D2A15604  32.424   5.734   8.362
  840POPC   C3A15605  32.216   5.852   8.001
  840POPC   C4A15606  32.378   6.079   7.669
  840POPC   C1B15607  32.459   6.186   8.848
  840POPC   C2B15608  32.349   6.242   8.443
  840POPC   C3B15609  32.602   6.175   8.118
  840POPC   C4B15610  32.797   6.360   7.786
  841POPC   NC315611  22.849   8.383   9.601
  841POPC   PO415612  22.776   7.767   9.386
  841POPC   GL115613  23.018   8.073   9.105
  841POPC   GL215614  23.012   8.463   9.112
  841POPC   C1A15615  22.916   8.224   8.681
  841POPC   D2A15616  22.674   8.088   8.356
  841POPC   C3A15617  22.765   8.241   7.973
  841POPC   C4A15618  22.610   7.988   7.691
  841POPC   C1B15619  23.150   8.661   8.701
  841POPC   C2B15620  23.132   8.467   8.274
  841POPC   C3B15621  23.115   8.595   7.823
  841POPC   C4B15622  22.777   8.803   7.593
  842POPC   NC315623  27.434  17.486   9.484
  842POPC   PO415624  28.029  17.116   9.419
  842POPC   GL115625  27.761  17.336   9.091
  842POPC   GL215626  27.347  17.327   9.028
  842POPC   C1A15627  27.652  17.264   8.649
  842POPC   D2A15628  27.298  17.411   8.427
  842POPC   C3A15629  27.467  17.406   7.985
  842POPC   C4A15630  27.760  17.739   7.869
  842POPC   C1B15631  27.518  17.728   8.842
  842POPC   C2B15632  27.552  17.883   8.430
  842POPC   C3B15633  27.223  17.828   8.141
  842POPC   C4B15634  27.243  17.813   7.744
  843POPC   NC315635  38.080   3.602   9.572
  843POPC   PO415636  38.591   3.164   9.480
  843POPC   GL115637  38.482   3.287   9.047
  843POPC   GL215638  38.225   3.537   9.083
  843POPC   C1A15639  38.279   3.329   8.614
  843POPC   D2A15640  38.347   3.657   8.312
  843POPC   C3A15641  38.575   3.631   7.933
  843POPC   C4A15642  38.424   3.296   7.720
  843POPC   C1B15643  38.419   3.824   8.794
  843POPC   C2B15644  38.457   4.140   8.434
  843POPC   C3B15645  38.365   4.094   7.954
  843POPC   C4B15646  38.211   3.833   7.601
  844POPC   NC315647   0.510  22.312   9.635
  844POPC   PO415648  44.862  22.226   9.634
  844POPC   GL115649   0.160  22.235   9.279
  844POPC   GL215650   0.372  21.947   9.268
  844POPC   C1A15651   0.313  22.434   8.890
  844POPC   D2A15652   0.165  22.361   8.462
  844POPC   C3A15653   0.408  22.441   8.096
  844POPC   C4A15654   0.528  22.275   7.724
  844POPC   C1B15655   0.637  22.029   8.915
  844POPC   C2B15656   0.653  22.035   8.464
  844POPC   C3B15657   0.516  21.896   8.069
  844POPC   C4B15658   0.374  21.699   7.738
  845POPC   NC315659  33.389  30.769   9.635
  845POPC   PO415660  33.977  30.872   9.613
  845POPC   GL115661  33.737  30.847   9.223
  845POPC   GL215662  33.492  30.591   9.168
  845POPC   C1A15663  33.846  30.685   8.811
  845POPC   D2A15664  34.068  30.757   8.461
  845POPC   C3A15665  33.839  30.666   8.100
  845POPC   C4A15666  33.816  30.901   7.734
  845POPC   C1B15667  33.393  30.897   8.835
  845POPC   C2B15668  33.424  30.640   8.470
  845POPC   C3B15669  33.228  30.524   8.105
  845POPC   C4B15670  33.354  30.607   7.694
  846POPC   NC315671  24.205  32.098   9.326
  846POPC   PO415672  24.584  32.508   9.532
  846POPC   GL115673  24.569  32.401   9.134
  846POPC   GL215674  24.243  32.591   9.120
  846POPC   C1A15675  24.726  32.147   8.770
  846POPC   D2A15676  24.776  31.991   8.338
  846POPC   C3A15677  24.507  32.231   8.056
  846POPC   C4A15678  24.140  32.067   7.934
  846POPC   C1B15679  24.305  32.493   8.698
  846POPC   C2B15680  24.108  32.473   8.311
  846POPC   C3B15681  24.132  32.577   7.881
  846POPC   C4B15682  24.490  32.559   7.609
  847POPC   NC315683  18.290   6.881   9.312
  847POPC   PO415684  17.971   6.301   9.504
  847POPC   GL115685  18.213   6.228   9.136
  847POPC   GL215686  18.465   6.481   9.052
  847POPC   C1A15687  18.032   6.389   8.788
  847POPC   D2A15688  18.004   6.745   8.538
  847POPC   C3A15689  18.240   6.624   8.156
  847POPC   C4A15690  18.160   6.737   7.744
  847POPC   C1B15691  18.496   6.582   8.619
  847POPC   C2B15692  18.792   6.798   8.366
  847POPC   C3B15693  18.764   6.953   7.993
  847POPC   C4B15694  18.645   6.854   7.604
  848POPC   NC315695   3.219  31.439   9.494
  848POPC   PO415696   3.805  31.767   9.416
  848POPC   GL115697   3.787  31.375   9.178
  848POPC   GL215698   3.432  31.322   9.058
  848POPC   C1A15699   3.820  31.366   8.745
  848POPC   D2A15700   3.739  31.723   8.499
  848POPC   C3A15701   3.592  31.615   8.127
  848POPC   C4A15702   3.833  31.377   7.821
  848POPC   C1B15703   3.291  31.397   8.635
  848POPC   C2B15704   3.130  31.173   8.266
  848POPC   C3B15705   3.252  31.329   7.868
  848POPC   C4B15706   3.451  31.664   7.642
  849POPC   NC315707   2.879  26.659   9.658
  849POPC   PO415708   2.339  26.527   9.603
  849POPC   GL115709   2.615  26.473   9.260
  849POPC   GL215710   2.643  26.825   9.199
  849POPC   C1A15711   2.679  26.484   8.804
  849POPC   D2A15712   2.465  26.601   8.425
  849POPC   C3A15713   2.412  26.700   7.996
  849POPC   C4A15714   2.710  26.618   7.702
  849POPC   C1B15715   2.469  26.963   8.779
  849POPC   C2B15716   2.607  27.092   8.336
  849POPC   C3B15717   2.686  27.124   7.886
  849POPC   C4B15718   2.582  27.509   7.651
  850POPC   NC315719   9.100  38.891   9.646
  850POPC   PO415720   9.115  39.576   9.646
  850POPC   GL115721   8.860  39.436   9.264
  850POPC   GL215722   8.794  39.079   9.230
  850POPC   C1A15723   8.790  39.460   8.806
  850POPC   D2A15724   8.918  39.292   8.390
  850POPC   C3A15725   8.665  39.357   8.011
  850POPC   C4A15726   8.815  39.411   7.592
  850POPC   C1B15727   8.860  38.936   8.783
  850POPC   C2B15728   9.096  38.785   8.380
  850POPC   C3B15729   9.016  38.984   7.954
  850POPC   C4B15730   9.194  39.078   7.541
  851POPC   NC315731   3.687  30.613   9.692
  851POPC   PO415732   3.163  30.952   9.469
  851POPC   GL115733   3.494  30.828   9.177
  851POPC   GL215734   3.439  30.509   9.199
  851POPC   C1A15735   3.539  30.942   8.721
  851POPC   D2A15736   3.632  31.125   8.280
  851POPC   C3A15737   3.549  30.928   7.849
  851POPC   C4A15738   3.186  30.881   7.544
  851POPC   C1B15739   3.262  30.509   8.773
  851POPC   C2B15740   3.305  30.699   8.347
  851POPC   C3B15741   3.694  30.574   8.174
  851POPC   C4B15742   3.722  30.266   7.867
  852POPC   NC315743   1.461  43.280   9.719
  852POPC   PO415744   0.899  42.965   9.497
  852POPC   GL115745   1.117  43.145   9.136
  852POPC   GL215746   1.455  43.056   9.187
  852POPC   C1A15747   1.140  43.034   8.685
  852POPC   D2A15748   1.331  43.181   8.258
  852POPC   C3A15749   1.078  43.099   7.857
  852POPC   C4A15750   1.090  43.276   7.394
  852POPC   C1B15751   1.637  42.925   8.812
  852POPC   C2B15752   1.867  42.992   8.445
  852POPC   C3B15753   1.744  42.858   8.053
  852POPC   C4B15754   1.518  42.942   7.710
  853POPC   NC315755  38.257   8.569   9.529
  853POPC   PO415756  38.664   7.977   9.532
  853POPC   GL115757  38.656   8.166   9.144
  853POPC   GL215758  38.364   7.950   9.032
  853POPC   C1A15759  38.671   8.174   8.700
  853POPC   D2A15760  38.590   7.930   8.353
  853POPC   C3A15761  38.799   8.135   8.041
  853POPC   C4A15762  38.709   8.183   7.611
  853POPC   C1B15763  38.179   8.268   8.772
  853POPC   C2B15764  38.343   8.414   8.378
  853POPC   C3B15765  38.290   8.217   7.974
  853POPC   C4B15766  38.277   8.469   7.603
  854POPC   NC315767   8.712  41.618   9.526
  854POPC   PO415768   9.228  41.279   9.373
  854POPC   GL115769   9.026  41.539   9.109
  854POPC   GL215770   8.657  41.602   9.013
  854POPC   C1A15771   9.059  41.502   8.692
  854POPC   D2A15772   8.914  41.228   8.405
  854POPC   C3A15773   8.889  41.456   8.076
  854POPC   C4A15774   9.198  41.547   7.778
  854POPC   C1B15775   8.595  41.685   8.544
  854POPC   C2B15776   8.481  41.961   8.195
  854POPC   C3B15777   8.675  41.889   7.796
  854POPC   C4B15778   8.726  41.508   7.602
  855POPC   NC315779  42.050  22.599   9.655
  855POPC   PO415780  42.487  23.114   9.634
  855POPC   GL115781  42.386  22.977   9.207
  855POPC   GL215782  42.089  22.787   9.172
  855POPC   C1A15783  42.410  22.952   8.757
  855POPC   D2A15784  42.343  23.231   8.395
  855POPC   C3A15785  42.527  23.113   7.987
  855POPC   C4A15786  42.648  22.925   7.590
  855POPC   C1B15787  42.182  22.481   8.855
  855POPC   C2B15788  42.270  22.577   8.430
  855POPC   C3B15789  42.095  22.873   8.133
  855POPC   C4B15790  42.130  22.854   7.714
  856POPC   NC315791  35.863  11.964   9.802
  856POPC   PO415792  35.368  11.827   9.408
  856POPC   GL115793  35.400  12.049   9.058
  856POPC   GL215794  35.709  12.152   9.102
  856POPC   C1A15795  35.342  11.986   8.642
  856POPC   D2A15796  35.525  11.874   8.283
  856POPC   C3A15797  35.226  11.911   7.984
  856POPC   C4A15798  35.233  12.295   7.777
  856POPC   C1B15799  35.836  12.093   8.716
  856POPC   C2B15800  35.926  12.216   8.317
  856POPC   C3B15801  35.751  12.214   7.857
  856POPC   C4B15802  35.635  12.332   7.389
  857POPC   NC315803  35.625  44.978   9.540
  857POPC   PO415804  35.089  44.623   9.564
  857POPC   GL115805  35.209  44.718   9.196
  857POPC   GL215806  35.539  44.614   9.163
  857POPC   C1A15807  35.114  44.637   8.787
  857POPC   D2A15808  35.207  44.917   8.456
  857POPC   C3A15809  35.134  44.774   8.057
  857POPC   C4A15810  35.234  44.852   7.635
  857POPC   C1B15811  35.618  44.776   8.736
  857POPC   C2B15812  35.759  44.822   8.341
  857POPC   C3B15813  35.651  44.718   7.945
  857POPC   C4B15814  35.733  44.708   7.532
  858POPC   NC315815  36.094  33.104   9.643
  858POPC   PO415816  35.919  33.561   9.238
  858POPC   GL115817  36.128  33.221   9.139
  858POPC   GL215818  35.821  33.032   9.137
  858POPC   C1A15819  36.187  33.051   8.740
  858POPC   D2A15820  35.973  33.087   8.349
  858POPC   C3A15821  36.231  32.896   8.061
  858POPC   C4A15822  36.283  33.122   7.720
  858POPC   C1B15823  35.756  32.751   8.780
  858POPC   C2B15824  35.804  32.601   8.380
  858POPC   C3B15825  35.733  32.770   7.964
  858POPC   C4B15826  35.996  32.701   7.612
  859POPC   NC315827  29.520  10.790   9.451
  859POPC   PO415828  29.100  11.391   9.659
  859POPC   GL115829  29.253  11.215   9.255
  859POPC   GL215830  29.499  11.410   9.151
  859POPC   C1A15831  29.122  11.108   8.802
  859POPC   D2A15832  29.233  11.153   8.336
  859POPC   C3A15833  28.991  11.147   7.915
  859POPC   C4A15834  29.068  10.927   7.495
  859POPC   C1B15835  29.428  11.503   8.732
  859POPC   C2B15836  29.412  11.646   8.313
  859POPC   C3B15837  29.391  11.456   7.915
  859POPC   C4B15838  29.248  11.388   7.511
  860POPC   NC315839  24.009  42.169   9.608
  860POPC   PO415840  23.388  42.228   9.510
  860POPC   GL115841  23.678  42.481   9.241
  860POPC   GL215842  23.966  42.715   9.318
  860POPC   C1A15843  23.700  42.516   8.801
  860POPC   D2A15844  23.730  42.308   8.393
  860POPC   C3A15845  23.521  42.467   8.059
  860POPC   C4A15846  23.462  42.646   7.686
  860POPC   C1B15847  24.162  42.685   8.903
  860POPC   C2B15848  24.054  42.708   8.452
  860POPC   C3B15849  24.124  42.471   8.088
  860POPC   C4B15850  23.925  42.430   7.721
  861POPC   NC315851  30.363  39.771   9.505
  861POPC   PO415852  30.975  39.669   9.579
  861POPC   GL115853  30.890  39.896   9.158
  861POPC   GL215854  30.569  40.096   9.130
  861POPC   C1A15855  30.753  39.915   8.691
  861POPC   D2A15856  30.859  39.814   8.257
  861POPC   C3A15857  30.574  39.744   7.907
  861POPC   C4A15858  30.875  39.808   7.609
  861POPC   C1B15859  30.317  40.180   8.727
  861POPC   C2B15860  30.399  40.021   8.298
  861POPC   C3B15861  30.674  40.228   7.937
  861POPC   C4B15862  30.543  40.535   7.617
  862POPC   NC315863   8.400  43.142   9.572
  862POPC   PO415864   7.935  42.659   9.731
  862POPC   GL115865   8.031  42.820   9.278
  862POPC   GL215866   8.249  43.055   9.105
  862POPC   C1A15867   8.014  42.735   8.799
  862POPC   D2A15868   7.781  42.778   8.397
  862POPC   C3A15869   7.947  42.970   7.985
  862POPC   C4A15870   8.071  43.298   7.646
  862POPC   C1B15871   8.472  43.073   8.770
  862POPC   C2B15872   8.293  43.035   8.393
  862POPC   C3B15873   8.423  43.206   8.013
  862POPC   C4B15874   8.368  42.895   7.692
  863POPC   NC315875   4.676  29.269   9.805
  863POPC   PO415876   4.236  29.571   9.628
  863POPC   GL115877   4.247  29.310   9.224
  863POPC   GL215878   4.570  29.228   9.055
  863POPC   C1A15879   4.166  29.317   8.760
  863POPC   D2A15880   4.403  29.390   8.354
  863POPC   C3A15881   4.541  29.115   7.979
  863POPC   C4A15882   4.731  28.919   7.570
  863POPC   C1B15883   4.553  28.990   8.636
  863POPC   C2B15884   4.480  28.655   8.315
  863POPC   C3B15885   4.547  28.537   7.862
  863POPC   C4B15886   4.362  28.520   7.426
  864POPC   NC315887   6.888   3.276   9.844
  864POPC   PO415888   6.458   3.753   9.577
  864POPC   GL115889   6.673   3.680   9.200
  864POPC   GL215890   6.790   3.378   9.236
  864POPC   C1A15891   6.820   3.832   8.802
  864POPC   D2A15892   6.610   3.748   8.436
  864POPC   C3A15893   6.795   3.770   8.086
  864POPC   C4A15894   6.842   3.671   7.679
  864POPC   C1B15895   6.629   3.327   8.804
  864POPC   C2B15896   6.387   3.293   8.427
  864POPC   C3B15897   6.564   3.315   7.981
  864POPC   C4B15898   6.539   3.314   7.495
  865POPC   NC315899  21.921  43.741   9.655
  865POPC   PO415900  22.335  44.186   9.407
  865POPC   GL115901  22.121  44.117   9.030
  865POPC   GL215902  21.980  43.818   9.060
  865POPC   C1A15903  22.072  44.008   8.600
  865POPC   D2A15904  22.302  43.844   8.259
  865POPC   C3A15905  22.072  43.859   7.887
  865POPC   C4A15906  22.207  44.013   7.496
  865POPC   C1B15907  21.850  43.559   8.673
  865POPC   C2B15908  21.936  43.474   8.233
  865POPC   C3B15909  21.832  43.356   7.807
  865POPC   C4B15910  21.781  43.705   7.465
  866POPC   NC315911  44.804   2.475   9.331
  866POPC   PO415912  44.669   1.855   9.573
  866POPC   GL115913  44.838   1.949   9.196
  866POPC   GL215914  44.983   1.638   9.159
  866POPC   C1A15915  44.794   1.966   8.749
  866POPC   D2A15916  44.848   2.126   8.323
  866POPC   C3A15917  44.667   1.952   7.962
  866POPC   C4A15918  44.786   2.135   7.601
  866POPC   C1B15919   0.100   1.552   8.757
  866POPC   C2B15920  44.874   1.600   8.389
  866POPC   C3B15921  44.880   1.478   8.000
  866POPC   C4B15922  44.928   1.630   7.598
  867POPC   NC315923   6.032  41.209   9.429
  867POPC   PO415924   5.835  40.598   9.361
  867POPC   GL115925   5.893  40.745   8.973
  867POPC   GL215926   6.050  41.061   8.955
  867POPC   C1A15927   5.959  40.728   8.545
  867POPC   D2A15928   6.055  41.008   8.230
  867POPC   C3A15929   5.889  40.710   7.981
  867POPC   C4A15930   6.120  40.437   7.733
  867POPC   C1B15931   5.756  41.175   8.646
  867POPC   C2B15932   5.583  41.168   8.228
  867POPC   C3B15933   5.727  41.157   7.807
  867POPC   C4B15934   6.146  41.029   7.688
  868POPC   NC315935   4.996  42.342   9.509
  868POPC   PO415936   4.791  41.617   9.345
  868POPC   GL115937   4.910  42.037   9.128
  868POPC   GL215938   5.308  42.183   9.149
  868POPC   C1A15939   5.031  42.211   8.721
  868POPC   D2A15940   4.990  41.996   8.335
  868POPC   C3A15941   5.231  42.140   7.994
  868POPC   C4A15942   5.024  42.443   7.752
  868POPC   C1B15943   5.483  42.468   8.817
  868POPC   C2B15944   5.317  42.523   8.389
  868POPC   C3B15945   5.398  42.701   7.988
  868POPC   C4B15946   5.548  42.458   7.635
  869POPC   NC315947   0.654   4.019   9.910
  869POPC   PO415948   0.509   4.621   9.653
  869POPC   GL115949   0.509   4.362   9.269
  869POPC   GL215950   0.810   4.492   9.127
  869POPC   C1A15951   0.244   4.111   8.949
  869POPC   D2A15952   0.333   3.848   8.599
  869POPC   C3A15953   0.424   4.111   8.256
  869POPC   C4A15954   0.237   4.076   7.875
  869POPC   C1B15955   0.692   4.308   8.738
  869POPC   C2B15956   0.767   4.507   8.350
  869POPC   C3B15957   0.440   4.606   8.075
  869POPC   C4B15958   0.608   4.388   7.756
  870POPC   NC315959  22.319   3.131   9.290
  870POPC   PO415960  21.933   2.561   9.424
  870POPC   GL115961  22.220   2.631   9.112
  870POPC   GL215962  22.141   2.322   9.010
  870POPC   C1A15963  22.167   2.758   8.697
  870POPC   D2A15964  21.812   2.734   8.414
  870POPC   C3A15965  22.000   2.729   8.014
  870POPC   C4A15966  22.401   2.920   7.915
  870POPC   C1B15967  21.942   2.279   8.631
  870POPC   C2B15968  21.893   2.239   8.175
  870POPC   C3B15969  21.747   2.315   7.747
  870POPC   C4B15970  21.824   2.528   7.337
  871POPC   NC315971   2.866   1.581   9.494
  871POPC   PO415972   2.679   2.290   9.507
  871POPC   GL115973   2.562   2.107   9.126
  871POPC   GL215974   2.836   1.916   9.104
  871POPC   C1A15975   2.475   1.893   8.719
  871POPC   D2A15976   2.500   1.714   8.309
  871POPC   C3A15977   2.306   1.982   8.003
  871POPC   C4A15978   2.335   2.319   7.730
  871POPC   C1B15979   2.832   1.554   8.838
  871POPC   C2B15980   2.988   1.526   8.452
  871POPC   C3B15981   2.965   1.693   8.071
  871POPC   C4B15982   2.662   1.695   7.795
  872POPC   NC315983  29.102  29.980   9.269
  872POPC   PO415984  29.643  30.083   9.621
  872POPC   GL115985  29.603  29.977   9.176
  872POPC   GL215986  29.672  30.263   9.048
  872POPC   C1A15987  29.590  29.651   8.822
  872POPC   D2A15988  29.815  29.334   8.542
  872POPC   C3A15989  29.972  29.532   8.187
  872POPC   C4A15990  29.769  29.670   7.810
  872POPC   C1B15991  29.483  30.132   8.644
  872POPC   C2B15992  29.560  29.991   8.186
  872POPC   C3B15993  29.584  30.135   7.737
  872POPC   C4B15994  29.690  30.233   7.272
  873POPC   NC315995  13.091   2.850   9.550
  873POPC   PO415996  12.435   2.617   9.467
  873POPC   GL115997  12.699   2.811   9.193
  873POPC   GL215998  12.945   2.561   9.146
  873POPC   C1A15999  12.920   2.960   8.842
  873POPC   D2A16000  13.053   2.797   8.460
  873POPC   C3A16001  13.000   3.007   8.076
  873POPC   C4A16002  12.828   3.013   7.657
  873POPC   C1B16003  12.685   2.505   8.759
  873POPC   C2B16004  12.501   2.373   8.364
  873POPC   C3B16005  12.707   2.557   7.984
  873POPC   C4B16006  12.830   2.480   7.572
  874POPC   NC316007  44.442  22.032   9.737
  874POPC   PO416008  43.687  22.125   9.607
  874POPC   GL116009  43.596  22.099   9.196
  874POPC   GL216010  43.476  21.773   9.158
  874POPC   C1A16011  43.812  22.280   8.839
  874POPC   D2A16012  43.751  22.432   8.439
  874POPC   C3A16013  43.938  22.310   8.084
  874POPC   C4A16014  43.854  22.256   7.672
  874POPC   C1B16015  43.753  21.774   8.799
  874POPC   C2B16016  43.923  21.890   8.400
  874POPC   C3B16017  43.785  21.842   7.955
  874POPC   C4B16018  44.009  21.814   7.519
  875POPC   NC316019  21.458  29.042   9.542
  875POPC   PO416020  20.931  29.471   9.626
  875POPC   GL116021  21.119  29.314   9.251
  875POPC   GL216022  21.506  29.365   9.160
  875POPC   C1A16023  21.163  29.287   8.808
  875POPC   D2A16024  21.450  29.329   8.463
  875POPC   C3A16025  21.278  29.157   8.082
  875POPC   C4A16026  21.328  29.355   7.685
  875POPC   C1B16027  21.599  28.999   8.832
  875POPC   C2B16028  21.648  28.855   8.372
  875POPC   C3B16029  21.703  28.870   7.913
  875POPC   C4B16030  21.373  28.862   7.608
  876POPC   NC316031  16.559  23.746   9.437
  876POPC   PO416032  17.103  24.279   9.375
  876POPC   GL116033  16.819  24.021   9.097
  876POPC   GL216034  16.438  24.100   9.093
  876POPC   C1A16035  16.755  23.761   8.700
  876POPC   D2A16036  16.990  23.489   8.391
  876POPC   C3A16037  16.872  23.625   7.971
  876POPC   C4A16038  16.670  23.606   7.535
  876POPC   C1B16039  16.288  23.954   8.707
  876POPC   C2B16040  16.480  23.826   8.280
  876POPC   C3B16041  16.487  23.957   7.862
  876POPC   C4B16042  16.178  23.718   7.713
  877POPC   NC316043  22.812  16.941   9.723
  877POPC   PO416044  23.216  16.396   9.591
  877POPC   GL116045  22.977  16.639   9.255
  877POPC   GL216046  23.155  16.897   9.076
  877POPC   C1A16047  22.906  16.617   8.760
  877POPC   D2A16048  22.918  16.801   8.305
  877POPC   C3A16049  22.789  16.585   7.903
  877POPC   C4A16050  22.757  16.664   7.418
  877POPC   C1B16051  23.271  16.998   8.678
  877POPC   C2B16052  23.421  16.756   8.339
  877POPC   C3B16053  23.281  16.819   7.920
  877POPC   C4B16054  23.201  16.513   7.615
  878POPC   NC316055   9.773  24.542   9.716
  878POPC   PO416056   9.382  24.059   9.559
  878POPC   GL116057   9.682  24.259   9.226
  878POPC   GL216058   9.600  24.616   9.237
  878POPC   C1A16059   9.839  24.197   8.771
  878POPC   D2A16060   9.960  24.427   8.363
  878POPC   C3A16061   9.798  24.438   7.911
  878POPC   C4A16062   9.860  24.748   7.570
  878POPC   C1B16063   9.778  24.700   8.803
  878POPC   C2B16064   9.645  24.871   8.375
  878POPC   C3B16065   9.481  24.834   7.958
  878POPC   C4B16066   9.174  24.553   7.782
  879POPC   NC316067  13.070  36.681   9.367
  879POPC   PO416068  12.498  36.923   9.613
  879POPC   GL116069  12.671  36.928   9.203
  879POPC   GL216070  12.990  37.125   9.162
  879POPC   C1A16071  12.729  36.911   8.772
  879POPC   D2A16072  12.945  36.921   8.409
  879POPC   C3A16073  12.750  36.830   8.035
  879POPC   C4A16074  12.911  36.777   7.624
  879POPC   C1B16075  13.155  37.218   8.793
  879POPC   C2B16076  13.225  37.348   8.374
  879POPC   C3B16077  13.184  37.147   7.981
  879POPC   C4B16078  13.355  37.002   7.614
  880POPC   NC316079  29.790  15.954   9.435
  880POPC   PO416080  30.105  15.335   9.288
  880POPC   GL116081  30.132  15.794   9.104
  880POPC   GL216082  29.813  16.016   8.956
  880POPC   C1A16083  30.160  15.869   8.661
  880POPC   D2A16084  29.889  15.744   8.368
  880POPC   C3A16085  30.017  15.793   7.966
  880POPC   C4A16086  30.258  15.462   7.809
  880POPC   C1B16087  29.769  16.196   8.554
  880POPC   C2B16088  29.706  16.186   8.116
  880POPC   C3B16089  29.742  16.298   7.686
  880POPC   C4B16090  29.646  16.081   7.298
  881POPC   NC316091  40.490  17.884   9.467
  881POPC   PO416092  40.910  18.289   9.808
  881POPC   GL116093  40.694  18.326   9.326
  881POPC   GL216094  40.997  18.406   9.154
  881POPC   C1A16095  40.592  18.414   8.870
  881POPC   D2A16096  40.801  18.403   8.456
  881POPC   C3A16097  40.614  18.548   8.065
  881POPC   C4A16098  40.700  18.210   7.795
  881POPC   C1B16099  41.160  18.190   8.799
  881POPC   C2B16100  41.105  17.961   8.454
  881POPC   C3B16101  41.101  18.000   8.041
  881POPC   C4B16102  41.204  18.188   7.677
  882POPC   NC316103  15.600  29.101   9.622
  882POPC   PO416104  16.216  29.351   9.418
  882POPC   GL116105  16.043  29.124   9.123
  882POPC   GL216106  15.715  29.053   9.116
  882POPC   C1A16107  16.063  28.888   8.771
  882POPC   D2A16108  15.852  28.904   8.399
  882POPC   C3A16109  15.994  29.103   8.044
  882POPC   C4A16110  16.143  28.920   7.690
  882POPC   C1B16111  15.499  29.108   8.716
  882POPC   C2B16112  15.447  29.176   8.245
  882POPC   C3B16113  15.549  28.945   7.862
  882POPC   C4B16114  15.672  29.004   7.414
  883POPC   NC316115  15.718  35.519   9.440
  883POPC   PO416116  16.341  35.167   9.531
  883POPC   GL116117  16.009  35.152   9.206
  883POPC   GL216118  16.095  35.466   9.121
  883POPC   C1A16119  15.854  35.221   8.751
  883POPC   D2A16120  15.951  34.990   8.354
  883POPC   C3A16121  15.872  35.226   7.972
  883POPC   C4A16122  15.771  35.055   7.542
  883POPC   C1B16123  16.242  35.582   8.742
  883POPC   C2B16124  16.030  35.567   8.369
  883POPC   C3B16125  16.212  35.609   7.992
  883POPC   C4B16126  16.279  35.708   7.606
  884POPC   NC316127   4.742   3.052   9.329
  884POPC   PO416128   4.403   2.511   9.511
  884POPC   GL116129   4.321   2.708   9.152
  884POPC   GL216130   4.074   2.926   9.160
  884POPC   C1A16131   4.099   2.561   8.789
  884POPC   D2A16132   4.138   2.417   8.386
  884POPC   C3A16133   4.461   2.603   8.150
  884POPC   C4A16134   4.523   2.363   7.810
  884POPC   C1B16135   4.194   3.076   8.772
  884POPC   C2B16136   4.108   2.928   8.375
  884POPC   C3B16137   4.251   3.051   7.983
  884POPC   C4B16138   4.495   3.091   7.562
  885POPC   NC316139  39.821   1.681   9.597
  885POPC   PO416140  39.992   1.119   9.480
  885POPC   GL116141  40.119   1.393   9.171
  885POPC   GL216142  39.932   1.691   9.092
  885POPC   C1A16143  40.330   1.361   8.779
  885POPC   D2A16144  40.346   1.101   8.411
  885POPC   C3A16145  40.226   1.267   8.047
  885POPC   C4A16146  40.064   1.258   7.624
  885POPC   C1B16147  39.828   1.379   8.748
  885POPC   C2B16148  39.821   1.152   8.384
  885POPC   C3B16149  39.717   1.315   8.003
  885POPC   C4B16150  39.491   1.561   7.744
  886POPC   NC316151  31.029  36.857   9.398
  886POPC   PO416152  30.410  36.732   9.539
  886POPC   GL116153  30.368  36.511   9.148
  886POPC   GL216154  30.719  36.552   9.092
  886POPC   C1A16155  30.367  36.620   8.688
  886POPC   D2A16156  30.556  36.879   8.357
  886POPC   C3A16157  30.517  36.807   7.917
  886POPC   C4A16158  30.772  37.076   7.690
  886POPC   C1B16159  30.863  36.386   8.713
  886POPC   C2B16160  30.809  36.445   8.286
  886POPC   C3B16161  31.021  36.632   7.936
  886POPC   C4B16162  31.204  36.443   7.566
  887POPC   NC316163   1.056  40.998   9.507
  887POPC   PO416164   1.482  40.456   9.457
  887POPC   GL116165   1.328  40.700   9.119
  887POPC   GL216166   1.514  40.975   9.107
  887POPC   C1A16167   1.240  40.843   8.656
  887POPC   D2A16168   1.292  40.673   8.202
  887POPC   C3A16169   1.305  40.954   7.832
  887POPC   C4A16170   1.072  41.284   7.594
  887POPC   C1B16171   1.712  40.735   8.781
  887POPC   C2B16172   1.689  40.926   8.408
  887POPC   C3B16173   1.778  40.771   8.016
  887POPC   C4B16174   1.600  40.503   7.750
  888POPC   NC316175  33.601  10.493   9.602
  888POPC   PO416176  34.069  10.034   9.717
  888POPC   GL116177  33.781  10.230   9.235
  888POPC   GL216178  33.754  10.684   9.175
  888POPC   C1A16179  33.824  10.412   8.770
  888POPC   D2A16180  33.958  10.240   8.401
  888POPC   C3A16181  33.938  10.443   7.998
  888POPC   C4A16182  33.985  10.235   7.611
  888POPC   C1B16183  33.476  10.781   8.792
  888POPC   C2B16184  33.550  10.595   8.379
  888POPC   C3B16185  33.420  10.378   8.017
  888POPC   C4B16186  33.540  10.479   7.641
  889POPC   NC316187   0.037  13.688   9.646
  889POPC   PO416188  44.488  13.759   9.573
  889POPC   GL116189  44.595  13.650   9.144
  889POPC   GL216190  44.275  13.624   9.027
  889POPC   C1A16191  44.724  13.563   8.685
  889POPC   D2A16192  44.979  13.627   8.284
  889POPC   C3A16193  44.806  13.741   7.854
  889POPC   C4A16194  44.961  13.646   7.451
  889POPC   C1B16195  44.293  13.836   8.648
  889POPC   C2B16196  44.432  13.673   8.268
  889POPC   C3B16197  44.586  13.343   8.060
  889POPC   C4B16198  44.575  13.344   7.611
  890POPC   NC316199  34.839   2.323   9.516
  890POPC   PO416200  34.348   1.836   9.439
  890POPC   GL116201  34.609   1.955   9.122
  890POPC   GL216202  34.691   2.279   9.055
  890POPC   C1A16203  34.735   1.884   8.713
  890POPC   D2A16204  34.527   1.787   8.338
  890POPC   C3A16205  34.740   1.721   7.995
  890POPC   C4A16206  34.545   1.916   7.656
  890POPC   C1B16207  34.365   2.331   8.798
  890POPC   C2B16208  34.539   2.297   8.413
  890POPC   C3B16209  34.672   2.242   8.031
  890POPC   C4B16210  34.610   2.425   7.648
  891POPC   NC316211  19.136   6.407   9.558
  891POPC   PO416212  18.753   5.774   9.594
  891POPC   GL116213  19.005   5.920   9.290
  891POPC   GL216214  18.806   6.169   9.232
  891POPC   C1A16215  19.083   5.828   8.865
  891POPC   D2A16216  19.211   5.895   8.433
  891POPC   C3A16217  18.993   5.692   8.095
  891POPC   C4A16218  19.126   5.766   7.678
  891POPC   C1B16219  18.877   6.270   8.771
  891POPC   C2B16220  18.823   6.291   8.326
  891POPC   C3B16221  18.664   6.421   7.910
  891POPC   C4B16222  18.781   6.372   7.452
  892POPC   NC316223  17.946   9.222   9.749
  892POPC   PO416224  18.586   8.997   9.545
  892POPC   GL116225  18.621   9.013   9.102
  892POPC   GL216226  18.820   9.308   9.095
  892POPC   C1A16227  18.307   9.030   8.779
  892POPC   D2A16228  17.948   8.986   8.509
  892POPC   C3A16229  18.129   8.846   8.133
  892POPC   C4A16230  18.363   8.807   7.742
  892POPC   C1B16231  18.718   9.347   8.728
  892POPC   C2B16232  18.681   9.068   8.427
  892POPC   C3B16233  18.557   9.172   8.040
  892POPC   C4B16234  18.736   9.144   7.672
  893POPC   NC316235  35.020   5.207   9.517
  893POPC   PO416236  35.712   5.434   9.397
  893POPC   GL116237  35.710   5.112   9.054
  893POPC   GL216238  35.449   4.892   9.159
  893POPC   C1A16239  35.747   4.912   8.644
  893POPC   D2A16240  35.554   5.165   8.329
  893POPC   C3A16241  35.763   5.212   7.953
  893POPC   C4A16242  35.476   5.196   7.614
  893POPC   C1B16243  35.276   5.052   8.756
  893POPC   C2B16244  35.044   5.218   8.409
  893POPC   C3B16245  35.147   5.042   8.019
  893POPC   C4B16246  35.194   4.757   7.666
  894POPC   NC316247  14.665   2.712   9.417
  894POPC   PO416248  15.350   2.982   9.498
  894POPC   GL116249  15.261   2.927   9.078
  894POPC   GL216250  14.931   3.065   9.130
  894POPC   C1A16251  15.272   2.845   8.617
  894POPC   D2A16252  15.458   2.607   8.254
  894POPC   C3A16253  15.150   2.586   7.909
  894POPC   C4A16254  14.799   2.314   7.866
  894POPC   C1B16255  15.041   3.300   8.773
  894POPC   C2B16256  14.889   3.321   8.359
  894POPC   C3B16257  14.919   3.023   8.030
  894POPC   C4B16258  15.056   3.061   7.612
  895POPC   NC316259  43.579  19.988   9.406
  895POPC   PO416260  44.194  19.649   9.551
  895POPC   GL116261  43.957  19.721   9.190
  895POPC   GL216262  43.638  19.516   9.228
  895POPC   C1A16263  43.892  19.963   8.793
  895POPC   D2A16264  43.783  20.148   8.385
  895POPC   C3A16265  44.076  19.993   8.100
  895POPC   C4A16266  43.870  19.833   7.740
  895POPC   C1B16267  43.801  19.398   8.840
  895POPC   C2B16268  44.076  19.550   8.529
  895POPC   C3B16269  44.009  19.473   8.097
  895POPC   C4B16270  44.293  19.566   7.793
  896POPC   NC316271  10.907  44.629   9.408
  896POPC   PO416272  10.254  44.968   9.402
  896POPC   GL116273  10.498  44.767   9.079
  896POPC   GL216274  10.563  44.398   9.083
  896POPC   C1A16275  10.567  44.776   8.639
  896POPC   D2A16276  10.708  44.983   8.252
  896POPC   C3A16277  10.570  44.762   7.922
  896POPC   C4A16278  10.416  44.825   7.537
  896POPC   C1B16279  10.876  44.358   8.745
  896POPC   C2B16280  10.844  44.481   8.295
  896POPC   C3B16281  10.869  44.354   7.869
  896POPC   C4B16282  10.654  44.384   7.482
  897POPC   NC316283   5.959   8.299   9.493
  897POPC   PO416284   5.363   8.715   9.404
  897POPC   GL116285   5.620   8.479   9.161
  897POPC   GL216286   5.674   8.105   9.125
  897POPC   C1A16287   5.856   8.419   8.787
  897POPC   D2A16288   6.030   8.283   8.424
  897POPC   C3A16289   5.851   8.390   8.029
  897POPC   C4A16290   5.992   8.209   7.669
  897POPC   C1B16291   5.720   7.911   8.745
  897POPC   C2B16292   5.804   7.829   8.344
  897POPC   C3B16293   5.618   7.852   7.989
  897POPC   C4B16294   5.758   7.760   7.574
  898POPC   NC316295  26.364  26.558   9.535
  898POPC   PO416296  25.914  27.077   9.416
  898POPC   GL116297  26.199  26.917   9.149
  898POPC   GL216298  26.063  26.579   9.116
  898POPC   C1A16299  26.245  26.966   8.692
  898POPC   D2A16300  26.077  26.864   8.319
  898POPC   C3A16301  26.232  27.037   7.956
  898POPC   C4A16302  26.097  26.801   7.615
  898POPC   C1B16303  26.423  26.542   8.867
  898POPC   C2B16304  26.404  26.463   8.432
  898POPC   C3B16305  26.258  26.510   8.010
  898POPC   C4B16306  26.491  26.483   7.613
  899POPC   NC316307  22.604  25.122   9.616
  899POPC   PO416308  22.223  25.482   9.593
  899POPC   GL116309  22.366  25.406   9.171
  899POPC   GL216310  22.473  25.070   9.101
  899POPC   C1A16311  22.335  25.448   8.706
  899POPC   D2A16312  22.102  25.525   8.314
  899POPC   C3A16313  22.188  25.438   7.869
  899POPC   C4A16314  21.969  25.207   7.529
  899POPC   C1B16315  22.537  24.984   8.647
  899POPC   C2B16316  22.450  25.114   8.203
  899POPC   C3B16317  22.385  24.971   7.756
  899POPC   C4B16318  22.374  25.011   7.282
  900POPC   NC316319  36.407  18.064   9.660
  900POPC   PO416320  35.879  18.482   9.574
  900POPC   GL116321  36.128  18.307   9.191
  900POPC   GL216322  36.483  18.391   9.210
  900POPC   C1A16323  36.261  18.381   8.718
  900POPC   D2A16324  36.122  18.105   8.362
  900POPC   C3A16325  35.980  18.219   7.959
  900POPC   C4A16326  35.863  18.617   7.870
  900POPC   C1B16327  36.682  18.131   8.910
  900POPC   C2B16328  36.624  18.050   8.472
  900POPC   C3B16329  36.507  18.200   8.078
  900POPC   C4B16330  36.391  18.025   7.698
  901POPC   NC316331   2.746  43.354   9.812
  901POPC   PO416332   2.765  43.922   9.537
  901POPC   GL116333   2.882  43.968   9.097
  901POPC   GL216334   3.150  44.225   9.054
  901POPC   C1A16335   2.998  43.747   8.690
  901POPC   D2A16336   3.026  43.631   8.219
  901POPC   C3A16337   3.139  43.545   7.784
  901POPC   C4A16338   3.012  43.803   7.383
  901POPC   C1B16339   2.903  44.265   8.682
  901POPC   C2B16340   2.711  44.016   8.327
  901POPC   C3B16341   2.797  43.973   7.884
  901POPC   C4B16342   3.008  44.354   7.767
  902POPC   NC316343  20.424  32.214   9.437
  902POPC   PO416344  21.081  32.390   9.544
  902POPC   GL116345  20.910  32.229   9.179
  902POPC   GL216346  20.786  32.560   9.107
  902POPC   C1A16347  20.682  32.154   8.762
  902POPC   D2A16348  20.477  32.021   8.351
  902POPC   C3A16349  20.557  32.214   7.946
  902POPC   C4A16350  20.745  31.946   7.642
  902POPC   C1B16351  21.002  32.587   8.701
  902POPC   C2B16352  20.897  32.529   8.253
  902POPC   C3B16353  20.685  32.713   7.866
  902POPC   C4B16354  20.345  32.641   7.505
  903POPC   NC316355  23.342   1.041   9.420
  903POPC   PO416356  22.708   1.243   9.496
  903POPC   GL116357  22.861   1.398   9.081
  903POPC   GL216358  23.223   1.443   9.077
  903POPC   C1A16359  23.027   1.183   8.702
  903POPC   D2A16360  22.827   0.916   8.436
  903POPC   C3A16361  22.740   1.134   8.080
  903POPC   C4A16362  22.940   1.167   7.708
  903POPC   C1B16363  23.142   1.684   8.692
  903POPC   C2B16364  23.042   1.533   8.292
  903POPC   C3B16365  23.309   1.465   7.954
  903POPC   C4B16366  23.372   1.560   7.520
  904POPC   NC316367  41.025   9.957   9.424
  904POPC   PO416368  40.627   9.350   9.497
  904POPC   GL116369  40.768   9.604   9.151
  904POPC   GL216370  41.097   9.501   9.056
  904POPC   C1A16371  40.861   9.785   8.726
  904POPC   D2A16372  40.740   9.602   8.314
  904POPC   C3A16373  40.824   9.844   7.956
  904POPC   C4A16374  40.780   9.786   7.516
  904POPC   C1B16375  41.348   9.581   8.709
  904POPC   C2B16376  41.307   9.522   8.260
  904POPC   C3B16377  41.097   9.420   7.890
  904POPC   C4B16378  41.187   9.496   7.411
  905POPC   NC316379  23.175   2.647   9.475
  905POPC   PO416380  22.539   2.894   9.625
  905POPC   GL116381  22.706   2.720   9.251
  905POPC   GL216382  22.925   2.992   9.183
  905POPC   C1A16383  22.719   2.716   8.794
  905POPC   D2A16384  22.595   2.821   8.391
  905POPC   C3A16385  22.823   2.660   8.043
  905POPC   C4A16386  22.764   2.727   7.607
  905POPC   C1B16387  23.196   2.920   8.810
  905POPC   C2B16388  23.138   2.998   8.360
  905POPC   C3B16389  23.299   2.871   7.969
  905POPC   C4B16390  23.245   2.928   7.546
  906POPC   NC316391  23.501  44.321   9.565
  906POPC   PO416392  23.894  44.887   9.688
  906POPC   GL116393  23.827  44.558   9.288
  906POPC   GL216394  23.518  44.630   9.147
  906POPC   C1A16395  23.921  44.415   8.875
  906POPC   D2A16396  24.022  44.690   8.566
  906POPC   C3A16397  24.082  44.513   8.156
  906POPC   C4A16398  23.922  44.642   7.764
  906POPC   C1B16399  23.413  44.808   8.720
  906POPC   C2B16400  23.606  44.937   8.322
  906POPC   C3B16401  23.523  44.948   7.884
  906POPC   C4B16402  23.214  44.949   7.548
  907POPC   NC316403  11.427   0.121   9.802
  907POPC   PO416404  11.320  44.473   9.651
  907POPC   GL116405  11.376  44.449   9.236
  907POPC   GL216406  11.544  44.768   9.173
  907POPC   C1A16407  11.395  44.391   8.817
  907POPC   D2A16408  11.339  44.582   8.450
  907POPC   C3A16409  11.505  44.407   8.112
  907POPC   C4A16410  11.335  44.465   7.722
  907POPC   C1B16411  11.251  44.895   8.862
  907POPC   C2B16412  11.164   0.047   8.451
  907POPC   C3B16413  11.246  44.899   8.016
  907POPC   C4B16414  11.584   0.141   7.803
  908POPC   NC316415  21.292  42.834   9.541
  908POPC   PO416416  21.652  43.455   9.401
  908POPC   GL116417  21.472  43.418   9.043
  908POPC   GL216418  21.167  43.213   9.081
  908POPC   C1A16419  21.478  43.213   8.641
  908POPC   D2A16420  21.473  43.233   8.197
  908POPC   C3A16421  21.655  42.903   7.997
  908POPC   C4A16422  21.630  42.861   7.585
  908POPC   C1B16423  21.235  42.814   8.844
  908POPC   C2B16424  21.369  42.734   8.406
  908POPC   C3B16425  21.156  42.696   8.017
  908POPC   C4B16426  21.170  43.026   7.768
  909POPC   NC316427  38.961  23.445   9.659
  909POPC   PO416428  39.124  22.739   9.527
  909POPC   GL116429  39.352  22.991   9.269
  909POPC   GL216430  39.476  22.703   9.109
  909POPC   C1A16431  39.249  23.204   8.904
  909POPC   D2A16432  39.364  23.166   8.503
  909POPC   C3A16433  39.238  23.348   8.125
  909POPC   C4A16434  39.063  23.080   7.820
  909POPC   C1B16435  39.171  22.724   8.763
  909POPC   C2B16436  38.988  22.489   8.445
  909POPC   C3B16437  39.056  22.583   8.002
  909POPC   C4B16438  38.941  22.381   7.634
  910POPC   NC316439  20.914  12.438   9.416
  910POPC   PO416440  20.316  12.557   9.360
  910POPC   GL116441  20.555  12.751   8.965
  910POPC   GL216442  20.868  12.689   8.986
  910POPC   C1A16443  20.814  12.963   8.583
  910POPC   D2A16444  20.702  13.132   8.176
  910POPC   C3A16445  20.379  12.924   7.880
  910POPC   C4A16446  20.242  12.889   7.423
  910POPC   C1B16447  20.838  12.449   8.651
  910POPC   C2B16448  20.633  12.609   8.259
  910POPC   C3B16449  20.887  12.746   7.901
  910POPC   C4B16450  21.174  12.363   7.819
  911POPC   NC316451  40.869  10.658   9.411
  911POPC   PO416452  40.558  10.061   9.496
  911POPC   GL116453  40.467  10.401   9.197
  911POPC   GL216454  40.814  10.299   9.070
  911POPC   C1A16455  40.484  10.705   8.828
  911POPC   D2A16456  40.712  10.623   8.431
  911POPC   C3A16457  40.716  10.833   8.048
  911POPC   C4A16458  40.790  10.798   7.618
  911POPC   C1B16459  40.584  10.212   8.745
  911POPC   C2B16460  40.701  10.126   8.362
  911POPC   C3B16461  40.608  10.327   7.989
  911POPC   C4B16462  40.425  10.064   7.730
  912POPC   NC316463   7.143  15.948   9.560
  912POPC   PO416464   7.708  16.254   9.530
  912POPC   GL116465   7.596  16.028   9.140
  912POPC   GL216466   7.245  15.999   9.068
  912POPC   C1A16467   7.568  15.885   8.701
  912POPC   D2A16468   7.281  15.880   8.362
  912POPC   C3A16469   7.519  16.095   8.061
  912POPC   C4A16470   7.505  15.974   7.606
  912POPC   C1B16471   7.142  16.269   8.696
  912POPC   C2B16472   7.081  16.358   8.234
  912POPC   C3B16473   7.063  16.064   7.865
  912POPC   C4B16474   7.099  16.199   7.413
  913POPC   NC316475   2.519   5.565   9.474
  913POPC   PO416476   2.991   5.916   9.408
  913POPC   GL116477   2.862   5.796   9.030
  913POPC   GL216478   3.107   5.524   9.050
  913POPC   C1A16479   2.723   6.032   8.650
  913POPC   D2A16480   2.845   6.070   8.219
  913POPC   C3A16481   2.543   5.881   7.974
  913POPC   C4A16482   2.543   5.732   7.530
  913POPC   C1B16483   2.933   5.408   8.667
  913POPC   C2B16484   2.821   5.565   8.317
  913POPC   C3B16485   3.055   5.668   7.960
  913POPC   C4B16486   2.969   5.975   7.705
  914POPC   NC316487  29.295   0.266   9.674
  914POPC   PO416488  29.349   0.882   9.443
  914POPC   GL116489  29.325   0.602   9.082
  914POPC   GL216490  29.306   0.268   9.123
  914POPC   C1A16491  29.322   0.450   8.627
  914POPC   D2A16492  29.469   0.158   8.304
  914POPC   C3A16493  29.293   0.251   7.917
  914POPC   C4A16494  29.418   0.622   7.736
  914POPC   C1B16495  28.936   0.189   8.802
  914POPC   C2B16496  28.938   0.215   8.361
  914POPC   C3B16497  28.762   0.280   7.998
  914POPC   C4B16498  28.758   0.001   7.706
  915POPC   NC316499  29.500   1.817   9.512
  915POPC   PO416500  28.873   2.022   9.427
  915POPC   GL116501  28.902   2.089   9.013
  915POPC   GL216502  29.260   2.007   9.061
  915POPC   C1A16503  28.980   1.917   8.599
  915POPC   D2A16504  29.117   1.626   8.283
  915POPC   C3A16505  28.958   1.803   7.924
  915POPC   C4A16506  28.989   2.236   7.881
  915POPC   C1B16507  29.332   2.263   8.702
  915POPC   C2B16508  29.341   2.108   8.264
  915POPC   C3B16509  29.487   2.196   7.850
  915POPC   C4B16510  29.406   2.534   7.605
  916POPC   NC316511  32.302  29.452   9.389
  916POPC   PO416512  32.306  30.123   9.654
  916POPC   GL116513  32.231  29.984   9.205
  916POPC   GL216514  31.917  30.144   9.112
  916POPC   C1A16515  32.315  29.830   8.759
  916POPC   D2A16516  32.378  29.587   8.364
  916POPC   C3A16517  32.390  29.849   8.022
  916POPC   C4A16518  32.321  29.967   7.632
  916POPC   C1B16519  31.785  29.982   8.723
  916POPC   C2B16520  31.945  29.874   8.328
  916POPC   C3B16521  31.900  29.743   7.917
  916POPC   C4B16522  31.844  29.939   7.499
  917POPC   NC316523   4.620  10.255   9.688
  917POPC   PO416524   4.288   9.618   9.509
  917POPC   GL116525   4.531   9.859   9.243
  917POPC   GL216526   4.204   9.844   9.047
  917POPC   C1A16527   4.649   9.997   8.811
  917POPC   D2A16528   4.407   9.993   8.381
  917POPC   C3A16529   4.584   9.823   7.972
  917POPC   C4A16530   4.381   9.475   7.824
  917POPC   C1B16531   3.865   9.807   8.720
  917POPC   C2B16532   3.777   9.710   8.266
  917POPC   C3B16533   4.046   9.865   7.911
  917POPC   C4B16534   4.262  10.134   7.620
  918POPC   NC316535  27.881  42.100   9.646
  918POPC   PO416536  27.272  42.286   9.467
  918POPC   GL116537  27.649  42.482   9.307
  918POPC   GL216538  27.763  42.192   9.142
  918POPC   C1A16539  27.688  42.631   8.880
  918POPC   D2A16540  27.495  42.670   8.464
  918POPC   C3A16541  27.581  42.461   8.041
  918POPC   C4A16542  27.833  42.120   7.859
  918POPC   C1B16543  27.478  42.183   8.782
  918POPC   C2B16544  27.479  42.065   8.353
  918POPC   C3B16545  27.345  42.009   7.914
  918POPC   C4B16546  27.460  41.814   7.520
  919POPC   NC316547   2.296   1.086   9.568
  919POPC   PO416548   1.593   0.997   9.569
  919POPC   GL116549   1.875   1.037   9.182
  919POPC   GL216550   2.174   1.251   9.115
  919POPC   C1A16551   1.801   1.252   8.773
  919POPC   D2A16552   1.573   1.386   8.432
  919POPC   C3A16553   1.671   1.227   8.042
  919POPC   C4A16554   1.818   1.161   7.646
  919POPC   C1B16555   2.331   1.386   8.720
  919POPC   C2B16556   2.088   1.407   8.343
  919POPC   C3B16557   2.170   1.474   7.920
  919POPC   C4B16558   2.337   1.183   7.677
  920POPC   NC316559  43.683  39.437   9.671
  920POPC   PO416560  44.079  39.510   9.282
  920POPC   GL116561  43.931  39.189   9.045
  920POPC   GL216562  43.686  39.052   9.276
  920POPC   C1A16563  43.835  39.190   8.615
  920POPC   D2A16564  43.706  39.477   8.269
  920POPC   C3A16565  43.971  39.386   7.921
  920POPC   C4A16566  44.018  39.007   7.670
  920POPC   C1B16567  43.424  39.064   8.890
  920POPC   C2B16568  43.383  39.076   8.409
  920POPC   C3B16569  43.557  39.087   7.962
  920POPC   C4B16570  43.585  39.295   7.539
  921POPC   NC316571  35.833  26.544   9.495
  921POPC   PO416572  35.246  26.782   9.827
  921POPC   GL116573  35.208  26.798   9.245
  921POPC   GL216574  35.523  26.896   9.092
  921POPC   C1A16575  35.265  26.584   8.793
  921POPC   D2A16576  35.167  26.402   8.375
  921POPC   C3A16577  35.217  26.688   8.035
  921POPC   C4A16578  35.149  27.050   7.777
  921POPC   C1B16579  35.550  27.069   8.656
  921POPC   C2B16580  35.511  27.126   8.191
  921POPC   C3B16581  35.645  26.910   7.801
  921POPC   C4B16582  35.380  26.637   7.524
  922POPC   NC316583  12.671   6.902   9.351
  922POPC   PO416584  13.086   6.358   9.543
  922POPC   GL116585  13.021   6.553   9.158
  922POPC   GL216586  12.666   6.540   9.009
  922POPC   C1A16587  13.064   6.718   8.751
  922POPC   D2A16588  12.792   6.721   8.399
  922POPC   C3A16589  13.028   6.864   8.064
  922POPC   C4A16590  13.298   6.619   7.879
  922POPC   C1B16591  12.826   6.255   8.725
  922POPC   C2B16592  12.712   6.191   8.310
  922POPC   C3B16593  12.791   6.430   7.933
  922POPC   C4B16594  12.772   6.354   7.478
  923POPC   NC316595  20.029  29.943   9.609
  923POPC   PO416596  19.438  29.824   9.416
  923POPC   GL116597  19.795  29.883   9.147
  923POPC   GL216598  20.163  29.727   9.173
  923POPC   C1A16599  19.680  29.980   8.734
  923POPC   D2A16600  19.762  30.230   8.400
  923POPC   C3A16601  19.643  30.193   7.983
  923POPC   C4A16602  19.883  30.260   7.639
  923POPC   C1B16603  20.174  29.789   8.748
  923POPC   C2B16604  19.984  29.758   8.365
  923POPC   C3B16605  20.051  29.868   7.951
  923POPC   C4B16606  20.021  29.591   7.587
  924POPC   NC316607  38.588  19.705   9.574
  924POPC   PO416608  37.931  19.794   9.727
  924POPC   GL116609  38.198  19.908   9.292
  924POPC   GL216610  38.543  20.010   9.185
  924POPC   C1A16611  38.236  19.948   8.802
  924POPC   D2A16612  38.378  19.783   8.397
  924POPC   C3A16613  38.265  19.753   7.983
  924POPC   C4A16614  38.514  19.569   7.701
  924POPC   C1B16615  38.739  19.861   8.808
  924POPC   C2B16616  38.905  19.965   8.420
  924POPC   C3B16617  38.752  19.882   8.042
  924POPC   C4B16618  38.516  20.093   7.688
  925POPC   NC316619   9.548  34.929   9.566
  925POPC   PO416620   9.941  34.396   9.457
  925POPC   GL116621   9.665  34.468   9.145
  925POPC   GL216622   9.390  34.257   9.094
  925POPC   C1A16623   9.735  34.356   8.718
  925POPC   D2A16624   9.959  34.256   8.342
  925POPC   C3A16625   9.868  34.603   8.058
  925POPC   C4A16626  10.073  34.866   7.768
  925POPC   C1B16627   9.223  34.306   8.706
  925POPC   C2B16628   9.389  34.478   8.336
  925POPC   C3B16629   9.444  34.336   7.932
  925POPC   C4B16630   9.319  34.506   7.551
  926POPC   NC316631  29.670  43.491   9.384
  926POPC   PO416632  29.550  42.837   9.605
  926POPC   GL116633  29.586  42.891   9.171
  926POPC   GL216634  29.907  43.063   9.184
  926POPC   C1A16635  29.645  43.156   8.770
  926POPC   D2A16636  29.815  43.352   8.435
  926POPC   C3A16637  29.848  43.048   8.130
  926POPC   C4A16638  29.750  43.243   7.766
  926POPC   C1B16639  30.144  43.265   8.843
  926POPC   C2B16640  30.300  43.189   8.419
  926POPC   C3B16641  30.260  43.319   7.981
  926POPC   C4B16642  30.209  42.955   7.726
  927POPC   NC316643  40.682  31.807   9.629
  927POPC   PO416644  41.008  32.367   9.721
  927POPC   GL116645  40.939  32.311   9.243
  927POPC   GL216646  40.735  32.036   9.181
  927POPC   C1A16647  40.936  32.269   8.770
  927POPC   D2A16648  41.105  32.098   8.383
  927POPC   C3A16649  41.049  32.354   8.019
  927POPC   C4A16650  40.678  32.438   7.769
  927POPC   C1B16651  40.481  31.877   8.849
  927POPC   C2B16652  40.600  31.775   8.440
  927POPC   C3B16653  40.617  32.044   8.110
  927POPC   C4B16654  40.404  31.983   7.757
  928POPC   NC316655   4.070  37.092   9.363
  928POPC   PO416656   4.661  37.022   9.677
  928POPC   GL116657   4.677  37.008   9.213
  928POPC   GL216658   4.483  37.294   9.089
  928POPC   C1A16659   4.487  36.864   8.827
  928POPC   D2A16660   4.283  36.946   8.471
  928POPC   C3A16661   4.366  36.722   8.126
  928POPC   C4A16662   4.506  36.859   7.758
  928POPC   C1B16663   4.162  37.356   8.748
  928POPC   C2B16664   3.911  37.293   8.381
  928POPC   C3B16665   4.071  37.114   8.019
  928POPC   C4B16666   3.883  37.219   7.674
  929POPC   NC316667  26.586   0.104   9.542
  929POPC   PO416668  26.897   0.736   9.458
  929POPC   GL116669  26.635   0.579   9.105
  929POPC   GL216670  26.883   0.383   8.948
  929POPC   C1A16671  26.492   0.560   8.657
  929POPC   D2A16672  26.858   0.413   8.384
  929POPC   C3A16673  27.013   0.616   7.978
  929POPC   C4A16674  26.752   0.677   7.633
  929POPC   C1B16675  26.582   0.069   8.745
  929POPC   C2B16676  26.412   0.029   8.324
  929POPC   C3B16677  26.614   0.222   7.961
  929POPC   C4B16678  27.048   0.126   7.886
  930POPC   NC316679   3.351   8.435   9.402
  930POPC   PO416680   3.916   8.154   9.572
  930POPC   GL116681   3.809   8.338   9.156
  930POPC   GL216682   3.626   8.018   9.076
  930POPC   C1A16683   3.580   8.358   8.720
  930POPC   D2A16684   3.721   8.156   8.332
  930POPC   C3A16685   3.502   8.261   7.935
  930POPC   C4A16686   3.280   8.537   7.679
  930POPC   C1B16687   3.367   7.879   8.714
  930POPC   C2B16688   3.243   7.986   8.279
  930POPC   C3B16689   3.200   7.864   7.831
  930POPC   C4B16690   3.273   8.072   7.409
  931POPC   NC316691  16.475  11.438   9.631
  931POPC   PO416692  16.696  10.837   9.563
  931POPC   GL116693  16.524  11.058   9.204
  931POPC   GL216694  16.633  11.421   9.154
  931POPC   C1A16695  16.636  11.061   8.759
  931POPC   D2A16696  16.634  11.339   8.415
  931POPC   C3A16697  16.722  11.060   8.061
  931POPC   C4A16698  16.591  11.059   7.644
  931POPC   C1B16699  16.927  11.458   8.848
  931POPC   C2B16700  17.138  11.227   8.522
  931POPC   C3B16701  17.216  11.226   8.085
  931POPC   C4B16702  16.946  11.419   7.760
  932POPC   NC316703  38.469  43.702   9.571
  932POPC   PO416704  38.469  43.030   9.763
  932POPC   GL116705  38.568  43.141   9.319
  932POPC   GL216706  38.732  43.449   9.205
  932POPC   C1A16707  38.402  43.184   8.892
  932POPC   D2A16708  38.549  43.060   8.487
  932POPC   C3A16709  38.456  43.213   8.100
  932POPC   C4A16710  38.482  42.974   7.728
  932POPC   C1B16711  38.855  43.417   8.757
  932POPC   C2B16712  39.073  43.395   8.349
  932POPC   C3B16713  38.955  43.313   7.914
  932POPC   C4B16714  38.622  43.467   7.683
  933POPC   NC316715  12.626  43.128   9.540
  933POPC   PO416716  13.256  43.111   9.490
  933POPC   GL116717  12.966  43.317   9.197
  933POPC   GL216718  12.880  42.980   9.112
  933POPC   C1A16719  12.763  43.343   8.772
  933POPC   D2A16720  12.597  43.177   8.355
  933POPC   C3A16721  12.812  43.266   7.950
  933POPC   C4A16722  12.710  42.974   7.624
  933POPC   C1B16723  13.204  43.099   8.793
  933POPC   C2B16724  13.105  43.108   8.358
  933POPC   C3B16725  13.180  42.910   7.947
  933POPC   C4B16726  13.257  43.046   7.549
  934POPC   NC316727  37.632  11.844   9.285
  934POPC   PO416728  37.686  12.560   9.411
  934POPC   GL116729  37.876  12.330   9.121
  934POPC   GL216730  37.513  12.275   9.029
  934POPC   C1A16731  37.912  12.156   8.725
  934POPC   D2A16732  37.814  11.888   8.391
  934POPC   C3A16733  37.747  12.048   7.959
  934POPC   C4A16734  37.774  11.773   7.629
  934POPC   C1B16735  37.377  12.093   8.672
  934POPC   C2B16736  37.317  11.981   8.271
  934POPC   C3B16737  37.190  11.808   7.917
  934POPC   C4B16738  37.298  11.904   7.540
  935POPC   NC316739   3.078  19.325   9.504
  935POPC   PO416740   2.555  18.906   9.703
  935POPC   GL116741   2.625  19.105   9.249
  935POPC   GL216742   2.952  19.095   9.076
  935POPC   C1A16743   2.568  18.940   8.800
  935POPC   D2A16744   2.440  18.865   8.380
  935POPC   C3A16745   2.569  19.045   8.008
  935POPC   C4A16746   2.841  18.864   7.754
  935POPC   C1B16747   3.003  19.355   8.706
  935POPC   C2B16748   2.874  19.371   8.281
  935POPC   C3B16749   2.987  19.336   7.858
  935POPC   C4B16750   3.229  19.353   7.464
  936POPC   NC316751  12.368   0.182   9.467
  936POPC   PO416752  11.768   0.367   9.616
  936POPC   GL116753  11.929   0.450   9.217
  936POPC   GL216754  11.942   0.118   9.072
  936POPC   C1A16755  12.034   0.605   8.822
  936POPC   D2A16756  12.100   0.352   8.455
  936POPC   C3A16757  12.151   0.554   8.064
  936POPC   C4A16758  11.960   0.468   7.661
  936POPC   C1B16759  12.288  44.990   8.784
  936POPC   C2B16760  12.261  44.859   8.357
  936POPC   C3B16761  12.138   0.056   7.981
  936POPC   C4B16762  12.417   0.278   7.711
  937POPC   NC316763   7.831  23.520   9.487
  937POPC   PO416764   8.507  23.609   9.447
  937POPC   GL116765   8.193  23.473   9.114
  937POPC   GL216766   8.363  23.763   8.967
  937POPC   C1A16767   8.032  23.563   8.643
  937POPC   D2A16768   8.277  23.582   8.236
  937POPC   C3A16769   8.117  23.438   7.822
  937POPC   C4A16770   7.815  23.549   7.484
  937POPC   C1B16771   8.728  23.772   8.679
  937POPC   C2B16772   8.732  23.837   8.224
  937POPC   C3B16773   8.490  23.848   7.836
  937POPC   C4B16774   8.068  23.952   7.692
  938POPC   NC316775   2.032  21.395   9.594
  938POPC   PO416776   2.404  21.794   9.198
  938POPC   GL116777   2.193  21.374   9.116
  938POPC   GL216778   1.781  21.297   9.150
  938POPC   C1A16779   2.128  21.084   8.801
  938POPC   D2A16780   2.372  20.956   8.456
  938POPC   C3A16781   2.333  21.266   8.173
  938POPC   C4A16782   2.181  21.391   7.791
  938POPC   C1B16783   1.597  21.443   8.735
  938POPC   C2B16784   1.830  21.458   8.286
  938POPC   C3B16785   1.689  21.413   7.822
  938POPC   C4B16786   1.553  21.469   7.365
  939POPC   NC316787  43.394   1.733   9.353
  939POPC   PO416788  43.087   2.296   9.355
  939POPC   GL116789  43.009   2.142   8.978
  939POPC   GL216790  42.671   2.257   8.920
  939POPC   C1A16791  43.196   1.847   8.688
  939POPC   D2A16792  43.422   1.770   8.291
  939POPC   C3A16793  43.260   1.964   7.929
  939POPC   C4A16794  43.378   2.354   7.709
  939POPC   C1B16795  42.691   1.994   8.579
  939POPC   C2B16796  42.976   2.165   8.298
  939POPC   C3B16797  42.856   2.324   7.874
  939POPC   C4B16798  42.646   2.381   7.467
  940POPC   NC316799   9.796  44.217   9.475
  940POPC   PO416800   9.662  43.605   9.551
  940POPC   GL116801   9.614  43.808   9.157
  940POPC   GL216802   9.398  44.097   9.150
  940POPC   C1A16803   9.686  43.588   8.755
  940POPC   D2A16804   9.786  43.404   8.373
  940POPC   C3A16805   9.712  43.652   8.025
  940POPC   C4A16806   9.649  43.503   7.633
  940POPC   C1B16807   9.694  44.111   8.755
  940POPC   C2B16808   9.838  44.229   8.345
  940POPC   C3B16809   9.713  44.264   7.926
  940POPC   C4B16810   9.685  44.022   7.549
  941POPC   NC316811  11.107  17.275   9.361
  941POPC   PO416812  10.791  17.866   9.476
  941POPC   GL116813  11.066  17.743   9.096
  941POPC   GL216814  11.438  17.835   9.072
  941POPC   C1A16815  11.170  17.533   8.699
  941POPC   D2A16816  10.946  17.573   8.291
  941POPC   C3A16817  11.142  17.437   7.906
  941POPC   C4A16818  11.562  17.298   7.923
  941POPC   C1B16819  11.511  17.925   8.641
  941POPC   C2B16820  11.636  17.807   8.241
  941POPC   C3B16821  11.514  17.827   7.825
  941POPC   C4B16822  11.148  17.868   7.594
  942POPC   NC316823  30.859  18.819   9.448
  942POPC   PO416824  31.254  19.257   9.061
  942POPC   GL116825  31.072  18.842   8.981
  942POPC   GL216826  30.771  19.015   8.999
  942POPC   C1A16827  30.819  18.651   8.625
  942POPC   D2A16828  30.590  18.831   8.258
  942POPC   C3A16829  30.818  18.953   7.858
  942POPC   C4A16830  30.848  19.211   7.458
  942POPC   C1B16831  30.590  19.164   8.642
  942POPC   C2B16832  30.629  19.338   8.214
  942POPC   C3B16833  30.431  19.268   7.808
  942POPC   C4B16834  30.304  19.288   7.384
  943POPC   NC316835  24.167   2.688   9.357
  943POPC   PO416836  23.511   3.028   9.435
  943POPC   GL116837  23.753   2.838   9.107
  943POPC   GL216838  24.016   3.065   8.978
  943POPC   C1A16839  23.924   2.634   8.734
  943POPC   D2A16840  23.635   2.634   8.380
  943POPC   C3A16841  23.826   2.737   7.995
  943POPC   C4A16842  23.618   2.609   7.640
  943POPC   C1B16843  23.663   3.078   8.658
  943POPC   C2B16844  23.636   3.151   8.236
  943POPC   C3B16845  23.818   3.243   7.861
  943POPC   C4B16846  23.958   2.989   7.553
  944POPC   NC316847  35.129  25.949   9.411
  944POPC   PO416848  34.549  26.267   9.643
  944POPC   GL116849  34.729  26.106   9.168
  944POPC   GL216850  34.861  25.812   9.021
  944POPC   C1A16851  34.788  26.204   8.694
  944POPC   D2A16852  34.650  26.402   8.287
  944POPC   C3A16853  34.662  26.129   7.944
  944POPC   C4A16854  34.279  25.879   7.798
  944POPC   C1B16855  34.468  25.804   8.820
  944POPC   C2B16856  34.465  25.869   8.375
  944POPC   C3B16857  34.726  25.656   8.064
  944POPC   C4B16858  34.701  25.669   7.630
  945POPC   NC316859  39.701  29.115   9.582
  945POPC   PO416860  40.368  29.308   9.528
  945POPC   GL116861  40.050  29.250   9.188
  945POPC   GL216862  39.801  28.982   9.115
  945POPC   C1A16863  39.984  29.276   8.742
  945POPC   D2A16864  39.811  29.323   8.376
  945POPC   C3A16865  40.078  29.301   8.028
  945POPC   C4A16866  39.752  29.208   7.762
  945POPC   C1B16867  39.948  28.786   8.754
  945POPC   C2B16868  40.089  28.881   8.376
  945POPC   C3B16869  39.922  28.786   7.998
  945POPC   C4B16870  40.192  28.890   7.715
  946POPC   NC316871  12.402  36.385   9.580
  946POPC   PO416872  11.818  36.792   9.610
  946POPC   GL116873  12.100  36.733   9.282
  946POPC   GL216874  12.188  37.084   9.196
  946POPC   C1A16875  11.892  36.702   8.867
  946POPC   D2A16876  11.876  36.891   8.450
  946POPC   C3A16877  11.667  36.645   8.164
  946POPC   C4A16878  11.767  36.588   7.761
  946POPC   C1B16879  12.233  37.082   8.766
  946POPC   C2B16880  12.293  37.216   8.360
  946POPC   C3B16881  12.301  37.102   7.969
  946POPC   C4B16882  12.421  36.874   7.620
  947POPC   NC316883  28.020  44.452   9.522
  947POPC   PO416884  28.488  44.886   9.681
  947POPC   GL116885  28.418  44.715   9.264
  947POPC   GL216886  28.639  44.947   9.139
  947POPC   C1A16887  28.339  44.551   8.838
  947POPC   D2A16888  28.422  44.286   8.476
  947POPC   C3A16889  28.220  44.457   8.110
  947POPC   C4A16890  28.362  44.542   7.686
  947POPC   C1B16891  28.417   0.056   8.807
  947POPC   C2B16892  28.211  44.879   8.441
  947POPC   C3B16893  28.362  44.934   8.027
  947POPC   C4B16894  28.251   0.030   7.586
  948POPC   NC316895  20.258  31.483   9.294
  948POPC   PO416896  19.658  31.397   9.574
  948POPC   GL116897  19.755  31.523   9.190
  948POPC   GL216898  19.628  31.232   9.096
  948POPC   C1A16899  19.888  31.501   8.737
  948POPC   D2A16900  20.072  31.691   8.380
  948POPC   C3A16901  19.855  31.541   8.044
  948POPC   C4A16902  19.892  31.624   7.613
  948POPC   C1B16903  19.453  31.077   8.754
  948POPC   C2B16904  19.680  31.124   8.410
  948POPC   C3B16905  19.511  31.127   8.045
  948POPC   C4B16906  19.713  31.148   7.704
  949POPC   NC316907  43.618  27.269   9.386
  949POPC   PO416908  43.071  27.584   9.614
  949POPC   GL116909  42.993  27.569   9.130
  949POPC   GL216910  42.737  27.791   9.076
  949POPC   C1A16911  43.199  27.703   8.707
  949POPC   D2A16912  43.520  27.712   8.394
  949POPC   C3A16913  43.268  27.819   8.033
  949POPC   C4A16914  42.983  27.565   7.791
  949POPC   C1B16915  42.699  27.629   8.715
  949POPC   C2B16916  42.880  27.670   8.315
  949POPC   C3B16917  42.734  27.947   8.000
  949POPC   C4B16918  42.493  27.794   7.701
  950POPC   NC316919  10.120  34.777   9.259
  950POPC   PO416920  10.722  34.693   9.348
  950POPC   GL116921  10.494  34.440   9.046
  950POPC   GL216922  10.169  34.292   9.011
  950POPC   C1A16923  10.376  34.608   8.636
  950POPC   D2A16924  10.671  34.771   8.323
  950POPC   C3A16925  10.548  34.698   7.885
  950POPC   C4A16926  10.495  34.966   7.494
  950POPC   C1B16927  10.389  34.104   8.662
  950POPC   C2B16928  10.488  34.275   8.255
  950POPC   C3B16929  10.251  34.292   7.884
  950POPC   C4B16930  10.357  34.307   7.475
  951POPC   NC316931  42.681  19.423   9.538
  951POPC   PO416932  42.110  19.043   9.550
  951POPC   GL116933  42.370  19.102   9.209
  951POPC   GL216934  42.545  18.742   9.185
  951POPC   C1A16935  42.279  19.360   8.831
  951POPC   D2A16936  42.385  19.527   8.421
  951POPC   C3A16937  42.244  19.299   8.049
  951POPC   C4A16938  42.408  19.205   7.604
  951POPC   C1B16939  42.445  18.878   8.762
  951POPC   C2B16940  42.385  18.707   8.356
  951POPC   C3B16941  42.501  18.850   7.962
  951POPC   C4B16942  42.647  18.746   7.574
  952POPC   NC316943  19.678  28.225   9.600
  952POPC   PO416944  20.072  28.793   9.536
  952POPC   GL116945  19.858  28.534   9.172
  952POPC   GL216946  19.693  28.196   9.113
  952POPC   C1A16947  20.042  28.317   8.756
  952POPC   D2A16948  20.168  28.403   8.302
  952POPC   C3A16949  20.064  28.521   7.854
  952POPC   C4A16950  19.722  28.696   7.580
  952POPC   C1B16951  19.549  28.406   8.763
  952POPC   C2B16952  19.671  28.189   8.414
  952POPC   C3B16953  19.820  28.105   8.037
  952POPC   C4B16954  19.547  28.220   7.734
  953POPC   NC316955  44.021  32.321   9.629
  953POPC   PO416956  43.597  32.721   9.461
  953POPC   GL116957  44.003  32.663   9.222
  953POPC   GL216958  44.108  32.979   9.085
  953POPC   C1A16959  44.146  32.549   8.790
  953POPC   D2A16960  43.871  32.608   8.422
  953POPC   C3A16961  43.963  32.761   8.006
  953POPC   C4A16962  43.680  32.899   7.669
  953POPC   C1B16963  44.068  33.057   8.624
  953POPC   C2B16964  44.226  33.156   8.198
  953POPC   C3B16965  44.404  32.981   7.797
  953POPC   C4B16966  44.543  33.027   7.353
  954POPC   NC316967  44.138  31.770   9.427
  954POPC   PO416968  43.604  32.096   9.663
  954POPC   GL116969  43.677  32.255   9.224
  954POPC   GL216970  44.024  32.160   9.146
  954POPC   C1A16971  43.725  32.237   8.756
  954POPC   D2A16972  43.625  31.978   8.399
  954POPC   C3A16973  43.691  32.258   8.090
  954POPC   C4A16974  43.807  32.395   7.700
  954POPC   C1B16975  44.193  32.031   8.779
  954POPC   C2B16976  44.135  32.152   8.362
  954POPC   C3B16977  44.146  32.074   7.922
  954POPC   C4B16978  44.251  32.244   7.534
  955POPC   NC316979  25.036  33.845   9.261
  955POPC   PO416980  25.580  34.110   9.570
  955POPC   GL116981  25.545  33.784   9.169
  955POPC   GL216982  25.316  33.459   9.094
  955POPC   C1A16983  25.332  33.782   8.711
  955POPC   D2A16984  25.215  33.582   8.329
  955POPC   C3A16985  25.396  33.835   8.008
  955POPC   C4A16986  25.400  33.938   7.565
  955POPC   C1B16987  25.608  33.347   8.805
  955POPC   C2B16988  25.562  33.200   8.401
  955POPC   C3B16989  25.583  33.352   8.009
  955POPC   C4B16990  25.264  33.445   7.725
  956POPC   NC316991  28.119  34.913   9.514
  956POPC   PO416992  28.347  34.266   9.369
  956POPC   GL116993  28.188  34.577   9.142
  956POPC   GL216994  28.498  34.802   9.182
  956POPC   C1A16995  27.991  34.519   8.737
  956POPC   D2A16996  28.290  34.512   8.403
  956POPC   C3A16997  28.174  34.555   8.002
  956POPC   C4A16998  28.180  34.788   7.628
  956POPC   C1B16999  28.589  34.538   8.826
  956POPC   C2B17000  28.804  34.585   8.463
  956POPC   C3B17001  28.677  34.694   8.073
  956POPC   C4B17002  28.840  34.613   7.721
  957POPC   NC317003  11.084  29.472   9.344
  957POPC   PO417004  11.549  29.122   9.736
  957POPC   GL117005  11.518  29.222   9.221
  957POPC   GL217006  11.179  29.182   8.947
  957POPC   C1A17007  11.584  29.338   8.749
  957POPC   D2A17008  11.317  29.143   8.411
  957POPC   C3A17009  11.269  29.337   8.006
  957POPC   C4A17010  11.267  29.147   7.579
  957POPC   C1B17011  10.855  29.247   8.653
  957POPC   C2B17012  10.811  29.382   8.251
  957POPC   C3B17013  10.777  29.327   7.840
  957POPC   C4B17014  10.777  29.071   7.503
  958POPC   NC317015   2.217  19.504   9.645
  958POPC   PO417016   1.801  20.007   9.458
  958POPC   GL117017   2.057  19.784   9.122
  958POPC   GL217018   2.240  19.458   9.142
  958POPC   C1A17019   2.074  19.703   8.657
  958POPC   D2A17020   2.210  19.851   8.241
  958POPC   C3A17021   1.968  19.803   7.889
  958POPC   C4A17022   1.870  20.085   7.544
  958POPC   C1B17023   2.499  19.443   8.783
  958POPC   C2B17024   2.375  19.389   8.342
  958POPC   C3B17025   2.546  19.608   7.944
  958POPC   C4B17026   2.351  19.724   7.546
  959POPC   NC317027  14.357  27.484   9.603
  959POPC   PO417028  14.623  28.036   9.786
  959POPC   GL117029  14.428  27.862   9.268
  959POPC   GL217030  14.365  27.537   9.114
  959POPC   C1A17031  14.630  27.776   8.775
  959POPC   D2A17032  14.414  27.585   8.395
  959POPC   C3A17033  14.613  27.657   7.989
  959POPC   C4A17034  14.592  27.797   7.575
  959POPC   C1B17035  14.128  27.197   8.939
  959POPC   C2B17036  14.072  27.132   8.500
  959POPC   C3B17037  14.140  27.257   8.081
  959POPC   C4B17038  14.109  27.640   7.822
  960POPC   NC317039  41.235   6.788   9.509
  960POPC   PO417040  41.759   6.474   9.321
  960POPC   GL117041  41.740   6.852   9.092
  960POPC   GL217042  41.356   6.917   9.035
  960POPC   C1A17043  41.682   6.944   8.653
  960POPC   D2A17044  41.340   6.871   8.365
  960POPC   C3A17045  41.383   7.004   7.950
  960POPC   C4A17046  41.319   6.740   7.583
  960POPC   C1B17047  41.350   6.532   8.749
  960POPC   C2B17048  41.481   6.377   8.340
  960POPC   C3B17049  41.643   6.541   7.951
  960POPC   C4B17050  41.872   6.919   7.824
  961POPC   NC317051  40.831  11.525   9.574
  961POPC   PO417052  40.440  10.883   9.482
  961POPC   GL117053  40.726  11.178   9.188
  961POPC   GL217054  40.968  11.508   9.097
  961POPC   C1A17055  40.628  11.347   8.783
  961POPC   D2A17056  40.635  11.174   8.412
  961POPC   C3A17057  40.545  11.371   8.029
  961POPC   C4A17058  40.521  11.239   7.618
  961POPC   C1B17059  41.145  11.377   8.720
  961POPC   C2B17060  41.148  11.164   8.316
  961POPC   C3B17061  41.038  11.187   7.876
  961POPC   C4B17062  40.935  11.563   7.704
  962POPC   NC317063   5.004  43.287   9.543
  962POPC   PO417064   5.322  42.678   9.612
  962POPC   GL117065   5.063  42.815   9.236
  962POPC   GL217066   4.731  43.006   9.211
  962POPC   C1A17067   5.057  42.903   8.769
  962POPC   D2A17068   5.082  42.968   8.292
  962POPC   C3A17069   4.850  42.949   7.920
  962POPC   C4A17070   4.946  43.290   7.648
  962POPC   C1B17071   4.760  43.358   8.943
  962POPC   C2B17072   4.828  43.322   8.545
  962POPC   C3B17073   4.888  43.426   8.147
  962POPC   C4B17074   4.601  43.601   7.900
  963POPC   NC317075  21.813  11.773   9.491
  963POPC   PO417076  21.304  12.249   9.578
  963POPC   GL117077  21.336  12.064   9.188
  963POPC   GL217078  21.676  12.216   9.198
  963POPC   C1A17079  21.171  12.013   8.752
  963POPC   D2A17080  21.301  12.161   8.330
  963POPC   C3A17081  21.448  11.915   7.981
  963POPC   C4A17082  21.269  11.825   7.598
  963POPC   C1B17083  21.642  12.278   8.760
  963POPC   C2B17084  21.672  12.528   8.380
  963POPC   C3B17085  21.689  12.408   7.964
  963POPC   C4B17086  21.610  12.230   7.592
  964POPC   NC317087  30.029  42.779   9.596
  964POPC   PO417088  29.727  42.196   9.829
  964POPC   GL117089  29.756  42.396   9.363
  964POPC   GL217090  29.651  42.148   9.098
  964POPC   C1A17091  29.873  42.562   8.903
  964POPC   D2A17092  29.758  42.450   8.444
  964POPC   C3A17093  29.914  42.477   8.022
  964POPC   C4A17094  29.753  42.717   7.704
  964POPC   C1B17095  29.815  42.029   8.721
  964POPC   C2B17096  29.986  42.004   8.309
  964POPC   C3B17097  30.083  41.903   7.857
  964POPC   C4B17098  30.052  42.052   7.415
  965POPC   NC317099   8.300   0.642   9.340
  965POPC   PO417100   8.015   0.118   9.340
  965POPC   GL117101   7.973   0.396   9.015
  965POPC   GL217102   8.320   0.468   8.860
  965POPC   C1A17103   7.878   0.528   8.607
  965POPC   D2A17104   8.218   0.548   8.301
  965POPC   C3A17105   8.218   0.390   7.875
  965POPC   C4A17106   8.492   0.044   7.768
  965POPC   C1B17107   8.265   0.893   8.684
  965POPC   C2B17108   8.089   1.063   8.304
  965POPC   C3B17109   8.260   0.892   7.934
  965POPC   C4B17110   8.143   0.760   7.489
  966POPC   NC317111  17.705  11.802   9.454
  966POPC   PO417112  17.602  11.118   9.439
  966POPC   GL117113  17.397  11.266   9.086
  966POPC   GL217114  17.311  11.599   9.174
  966POPC   C1A17115  17.614  11.174   8.717
  966POPC   D2A17116  17.807  10.793   8.556
  966POPC   C3A17117  17.693  10.790   8.122
  966POPC   C4A17118  17.598  11.037   7.762
  966POPC   C1B17119  17.371  11.644   8.729
  966POPC   C2B17120  17.318  11.748   8.313
  966POPC   C3B17121  17.615  11.769   7.996
  966POPC   C4B17122  17.423  11.545   7.736
  967POPC   NC317123  10.997  15.219   9.538
  967POPC   PO417124  11.655  15.326   9.595
  967POPC   GL117125  11.436  15.312   9.182
  967POPC   GL217126  11.149  15.157   9.052
  967POPC   C1A17127  11.569  15.236   8.743
  967POPC   D2A17128  11.644  15.522   8.406
  967POPC   C3A17129  11.385  15.460   8.046
  967POPC   C4A17130  11.436  15.346   7.620
  967POPC   C1B17131  11.081  15.261   8.614
  967POPC   C2B17132  11.137  14.986   8.260
  967POPC   C3B17133  11.359  14.916   7.860
  967POPC   C4B17134  11.193  14.993   7.348
  968POPC   NC317135  10.633   0.258   9.413
  968POPC   PO417136  10.347   0.761   9.838
  968POPC   GL117137  10.353   0.666   9.344
  968POPC   GL217138  10.141   0.417   9.197
  968POPC   C1A17139  10.639   0.655   8.893
  968POPC   D2A17140  10.629   0.458   8.453
  968POPC   C3A17141  10.676   0.587   8.002
  968POPC   C4A17142  10.798   0.224   7.740
  968POPC   C1B17143  10.272   0.241   8.784
  968POPC   C2B17144  10.189   0.041   8.378
  968POPC   C3B17145  10.323   0.200   7.989
  968POPC   C4B17146  10.344   0.397   7.622
  969POPC   NC317147   1.638  33.217   9.517
  969POPC   PO417148   0.992  33.263   9.529
  969POPC   GL117149   1.199  32.905   9.235
  969POPC   GL217150   1.570  32.919   9.090
  969POPC   C1A17151   1.194  32.747   8.784
  969POPC   D2A17152   1.513  32.852   8.481
  969POPC   C3A17153   1.469  32.812   8.047
  969POPC   C4A17154   1.131  32.722   7.798
  969POPC   C1B17155   1.412  33.245   8.788
  969POPC   C2B17156   1.368  33.321   8.314
  969POPC   C3B17157   1.244  33.251   7.871
  969POPC   C4B17158   1.107  33.563   7.534
  970POPC   NC317159  14.117   3.545   9.635
  970POPC   PO417160  14.635   3.115   9.663
  970POPC   GL117161  14.596   3.452   9.274
  970POPC   GL217162  14.660   3.827   9.173
  970POPC   C1A17163  14.339   3.548   8.868
  970POPC   D2A17164  14.391   3.404   8.430
  970POPC   C3A17165  14.316   3.582   8.006
  970POPC   C4A17166  14.345   3.379   7.604
  970POPC   C1B17167  14.794   3.752   8.713
  970POPC   C2B17168  14.664   3.860   8.278
  970POPC   C3B17169  14.594   3.975   7.820
  970POPC   C4B17170  14.652   3.746   7.420
  971POPC   NC317171   9.292  40.484   9.572
  971POPC   PO417172   8.833  40.793   9.650
  971POPC   GL117173   8.877  40.643   9.225
  971POPC   GL217174   9.186  40.797   9.149
  971POPC   C1A17175   8.932  40.520   8.774
  971POPC   D2A17176   9.082  40.743   8.395
  971POPC   C3A17177   8.998  40.592   7.974
  971POPC   C4A17178   8.681  40.636   7.662
  971POPC   C1B17179   9.293  41.033   8.772
  971POPC   C2B17180   9.487  41.033   8.364
  971POPC   C3B17181   9.254  41.050   8.002
  971POPC   C4B17182   8.988  41.065   7.679
  972POPC   NC317183  23.221  31.930   9.273
  972POPC   PO417184  22.977  32.584   9.437
  972POPC   GL117185  22.942  32.347   9.117
  972POPC   GL217186  22.667  32.388   9.018
  972POPC   C1A17187  23.035  32.262   8.690
  972POPC   D2A17188  22.910  32.074   8.318
  972POPC   C3A17189  23.215  32.173   8.057
  972POPC   C4A17190  23.302  32.312   7.673
  972POPC   C1B17191  22.514  32.255   8.603
  972POPC   C2B17192  22.433  31.869   8.301
  972POPC   C3B17193  22.685  31.799   7.948
  972POPC   C4B17194  22.841  32.108   7.729
  973POPC   NC317195  18.342   6.022   9.585
  973POPC   PO417196  17.921   5.457   9.549
  973POPC   GL117197  17.944   5.762   9.225
  973POPC   GL217198  18.285   5.701   9.195
  973POPC   C1A17199  18.051   5.870   8.773
  973POPC   D2A17200  18.137   5.656   8.358
  973POPC   C3A17201  17.997   5.926   7.997
  973POPC   C4A17202  18.198   6.229   7.716
  973POPC   C1B17203  18.550   5.888   8.909
  973POPC   C2B17204  18.684   5.830   8.510
  973POPC   C3B17205  18.512   5.936   8.110
  973POPC   C4B17206  18.641   5.939   7.698
  974POPC   NC317207  30.807   0.020   9.500
  974POPC   PO417208  30.975   0.615   9.360
  974POPC   GL117209  30.610   0.527   9.123
  974POPC   GL217210  30.584   0.183   9.078
  974POPC   C1A17211  30.566   0.665   8.698
  974POPC   D2A17212  30.785   0.576   8.303
  974POPC   C3A17213  30.570   0.718   7.930
  974POPC   C4A17214  30.485   0.661   7.495
  974POPC   C1B17215  30.760   0.186   8.671
  974POPC   C2B17216  30.952   0.097   8.266
  974POPC   C3B17217  30.799   0.240   7.897
  974POPC   C4B17218  30.874   0.330   7.489
  975POPC   NC317219  21.352  41.160   9.949
  975POPC   PO417220  21.134  40.634   9.496
  975POPC   GL117221  21.269  40.771   9.072
  975POPC   GL217222  21.052  41.013   8.934
  975POPC   C1A17223  21.429  40.635   8.696
  975POPC   D2A17224  21.274  40.625   8.266
  975POPC   C3A17225  21.541  40.626   7.904
  975POPC   C4A17226  21.527  40.471   7.467
  975POPC   C1B17227  21.258  41.078   8.546
  975POPC   C2B17228  21.655  40.972   8.348
  975POPC   C3B17229  21.798  41.054   7.928
  975POPC   C4B17230  21.545  41.136   7.565
  976POPC   NC317231   2.920  32.526   9.406
  976POPC   PO417232   2.898  33.195   9.497
  976POPC   GL117233   2.910  32.972   9.157
  976POPC   GL217234   2.557  32.856   9.182
  976POPC   C1A17235   2.827  32.798   8.755
  976POPC   D2A17236   2.480  32.846   8.455
  976POPC   C3A17237   2.714  32.812   8.074
  976POPC   C4A17238   2.892  32.908   7.701
  976POPC   C1B17239   2.586  33.224   8.861
  976POPC   C2B17240   2.427  33.361   8.457
  976POPC   C3B17241   2.341  33.188   8.024
  976POPC   C4B17242   2.495  33.234   7.579
  977POPC   NC317243  32.472   2.511   9.213
  977POPC   PO417244  31.895   2.797   9.406
  977POPC   GL117245  32.087   2.830   9.059
  977POPC   GL217246  32.299   3.106   9.185
  977POPC   C1A17247  32.149   2.641   8.661
  977POPC   D2A17248  32.461   2.538   8.375
  977POPC   C3A17249  32.141   2.466   8.109
  977POPC   C4A17250  32.017   2.700   7.775
  977POPC   C1B17251  32.457   3.038   8.763
  977POPC   C2B17252  32.308   3.022   8.336
  977POPC   C3B17253  32.462   2.854   7.951
  977POPC   C4B17254  32.518   2.869   7.502
  978POPC   NC317255   3.197  18.563   9.572
  978POPC   PO417256   2.511  18.315   9.564
  978POPC   GL117257   2.754  18.148   9.185
  978POPC   GL217258   3.138  18.192   9.192
  978POPC   C1A17259   2.914  18.083   8.753
  978POPC   D2A17260   3.175  18.165   8.436
  978POPC   C3A17261   3.035  18.039   8.045
  978POPC   C4A17262   2.777  18.225   7.753
  978POPC   C1B17263   2.972  18.578   8.942
  978POPC   C2B17264   2.953  18.735   8.510
  978POPC   C3B17265   3.023  18.561   8.117
  978POPC   C4B17266   3.226  18.477   7.755
  979POPC   NC317267   8.920  37.451   9.216
  979POPC   PO417268   9.474  37.803   9.358
  979POPC   GL117269   9.213  37.830   8.975
  979POPC   GL217270   9.363  37.509   8.854
  979POPC   C1A17271   8.775  37.914   8.727
  979POPC   D2A17272   8.460  37.996   8.355
  979POPC   C3A17273   8.722  37.958   7.954
  979POPC   C4A17274   9.134  37.811   7.823
  979POPC   C1B17275   9.142  37.645   8.485
  979POPC   C2B17276   8.763  37.547   8.255
  979POPC   C3B17277   8.704  37.455   7.819
  979POPC   C4B17278   9.019  37.447   7.483
  980POPC   NC317279  31.265  17.906   9.396
  980POPC   PO417280  31.614  17.324   9.615
  980POPC   GL117281  31.490  17.432   9.217
  980POPC   GL217282  31.777  17.594   9.153
  980POPC   C1A17283  31.518  17.239   8.815
  980POPC   D2A17284  31.343  17.325   8.415
  980POPC   C3A17285  31.421  17.125   8.052
  980POPC   C4A17286  31.427  17.249   7.656
  980POPC   C1B17287  31.645  17.753   8.750
  980POPC   C2B17288  31.515  17.822   8.310
  980POPC   C3B17289  31.483  17.742   7.853
  980POPC   C4B17290  31.328  17.928   7.461
  981POPC   NC317291  16.217  12.214   9.381
  981POPC   PO417292  15.712  11.855   9.523
  981POPC   GL117293  15.904  11.913   9.131
  981POPC   GL217294  15.860  12.263   9.001
  981POPC   C1A17295  16.002  11.809   8.737
  981POPC   D2A17296  15.878  12.032   8.390
  981POPC   C3A17297  15.773  11.713   8.116
  981POPC   C4A17298  16.055  11.694   7.790
  981POPC   C1B17299  16.256  12.249   8.753
  981POPC   C2B17300  16.372  12.371   8.380
  981POPC   C3B17301  16.155  12.391   8.020
  981POPC   C4B17302  15.832  12.190   7.834
  982POPC   NC317303  21.587  12.649   9.617
  982POPC   PO417304  20.974  12.915   9.415
  982POPC   GL117305  21.321  12.641   9.185
  982POPC   GL217306  21.647  12.774   9.121
  982POPC   C1A17307  21.309  12.643   8.735
  982POPC   D2A17308  21.174  12.648   8.300
  982POPC   C3A17309  21.404  12.812   7.905
  982POPC   C4A17310  21.183  13.054   7.584
  982POPC   C1B17311  21.772  12.924   8.705
  982POPC   C2B17312  21.728  13.020   8.259
  982POPC   C3B17313  21.960  12.864   7.914
  982POPC   C4B17314  21.937  12.626   7.539
  983POPC   NC317315  23.429   0.112   9.320
  983POPC   PO417316  23.693   0.733   9.495
  983POPC   GL117317  23.521   0.566   9.115
  983POPC   GL217318  23.850   0.525   9.026
  983POPC   C1A17319  23.534   0.383   8.663
  983POPC   D2A17320  23.646   0.597   8.260
  983POPC   C3A17321  23.450   0.448   7.863
  983POPC   C4A17322  23.651   0.269   7.480
  983POPC   C1B17323  24.028   0.715   8.671
  983POPC   C2B17324  24.174   0.543   8.265
  983POPC   C3B17325  24.035   0.177   7.980
  983POPC   C4B17326  24.172   0.054   7.552
  984POPC   NC317327  11.307  29.505   9.806
  984POPC   PO417328  10.925  29.933   9.430
  984POPC   GL117329  11.264  29.996   9.148
  984POPC   GL217330  11.459  29.710   9.077
  984POPC   C1A17331  11.163  29.958   8.729
  984POPC   D2A17332  11.210  29.644   8.456
  984POPC   C3A17333  11.052  29.822   8.087
  984POPC   C4A17334  11.049  30.125   7.763
  984POPC   C1B17335  11.675  29.846   8.687
  984POPC   C2B17336  11.623  29.888   8.232
  984POPC   C3B17337  11.485  29.768   7.812
  984POPC   C4B17338  11.103  29.638   7.615
  985POPC   NC317339  30.026  14.022   9.498
  985POPC   PO417340  29.708  14.703   9.501
  985POPC   GL117341  30.022  14.519   9.194
  985POPC   GL217342  29.841  14.238   9.092
  985POPC   C1A17343  30.062  14.465   8.711
  985POPC   D2A17344  29.783  14.702   8.417
  985POPC   C3A17345  29.917  14.583   8.033
  985POPC   C4A17346  29.995  14.184   7.854
  985POPC   C1B17347  29.584  14.510   8.854
  985POPC   C2B17348  29.362  14.417   8.489
  985POPC   C3B17349  29.455  14.376   8.066
  985POPC   C4B17350  29.502  14.650   7.715
  986POPC   NC317351  38.833  15.789   9.503
  986POPC   PO417352  38.288  16.146   9.863
  986POPC   GL117353  38.096  15.967   9.418
  986POPC   GL217354  38.392  15.839   9.237
  986POPC   C1A17355  38.032  15.926   8.911
  986POPC   D2A17356  38.234  16.163   8.548
  986POPC   C3A17357  38.266  15.959   8.137
  986POPC   C4A17358  38.372  16.082   7.723
  986POPC   C1B17359  38.634  15.888   8.832
  986POPC   C2B17360  38.750  16.119   8.435
  986POPC   C3B17361  38.738  16.257   8.010
  986POPC   C4B17362  38.901  15.922   7.729
  987POPC   NC317363  10.246  13.289   9.536
  987POPC   PO417364  10.694  13.843   9.397
  987POPC   GL117365  10.624  13.684   9.025
  987POPC   GL217366  10.584  13.354   9.139
  987POPC   C1A17367  10.623  13.539   8.603
  987POPC   D2A17368  10.784  13.608   8.209
  987POPC   C3A17369  10.474  13.841   7.985
  987POPC   C4A17370  10.397  13.909   7.590
  987POPC   C1B17371  10.202  13.385   8.855
  987POPC   C2B17372  10.186  13.262   8.407
  987POPC   C3B17373  10.402  13.333   8.010
  987POPC   C4B17374  10.706  13.485   7.673
  988POPC   NC317375   5.511  44.821   9.463
  988POPC   PO417376   6.140  44.801   9.643
  988POPC   GL117377   5.957  44.842   9.209
  988POPC   GL217378   6.017  44.552   9.033
  988POPC   C1A17379   5.674  44.805   8.794
  988POPC   D2A17380   5.828  44.778   8.364
  988POPC   C3A17381   5.600  44.836   7.998
  988POPC   C4A17382   5.509  44.552   7.700
  988POPC   C1B17383   5.879  44.335   8.655
  988POPC   C2B17384   6.010  44.146   8.298
  988POPC   C3B17385   5.901  44.400   7.997
  988POPC   C4B17386   6.094  44.770   7.852
  989POPC   NC317387  44.415   6.280   9.401
  989POPC   PO417388  44.620   6.957   9.502
  989POPC   GL117389  44.805   6.907   9.109
  989POPC   GL217390  44.727   6.579   9.008
  989POPC   C1A17391  44.768   7.117   8.716
  989POPC   D2A17392  44.857   7.054   8.280
  989POPC   C3A17393  44.615   6.784   8.066
  989POPC   C4A17394  44.624   6.638   7.697
  989POPC   C1B17395  44.783   6.605   8.535
  989POPC   C2B17396   0.012   6.480   8.121
  989POPC   C3B17397   0.114   6.611   7.698
  989POPC   C4B17398  44.966   6.655   7.234
  990POPC   NC317399  22.494  39.478   9.643
  990POPC   PO417400  21.977  39.209   9.721
  990POPC   GL117401  21.992  39.285   9.239
  990POPC   GL217402  22.201  39.569   9.098
  990POPC   C1A17403  22.078  39.202   8.762
  990POPC   D2A17404  22.175  39.270   8.304
  990POPC   C3A17405  21.994  39.090   7.908
  990POPC   C4A17406  21.576  39.186   7.687
  990POPC   C1B17407  22.450  39.594   8.658
  990POPC   C2B17408  22.627  39.448   8.225
  990POPC   C3B17409  22.386  39.568   7.837
  990POPC   C4B17410  22.455  39.662   7.357
  991POPC   NC317411  44.828  29.862   9.454
  991POPC   PO417412  44.369  30.325   9.448
  991POPC   GL117413  44.428  29.976   9.096
  991POPC   GL217414  44.630  29.620   9.074
  991POPC   C1A17415  44.494  29.836   8.646
  991POPC   D2A17416  44.396  29.814   8.203
  991POPC   C3A17417  44.626  29.992   7.813
  991POPC   C4A17418  44.610  30.185   7.369
  991POPC   C1B17419  44.889  29.471   8.746
  991POPC   C2B17420  44.750  29.476   8.328
  991POPC   C3B17421  44.894  29.576   7.904
  991POPC   C4B17422  44.923  29.698   7.457
  992POPC   NC317423  27.237  20.745   9.543
  992POPC   PO417424  27.821  20.992   9.483
  992POPC   GL117425  27.834  20.587   9.233
  992POPC   GL217426  27.499  20.499   9.195
  992POPC   C1A17427  27.790  20.285   8.859
  992POPC   D2A17428  27.581  20.322   8.475
  992POPC   C3A17429  27.672  20.334   8.051
  992POPC   C4A17430  27.790  20.322   7.637
  992POPC   C1B17431  27.303  20.597   8.816
  992POPC   C2B17432  27.144  20.538   8.430
  992POPC   C3B17433  27.134  20.539   8.023
  992POPC   C4B17434  27.408  20.663   7.730
  993POPC   NC317435   2.823  21.711   9.419
  993POPC   PO417436   2.712  22.397   9.449
  993POPC   GL117437   2.697  22.177   9.048
  993POPC   GL217438   3.009  22.065   9.079
  993POPC   C1A17439   2.722  21.990   8.618
  993POPC   D2A17440   2.718  22.291   8.302
  993POPC   C3A17441   2.558  22.141   7.891
  993POPC   C4A17442   2.801  21.964   7.528
  993POPC   C1B17443   3.107  22.289   8.705
  993POPC   C2B17444   3.216  21.996   8.369
  993POPC   C3B17445   3.036  21.980   8.000
  993POPC   C4B17446   2.985  22.413   7.895
  994POPC   NC317447  10.974  28.589   9.585
  994POPC   PO417448  11.357  28.065   9.695
  994POPC   GL117449  11.179  28.150   9.243
  994POPC   GL217450  11.100  28.500   9.107
  994POPC   C1A17451  11.232  28.162   8.757
  994POPC   D2A17452  11.126  28.348   8.342
  994POPC   C3A17453  11.428  28.340   7.992
  994POPC   C4A17454  11.796  28.220   7.713
  994POPC   C1B17455  11.110  28.731   8.716
  994POPC   C2B17456  10.887  28.825   8.342
  994POPC   C3B17457  11.002  28.834   7.904
  994POPC   C4B17458  10.977  28.623   7.485
  995POPC   NC317459   6.204  37.069   9.907
  995POPC   PO417460   6.738  36.762   9.660
  995POPC   GL117461   6.479  36.842   9.247
  995POPC   GL217462   6.381  37.151   9.404
  995POPC   C1A17463   6.480  36.821   8.755
  995POPC   D2A17464   6.609  36.646   8.334
  995POPC   C3A17465   6.530  36.754   7.883
  995POPC   C4A17466   6.553  36.568   7.470
  995POPC   C1B17467   6.270  37.254   8.965
  995POPC   C2B17468   6.153  37.173   8.557
  995POPC   C3B17469   6.213  37.050   8.153
  995POPC   C4B17470   6.254  37.191   7.750
  996POPC   NC317471  15.468   0.125   9.886
  996POPC   PO417472  15.306  44.645   9.446
  996POPC   GL117473  15.088  44.797   9.058
  996POPC   GL217474  14.822   0.027   9.096
  996POPC   C1A17475  15.226  44.929   8.635
  996POPC   D2A17476  15.397  44.656   8.302
  996POPC   C3A17477  15.491  44.696   7.863
  996POPC   C4A17478  15.265  44.386   7.592
  996POPC   C1B17479  14.718  44.798   8.707
  996POPC   C2B17480  14.872  44.873   8.284
  996POPC   C3B17481  14.992  44.723   7.884
  996POPC   C4B17482  15.181  44.890   7.485
  997POPC   NC317483  34.659  28.683   9.645
  997POPC   PO417484  34.410  28.026   9.579
  997POPC   GL117485  34.699  28.268   9.250
  997POPC   GL217486  34.703  28.629   9.152
  997POPC   C1A17487  34.833  28.300   8.800
  997POPC   D2A17488  34.718  28.527   8.434
  997POPC   C3A17489  34.605  28.371   8.079
  997POPC   C4A17490  34.534  28.225   7.697
  997POPC   C1B17491  34.592  28.847   8.792
  997POPC   C2B17492  34.630  29.046   8.402
  997POPC   C3B17493  34.773  28.892   8.011
  997POPC   C4B17494  34.914  28.588   7.721
  998POPC   NC317495  41.164  16.042   9.464
  998POPC   PO417496  40.554  16.211   9.520
  998POPC   GL117497  40.469  16.024   9.100
  998POPC   GL217498  40.758  15.895   9.148
  998POPC   C1A17499  40.569  15.779   8.695
  998POPC   D2A17500  40.910  15.623   8.394
  998POPC   C3A17501  40.724  15.643   7.983
  998POPC   C4A17502  40.531  16.027   7.890
  998POPC   C1B17503  41.008  16.047   8.825
  998POPC   C2B17504  40.955  16.293   8.481
  998POPC   C3B17505  41.148  16.315   8.096
  998POPC   C4B17506  41.062  16.014   7.823
  999POPC   NC317507  20.956  25.972   9.696
  999POPC   PO417508  20.382  25.684   9.723
  999POPC   GL117509  20.511  25.969   9.353
  999POPC   GL217510  20.234  26.181   9.249
  999POPC   C1A17511  20.592  26.099   8.892
  999POPC   D2A17512  20.637  26.348   8.497
  999POPC   C3A17513  20.536  26.275   8.069
  999POPC   C4A17514  20.784  25.998   7.821
  999POPC   C1B17515  20.098  25.963   8.867
  999POPC   C2B17516  20.252  25.779   8.475
  999POPC   C3B17517  20.219  25.729   8.017
  999POPC   C4B17518  20.285  26.001   7.693
 1000POPC   NC317519  37.951  15.505   9.645
 1000POPC   PO417520  38.549  15.394   9.439
 1000POPC   GL117521  38.421  15.166   9.123
 1000POPC   GL217522  38.706  15.209   8.922
 1000POPC   C1A17523  38.251  15.279   8.725
 1000POPC   D2A17524  38.153  15.047   8.348
 1000POPC   C3A17525  38.409  15.238   8.051
 1000POPC   C4A17526  38.322  15.572   7.745
 1000POPC   C1B17527  38.717  15.458   8.545
 1000POPC   C2B17528  38.720  15.657   8.132
 1000POPC   C3B17529  38.797  15.407   7.758
 1000POPC   C4B17530  38.678  14.998   7.676
 1001POPC   NC317531   2.451  41.850   9.420
 1001POPC   PO417532   3.065  42.185   9.509
 1001POPC   GL117533   2.866  42.320   9.113
 1001POPC   GL217534   2.562  42.184   9.077
 1001POPC   C1A17535   2.734  42.492   8.692
 1001POPC   D2A17536   2.749  42.712   8.301
 1001POPC   C3A17537   2.940  42.562   7.904
 1001POPC   C4A17538   2.671  42.659   7.515
 1001POPC   C1B17539   2.691  41.969   8.708
 1001POPC   C2B17540   2.510  42.008   8.281
 1001POPC   C3B17541   2.632  41.981   7.853
 1001POPC   C4B17542   2.872  42.204   7.523
 1002POPC   NC317543  37.997   6.990   9.434
 1002POPC   PO417544  37.350   6.711   9.432
 1002POPC   GL117545  37.635   6.540   9.096
 1002POPC   GL217546  37.783   6.180   9.151
 1002POPC   C1A17547  37.807   6.807   8.746
 1002POPC   D2A17548  37.884   7.024   8.345
 1002POPC   C3A17549  37.639   6.929   7.999
 1002POPC   C4A17550  37.593   6.507   7.925
 1002POPC   C1B17551  37.981   6.310   8.764
 1002POPC   C2B17552  38.012   6.522   8.345
 1002POPC   C3B17553  38.087   6.580   7.898
 1002POPC   C4B17554  37.933   6.162   7.759
 1003POPC   NC317555  11.863  13.036   9.404
 1003POPC   PO417556  12.418  12.546   9.555
 1003POPC   GL117557  12.394  12.793   9.181
 1003POPC   GL217558  12.071  12.616   9.152
 1003POPC   C1A17559  12.222  13.017   8.798
 1003POPC   D2A17560  11.954  13.060   8.421
 1003POPC   C3A17561  12.102  13.077   7.995
 1003POPC   C4A17562  11.839  13.006   7.608
 1003POPC   C1B17563  12.258  12.507   8.758
 1003POPC   C2B17564  12.411  12.725   8.391
 1003POPC   C3B17565  12.291  12.616   7.982
 1003POPC   C4B17566  12.064  12.452   7.655
 1004POPC   NC317567  30.847  28.455   9.648
 1004POPC   PO417568  31.204  27.895   9.503
 1004POPC   GL117569  30.952  28.185   9.238
 1004POPC   GL217570  30.593  28.271   9.169
 1004POPC   C1A17571  30.970  28.381   8.849
 1004POPC   D2A17572  30.869  28.368   8.416
 1004POPC   C3A17573  31.141  28.361   8.071
 1004POPC   C4A17574  31.031  28.434   7.643
 1004POPC   C1B17575  30.510  28.561   8.780
 1004POPC   C2B17576  30.457  28.680   8.333
 1004POPC   C3B17577  30.621  28.638   7.918
 1004POPC   C4B17578  30.601  28.632   7.470
 1005POPC   NC317579  35.449  27.088   9.549
 1005POPC   PO417580  35.384  27.760   9.512
 1005POPC   GL117581  35.438  27.618   9.127
 1005POPC   GL217582  35.692  27.853   9.067
 1005POPC   C1A17583  35.225  27.469   8.757
 1005POPC   D2A17584  35.026  27.651   8.392
 1005POPC   C3A17585  35.205  27.533   8.021
 1005POPC   C4A17586  35.175  27.710   7.647
 1005POPC   C1B17587  35.686  27.666   8.675
 1005POPC   C2B17588  35.536  27.842   8.300
 1005POPC   C3B17589  35.641  27.793   7.878
 1005POPC   C4B17590  35.568  27.409   7.648
 1006POPC   NC317591   9.786  18.517   9.365
 1006POPC   PO417592  10.283  19.049   9.396
 1006POPC   GL117593  10.335  19.018   8.990
 1006POPC   GL217594  10.688  18.962   9.056
 1006POPC   C1A17595  10.528  19.145   8.618
 1006POPC   D2A17596  10.567  18.964   8.230
 1006POPC   C3A17597  10.273  19.074   7.948
 1006POPC   C4A17598  10.333  19.219   7.544
 1006POPC   C1B17599  10.676  18.621   8.752
 1006POPC   C2B17600  10.850  18.511   8.349
 1006POPC   C3B17601  10.839  18.683   7.924
 1006POPC   C4B17602  10.523  18.714   7.672
 1007POPC   NC317603  12.873  29.500   9.274
 1007POPC   PO417604  13.140  28.933   9.563
 1007POPC   GL117605  13.121  29.066   9.122
 1007POPC   GL217606  12.781  29.072   9.012
 1007POPC   C1A17607  13.138  29.329   8.715
 1007POPC   D2A17608  13.282  29.309   8.308
 1007POPC   C3A17609  12.975  29.148   8.036
 1007POPC   C4A17610  12.993  29.107   7.583
 1007POPC   C1B17611  12.619  29.377   8.675
 1007POPC   C2B17612  12.559  29.382   8.225
 1007POPC   C3B17613  12.612  29.397   7.761
 1007POPC   C4B17614  12.727  29.443   7.291
 1008POPC   NC317615  12.446  44.205   9.273
 1008POPC   PO417616  12.887  43.731   9.625
 1008POPC   GL117617  12.735  43.785   9.223
 1008POPC   GL217618  12.388  43.694   9.356
 1008POPC   C1A17619  12.778  43.881   8.762
 1008POPC   D2A17620  12.934  43.627   8.377
 1008POPC   C3A17621  13.135  43.911   8.112
 1008POPC   C4A17622  12.851  44.176   7.905
 1008POPC   C1B17623  12.348  43.599   8.930
 1008POPC   C2B17624  12.430  43.619   8.507
 1008POPC   C3B17625  12.437  43.591   8.058
 1008POPC   C4B17626  12.700  43.715   7.719
 1009POPC   NC317627   2.195   5.076   9.707
 1009POPC   PO417628   2.817   4.829   9.539
 1009POPC   GL117629   2.916   5.018   9.145
 1009POPC   GL217630   2.666   5.268   9.064
 1009POPC   C1A17631   2.835   4.894   8.738
 1009POPC   D2A17632   2.742   5.025   8.330
 1009POPC   C3A17633   3.050   5.164   8.070
 1009POPC   C4A17634   2.931   5.082   7.640
 1009POPC   C1B17635   2.463   5.581   8.781
 1009POPC   C2B17636   2.296   5.522   8.406
 1009POPC   C3B17637   2.321   5.241   8.117
 1009POPC   C4B17638   2.630   5.387   7.876
 1010POPC   NC317639  23.458  17.717   9.464
 1010POPC   PO417640  23.174  17.130   9.516
 1010POPC   GL117641  23.485  17.288   9.156
 1010POPC   GL217642  23.866  17.287   9.187
 1010POPC   C1A17643  23.652  17.576   8.811
 1010POPC   D2A17644  23.870  17.634   8.398
 1010POPC   C3A17645  23.631  17.663   7.994
 1010POPC   C4A17646  23.361  17.332   7.812
 1010POPC   C1B17647  24.145  17.421   8.817
 1010POPC   C2B17648  24.197  17.223   8.401
 1010POPC   C3B17649  24.054  17.359   8.000
 1010POPC   C4B17650  23.835  17.429   7.560
 1011POPC   NC317651  26.693   3.024   9.433
 1011POPC   PO417652  27.128   2.448   9.325
 1011POPC   GL117653  26.898   2.717   9.066
 1011POPC   GL217654  26.951   3.085   8.996
 1011POPC   C1A17655  26.698   2.692   8.685
 1011POPC   D2A17656  26.361   2.615   8.413
 1011POPC   C3A17657  26.544   2.665   8.006
 1011POPC   C4A17658  26.728   2.551   7.645
 1011POPC   C1B17659  27.157   3.357   8.664
 1011POPC   C2B17660  27.260   3.269   8.226
 1011POPC   C3B17661  27.022   2.978   7.940
 1011POPC   C4B17662  26.702   3.080   7.669
 1012POPC   NC317663   9.420   2.404   9.384
 1012POPC   PO417664   9.410   3.103   9.469
 1012POPC   GL117665   9.705   2.866   9.220
 1012POPC   GL217666  10.061   2.943   9.231
 1012POPC   C1A17667   9.814   2.679   8.816
 1012POPC   D2A17668   9.748   2.537   8.389
 1012POPC   C3A17669   9.500   2.673   8.094
 1012POPC   C4A17670   9.441   2.526   7.685
 1012POPC   C1B17671  10.032   3.141   8.832
 1012POPC   C2B17672  10.171   3.051   8.405
 1012POPC   C3B17673  10.042   2.806   8.049
 1012POPC   C4B17674  10.054   3.077   7.704
 1013POPC   NC317675   4.279  43.701   9.556
 1013POPC   PO417676   4.668  44.202   9.531
 1013POPC   GL117677   4.448  44.046   9.198
 1013POPC   GL217678   4.127  44.145   9.302
 1013POPC   C1A17679   4.395  43.734   8.890
 1013POPC   D2A17680   4.450  43.629   8.435
 1013POPC   C3A17681   4.124  43.596   8.131
 1013POPC   C4A17682   4.153  43.675   7.689
 1013POPC   C1B17683   4.039  44.138   8.888
 1013POPC   C2B17684   4.291  44.104   8.545
 1013POPC   C3B17685   4.334  44.045   8.126
 1013POPC   C4B17686   4.202  44.179   7.732
 1014POPC   NC317687  37.367  27.231   9.559
 1014POPC   PO417688  37.494  27.943   9.571
 1014POPC   GL117689  37.575  27.690   9.199
 1014POPC   GL217690  37.456  27.387   9.108
 1014POPC   C1A17691  37.614  27.726   8.767
 1014POPC   D2A17692  37.437  27.713   8.388
 1014POPC   C3A17693  37.797  27.781   8.124
 1014POPC   C4A17694  37.604  27.691   7.815
 1014POPC   C1B17695  37.678  27.219   8.789
 1014POPC   C2B17696  37.846  27.366   8.425
 1014POPC   C3B17697  37.873  27.215   8.010
 1014POPC   C4B17698  37.704  27.253   7.623
 1015POPC   NC317699  14.550  41.078   9.893
 1015POPC   PO417700  14.085  41.319   9.629
 1015POPC   GL117701  14.235  41.361   9.155
 1015POPC   GL217702  14.538  41.153   9.096
 1015POPC   C1A17703  14.416  41.547   8.731
 1015POPC   D2A17704  14.494  41.848   8.369
 1015POPC   C3A17705  14.424  41.699   7.940
 1015POPC   C4A17706  14.224  41.344   7.678
 1015POPC   C1B17707  14.850  41.269   8.754
 1015POPC   C2B17708  14.861  41.490   8.346
 1015POPC   C3B17709  14.770  41.334   7.922
 1015POPC   C4B17710  14.767  41.372   7.480
 1016POPC   NC317711  13.524  17.262   9.412
 1016POPC   PO417712  13.886  16.798   9.688
 1016POPC   GL117713  13.909  16.878   9.186
 1016POPC   GL217714  13.692  17.111   8.978
 1016POPC   C1A17715  13.949  16.615   8.767
 1016POPC   D2A17716  13.908  16.364   8.364
 1016POPC   C3A17717  13.639  16.553   8.056
 1016POPC   C4A17718  13.304  16.577   7.754
 1016POPC   C1B17719  13.670  17.118   8.532
 1016POPC   C2B17720  13.840  17.338   8.191
 1016POPC   C3B17721  14.003  17.102   7.869
 1016POPC   C4B17722  13.731  16.858   7.622
 1017POPC   NC317723   9.323  43.412   9.279
 1017POPC   PO417724   8.813  43.330   9.660
 1017POPC   GL117725   8.782  43.260   9.185
 1017POPC   GL217726   8.728  42.881   9.175
 1017POPC   C1A17727   8.942  43.384   8.732
 1017POPC   D2A17728   9.222  43.418   8.334
 1017POPC   C3A17729   9.032  43.272   7.922
 1017POPC   C4A17730   9.112  43.305   7.466
 1017POPC   C1B17731   8.959  42.877   8.782
 1017POPC   C2B17732   8.812  43.032   8.364
 1017POPC   C3B17733   8.777  42.814   7.971
 1017POPC   C4B17734   8.865  42.838   7.526
 1018POPC   NC317735  19.656   8.520   9.462
 1018POPC   PO417736  19.685   7.895   9.440
 1018POPC   GL117737  19.929   8.187   9.144
 1018POPC   GL217738  20.153   8.424   9.322
 1018POPC   C1A17739  19.878   8.290   8.691
 1018POPC   D2A17740  19.656   8.118   8.352
 1018POPC   C3A17741  19.896   8.149   8.013
 1018POPC   C4A17742  19.717   8.077   7.630
 1018POPC   C1B17743  20.276   8.547   8.929
 1018POPC   C2B17744  20.288   8.561   8.491
 1018POPC   C3B17745  20.327   8.701   8.063
 1018POPC   C4B17746  20.204   8.551   7.676
 1019POPC   NC317747  32.887  16.943   9.747
 1019POPC   PO417748  33.255  16.553   9.297
 1019POPC   GL117749  33.308  16.705   8.911
 1019POPC   GL217750  33.356  17.057   8.942
 1019POPC   C1A17751  33.017  16.523   8.599
 1019POPC   D2A17752  32.690  16.726   8.360
 1019POPC   C3A17753  32.871  16.730   7.932
 1019POPC   C4A17754  33.223  16.434   7.795
 1019POPC   C1B17755  33.052  17.035   8.613
 1019POPC   C2B17756  33.209  16.931   8.273
 1019POPC   C3B17757  33.486  17.165   8.082
 1019POPC   C4B17758  33.240  17.118   7.746
 1020POPC   NC317759   4.076  38.876   9.562
 1020POPC   PO417760   4.321  38.159   9.664
 1020POPC   GL117761   4.398  38.274   9.231
 1020POPC   GL217762   4.186  38.559   9.177
 1020POPC   C1A17763   4.381  38.241   8.787
 1020POPC   D2A17764   4.189  38.161   8.380
 1020POPC   C3A17765   4.373  38.363   8.059
 1020POPC   C4A17766   4.681  38.191   7.880
 1020POPC   C1B17767   4.175  38.832   8.812
 1020POPC   C2B17768   4.175  38.685   8.395
 1020POPC   C3B17769   4.192  38.818   7.940
 1020POPC   C4B17770   4.519  38.795   7.614
 1021POPC   NC317771  43.370   3.538   9.629
 1021POPC   PO417772  42.744   3.348   9.438
 1021POPC   GL117773  43.072   3.503   9.137
 1021POPC   GL217774  43.403   3.332   9.053
 1021POPC   C1A17775  43.093   3.631   8.701
 1021POPC   D2A17776  42.838   3.823   8.397
 1021POPC   C3A17777  42.865   3.536   8.073
 1021POPC   C4A17778  43.010   3.607   7.676
 1021POPC   C1B17779  43.563   3.443   8.621
 1021POPC   C2B17780  43.388   3.630   8.228
 1021POPC   C3B17781  43.518   3.665   7.787
 1021POPC   C4B17782  43.465   3.415   7.392
 1022POPC   NC317783  13.401  37.715   9.532
 1022POPC   PO417784  13.338  37.034   9.545
 1022POPC   GL117785  13.498  37.356   9.172
 1022POPC   GL217786  13.761  37.663   9.187
 1022POPC   C1A17787  13.473  37.626   8.766
 1022POPC   D2A17788  13.363  37.827   8.366
 1022POPC   C3A17789  13.569  37.601   8.074
 1022POPC   C4A17790  13.543  37.480   7.679
 1022POPC   C1B17791  13.890  37.918   8.819
 1022POPC   C2B17792  13.888  37.816   8.409
 1022POPC   C3B17793  13.887  37.992   7.982
 1022POPC   C4B17794  13.716  37.945   7.573
 1023POPC   NC317795   7.927  26.066   9.531
 1023POPC   PO417796   8.466  26.165   9.697
 1023POPC   GL117797   8.365  26.126   9.227
 1023POPC   GL217798   8.154  25.846   9.092
 1023POPC   C1A17799   8.291  26.212   8.760
 1023POPC   D2A17800   8.332  25.998   8.344
 1023POPC   C3A17801   8.265  26.138   7.913
 1023POPC   C4A17802   8.244  25.889   7.545
 1023POPC   C1B17803   7.948  25.829   8.645
 1023POPC   C2B17804   7.858  25.879   8.162
 1023POPC   C3B17805   7.773  26.088   7.745
 1023POPC   C4B17806   7.601  26.337   7.388
 1024POPC   NC317807  25.536  27.692   9.597
 1024POPC   PO417808  26.160  27.818   9.497
 1024POPC   GL117809  25.888  27.574   9.206
 1024POPC   GL217810  26.070  27.730   8.990
 1024POPC   C1A17811  25.885  27.327   8.772
 1024POPC   D2A17812  26.072  27.371   8.354
 1024POPC   C3A17813  25.873  27.423   7.948
 1024POPC   C4A17814  25.970  27.598   7.537
 1024POPC   C1B17815  25.724  27.834   8.755
 1024POPC   C2B17816  25.962  27.884   8.368
 1024POPC   C3B17817  26.097  27.905   7.951
 1024POPC   C4B17818  25.687  27.913   7.812
 1025POPC   NC317819   5.632  18.677   9.449
 1025POPC   PO417820   5.834  19.318   9.578
 1025POPC   GL117821   5.786  19.112   9.174
 1025POPC   GL217822   6.030  18.855   9.161
 1025POPC   C1A17823   5.811  19.105   8.715
 1025POPC   D2A17824   5.839  19.230   8.277
 1025POPC   C3A17825   5.593  19.104   7.906
 1025POPC   C4A17826   5.854  19.048   7.508
 1025POPC   C1B17827   6.009  18.634   8.794
 1025POPC   C2B17828   6.096  18.802   8.409
 1025POPC   C3B17829   5.978  18.775   7.984
 1025POPC   C4B17830   6.047  18.494   7.647
 1026POPC   NC317831   8.921   2.929   9.479
 1026POPC   PO417832   8.790   2.343   9.273
 1026POPC   GL117833   9.088   2.633   9.070
 1026POPC   GL217834   8.844   2.834   8.945
 1026POPC   C1A17835   9.299   2.701   8.645
 1026POPC   D2A17836   9.175   3.016   8.315
 1026POPC   C3A17837   9.084   2.907   7.878
 1026POPC   C4A17838   9.071   2.774   7.448
 1026POPC   C1B17839   8.874   2.422   8.647
 1026POPC   C2B17840   9.032   2.480   8.225
 1026POPC   C3B17841   8.910   2.426   7.809
 1026POPC   C4B17842   8.627   2.372   7.435
 1027POPC   NC317843   0.710  32.067   9.470
 1027POPC   PO417844   0.358  32.519   9.738
 1027POPC   GL117845   0.320  32.427   9.242
 1027POPC   GL217846   0.364  32.076   9.110
 1027POPC   C1A17847   0.155  32.372   8.775
 1027POPC   D2A17848   0.194  32.074   8.400
 1027POPC   C3A17849   0.044  32.223   7.981
 1027POPC   C4A17850   0.052  32.217   7.526
 1027POPC   C1B17851   0.609  32.135   8.728
 1027POPC   C2B17852   0.701  32.053   8.279
 1027POPC   C3B17853   0.535  32.183   7.842
 1027POPC   C4B17854   0.524  31.993   7.429
 1028POPC   NC317855  28.151   8.156   9.442
 1028POPC   PO417856  28.749   8.055   9.545
 1028POPC   GL117857  28.607   8.143   9.163
 1028POPC   GL217858  28.475   7.859   9.107
 1028POPC   C1A17859  28.399   8.253   8.777
 1028POPC   D2A17860  28.239   8.130   8.390
 1028POPC   C3A17861  28.542   8.051   8.109
 1028POPC   C4A17862  28.500   8.159   7.718
 1028POPC   C1B17863  28.164   7.764   8.765
 1028POPC   C2B17864  27.972   7.702   8.349
 1028POPC   C3B17865  28.142   7.806   7.934
 1028POPC   C4B17866  28.108   7.927   7.498
 1029POPC   NC317867  37.306  18.746   9.528
 1029POPC   PO417868  36.854  18.260   9.604
 1029POPC   GL117869  37.048  18.347   9.208
 1029POPC   GL217870  37.016  18.660   9.117
 1029POPC   C1A17871  37.155  18.344   8.737
 1029POPC   D2A17872  37.262  18.173   8.305
 1029POPC   C3A17873  37.161  18.464   7.972
 1029POPC   C4A17874  36.849  18.236   7.724
 1029POPC   C1B17875  36.708  18.638   8.786
 1029POPC   C2B17876  36.800  18.527   8.353
 1029POPC   C3B17877  36.657  18.656   7.921
 1029POPC   C4B17878  36.427  18.507   7.546
 1030POPC   NC317879  26.977   3.759   9.517
 1030POPC   PO417880  26.360   3.406   9.492
 1030POPC   GL117881  26.617   3.520   9.169
 1030POPC   GL217882  26.917   3.586   9.056
 1030POPC   C1A17883  26.582   3.410   8.736
 1030POPC   D2A17884  26.627   3.645   8.352
 1030POPC   C3A17885  26.563   3.449   8.000
 1030POPC   C4A17886  26.646   3.619   7.619
 1030POPC   C1B17887  26.929   3.829   8.693
 1030POPC   C2B17888  27.144   3.793   8.274
 1030POPC   C3B17889  27.120   3.605   7.838
 1030POPC   C4B17890  27.146   3.680   7.367
 1031POPC   NC317891  12.635  44.119   9.745
 1031POPC   PO417892  11.961  44.042   9.466
 1031POPC   GL117893  11.955  43.883   9.073
 1031POPC   GL217894  11.701  43.659   9.068
 1031POPC   C1A17895  12.093  43.980   8.637
 1031POPC   D2A17896  12.444  44.098   8.329
 1031POPC   C3A17897  12.315  44.055   7.903
 1031POPC   C4A17898  12.196  43.814   7.588
 1031POPC   C1B17899  11.873  43.518   8.706
 1031POPC   C2B17900  11.996  43.528   8.306
 1031POPC   C3B17901  11.925  43.477   7.901
 1031POPC   C4B17902  11.571  43.664   7.755
 1032POPC   NC317903  21.556  32.418   9.539
 1032POPC   PO417904  21.578  31.752   9.467
 1032POPC   GL117905  21.436  32.079   9.160
 1032POPC   GL217906  21.723  32.294   9.088
 1032POPC   C1A17907  21.197  32.114   8.771
 1032POPC   D2A17908  20.989  31.850   8.446
 1032POPC   C3A17909  21.057  32.058   8.051
 1032POPC   C4A17910  21.191  32.442   7.846
 1032POPC   C1B17911  21.697  32.177   8.686
 1032POPC   C2B17912  21.441  32.365   8.337
 1032POPC   C3B17913  21.644  32.241   7.960
 1032POPC   C4B17914  21.765  32.330   7.533
 1033POPC   NC317915  33.274  18.761   9.403
 1033POPC   PO417916  32.864  19.336   9.429
 1033POPC   GL117917  32.922  19.118   9.087
 1033POPC   GL217918  32.754  18.853   9.154
 1033POPC   C1A17919  33.126  18.912   8.744
 1033POPC   D2A17920  33.286  19.032   8.351
 1033POPC   C3A17921  33.075  18.882   7.987
 1033POPC   C4A17922  32.844  19.172   7.746
 1033POPC   C1B17923  32.604  18.839   8.758
 1033POPC   C2B17924  32.679  18.893   8.323
 1033POPC   C3B17925  32.606  18.728   7.899
 1033POPC   C4B17926  32.689  18.765   7.478
 1034POPC   NC317927   0.049  25.065   9.613
 1034POPC   PO417928  44.498  25.456   9.334
 1034POPC   GL117929  44.472  25.199   8.998
 1034POPC   GL217930  44.770  25.074   9.137
 1034POPC   C1A17931  44.597  24.940   8.646
 1034POPC   D2A17932  44.911  24.891   8.332
 1034POPC   C3A17933  44.854  25.070   7.910
 1034POPC   C4A17934  44.442  25.148   7.753
 1034POPC   C1B17935  44.866  25.366   8.737
 1034POPC   C2B17936  44.544  25.486   8.488
 1034POPC   C3B17937  44.537  25.537   8.073
 1034POPC   C4B17938  44.738  25.566   7.684
 1035POPC   NC317939  43.209  25.352   9.510
 1035POPC   PO417940  43.215  24.588   9.539
 1035POPC   GL117941  43.085  24.963   9.199
 1035POPC   GL217942  43.401  25.154   9.100
 1035POPC   C1A17943  43.033  25.170   8.755
 1035POPC   D2A17944  43.208  25.057   8.340
 1035POPC   C3A17945  42.955  25.260   8.035
 1035POPC   C4A17946  42.798  25.208   7.613
 1035POPC   C1B17947  43.394  25.558   8.833
 1035POPC   C2B17948  43.416  25.546   8.374
 1035POPC   C3B17949  43.447  25.329   7.936
 1035POPC   C4B17950  43.238  24.964   7.723
 1036POPC   NC317951  14.626   2.751   9.967
 1036POPC   PO417952  14.189   2.681   9.421
 1036POPC   GL117953  14.298   2.700   9.023
 1036POPC   GL217954  14.289   3.072   9.101
 1036POPC   C1A17955  14.127   2.427   8.682
 1036POPC   D2A17956  14.032   2.399   8.235
 1036POPC   C3A17957  14.359   2.569   7.952
 1036POPC   C4A17958  14.470   2.448   7.486
 1036POPC   C1B17959  14.573   3.062   8.772
 1036POPC   C2B17960  14.567   2.893   8.377
 1036POPC   C3B17961  14.390   3.069   8.012
 1036POPC   C4B17962  14.558   2.923   7.625
 1037POPC   NC317963  18.688  12.988   9.418
 1037POPC   PO417964  18.064  13.013   9.414
 1037POPC   GL117965  18.078  12.764   9.052
 1037POPC   GL217966  18.398  12.878   9.003
 1037POPC   C1A17967  18.002  12.943   8.660
 1037POPC   D2A17968  17.872  13.067   8.223
 1037POPC   C3A17969  18.177  13.194   7.932
 1037POPC   C4A17970  18.117  13.382   7.514
 1037POPC   C1B17971  18.547  12.844   8.599
 1037POPC   C2B17972  18.261  12.701   8.275
 1037POPC   C3B17973  18.075  12.677   7.882
 1037POPC   C4B17974  18.273  12.901   7.522
 1038POPC   NC317975  34.553   6.924   9.462
 1038POPC   PO417976  34.333   6.341   9.260
 1038POPC   GL117977  34.565   6.597   9.016
 1038POPC   GL217978  34.457   6.421   8.730
 1038POPC   C1A17979  34.847   6.702   8.650
 1038POPC   D2A17980  35.002   6.461   8.346
 1038POPC   C3A17981  34.791   6.551   7.971
 1038POPC   C4A17982  34.592   6.240   7.685
 1038POPC   C1B17983  34.380   6.904   8.637
 1038POPC   C2B17984  34.138   7.081   8.308
 1038POPC   C3B17985  34.081   7.007   7.859
 1038POPC   C4B17986  34.146   6.948   7.371
 1039POPC   NC317987  21.881   6.778   9.699
 1039POPC   PO417988  22.339   6.451   9.409
 1039POPC   GL117989  22.135   6.629   9.128
 1039POPC   GL217990  21.804   6.619   9.233
 1039POPC   C1A17991  22.250   6.652   8.712
 1039POPC   D2A17992  22.308   6.860   8.340
 1039POPC   C3A17993  22.277   6.642   7.955
 1039POPC   C4A17994  22.291   6.200   7.954
 1039POPC   C1B17995  21.786   6.915   8.902
 1039POPC   C2B17996  21.833   6.905   8.496
 1039POPC   C3B17997  21.844   6.900   8.079
 1039POPC   C4B17998  21.921   7.171   7.758
 1040POPC   NC317999  12.910  37.152   9.670
 1040POPC   PO418000  12.976  37.848   9.672
 1040POPC   GL118001  12.908  37.594   9.329
 1040POPC   GL218002  12.574  37.417   9.394
 1040POPC   C1A18003  12.978  37.682   8.892
 1040POPC   D2A18004  12.724  37.882   8.590
 1040POPC   C3A18005  12.869  37.885   8.178
 1040POPC   C4A18006  13.103  37.640   7.894
 1040POPC   C1B18007  12.593  37.372   8.966
 1040POPC   C2B18008  12.732  37.380   8.550
 1040POPC   C3B18009  12.732  37.375   8.135
 1040POPC   C4B18010  12.755  37.253   7.747
 1041POPC   NC318011   7.005  10.852   9.407
 1041POPC   PO418012   6.404  11.021   9.635
 1041POPC   GL118013   6.589  11.229   9.252
 1041POPC   GL218014   6.475  11.584   9.134
 1041POPC   C1A18015   6.681  11.258   8.787
 1041POPC   D2A18016   6.744  11.492   8.378
 1041POPC   C3A18017   6.598  11.229   8.025
 1041POPC   C4A18018   6.221  11.093   7.753
 1041POPC   C1B18019   6.334  11.670   8.675
 1041POPC   C2B18020   6.275  11.643   8.199
 1041POPC   C3B18021   6.538  11.699   7.844
 1041POPC   C4B18022   6.965  11.540   7.787
 1042POPC   NC318023  37.250  16.116   9.589
 1042POPC   PO418024  36.945  15.540   9.552
 1042POPC   GL118025  37.083  15.792   9.169
 1042POPC   GL218026  36.958  16.129   9.172
 1042POPC   C1A18027  37.028  15.841   8.715
 1042POPC   D2A18028  36.855  15.852   8.283
 1042POPC   C3A18029  37.108  15.823   7.873
 1042POPC   C4A18030  37.036  15.601   7.447
 1042POPC   C1B18031  36.728  16.264   8.815
 1042POPC   C2B18032  36.767  16.379   8.387
 1042POPC   C3B18033  36.779  16.230   7.975
 1042POPC   C4B18034  36.954  16.227   7.582
 1043POPC   NC318035  34.773   3.143   9.459
 1043POPC   PO418036  34.425   2.566   9.496
 1043POPC   GL118037  34.530   2.790   9.149
 1043POPC   GL218038  34.905   2.751   9.147
 1043POPC   C1A18039  34.582   3.103   8.819
 1043POPC   D2A18040  34.740   3.040   8.384
 1043POPC   C3A18041  34.499   2.751   8.112
 1043POPC   C4A18042  34.309   2.839   7.691
 1043POPC   C1B18043  34.797   2.639   8.719
 1043POPC   C2B18044  34.975   2.563   8.324
 1043POPC   C3B18045  34.968   2.715   7.909
 1043POPC   C4B18046  34.995   2.707   7.478
 1044POPC   NC318047  40.344  19.603   9.494
 1044POPC   PO418048  39.989  20.112   9.494
 1044POPC   GL118049  40.247  19.972   9.146
 1044POPC   GL218050  40.252  20.148   8.825
 1044POPC   C1A18051  40.144  19.665   8.798
 1044POPC   D2A18052  40.178  19.895   8.379
 1044POPC   C3A18053  40.141  19.667   7.994
 1044POPC   C4A18054  39.827  19.564   7.747
 1044POPC   C1B18055  39.789  20.010   8.724
 1044POPC   C2B18056  39.672  19.834   8.321
 1044POPC   C3B18057  39.751  20.032   7.927
 1044POPC   C4B18058  39.588  19.965   7.486
 1045POPC   NC318059  12.738   9.587   9.522
 1045POPC   PO418060  13.139  10.076   9.319
 1045POPC   GL118061  12.888   9.789   9.076
 1045POPC   GL218062  13.140   9.505   9.153
 1045POPC   C1A18063  12.547   9.784   8.727
 1045POPC   D2A18064  12.451   9.918   8.282
 1045POPC   C3A18065  12.783   9.938   7.984
 1045POPC   C4A18066  12.754   9.991   7.569
 1045POPC   C1B18067  13.212   9.657   8.716
 1045POPC   C2B18068  12.908   9.610   8.378
 1045POPC   C3B18069  12.862   9.422   7.984
 1045POPC   C4B18070  13.046   9.577   7.628
 1046POPC   NC318071  42.653  16.290   9.574
 1046POPC   PO418072  43.191  15.943   9.675
 1046POPC   GL118073  42.985  15.949   9.222
 1046POPC   GL218074  42.786  16.244   9.080
 1046POPC   C1A18075  43.097  16.008   8.740
 1046POPC   D2A18076  43.167  15.944   8.278
 1046POPC   C3A18077  43.074  16.194   7.937
 1046POPC   C4A18078  43.371  16.361   7.679
 1046POPC   C1B18079  42.626  15.842   8.826
 1046POPC   C2B18080  42.757  15.688   8.406
 1046POPC   C3B18081  42.787  15.764   7.946
 1046POPC   C4B18082  42.785  15.790   7.480
 1047POPC   NC318083  29.816  28.652   9.648
 1047POPC   PO418084  30.399  28.483   9.585
 1047POPC   GL118085  30.124  28.538   9.204
 1047POPC   GL218086  29.756  28.642   9.142
 1047POPC   C1A18087  30.101  28.286   8.827
 1047POPC   D2A18088  29.969  28.372   8.400
 1047POPC   C3A18089  30.143  28.442   7.969
 1047POPC   C4A18090  30.089  28.568   7.519
 1047POPC   C1B18091  29.606  28.405   8.776
 1047POPC   C2B18092  29.464  28.513   8.328
 1047POPC   C3B18093  29.621  28.583   7.896
 1047POPC   C4B18094  29.754  28.207   7.661
 1048POPC   NC318095  18.423  35.190   9.453
 1048POPC   PO418096  17.777  35.661   9.484
 1048POPC   GL118097  18.075  35.587   9.143
 1048POPC   GL218098  18.062  35.233   9.114
 1048POPC   C1A18099  18.287  35.450   8.715
 1048POPC   D2A18100  18.544  35.475   8.334
 1048POPC   C3A18101  18.411  35.492   7.871
 1048POPC   C4A18102  18.631  35.240   7.502
 1048POPC   C1B18103  17.926  35.045   8.743
 1048POPC   C2B18104  18.127  34.985   8.347
 1048POPC   C3B18105  18.060  35.106   7.924
 1048POPC   C4B18106  18.119  35.225   7.495
 1049POPC   NC318107  36.597  20.980   9.470
 1049POPC   PO418108  37.024  21.357   9.721
 1049POPC   GL118109  37.029  21.299   9.250
 1049POPC   GL218110  36.702  21.297   9.079
 1049POPC   C1A18111  37.072  21.575   8.865
 1049POPC   D2A18112  37.163  21.476   8.428
 1049POPC   C3A18113  37.113  21.646   8.009
 1049POPC   C4A18114  37.087  21.376   7.658
 1049POPC   C1B18115  36.565  21.159   8.664
 1049POPC   C2B18116  36.722  21.236   8.265
 1049POPC   C3B18117  36.646  21.445   7.891
 1049POPC   C4B18118  36.636  21.253   7.467
 1050POPC   NC318119  32.985   9.420   9.666
 1050POPC   PO418120  33.325  10.098   9.474
 1050POPC   GL118121  32.996   9.937   9.154
 1050POPC   GL218122  32.920   9.581   9.132
 1050POPC   C1A18123  33.126   9.800   8.732
 1050POPC   D2A18124  32.990   9.904   8.341
 1050POPC   C3A18125  33.160   9.840   7.939
 1050POPC   C4A18126  32.849   9.807   7.569
 1050POPC   C1B18127  32.793   9.280   8.812
 1050POPC   C2B18128  32.742   9.417   8.378
 1050POPC   C3B18129  32.839   9.452   7.940
 1050POPC   C4B18130  32.680   9.321   7.527
 1051POPC   NC318131  29.366  34.375   9.548
 1051POPC   PO418132  29.951  34.385   9.500
 1051POPC   GL118133  29.976  34.528   9.091
 1051POPC   GL218134  30.241  34.768   9.109
 1051POPC   C1A18135  29.803  34.831   8.766
 1051POPC   D2A18136  29.587  34.785   8.367
 1051POPC   C3A18137  29.605  34.389   8.132
 1051POPC   C4A18138  29.822  34.241   7.769
 1051POPC   C1B18139  30.280  34.623   8.698
 1051POPC   C2B18140  30.095  34.576   8.316
 1051POPC   C3B18141  30.132  34.624   7.895
 1051POPC   C4B18142  30.117  34.748   7.470
 1052POPC   NC318143  26.710  17.163   9.513
 1052POPC   PO418144  27.078  17.747   9.384
 1052POPC   GL118145  26.790  17.529   9.135
 1052POPC   GL218146  26.430  17.592   9.227
 1052POPC   C1A18147  26.897  17.592   8.718
 1052POPC   D2A18148  26.829  17.921   8.446
 1052POPC   C3A18149  26.715  17.838   8.008
 1052POPC   C4A18150  26.820  17.519   7.768
 1052POPC   C1B18151  26.390  17.703   8.785
 1052POPC   C2B18152  26.501  17.537   8.369
 1052POPC   C3B18153  26.432  17.288   7.996
 1052POPC   C4B18154  26.326  17.599   7.704
 1053POPC   NC318155  28.911   0.782   9.346
 1053POPC   PO418156  29.269   1.408   9.529
 1053POPC   GL118157  29.157   1.284   9.171
 1053POPC   GL218158  29.430   1.129   9.010
 1053POPC   C1A18159  29.105   1.453   8.779
 1053POPC   D2A18160  29.451   1.306   8.511
 1053POPC   C3A18161  29.341   1.195   8.086
 1053POPC   C4A18162  29.062   1.258   7.746
 1053POPC   C1B18163  29.148   0.941   8.745
 1053POPC   C2B18164  28.895   0.718   8.503
 1053POPC   C3B18165  29.093   0.669   8.143
 1053POPC   C4B18166  28.912   0.698   7.757
 1054POPC   NC318167  42.471  17.062   9.544
 1054POPC   PO418168  42.151  16.487   9.614
 1054POPC   GL118169  42.383  16.654   9.203
 1054POPC   GL218170  42.252  16.980   9.120
 1054POPC   C1A18171  42.457  16.792   8.726
 1054POPC   D2A18172  42.318  16.612   8.344
 1054POPC   C3A18173  42.455  16.779   7.947
 1054POPC   C4A18174  42.481  16.580   7.535
 1054POPC   C1B18175  41.941  17.084   8.849
 1054POPC   C2B18176  42.064  17.064   8.472
 1054POPC   C3B18177  41.993  16.962   8.112
 1054POPC   C4B18178  41.956  17.089   7.743
 1055POPC   NC318179  14.364  16.738   9.556
 1055POPC   PO418180  14.768  17.266   9.635
 1055POPC   GL118181  14.665  17.062   9.248
 1055POPC   GL218182  14.332  17.148   9.215
 1055POPC   C1A18183  14.525  16.816   8.896
 1055POPC   D2A18184  14.509  16.991   8.457
 1055POPC   C3A18185  14.517  16.908   8.019
 1055POPC   C4A18186  14.573  16.759   7.590
 1055POPC   C1B18187  14.130  17.090   8.769
 1055POPC   C2B18188  14.050  16.859   8.316
 1055POPC   C3B18189  14.127  16.595   7.912
 1055POPC   C4B18190  14.123  16.597   7.443
 1056POPC   NC318191   3.855   5.703   9.635
 1056POPC   PO418192   3.683   6.273   9.296
 1056POPC   GL118193   3.384   5.986   9.080
 1056POPC   GL218194   3.563   5.706   9.208
 1056POPC   C1A18195   3.208   5.881   8.659
 1056POPC   D2A18196   3.540   5.951   8.392
 1056POPC   C3A18197   3.432   6.047   7.998
 1056POPC   C4A18198   3.438   5.873   7.616
 1056POPC   C1B18199   3.551   5.545   8.781
 1056POPC   C2B18200   3.364   5.465   8.386
 1056POPC   C3B18201   3.548   5.544   8.019
 1056POPC   C4B18202   3.381   5.333   7.712
 1057POPC   NC318203  15.298  13.775   9.518
 1057POPC   PO418204  15.666  13.189   9.476
 1057POPC   GL118205  15.387  13.415   9.129
 1057POPC   GL218206  15.106  13.683   9.073
 1057POPC   C1A18207  15.352  13.273   8.683
 1057POPC   D2A18208  15.307  12.993   8.314
 1057POPC   C3A18209  15.125  13.224   7.982
 1057POPC   C4A18210  15.390  13.531   7.812
 1057POPC   C1B18211  15.040  13.679   8.660
 1057POPC   C2B18212  15.211  13.635   8.277
 1057POPC   C3B18213  15.090  13.928   7.949
 1057POPC   C4B18214  15.048  14.090   7.541
 1058POPC   NC318215  17.897   3.571   9.500
 1058POPC   PO418216  17.280   3.763   9.667
 1058POPC   GL118217  17.390   3.481   9.317
 1058POPC   GL218218  17.575   3.744   9.155
 1058POPC   C1A18219  17.340   3.413   8.853
 1058POPC   D2A18220  17.461   3.390   8.418
 1058POPC   C3A18221  17.186   3.516   8.107
 1058POPC   C4A18222  17.410   3.393   7.773
 1058POPC   C1B18223  17.624   3.875   8.744
 1058POPC   C2B18224  17.380   3.913   8.366
 1058POPC   C3B18225  17.521   3.878   7.925
 1058POPC   C4B18226  17.592   3.775   7.485
 1059POPC   NC318227   8.507   9.160   9.783
 1059POPC   PO418228   8.946   8.699   9.563
 1059POPC   GL118229   8.945   8.898   9.168
 1059POPC   GL218230   8.782   8.616   8.979
 1059POPC   C1A18231   9.053   8.980   8.747
 1059POPC   D2A18232   8.907   8.777   8.434
 1059POPC   C3A18233   9.099   8.977   8.119
 1059POPC   C4A18234   8.981   9.189   7.746
 1059POPC   C1B18235   9.182   8.456   8.851
 1059POPC   C2B18236   9.207   8.310   8.437
 1059POPC   C3B18237   9.031   8.403   8.103
 1059POPC   C4B18238   9.067   8.632   7.760
 1060POPC   NC318239   5.524  37.082   9.486
 1060POPC   PO418240   6.059  36.741   9.607
 1060POPC   GL118241   5.946  36.960   9.225
 1060POPC   GL218242   5.746  36.712   9.183
 1060POPC   C1A18243   5.717  37.043   8.805
 1060POPC   D2A18244   5.683  37.194   8.371
 1060POPC   C3A18245   5.737  37.080   7.910
 1060POPC   C4A18246   5.654  37.194   7.445
 1060POPC   C1B18247   6.021  36.636   8.833
 1060POPC   C2B18248   5.919  36.722   8.406
 1060POPC   C3B18249   5.820  36.573   7.961
 1060POPC   C4B18250   5.595  36.654   7.609
 1061POPC   NC318251  22.658  18.213   9.801
 1061POPC   PO418252  23.216  18.124   9.519
 1061POPC   GL118253  23.050  18.044   9.112
 1061POPC   GL218254  23.161  17.696   9.044
 1061POPC   C1A18255  23.021  18.316   8.717
 1061POPC   D2A18256  23.252  18.490   8.348
 1061POPC   C3A18257  23.084  18.440   7.938
 1061POPC   C4A18258  22.932  18.147   7.633
 1061POPC   C1B18259  23.313  17.913   8.651
 1061POPC   C2B18260  23.162  18.000   8.238
 1061POPC   C3B18261  23.093  17.747   7.890
 1061POPC   C4B18262  22.920  17.546   7.528
 1062POPC   NC318263  13.046   4.469   9.340
 1062POPC   PO418264  12.719   3.908   9.474
 1062POPC   GL118265  12.628   4.108   9.096
 1062POPC   GL218266  12.520   4.430   9.206
 1062POPC   C1A18267  12.806   4.061   8.660
 1062POPC   D2A18268  13.100   3.992   8.295
 1062POPC   C3A18269  13.026   4.292   7.994
 1062POPC   C4A18270  13.013   4.575   7.660
 1062POPC   C1B18271  12.630   4.550   8.791
 1062POPC   C2B18272  12.548   4.451   8.358
 1062POPC   C3B18273  12.596   4.638   7.952
 1062POPC   C4B18274  12.490   4.542   7.522
 1063POPC   NC318275   1.590  36.575  10.018
 1063POPC   PO418276   2.113  36.356   9.760
 1063POPC   GL118277   2.119  36.350   9.270
 1063POPC   GL218278   2.313  36.094   9.139
 1063POPC   C1A18279   1.909  36.162   8.839
 1063POPC   D2A18280   2.100  35.949   8.434
 1063POPC   C3A18281   2.016  36.071   7.966
 1063POPC   C4A18282   1.867  35.925   7.536
 1063POPC   C1B18283   2.338  36.382   8.729
 1063POPC   C2B18284   2.071  36.454   8.325
 1063POPC   C3B18285   2.136  36.570   7.847
 1063POPC   C4B18286   2.418  36.622   7.446
 1064POPC   NC318287  36.751  24.337   9.423
 1064POPC   PO418288  37.397  24.562   9.643
 1064POPC   GL118289  37.190  24.712   9.227
 1064POPC   GL218290  36.813  24.787   9.182
 1064POPC   C1A18291  37.102  24.563   8.790
 1064POPC   D2A18292  37.232  24.224   8.479
 1064POPC   C3A18293  37.073  24.274   8.051
 1064POPC   C4A18294  37.030  24.552   7.685
 1064POPC   C1B18295  36.605  24.565   8.811
 1064POPC   C2B18296  36.743  24.449   8.415
 1064POPC   C3B18297  36.627  24.562   8.011
 1064POPC   C4B18298  36.529  24.410   7.623
 1065POPC   NC318299  24.348  17.214   9.422
 1065POPC   PO418300  24.681  17.819   9.459
 1065POPC   GL118301  24.515  17.641   9.135
 1065POPC   GL218302  24.752  17.393   9.145
 1065POPC   C1A18303  24.635  17.701   8.725
 1065POPC   D2A18304  24.373  17.719   8.384
 1065POPC   C3A18305  24.512  17.587   7.996
 1065POPC   C4A18306  24.255  17.687   7.663
 1065POPC   C1B18307  24.607  17.213   8.787
 1065POPC   C2B18308  24.704  17.298   8.380
 1065POPC   C3B18309  24.549  17.082   8.034
 1065POPC   C4B18310  24.346  17.161   7.651
 1066POPC   NC318311  40.855  17.282   9.507
 1066POPC   PO418312  40.979  17.902   9.335
 1066POPC   GL118313  40.795  17.595   9.118
 1066POPC   GL218314  40.467  17.605   9.019
 1066POPC   C1A18315  40.910  17.348   8.790
 1066POPC   D2A18316  40.840  17.543   8.402
 1066POPC   C3A18317  41.074  17.482   8.051
 1066POPC   C4A18318  40.832  17.228   7.802
 1066POPC   C1B18319  40.641  17.923   8.716
 1066POPC   C2B18320  40.604  17.974   8.263
 1066POPC   C3B18321  40.629  17.714   7.914
 1066POPC   C4B18322  40.942  17.717   7.599
 1067POPC   NC318323  40.063  31.447   9.624
 1067POPC   PO418324  40.407  30.881   9.418
 1067POPC   GL118325  40.330  31.228   9.152
 1067POPC   GL218326  40.226  31.582   9.165
 1067POPC   C1A18327  40.394  31.376   8.748
 1067POPC   D2A18328  40.240  31.206   8.410
 1067POPC   C3A18329  40.303  31.483   8.100
 1067POPC   C4A18330  40.265  31.377   7.719
 1067POPC   C1B18331  39.898  31.445   8.886
 1067POPC   C2B18332  39.749  31.323   8.470
 1067POPC   C3B18333  39.773  31.499   8.024
 1067POPC   C4B18334  39.918  31.724   7.635
 1068POPC   NC318335  30.159  14.994   9.585
 1068POPC   PO418336  29.650  15.501   9.461
 1068POPC   GL118337  29.747  15.491   8.953
 1068POPC   GL218338  30.131  15.397   8.806
 1068POPC   C1A18339  29.749  15.204   8.586
 1068POPC   D2A18340  30.072  15.265   8.322
 1068POPC   C3A18341  29.803  15.330   8.042
 1068POPC   C4A18342  29.793  15.406   7.669
 1068POPC   C1B18343  30.187  14.960   8.738
 1068POPC   C2B18344  30.268  14.792   8.364
 1068POPC   C3B18345  30.273  14.981   7.962
 1068POPC   C4B18346  29.940  14.927   7.668
 1069POPC   NC318347  11.315  37.116   9.508
 1069POPC   PO418348  10.851  36.623   9.418
 1069POPC   GL118349  11.166  36.785   9.140
 1069POPC   GL218350  10.916  36.808   8.926
 1069POPC   C1A18351  11.463  36.963   8.806
 1069POPC   D2A18352  11.411  37.129   8.387
 1069POPC   C3A18353  11.643  37.134   8.008
 1069POPC   C4A18354  11.435  36.941   7.672
 1069POPC   C1B18355  10.939  37.073   8.588
 1069POPC   C2B18356  10.892  37.029   8.158
 1069POPC   C3B18357  10.956  37.139   7.739
 1069POPC   C4B18358  11.117  37.145   7.321
 1070POPC   NC318359  43.016   5.269   9.397
 1070POPC   PO418360  43.578   4.919   9.465
 1070POPC   GL118361  43.445   5.184   9.133
 1070POPC   GL218362  43.183   4.956   9.048
 1070POPC   C1A18363  43.315   5.355   8.730
 1070POPC   D2A18364  43.120   5.238   8.336
 1070POPC   C3A18365  43.254   5.095   7.966
 1070POPC   C4A18366  43.223   5.258   7.562
 1070POPC   C1B18367  42.853   5.065   8.732
 1070POPC   C2B18368  42.718   4.935   8.309
 1070POPC   C3B18369  42.770   5.027   7.860
 1070POPC   C4B18370  42.754   5.088   7.421
 1071POPC   NC318371  31.627  32.455   9.577
 1071POPC   PO418372  31.750  31.795   9.460
 1071POPC   GL118373  31.603  32.111   9.187
 1071POPC   GL218374  31.818  32.375   9.109
 1071POPC   C1A18375  31.393  32.208   8.792
 1071POPC   D2A18376  31.116  32.177   8.401
 1071POPC   C3A18377  31.227  31.957   7.999
 1071POPC   C4A18378  31.632  32.035   7.848
 1071POPC   C1B18379  31.763  32.609   8.698
 1071POPC   C2B18380  31.600  32.370   8.340
 1071POPC   C3B18381  31.342  32.444   7.992
 1071POPC   C4B18382  31.452  32.731   7.710
 1072POPC   NC318383   4.445  41.292   9.327
 1072POPC   PO418384   3.994  41.771   9.524
 1072POPC   GL118385   4.016  41.804   9.061
 1072POPC   GL218386   4.086  41.473   9.002
 1072POPC   C1A18387   4.074  41.769   8.589
 1072POPC   D2A18388   4.457  41.854   8.369
 1072POPC   C3A18389   4.459  41.630   8.001
 1072POPC   C4A18390   4.630  41.639   7.571
 1072POPC   C1B18391   4.428  41.399   8.689
 1072POPC   C2B18392   4.760  41.413   8.375
 1072POPC   C3B18393   4.735  41.209   7.965
 1072POPC   C4B18394   4.399  41.199   7.718
 1073POPC   NC318395   0.687   2.688   9.511
 1073POPC   PO418396   0.258   3.244   9.638
 1073POPC   GL118397   0.485   3.048   9.231
 1073POPC   GL218398   0.291   2.805   9.032
 1073POPC   C1A18399   0.702   2.986   8.815
 1073POPC   D2A18400   0.444   2.798   8.522
 1073POPC   C3A18401   0.522   2.865   8.092
 1073POPC   C4A18402   0.513   3.217   7.826
 1073POPC   C1B18403   0.614   2.486   8.888
 1073POPC   C2B18404   0.653   2.327   8.498
 1073POPC   C3B18405   0.339   2.385   8.209
 1073POPC   C4B18406   0.429   2.388   7.829
 1074POPC   NC318407  33.928  23.127   9.601
 1074POPC   PO418408  34.201  22.569   9.603
 1074POPC   GL118409  34.028  22.800   9.193
 1074POPC   GL218410  34.013  23.172   9.108
 1074POPC   C1A18411  33.944  22.862   8.708
 1074POPC   D2A18412  33.855  23.130   8.327
 1074POPC   C3A18413  33.758  22.935   7.926
 1074POPC   C4A18414  33.704  22.757   7.527
 1074POPC   C1B18415  34.108  23.386   8.718
 1074POPC   C2B18416  34.208  23.524   8.282
 1074POPC   C3B18417  34.005  23.574   7.855
 1074POPC   C4B18418  33.892  23.650   7.406
 1075POPC   NC318419  12.677  28.558   9.547
 1075POPC   PO418420  13.002  27.946   9.655
 1075POPC   GL118421  12.857  28.186   9.259
 1075POPC   GL218422  12.551  28.035   9.327
 1075POPC   C1A18423  12.766  28.507   8.898
 1075POPC   D2A18424  12.872  28.832   8.581
 1075POPC   C3A18425  12.935  28.638   8.203
 1075POPC   C4A18426  13.000  28.646   7.786
 1075POPC   C1B18427  12.516  28.048   8.876
 1075POPC   C2B18428  12.622  28.226   8.427
 1075POPC   C3B18429  12.736  28.221   7.957
 1075POPC   C4B18430  12.978  28.153   7.559
 1076POPC   NC318431  27.733  15.758   9.622
 1076POPC   PO418432  27.432  16.315   9.365
 1076POPC   GL118433  27.615  16.049   9.052
 1076POPC   GL218434  27.778  15.738   9.114
 1076POPC   C1A18435  27.767  16.135   8.646
 1076POPC   D2A18436  27.479  16.276   8.320
 1076POPC   C3A18437  27.381  15.971   8.016
 1076POPC   C4A18438  27.611  15.903   7.677
 1076POPC   C1B18439  27.805  15.634   8.696
 1076POPC   C2B18440  27.759  15.704   8.260
 1076POPC   C3B18441  27.959  15.596   7.865
 1076POPC   C4B18442  27.743  15.484   7.458
 1077POPC   NC318443  12.557   6.190   9.354
 1077POPC   PO418444  12.943   5.631   9.397
 1077POPC   GL118445  12.789   5.816   9.053
 1077POPC   GL218446  13.113   5.815   8.926
 1077POPC   C1A18447  12.647   5.793   8.627
 1077POPC   D2A18448  12.724   5.661   8.203
 1077POPC   C3A18449  12.678   5.945   7.822
 1077POPC   C4A18450  12.653   5.865   7.353
 1077POPC   C1B18451  13.170   5.841   8.503
 1077POPC   C2B18452  13.111   5.975   8.109
 1077POPC   C3B18453  13.147   6.108   7.744
 1077POPC   C4B18454  13.115   5.787   7.509
 1078POPC   NC318455   1.719  40.048   9.412
 1078POPC   PO418456   2.323  39.736   9.479
 1078POPC   GL118457   2.225  40.124   9.149
 1078POPC   GL218458   1.935  40.426   9.148
 1078POPC   C1A18459   2.360  40.119   8.700
 1078POPC   D2A18460   2.349  40.120   8.239
 1078POPC   C3A18461   1.980  40.183   7.988
 1078POPC   C4A18462   1.971  39.888   7.702
 1078POPC   C1B18463   1.856  40.212   8.755
 1078POPC   C2B18464   1.945  39.889   8.429
 1078POPC   C3B18465   1.855  39.590   8.078
 1078POPC   C4B18466   1.565  39.593   7.688
 1079POPC   NC318467  35.977   4.472   9.980
 1079POPC   PO418468  36.553   4.303   9.732
 1079POPC   GL118469  36.319   4.503   9.330
 1079POPC   GL218470  36.015   4.676   9.141
 1079POPC   C1A18471  36.373   4.442   8.868
 1079POPC   D2A18472  36.196   4.093   8.568
 1079POPC   C3A18473  36.187   4.189   8.115
 1079POPC   C4A18474  36.314   4.313   7.700
 1079POPC   C1B18475  35.867   4.429   8.792
 1079POPC   C2B18476  35.701   4.362   8.382
 1079POPC   C3B18477  35.694   4.083   8.027
 1079POPC   C4B18478  35.840   4.051   7.596
 1080POPC   NC318479  34.849  18.695   9.451
 1080POPC   PO418480  34.633  19.437   9.482
 1080POPC   GL118481  34.559  19.089   9.242
 1080POPC   GL218482  34.907  19.109   9.125
 1080POPC   C1A18483  34.514  18.843   8.884
 1080POPC   D2A18484  34.621  18.961   8.487
 1080POPC   C3A18485  34.373  18.887   8.127
 1080POPC   C4A18486  34.402  18.796   7.664
 1080POPC   C1B18487  35.037  18.826   8.780
 1080POPC   C2B18488  35.000  18.667   8.336
 1080POPC   C3B18489  34.858  18.980   8.025
 1080POPC   C4B18490  34.797  19.159   7.618
 1081POPC   NC318491  19.402   8.958   9.866
 1081POPC   PO418492  19.966   8.852   9.546
 1081POPC   GL118493  19.952   8.893   9.129
 1081POPC   GL218494  19.769   8.654   9.000
 1081POPC   C1A18495  20.035   8.945   8.702
 1081POPC   D2A18496  19.917   8.857   8.301
 1081POPC   C3A18497  19.625   9.060   8.038
 1081POPC   C4A18498  19.998   9.046   7.792
 1081POPC   C1B18499  19.539   8.785   8.640
 1081POPC   C2B18500  19.519   8.584   8.248
 1081POPC   C3B18501  19.715   8.591   7.842
 1081POPC   C4B18502  19.741   8.503   7.390
 1082POPC   NC318503  10.756  12.441   9.250
 1082POPC   PO418504  10.715  13.025   9.589
 1082POPC   GL118505  10.412  12.874   9.271
 1082POPC   GL218506  10.213  12.607   9.122
 1082POPC   C1A18507  10.473  12.943   8.817
 1082POPC   D2A18508  10.651  13.053   8.413
 1082POPC   C3A18509  10.529  12.843   8.029
 1082POPC   C4A18510  10.443  13.020   7.583
 1082POPC   C1B18511  10.190  12.453   8.661
 1082POPC   C2B18512  10.062  12.598   8.218
 1082POPC   C3B18513  10.178  12.619   7.760
 1082POPC   C4B18514  10.226  12.493   7.274
 1083POPC   NC318515  42.438  33.533   9.763
 1083POPC   PO418516  42.097  33.999   9.611
 1083POPC   GL118517  42.127  33.643   9.288
 1083POPC   GL218518  41.812  33.577   9.155
 1083POPC   C1A18519  42.202  33.469   8.835
 1083POPC   D2A18520  42.137  33.463   8.363
 1083POPC   C3A18521  42.383  33.615   7.999
 1083POPC   C4A18522  42.400  33.947   7.678
 1083POPC   C1B18523  41.939  33.899   8.872
 1083POPC   C2B18524  41.907  33.924   8.436
 1083POPC   C3B18525  41.957  33.910   7.994
 1083POPC   C4B18526  41.985  34.279   7.752
 1084POPC   NC318527  38.893  18.111   9.501
 1084POPC   PO418528  39.188  18.686   9.638
 1084POPC   GL118529  39.110  18.513   9.216
 1084POPC   GL218530  38.883  18.673   9.020
 1084POPC   C1A18531  39.130  18.242   8.814
 1084POPC   D2A18532  38.987  18.054   8.395
 1084POPC   C3A18533  39.280  17.971   8.027
 1084POPC   C4A18534  39.482  18.146   7.633
 1084POPC   C1B18535  39.278  18.749   8.767
 1084POPC   C2B18536  39.418  18.499   8.406
 1084POPC   C3B18537  39.211  18.468   7.973
 1084POPC   C4B18538  39.132  18.547   7.515
 1085POPC   NC318539  42.082  28.375   9.499
 1085POPC   PO418540  42.695  27.990   9.541
 1085POPC   GL118541  42.545  28.252   9.178
 1085POPC   GL218542  42.188  28.278   9.020
 1085POPC   C1A18543  42.571  28.155   8.734
 1085POPC   D2A18544  42.287  28.335   8.453
 1085POPC   C3A18545  42.521  28.469   8.093
 1085POPC   C4A18546  42.564  28.308   7.660
 1085POPC   C1B18547  41.945  28.582   8.757
 1085POPC   C2B18548  41.860  28.739   8.330
 1085POPC   C3B18549  42.006  28.540   7.945
 1085POPC   C4B18550  41.917  28.606   7.504
 1086POPC   NC318551  14.306  20.410   9.442
 1086POPC   PO418552  14.384  21.087   9.440
 1086POPC   GL118553  14.521  20.782   9.133
 1086POPC   GL218554  14.197  20.707   9.056
 1086POPC   C1A18555  14.647  20.782   8.694
 1086POPC   D2A18556  14.454  20.798   8.267
 1086POPC   C3A18557  14.630  20.648   7.837
 1086POPC   C4A18558  14.753  20.824   7.347
 1086POPC   C1B18559  14.135  20.587   8.658
 1086POPC   C2B18560  14.152  20.252   8.383
 1086POPC   C3B18561  14.204  20.414   7.999
 1086POPC   C4B18562  14.123  20.317   7.635
 1087POPC   NC318563  13.353   6.716   9.652
 1087POPC   PO418564  13.935   6.905   9.699
 1087POPC   GL118565  13.777   6.635   9.319
 1087POPC   GL218566  13.524   6.382   9.238
 1087POPC   C1A18567  13.656   6.702   8.859
 1087POPC   D2A18568  13.670   6.545   8.441
 1087POPC   C3A18569  13.907   6.608   8.066
 1087POPC   C4A18570  13.752   6.753   7.662
 1087POPC   C1B18571  13.344   6.278   8.807
 1087POPC   C2B18572  13.210   6.383   8.368
 1087POPC   C3B18573  13.542   6.226   8.040
 1087POPC   C4B18574  13.589   6.273   7.584
 1088POPC   NC318575  44.815  22.621   9.410
 1088POPC   PO418576  44.482  23.138   9.476
 1088POPC   GL118577  44.448  23.013   9.040
 1088POPC   GL218578  44.468  22.640   9.017
 1088POPC   C1A18579  44.614  22.911   8.618
 1088POPC   D2A18580  44.797  22.711   8.264
 1088POPC   C3A18581  44.661  22.979   7.924
 1088POPC   C4A18582  44.801  23.335   7.685
 1088POPC   C1B18583  44.111  22.735   8.753
 1088POPC   C2B18584  44.147  22.849   8.332
 1088POPC   C3B18585  44.330  22.613   8.015
 1088POPC   C4B18586  44.376  22.618   7.601
 1089POPC   NC318587  19.634  11.004   9.462
 1089POPC   PO418588  19.903  11.658   9.502
 1089POPC   GL118589  19.907  11.396   9.185
 1089POPC   GL218590  19.546  11.374   9.120
 1089POPC   C1A18591  19.892  11.165   8.828
 1089POPC   D2A18592  19.550  10.950   8.640
 1089POPC   C3A18593  19.626  10.883   8.165
 1089POPC   C4A18594  19.849  11.072   7.761
 1089POPC   C1B18595  19.603  11.578   8.730
 1089POPC   C2B18596  19.682  11.354   8.355
 1089POPC   C3B18597  19.509  11.395   7.963
 1089POPC   C4B18598  19.522  11.777   7.781
 1090POPC   NC318599  42.161  29.371   9.463
 1090POPC   PO418600  42.518  28.892   9.491
 1090POPC   GL118601  42.359  29.075   9.118
 1090POPC   GL218602  42.105  28.808   9.173
 1090POPC   C1A18603  42.422  29.408   8.808
 1090POPC   D2A18604  42.297  29.390   8.383
 1090POPC   C3A18605  42.554  29.396   8.001
 1090POPC   C4A18606  42.430  29.303   7.540
 1090POPC   C1B18607  42.441  28.671   8.851
 1090POPC   C2B18608  42.333  28.860   8.481
 1090POPC   C3B18609  42.279  28.966   8.042
 1090POPC   C4B18610  42.378  28.797   7.633
 1091POPC   NC318611  44.522  11.484   9.353
 1091POPC   PO418612  44.383  10.997   9.555
 1091POPC   GL118613  44.563  10.986   9.127
 1091POPC   GL218614  44.849  11.183   9.088
 1091POPC   C1A18615  44.669  10.941   8.657
 1091POPC   D2A18616  44.532  11.135   8.242
 1091POPC   C3A18617  44.705  11.421   7.906
 1091POPC   C4A18618  44.854  11.391   7.483
 1091POPC   C1B18619  44.976  11.346   8.684
 1091POPC   C2B18620   0.067  11.277   8.238
 1091POPC   C3B18621   0.076  11.053   7.817
 1091POPC   C4B18622   0.101  10.961   7.337
 1092POPC   NC318623   7.091  42.011   9.390
 1092POPC   PO418624   7.658  42.366   9.295
 1092POPC   GL118625   7.418  42.635   9.025
 1092POPC   GL218626   7.112  42.473   9.074
 1092POPC   C1A18627   7.235  42.702   8.623
 1092POPC   D2A18628   7.214  42.407   8.317
 1092POPC   C3A18629   7.289  42.378   7.886
 1092POPC   C4A18630   7.629  42.623   7.775
 1092POPC   C1B18631   7.296  42.188   8.778
 1092POPC   C2B18632   7.655  42.252   8.531
 1092POPC   C3B18633   7.552  42.024   8.182
 1092POPC   C4B18634   7.640  41.973   7.760
 1093POPC   NC318635  20.182  44.622  10.148
 1093POPC   PO418636  20.771  44.700   9.773
 1093POPC   GL118637  20.812  44.758   9.318
 1093POPC   GL218638  20.483  44.803   9.285
 1093POPC   C1A18639  20.869  44.576   8.878
 1093POPC   D2A18640  20.686  44.560   8.472
 1093POPC   C3A18641  20.729  44.327   8.082
 1093POPC   C4A18642  20.710  44.587   7.709
 1093POPC   C1B18643  20.405  44.807   8.833
 1093POPC   C2B18644  20.370  44.971   8.437
 1093POPC   C3B18645  20.390  44.767   8.074
 1093POPC   C4B18646  20.245  44.870   7.675
 1094POPC   NC318647  30.746   1.012   9.393
 1094POPC   PO418648  30.703   1.634   9.399
 1094POPC   GL118649  30.667   1.456   9.046
 1094POPC   GL218650  30.994   1.365   9.037
 1094POPC   C1A18651  30.479   1.189   8.753
 1094POPC   D2A18652  30.644   1.063   8.365
 1094POPC   C3A18653  30.522   1.281   8.002
 1094POPC   C4A18654  30.454   1.164   7.574
 1094POPC   C1B18655  30.986   1.013   8.775
 1094POPC   C2B18656  31.152   0.902   8.395
 1094POPC   C3B18657  30.997   0.994   7.993
 1094POPC   C4B18658  31.018   0.810   7.601
 1095POPC   NC318659  35.722  14.863   9.301
 1095POPC   PO418660  36.062  15.378   9.432
 1095POPC   GL118661  36.106  15.477   9.054
 1095POPC   GL218662  35.936  15.172   8.944
 1095POPC   C1A18663  36.251  15.447   8.643
 1095POPC   D2A18664  36.000  15.196   8.419
 1095POPC   C3A18665  36.126  15.103   8.027
 1095POPC   C4A18666  36.461  15.160   7.792
 1095POPC   C1B18667  35.713  14.847   8.649
 1095POPC   C2B18668  35.730  14.790   8.200
 1095POPC   C3B18669  35.646  14.839   7.769
 1095POPC   C4B18670  35.727  14.896   7.318
 1096POPC   NC318671   5.112  40.027   9.537
 1096POPC   PO418672   4.874  40.598   9.439
 1096POPC   GL118673   4.967  40.265   9.085
 1096POPC   GL218674   5.255  39.992   9.063
 1096POPC   C1A18675   4.991  40.125   8.640
 1096POPC   D2A18676   4.875  40.160   8.233
 1096POPC   C3A18677   5.117  40.239   7.886
 1096POPC   C4A18678   4.963  40.020   7.507
 1096POPC   C1B18679   5.487  40.161   8.724
 1096POPC   C2B18680   5.400  40.018   8.311
 1096POPC   C3B18681   5.185  39.763   8.017
 1096POPC   C4B18682   5.396  39.758   7.606
 1097POPC   NC318683  38.687  22.543   9.476
 1097POPC   PO418684  38.484  23.247   9.588
 1097POPC   GL118685  38.529  22.991   9.211
 1097POPC   GL218686  38.854  22.901   9.123
 1097POPC   C1A18687  38.394  22.782   8.836
 1097POPC   D2A18688  38.492  22.633   8.397
 1097POPC   C3A18689  38.150  22.735   8.111
 1097POPC   C4A18690  38.108  22.889   7.667
 1097POPC   C1B18691  38.779  23.118   8.732
 1097POPC   C2B18692  38.887  22.981   8.325
 1097POPC   C3B18693  38.629  22.884   7.979
 1097POPC   C4B18694  38.575  23.202   7.715
 1098POPC   NC318695   6.407  36.433   9.547
 1098POPC   PO418696   6.671  35.791   9.431
 1098POPC   GL118697   6.630  36.153   9.159
 1098POPC   GL218698   6.298  36.279   9.068
 1098POPC   C1A18699   6.695  36.315   8.736
 1098POPC   D2A18700   6.638  36.120   8.328
 1098POPC   C3A18701   6.935  36.207   8.019
 1098POPC   C4A18702   6.903  36.175   7.608
 1098POPC   C1B18703   6.183  36.193   8.623
 1098POPC   C2B18704   6.198  36.349   8.205
 1098POPC   C3B18705   6.426  36.237   7.846
 1098POPC   C4B18706   6.574  35.823   7.780
 1099POPC   NC318707  31.860  20.046   9.581
 1099POPC   PO418708  32.251  19.435   9.559
 1099POPC   GL118709  32.149  19.607   9.194
 1099POPC   GL218710  32.386  19.818   9.058
 1099POPC   C1A18711  32.061  19.477   8.786
 1099POPC   D2A18712  32.005  19.522   8.342
 1099POPC   C3A18713  32.293  19.762   8.089
 1099POPC   C4A18714  32.233  19.880   7.674
 1099POPC   C1B18715  32.557  19.811   8.636
 1099POPC   C2B18716  32.716  20.017   8.282
 1099POPC   C3B18717  32.667  20.117   7.845
 1099POPC   C4B18718  32.680  20.133   7.385
 1100POPC   NC318719  20.204   4.996   9.543
 1100POPC   PO418720  19.674   5.427   9.567
 1100POPC   GL118721  19.915   5.343   9.189
 1100POPC   GL218722  19.880   5.018   9.138
 1100POPC   C1A18723  19.971   5.334   8.742
 1100POPC   D2A18724  20.104   5.259   8.327
 1100POPC   C3A18725  19.822   5.303   8.015
 1100POPC   C4A18726  19.879   5.105   7.680
 1100POPC   C1B18727  19.761   4.815   8.757
 1100POPC   C2B18728  19.646   5.022   8.409
 1100POPC   C3B18729  19.614   4.828   8.012
 1100POPC   C4B18730  19.575   4.678   7.616
 1101POPC   NC318731  44.877  14.967   9.471
 1101POPC   PO418732  44.386  14.734   9.358
 1101POPC   GL118733  44.613  14.972   9.026
 1101POPC   GL218734  44.597  15.309   9.173
 1101POPC   C1A18735  44.410  15.032   8.610
 1101POPC   D2A18736  44.513  14.820   8.206
 1101POPC   C3A18737  44.771  15.003   7.864
 1101POPC   C4A18738  44.678  14.935   7.402
 1101POPC   C1B18739  44.703  15.417   8.755
 1101POPC   C2B18740  44.801  15.251   8.340
 1101POPC   C3B18741   0.019  15.466   8.010
 1101POPC   C4B18742  44.928  15.856   7.745
 1102POPC   NC318743  11.051   2.636   9.393
 1102POPC   PO418744  11.548   2.228   9.715
 1102POPC   GL118745  11.566   2.536   9.303
 1102POPC   GL218746  11.447   2.881   9.163
 1102POPC   C1A18747  11.622   2.522   8.826
 1102POPC   D2A18748  11.625   2.719   8.423
 1102POPC   C3A18749  11.482   2.461   8.066
 1102POPC   C4A18750  11.467   2.553   7.614
 1102POPC   C1B18751  11.194   2.819   8.764
 1102POPC   C2B18752  11.125   2.835   8.309
 1102POPC   C3B18753  11.327   2.939   7.916
 1102POPC   C4B18754  11.074   2.866   7.541
 1103POPC   NC318755  37.010  37.418   9.726
 1103POPC   PO418756  37.025  36.784   9.459
 1103POPC   GL118757  36.972  36.773   9.021
 1103POPC   GL218758  37.253  36.951   8.849
 1103POPC   C1A18759  36.806  36.919   8.620
 1103POPC   D2A18760  37.029  37.026   8.237
 1103POPC   C3A18761  36.787  37.040   7.829
 1103POPC   C4A18762  36.502  36.839   7.501
 1103POPC   C1B18763  37.202  36.588   8.573
 1103POPC   C2B18764  37.204  36.553   8.133
 1103POPC   C3B18765  37.282  36.852   7.831
 1103POPC   C4B18766  37.221  37.230   7.600
 1104POPC   NC318767  29.024  36.569   9.532
 1104POPC   PO418768  28.831  37.211   9.445
 1104POPC   GL118769  29.100  36.920   9.172
 1104POPC   GL218770  29.453  36.866   9.322
 1104POPC   C1A18771  29.004  36.594   8.822
 1104POPC   D2A18772  29.018  36.419   8.366
 1104POPC   C3A18773  29.084  36.691   7.979
 1104POPC   C4A18774  28.945  36.838   7.541
 1104POPC   C1B18775  29.483  36.728   8.903
 1104POPC   C2B18776  29.365  36.823   8.480
 1104POPC   C3B18777  29.566  36.832   8.065
 1104POPC   C4B18778  29.460  36.871   7.618
 1105POPC   NC318779  13.880  36.906   9.691
 1105POPC   PO418780  13.475  36.495   9.283
 1105POPC   GL118781  13.458  36.853   9.069
 1105POPC   GL218782  13.209  36.714   8.854
 1105POPC   C1A18783  13.619  37.049   8.708
 1105POPC   D2A18784  13.464  36.898   8.325
 1105POPC   C3A18785  13.692  37.094   8.027
 1105POPC   C4A18786  13.847  37.066   7.656
 1105POPC   C1B18787  13.602  36.543   8.666
 1105POPC   C2B18788  13.773  36.495   8.278
 1105POPC   C3B18789  13.628  36.594   7.854
 1105POPC   C4B18790  13.768  36.380   7.476
 1106POPC   NC318791  17.559  33.406   9.416
 1106POPC   PO418792  17.352  32.718   9.412
 1106POPC   GL118793  17.575  32.801   9.084
 1106POPC   GL218794  17.468  33.118   8.977
 1106POPC   C1A18795  17.628  32.668   8.699
 1106POPC   D2A18796  17.542  32.941   8.394
 1106POPC   C3A18797  17.379  32.841   8.024
 1106POPC   C4A18798  17.452  32.981   7.596
 1106POPC   C1B18799  17.864  33.151   8.754
 1106POPC   C2B18800  17.920  33.278   8.302
 1106POPC   C3B18801  17.585  33.335   7.995
 1106POPC   C4B18802  17.370  33.522   7.636
 1107POPC   NC318803  39.426  10.122   9.313
 1107POPC   PO418804  38.878   9.774   9.489
 1107POPC   GL118805  39.092   9.717   9.089
 1107POPC   GL218806  39.467   9.669   9.070
 1107POPC   C1A18807  39.163   9.610   8.653
 1107POPC   D2A18808  39.510   9.547   8.372
 1107POPC   C3A18809  39.407   9.629   7.940
 1107POPC   C4A18810  39.033   9.801   7.738
 1107POPC   C1B18811  39.641   9.911   8.712
 1107POPC   C2B18812  39.798   9.999   8.275
 1107POPC   C3B18813  39.611  10.118   7.853
 1107POPC   C4B18814  39.446   9.931   7.492
 1108POPC   NC318815  10.991  21.502   9.510
 1108POPC   PO418816  11.625  21.770   9.802
 1108POPC   GL118817  11.535  21.612   9.360
 1108POPC   GL218818  11.397  21.278   9.278
 1108POPC   C1A18819  11.529  21.585   8.884
 1108POPC   D2A18820  11.208  21.550   8.531
 1108POPC   C3A18821  11.255  21.700   8.099
 1108POPC   C4A18822  11.400  21.587   7.691
 1108POPC   C1B18823  11.230  21.136   8.867
 1108POPC   C2B18824  11.142  21.046   8.416
 1108POPC   C3B18825  11.255  21.188   8.004
 1108POPC   C4B18826  11.017  21.167   7.628
 1109POPC   NC318827  17.276   4.223   9.695
 1109POPC   PO418828  17.816   4.507   9.404
 1109POPC   GL118829  17.459   4.268   9.207
 1109POPC   GL218830  17.349   4.586   9.075
 1109POPC   C1A18831  17.181   4.147   8.833
 1109POPC   D2A18832  17.125   4.380   8.432
 1109POPC   C3A18833  17.252   4.301   8.015
 1109POPC   C4A18834  17.301   4.202   7.558
 1109POPC   C1B18835  17.634   4.395   8.739
 1109POPC   C2B18836  17.788   4.202   8.350
 1109POPC   C3B18837  17.791   4.344   7.937
 1109POPC   C4B18838  17.532   4.622   7.725
 1110POPC   NC318839  15.471   0.032   9.286
 1110POPC   PO418840  15.203   0.482   9.721
 1110POPC   GL118841  15.103   0.415   9.293
 1110POPC   GL218842  14.947   0.689   9.199
 1110POPC   C1A18843  15.156   0.395   8.824
 1110POPC   D2A18844  15.065   0.394   8.370
 1110POPC   C3A18845  15.320   0.138   8.106
 1110POPC   C4A18846  15.436   0.280   7.693
 1110POPC   C1B18847  14.801   0.757   8.807
 1110POPC   C2B18848  14.644   0.750   8.393
 1110POPC   C3B18849  14.826   0.694   7.972
 1110POPC   C4B18850  14.750   0.803   7.534
 1111POPC   NC318851  25.584  19.843   9.752
 1111POPC   PO418852  26.202  19.881   9.650
 1111POPC   GL118853  26.229  19.725   9.191
 1111POPC   GL218854  25.866  19.651   9.172
 1111POPC   C1A18855  26.371  19.477   8.799
 1111POPC   D2A18856  26.159  19.447   8.384
 1111POPC   C3A18857  26.270  19.641   7.969
 1111POPC   C4A18858  26.235  19.920   7.578
 1111POPC   C1B18859  25.970  19.809   8.732
 1111POPC   C2B18860  25.843  19.821   8.264
 1111POPC   C3B18861  25.790  19.939   7.822
 1111POPC   C4B18862  25.509  19.900   7.442
 1112POPC   NC318863  27.119  42.735   9.522
 1112POPC   PO418864  26.601  42.337   9.592
 1112POPC   GL118865  26.863  42.408   9.141
 1112POPC   GL218866  27.199  42.573   9.040
 1112POPC   C1A18867  26.983  42.284   8.670
 1112POPC   D2A18868  27.110  42.406   8.250
 1112POPC   C3A18869  26.900  42.249   7.884
 1112POPC   C4A18870  27.026  42.080   7.498
 1112POPC   C1B18871  27.019  42.792   8.675
 1112POPC   C2B18872  26.807  42.801   8.255
 1112POPC   C3B18873  26.629  42.687   7.847
 1112POPC   C4B18874  26.378  42.789   7.472
 1113POPC   NC318875  38.539  37.328   9.932
 1113POPC   PO418876  38.355  37.818   9.531
 1113POPC   GL118877  38.414  37.633   9.131
 1113POPC   GL218878  38.275  37.945   9.043
 1113POPC   C1A18879  38.528  37.589   8.662
 1113POPC   D2A18880  38.677  37.348   8.280
 1113POPC   C3A18881  38.348  37.328   7.937
 1113POPC   C4A18882  38.127  37.691   7.798
 1113POPC   C1B18883  38.653  38.018   8.880
 1113POPC   C2B18884  38.603  38.062   8.447
 1113POPC   C3B18885  38.470  37.809   8.150
 1113POPC   C4B18886  38.539  38.016   7.757
 1114POPC   NC318887  24.394  43.604   9.686
 1114POPC   PO418888  24.011  44.112   9.528
 1114POPC   GL118889  24.377  43.959   9.307
 1114POPC   GL218890  24.215  43.664   9.210
 1114POPC   C1A18891  24.598  43.863   8.911
 1114POPC   D2A18892  24.426  43.919   8.483
 1114POPC   C3A18893  24.620  43.700   8.161
 1114POPC   C4A18894  24.798  43.825   7.756
 1114POPC   C1B18895  24.085  43.863   8.865
 1114POPC   C2B18896  24.016  43.566   8.542
 1114POPC   C3B18897  24.066  43.561   8.082
 1114POPC   C4B18898  24.285  43.811   7.781
 1115POPC   NC318899  35.491   8.510   9.495
 1115POPC   PO418900  35.420   7.824   9.529
 1115POPC   GL118901  35.276   8.078   9.194
 1115POPC   GL218902  35.074   8.367   9.091
 1115POPC   C1A18903  35.334   7.982   8.766
 1115POPC   D2A18904  35.585   8.122   8.435
 1115POPC   C3A18905  35.376   7.976   8.078
 1115POPC   C4A18906  35.523   7.944   7.656
 1115POPC   C1B18907  35.501   8.435   8.888
 1115POPC   C2B18908  35.605   8.625   8.581
 1115POPC   C3B18909  35.438   8.580   8.216
 1115POPC   C4B18910  35.291   8.411   7.832
 1116POPC   NC318911  38.983  37.220   9.527
 1116POPC   PO418912  39.583  36.944   9.385
 1116POPC   GL118913  39.262  36.894   9.139
 1116POPC   GL218914  38.951  36.745   9.301
 1116POPC   C1A18915  39.265  37.071   8.736
 1116POPC   D2A18916  39.470  37.087   8.315
 1116POPC   C3A18917  39.389  36.878   7.931
 1116POPC   C4A18918  39.459  36.840   7.480
 1116POPC   C1B18919  38.929  36.672   8.843
 1116POPC   C2B18920  38.986  36.821   8.402
 1116POPC   C3B18921  38.969  36.607   8.031
 1116POPC   C4B18922  39.032  36.599   7.618
 1117POPC   NC318923   2.257  18.765   9.385
 1117POPC   PO418924   1.817  19.270   9.586
 1117POPC   GL118925   1.767  19.240   9.145
 1117POPC   GL218926   1.847  18.900   9.094
 1117POPC   C1A18927   1.896  19.215   8.701
 1117POPC   D2A18928   1.684  19.049   8.331
 1117POPC   C3A18929   1.794  19.332   7.994
 1117POPC   C4A18930   2.180  19.300   7.782
 1117POPC   C1B18931   2.085  18.719   8.743
 1117POPC   C2B18932   2.066  18.546   8.316
 1117POPC   C3B18933   1.989  18.819   7.957
 1117POPC   C4B18934   1.557  18.923   7.840
 1118POPC   NC318935  12.242  11.157   9.441
 1118POPC   PO418936  11.802  11.538   9.716
 1118POPC   GL118937  11.773  11.271   9.247
 1118POPC   GL218938  11.914  10.926   9.157
 1118POPC   C1A18939  11.606  11.130   8.809
 1118POPC   D2A18940  11.730  11.282   8.375
 1118POPC   C3A18941  11.924  11.081   8.002
 1118POPC   C4A18942  11.882  11.246   7.630
 1118POPC   C1B18943  12.127  11.105   8.794
 1118POPC   C2B18944  12.244  11.198   8.381
 1118POPC   C3B18945  12.171  11.521   8.062
 1118POPC   C4B18946  12.322  11.499   7.665
 1119POPC   NC318947   7.785  41.299   9.497
 1119POPC   PO418948   7.104  41.545   9.440
 1119POPC   GL118949   7.435  41.489   9.113
 1119POPC   GL218950   7.762  41.664   9.121
 1119POPC   C1A18951   7.520  41.263   8.728
 1119POPC   D2A18952   7.823  41.281   8.384
 1119POPC   C3A18953   7.584  41.284   7.988
 1119POPC   C4A18954   7.356  41.271   7.592
 1119POPC   C1B18955   7.583  41.759   8.693
 1119POPC   C2B18956   7.338  41.581   8.341
 1119POPC   C3B18957   7.235  41.704   7.909
 1119POPC   C4B18958   6.996  42.018   7.630
 1120POPC   NC318959  13.256  35.131   9.310
 1120POPC   PO418960  12.609  35.243   9.495
 1120POPC   GL118961  12.790  35.071   9.121
 1120POPC   GL218962  12.959  35.407   9.012
 1120POPC   C1A18963  12.871  35.033   8.671
 1120POPC   D2A18964  12.923  35.386   8.386
 1120POPC   C3A18965  12.797  35.373   7.959
 1120POPC   C4A18966  12.466  35.278   7.668
 1120POPC   C1B18967  13.229  35.659   8.739
 1120POPC   C2B18968  13.363  35.617   8.323
 1120POPC   C3B18969  13.233  35.707   7.909
 1120POPC   C4B18970  13.138  35.408   7.572
 1121POPC   NC318971  11.787   6.437   9.395
 1121POPC   PO418972  11.434   6.996   9.484
 1121POPC   GL118973  11.430   6.743   9.106
 1121POPC   GL218974  11.213   6.478   9.048
 1121POPC   C1A18975  11.322   6.801   8.682
 1121POPC   D2A18976  11.423   6.622   8.324
 1121POPC   C3A18977  11.488   6.960   8.152
 1121POPC   C4A18978  11.498   6.850   7.746
 1121POPC   C1B18979  11.294   6.293   8.684
 1121POPC   C2B18980  11.023   6.301   8.371
 1121POPC   C3B18981  11.117   6.324   7.973
 1121POPC   C4B18982  11.472   6.343   7.756
 1122POPC   NC318983   3.864  26.712   9.491
 1122POPC   PO418984   3.328  26.668   9.653
 1122POPC   GL118985   3.405  26.726   9.198
 1122POPC   GL218986   3.100  26.678   9.029
 1122POPC   C1A18987   3.503  26.776   8.715
 1122POPC   D2A18988   3.414  26.622   8.268
 1122POPC   C3A18989   3.677  26.716   7.897
 1122POPC   C4A18990   3.626  27.077   7.615
 1122POPC   C1B18991   2.990  26.842   8.595
 1122POPC   C2B18992   2.921  26.725   8.161
 1122POPC   C3B18993   3.184  26.781   7.796
 1122POPC   C4B18994   3.439  26.609   7.455
 1123POPC   NC318995  29.413  42.025   9.519
 1123POPC   PO418996  29.084  41.430   9.847
 1123POPC   GL118997  29.164  41.455   9.352
 1123POPC   GL218998  29.242  41.742   9.113
 1123POPC   C1A18999  29.183  41.275   8.889
 1123POPC   D2A19000  29.455  41.208   8.471
 1123POPC   C3A19001  29.291  41.302   8.016
 1123POPC   C4A19002  28.905  41.489   7.869
 1123POPC   C1B19003  29.443  41.665   8.717
 1123POPC   C2B19004  29.158  41.626   8.389
 1123POPC   C3B19005  29.078  41.924   8.070
 1123POPC   C4B19006  29.265  41.836   7.707
 1124POPC   NC319007  12.925  33.717   9.618
 1124POPC   PO419008  12.529  34.259   9.649
 1124POPC   GL119009  12.570  33.985   9.266
 1124POPC   GL219010  12.894  33.885   9.155
 1124POPC   C1A19011  12.575  34.101   8.821
 1124POPC   D2A19012  12.689  34.041   8.402
 1124POPC   C3A19013  12.449  33.763   8.140
 1124POPC   C4A19014  12.646  33.759   7.759
 1124POPC   C1B19015  13.067  33.922   8.777
 1124POPC   C2B19016  13.182  33.799   8.385
 1124POPC   C3B19017  13.040  33.945   8.011
 1124POPC   C4B19018  13.148  33.622   7.729
 1125POPC   NC319019  14.152  19.598   9.340
 1125POPC   PO419020  13.519  19.508   9.555
 1125POPC   GL119021  13.581  19.802   9.187
 1125POPC   GL219022  13.478  20.180   9.204
 1125POPC   C1A19023  13.479  19.788   8.747
 1125POPC   D2A19024  13.658  19.640   8.359
 1125POPC   C3A19025  13.394  19.732   8.015
 1125POPC   C4A19026  13.595  19.597   7.692
 1125POPC   C1B19027  13.780  20.204   8.846
 1125POPC   C2B19028  13.657  20.153   8.419
 1125POPC   C3B19029  13.791  20.087   8.001
 1125POPC   C4B19030  13.522  20.136   7.653
 1126POPC   NC319031  11.724   8.844   9.511
 1126POPC   PO419032  11.138   9.104   9.730
 1126POPC   GL119033  11.217   8.970   9.254
 1126POPC   GL219034  11.005   8.671   9.188
 1126POPC   C1A19035  11.323   8.806   8.798
 1126POPC   D2A19036  11.345   8.642   8.347
 1126POPC   C3A19037  11.228   8.924   8.002
 1126POPC   C4A19038  11.421   9.101   7.621
 1126POPC   C1B19039  10.809   8.794   8.778
 1126POPC   C2B19040  10.821   8.668   8.339
 1126POPC   C3B19041  10.832   8.602   7.900
 1126POPC   C4B19042  10.988   8.793   7.558
 1127POPC   NC319043  25.445  26.942   9.432
 1127POPC   PO419044  25.280  26.316   9.557
 1127POPC   GL119045  25.212  26.534   9.166
 1127POPC   GL219046  24.836  26.468   9.074
 1127POPC   C1A19047  25.433  26.781   8.793
 1127POPC   D2A19048  25.603  27.039   8.402
 1127POPC   C3A19049  25.661  26.935   7.925
 1127POPC   C4A19050  25.322  26.994   7.586
 1127POPC   C1B19051  25.099  26.357   8.719
 1127POPC   C2B19052  25.173  26.632   8.385
 1127POPC   C3B19053  25.183  26.751   8.006
 1127POPC   C4B19054  25.263  26.495   7.681
 1128POPC   NC319055   3.055  42.684   9.447
 1128POPC   PO419056   2.489  42.979   9.721
 1128POPC   GL119057   2.635  42.989   9.265
 1128POPC   GL219058   2.727  43.371   9.194
 1128POPC   C1A19059   2.768  42.984   8.836
 1128POPC   D2A19060   2.847  43.276   8.525
 1128POPC   C3A19061   2.923  43.141   8.118
 1128POPC   C4A19062   2.935  43.054   7.714
 1128POPC   C1B19063   2.448  43.427   8.837
 1128POPC   C2B19064   2.431  43.587   8.426
 1128POPC   C3B19065   2.570  43.507   8.010
 1128POPC   C4B19066   2.683  43.500   7.588
 1129POPC   NC319067  39.641  15.713   9.504
 1129POPC   PO419068  39.122  16.246   9.535
 1129POPC   GL119069  39.173  15.999   9.190
 1129POPC   GL219070  39.470  15.869   9.062
 1129POPC   C1A19071  39.106  16.121   8.807
 1129POPC   D2A19072  39.349  16.027   8.518
 1129POPC   C3A19073  39.200  16.104   8.127
 1129POPC   C4A19074  39.342  16.258   7.753
 1129POPC   C1B19075  39.206  15.602   8.784
 1129POPC   C2B19076  39.183  15.592   8.356
 1129POPC   C3B19077  39.548  15.745   8.128
 1129POPC   C4B19078  39.447  15.759   7.722
 1130POPC   NC319079   5.417  22.131   9.627
 1130POPC   PO419080   4.729  22.002   9.567
 1130POPC   GL119081   4.886  21.851   9.172
 1130POPC   GL219082   5.240  21.871   9.200
 1130POPC   C1A19083   4.887  22.013   8.757
 1130POPC   D2A19084   4.843  22.216   8.386
 1130POPC   C3A19085   5.133  22.140   8.062
 1130POPC   C4A19086   5.089  22.011   7.670
 1130POPC   C1B19087   5.376  22.122   8.824
 1130POPC   C2B19088   5.526  22.193   8.392
 1130POPC   C3B19089   5.609  22.376   7.984
 1130POPC   C4B19090   5.370  22.418   7.577
 1131POPC   NC319091  27.984  17.553   9.532
 1131POPC   PO419092  28.643  17.558   9.381
 1131POPC   GL119093  28.280  17.486   9.115
 1131POPC   GL219094  28.443  17.277   8.897
 1131POPC   C1A19095  28.025  17.602   8.740
 1131POPC   D2A19096  27.909  17.536   8.305
 1131POPC   C3A19097  28.199  17.391   7.984
 1131POPC   C4A19098  28.496  17.542   7.705
 1131POPC   C1B19099  28.810  17.190   8.628
 1131POPC   C2B19100  28.828  17.234   8.182
 1131POPC   C3B19101  28.623  17.011   7.845
 1131POPC   C4B19102  28.298  17.097   7.513
 1132POPC   NC319103  37.194  41.060   9.631
 1132POPC   PO419104  36.943  40.458   9.628
 1132POPC   GL119105  37.011  40.517   9.158
 1132POPC   GL219106  37.121  40.854   9.061
 1132POPC   C1A19107  36.980  40.571   8.664
 1132POPC   D2A19108  37.009  40.777   8.229
 1132POPC   C3A19109  36.889  40.531   7.854
 1132POPC   C4A19110  36.633  40.265   7.540
 1132POPC   C1B19111  37.318  40.985   8.628
 1132POPC   C2B19112  37.433  41.084   8.167
 1132POPC   C3B19113  37.243  40.922   7.755
 1132POPC   C4B19114  37.292  40.852   7.293
 1133POPC   NC319115  34.001  13.305   9.689
 1133POPC   PO419116  33.953  12.638   9.599
 1133POPC   GL119117  33.941  12.654   9.173
 1133POPC   GL219118  33.682  12.886   9.182
 1133POPC   C1A19119  33.990  12.838   8.765
 1133POPC   D2A19120  33.705  12.822   8.419
 1133POPC   C3A19121  33.811  12.914   7.989
 1133POPC   C4A19122  33.820  12.730   7.553
 1133POPC   C1B19123  33.522  13.096   8.816
 1133POPC   C2B19124  33.290  13.107   8.427
 1133POPC   C3B19125  33.327  13.293   8.032
 1133POPC   C4B19126  33.520  13.167   7.645
 1134POPC   NC319127  42.959  18.538   9.548
 1134POPC   PO419128  43.529  18.155   9.468
 1134POPC   GL119129  43.111  18.127   9.213
 1134POPC   GL219130  43.014  18.471   9.056
 1134POPC   C1A19131  42.927  18.039   8.794
 1134POPC   D2A19132  42.972  18.269   8.397
 1134POPC   C3A19133  43.106  18.024   8.028
 1134POPC   C4A19134  42.920  17.804   7.651
 1134POPC   C1B19135  43.039  18.800   8.754
 1134POPC   C2B19136  43.226  18.770   8.345
 1134POPC   C3B19137  43.072  18.705   7.916
 1134POPC   C4B19138  43.244  18.555   7.510
 1135POPC   NC319139  10.187  40.844   9.677
 1135POPC   PO419140  10.798  40.724   9.577
 1135POPC   GL119141  10.499  40.772   9.215
 1135POPC   GL219142  10.190  40.568   9.251
 1135POPC   C1A19143  10.645  40.864   8.771
 1135POPC   D2A19144  10.850  40.947   8.356
 1135POPC   C3A19145  10.616  40.802   7.986
 1135POPC   C4A19146  10.558  40.498   7.638
 1135POPC   C1B19147  10.164  40.636   8.813
 1135POPC   C2B19148  10.309  40.747   8.391
 1135POPC   C3B19149  10.174  40.512   8.012
 1135POPC   C4B19150  10.037  40.479   7.596
 1136POPC   NC319151  36.980  20.056   9.446
 1136POPC   PO419152  37.122  20.743   9.398
 1136POPC   GL119153  36.844  20.484   9.157
 1136POPC   GL219154  36.691  20.783   9.016
 1136POPC   C1A19155  36.771  20.391   8.724
 1136POPC   D2A19156  36.736  20.715   8.420
 1136POPC   C3A19157  36.556  20.493   8.101
 1136POPC   C4A19158  36.754  20.507   7.721
 1136POPC   C1B19159  37.024  21.000   8.773
 1136POPC   C2B19160  37.167  20.981   8.344
 1136POPC   C3B19161  37.034  20.928   7.917
 1136POPC   C4B19162  37.326  20.940   7.566
 1137POPC   NC319163  40.178  40.900   9.595
 1137POPC   PO419164  39.574  40.617   9.459
 1137POPC   GL119165  39.828  40.899   9.224
 1137POPC   GL219166  40.065  40.676   9.127
 1137POPC   C1A19167  39.797  40.986   8.803
 1137POPC   D2A19168  39.884  40.723   8.442
 1137POPC   C3A19169  40.001  40.852   8.033
 1137POPC   C4A19170  40.134  40.577   7.726
 1137POPC   C1B19171  40.279  41.026   8.932
 1137POPC   C2B19172  40.306  41.054   8.492
 1137POPC   C3B19173  40.503  40.968   8.126
 1137POPC   C4B19174  40.457  41.078   7.724
 1138POPC   NC319175  34.148   6.048   9.562
 1138POPC   PO419176  33.467   5.961   9.586
 1138POPC   GL119177  33.744   5.869   9.252
 1138POPC   GL219178  33.865   6.173   9.118
 1138POPC   C1A19179  33.699   5.750   8.815
 1138POPC   D2A19180  33.425   5.957   8.507
 1138POPC   C3A19181  33.532   5.984   8.066
 1138POPC   C4A19182  33.822   5.665   7.913
 1138POPC   C1B19183  34.055   6.094   8.737
 1138POPC   C2B19184  33.990   5.927   8.332
 1138POPC   C3B19185  34.018   6.126   7.919
 1138POPC   C4B19186  34.043   6.082   7.460
 1139POPC   NC319187  37.581  26.639   9.559
 1139POPC   PO419188  37.830  27.358   9.528
 1139POPC   GL119189  37.742  26.986   9.212
 1139POPC   GL219190  37.415  26.853   9.127
 1139POPC   C1A19191  37.748  26.692   8.803
 1139POPC   D2A19192  37.768  26.867   8.387
 1139POPC   C3A19193  37.820  26.667   7.991
 1139POPC   C4A19194  38.015  26.301   7.810
 1139POPC   C1B19195  37.164  27.022   8.809
 1139POPC   C2B19196  37.330  27.200   8.438
 1139POPC   C3B19197  37.393  27.015   8.066
 1139POPC   C4B19198  37.233  27.137   7.724
 1140POPC   NC319199  22.509  12.332   9.839
 1140POPC   PO419200  22.976  11.920   9.602
 1140POPC   GL119201  22.993  11.983   9.169
 1140POPC   GL219202  22.835  12.301   9.131
 1140POPC   C1A19203  22.982  12.015   8.716
 1140POPC   D2A19204  22.649  12.049   8.381
 1140POPC   C3A19205  22.772  12.144   7.933
 1140POPC   C4A19206  23.069  12.003   7.579
 1140POPC   C1B19207  22.737  12.467   8.704
 1140POPC   C2B19208  22.637  12.549   8.283
 1140POPC   C3B19209  22.820  12.680   7.922
 1140POPC   C4B19210  22.848  12.507   7.526
 1141POPC   NC319211  20.992   0.138   9.867
 1141POPC   PO419212  21.340   0.549   9.434
 1141POPC   GL119213  21.454   0.368   9.064
 1141POPC   GL219214  21.146   0.500   8.888
 1141POPC   C1A19215  21.643   0.534   8.713
 1141POPC   D2A19216  21.381   0.646   8.356
 1141POPC   C3A19217  21.605   0.524   7.989
 1141POPC   C4A19218  21.665   0.764   7.637
 1141POPC   C1B19219  21.295   0.199   8.578
 1141POPC   C2B19220  21.339   0.131   8.144
 1141POPC   C3B19221  21.139   0.371   7.789
 1141POPC   C4B19222  21.110   0.180   7.316
 1142POPC   NC319223   8.516  40.400   9.500
 1142POPC   PO419224   8.014  40.868   9.582
 1142POPC   GL119225   8.358  40.874   9.243
 1142POPC   GL219226   8.654  41.133   9.279
 1142POPC   C1A19227   8.410  40.608   8.889
 1142POPC   D2A19228   8.136  40.539   8.536
 1142POPC   C3A19229   8.106  40.854   8.215
 1142POPC   C4A19230   8.181  40.749   7.788
 1142POPC   C1B19231   8.744  41.008   8.846
 1142POPC   C2B19232   8.586  40.806   8.441
 1142POPC   C3B19233   8.606  40.988   8.017
 1142POPC   C4B19234   8.481  41.085   7.565
 1143POPC   NC319235   1.475   3.288   9.524
 1143POPC   PO419236   0.944   3.722   9.709
 1143POPC   GL119237   1.010   3.571   9.273
 1143POPC   GL219238   1.334   3.744   9.211
 1143POPC   C1A19239   1.090   3.503   8.809
 1143POPC   D2A19240   1.015   3.291   8.389
 1143POPC   C3A19241   0.877   3.532   8.026
 1143POPC   C4A19242   1.034   3.609   7.578
 1143POPC   C1B19243   1.553   3.757   8.791
 1143POPC   C2B19244   1.347   3.710   8.384
 1143POPC   C3B19245   1.374   3.508   7.978
 1143POPC   C4B19246   1.539   3.624   7.588
 1144POPC   NC319247  41.847  19.975   9.523
 1144POPC   PO419248  42.472  19.847   9.557
 1144POPC   GL119249  42.357  19.829   9.209
 1144POPC   GL219250  42.096  19.598   9.242
 1144POPC   C1A19251  42.492  20.076   8.880
 1144POPC   D2A19252  42.386  20.084   8.470
 1144POPC   C3A19253  42.653  19.896   8.152
 1144POPC   C4A19254  42.578  20.040   7.733
 1144POPC   C1B19255  42.059  19.823   8.819
 1144POPC   C2B19256  41.949  19.828   8.398
 1144POPC   C3B19257  42.143  19.926   8.041
 1144POPC   C4B19258  42.245  19.682   7.726
 1145POPC   NC319259  34.738  17.109   9.324
 1145POPC   PO419260  34.479  17.549   9.787
 1145POPC   GL119261  34.495  17.592   9.234
 1145POPC   GL219262  34.773  17.491   8.994
 1145POPC   C1A19263  34.332  17.463   8.775
 1145POPC   D2A19264  34.477  17.277   8.392
 1145POPC   C3A19265  34.404  17.472   8.018
 1145POPC   C4A19266  34.455  17.373   7.602
 1145POPC   C1B19267  34.935  17.712   8.666
 1145POPC   C2B19268  34.823  17.680   8.242
 1145POPC   C3B19269  34.854  17.646   7.809
 1145POPC   C4B19270  34.949  17.269   7.606
 1146POPC   NC319271  37.356  20.361   9.267
 1146POPC   PO419272  37.808  20.766   9.530
 1146POPC   GL119273  37.745  20.649   9.130
 1146POPC   GL219274  37.429  20.787   8.987
 1146POPC   C1A19275  37.768  20.552   8.702
 1146POPC   D2A19276  37.644  20.818   8.392
 1146POPC   C3A19277  37.637  20.564   8.059
 1146POPC   C4A19278  37.750  20.623   7.646
 1146POPC   C1B19279  37.247  20.548   8.615
 1146POPC   C2B19280  37.106  20.472   8.165
 1146POPC   C3B19281  37.258  20.451   7.739
 1146POPC   C4B19282  37.288  20.476   7.291
 1147POPC   NC319283   6.184  11.405   9.552
 1147POPC   PO419284   5.687  11.046   9.734
 1147POPC   GL119285   5.900  11.047   9.312
 1147POPC   GL219286   5.774  11.384   9.240
 1147POPC   C1A19287   6.161  11.232   8.922
 1147POPC   D2A19288   6.302  11.191   8.470
 1147POPC   C3A19289   5.980  11.200   8.191
 1147POPC   C4A19290   5.696  11.145   7.855
 1147POPC   C1B19291   5.877  11.705   8.915
 1147POPC   C2B19292   5.851  11.795   8.455
 1147POPC   C3B19293   5.779  11.666   8.044
 1147POPC   C4B19294   6.040  11.562   7.724
 1148POPC   NC319295  40.959  32.758   9.489
 1148POPC   PO419296  40.520  33.159   9.354
 1148POPC   GL119297  40.737  32.985   9.062
 1148POPC   GL219298  41.123  33.064   9.109
 1148POPC   C1A19299  40.551  32.860   8.653
 1148POPC   D2A19300  40.503  32.625   8.228
 1148POPC   C3A19301  40.429  32.915   7.851
 1148POPC   C4A19302  40.422  33.176   7.433
 1148POPC   C1B19303  41.066  32.759   8.766
 1148POPC   C2B19304  40.954  32.811   8.349
 1148POPC   C3B19305  40.962  32.864   7.923
 1148POPC   C4B19306  40.847  33.242   7.734
 1149POPC   NC319307  31.702  28.212   9.470
 1149POPC   PO419308  31.220  28.708   9.552
 1149POPC   GL119309  31.374  28.469   9.153
 1149POPC   GL219310  31.431  28.091   9.060
 1149POPC   C1A19311  31.438  28.424   8.683
 1149POPC   D2A19312  31.477  28.656   8.328
 1149POPC   C3A19313  31.674  28.422   8.014
 1149POPC   C4A19314  31.501  28.268   7.646
 1149POPC   C1B19315  31.762  28.024   8.705
 1149POPC   C2B19316  31.902  28.047   8.259
 1149POPC   C3B19317  31.624  27.878   7.929
 1149POPC   C4B19318  31.162  27.918   7.813
 1150POPC   NC319319  16.862   7.512   9.490
 1150POPC   PO419320  16.448   7.034   9.676
 1150POPC   GL119321  16.558   7.170   9.240
 1150POPC   GL219322  16.490   7.479   9.122
 1150POPC   C1A19323  16.474   7.116   8.756
 1150POPC   D2A19324  16.281   7.192   8.348
 1150POPC   C3A19325  16.587   7.242   8.013
 1150POPC   C4A19326  16.768   7.466   7.676
 1150POPC   C1B19327  16.466   7.676   8.743
 1150POPC   C2B19328  16.747   7.495   8.480
 1150POPC   C3B19329  16.859   7.673   8.141
 1150POPC   C4B19330  16.685   7.967   7.870
 1151POPC   NC319331  37.955   2.045   9.368
 1151POPC   PO419332  38.532   1.917   9.704
 1151POPC   GL119333  38.514   1.965   9.215
 1151POPC   GL219334  38.654   2.292   9.089
 1151POPC   C1A19335  38.496   1.903   8.731
 1151POPC   D2A19336  38.326   2.078   8.315
 1151POPC   C3A19337  38.419   1.877   7.910
 1151POPC   C4A19338  38.768   2.106   7.738
 1151POPC   C1B19339  38.329   2.379   8.759
 1151POPC   C2B19340  37.985   2.452   8.484
 1151POPC   C3B19341  38.169   2.528   8.095
 1151POPC   C4B19342  38.314   2.369   7.731
 1152POPC   NC319343  40.437  44.171   9.610
 1152POPC   PO419344  40.857  43.725   9.474
 1152POPC   GL119345  40.939  44.080   9.209
 1152POPC   GL219346  40.589  44.021   9.115
 1152POPC   C1A19347  40.884  44.338   8.810
 1152POPC   D2A19348  40.785  44.206   8.402
 1152POPC   C3A19349  41.130  44.034   8.128
 1152POPC   C4A19350  41.124  44.006   7.690
 1152POPC   C1B19351  40.802  43.818   8.767
 1152POPC   C2B19352  40.798  43.696   8.339
 1152POPC   C3B19353  40.739  43.736   7.905
 1152POPC   C4B19354  40.505  43.432   7.685
 1153POPC   NC319355  21.610   1.783   9.525
 1153POPC   PO419356  21.132   2.185   9.511
 1153POPC   GL119357  21.308   2.212   9.123
 1153POPC   GL219358  21.674   2.177   9.176
 1153POPC   C1A19359  21.104   2.086   8.761
 1153POPC   D2A19360  21.248   1.845   8.428
 1153POPC   C3A19361  21.259   2.075   8.048
 1153POPC   C4A19362  21.078   1.817   7.762
 1153POPC   C1B19363  21.612   1.922   8.819
 1153POPC   C2B19364  21.776   1.790   8.442
 1153POPC   C3B19365  21.605   1.704   8.076
 1153POPC   C4B19366  21.642   1.801   7.696
 1154POPC   NC319367  44.308   5.397   9.366
 1154POPC   PO419368  44.893   5.313   9.729
 1154POPC   GL119369  44.796   5.240   9.274
 1154POPC   GL219370  44.557   4.985   9.136
 1154POPC   C1A19371  44.849   5.249   8.788
 1154POPC   D2A19372  44.935   5.207   8.296
 1154POPC   C3A19373  44.842   5.470   7.879
 1154POPC   C4A19374  44.839   5.364   7.420
 1154POPC   C1B19375  44.334   5.059   8.747
 1154POPC   C2B19376  44.392   4.921   8.316
 1154POPC   C3B19377  44.563   5.053   7.937
 1154POPC   C4B19378  44.369   5.312   7.659
 1155POPC   NC319379  16.280  13.913   9.386
 1155POPC   PO419380  16.501  13.358   9.762
 1155POPC   GL119381  16.117  13.453   9.248
 1155POPC   GL219382  16.244  13.630   8.946
 1155POPC   C1A19383  15.811  13.403   8.878
 1155POPC   D2A19384  15.734  13.515   8.453
 1155POPC   C3A19385  15.826  13.397   8.059
 1155POPC   C4A19386  15.862  13.656   7.701
 1155POPC   C1B19387  16.023  13.886   8.675
 1155POPC   C2B19388  16.048  13.880   8.224
 1155POPC   C3B19389  16.304  13.823   7.850
 1155POPC   C4B19390  16.294  13.736   7.412
 1156POPC   NC319391  36.260   3.258   9.340
 1156POPC   PO419392  36.110   2.607   9.601
 1156POPC   GL119393  36.015   2.516   9.161
 1156POPC   GL219394  36.322   2.652   8.954
 1156POPC   C1A19395  35.864   2.602   8.722
 1156POPC   D2A19396  35.747   2.897   8.387
 1156POPC   C3A19397  35.895   2.848   7.954
 1156POPC   C4A19398  35.944   2.424   7.776
 1156POPC   C1B19399  36.226   2.983   8.608
 1156POPC   C2B19400  36.334   3.026   8.156
 1156POPC   C3B19401  36.357   2.773   7.759
 1156POPC   C4B19402  36.442   2.833   7.275
 1157POPC   NC319403  43.968  27.750   9.611
 1157POPC   PO419404  43.469  27.690   9.262
 1157POPC   GL119405  43.650  27.585   8.941
 1157POPC   GL219406  43.948  27.505   9.082
 1157POPC   C1A19407  43.677  27.260   8.687
 1157POPC   D2A19408  43.716  27.109   8.305
 1157POPC   C3A19409  43.455  27.348   8.007
 1157POPC   C4A19410  43.454  27.610   7.600
 1157POPC   C1B19411  44.179  27.366   8.734
 1157POPC   C2B19412  44.067  27.494   8.309
 1157POPC   C3B19413  43.854  27.643   7.926
 1157POPC   C4B19414  43.962  27.606   7.464
 1158POPC   NC319415  22.124  13.408   9.689
 1158POPC   PO419416  22.215  14.000   9.490
 1158POPC   GL119417  22.014  13.657   9.239
 1158POPC   GL219418  22.224  13.793   8.997
 1158POPC   C1A19419  21.988  13.367   8.860
 1158POPC   D2A19420  22.226  13.440   8.476
 1158POPC   C3A19421  22.125  13.383   8.039
 1158POPC   C4A19422  22.337  13.533   7.632
 1158POPC   C1B19423  21.916  13.849   8.708
 1158POPC   C2B19424  22.036  13.880   8.306
 1158POPC   C3B19425  22.375  13.846   8.044
 1158POPC   C4B19426  22.063  13.969   7.784
 1159POPC   NC319427  17.376  24.666   9.331
 1159POPC   PO419428  17.623  24.102   9.558
 1159POPC   GL119429  17.519  24.239   9.077
 1159POPC   GL219430  17.699  24.586   8.932
 1159POPC   C1A19431  17.282  24.404   8.719
 1159POPC   D2A19432  17.494  24.636   8.408
 1159POPC   C3A19433  17.296  24.509   8.049
 1159POPC   C4A19434  17.115  24.450   7.665
 1159POPC   C1B19435  17.972  24.804   8.628
 1159POPC   C2B19436  18.036  24.773   8.186
 1159POPC   C3B19437  17.782  24.505   7.914
 1159POPC   C4B19438  17.754  24.055   7.917
 1160POPC   NC319439   8.157  18.967   9.542
 1160POPC   PO419440   8.753  19.105   9.328
 1160POPC   GL119441   8.390  19.159   9.058
 1160POPC   GL219442   8.015  19.043   9.065
 1160POPC   C1A19443   8.342  19.448   8.726
 1160POPC   D2A19444   8.206  19.515   8.328
 1160POPC   C3A19445   8.442  19.314   8.043
 1160POPC   C4A19446   8.323  19.024   7.707
 1160POPC   C1B19447   8.234  18.768   8.797
 1160POPC   C2B19448   8.390  18.983   8.452
 1160POPC   C3B19449   8.102  18.896   8.137
 1160POPC   C4B19450   8.156  18.557   7.799
 1161POPC   NC319451  38.693   6.703   9.507
 1161POPC   PO419452  38.042   6.515   9.434
 1161POPC   GL119453  38.248   6.662   9.078
 1161POPC   GL219454  38.546   6.884   9.057
 1161POPC   C1A19455  38.411   6.581   8.678
 1161POPC   D2A19456  38.724   6.474   8.412
 1161POPC   C3A19457  38.542   6.411   8.064
 1161POPC   C4A19458  38.658   6.686   7.755
 1161POPC   C1B19459  38.298   7.059   8.717
 1161POPC   C2B19460  38.363   6.885   8.270
 1161POPC   C3B19461  38.288   7.065   7.918
 1161POPC   C4B19462  38.053   7.013   7.560
 1162POPC   NC319463  44.453   5.394   9.876
 1162POPC   PO419464  44.483   5.821   9.354
 1162POPC   GL119465  44.753   5.703   9.055
 1162POPC   GL219466   0.015   5.938   9.140
 1162POPC   C1A19467  44.638   5.668   8.612
 1162POPC   D2A19468  44.493   5.468   8.243
 1162POPC   C3A19469  44.383   5.758   7.917
 1162POPC   C4A19470  44.428   6.211   7.891
 1162POPC   C1B19471  44.828   6.128   8.770
 1162POPC   C2B19472  44.726   6.101   8.339
 1162POPC   C3B19473  44.876   5.969   7.965
 1162POPC   C4B19474  44.892   6.181   7.653
 1163POPC   NC319475  22.055  34.476   9.732
 1163POPC   PO419476  22.043  34.839   9.231
 1163POPC   GL119477  22.083  34.559   8.940
 1163POPC   GL219478  22.374  34.352   8.988
 1163POPC   C1A19479  21.925  34.669   8.551
 1163POPC   D2A19480  22.128  34.853   8.228
 1163POPC   C3A19481  22.048  34.583   7.979
 1163POPC   C4A19482  22.056  34.559   7.545
 1163POPC   C1B19483  22.295  34.287   8.557
 1163POPC   C2B19484  22.319  34.191   8.156
 1163POPC   C3B19485  22.335  34.171   7.734
 1163POPC   C4B19486  22.525  34.380   7.380
 1164POPC   NC319487  26.467   6.128   9.638
 1164POPC   PO419488  26.998   5.680   9.446
 1164POPC   GL119489  26.941   5.759   9.037
 1164POPC   GL219490  27.185   5.540   8.920
 1164POPC   C1A19491  26.867   5.767   8.588
 1164POPC   D2A19492  26.655   5.559   8.272
 1164POPC   C3A19493  26.714   5.936   8.056
 1164POPC   C4A19494  26.805   6.048   7.660
 1164POPC   C1B19495  27.345   5.912   8.696
 1164POPC   C2B19496  27.225   6.265   8.420
 1164POPC   C3B19497  27.153   6.210   7.991
 1164POPC   C4B19498  27.263   5.825   7.756
 1165POPC   NC319499   2.952  30.478   9.423
 1165POPC   PO419500   2.278  30.728   9.412
 1165POPC   GL119501   2.595  30.661   9.107
 1165POPC   GL219502   2.786  30.983   9.102
 1165POPC   C1A19503   2.790  30.665   8.683
 1165POPC   D2A19504   2.872  30.389   8.343
 1165POPC   C3A19505   2.566  30.396   8.043
 1165POPC   C4A19506   2.820  30.603   7.764
 1165POPC   C1B19507   2.423  31.008   8.785
 1165POPC   C2B19508   2.346  30.786   8.401
 1165POPC   C3B19509   2.723  30.866   8.184
 1165POPC   C4B19510   2.793  31.120   7.825
 1166POPC   NC319511  13.165  15.776   9.541
 1166POPC   PO419512  12.762  16.262   9.499
 1166POPC   GL119513  12.721  16.019   9.127
 1166POPC   GL219514  12.733  15.646   9.231
 1166POPC   C1A19515  12.831  16.134   8.686
 1166POPC   D2A19516  12.671  16.184   8.271
 1166POPC   C3A19517  12.952  16.140   7.934
 1166POPC   C4A19518  12.838  16.164   7.521
 1166POPC   C1B19519  12.846  15.645   8.801
 1166POPC   C2B19520  12.677  15.667   8.393
 1166POPC   C3B19521  12.841  15.635   8.000
 1166POPC   C4B19522  13.102  15.712   7.667
 1167POPC   NC319523  30.019  44.842   9.985
 1167POPC   PO419524  30.238  44.939   9.343
 1167POPC   GL119525  30.048  44.834   8.982
 1167POPC   GL219526  29.666  44.800   9.063
 1167POPC   C1A19527  30.083  44.420   8.748
 1167POPC   D2A19528  30.218  44.238   8.362
 1167POPC   C3A19529  30.093  44.575   8.111
 1167POPC   C4A19530  30.131  44.792   7.730
 1167POPC   C1B19531  29.727  44.766   8.609
 1167POPC   C2B19532  29.594  44.643   8.247
 1167POPC   C3B19533  29.646  44.857   7.867
 1167POPC   C4B19534  29.710  44.701   7.442
 1168POPC   NC319535  29.861  29.678   9.499
 1168POPC   PO419536  30.042  29.023   9.506
 1168POPC   GL119537  30.072  29.048   9.073
 1168POPC   GL219538  29.749  29.162   9.022
 1168POPC   C1A19539  30.106  28.861   8.674
 1168POPC   D2A19540  29.950  28.848   8.250
 1168POPC   C3A19541  30.180  28.957   7.892
 1168POPC   C4A19542  30.217  29.386   7.769
 1168POPC   C1B19543  29.599  28.894   8.673
 1168POPC   C2B19544  29.478  29.021   8.278
 1168POPC   C3B19545  29.692  29.167   7.939
 1168POPC   C4B19546  29.773  28.979   7.566
 1169POPC   NC319547   9.036  11.070   9.567
 1169POPC   PO419548   8.846  11.695   9.485
 1169POPC   GL119549   9.015  11.386   9.167
 1169POPC   GL219550   8.856  11.034   9.108
 1169POPC   C1A19551   9.158  11.298   8.768
 1169POPC   D2A19552   8.979  11.508   8.436
 1169POPC   C3A19553   9.128  11.459   8.048
 1169POPC   C4A19554   8.852  11.486   7.692
 1169POPC   C1B19555   8.937  10.813   8.731
 1169POPC   C2B19556   9.098  10.965   8.334
 1169POPC   C3B19557   8.896  11.036   7.919
 1169POPC   C4B19558   9.037  11.011   7.483
 1170POPC   NC319559  35.690  36.318   9.599
 1170POPC   PO419560  35.173  35.845   9.603
 1170POPC   GL119561  35.190  35.751   9.151
 1170POPC   GL219562  34.946  35.981   9.067
 1170POPC   C1A19563  35.415  35.614   8.755
 1170POPC   D2A19564  35.601  35.851   8.396
 1170POPC   C3A19565  35.496  35.894   7.953
 1170POPC   C4A19566  35.395  36.300   7.730
 1170POPC   C1B19567  35.123  36.019   8.647
 1170POPC   C2B19568  35.090  35.801   8.253
 1170POPC   C3B19569  35.018  35.989   7.821
 1170POPC   C4B19570  35.230  35.883   7.414
 1171POPC   NC319571   9.796   8.743   9.528
 1171POPC   PO419572   9.663   9.370   9.375
 1171POPC   GL119573   9.815   9.156   9.051
 1171POPC   GL219574   9.462   9.128   8.963
 1171POPC   C1A19575   9.790   8.787   8.777
 1171POPC   D2A19576   9.439   8.766   8.493
 1171POPC   C3A19577   9.620   8.926   8.125
 1171POPC   C4A19578   9.489   8.908   7.712
 1171POPC   C1B19579   9.610   9.258   8.542
 1171POPC   C2B19580   9.908   9.354   8.179
 1171POPC   C3B19581   9.920   9.217   7.717
 1171POPC   C4B19582   9.823   9.289   7.259
 1172POPC   NC319583  31.973   4.230   9.521
 1172POPC   PO419584  32.630   4.168   9.573
 1172POPC   GL119585  32.385   4.369   9.241
 1172POPC   GL219586  32.167   4.132   9.084
 1172POPC   C1A19587  32.361   4.509   8.826
 1172POPC   D2A19588  32.228   4.260   8.482
 1172POPC   C3A19589  32.341   4.421   8.084
 1172POPC   C4A19590  32.141   4.476   7.705
 1172POPC   C1B19591  31.991   3.926   8.789
 1172POPC   C2B19592  32.093   3.773   8.395
 1172POPC   C3B19593  32.185   3.955   8.000
 1172POPC   C4B19594  31.877   4.031   7.699
 1173POPC   NC319595  12.723  27.559   9.553
 1173POPC   PO419596  13.222  27.855   9.170
 1173POPC   GL119597  12.865  27.704   9.044
 1173POPC   GL219598  12.932  27.388   9.138
 1173POPC   C1A19599  12.804  27.745   8.601
 1173POPC   D2A19600  12.699  27.771   8.179
 1173POPC   C3A19601  13.055  27.801   7.929
 1173POPC   C4A19602  13.165  27.551   7.597
 1173POPC   C1B19603  13.059  27.298   8.716
 1173POPC   C2B19604  13.087  27.435   8.303
 1173POPC   C3B19605  12.856  27.319   7.956
 1173POPC   C4B19606  13.096  27.054   7.732
 1174POPC   NC319607  12.840  12.451   9.752
 1174POPC   PO419608  13.133  13.006   9.482
 1174POPC   GL119609  12.956  12.860   9.136
 1174POPC   GL219610  12.864  12.552   9.245
 1174POPC   C1A19611  12.925  13.021   8.735
 1174POPC   D2A19612  12.936  13.187   8.332
 1174POPC   C3A19613  13.015  13.048   7.935
 1174POPC   C4A19614  12.732  12.752   7.784
 1174POPC   C1B19615  12.762  12.529   8.803
 1174POPC   C2B19616  12.919  12.645   8.390
 1174POPC   C3B19617  13.137  12.549   8.013
 1174POPC   C4B19618  13.076  12.381   7.613
 1175POPC   NC319619  11.145   8.036   9.624
 1175POPC   PO419620  11.709   8.390   9.606
 1175POPC   GL119621  11.412   8.316   9.198
 1175POPC   GL219622  11.356   7.947   9.119
 1175POPC   C1A19623  11.302   8.266   8.712
 1175POPC   D2A19624  11.472   7.940   8.397
 1175POPC   C3A19625  11.501   8.071   7.971
 1175POPC   C4A19626  11.327   8.454   7.821
 1175POPC   C1B19627  11.101   7.785   8.709
 1175POPC   C2B19628  10.831   8.073   8.511
 1175POPC   C3B19629  11.045   8.226   8.191
 1175POPC   C4B19630  10.960   8.100   7.791
 1176POPC   NC319631  18.626   9.485   9.520
 1176POPC   PO419632  18.038   9.761   9.620
 1176POPC   GL119633  18.279   9.740   9.205
 1176POPC   GL219634  18.289   9.409   9.120
 1176POPC   C1A19635  18.411   9.758   8.775
 1176POPC   D2A19636  18.351   9.460   8.412
 1176POPC   C3A19637  18.391   9.681   8.068
 1176POPC   C4A19638  18.400  10.088   7.950
 1176POPC   C1B19639  17.981   9.443   8.753
 1176POPC   C2B19640  17.850   9.438   8.284
 1176POPC   C3B19641  18.080   9.318   7.897
 1176POPC   C4B19642  18.416   9.514   7.587
 1177POPC   NC319643  26.793  18.113   9.343
 1177POPC   PO419644  27.120  18.709   9.416
 1177POPC   GL119645  26.863  18.559   9.075
 1177POPC   GL219646  26.494  18.474   9.094
 1177POPC   C1A19647  26.962  18.349   8.699
 1177POPC   D2A19648  27.176  18.306   8.329
 1177POPC   C3A19649  27.014  18.278   7.899
 1177POPC   C4A19650  27.049  18.415   7.470
 1177POPC   C1B19651  26.470  18.223   8.673
 1177POPC   C2B19652  26.598  18.287   8.199
 1177POPC   C3B19653  26.491  18.235   7.737
 1177POPC   C4B19654  26.331  17.953   7.356
 1178POPC   NC319655  14.523  32.638   9.275
 1178POPC   PO419656  14.272  32.053   9.712
 1178POPC   GL119657  14.478  32.017   9.192
 1178POPC   GL219658  14.418  32.297   8.934
 1178POPC   C1A19659  14.660  31.933   8.741
 1178POPC   D2A19660  14.428  32.147   8.414
 1178POPC   C3A19661  14.409  32.000   8.013
 1178POPC   C4A19662  14.081  32.061   7.716
 1178POPC   C1B19663  14.645  32.560   8.620
 1178POPC   C2B19664  14.712  32.534   8.156
 1178POPC   C3B19665  14.454  32.487   7.784
 1178POPC   C4B19666  14.554  32.518   7.322
 1179POPC   NC319667  38.367  27.220   9.540
 1179POPC   PO419668  38.036  26.658   9.418
 1179POPC   GL119669  38.294  26.894   9.115
 1179POPC   GL219670  38.463  27.246   9.053
 1179POPC   C1A19671  38.144  27.015   8.720
 1179POPC   D2A19672  38.275  27.022   8.300
 1179POPC   C3A19673  38.324  26.626   8.166
 1179POPC   C4A19674  38.372  26.638   7.761
 1179POPC   C1B19675  38.655  27.057   8.736
 1179POPC   C2B19676  38.784  26.846   8.374
 1179POPC   C3B19677  38.708  26.949   7.980
 1179POPC   C4B19678  38.341  27.141   7.772
 1180POPC   NC319679  11.407  41.878   9.320
 1180POPC   PO419680  11.604  41.274   9.622
 1180POPC   GL119681  11.537  41.387   9.184
 1180POPC   GL219682  11.240  41.265   9.023
 1180POPC   C1A19683  11.487  41.633   8.760
 1180POPC   D2A19684  11.270  41.758   8.414
 1180POPC   C3A19685  11.508  41.733   8.061
 1180POPC   C4A19686  11.353  41.777   7.700
 1180POPC   C1B19687  10.998  41.350   8.670
 1180POPC   C2B19688  10.785  41.583   8.357
 1180POPC   C3B19689  10.945  41.655   7.995
 1180POPC   C4B19690  11.165  41.318   7.877
 1181POPC   NC319691  13.320  20.646   9.493
 1181POPC   PO419692  13.860  20.441   9.449
 1181POPC   GL119693  13.681  20.683   9.090
 1181POPC   GL219694  13.355  20.839   9.039
 1181POPC   C1A19695  13.615  20.650   8.634
 1181POPC   D2A19696  13.814  20.607   8.240
 1181POPC   C3A19697  13.740  20.587   7.810
 1181POPC   C4A19698  13.806  20.883   7.464
 1181POPC   C1B19699  13.220  20.997   8.658
 1181POPC   C2B19700  13.357  20.859   8.235
 1181POPC   C3B19701  13.401  20.947   7.793
 1181POPC   C4B19702  13.361  20.646   7.454
 1182POPC   NC319703  42.160  20.924   9.574
 1182POPC   PO419704  42.758  20.656   9.503
 1182POPC   GL119705  42.485  20.522   9.165
 1182POPC   GL219706  42.328  20.843   9.095
 1182POPC   C1A19707  42.437  20.553   8.703
 1182POPC   D2A19708  42.222  20.570   8.319
 1182POPC   C3A19709  42.451  20.666   7.941
 1182POPC   C4A19710  42.647  20.508   7.564
 1182POPC   C1B19711  42.124  20.952   8.681
 1182POPC   C2B19712  41.810  20.927   8.379
 1182POPC   C3B19713  42.057  20.990   8.032
 1182POPC   C4B19714  41.987  20.820   7.645
 1183POPC   NC319715  10.700   4.567   9.531
 1183POPC   PO419716  10.425   3.935   9.399
 1183POPC   GL119717  10.561   4.237   9.140
 1183POPC   GL219718  10.377   4.528   9.089
 1183POPC   C1A19719  10.801   4.418   8.838
 1183POPC   D2A19720  10.864   4.326   8.423
 1183POPC   C3A19721  10.591   4.491   8.107
 1183POPC   C4A19722  10.794   4.345   7.760
 1183POPC   C1B19723  10.203   4.299   8.728
 1183POPC   C2B19724  10.336   4.094   8.330
 1183POPC   C3B19725  10.438   3.982   7.898
 1183POPC   C4B19726  10.311   3.896   7.462
 1184POPC   NC319727  41.060  24.037   9.398
 1184POPC   PO419728  41.757  23.766   9.434
 1184POPC   GL119729  41.538  23.889   9.099
 1184POPC   GL219730  41.806  24.078   8.977
 1184POPC   C1A19731  41.495  23.697   8.692
 1184POPC   D2A19732  41.670  23.675   8.249
 1184POPC   C3A19733  41.440  23.700   7.877
 1184POPC   C4A19734  41.178  23.406   7.678
 1184POPC   C1B19735  41.973  24.104   8.584
 1184POPC   C2B19736  41.879  24.163   8.158
 1184POPC   C3B19737  41.912  23.892   7.810
 1184POPC   C4B19738  41.827  23.598   7.471
 1185POPC   NC319739  41.683  13.686   9.395
 1185POPC   PO419740  41.102  13.891   9.576
 1185POPC   GL119741  41.315  13.781   9.076
 1185POPC   GL219742  41.555  13.505   8.918
 1185POPC   C1A19743  41.543  13.951   8.694
 1185POPC   D2A19744  41.693  13.705   8.344
 1185POPC   C3A19745  41.422  13.769   8.011
 1185POPC   C4A19746  41.271  13.760   7.571
 1185POPC   C1B19747  41.952  13.321   8.739
 1185POPC   C2B19748  42.157  13.103   8.390
 1185POPC   C3B19749  41.892  13.250   8.076
 1185POPC   C4B19750  41.858  13.593   7.813
 1186POPC   NC319751  16.941  12.354   9.457
 1186POPC   PO419752  16.466  11.838   9.417
 1186POPC   GL119753  16.637  12.153   9.112
 1186POPC   GL219754  16.926  11.944   9.043
 1186POPC   C1A19755  16.779  12.311   8.721
 1186POPC   D2A19756  16.816  12.061   8.372
 1186POPC   C3A19757  16.693  12.241   8.015
 1186POPC   C4A19758  16.891  12.060   7.722
 1186POPC   C1B19759  16.547  11.804   8.751
 1186POPC   C2B19760  16.353  11.815   8.329
 1186POPC   C3B19761  16.560  11.724   7.937
 1186POPC   C4B19762  16.638  11.691   7.478
 1187POPC   NC319763  43.115  20.976   9.467
 1187POPC   PO419764  43.259  20.309   9.320
 1187POPC   GL119765  43.255  20.663   9.099
 1187POPC   GL219766  42.914  20.783   9.027
 1187POPC   C1A19767  43.412  20.761   8.734
 1187POPC   D2A19768  43.240  20.573   8.385
 1187POPC   C3A19769  43.445  20.435   8.019
 1187POPC   C4A19770  43.428  20.822   7.799
 1187POPC   C1B19771  42.912  20.403   8.751
 1187POPC   C2B19772  42.757  20.400   8.311
 1187POPC   C3B19773  42.955  20.593   7.966
 1187POPC   C4B19774  43.151  20.477   7.528
 1188POPC   NC319775  21.509   6.257   9.457
 1188POPC   PO419776  21.470   6.953   9.534
 1188POPC   GL119777  21.347   6.861   9.121
 1188POPC   GL219778  21.334   6.512   9.028
 1188POPC   C1A19779  21.347   6.891   8.665
 1188POPC   D2A19780  21.456   6.601   8.350
 1188POPC   C3A19781  21.392   6.687   7.930
 1188POPC   C4A19782  21.402   6.335   7.664
 1188POPC   C1B19783  21.732   6.420   8.770
 1188POPC   C2B19784  21.968   6.409   8.363
 1188POPC   C3B19785  21.815   6.401   7.948
 1188POPC   C4B19786  21.749   6.727   7.573
 1189POPC   NC319787  38.128  24.831   9.401
 1189POPC   PO419788  37.734  25.336   9.489
 1189POPC   GL119789  37.556  25.082   9.138
 1189POPC   GL219790  37.513  25.433   9.012
 1189POPC   C1A19791  37.366  25.057   8.713
 1189POPC   D2A19792  37.452  25.451   8.478
 1189POPC   C3A19793  37.546  25.427   8.043
 1189POPC   C4A19794  37.258  25.435   7.700
 1189POPC   C1B19795  37.850  25.600   8.776
 1189POPC   C2B19796  37.945  25.671   8.353
 1189POPC   C3B19797  38.062  25.441   7.947
 1189POPC   C4B19798  37.805  25.448   7.561
 1190POPC   NC319799  19.428  30.288   9.357
 1190POPC   PO419800  19.009  30.835   9.456
 1190POPC   GL119801  19.051  30.923   9.072
 1190POPC   GL219802  19.053  30.561   8.994
 1190POPC   C1A19803  18.917  30.977   8.682
 1190POPC   D2A19804  18.998  30.644   8.413
 1190POPC   C3A19805  19.081  30.837   8.057
 1190POPC   C4A19806  18.756  30.849   7.801
 1190POPC   C1B19807  19.288  30.323   8.685
 1190POPC   C2B19808  19.232  30.184   8.276
 1190POPC   C3B19809  19.144  30.375   7.863
 1190POPC   C4B19810  19.051  30.611   7.465
 1191POPC   NC319811  12.601   2.202   9.368
 1191POPC   PO419812  12.972   1.776   9.393
 1191POPC   GL119813  12.936   1.930   9.049
 1191POPC   GL219814  13.217   2.147   9.093
 1191POPC   C1A19815  12.774   2.005   8.674
 1191POPC   D2A19816  12.869   1.799   8.302
 1191POPC   C3A19817  12.696   2.033   7.992
 1191POPC   C4A19818  12.932   1.865   7.692
 1191POPC   C1B19819  13.187   2.336   8.713
 1191POPC   C2B19820  13.012   2.306   8.326
 1191POPC   C3B19821  13.146   2.259   7.931
 1191POPC   C4B19822  13.253   2.235   7.503
 1192POPC   NC319823  12.317  16.277   9.370
 1192POPC   PO419824  11.914  15.805   9.231
 1192POPC   GL119825  12.176  16.055   8.945
 1192POPC   GL219826  12.017  16.404   8.950
 1192POPC   C1A19827  12.254  16.005   8.526
 1192POPC   D2A19828  12.213  15.782   8.161
 1192POPC   C3A19829  12.452  15.943   7.854
 1192POPC   C4A19830  12.334  16.087   7.466
 1192POPC   C1B19831  11.723  16.106   8.704
 1192POPC   C2B19832  11.684  16.010   8.280
 1192POPC   C3B19833  11.772  15.846   7.904
 1192POPC   C4B19834  11.854  16.070   7.571
 1193POPC   NC319835  26.469  31.383   9.494
 1193POPC   PO419836  26.908  31.764   9.638
 1193POPC   GL119837  26.821  31.629   9.201
 1193POPC   GL219838  26.852  31.265   9.165
 1193POPC   C1A19839  26.713  31.713   8.755
 1193POPC   D2A19840  26.587  31.498   8.381
 1193POPC   C3A19841  26.666  31.635   7.968
 1193POPC   C4A19842  26.957  31.551   7.638
 1193POPC   C1B19843  26.579  31.194   8.804
 1193POPC   C2B19844  26.560  30.983   8.410
 1193POPC   C3B19845  26.836  31.137   8.109
 1193POPC   C4B19846  26.631  31.158   7.743
 1194POPC   NC319847  39.886   6.102   9.610
 1194POPC   PO419848  39.902   5.433   9.703
 1194POPC   GL119849  39.888   5.634   9.211
 1194POPC   GL219850  39.889   6.029   9.118
 1194POPC   C1A19851  40.126   5.786   8.785
 1194POPC   D2A19852  40.158   5.689   8.373
 1194POPC   C3A19853  39.915   5.792   8.043
 1194POPC   C4A19854  40.061   5.637   7.690
 1194POPC   C1B19855  39.727   6.182   8.722
 1194POPC   C2B19856  39.548   5.964   8.368
 1194POPC   C3B19857  39.540   6.133   7.951
 1194POPC   C4B19858  39.708   6.015   7.516
 1195POPC   NC319859  40.873  26.499   9.488
 1195POPC   PO419860  40.459  25.972   9.460
 1195POPC   GL119861  40.706  26.002   9.107
 1195POPC   GL219862  40.599  26.349   9.076
 1195POPC   C1A19863  40.787  25.771   8.697
 1195POPC   D2A19864  40.685  25.565   8.279
 1195POPC   C3A19865  40.851  25.835   7.946
 1195POPC   C4A19866  40.689  25.905   7.523
 1195POPC   C1B19867  40.933  26.318   8.759
 1195POPC   C2B19868  41.005  26.142   8.357
 1195POPC   C3B19869  40.967  26.342   7.985
 1195POPC   C4B19870  40.895  26.364   7.574
 1196POPC   NC319871  28.577   4.768  10.019
 1196POPC   PO419872  28.231   4.278   9.560
 1196POPC   GL119873  28.113   4.290   9.136
 1196POPC   GL219874  28.448   4.356   9.098
 1196POPC   C1A19875  28.185   4.472   8.699
 1196POPC   D2A19876  28.514   4.412   8.420
 1196POPC   C3A19877  28.267   4.314   8.113
 1196POPC   C4A19878  27.912   4.231   7.843
 1196POPC   C1B19879  28.417   4.003   8.823
 1196POPC   C2B19880  28.511   3.881   8.409
 1196POPC   C3B19881  28.658   3.982   8.004
 1196POPC   C4B19882  28.401   4.133   7.667
 1197POPC   NC319883  22.569   6.762   9.673
 1197POPC   PO419884  23.227   6.908   9.360
 1197POPC   GL119885  22.997   6.652   9.062
 1197POPC   GL219886  22.816   6.366   9.208
 1197POPC   C1A19887  22.780   6.759   8.667
 1197POPC   D2A19888  22.794   6.937   8.244
 1197POPC   C3A19889  22.733   6.832   7.815
 1197POPC   C4A19890  23.013   6.787   7.451
 1197POPC   C1B19891  22.679   6.276   8.763
 1197POPC   C2B19892  22.597   6.432   8.311
 1197POPC   C3B19893  22.767   6.332   7.867
 1197POPC   C4B19894  22.573   6.499   7.470
 1198POPC   NC319895  39.004   7.647   9.622
 1198POPC   PO419896  39.449   7.152   9.467
 1198POPC   GL119897  39.222   7.425   9.205
 1198POPC   GL219898  38.949   7.185   9.283
 1198POPC   C1A19899  39.319   7.477   8.762
 1198POPC   D2A19900  39.265   7.166   8.450
 1198POPC   C3A19901  39.259   7.386   8.087
 1198POPC   C4A19902  39.345   7.463   7.688
 1198POPC   C1B19903  38.881   7.219   8.856
 1198POPC   C2B19904  38.770   7.022   8.508
 1198POPC   C3B19905  38.969   6.855   8.137
 1198POPC   C4B19906  39.022   7.062   7.745
 1199POPC   NC319907  34.645  22.430   9.612
 1199POPC   PO419908  35.054  23.005   9.572
 1199POPC   GL119909  34.832  23.056   9.158
 1199POPC   GL219910  34.481  23.026   9.333
 1199POPC   C1A19911  34.880  23.063   8.675
 1199POPC   D2A19912  34.766  22.747   8.353
 1199POPC   C3A19913  34.652  22.845   7.924
 1199POPC   C4A19914  34.589  23.113   7.571
 1199POPC   C1B19915  34.418  22.994   8.873
 1199POPC   C2B19916  34.347  23.034   8.428
 1199POPC   C3B19917  34.238  23.119   7.976
 1199POPC   C4B19918  34.056  23.160   7.566
 1200POPC   NC319919  35.485   1.582   9.333
 1200POPC   PO419920  35.642   0.944   9.496
 1200POPC   GL119921  35.557   0.886   9.074
 1200POPC   GL219922  35.378   1.170   9.068
 1200POPC   C1A19923  35.468   0.886   8.621
 1200POPC   D2A19924  35.614   1.138   8.304
 1200POPC   C3A19925  35.408   1.175   7.947
 1200POPC   C4A19926  35.628   0.926   7.685
 1200POPC   C1B19927  35.117   1.265   8.734
 1200POPC   C2B19928  35.061   1.059   8.338
 1200POPC   C3B19929  34.872   1.187   7.961
 1200POPC   C4B19930  34.845   1.066   7.530
 1201POPC   NC319931  30.149  35.576   9.476
 1201POPC   PO419932  29.874  36.155   9.730
 1201POPC   GL119933  29.832  36.011   9.291
 1201POPC   GL219934  30.126  35.975   9.152
 1201POPC   C1A19935  29.701  35.926   8.869
 1201POPC   D2A19936  29.916  35.976   8.477
 1201POPC   C3A19937  29.715  35.984   8.057
 1201POPC   C4A19938  29.961  36.213   7.762
 1201POPC   C1B19939  30.233  35.663   8.813
 1201POPC   C2B19940  30.214  35.569   8.369
 1201POPC   C3B19941  30.187  35.844   8.019
 1201POPC   C4B19942  30.395  35.933   7.619
 1202POPC   NC319943  36.027   1.195   9.613
 1202POPC   PO419944  36.597   0.930   9.794
 1202POPC   GL119945  36.336   1.292   9.227
 1202POPC   GL219946  35.980   1.180   9.123
 1202POPC   C1A19947  36.321   1.124   8.750
 1202POPC   D2A19948  36.122   1.215   8.347
 1202POPC   C3A19949  36.060   0.974   7.937
 1202POPC   C4A19950  36.065   0.944   7.435
 1202POPC   C1B19951  35.795   1.267   8.763
 1202POPC   C2B19952  35.787   1.601   8.474
 1202POPC   C3B19953  35.743   1.573   8.044
 1202POPC   C4B19954  35.912   1.390   7.688
 1203POPC   NC319955  34.476  17.091   9.772
 1203POPC   PO419956  34.744  16.618   9.323
 1203POPC   GL119957  34.497  16.772   9.028
 1203POPC   GL219958  34.437  16.454   8.929
 1203POPC   C1A19959  34.280  16.884   8.668
 1203POPC   D2A19960  34.312  16.791   8.212
 1203POPC   C3A19961  34.601  16.984   7.933
 1203POPC   C4A19962  34.621  16.895   7.494
 1203POPC   C1B19963  34.555  16.458   8.534
 1203POPC   C2B19964  34.543  16.319   8.141
 1203POPC   C3B19965  34.500  16.479   7.737
 1203POPC   C4B19966  34.662  16.430   7.275
 1204POPC   NC319967   4.966  39.083   9.435
 1204POPC   PO419968   5.336  39.632   9.445
 1204POPC   GL119969   5.086  39.493   9.156
 1204POPC   GL219970   5.299  39.230   9.067
 1204POPC   C1A19971   4.884  39.265   8.809
 1204POPC   D2A19972   4.880  39.452   8.415
 1204POPC   C3A19973   5.010  39.136   8.187
 1204POPC   C4A19974   4.872  39.089   7.807
 1204POPC   C1B19975   5.291  39.570   8.705
 1204POPC   C2B19976   5.432  39.443   8.314
 1204POPC   C3B19977   5.391  39.305   7.881
 1204POPC   C4B19978   5.346  38.867   7.877
 1205POPC   NC319979   9.912  31.653   9.559
 1205POPC   PO419980   9.291  31.578   9.380
 1205POPC   GL119981   9.560  31.302   9.093
 1205POPC   GL219982   9.933  31.203   9.155
 1205POPC   C1A19983   9.829  31.478   8.731
 1205POPC   D2A19984   9.988  31.731   8.368
 1205POPC   C3A19985   9.697  31.745   8.052
 1205POPC   C4A19986   9.444  31.560   7.778
 1205POPC   C1B19987  10.225  31.163   8.784
 1205POPC   C2B19988  10.311  31.317   8.352
 1205POPC   C3B19989  10.008  31.362   7.995
 1205POPC   C4B19990   9.892  31.359   7.542
 1206POPC   NC319991  39.043   1.798   9.634
 1206POPC   PO419992  39.153   2.504   9.546
 1206POPC   GL119993  39.143   2.179   9.228
 1206POPC   GL219994  39.270   1.845   9.160
 1206POPC   C1A19995  39.079   2.141   8.781
 1206POPC   D2A19996  39.286   1.815   8.525
 1206POPC   C3A19997  39.508   1.916   8.150
 1206POPC   C4A19998  39.277   2.042   7.783
 1206POPC   C1B19999  38.925   1.670   8.867
 1206POPC   C2B20000  38.897   1.502   8.441
 1206POPC   C3B20001  38.859   1.588   7.970
 1206POPC   C4B20002  39.021   1.641   7.523
 1207POPC   NC320003  25.433  28.579   9.458
 1207POPC   PO420004  25.013  28.159   9.722
 1207POPC   GL120005  25.036  28.216   9.232
 1207POPC   GL220006  24.997  28.532   9.166
 1207POPC   C1A20007  25.295  28.197   8.810
 1207POPC   D2A20008  25.558  28.234   8.437
 1207POPC   C3A20009  25.373  28.389   8.072
 1207POPC   C4A20010  25.357  28.276   7.660
 1207POPC   C1B20011  25.110  28.681   8.780
 1207POPC   C2B20012  24.940  28.677   8.382
 1207POPC   C3B20013  25.084  28.863   8.024
 1207POPC   C4B20014  25.239  28.768   7.643
 1208POPC   NC320015   6.917  40.098   9.503
 1208POPC   PO420016   6.266  39.867   9.579
 1208POPC   GL120017   6.570  39.809   9.244
 1208POPC   GL220018   6.532  40.148   9.111
 1208POPC   C1A20019   6.824  39.774   8.850
 1208POPC   D2A20020   6.698  39.921   8.448
 1208POPC   C3A20021   6.750  39.716   8.047
 1208POPC   C4A20022   6.727  39.860   7.615
 1208POPC   C1B20023   6.854  40.313   8.850
 1208POPC   C2B20024   6.883  40.382   8.418
 1208POPC   C3B20025   6.787  40.238   7.989
 1208POPC   C4B20026   6.958  40.319   7.571
 1209POPC   NC320027   0.717  17.480   9.418
 1209POPC   PO420028   0.075  17.419   9.410
 1209POPC   GL120029   0.113  17.391   8.988
 1209POPC   GL220030   0.417  17.484   9.002
 1209POPC   C1A20031   0.167  17.354   8.543
 1209POPC   D2A20032   0.499  17.375   8.268
 1209POPC   C3A20033   0.429  17.407   7.847
 1209POPC   C4A20034   0.196  17.713   7.669
 1209POPC   C1B20035   0.699  17.651   8.709
 1209POPC   C2B20036   0.804  17.799   8.318
 1209POPC   C3B20037   0.630  17.880   7.912
 1209POPC   C4B20038   0.746  17.631   7.532
 1210POPC   NC320039  34.164  26.190   9.388
 1210POPC   PO420040  33.559  26.175   9.543
 1210POPC   GL120041  33.744  26.131   9.093
 1210POPC   GL220042  33.912  26.441   9.015
 1210POPC   C1A20043  34.028  26.075   8.681
 1210POPC   D2A20044  34.132  26.303   8.274
 1210POPC   C3A20045  33.921  26.261   7.858
 1210POPC   C4A20046  34.116  26.221   7.437
 1210POPC   C1B20047  33.602  26.384   8.657
 1210POPC   C2B20048  33.524  26.399   8.176
 1210POPC   C3B20049  33.398  26.102   7.814
 1210POPC   C4B20050  33.309  25.943   7.367
 1211POPC   NC320051  19.202  33.499   9.578
 1211POPC   PO420052  19.017  34.175   9.531
 1211POPC   GL120053  19.071  33.902   9.194
 1211POPC   GL220054  18.877  33.595   9.190
 1211POPC   C1A20055  19.016  33.873   8.768
 1211POPC   D2A20056  19.030  34.083   8.376
 1211POPC   C3A20057  19.050  33.890   7.984
 1211POPC   C4A20058  19.033  33.940   7.498
 1211POPC   C1B20059  18.839  33.398   8.783
 1211POPC   C2B20060  18.998  33.527   8.392
 1211POPC   C3B20061  18.958  33.356   8.013
 1211POPC   C4B20062  19.118  33.474   7.671
 1212POPC   NC320063  29.598  18.194   9.525
 1212POPC   PO420064  30.193  18.492   9.400
 1212POPC   GL120065  29.908  18.380   9.115
 1212POPC   GL220066  29.657  18.597   9.207
 1212POPC   C1A20067  29.858  18.199   8.702
 1212POPC   D2A20068  29.996  17.881   8.426
 1212POPC   C3A20069  30.162  18.072   8.056
 1212POPC   C4A20070  29.938  18.297   7.799
 1212POPC   C1B20071  29.447  18.465   8.862
 1212POPC   C2B20072  29.497  18.612   8.479
 1212POPC   C3B20073  29.539  18.468   8.093
 1212POPC   C4B20074  29.492  18.527   7.686
 1213POPC   NC320075  29.655  12.524   9.731
 1213POPC   PO420076  30.240  12.617   9.409
 1213POPC   GL120077  29.944  12.844   9.109
 1213POPC   GL220078  29.923  13.243   9.129
 1213POPC   C1A20079  30.012  12.991   8.675
 1213POPC   D2A20080  30.219  13.066   8.278
 1213POPC   C3A20081  30.149  12.742   7.995
 1213POPC   C4A20082  29.852  12.679   7.651
 1213POPC   C1B20083  29.775  13.456   8.745
 1213POPC   C2B20084  29.538  13.466   8.345
 1213POPC   C3B20085  29.650  13.280   7.932
 1213POPC   C4B20086  30.073  13.205   7.776
 1214POPC   NC320087  21.050  33.570   9.582
 1214POPC   PO420088  21.490  34.047   9.489
 1214POPC   GL120089  21.331  33.791   9.187
 1214POPC   GL220090  21.016  33.943   9.152
 1214POPC   C1A20091  21.510  33.620   8.807
 1214POPC   D2A20092  21.676  33.662   8.397
 1214POPC   C3A20093  21.441  33.926   8.106
 1214POPC   C4A20094  21.541  33.791   7.679
 1214POPC   C1B20095  20.981  33.610   8.819
 1214POPC   C2B20096  21.138  33.411   8.415
 1214POPC   C3B20097  21.271  33.468   7.994
 1214POPC   C4B20098  21.060  33.777   7.711
 1215POPC   NC320099  25.904  18.478   9.618
 1215POPC   PO420100  26.343  18.080   9.409
 1215POPC   GL120101  26.085  18.131   9.068
 1215POPC   GL220102  25.836  18.384   9.126
 1215POPC   C1A20103  25.965  18.021   8.658
 1215POPC   D2A20104  26.214  17.965   8.275
 1215POPC   C3A20105  26.034  18.000   7.870
 1215POPC   C4A20106  26.021  18.284   7.535
 1215POPC   C1B20107  26.069  18.521   8.755
 1215POPC   C2B20108  26.245  18.582   8.364
 1215POPC   C3B20109  26.105  18.521   7.973
 1215POPC   C4B20110  26.097  18.777   7.613
 1216POPC   NC320111  25.085  18.013   9.376
 1216POPC   PO420112  25.453  18.497   9.599
 1216POPC   GL120113  25.293  18.444   9.186
 1216POPC   GL220114  25.246  18.715   8.995
 1216POPC   C1A20115  25.051  18.294   8.798
 1216POPC   D2A20116  25.078  18.493   8.389
 1216POPC   C3A20117  25.066  18.175   8.076
 1216POPC   C4A20118  25.160  18.099   7.660
 1216POPC   C1B20119  25.539  18.394   8.721
 1216POPC   C2B20120  25.776  18.368   8.332
 1216POPC   C3B20121  25.626  18.320   7.906
 1216POPC   C4B20122  25.280  18.567   7.838
 1217POPC   NC320123  35.188  20.613   9.241
 1217POPC   PO420124  34.633  20.408   9.510
 1217POPC   GL120125  34.463  20.495   9.100
 1217POPC   GL220126  34.757  20.603   8.993
 1217POPC   C1A20127  34.430  20.559   8.626
 1217POPC   D2A20128  34.549  20.790   8.309
 1217POPC   C3A20129  34.387  20.720   7.952
 1217POPC   C4A20130  34.598  20.881   7.652
 1217POPC   C1B20131  34.964  20.373   8.669
 1217POPC   C2B20132  34.767  20.315   8.289
 1217POPC   C3B20133  34.816  20.463   7.877
 1217POPC   C4B20134  34.836  20.230   7.502
 1218POPC   NC320135  26.789  44.259   9.463
 1218POPC   PO420136  27.104  44.888   9.615
 1218POPC   GL120137  27.020  44.657   9.252
 1218POPC   GL220138  26.827  44.905   9.153
 1218POPC   C1A20139  26.810  44.522   8.831
 1218POPC   D2A20140  26.860  44.402   8.407
 1218POPC   C3A20141  26.730  44.238   7.993
 1218POPC   C4A20142  26.684  44.279   7.542
 1218POPC   C1B20143  27.080  44.943   8.797
 1218POPC   C2B20144  26.940  44.904   8.379
 1218POPC   C3B20145  26.747  44.737   8.034
 1218POPC   C4B20146  26.965  44.673   7.683
 1219POPC   NC320147  11.649  39.404   9.555
 1219POPC   PO420148  12.046  38.965   9.861
 1219POPC   GL120149  11.905  38.995   9.378
 1219POPC   GL220150  12.024  39.293   9.207
 1219POPC   C1A20151  11.887  39.005   8.852
 1219POPC   D2A20152  12.060  39.317   8.542
 1219POPC   C3A20153  12.177  39.145   8.136
 1219POPC   C4A20154  12.247  39.262   7.716
 1219POPC   C1B20155  11.722  39.525   8.881
 1219POPC   C2B20156  11.772  39.741   8.466
 1219POPC   C3B20157  12.025  39.650   8.114
 1219POPC   C4B20158  11.884  39.661   7.708
 1220POPC   NC320159  44.694   1.390   9.548
 1220POPC   PO420160  44.881   0.813   9.716
 1220POPC   GL120161  44.812   0.989   9.251
 1220POPC   GL220162  44.591   0.739   9.161
 1220POPC   C1A20163  44.641   1.336   8.907
 1220POPC   D2A20164  44.413   1.343   8.491
 1220POPC   C3A20165  44.365   1.527   8.074
 1220POPC   C4A20166  44.487   1.310   7.696
 1220POPC   C1B20167  44.484   0.881   8.751
 1220POPC   C2B20168  44.655   0.893   8.340
 1220POPC   C3B20169  44.563   0.859   7.901
 1220POPC   C4B20170  44.576   0.870   7.436
 1221POPC   NC320171  44.381   8.075   9.440
 1221POPC   PO420172  44.996   7.804   9.317
 1221POPC   GL120173  44.747   8.089   9.072
 1221POPC   GL220174  44.793   8.445   9.065
 1221POPC   C1A20175  44.765   8.144   8.641
 1221POPC   D2A20176  44.754   7.868   8.320
 1221POPC   C3A20177  44.726   8.017   7.953
 1221POPC   C4A20178  44.506   7.911   7.584
 1221POPC   C1B20179  44.499   8.573   8.677
 1221POPC   C2B20180  44.609   8.617   8.269
 1221POPC   C3B20181  44.757   8.517   7.885
 1221POPC   C4B20182  44.479   8.484   7.522
 1222POPC   NC320183  24.243  19.041   9.428
 1222POPC   PO420184  24.838  18.800   9.342
 1222POPC   GL120185  24.778  18.966   8.961
 1222POPC   GL220186  24.417  18.931   8.961
 1222POPC   C1A20187  24.693  19.022   8.516
 1222POPC   D2A20188  24.282  19.061   8.289
 1222POPC   C3A20189  24.306  18.996   7.851
 1222POPC   C4A20190  24.577  19.103   7.527
 1222POPC   C1B20191  24.343  19.311   8.751
 1222POPC   C2B20192  24.564  19.493   8.384
 1222POPC   C3B20193  24.491  19.457   7.945
 1222POPC   C4B20194  24.234  19.475   7.563
 1223POPC   NC320195  40.218  41.861   9.426
 1223POPC   PO420196  39.909  41.308   9.528
 1223POPC   GL120197  39.988  41.513   9.134
 1223POPC   GL220198  39.770  41.829   9.057
 1223POPC   C1A20199  40.019  41.444   8.713
 1223POPC   D2A20200  39.823  41.244   8.365
 1223POPC   C3A20201  40.085  41.353   8.027
 1223POPC   C4A20202  40.035  41.327   7.597
 1223POPC   C1B20203  39.575  41.702   8.637
 1223POPC   C2B20204  39.699  41.708   8.183
 1223POPC   C3B20205  39.863  41.777   7.742
 1223POPC   C4B20206  40.007  41.749   7.304
 1224POPC   NC320207  11.645   1.842   9.469
 1224POPC   PO420208  12.273   1.908   9.502
 1224POPC   GL120209  12.085   1.917   9.161
 1224POPC   GL220210  11.827   2.142   9.107
 1224POPC   C1A20211  12.285   1.850   8.806
 1224POPC   D2A20212  12.377   1.848   8.363
 1224POPC   C3A20213  12.187   1.967   8.003
 1224POPC   C4A20214  12.216   2.301   7.761
 1224POPC   C1B20215  11.748   1.799   8.788
 1224POPC   C2B20216  11.823   1.834   8.354
 1224POPC   C3B20217  11.705   1.823   7.941
 1224POPC   C4B20218  11.733   2.152   7.702
 1225POPC   NC320219  39.891  44.377   9.497
 1225POPC   PO420220  39.304  44.730   9.516
 1225POPC   GL120221  39.301  44.608   9.120
 1225POPC   GL220222  39.462  44.354   9.153
 1225POPC   C1A20223  39.413  44.787   8.731
 1225POPC   D2A20224  39.213  44.805   8.339
 1225POPC   C3A20225  39.475  44.711   8.009
 1225POPC   C4A20226  39.176  44.595   7.746
 1225POPC   C1B20227  39.290  44.215   8.780
 1225POPC   C2B20228  39.392  44.334   8.403
 1225POPC   C3B20229  39.411  44.170   8.025
 1225POPC   C4B20230  39.219  43.986   7.695
 1226POPC   NC320231  32.878   1.749   9.392
 1226POPC   PO420232  33.061   1.074   9.377
 1226POPC   GL120233  32.843   1.325   9.096
 1226POPC   GL220234  33.145   1.527   9.025
 1226POPC   C1A20235  32.685   1.229   8.691
 1226POPC   D2A20236  32.868   1.108   8.300
 1226POPC   C3A20237  32.752   1.183   7.894
 1226POPC   C4A20238  32.698   1.524   7.589
 1226POPC   C1B20239  33.218   1.196   8.735
 1226POPC   C2B20240  33.367   1.128   8.316
 1226POPC   C3B20241  33.290   1.221   7.895
 1226POPC   C4B20242  33.532   1.178   7.531
 1227POPC   NC320243  42.119   6.698   9.505
 1227POPC   PO420244  42.789   6.848   9.525
 1227POPC   GL120245  42.540   6.672   9.182
 1227POPC   GL220246  42.706   6.950   8.999
 1227POPC   C1A20247  42.254   6.448   8.846
 1227POPC   D2A20248  41.996   6.587   8.461
 1227POPC   C3A20249  42.150   6.498   8.047
 1227POPC   C4A20250  42.273   6.629   7.656
 1227POPC   C1B20251  42.732   6.605   8.729
 1227POPC   C2B20252  42.577   6.558   8.331
 1227POPC   C3B20253  42.724   6.594   7.917
 1227POPC   C4B20254  42.775   6.947   7.639
 1228POPC   NC320255   3.714   1.567   9.368
 1228POPC   PO420256   3.666   0.896   9.536
 1228POPC   GL120257   3.590   1.118   9.168
 1228POPC   GL220258   3.693   0.864   9.029
 1228POPC   C1A20259   3.735   1.301   8.784
 1228POPC   D2A20260   3.876   1.408   8.408
 1228POPC   C3A20261   3.654   1.641   8.127
 1228POPC   C4A20262   3.751   1.493   7.750
 1228POPC   C1B20263   3.475   0.753   8.692
 1228POPC   C2B20264   3.458   0.755   8.275
 1228POPC   C3B20265   3.670   1.038   7.993
 1228POPC   C4B20266   3.515   1.072   7.568
 1229POPC   NC320267  29.341   4.233   9.533
 1229POPC   PO420268  28.740   4.452   9.712
 1229POPC   GL120269  28.909   4.262   9.267
 1229POPC   GL220270  29.178   4.040   9.089
 1229POPC   C1A20271  28.853   4.299   8.795
 1229POPC   D2A20272  28.973   4.145   8.397
 1229POPC   C3A20273  29.005   4.379   8.022
 1229POPC   C4A20274  28.804   4.472   7.627
 1229POPC   C1B20275  29.321   3.900   8.699
 1229POPC   C2B20276  29.465   3.996   8.279
 1229POPC   C3B20277  29.311   4.006   7.848
 1229POPC   C4B20278  29.267   4.280   7.479
 1230POPC   NC320279  37.023  10.542   9.817
 1230POPC   PO420280  36.815  10.201   9.257
 1230POPC   GL120281  37.174  10.402   9.051
 1230POPC   GL220282  37.347  10.046   8.990
 1230POPC   C1A20283  37.143  10.701   8.635
 1230POPC   D2A20284  36.702  10.802   8.419
 1230POPC   C3A20285  36.620  10.698   7.985
 1230POPC   C4A20286  37.050  10.619   7.789
 1230POPC   C1B20287  37.154  10.197   8.586
 1230POPC   C2B20288  36.954  10.376   8.230
 1230POPC   C3B20289  36.714  10.216   7.868
 1230POPC   C4B20290  36.944  10.228   7.488
 1231POPC   NC320291  10.517  26.713   9.762
 1231POPC   PO420292  10.838  27.258   9.484
 1231POPC   GL120293  10.552  26.991   9.135
 1231POPC   GL220294  10.631  26.641   9.198
 1231POPC   C1A20295  10.321  26.929   8.739
 1231POPC   D2A20296  10.283  27.151   8.323
 1231POPC   C3A20297  10.394  26.925   7.933
 1231POPC   C4A20298  10.602  27.095   7.507
 1231POPC   C1B20299  10.703  26.500   8.766
 1231POPC   C2B20300  10.509  26.622   8.364
 1231POPC   C3B20301  10.549  26.446   7.963
 1231POPC   C4B20302  10.732  26.637   7.655
 1232POPC   NC320303  24.598   3.767   9.445
 1232POPC   PO420304  24.431   3.087   9.390
 1232POPC   GL120305  24.321   3.460   9.114
 1232POPC   GL220306  24.259   3.855   9.079
 1232POPC   C1A20307  24.427   3.529   8.689
 1232POPC   D2A20308  24.537   3.301   8.325
 1232POPC   C3A20309  24.458   3.489   7.943
 1232POPC   C4A20310  24.199   3.439   7.574
 1232POPC   C1B20311  24.659   3.981   8.817
 1232POPC   C2B20312  24.851   3.921   8.389
 1232POPC   C3B20313  24.781   3.897   7.918
 1232POPC   C4B20314  24.419   3.901   7.618
 1233POPC   NC320315   9.225   4.163   9.442
 1233POPC   PO420316   8.997   4.643   9.777
 1233POPC   GL120317   8.917   4.505   9.253
 1233POPC   GL220318   8.724   4.200   9.202
 1233POPC   C1A20319   9.027   4.316   8.822
 1233POPC   D2A20320   8.908   4.151   8.446
 1233POPC   C3A20321   9.306   4.097   8.228
 1233POPC   C4A20322   9.266   4.188   7.817
 1233POPC   C1B20323   8.528   4.389   8.825
 1233POPC   C2B20324   8.632   4.616   8.441
 1233POPC   C3B20325   8.672   4.540   8.001
 1233POPC   C4B20326   8.637   4.155   7.799
 1234POPC   NC320327   8.120  38.938   9.450
 1234POPC   PO420328   8.260  39.547   9.492
 1234POPC   GL120329   8.082  39.371   9.129
 1234POPC   GL220330   8.350  39.208   9.024
 1234POPC   C1A20331   7.852  39.351   8.734
 1234POPC   D2A20332   7.957  39.589   8.339
 1234POPC   C3A20333   8.146  39.357   7.987
 1234POPC   C4A20334   7.857  39.271   7.634
 1234POPC   C1B20335   8.419  39.168   8.572
 1234POPC   C2B20336   8.616  38.898   8.279
 1234POPC   C3B20337   8.548  38.784   7.883
 1234POPC   C4B20338   8.145  38.830   7.828
 1235POPC   NC320339  33.688   9.810   9.609
 1235POPC   PO420340  33.098   9.842   9.856
 1235POPC   GL120341  33.347   9.590   9.357
 1235POPC   GL220342  33.471   9.787   9.123
 1235POPC   C1A20343  33.764   9.431   8.990
 1235POPC   D2A20344  33.909   9.593   8.551
 1235POPC   C3A20345  33.766   9.452   8.152
 1235POPC   C4A20346  33.707   9.511   7.723
 1235POPC   C1B20347  33.621   9.956   8.788
 1235POPC   C2B20348  33.493  10.017   8.385
 1235POPC   C3B20349  33.725   9.956   8.018
 1235POPC   C4B20350  33.544   9.971   7.635
 1236POPC   NC320351  34.441  26.816   9.483
 1236POPC   PO420352  33.741  26.987   9.651
 1236POPC   GL120353  33.925  26.885   9.288
 1236POPC   GL220354  34.116  27.167   9.265
 1236POPC   C1A20355  33.765  26.899   8.875
 1236POPC   D2A20356  33.581  26.847   8.457
 1236POPC   C3A20357  33.645  27.060   8.088
 1236POPC   C4A20358  33.685  26.721   7.776
 1236POPC   C1B20359  34.260  27.072   8.860
 1236POPC   C2B20360  34.045  27.082   8.474
 1236POPC   C3B20361  34.078  26.801   8.130
 1236POPC   C4B20362  34.140  26.942   7.730
 1237POPC   NC320363  30.863  29.783   9.586
 1237POPC   PO420364  30.231  30.002   9.427
 1237POPC   GL120365  30.665  30.136   9.215
 1237POPC   GL220366  30.926  29.874   9.074
 1237POPC   C1A20367  30.744  30.264   8.771
 1237POPC   D2A20368  30.738  30.471   8.337
 1237POPC   C3A20369  30.655  30.135   8.006
 1237POPC   C4A20370  30.260  29.915   7.871
 1237POPC   C1B20371  30.901  29.791   8.603
 1237POPC   C2B20372  30.560  29.673   8.274
 1237POPC   C3B20373  30.672  29.612   7.860
 1237POPC   C4B20374  31.026  29.871   7.771
 1238POPC   NC320375  17.523  31.827   9.509
 1238POPC   PO420376  17.786  31.230   9.584
 1238POPC   GL120377  17.687  31.443   9.196
 1238POPC   GL220378  17.426  31.292   9.006
 1238POPC   C1A20379  17.756  31.590   8.763
 1238POPC   D2A20380  17.820  31.438   8.359
 1238POPC   C3A20381  17.505  31.585   8.052
 1238POPC   C4A20382  17.321  31.952   7.801
 1238POPC   C1B20383  17.360  31.246   8.562
 1238POPC   C2B20384  17.073  31.121   8.234
 1238POPC   C3B20385  17.232  31.184   7.855
 1238POPC   C4B20386  17.278  31.497   7.586
 1239POPC   NC320387  26.686  18.858   9.449
 1239POPC   PO420388  26.576  19.470   9.468
 1239POPC   GL120389  26.811  19.265   9.117
 1239POPC   GL220390  26.587  19.038   9.003
 1239POPC   C1A20391  26.872  19.177   8.634
 1239POPC   D2A20392  26.558  19.150   8.326
 1239POPC   C3A20393  26.791  19.168   7.966
 1239POPC   C4A20394  27.026  18.838   7.764
 1239POPC   C1B20395  26.625  18.734   8.669
 1239POPC   C2B20396  26.834  18.723   8.279
 1239POPC   C3B20397  26.557  18.728   7.930
 1239POPC   C4B20398  26.588  18.702   7.501
 1240POPC   NC320399  11.102   2.066   9.825
 1240POPC   PO420400  11.329   2.083   9.223
 1240POPC   GL120401  11.193   2.153   8.860
 1240POPC   GL220402  11.078   1.800   8.837
 1240POPC   C1A20403  11.403   2.103   8.493
 1240POPC   D2A20404  11.313   1.743   8.244
 1240POPC   C3A20405  11.104   1.948   7.885
 1240POPC   C4A20406  11.194   1.888   7.439
 1240POPC   C1B20407  10.895   1.898   8.472
 1240POPC   C2B20408  10.937   2.315   8.291
 1240POPC   C3B20409  10.983   2.526   7.906
 1240POPC   C4B20410  11.046   2.354   7.491
 1241POPC   NC320411   6.686  28.336   9.430
 1241POPC   PO420412   7.103  28.697   9.492
 1241POPC   GL120413   6.947  28.581   9.070
 1241POPC   GL220414   6.628  28.712   9.057
 1241POPC   C1A20415   6.876  28.399   8.648
 1241POPC   D2A20416   6.601  28.198   8.317
 1241POPC   C3A20417   6.592  28.330   7.860
 1241POPC   C4A20418   6.296  28.316   7.478
 1241POPC   C1B20419   6.741  28.894   8.657
 1241POPC   C2B20420   6.923  28.749   8.258
 1241POPC   C3B20421   6.751  28.829   7.858
 1241POPC   C4B20422   6.681  28.665   7.431
 1242POPC   NC320423  21.132  13.368   9.462
 1242POPC   PO420424  21.766  13.112   9.603
 1242POPC   GL120425  21.575  13.294   9.189
 1242POPC   GL220426  21.273  13.129   9.029
 1242POPC   C1A20427  21.495  13.551   8.796
 1242POPC   D2A20428  21.683  13.510   8.367
 1242POPC   C3A20429  21.595  13.809   8.008
 1242POPC   C4A20430  21.201  13.895   7.765
 1242POPC   C1B20431  21.319  13.121   8.595
 1242POPC   C2B20432  21.215  13.145   8.217
 1242POPC   C3B20433  21.468  13.331   7.914
 1242POPC   C4B20434  21.381  13.504   7.493
 1243POPC   NC320435  42.131   0.430   9.710
 1243POPC   PO420436  41.516   0.352   9.683
 1243POPC   GL120437  41.586   0.321   9.205
 1243POPC   GL220438  41.614   0.619   8.978
 1243POPC   C1A20439  41.534   0.160   8.774
 1243POPC   D2A20440  41.522   0.457   8.458
 1243POPC   C3A20441  41.655   0.450   8.033
 1243POPC   C4A20442  41.406   0.259   7.735
 1243POPC   C1B20443  41.210   0.749   8.779
 1243POPC   C2B20444  41.006   0.826   8.367
 1243POPC   C3B20445  41.095   0.656   7.960
 1243POPC   C4B20446  41.385   0.756   7.628
 1244POPC   NC320447  28.397  30.241   9.571
 1244POPC   PO420448  28.018  29.632   9.575
 1244POPC   GL120449  28.231  29.825   9.229
 1244POPC   GL220450  28.218  29.542   9.088
 1244POPC   C1A20451  28.249  30.119   8.909
 1244POPC   D2A20452  28.054  30.192   8.551
 1244POPC   C3A20453  28.237  30.120   8.150
 1244POPC   C4A20454  28.170  30.168   7.718
 1244POPC   C1B20455  28.367  29.648   8.736
 1244POPC   C2B20456  28.592  29.895   8.470
 1244POPC   C3B20457  28.605  29.748   8.038
 1244POPC   C4B20458  28.253  29.678   7.802
 1245POPC   NC320459   7.142  12.745   9.486
 1245POPC   PO420460   7.727  12.635   9.419
 1245POPC   GL120461   7.532  12.701   9.047
 1245POPC   GL220462   7.261  12.967   9.039
 1245POPC   C1A20463   7.715  12.599   8.662
 1245POPC   D2A20464   7.594  12.625   8.237
 1245POPC   C3A20465   7.709  12.873   7.893
 1245POPC   C4A20466   7.683  12.667   7.518
 1245POPC   C1B20467   7.299  12.897   8.607
 1245POPC   C2B20468   7.104  12.772   8.244
 1245POPC   C3B20469   7.214  12.715   7.847
 1245POPC   C4B20470   7.295  13.005   7.517
 1246POPC   NC320471  37.659  36.432   9.597
 1246POPC   PO420472  37.460  35.888   9.549
 1246POPC   GL120473  37.536  36.075   9.158
 1246POPC   GL220474  37.855  36.275   9.144
 1246POPC   C1A20475  37.350  36.100   8.729
 1246POPC   D2A20476  37.528  36.182   8.324
 1246POPC   C3A20477  37.334  36.097   7.933
 1246POPC   C4A20478  37.646  36.096   7.595
 1246POPC   C1B20479  38.078  36.131   8.789
 1246POPC   C2B20480  38.017  36.009   8.377
 1246POPC   C3B20481  38.040  36.159   7.990
 1246POPC   C4B20482  38.154  35.931   7.672
 1247POPC   NC320483  42.682   7.353   9.503
 1247POPC   PO420484  41.955   7.192   9.596
 1247POPC   GL120485  42.195   7.415   9.275
 1247POPC   GL220486  42.233   7.089   9.176
 1247POPC   C1A20487  42.451   7.439   8.872
 1247POPC   D2A20488  42.381   7.619   8.480
 1247POPC   C3A20489  42.649   7.554   8.184
 1247POPC   C4A20490  42.513   7.584   7.786
 1247POPC   C1B20491  42.258   6.950   8.780
 1247POPC   C2B20492  42.572   7.076   8.476
 1247POPC   C3B20493  42.473   7.072   8.044
 1247POPC   C4B20494  42.296   7.147   7.652
 1248POPC   NC320495  42.539   0.365   9.399
 1248POPC   PO420496  41.917   0.690   9.377
 1248POPC   GL120497  42.110   0.378   9.068
 1248POPC   GL220498  42.455   0.479   8.912
 1248POPC   C1A20499  42.171   0.264   8.573
 1248POPC   D2A20500  42.481   0.481   8.335
 1248POPC   C3A20501  42.490   0.334   7.914
 1248POPC   C4A20502  42.514   0.462   7.478
 1248POPC   C1B20503  42.097   0.741   8.733
 1248POPC   C2B20504  41.978   0.723   8.339
 1248POPC   C3B20505  42.201   0.752   7.956
 1248POPC   C4B20506  42.026   0.504   7.653
 1249POPC   NC320507  13.256   5.287   9.492
 1249POPC   PO420508  12.695   4.902   9.368
 1249POPC   GL120509  13.076   4.938   9.143
 1249POPC   GL220510  13.045   5.278   9.043
 1249POPC   C1A20511  13.017   4.877   8.706
 1249POPC   D2A20512  12.599   5.000   8.516
 1249POPC   C3A20513  12.658   5.136   8.100
 1249POPC   C4A20514  13.043   5.023   7.878
 1249POPC   C1B20515  12.922   5.383   8.671
 1249POPC   C2B20516  13.115   5.347   8.314
 1249POPC   C3B20517  13.129   5.510   7.928
 1249POPC   C4B20518  12.765   5.466   7.715
 1250POPC   NC320519  33.237   7.328   9.486
 1250POPC   PO420520  32.963   7.901   9.558
 1250POPC   GL120521  33.221   7.737   9.189
 1250POPC   GL220522  32.982   7.496   9.079
 1250POPC   C1A20523  33.441   7.499   8.841
 1250POPC   D2A20524  33.289   7.250   8.489
 1250POPC   C3A20525  33.271   7.435   8.082
 1250POPC   C4A20526  33.194   7.436   7.670
 1250POPC   C1B20527  32.749   7.670   8.763
 1250POPC   C2B20528  32.934   7.663   8.376
 1250POPC   C3B20529  32.799   7.640   7.959
 1250POPC   C4B20530  32.734   7.613   7.516
 1251POPC   NC320531  36.534  44.574   9.437
 1251POPC   PO420532  36.066   0.120   9.544
 1251POPC   GL120533  35.977  44.924   9.154
 1251POPC   GL220534  36.055  44.624   9.262
 1251POPC   C1A20535  36.137  44.859   8.735
 1251POPC   D2A20536  36.335  44.620   8.391
 1251POPC   C3A20537  36.127  44.544   7.985
 1251POPC   C4A20538  36.214  44.593   7.520
 1251POPC   C1B20539  35.935  44.421   8.895
 1251POPC   C2B20540  35.911  44.328   8.447
 1251POPC   C3B20541  35.807  44.139   8.044
 1251POPC   C4B20542  35.790  44.236   7.643
 1252POPC   NC320543   0.588  44.014   9.444
 1252POPC   PO420544  44.932  44.294   9.558
 1252POPC   GL120545   0.178  44.212   9.162
 1252POPC   GL220546   0.135  43.898   8.923
 1252POPC   C1A20547   0.412  44.285   8.774
 1252POPC   D2A20548   0.408  44.084   8.375
 1252POPC   C3A20549   0.330  44.221   7.980
 1252POPC   C4A20550   0.212  43.817   7.799
 1252POPC   C1B20551   0.568  43.775   8.744
 1252POPC   C2B20552   0.750  43.716   8.315
 1252POPC   C3B20553   0.733  43.901   7.873
 1252POPC   C4B20554   0.576  43.662   7.473
 1253POPC   NC320555  29.220  20.524   9.422
 1253POPC   PO420556  28.728  20.857   9.455
 1253POPC   GL120557  28.828  20.466   9.119
 1253POPC   GL220558  29.030  20.740   8.996
 1253POPC   C1A20559  29.034  20.346   8.670
 1253POPC   D2A20560  29.026  20.639   8.319
 1253POPC   C3A20561  29.107  20.516   7.905
 1253POPC   C4A20562  29.099  20.151   7.663
 1253POPC   C1B20563  28.835  21.107   8.789
 1253POPC   C2B20564  28.740  21.068   8.335
 1253POPC   C3B20565  29.022  21.022   7.944
 1253POPC   C4B20566  29.022  21.034   7.474
 1254POPC   NC320567  33.667  32.032   9.705
 1254POPC   PO420568  33.888  32.614   9.591
 1254POPC   GL120569  33.883  32.316   9.290
 1254POPC   GL220570  33.565  32.363   9.198
 1254POPC   C1A20571  34.005  32.306   8.858
 1254POPC   D2A20572  33.978  32.139   8.412
 1254POPC   C3A20573  34.086  32.314   7.986
 1254POPC   C4A20574  33.930  32.113   7.600
 1254POPC   C1B20575  33.494  32.178   8.823
 1254POPC   C2B20576  33.495  32.297   8.401
 1254POPC   C3B20577  33.613  32.089   8.014
 1254POPC   C4B20578  33.413  32.160   7.604
 1255POPC   NC320579  30.878  30.760   9.465
 1255POPC   PO420580  30.217  30.901   9.667
 1255POPC   GL120581  30.451  30.693   9.217
 1255POPC   GL220582  30.701  30.968   9.054
 1255POPC   C1A20583  30.456  30.726   8.712
 1255POPC   D2A20584  30.726  31.022   8.429
 1255POPC   C3A20585  30.576  31.000   7.993
 1255POPC   C4A20586  30.464  30.578   7.858
 1255POPC   C1B20587  30.984  30.697   8.758
 1255POPC   C2B20588  31.277  30.557   8.428
 1255POPC   C3B20589  31.139  30.367   8.047
 1255POPC   C4B20590  30.959  30.712   7.882
 1256POPC   NC320591  11.769  36.342   9.517
 1256POPC   PO420592  12.265  35.897   9.522
 1256POPC   GL120593  12.143  36.148   9.195
 1256POPC   GL220594  12.489  36.189   9.101
 1256POPC   C1A20595  11.926  36.185   8.811
 1256POPC   D2A20596  12.027  36.379   8.429
 1256POPC   C3A20597  12.177  36.106   8.084
 1256POPC   C4A20598  11.843  36.093   7.789
 1256POPC   C1B20599  12.365  36.566   8.872
 1256POPC   C2B20600  12.403  36.722   8.419
 1256POPC   C3B20601  12.225  36.602   7.996
 1256POPC   C4B20602  12.175  36.430   7.534
 1257POPC   NC320603  12.277  22.643   9.361
 1257POPC   PO420604  12.039  23.267   9.441
 1257POPC   GL120605  12.300  23.120   9.125
 1257POPC   GL220606  12.499  23.380   9.006
 1257POPC   C1A20607  12.227  22.853   8.748
 1257POPC   D2A20608  12.342  22.651   8.383
 1257POPC   C3A20609  12.043  22.779   8.090
 1257POPC   C4A20610  12.105  22.652   7.667
 1257POPC   C1B20611  12.244  23.359   8.678
 1257POPC   C2B20612  11.978  23.286   8.359
 1257POPC   C3B20613  12.077  23.306   7.964
 1257POPC   C4B20614  11.864  23.101   7.726
 1258POPC   NC320615  31.744  10.567   9.809
 1258POPC   PO420616  32.354  10.320   9.546
 1258POPC   GL120617  32.416  10.284   9.138
 1258POPC   GL220618  32.438  10.644   9.121
 1258POPC   C1A20619  32.262  10.356   8.732
 1258POPC   D2A20620  32.141  10.487   8.321
 1258POPC   C3A20621  32.387  10.377   7.937
 1258POPC   C4A20622  32.436  10.124   7.557
 1258POPC   C1B20623  32.336  10.865   8.738
 1258POPC   C2B20624  32.178  10.993   8.339
 1258POPC   C3B20625  32.154  10.828   7.920
 1258POPC   C4B20626  32.331  10.830   7.471
 1259POPC   NC320627  12.107  34.180   9.361
 1259POPC   PO420628  11.797  33.612   9.433
 1259POPC   GL120629  12.067  33.702   9.084
 1259POPC   GL220630  11.888  33.952   8.963
 1259POPC   C1A20631  12.175  33.801   8.604
 1259POPC   D2A20632  11.851  33.767   8.265
 1259POPC   C3A20633  11.990  33.636   7.868
 1259POPC   C4A20634  12.193  33.967   7.682
 1259POPC   C1B20635  11.688  34.124   8.618
 1259POPC   C2B20636  11.739  34.505   8.371
 1259POPC   C3B20637  11.704  34.338   7.956
 1259POPC   C4B20638  11.668  33.997   7.671
 1260POPC   NC320639  17.251  21.677   9.609
 1260POPC   PO420640  17.682  21.276   9.488
 1260POPC   GL120641  17.548  21.568   9.183
 1260POPC   GL220642  17.217  21.438   9.162
 1260POPC   C1A20643  17.520  21.584   8.732
 1260POPC   D2A20644  17.274  21.535   8.349
 1260POPC   C3A20645  17.567  21.565   8.051
 1260POPC   C4A20646  17.807  21.679   7.716
 1260POPC   C1B20647  17.069  21.333   8.778
 1260POPC   C2B20648  17.057  21.062   8.433
 1260POPC   C3B20649  16.985  21.210   8.032
 1260POPC   C4B20650  17.240  21.407   7.704
 1261POPC   NC320651  38.374  35.061   9.646
 1261POPC   PO420652  38.460  35.709   9.619
 1261POPC   GL120653  38.396  35.444   9.263
 1261POPC   GL220654  38.039  35.291   9.324
 1261POPC   C1A20655  38.524  35.283   8.808
 1261POPC   D2A20656  38.647  35.470   8.404
 1261POPC   C3A20657  38.567  35.327   8.000
 1261POPC   C4A20658  38.632  35.242   7.526
 1261POPC   C1B20659  38.035  35.416   8.923
 1261POPC   C2B20660  38.182  35.582   8.557
 1261POPC   C3B20661  38.120  35.534   8.111
 1261POPC   C4B20662  38.186  35.427   7.699
 1262POPC   NC320663   5.734  33.690   9.752
 1262POPC   PO420664   6.292  33.886   9.667
 1262POPC   GL120665   5.918  33.912   9.335
 1262POPC   GL220666   5.679  33.619   9.260
 1262POPC   C1A20667   5.812  34.067   8.920
 1262POPC   D2A20668   5.721  33.963   8.490
 1262POPC   C3A20669   5.962  33.789   8.137
 1262POPC   C4A20670   5.918  34.033   7.765
 1262POPC   C1B20671   5.951  33.570   8.900
 1262POPC   C2B20672   5.828  33.424   8.487
 1262POPC   C3B20673   5.633  33.308   8.111
 1262POPC   C4B20674   5.614  33.543   7.732
 1263POPC   NC320675   8.565  13.533   9.488
 1263POPC   PO420676   7.941  13.980   9.567
 1263POPC   GL120677   8.151  13.812   9.184
 1263POPC   GL220678   8.061  13.452   9.229
 1263POPC   C1A20679   8.345  13.909   8.749
 1263POPC   D2A20680   8.448  13.942   8.266
 1263POPC   C3A20681   8.219  13.723   7.926
 1263POPC   C4A20682   8.125  13.377   7.637
 1263POPC   C1B20683   8.347  13.384   8.877
 1263POPC   C2B20684   8.396  13.449   8.437
 1263POPC   C3B20685   8.589  13.255   8.109
 1263POPC   C4B20686   8.629  13.154   7.683
 1264POPC   NC320687  39.923  40.254   9.410
 1264POPC   PO420688  40.393  39.686   9.447
 1264POPC   GL120689  40.109  39.798   9.141
 1264POPC   GL220690  39.755  39.706   9.218
 1264POPC   C1A20691  40.218  39.977   8.753
 1264POPC   D2A20692  40.052  40.130   8.383
 1264POPC   C3A20693  40.280  40.052   7.991
 1264POPC   C4A20694  40.209  39.695   7.689
 1264POPC   C1B20695  39.709  39.953   8.798
 1264POPC   C2B20696  39.630  39.806   8.372
 1264POPC   C3B20697  39.800  39.887   7.990
 1264POPC   C4B20698  39.906  40.128   7.609
 1265POPC   NC320699   0.898  31.348   9.499
 1265POPC   PO420700   0.291  31.778   9.516
 1265POPC   GL120701   0.313  31.530   9.125
 1265POPC   GL220702   0.628  31.305   9.076
 1265POPC   C1A20703   0.433  31.626   8.697
 1265POPC   D2A20704   0.635  31.512   8.303
 1265POPC   C3A20705   0.384  31.724   8.007
 1265POPC   C4A20706   0.146  31.732   7.638
 1265POPC   C1B20707   0.485  31.111   8.715
 1265POPC   C2B20708   0.234  31.170   8.358
 1265POPC   C3B20709   0.363  31.214   7.915
 1265POPC   C4B20710   0.803  31.102   7.748
 1266POPC   NC320711  17.951  34.438   9.440
 1266POPC   PO420712  17.363  34.381   9.677
 1266POPC   GL120713  17.469  34.529   9.238
 1266POPC   GL220714  17.643  34.844   9.162
 1266POPC   C1A20715  17.702  34.452   8.835
 1266POPC   D2A20716  17.650  34.614   8.438
 1266POPC   C3A20717  17.693  34.408   8.058
 1266POPC   C4A20718  17.439  34.434   7.721
 1266POPC   C1B20719  17.415  34.947   8.796
 1266POPC   C2B20720  17.540  35.102   8.391
 1266POPC   C3B20721  17.518  34.921   7.983
 1266POPC   C4B20722  17.637  35.128   7.612
 1267POPC   NC320723  22.850  44.059   9.477
 1267POPC   PO420724  22.363  43.558   9.540
 1267POPC   GL120725  22.513  43.790   9.142
 1267POPC   GL220726  22.848  43.751   9.080
 1267POPC   C1A20727  22.592  43.936   8.680
 1267POPC   D2A20728  22.826  43.801   8.285
 1267POPC   C3A20729  22.644  43.824   7.853
 1267POPC   C4A20730  22.716  43.534   7.504
 1267POPC   C1B20731  23.106  43.803   8.725
 1267POPC   C2B20732  23.306  44.015   8.360
 1267POPC   C3B20733  23.384  43.995   7.956
 1267POPC   C4B20734  23.038  44.165   7.807
 1268POPC   NC320735  19.492  24.984   9.337
 1268POPC   PO420736  18.799  25.074   9.488
 1268POPC   GL120737  19.029  25.237   9.141
 1268POPC   GL220738  19.298  25.538   9.225
 1268POPC   C1A20739  18.937  25.122   8.695
 1268POPC   D2A20740  19.080  25.345   8.318
 1268POPC   C3A20741  18.995  25.250   7.884
 1268POPC   C4A20742  19.160  25.400   7.476
 1268POPC   C1B20743  19.376  25.381   8.797
 1268POPC   C2B20744  19.429  25.019   8.520
 1268POPC   C3B20745  19.423  25.033   8.045
 1268POPC   C4B20746  19.298  24.889   7.610
 1269POPC   NC320747  34.151  29.490   9.342
 1269POPC   PO420748  34.676  29.135   9.724
 1269POPC   GL120749  34.799  29.139   9.266
 1269POPC   GL220750  34.464  29.124   9.182
 1269POPC   C1A20751  34.772  29.344   8.823
 1269POPC   D2A20752  34.920  29.491   8.396
 1269POPC   C3A20753  34.677  29.413   8.027
 1269POPC   C4A20754  34.760  29.237   7.626
 1269POPC   C1B20755  34.227  29.210   8.773
 1269POPC   C2B20756  34.278  29.414   8.392
 1269POPC   C3B20757  34.171  29.504   7.981
 1269POPC   C4B20758  34.259  29.281   7.573
 1270POPC   NC320759  39.783  28.187   9.477
 1270POPC   PO420760  40.100  28.846   9.524
 1270POPC   GL120761  40.065  28.538   9.189
 1270POPC   GL220762  39.704  28.468   9.058
 1270POPC   C1A20763  40.150  28.332   8.796
 1270POPC   D2A20764  39.918  28.378   8.390
 1270POPC   C3A20765  40.111  28.311   7.974
 1270POPC   C4A20766  40.153  27.998   7.656
 1270POPC   C1B20767  39.720  28.058   8.806
 1270POPC   C2B20768  39.595  27.981   8.353
 1270POPC   C3B20769  39.599  28.174   7.928
 1270POPC   C4B20770  39.687  28.127   7.474
 1271POPC   NC320771  20.239  36.727   9.378
 1271POPC   PO420772  19.693  37.037   9.577
 1271POPC   GL120773  19.926  37.076   9.173
 1271POPC   GL220774  19.807  36.743   9.110
 1271POPC   C1A20775  19.997  37.018   8.715
 1271POPC   D2A20776  19.740  36.799   8.451
 1271POPC   C3A20777  19.760  36.931   8.022
 1271POPC   C4A20778  19.954  37.232   7.777
 1271POPC   C1B20779  19.958  36.471   8.831
 1271POPC   C2B20780  19.863  36.311   8.462
 1271POPC   C3B20781  20.074  36.568   8.151
 1271POPC   C4B20782  20.124  36.697   7.717
 1272POPC   NC320783  40.329   5.436   9.521
 1272POPC   PO420784  40.880   5.182   9.774
 1272POPC   GL120785  40.846   5.329   9.305
 1272POPC   GL220786  40.600   5.506   9.113
 1272POPC   C1A20787  40.945   5.198   8.868
 1272POPC   D2A20788  40.764   5.031   8.462
 1272POPC   C3A20789  40.974   5.189   8.065
 1272POPC   C4A20790  40.840   5.041   7.674
 1272POPC   C1B20791  40.493   5.433   8.701
 1272POPC   C2B20792  40.599   5.480   8.273
 1272POPC   C3B20793  40.461   5.142   8.015
 1272POPC   C4B20794  40.317   5.201   7.626
 1273POPC   NC320795  36.626  30.031   9.422
 1273POPC   PO420796  37.206  29.646   9.532
 1273POPC   GL120797  36.864  29.589   9.216
 1273POPC   GL220798  37.030  29.848   9.039
 1273POPC   C1A20799  36.645  29.641   8.797
 1273POPC   D2A20800  36.872  29.846   8.461
 1273POPC   C3A20801  36.761  29.739   8.053
 1273POPC   C4A20802  36.672  29.901   7.645
 1273POPC   C1B20803  37.132  29.491   8.735
 1273POPC   C2B20804  37.392  29.590   8.385
 1273POPC   C3B20805  37.290  29.839   8.063
 1273POPC   C4B20806  37.145  29.714   7.682
 1274POPC   NC320807   3.231   0.805   9.352
 1274POPC   PO420808   2.998   0.153   9.495
 1274POPC   GL120809   2.920   0.295   9.047
 1274POPC   GL220810   2.830   0.633   9.073
 1274POPC   C1A20811   3.030   0.522   8.619
 1274POPC   D2A20812   2.969   0.567   8.186
 1274POPC   C3A20813   2.613   0.314   8.088
 1274POPC   C4A20814   2.515   0.121   7.705
 1274POPC   C1B20815   2.535   0.544   8.729
 1274POPC   C2B20816   2.478   0.790   8.341
 1274POPC   C3B20817   2.580   0.782   7.884
 1274POPC   C4B20818   2.575   0.573   7.471
 1275POPC   NC320819   3.120  38.327   9.765
 1275POPC   PO420820   3.744  38.472   9.501
 1275POPC   GL120821   3.684  38.406   9.121
 1275POPC   GL220822   3.340  38.333   9.162
 1275POPC   C1A20823   3.892  38.387   8.750
 1275POPC   D2A20824   3.710  38.319   8.367
 1275POPC   C3A20825   3.868  38.392   7.978
 1275POPC   C4A20826   3.470  38.424   7.858
 1275POPC   C1B20827   3.356  38.480   8.719
 1275POPC   C2B20828   3.251  38.748   8.335
 1275POPC   C3B20829   3.043  38.703   7.915
 1275POPC   C4B20830   3.225  38.657   7.482
 1276POPC   NC320831  44.833  21.820   9.411
 1276POPC   PO420832  44.402  22.381   9.436
 1276POPC   GL120833  44.402  22.045   9.200
 1276POPC   GL220834  44.718  22.164   9.041
 1276POPC   C1A20835  44.314  21.989   8.767
 1276POPC   D2A20836  44.678  21.973   8.502
 1276POPC   C3A20837  44.573  21.850   8.094
 1276POPC   C4A20838  44.357  22.112   7.778
 1276POPC   C1B20839   0.097  21.957   8.827
 1276POPC   C2B20840   0.164  21.835   8.411
 1276POPC   C3B20841   0.039  22.066   8.025
 1276POPC   C4B20842  44.804  22.426   7.835
 1277POPC   NC320843  16.560  29.260   9.723
 1277POPC   PO420844  16.736  29.902   9.568
 1277POPC   GL120845  16.588  29.949   9.155
 1277POPC   GL220846  16.414  29.673   9.031
 1277POPC   C1A20847  16.726  30.093   8.770
 1277POPC   D2A20848  16.711  30.265   8.395
 1277POPC   C3A20849  16.833  30.049   8.026
 1277POPC   C4A20850  16.591  29.950   7.678
 1277POPC   C1B20851  16.843  29.587   8.856
 1277POPC   C2B20852  16.947  29.735   8.450
 1277POPC   C3B20853  16.658  29.585   8.137
 1277POPC   C4B20854  16.786  29.492   7.749
 1278POPC   NC320855  44.897  42.469   9.610
 1278POPC   PO420856  44.328  42.113   9.523
 1278POPC   GL120857  44.584  42.349   9.208
 1278POPC   GL220858  44.960  42.221   9.167
 1278POPC   C1A20859  44.723  42.495   8.786
 1278POPC   D2A20860  44.739  42.723   8.402
 1278POPC   C3A20861  44.575  42.451   8.114
 1278POPC   C4A20862  44.678  42.233   7.770
 1278POPC   C1B20863   0.125  42.172   8.769
 1278POPC   C2B20864  44.984  42.213   8.365
 1278POPC   C3B20865   0.130  42.375   8.004
 1278POPC   C4B20866   0.163  42.187   7.636
 1279POPC   NC320867  10.205  16.846   9.407
 1279POPC   PO420868   9.599  16.548   9.452
 1279POPC   GL120869   9.834  16.620   9.108
 1279POPC   GL220870  10.116  16.411   9.125
 1279POPC   C1A20871   9.806  16.848   8.745
 1279POPC   D2A20872   9.855  17.062   8.376
 1279POPC   C3A20873   9.568  16.883   8.127
 1279POPC   C4A20874   9.688  16.894   7.728
 1279POPC   C1B20875   9.892  16.289   8.714
 1279POPC   C2B20876   9.627  16.381   8.341
 1279POPC   C3B20877   9.781  16.418   7.913
 1279POPC   C4B20878  10.142  16.452   7.625
 1280POPC   NC320879  27.629   7.713   9.535
 1280POPC   PO420880  27.862   7.102   9.522
 1280POPC   GL120881  27.782   7.329   9.109
 1280POPC   GL220882  27.480   7.515   9.088
 1280POPC   C1A20883  27.682   7.421   8.653
 1280POPC   D2A20884  27.597   7.319   8.256
 1280POPC   C3A20885  27.703   7.551   7.940
 1280POPC   C4A20886  27.514   7.395   7.645
 1280POPC   C1B20887  27.227   7.690   8.741
 1280POPC   C2B20888  27.388   7.781   8.349
 1280POPC   C3B20889  27.232   7.684   7.963
 1280POPC   C4B20890  27.250   7.818   7.551
 1281POPC   NC320891  43.325  13.945   9.490
 1281POPC   PO420892  42.791  13.515   9.548
 1281POPC   GL120893  43.067  13.553   9.239
 1281POPC   GL220894  42.932  13.861   9.145
 1281POPC   C1A20895  42.953  13.414   8.816
 1281POPC   D2A20896  42.922  13.643   8.487
 1281POPC   C3A20897  43.122  13.531   8.103
 1281POPC   C4A20898  43.187  13.581   7.687
 1281POPC   C1B20899  43.300  13.783   8.853
 1281POPC   C2B20900  43.415  13.817   8.422
 1281POPC   C3B20901  43.425  13.981   8.002
 1281POPC   C4B20902  43.463  13.990   7.562
 1282POPC   NC320903   9.592  33.359   9.497
 1282POPC   PO420904  10.111  32.964   9.511
 1282POPC   GL120905   9.812  33.045   9.174
 1282POPC   GL220906   9.911  33.394   9.071
 1282POPC   C1A20907   9.535  33.080   8.799
 1282POPC   D2A20908   9.623  33.071   8.362
 1282POPC   C3A20909   9.708  33.075   7.941
 1282POPC   C4A20910   9.449  33.351   7.684
 1282POPC   C1B20911  10.027  33.123   8.724
 1282POPC   C2B20912  10.142  33.175   8.322
 1282POPC   C3B20913  10.263  33.360   7.970
 1282POPC   C4B20914  10.094  33.282   7.622
 1283POPC   NC320915   4.129   8.568   9.533
 1283POPC   PO420916   4.743   8.215   9.527
 1283POPC   GL120917   4.389   8.182   9.215
 1283POPC   GL220918   4.125   7.909   9.191
 1283POPC   C1A20919   4.438   8.305   8.780
 1283POPC   D2A20920   4.504   8.184   8.343
 1283POPC   C3A20921   4.484   8.268   7.929
 1283POPC   C4A20922   4.333   8.625   7.785
 1283POPC   C1B20923   4.015   8.021   8.774
 1283POPC   C2B20924   4.142   7.858   8.413
 1283POPC   C3B20925   4.139   7.901   8.014
 1283POPC   C4B20926   3.983   8.258   7.787
 1284POPC   NC320927  22.166  10.771   9.544
 1284POPC   PO420928  22.408  11.258   9.296
 1284POPC   GL120929  22.054  10.904   9.055
 1284POPC   GL220930  22.099  10.525   9.111
 1284POPC   C1A20931  21.851  10.592   8.687
 1284POPC   D2A20932  22.031  10.233   8.476
 1284POPC   C3A20933  22.031  10.239   8.029
 1284POPC   C4A20934  21.836  10.459   7.729
 1284POPC   C1B20935  22.348  10.616   8.711
 1284POPC   C2B20936  22.238  10.661   8.250
 1284POPC   C3B20937  22.315  10.655   7.776
 1284POPC   C4B20938  22.468  10.699   7.328
 1285POPC   NC320939  42.271  25.015   9.593
 1285POPC   PO420940  42.750  25.473   9.509
 1285POPC   GL120941  42.396  25.381   9.226
 1285POPC   GL220942  42.580  25.106   9.072
 1285POPC   C1A20943  42.043  25.148   8.951
 1285POPC   D2A20944  41.940  25.020   8.491
 1285POPC   C3A20945  42.153  25.298   8.206
 1285POPC   C4A20946  42.327  25.177   7.798
 1285POPC   C1B20947  42.522  25.419   8.740
 1285POPC   C2B20948  42.605  25.468   8.321
 1285POPC   C3B20949  42.554  25.620   7.890
 1285POPC   C4B20950  42.430  25.538   7.424
 1286POPC   NC320951  17.735  27.098   9.475
 1286POPC   PO420952  17.881  26.492   9.452
 1286POPC   GL120953  18.071  26.659   9.071
 1286POPC   GL220954  18.465  26.579   9.068
 1286POPC   C1A20955  18.153  26.514   8.643
 1286POPC   D2A20956  18.024  26.680   8.246
 1286POPC   C3A20957  18.384  26.795   8.047
 1286POPC   C4A20958  18.692  26.741   7.731
 1286POPC   C1B20959  18.457  26.932   8.738
 1286POPC   C2B20960  18.201  27.161   8.420
 1286POPC   C3B20961  18.037  27.183   8.006
 1286POPC   C4B20962  18.232  27.063   7.648
 1287POPC   NC320963   4.879  12.654   9.546
 1287POPC   PO420964   5.263  13.176   9.470
 1287POPC   GL120965   5.330  12.971   9.095
 1287POPC   GL220966   5.284  12.636   9.165
 1287POPC   C1A20967   5.062  13.049   8.694
 1287POPC   D2A20968   5.203  13.107   8.313
 1287POPC   C3A20969   5.039  13.101   7.932
 1287POPC   C4A20970   5.423  12.939   7.813
 1287POPC   C1B20971   5.394  12.666   8.696
 1287POPC   C2B20972   5.386  12.617   8.249
 1287POPC   C3B20973   5.200  12.483   7.860
 1287POPC   C4B20974   5.186  12.204   7.523
 1288POPC   NC320975  25.998  44.300   9.633
 1288POPC   PO420976  26.513  44.644   9.486
 1288POPC   GL120977  26.339  44.471   9.118
 1288POPC   GL220978  25.980  44.559   9.117
 1288POPC   C1A20979  26.325  44.620   8.684
 1288POPC   D2A20980  26.358  44.467   8.275
 1288POPC   C3A20981  26.235  44.694   7.920
 1288POPC   C4A20982  26.063  44.498   7.557
 1288POPC   C1B20983  25.838  44.747   8.714
 1288POPC   C2B20984  25.898  44.898   8.291
 1288POPC   C3B20985  25.738  44.854   7.863
 1288POPC   C4B20986  25.633  44.712   7.416
 1289POPC   NC320987  38.226  23.639   9.593
 1289POPC   PO420988  38.764  23.976   9.451
 1289POPC   GL120989  38.529  23.692   9.137
 1289POPC   GL220990  38.254  23.431   9.141
 1289POPC   C1A20991  38.455  23.577   8.680
 1289POPC   D2A20992  38.706  23.475   8.290
 1289POPC   C3A20993  38.499  23.661   7.918
 1289POPC   C4A20994  38.571  23.640   7.457
 1289POPC   C1B20995  38.104  23.219   8.801
 1289POPC   C2B20996  38.336  23.114   8.450
 1289POPC   C3B20997  38.244  23.235   8.090
 1289POPC   C4B20998  38.032  23.374   7.775
 1290POPC   NC320999   7.708  40.470   9.540
 1290POPC   PO421000   7.362  41.081   9.405
 1290POPC   GL121001   7.494  40.755   9.100
 1290POPC   GL221002   7.874  40.639   9.088
 1290POPC   C1A21003   7.308  40.577   8.681
 1290POPC   D2A21004   7.356  40.340   8.249
 1290POPC   C3A21005   7.241  40.607   7.882
 1290POPC   C4A21006   7.293  40.660   7.404
 1290POPC   C1B21007   7.760  40.830   8.680
 1290POPC   C2B21008   7.581  40.807   8.292
 1290POPC   C3B21009   7.731  40.573   7.962
 1290POPC   C4B21010   7.687  40.882   7.661
 1291POPC   NC321011  11.799  40.958   9.353
 1291POPC   PO421012  12.225  40.491   9.546
 1291POPC   GL121013  12.237  40.693   9.101
 1291POPC   GL221014  11.911  40.744   8.913
 1291POPC   C1A21015  12.282  40.539   8.641
 1291POPC   D2A21016  12.062  40.569   8.222
 1291POPC   C3A21017  12.193  40.476   7.780
 1291POPC   C4A21018  12.465  40.700   7.486
 1291POPC   C1B21019  12.122  41.023   8.578
 1291POPC   C2B21020  12.122  41.186   8.169
 1291POPC   C3B21021  11.984  40.924   7.831
 1291POPC   C4B21022  11.787  40.939   7.427
 1292POPC   NC321023  40.370  23.803   9.377
 1292POPC   PO421024  41.005  23.552   9.453
 1292POPC   GL121025  41.054  23.652   9.050
 1292POPC   GL221026  40.691  23.643   9.017
 1292POPC   C1A21027  41.017  23.944   8.709
 1292POPC   D2A21028  40.960  23.824   8.283
 1292POPC   C3A21029  41.032  24.012   7.868
 1292POPC   C4A21030  40.884  23.809   7.478
 1292POPC   C1B21031  40.518  23.410   8.681
 1292POPC   C2B21032  40.678  23.355   8.288
 1292POPC   C3B21033  40.755  23.554   7.908
 1292POPC   C4B21034  40.684  23.354   7.520
 1293POPC   NC321035  17.040  24.579   9.731
 1293POPC   PO421036  16.628  24.157   9.643
 1293POPC   GL121037  16.636  24.499   9.310
 1293POPC   GL221038  16.878  24.747   9.242
 1293POPC   C1A21039  16.738  24.448   8.847
 1293POPC   D2A21040  16.622  24.268   8.476
 1293POPC   C3A21041  16.781  24.319   8.068
 1293POPC   C4A21042  16.470  24.507   7.839
 1293POPC   C1B21043  17.033  24.855   8.822
 1293POPC   C2B21044  16.952  24.676   8.418
 1293POPC   C3B21045  16.886  24.809   8.005
 1293POPC   C4B21046  16.787  24.805   7.575
 1294POPC   NC321047  14.585  22.585   9.266
 1294POPC   PO421048  14.505  23.224   9.544
 1294POPC   GL121049  14.673  23.091   9.165
 1294POPC   GL221050  14.322  23.033   9.108
 1294POPC   C1A21051  14.633  22.917   8.729
 1294POPC   D2A21052  14.700  23.095   8.383
 1294POPC   C3A21053  14.572  22.784   8.107
 1294POPC   C4A21054  14.552  22.553   7.739
 1294POPC   C1B21055  14.251  23.262   8.739
 1294POPC   C2B21056  14.190  23.080   8.323
 1294POPC   C3B21057  14.096  22.844   7.939
 1294POPC   C4B21058  14.277  22.967   7.591
 1295POPC   NC321059  19.271   1.297   9.483
 1295POPC   PO421060  18.868   0.770   9.503
 1295POPC   GL121061  18.940   0.791   9.074
 1295POPC   GL221062  19.261   0.937   9.119
 1295POPC   C1A21063  19.024   0.921   8.620
 1295POPC   D2A21064  19.258   1.292   8.447
 1295POPC   C3A21065  19.118   1.475   8.083
 1295POPC   C4A21066  18.962   1.248   7.719
 1295POPC   C1B21067  19.505   1.003   8.786
 1295POPC   C2B21068  19.558   0.887   8.357
 1295POPC   C3B21069  19.398   1.053   7.996
 1295POPC   C4B21070  19.440   1.045   7.588
 1296POPC   NC321071   9.393  17.600   9.434
 1296POPC   PO421072  10.003  17.275   9.452
 1296POPC   GL121073   9.834  17.554   9.147
 1296POPC   GL221074  10.005  17.843   9.076
 1296POPC   C1A21075   9.742  17.406   8.743
 1296POPC   D2A21076   9.437  17.345   8.427
 1296POPC   C3A21077   9.619  17.391   8.019
 1296POPC   C4A21078   9.568  17.359   7.568
 1296POPC   C1B21079  10.139  17.727   8.700
 1296POPC   C2B21080  10.103  17.518   8.334
 1296POPC   C3B21081  10.144  17.770   8.010
 1296POPC   C4B21082   9.899  17.757   7.693
 1297POPC   NC321083  27.303  38.076   9.952
 1297POPC   PO421084  27.712  38.226   9.610
 1297POPC   GL121085  27.640  38.378   9.156
 1297POPC   GL221086  27.427  38.151   8.981
 1297POPC   C1A21087  27.810  38.379   8.710
 1297POPC   D2A21088  27.685  38.214   8.290
 1297POPC   C3A21089  27.684  38.474   7.922
 1297POPC   C4A21090  27.355  38.389   7.620
 1297POPC   C1B21091  27.293  38.366   8.588
 1297POPC   C2B21092  27.215  38.451   8.132
 1297POPC   C3B21093  27.086  38.770   7.816
 1297POPC   C4B21094  26.921  38.796   7.399
 1298POPC   NC321095  40.458  30.477   9.207
 1298POPC   PO421096  41.060  30.139   9.128
 1298POPC   GL121097  40.960  30.597   9.103
 1298POPC   GL221098  40.819  30.956   9.128
 1298POPC   C1A21099  41.062  30.792   8.711
 1298POPC   D2A21100  41.226  30.609   8.347
 1298POPC   C3A21101  40.900  30.421   8.132
 1298POPC   C4A21102  40.737  30.613   7.794
 1298POPC   C1B21103  40.556  30.896   8.719
 1298POPC   C2B21104  40.409  30.689   8.332
 1298POPC   C3B21105  40.230  30.625   7.921
 1298POPC   C4B21106  40.383  30.883   7.575
 1299POPC   NC321107  20.590  29.365   9.919
 1299POPC   PO421108  20.513  29.961   9.485
 1299POPC   GL121109  20.706  30.044   9.118
 1299POPC   GL221110  20.833  29.721   9.096
 1299POPC   C1A21111  20.605  30.049   8.701
 1299POPC   D2A21112  20.508  29.766   8.321
 1299POPC   C3A21113  20.586  29.970   7.964
 1299POPC   C4A21114  20.412  29.942   7.600
 1299POPC   C1B21115  20.733  29.551   8.706
 1299POPC   C2B21116  21.007  29.564   8.324
 1299POPC   C3B21117  20.956  29.614   7.896
 1299POPC   C4B21118  20.879  29.738   7.488
 1300POPC   NC321119  23.107   4.531   9.725
 1300POPC   PO421120  22.809   3.856   9.653
 1300POPC   GL121121  22.836   4.195   9.368
 1300POPC   GL221122  23.201   4.181   9.295
 1300POPC   C1A21123  22.778   4.307   8.927
 1300POPC   D2A21124  22.964   4.383   8.502
 1300POPC   C3A21125  22.765   4.153   8.155
 1300POPC   C4A21126  22.832   4.282   7.753
 1300POPC   C1B21127  23.373   4.183   8.869
 1300POPC   C2B21128  23.514   4.314   8.457
 1300POPC   C3B21129  23.275   4.391   8.056
 1300POPC   C4B21130  23.264   4.023   7.774
 1301POPC   NC321131  32.720  44.431   9.644
 1301POPC   PO421132  33.298  44.781   9.589
 1301POPC   GL121133  33.082  44.613   9.249
 1301POPC   GL221134  32.724  44.676   9.189
 1301POPC   C1A21135  33.128  44.701   8.812
 1301POPC   D2A21136  33.323  44.783   8.400
 1301POPC   C3A21137  33.020  44.853   8.067
 1301POPC   C4A21138  33.000  44.562   7.722
 1301POPC   C1B21139  32.675  44.455   8.788
 1301POPC   C2B21140  32.903  44.444   8.383
 1301POPC   C3B21141  32.932  44.170   8.027
 1301POPC   C4B21142  32.762  44.138   7.622
 1302POPC   NC321143  42.537  21.788   9.533
 1302POPC   PO421144  42.071  21.338   9.753
 1302POPC   GL121145  42.252  21.475   9.250
 1302POPC   GL221146  42.569  21.604   9.053
 1302POPC   C1A21147  42.151  21.487   8.772
 1302POPC   D2A21148  42.409  21.459   8.398
 1302POPC   C3A21149  42.211  21.535   8.000
 1302POPC   C4A21150  41.992  21.345   7.655
 1302POPC   C1B21151  42.575  21.187   8.822
 1302POPC   C2B21152  42.585  20.958   8.395
 1302POPC   C3B21153  42.559  21.157   7.982
 1302POPC   C4B21154  42.803  21.484   7.818
 1303POPC   NC321155  20.986   5.656   9.464
 1303POPC   PO421156  20.335   6.083   9.429
 1303POPC   GL121157  20.588   5.781   9.170
 1303POPC   GL221158  20.323   5.619   9.039
 1303POPC   C1A21159  20.701   5.621   8.717
 1303POPC   D2A21160  20.591   5.439   8.299
 1303POPC   C3A21161  20.530   5.801   7.988
 1303POPC   C4A21162  20.857   6.018   7.693
 1303POPC   C1B21163  20.402   6.055   8.789
 1303POPC   C2B21164  20.276   6.256   8.381
 1303POPC   C3B21165  20.226   6.213   7.925
 1303POPC   C4B21166  20.337   6.012   7.524
 1304POPC   NC321167   8.844  36.755   9.631
 1304POPC   PO421168   9.281  37.144   9.249
 1304POPC   GL121169   8.938  36.810   9.136
 1304POPC   GL221170   9.057  36.497   8.949
 1304POPC   C1A21171   8.614  36.669   8.810
 1304POPC   D2A21172   8.755  36.531   8.377
 1304POPC   C3A21173   8.865  36.923   8.122
 1304POPC   C4A21174   8.792  36.976   7.668
 1304POPC   C1B21175   9.076  36.861   8.653
 1304POPC   C2B21176   9.327  37.157   8.447
 1304POPC   C3B21177   9.211  37.333   8.052
 1304POPC   C4B21178   9.275  37.067   7.706
 1305POPC   NC321179   6.463  19.732   9.550
 1305POPC   PO421180   6.967  19.434   9.535
 1305POPC   GL121181   6.814  19.752   9.171
 1305POPC   GL221182   6.491  19.945   9.069
 1305POPC   C1A21183   6.905  19.951   8.749
 1305POPC   D2A21184   7.150  20.004   8.363
 1305POPC   C3A21185   6.894  19.880   8.024
 1305POPC   C4A21186   6.646  20.108   7.758
 1305POPC   C1B21187   6.398  20.020   8.616
 1305POPC   C2B21188   6.356  20.139   8.178
 1305POPC   C3B21189   6.205  19.902   7.861
 1305POPC   C4B21190   6.510  19.559   7.807
 1306POPC   NC321191   5.560  16.197   9.548
 1306POPC   PO421192   5.852  15.547   9.487
 1306POPC   GL121193   5.949  15.746   9.096
 1306POPC   GL221194   5.850  16.064   9.148
 1306POPC   C1A21195   5.870  15.647   8.653
 1306POPC   D2A21196   5.696  15.825   8.257
 1306POPC   C3A21197   5.918  15.834   7.838
 1306POPC   C4A21198   5.753  15.879   7.382
 1306POPC   C1B21199   6.004  16.247   8.780
 1306POPC   C2B21200   5.896  16.417   8.410
 1306POPC   C3B21201   5.735  16.288   8.044
 1306POPC   C4B21202   5.885  16.301   7.646
 1307POPC   NC321203  40.748  36.747   9.769
 1307POPC   PO421204  40.374  37.299   9.714
 1307POPC   GL121205  40.489  37.021   9.331
 1307POPC   GL221206  40.859  36.911   9.282
 1307POPC   C1A21207  40.548  37.048   8.846
 1307POPC   D2A21208  40.844  37.096   8.455
 1307POPC   C3A21209  40.768  37.102   7.966
 1307POPC   C4A21210  40.864  37.063   7.501
 1307POPC   C1B21211  40.952  36.736   8.858
 1307POPC   C2B21212  40.811  36.581   8.442
 1307POPC   C3B21213  40.740  36.591   7.988
 1307POPC   C4B21214  40.970  36.581   7.625
 1308POPC   NC321215  37.464  11.376   9.787
 1308POPC   PO421216  37.977  11.071   9.464
 1308POPC   GL121217  37.751  11.238   9.124
 1308POPC   GL221218  37.468  11.328   9.245
 1308POPC   C1A21219  37.715  11.456   8.729
 1308POPC   D2A21220  37.845  11.375   8.309
 1308POPC   C3A21221  37.552  11.461   7.972
 1308POPC   C4A21222  37.440  11.429   7.476
 1308POPC   C1B21223  37.316  11.139   8.866
 1308POPC   C2B21224  37.387  11.147   8.454
 1308POPC   C3B21225  37.320  10.861   8.151
 1308POPC   C4B21226  37.322  11.052   7.770
 1309POPC   NC321227   4.443  22.358   9.613
 1309POPC   PO421228   3.832  22.177   9.596
 1309POPC   GL121229   4.110  22.019   9.284
 1309POPC   GL221230   3.930  22.230   9.040
 1309POPC   C1A21231   4.417  22.109   8.935
 1309POPC   D2A21232   4.296  22.177   8.483
 1309POPC   C3A21233   4.478  22.021   8.085
 1309POPC   C4A21234   4.614  22.154   7.685
 1309POPC   C1B21235   4.011  21.838   8.793
 1309POPC   C2B21236   4.116  21.710   8.375
 1309POPC   C3B21237   3.999  21.889   8.003
 1309POPC   C4B21238   4.107  22.165   7.640
 1310POPC   NC321239  24.873  43.988   9.483
 1310POPC   PO421240  25.545  44.218   9.568
 1310POPC   GL121241  25.309  44.001   9.224
 1310POPC   GL221242  25.120  43.688   9.142
 1310POPC   C1A21243  25.094  44.097   8.822
 1310POPC   D2A21244  24.924  44.076   8.408
 1310POPC   C3A21245  25.178  44.084   8.028
 1310POPC   C4A21246  25.280  43.969   7.612
 1310POPC   C1B21247  24.995  43.618   8.684
 1310POPC   C2B21248  25.125  43.619   8.238
 1310POPC   C3B21249  25.182  43.496   7.806
 1310POPC   C4B21250  25.011  43.531   7.380
 1311POPC   NC321251  24.003   1.096   9.527
 1311POPC   PO421252  23.427   1.484   9.533
 1311POPC   GL121253  23.727   1.364   9.199
 1311POPC   GL221254  23.742   1.023   9.092
 1311POPC   C1A21255  23.893   1.345   8.777
 1311POPC   D2A21256  23.587   1.379   8.462
 1311POPC   C3A21257  23.772   1.223   8.125
 1311POPC   C4A21258  23.751   1.292   7.730
 1311POPC   C1B21259  23.559   0.925   8.681
 1311POPC   C2B21260  23.307   1.005   8.279
 1311POPC   C3B21261  23.399   0.960   7.843
 1311POPC   C4B21262  23.631   0.783   7.471
 1312POPC   NC321263  19.041  29.636   9.554
 1312POPC   PO421264  18.981  30.202   9.368
 1312POPC   GL121265  19.105  30.020   9.042
 1312POPC   GL221266  18.918  29.737   9.076
 1312POPC   C1A21267  18.911  29.979   8.630
 1312POPC   D2A21268  18.903  29.703   8.303
 1312POPC   C3A21269  19.028  29.885   7.901
 1312POPC   C4A21270  19.063  30.043   7.482
 1312POPC   C1B21271  19.261  29.623   8.776
 1312POPC   C2B21272  19.420  29.685   8.367
 1312POPC   C3B21273  19.244  29.441   8.027
 1312POPC   C4B21274  19.216  29.508   7.616
 1313POPC   NC321275  40.167   9.446   9.477
 1313POPC   PO421276  39.812   9.950   9.480
 1313POPC   GL121277  39.981   9.796   9.102
 1313POPC   GL221278  40.322   9.883   9.088
 1313POPC   C1A21279  39.965   9.472   8.772
 1313POPC   D2A21280  40.221   9.348   8.394
 1313POPC   C3A21281  39.933   9.515   8.094
 1313POPC   C4A21282  39.966   9.779   7.788
 1313POPC   C1B21283  40.353   9.777   8.644
 1313POPC   C2B21284  40.301   9.854   8.203
 1313POPC   C3B21285  40.408   9.566   7.887
 1313POPC   C4B21286  40.222   9.367   7.540
 1314POPC   NC321287  38.915   5.941   9.431
 1314POPC   PO421288  39.495   6.346   9.661
 1314POPC   GL121289  39.426   6.150   9.240
 1314POPC   GL221290  39.410   5.803   9.248
 1314POPC   C1A21291  39.223   6.113   8.813
 1314POPC   D2A21292  38.951   5.999   8.455
 1314POPC   C3A21293  39.127   5.810   8.073
 1314POPC   C4A21294  39.181   5.982   7.640
 1314POPC   C1B21295  39.563   5.710   8.820
 1314POPC   C2B21296  39.458   5.370   8.506
 1314POPC   C3B21297  39.384   5.323   8.077
 1314POPC   C4B21298  39.515   5.590   7.736
 1315POPC   NC321299   3.034  20.103   9.399
 1315POPC   PO421300   2.666  19.549   9.533
 1315POPC   GL121301   2.594  19.844   9.234
 1315POPC   GL221302   2.896  19.681   9.095
 1315POPC   C1A21303   2.498  19.960   8.816
 1315POPC   D2A21304   2.694  19.826   8.434
 1315POPC   C3A21305   2.632  20.123   8.125
 1315POPC   C4A21306   2.360  20.178   7.763
 1315POPC   C1B21307   3.090  19.871   8.763
 1315POPC   C2B21308   3.242  19.732   8.376
 1315POPC   C3B21309   3.028  19.810   7.990
 1315POPC   C4B21310   2.891  19.773   7.532
 1316POPC   NC321311  35.548   5.911   9.446
 1316POPC   PO421312  34.923   5.676   9.533
 1316POPC   GL121313  35.162   5.557   9.164
 1316POPC   GL221314  35.116   5.873   9.079
 1316POPC   C1A21315  35.405   5.533   8.759
 1316POPC   D2A21316  35.589   5.694   8.376
 1316POPC   C3A21317  35.430   5.584   7.961
 1316POPC   C4A21318  35.597   5.683   7.534
 1316POPC   C1B21319  35.420   6.041   8.795
 1316POPC   C2B21320  35.449   6.184   8.383
 1316POPC   C3B21321  35.502   6.101   7.974
 1316POPC   C4B21322  35.200   5.975   7.710
 1317POPC   NC321323  42.628  27.484   9.484
 1317POPC   PO421324  41.991  27.203   9.355
 1317POPC   GL121325  42.245  27.452   9.108
 1317POPC   GL221326  42.254  27.803   9.238
 1317POPC   C1A21327  42.280  27.326   8.675
 1317POPC   D2A21328  42.639  27.221   8.428
 1317POPC   C3A21329  42.553  27.395   8.030
 1317POPC   C4A21330  42.136  27.521   7.944
 1317POPC   C1B21331  42.207  27.829   8.779
 1317POPC   C2B21332  42.388  27.818   8.360
 1317POPC   C3B21333  42.208  28.051   8.036
 1317POPC   C4B21334  42.062  28.113   7.639
 1318POPC   NC321335  22.272  27.799   9.636
 1318POPC   PO421336  22.436  27.140   9.436
 1318POPC   GL121337  22.118  27.492   9.246
 1318POPC   GL221338  22.202  27.855   9.149
 1318POPC   C1A21339  21.868  27.595   8.852
 1318POPC   D2A21340  21.816  27.398   8.432
 1318POPC   C3A21341  22.007  27.548   8.042
 1318POPC   C4A21342  22.375  27.574   7.767
 1318POPC   C1B21343  22.333  27.783   8.727
 1318POPC   C2B21344  22.243  27.975   8.320
 1318POPC   C3B21345  22.266  28.055   7.891
 1318POPC   C4B21346  22.377  27.983   7.447
 1319POPC   NC321347  28.700  43.735   9.372
 1319POPC   PO421348  28.036  44.029   9.330
 1319POPC   GL121349  28.213  44.057   8.930
 1319POPC   GL221350  28.586  44.114   8.964
 1319POPC   C1A21351  28.071  43.862   8.557
 1319POPC   D2A21352  27.913  43.727   8.159
 1319POPC   C3A21353  28.082  44.028   7.891
 1319POPC   C4A21354  28.525  44.089   7.852
 1319POPC   C1B21355  28.607  43.799   8.626
 1319POPC   C2B21356  28.798  43.684   8.204
 1319POPC   C3B21357  28.849  43.689   7.738
 1319POPC   C4B21358  28.863  43.732   7.286
 1320POPC   NC321359  10.280   8.234   9.571
 1320POPC   PO421360  10.862   8.050   9.249
 1320POPC   GL121361  10.440   8.106   9.113
 1320POPC   GL221362  10.101   7.883   9.224
 1320POPC   C1A21363  10.347   8.421   8.794
 1320POPC   D2A21364  10.332   8.489   8.350
 1320POPC   C3A21365  10.529   8.231   8.069
 1320POPC   C4A21366  10.524   8.290   7.626
 1320POPC   C1B21367  10.073   7.973   8.810
 1320POPC   C2B21368  10.309   7.988   8.491
 1320POPC   C3B21369  10.047   8.066   8.185
 1320POPC   C4B21370  10.056   8.393   7.877
 1321POPC   NC321371   2.419  31.183   9.458
 1321POPC   PO421372   2.814  31.695   9.527
 1321POPC   GL121373   2.921  31.498   9.098
 1321POPC   GL221374   3.167  31.776   9.081
 1321POPC   C1A21375   2.636  31.461   8.718
 1321POPC   D2A21376   2.482  31.301   8.321
 1321POPC   C3A21377   2.562  31.545   7.950
 1321POPC   C4A21378   2.491  31.444   7.500
 1321POPC   C1B21379   2.981  31.814   8.688
 1321POPC   C2B21380   2.962  31.642   8.284
 1321POPC   C3B21381   3.036  31.802   7.894
 1321POPC   C4B21382   3.142  32.085   7.524
 1322POPC   NC321383   6.351  41.904   9.518
 1322POPC   PO421384   6.813  42.380   9.476
 1322POPC   GL121385   6.605  42.453   9.083
 1322POPC   GL221386   6.324  42.337   9.236
 1322POPC   C1A21387   6.801  42.281   8.678
 1322POPC   D2A21388   6.959  41.994   8.309
 1322POPC   C3A21389   6.775  42.265   8.012
 1322POPC   C4A21390   6.634  42.574   7.696
 1322POPC   C1B21391   6.364  42.017   8.888
 1322POPC   C2B21392   6.491  41.906   8.491
 1322POPC   C3B21393   6.328  41.924   8.080
 1322POPC   C4B21394   6.454  42.042   7.689
 1323POPC   NC321395   3.784   1.675   9.880
 1323POPC   PO421396   3.303   1.369   9.505
 1323POPC   GL121397   3.302   1.616   9.087
 1323POPC   GL221398   3.358   1.953   9.224
 1323POPC   C1A21399   3.644   1.808   8.776
 1323POPC   D2A21400   3.700   2.231   8.631
 1323POPC   C3A21401   3.713   2.212   8.181
 1323POPC   C4A21402   3.882   2.310   7.794
 1323POPC   C1B21403   3.218   2.083   8.805
 1323POPC   C2B21404   3.312   1.936   8.382
 1323POPC   C3B21405   3.316   2.028   7.927
 1323POPC   C4B21406   3.132   2.002   7.513
 1324POPC   NC321407  14.024  30.826   9.296
 1324POPC   PO421408  14.559  30.348   9.435
 1324POPC   GL121409  14.397  30.536   9.085
 1324POPC   GL221410  14.477  30.919   9.014
 1324POPC   C1A21411  14.596  30.492   8.706
 1324POPC   D2A21412  14.747  30.769   8.403
 1324POPC   C3A21413  14.642  30.537   8.059
 1324POPC   C4A21414  14.634  30.313   7.701
 1324POPC   C1B21415  14.183  30.811   8.683
 1324POPC   C2B21416  14.238  30.710   8.299
 1324POPC   C3B21417  14.321  30.968   7.958
 1324POPC   C4B21418  14.311  30.883   7.512
 1325POPC   NC321419   6.311  34.779   9.458
 1325POPC   PO421420   6.962  34.546   9.507
 1325POPC   GL121421   6.719  34.679   9.174
 1325POPC   GL221422   6.450  34.415   9.107
 1325POPC   C1A21423   6.518  34.814   8.799
 1325POPC   D2A21424   6.628  34.874   8.384
 1325POPC   C3A21425   6.585  34.624   8.007
 1325POPC   C4A21426   6.851  34.750   7.709
 1325POPC   C1B21427   6.731  34.309   8.812
 1325POPC   C2B21428   6.818  34.375   8.404
 1325POPC   C3B21429   7.020  34.314   8.024
 1325POPC   C4B21430   6.943  34.094   7.668
 1326POPC   NC321431  37.948  27.867   9.494
 1326POPC   PO421432  38.600  27.619   9.455
 1326POPC   GL121433  38.306  27.698   9.206
 1326POPC   GL221434  38.282  28.036   9.138
 1326POPC   C1A21435  38.076  27.540   8.883
 1326POPC   D2A21436  38.337  27.448   8.554
 1326POPC   C3A21437  38.249  27.540   8.138
 1326POPC   C4A21438  38.095  27.587   7.711
 1326POPC   C1B21439  38.437  27.892   8.761
 1326POPC   C2B21440  38.634  27.833   8.347
 1326POPC   C3B21441  38.503  27.955   7.938
 1326POPC   C4B21442  38.390  27.938   7.517
 1327POPC   NC321443  27.338  30.888   9.500
 1327POPC   PO421444  27.887  30.457   9.493
 1327POPC   GL121445  27.635  30.593   9.168
 1327POPC   GL221446  27.726  30.916   9.137
 1327POPC   C1A21447  27.436  30.636   8.760
 1327POPC   D2A21448  27.635  30.517   8.388
 1327POPC   C3A21449  27.494  30.484   7.991
 1327POPC   C4A21450  27.320  30.600   7.611
 1327POPC   C1B21451  27.650  31.123   8.762
 1327POPC   C2B21452  27.411  31.057   8.394
 1327POPC   C3B21453  27.331  30.999   7.969
 1327POPC   C4B21454  27.696  30.932   7.760
 1328POPC   NC321455   9.938  19.236   9.642
 1328POPC   PO421456   9.542  18.731   9.722
 1328POPC   GL121457   9.689  19.012   9.263
 1328POPC   GL221458   9.876  19.292   9.131
 1328POPC   C1A21459   9.794  18.928   8.776
 1328POPC   D2A21460   9.816  19.003   8.288
 1328POPC   C3A21461   9.663  18.710   7.934
 1328POPC   C4A21462   9.573  18.767   7.452
 1328POPC   C1B21463  10.074  19.386   8.707
 1328POPC   C2B21464  10.264  19.494   8.289
 1328POPC   C3B21465  10.077  19.519   7.887
 1328POPC   C4B21466   9.764  19.196   7.804
 1329POPC   NC321467  35.682   7.430   9.610
 1329POPC   PO421468  35.029   7.161   9.468
 1329POPC   GL121469  35.358   7.362   9.222
 1329POPC   GL221470  35.158   7.598   9.087
 1329POPC   C1A21471  35.596   7.543   8.862
 1329POPC   D2A21472  35.466   7.604   8.438
 1329POPC   C3A21473  35.666   7.541   8.042
 1329POPC   C4A21474  35.513   7.430   7.626
 1329POPC   C1B21475  35.010   7.346   8.770
 1329POPC   C2B21476  35.130   7.077   8.419
 1329POPC   C3B21477  35.215   7.277   8.043
 1329POPC   C4B21478  34.941   7.370   7.698
 1330POPC   NC321479  42.610  25.929   9.471
 1330POPC   PO421480  41.959  26.233   9.491
 1330POPC   GL121481  42.169  25.950   9.153
 1330POPC   GL221482  42.529  25.912   8.983
 1330POPC   C1A21483  42.126  25.819   8.713
 1330POPC   D2A21484  42.469  25.945   8.450
 1330POPC   C3A21485  42.233  26.005   8.109
 1330POPC   C4A21486  42.198  25.918   7.704
 1330POPC   C1B21487  42.789  26.231   8.787
 1330POPC   C2B21488  42.926  26.246   8.363
 1330POPC   C3B21489  42.699  26.177   7.962
 1330POPC   C4B21490  42.707  26.443   7.592
 1331POPC   NC321491  40.560  29.657   9.769
 1331POPC   PO421492  40.722  30.249   9.518
 1331POPC   GL121493  40.572  29.985   9.174
 1331POPC   GL221494  40.398  29.748   9.299
 1331POPC   C1A21495  40.640  29.912   8.725
 1331POPC   D2A21496  40.547  30.116   8.388
 1331POPC   C3A21497  40.756  29.900   8.095
 1331POPC   C4A21498  40.718  30.109   7.746
 1331POPC   C1B21499  40.331  29.584   8.913
 1331POPC   C2B21500  40.214  29.688   8.481
 1331POPC   C3B21501  40.252  29.810   8.069
 1331POPC   C4B21502  40.462  29.661   7.700
 1332POPC   NC321503  18.002  10.890   9.376
 1332POPC   PO421504  18.230  11.614   9.499
 1332POPC   GL121505  18.240  11.507   9.101
 1332POPC   GL221506  17.917  11.367   9.130
 1332POPC   C1A21507  18.554  11.381   8.791
 1332POPC   D2A21508  18.665  11.179   8.393
 1332POPC   C3A21509  18.587  11.357   8.000
 1332POPC   C4A21510  18.361  11.267   7.661
 1332POPC   C1B21511  17.852  11.663   8.819
 1332POPC   C2B21512  17.835  11.552   8.407
 1332POPC   C3B21513  17.998  11.294   8.074
 1332POPC   C4B21514  17.910  11.469   7.686
 1333POPC   NC321515  22.646  11.638   9.415
 1333POPC   PO421516  22.161  12.111   9.637
 1333POPC   GL121517  22.168  12.004   9.171
 1333POPC   GL221518  22.470  11.994   8.942
 1333POPC   C1A21519  21.965  11.880   8.764
 1333POPC   D2A21520  21.823  12.040   8.326
 1333POPC   C3A21521  22.048  12.044   7.902
 1333POPC   C4A21522  22.085  12.147   7.451
 1333POPC   C1B21523  22.246  12.291   8.621
 1333POPC   C2B21524  22.153  12.450   8.192
 1333POPC   C3B21525  22.368  12.473   7.771
 1333POPC   C4B21526  22.395  12.539   7.283
 1334POPC   NC321527   6.257   7.375   9.537
 1334POPC   PO421528   5.818   7.830   9.507
 1334POPC   GL121529   5.960   7.640   9.116
 1334POPC   GL221530   5.933   7.282   9.102
 1334POPC   C1A21531   6.051   7.524   8.675
 1334POPC   D2A21532   6.065   7.355   8.259
 1334POPC   C3A21533   6.088   7.591   7.940
 1334POPC   C4A21534   6.078   7.336   7.571
 1334POPC   C1B21535   5.571   7.373   8.786
 1334POPC   C2B21536   5.561   7.385   8.338
 1334POPC   C3B21537   5.635   7.348   7.897
 1334POPC   C4B21538   5.597   7.293   7.459
 1335POPC   NC321539  44.179  10.594   9.653
 1335POPC   PO421540  43.569  10.455   9.765
 1335POPC   GL121541  43.808  10.398   9.337
 1335POPC   GL221542  44.161  10.446   9.175
 1335POPC   C1A21543  43.733  10.438   8.875
 1335POPC   D2A21544  43.551  10.281   8.477
 1335POPC   C3A21545  43.722  10.482   8.144
 1335POPC   C4A21546  43.683  10.523   7.735
 1335POPC   C1B21547  44.235  10.194   8.812
 1335POPC   C2B21548  44.090  10.213   8.384
 1335POPC   C3B21549  44.279  10.296   7.960
 1335POPC   C4B21550  44.541  10.224   7.568
 1336POPC   NC321551   4.836   2.561   9.666
 1336POPC   PO421552   5.211   3.022   9.297
 1336POPC   GL121553   5.162   2.671   9.098
 1336POPC   GL221554   4.817   2.597   9.114
 1336POPC   C1A21555   5.101   2.668   8.675
 1336POPC   D2A21556   4.997   2.664   8.279
 1336POPC   C3A21557   5.355   2.697   8.016
 1336POPC   C4A21558   5.389   2.772   7.570
 1336POPC   C1B21559   4.595   2.716   8.717
 1336POPC   C2B21560   4.633   3.038   8.409
 1336POPC   C3B21561   4.772   3.008   7.984
 1336POPC   C4B21562   4.925   2.663   7.754
 1337POPC   NC321563  35.761  18.910   9.425
 1337POPC   PO421564  36.465  19.151   9.446
 1337POPC   GL121565  36.311  18.897   9.060
 1337POPC   GL221566  35.980  18.765   9.003
 1337POPC   C1A21567  36.226  18.889   8.596
 1337POPC   D2A21568  36.233  18.644   8.234
 1337POPC   C3A21569  36.215  19.003   7.952
 1337POPC   C4A21570  36.303  19.410   7.720
 1337POPC   C1B21571  35.872  19.204   8.843
 1337POPC   C2B21572  35.926  19.398   8.436
 1337POPC   C3B21573  35.859  19.394   8.003
 1337POPC   C4B21574  35.707  19.098   7.743
 1338POPC   NC321575   3.018   9.940   9.635
 1338POPC   PO421576   2.859   9.313   9.642
 1338POPC   GL121577   2.880   9.596   9.223
 1338POPC   GL221578   3.015   9.968   9.141
 1338POPC   C1A21579   2.742   9.744   8.787
 1338POPC   D2A21580   2.868   9.867   8.380
 1338POPC   C3A21581   2.781   9.656   8.032
 1338POPC   C4A21582   2.456   9.691   7.742
 1338POPC   C1B21583   3.107  10.147   8.729
 1338POPC   C2B21584   3.271  10.140   8.276
 1338POPC   C3B21585   3.032  10.083   7.848
 1338POPC   C4B21586   3.215  10.027   7.414
 1339POPC   NC321587  36.338   7.163   9.297
 1339POPC   PO421588  36.085   7.626   9.721
 1339POPC   GL121589  35.979   7.525   9.218
 1339POPC   GL221590  36.220   7.572   8.992
 1339POPC   C1A21591  35.970   7.230   8.767
 1339POPC   D2A21592  36.046   7.443   8.400
 1339POPC   C3A21593  36.095   7.208   8.100
 1339POPC   C4A21594  36.043   7.305   7.686
 1339POPC   C1B21595  36.471   7.436   8.674
 1339POPC   C2B21596  36.530   7.685   8.322
 1339POPC   C3B21597  36.420   7.542   7.941
 1339POPC   C4B21598  36.504   7.131   7.770
 1340POPC   NC321599  18.541  32.872   9.571
 1340POPC   PO421600  18.002  33.253   9.445
 1340POPC   GL121601  18.299  33.184   9.088
 1340POPC   GL221602  18.303  32.835   9.103
 1340POPC   C1A21603  18.351  33.299   8.633
 1340POPC   D2A21604  18.477  33.451   8.216
 1340POPC   C3A21605  18.269  33.271   7.882
 1340POPC   C4A21606  18.260  32.990   7.542
 1340POPC   C1B21607  18.222  32.772   8.669
 1340POPC   C2B21608  18.227  32.887   8.231
 1340POPC   C3B21609  17.892  32.901   7.895
 1340POPC   C4B21610  17.860  32.690   7.456
 1341POPC   NC321611  41.429  29.220   9.535
 1341POPC   PO421612  41.668  28.617   9.453
 1341POPC   GL121613  41.587  28.929   9.118
 1341POPC   GL221614  41.779  29.243   9.146
 1341POPC   C1A21615  41.410  29.153   8.762
 1341POPC   D2A21616  41.191  29.236   8.383
 1341POPC   C3A21617  41.432  29.238   7.993
 1341POPC   C4A21618  41.776  29.010   7.803
 1341POPC   C1B21619  41.949  29.119   8.755
 1341POPC   C2B21620  41.789  29.250   8.360
 1341POPC   C3B21621  41.967  29.455   7.994
 1341POPC   C4B21622  41.921  29.437   7.576
 1342POPC   NC321623  12.283  26.286   9.582
 1342POPC   PO421624  12.942  26.109   9.462
 1342POPC   GL121625  12.739  26.091   9.084
 1342POPC   GL221626  12.693  26.438   9.100
 1342POPC   C1A21627  12.483  25.840   8.782
 1342POPC   D2A21628  12.317  25.700   8.355
 1342POPC   C3A21629  12.470  25.881   7.973
 1342POPC   C4A21630  12.825  25.762   7.711
 1342POPC   C1B21631  12.672  26.314   8.641
 1342POPC   C2B21632  12.789  25.966   8.397
 1342POPC   C3B21633  12.936  26.105   8.042
 1342POPC   C4B21634  12.722  26.260   7.698
 1343POPC   NC321635  25.880   9.824   9.720
 1343POPC   PO421636  26.096   9.325   9.613
 1343POPC   GL121637  26.189   9.615   9.268
 1343POPC   GL221638  26.452   9.448   9.092
 1343POPC   C1A21639  26.112   9.797   8.816
 1343POPC   D2A21640  25.916   9.868   8.402
 1343POPC   C3A21641  26.105   9.965   7.986
 1343POPC   C4A21642  26.033   9.903   7.545
 1343POPC   C1B21643  26.276   9.334   8.672
 1343POPC   C2B21644  26.303   9.563   8.280
 1343POPC   C3B21645  26.316   9.508   7.833
 1343POPC   C4B21646  26.221   9.409   7.408
 1344POPC   NC321647   2.474  20.995   9.397
 1344POPC   PO421648   2.667  20.392   9.347
 1344POPC   GL121649   2.988  20.444   9.019
 1344POPC   GL221650   3.174  20.783   9.021
 1344POPC   C1A21651   2.831  20.309   8.634
 1344POPC   D2A21652   2.706  20.586   8.379
 1344POPC   C3A21653   2.839  20.585   7.979
 1344POPC   C4A21654   2.936  20.246   7.747
 1344POPC   C1B21655   3.145  20.787   8.555
 1344POPC   C2B21656   2.870  21.041   8.214
 1344POPC   C3B21657   2.629  21.103   7.799
 1344POPC   C4B21658   2.330  21.076   7.394
 1345POPC   NC321659  35.853   7.999   9.553
 1345POPC   PO421660  36.405   7.849   9.341
 1345POPC   GL121661  36.117   8.106   9.119
 1345POPC   GL221662  35.772   7.986   9.054
 1345POPC   C1A21663  36.005   8.353   8.764
 1345POPC   D2A21664  36.010   8.461   8.328
 1345POPC   C3A21665  35.816   8.299   7.975
 1345POPC   C4A21666  36.156   8.260   7.684
 1345POPC   C1B21667  35.973   7.862   8.663
 1345POPC   C2B21668  36.050   7.921   8.219
 1345POPC   C3B21669  36.008   7.801   7.793
 1345POPC   C4B21670  36.314   7.728   7.467
 1346POPC   NC321671  33.608   6.403   9.501
 1346POPC   PO421672  34.197   6.641   9.661
 1346POPC   GL121673  33.921   6.681   9.227
 1346POPC   GL221674  34.151   6.914   9.102
 1346POPC   C1A21675  33.525   6.641   8.865
 1346POPC   D2A21676  33.482   6.445   8.392
 1346POPC   C3A21677  33.760   6.568   8.007
 1346POPC   C4A21678  33.704   6.776   7.589
 1346POPC   C1B21679  33.997   6.609   8.753
 1346POPC   C2B21680  34.067   6.452   8.386
 1346POPC   C3B21681  34.290   6.556   8.061
 1346POPC   C4B21682  34.159   6.539   7.664
 1347POPC   NC321683  18.446   5.372   9.556
 1347POPC   PO421684  18.374   4.708   9.703
 1347POPC   GL121685  18.292   4.832   9.250
 1347POPC   GL221686  18.156   5.193   9.167
 1347POPC   C1A21687  18.275   4.894   8.781
 1347POPC   D2A21688  18.491   4.856   8.362
 1347POPC   C3A21689  18.268   5.003   8.024
 1347POPC   C4A21690  18.041   4.769   7.713
 1347POPC   C1B21691  18.375   5.408   8.776
 1347POPC   C2B21692  18.586   5.363   8.335
 1347POPC   C3B21693  18.563   5.470   7.886
 1347POPC   C4B21694  18.365   5.577   7.430
 1348POPC   NC321695  16.932  36.610   9.301
 1348POPC   PO421696  16.318  36.664   9.448
 1348POPC   GL121697  16.492  36.772   9.052
 1348POPC   GL221698  16.778  37.033   9.019
 1348POPC   C1A21699  16.408  36.588   8.660
 1348POPC   D2A21700  16.623  36.579   8.268
 1348POPC   C3A21701  16.422  36.634   7.907
 1348POPC   C4A21702  16.466  36.830   7.537
 1348POPC   C1B21703  17.050  37.180   8.658
 1348POPC   C2B21704  17.052  36.947   8.249
 1348POPC   C3B21705  16.870  36.929   7.852
 1348POPC   C4B21706  17.087  37.134   7.472
 1349POPC   NC321707  44.398  20.075   9.528
 1349POPC   PO421708   0.162  20.039   9.449
 1349POPC   GL121709  44.816  19.991   9.165
 1349POPC   GL221710  44.589  20.300   9.110
 1349POPC   C1A21711  44.688  19.682   8.844
 1349POPC   D2A21712  44.548  19.798   8.426
 1349POPC   C3A21713  44.883  19.843   8.124
 1349POPC   C4A21714  44.759  19.702   7.725
 1349POPC   C1B21715  44.838  20.314   8.719
 1349POPC   C2B21716  44.684  20.307   8.300
 1349POPC   C3B21717  44.559  20.163   7.891
 1349POPC   C4B21718  44.801  20.160   7.508
 1350POPC   NC321719  12.412  22.032   9.563
 1350POPC   PO421720  11.909  22.393   9.521
 1350POPC   GL121721  12.085  22.166   9.182
 1350POPC   GL221722  11.997  21.832   9.261
 1350POPC   C1A21723  12.157  22.298   8.760
 1350POPC   D2A21724  11.893  22.363   8.376
 1350POPC   C3A21725  12.171  22.279   8.023
 1350POPC   C4A21726  12.189  22.119   7.596
 1350POPC   C1B21727  12.046  21.711   8.839
 1350POPC   C2B21728  12.121  21.906   8.433
 1350POPC   C3B21729  12.193  21.771   8.024
 1350POPC   C4B21730  11.979  21.648   7.702
 1351POPC   NC321731  44.908   0.414   9.507
 1351POPC   PO421732  44.362   0.009   9.425
 1351POPC   GL121733  44.568   0.235   9.177
 1351POPC   GL221734  44.909   0.215   9.058
 1351POPC   C1A21735  44.467   0.382   8.816
 1351POPC   D2A21736  44.681   0.317   8.473
 1351POPC   C3A21737  44.448   0.424   8.151
 1351POPC   C4A21738  44.566   0.387   7.696
 1351POPC   C1B21739  44.957   0.561   8.829
 1351POPC   C2B21740   0.081   0.632   8.415
 1351POPC   C3B21741  44.929   0.503   8.049
 1351POPC   C4B21742   0.000   0.632   7.638
 1352POPC   NC321743  18.520  11.263   9.449
 1352POPC   PO421744  19.185  11.232   9.467
 1352POPC   GL121745  18.953  11.298   9.135
 1352POPC   GL221746  19.094  11.589   9.031
 1352POPC   C1A21747  18.962  11.046   8.780
 1352POPC   D2A21748  19.120  10.918   8.372
 1352POPC   C3A21749  19.083  11.065   7.936
 1352POPC   C4A21750  18.875  11.178   7.541
 1352POPC   C1B21751  19.120  11.494   8.607
 1352POPC   C2B21752  19.046  11.481   8.210
 1352POPC   C3B21753  19.047  11.582   7.797
 1352POPC   C4B21754  19.200  11.585   7.394
 1353POPC   NC321755   6.963  41.127   9.660
 1353POPC   PO421756   6.632  40.530   9.482
 1353POPC   GL121757   6.376  40.669   9.154
 1353POPC   GL221758   6.551  40.943   9.066
 1353POPC   C1A21759   6.398  40.551   8.743
 1353POPC   D2A21760   6.427  40.645   8.315
 1353POPC   C3A21761   6.792  40.742   8.076
 1353POPC   C4A21762   6.580  40.680   7.711
 1353POPC   C1B21763   6.819  40.823   8.666
 1353POPC   C2B21764   7.114  41.051   8.415
 1353POPC   C3B21765   7.063  41.213   8.015
 1353POPC   C4B21766   6.976  40.968   7.635
 1354POPC   NC321767  18.797   3.169   9.330
 1354POPC   PO421768  19.298   2.663   9.472
 1354POPC   GL121769  19.223   2.916   9.140
 1354POPC   GL221770  19.522   3.078   9.150
 1354POPC   C1A21771  19.020   2.803   8.760
 1354POPC   D2A21772  19.221   2.484   8.516
 1354POPC   C3A21773  19.213   2.476   8.059
 1354POPC   C4A21774  18.971   2.617   7.686
 1354POPC   C1B21775  19.429   3.234   8.752
 1354POPC   C2B21776  19.287   3.017   8.387
 1354POPC   C3B21777  19.134   2.979   8.005
 1354POPC   C4B21778  19.294   3.228   7.698
 1355POPC   NC321779  11.402  23.863   9.425
 1355POPC   PO421780  11.206  23.280   9.498
 1355POPC   GL121781  11.300  23.497   9.083
 1355POPC   GL221782  11.019  23.725   9.045
 1355POPC   C1A21783  11.447  23.859   8.757
 1355POPC   D2A21784  11.324  24.047   8.312
 1355POPC   C3A21785  11.363  23.869   7.914
 1355POPC   C4A21786  11.458  23.414   7.852
 1355POPC   C1B21787  10.959  23.793   8.586
 1355POPC   C2B21788  11.010  23.591   8.152
 1355POPC   C3B21789  10.984  23.602   7.676
 1355POPC   C4B21790  10.956  23.540   7.193
 1356POPC   NC321791  13.083  26.632   9.453
 1356POPC   PO421792  12.602  27.089   9.525
 1356POPC   GL121793  12.720  26.938   9.138
 1356POPC   GL221794  13.057  26.901   9.030
 1356POPC   C1A21795  12.656  26.863   8.726
 1356POPC   D2A21796  12.852  26.952   8.363
 1356POPC   C3A21797  12.627  26.863   8.016
 1356POPC   C4A21798  12.682  26.764   7.606
 1356POPC   C1B21799  13.103  26.547   8.778
 1356POPC   C2B21800  13.076  26.484   8.353
 1356POPC   C3B21801  13.105  26.584   7.914
 1356POPC   C4B21802  13.180  26.384   7.513
 1357POPC   NC321803   0.633  29.788   9.583
 1357POPC   PO421804   0.127  30.208   9.393
 1357POPC   GL121805   0.254  29.899   9.109
 1357POPC   GL221806   0.551  30.023   9.154
 1357POPC   C1A21807   0.391  29.709   8.690
 1357POPC   D2A21808   0.145  29.808   8.287
 1357POPC   C3A21809   0.242  29.941   7.834
 1357POPC   C4A21810   0.108  30.150   7.454
 1357POPC   C1B21811   0.676  30.158   8.811
 1357POPC   C2B21812   0.498  30.156   8.431
 1357POPC   C3B21813   0.671  29.943   8.094
 1357POPC   C4B21814   0.756  30.033   7.683
 1358POPC   NC321815  33.518  14.209   9.560
 1358POPC   PO421816  33.075  14.676   9.505
 1358POPC   GL121817  33.287  14.461   9.152
 1358POPC   GL221818  33.174  14.106   9.181
 1358POPC   C1A21819  33.241  14.392   8.686
 1358POPC   D2A21820  33.070  14.665   8.330
 1358POPC   C3A21821  33.091  14.556   7.900
 1358POPC   C4A21822  33.032  14.498   7.457
 1358POPC   C1B21823  32.795  14.278   8.951
 1358POPC   C2B21824  32.760  14.291   8.494
 1358POPC   C3B21825  32.507  14.342   8.126
 1358POPC   C4B21826  32.577  14.543   7.718
 1359POPC   NC321827  43.121  40.231   9.839
 1359POPC   PO421828  43.355  39.722   9.793
 1359POPC   GL121829  43.258  39.926   9.356
 1359POPC   GL221830  43.362  40.260   9.239
 1359POPC   C1A21831  43.268  39.900   8.861
 1359POPC   D2A21832  43.091  40.065   8.427
 1359POPC   C3A21833  43.270  39.993   7.999
 1359POPC   C4A21834  43.621  39.753   7.792
 1359POPC   C1B21835  43.028  40.353   8.878
 1359POPC   C2B21836  42.831  40.505   8.450
 1359POPC   C3B21837  42.793  40.359   7.999
 1359POPC   C4B21838  42.832  40.015   7.695
 1360POPC   NC321839  14.239  11.458   9.374
 1360POPC   PO421840  14.586  10.964   9.543
 1360POPC   GL121841  14.616  11.171   9.176
 1360POPC   GL221842  14.310  11.097   9.009
 1360POPC   C1A21843  14.674  11.396   8.808
 1360POPC   D2A21844  14.564  11.322   8.384
 1360POPC   C3A21845  14.718  11.478   7.983
 1360POPC   C4A21846  14.714  11.150   7.668
 1360POPC   C1B21847  14.171  11.431   8.702
 1360POPC   C2B21848  14.031  11.297   8.299
 1360POPC   C3B21849  14.283  11.197   7.967
 1360POPC   C4B21850  14.289  11.438   7.611
 1361POPC   NC321851  43.970  41.871   9.679
 1361POPC   PO421852  43.837  41.243   9.470
 1361POPC   GL121853  43.951  41.466   9.115
 1361POPC   GL221854  44.150  41.711   9.226
 1361POPC   C1A21855  43.833  41.608   8.720
 1361POPC   D2A21856  43.662  41.698   8.330
 1361POPC   C3A21857  43.754  41.451   7.982
 1361POPC   C4A21858  43.692  41.087   7.705
 1361POPC   C1B21859  44.140  41.983   8.885
 1361POPC   C2B21860  44.008  42.064   8.479
 1361POPC   C3B21861  44.133  42.097   8.060
 1361POPC   C4B21862  44.107  41.782   7.756
 1362POPC   NC321863  17.170   1.955   9.544
 1362POPC   PO421864  17.799   2.141   9.502
 1362POPC   GL121865  17.590   1.984   9.186
 1362POPC   GL221866  17.298   2.207   9.122
 1362POPC   C1A21867  17.728   2.077   8.788
 1362POPC   D2A21868  17.573   1.979   8.401
 1362POPC   C3A21869  17.738   2.069   8.004
 1362POPC   C4A21870  17.583   2.009   7.604
 1362POPC   C1B21871  17.223   1.903   8.806
 1362POPC   C2B21872  17.083   1.840   8.385
 1362POPC   C3B21873  17.274   1.812   7.986
 1362POPC   C4B21874  17.105   1.801   7.578
 1363POPC   NC321875  34.383  36.947  10.156
 1363POPC   PO421876  34.372  37.031   9.693
 1363POPC   GL121877  34.519  37.106   9.229
 1363POPC   GL221878  34.812  36.907   9.132
 1363POPC   C1A21879  34.487  37.055   8.745
 1363POPC   D2A21880  34.736  37.088   8.337
 1363POPC   C3A21881  34.605  36.887   7.908
 1363POPC   C4A21882  34.492  36.556   7.570
 1363POPC   C1B21883  34.908  36.748   8.701
 1363POPC   C2B21884  34.832  36.567   8.273
 1363POPC   C3B21885  34.936  36.500   7.826
 1363POPC   C4B21886  34.938  36.307   7.402
 1364POPC   NC321887  38.931  43.020   9.711
 1364POPC   PO421888  39.296  43.560   9.620
 1364POPC   GL121889  39.224  43.331   9.205
 1364POPC   GL221890  39.091  43.020   9.235
 1364POPC   C1A21891  39.328  43.186   8.787
 1364POPC   D2A21892  39.557  43.040   8.451
 1364POPC   C3A21893  39.351  42.999   8.082
 1364POPC   C4A21894  39.404  43.108   7.687
 1364POPC   C1B21895  38.864  42.930   8.892
 1364POPC   C2B21896  39.026  42.901   8.476
 1364POPC   C3B21897  38.842  42.852   8.104
 1364POPC   C4B21898  38.979  42.839   7.704
 1365POPC   NC321899  14.600  20.989   9.834
 1365POPC   PO421900  14.398  21.594   9.640
 1365POPC   GL121901  14.412  21.547   9.158
 1365POPC   GL221902  14.589  21.267   8.955
 1365POPC   C1A21903  14.366  21.618   8.696
 1365POPC   D2A21904  14.447  21.324   8.361
 1365POPC   C3A21905  14.215  21.428   8.009
 1365POPC   C4A21906  14.433  21.619   7.675
 1365POPC   C1B21907  14.213  21.115   8.764
 1365POPC   C2B21908  13.999  21.054   8.365
 1365POPC   C3B21909  14.114  20.941   7.917
 1365POPC   C4B21910  14.533  21.122   7.753
 1366POPC   NC321911  27.114  27.276   9.482
 1366POPC   PO421912  27.547  27.803   9.635
 1366POPC   GL121913  27.534  27.689   9.184
 1366POPC   GL221914  27.485  27.364   9.135
 1366POPC   C1A21915  27.358  27.651   8.744
 1366POPC   D2A21916  27.582  27.565   8.365
 1366POPC   C3A21917  27.385  27.496   7.963
 1366POPC   C4A21918  27.446  27.839   7.690
 1366POPC   C1B21919  27.847  27.449   8.818
 1366POPC   C2B21920  28.003  27.304   8.392
 1366POPC   C3B21921  27.913  27.432   7.931
 1366POPC   C4B21922  28.017  27.199   7.516
 1367POPC   NC321923  20.978  29.919   9.547
 1367POPC   PO421924  21.582  30.229   9.573
 1367POPC   GL121925  21.596  30.023   9.181
 1367POPC   GL221926  21.251  30.047   9.127
 1367POPC   C1A21927  21.581  30.107   8.732
 1367POPC   D2A21928  21.467  29.848   8.336
 1367POPC   C3A21929  21.606  29.952   7.912
 1367POPC   C4A21930  21.382  29.825   7.545
 1367POPC   C1B21931  21.133  29.861   8.724
 1367POPC   C2B21932  20.943  30.056   8.338
 1367POPC   C3B21933  21.091  30.094   7.943
 1367POPC   C4B21934  21.136  30.267   7.557
 1368POPC   NC321935  30.169  12.150   9.385
 1368POPC   PO421936  29.525  12.063   9.661
 1368POPC   GL121937  29.679  12.107   9.212
 1368POPC   GL221938  29.851  11.780   9.163
 1368POPC   C1A21939  29.900  12.382   8.828
 1368POPC   D2A21940  30.193  12.414   8.418
 1368POPC   C3A21941  30.075  12.207   7.990
 1368POPC   C4A21942  30.049  11.996   7.561
 1368POPC   C1B21943  29.745  11.904   8.734
 1368POPC   C2B21944  29.888  11.828   8.321
 1368POPC   C3B21945  29.720  11.839   7.923
 1368POPC   C4B21946  29.529  11.806   7.527
 1369POPC   NC321947   7.377  22.888   9.580
 1369POPC   PO421948   7.369  23.530   9.548
 1369POPC   GL121949   7.489  23.225   9.184
 1369POPC   GL221950   7.587  22.870   9.123
 1369POPC   C1A21951   7.378  23.168   8.732
 1369POPC   D2A21952   7.181  23.254   8.314
 1369POPC   C3A21953   7.427  23.244   7.918
 1369POPC   C4A21954   7.324  23.187   7.461
 1369POPC   C1B21955   7.610  22.709   8.688
 1369POPC   C2B21956   7.478  22.778   8.263
 1369POPC   C3B21957   7.481  22.742   7.809
 1369POPC   C4B21958   7.531  22.615   7.368
 1370POPC   NC321959   9.114  44.356   9.513
 1370POPC   PO421960   8.630  44.833   9.529
 1370POPC   GL121961   8.795  44.598   9.163
 1370POPC   GL221962   9.177  44.634   9.104
 1370POPC   C1A21963   8.852  44.737   8.747
 1370POPC   D2A21964   9.139  44.860   8.467
 1370POPC   C3A21965   8.900  44.927   8.114
 1370POPC   C4A21966   9.010   0.016   7.706
 1370POPC   C1B21967   9.252  44.382   8.755
 1370POPC   C2B21968   9.272  44.371   8.341
 1370POPC   C3B21969   9.070  44.452   7.988
 1370POPC   C4B21970   9.266  44.274   7.674
 1371POPC   NC321971  28.794  18.018   9.448
 1371POPC   PO421972  29.258  18.503   9.519
 1371POPC   GL121973  29.019  18.414   9.149
 1371POPC   GL221974  29.214  18.106   9.162
 1371POPC   C1A21975  29.003  18.227   8.711
 1371POPC   D2A21976  29.085  18.387   8.303
 1371POPC   C3A21977  28.938  18.491   7.905
 1371POPC   C4A21978  28.891  18.145   7.676
 1371POPC   C1B21979  29.418  17.933   8.805
 1371POPC   C2B21980  29.466  18.041   8.373
 1371POPC   C3B21981  29.318  18.055   7.932
 1371POPC   C4B21982  29.593  18.057   7.510
 1372POPC   NC321983  21.167   9.245   9.467
 1372POPC   PO421984  21.658   8.763   9.633
 1372POPC   GL121985  21.460   8.780   9.231
 1372POPC   GL221986  21.136   8.617   9.227
 1372POPC   C1A21987  21.495   9.089   8.868
 1372POPC   D2A21988  21.556   9.250   8.429
 1372POPC   C3A21989  21.627   8.983   8.057
 1372POPC   C4A21990  21.654   9.083   7.633
 1372POPC   C1B21991  21.074   8.813   8.846
 1372POPC   C2B21992  21.326   8.772   8.486
 1372POPC   C3B21993  21.187   8.728   8.103
 1372POPC   C4B21994  21.186   8.911   7.764
 1373POPC   NC321995  41.219  28.262   9.446
 1373POPC   PO421996  41.844  27.967   9.507
 1373POPC   GL121997  41.710  28.197   9.152
 1373POPC   GL221998  41.453  28.408   9.029
 1373POPC   C1A21999  41.754  28.103   8.725
 1373POPC   D2A22000  41.756  28.242   8.311
 1373POPC   C3A22001  41.389  28.155   8.064
 1373POPC   C4A22002  41.533  28.198   7.590
 1373POPC   C1B22003  41.456  28.651   8.681
 1373POPC   C2B22004  41.324  28.680   8.278
 1373POPC   C3B22005  41.490  28.609   7.878
 1373POPC   C4B22006  41.415  28.690   7.431
 1374POPC   NC322007  11.561  31.285   9.461
 1374POPC   PO422008  11.078  31.715   9.531
 1374POPC   GL122009  11.140  31.590   9.118
 1374POPC   GL222010  10.964  31.279   9.140
 1374POPC   C1A22011  11.499  31.590   8.821
 1374POPC   D2A22012  11.539  31.730   8.403
 1374POPC   C3A22013  11.673  31.528   8.065
 1374POPC   C4A22014  11.565  31.383   7.691
 1374POPC   C1B22015  11.270  31.122   8.844
 1374POPC   C2B22016  11.398  31.228   8.446
 1374POPC   C3B22017  11.230  31.295   8.076
 1374POPC   C4B22018  11.127  31.089   7.757
 1375POPC   NC322019  16.884   6.764   9.597
 1375POPC   PO422020  16.430   6.391   9.322
 1375POPC   GL122021  16.784   6.434   9.061
 1375POPC   GL222022  16.823   6.780   9.068
 1375POPC   C1A22023  16.959   6.570   8.622
 1375POPC   D2A22024  16.666   6.837   8.351
 1375POPC   C3A22025  16.539   6.738   7.911
 1375POPC   C4A22026  16.773   6.522   7.627
 1375POPC   C1B22027  16.973   7.085   8.739
 1375POPC   C2B22028  17.067   7.139   8.279
 1375POPC   C3B22029  17.025   6.866   7.945
 1375POPC   C4B22030  17.165   6.842   7.514
 1376POPC   NC322031  28.894  28.162   9.571
 1376POPC   PO422032  29.364  28.627   9.583
 1376POPC   GL122033  29.245  28.424   9.177
 1376POPC   GL222034  28.916  28.515   9.162
 1376POPC   C1A22035  29.114  28.466   8.701
 1376POPC   D2A22036  28.864  28.405   8.316
 1376POPC   C3A22037  29.149  28.277   7.961
 1376POPC   C4A22038  29.171  28.370   7.537
 1376POPC   C1B22039  28.700  28.211   8.829
 1376POPC   C2B22040  28.635  27.940   8.435
 1376POPC   C3B22041  28.782  27.925   8.020
 1376POPC   C4B22042  28.977  27.885   7.617
 1377POPC   NC322043  26.295   6.677   9.233
 1377POPC   PO422044  25.931   6.150   9.461
 1377POPC   GL122045  25.965   6.321   9.048
 1377POPC   GL222046  25.820   6.666   9.091
 1377POPC   C1A22047  26.148   6.433   8.604
 1377POPC   D2A22048  26.268   6.768   8.268
 1377POPC   C3A22049  26.296   6.617   7.828
 1377POPC   C4A22050  26.330   6.181   7.778
 1377POPC   C1B22051  25.903   6.860   8.710
 1377POPC   C2B22052  25.742   6.738   8.347
 1377POPC   C3B22053  25.776   6.756   7.936
 1377POPC   C4B22054  25.720   6.596   7.549
 1378POPC   NC322055  27.167  28.170   9.319
 1378POPC   PO422056  26.595  28.597   9.423
 1378POPC   GL122057  26.679  28.248   9.126
 1378POPC   GL222058  26.358  28.136   9.086
 1378POPC   C1A22059  26.847  28.236   8.679
 1378POPC   D2A22060  26.937  28.588   8.354
 1378POPC   C3A22061  27.030  28.543   7.897
 1378POPC   C4A22062  27.060  28.651   7.448
 1378POPC   C1B22063  26.406  27.976   8.697
 1378POPC   C2B22064  26.347  28.224   8.332
 1378POPC   C3B22065  26.536  28.458   8.026
 1378POPC   C4B22066  26.692  28.283   7.609
 1379POPC   NC322067  42.309  32.604   9.415
 1379POPC   PO422068  42.126  33.236   9.604
 1379POPC   GL122069  42.175  33.074   9.186
 1379POPC   GL222070  42.534  32.946   9.116
 1379POPC   C1A22071  42.199  32.971   8.737
 1379POPC   D2A22072  42.452  33.053   8.377
 1379POPC   C3A22073  42.271  33.104   7.969
 1379POPC   C4A22074  42.206  32.919   7.558
 1379POPC   C1B22075  42.714  32.760   8.721
 1379POPC   C2B22076  42.709  32.602   8.281
 1379POPC   C3B22077  42.591  32.699   7.839
 1379POPC   C4B22078  42.693  32.729   7.381
 1380POPC   NC322079  11.892  43.572   9.512
 1380POPC   PO422080  12.172  43.033   9.501
 1380POPC   GL122081  12.038  43.241   9.130
 1380POPC   GL222082  11.700  43.134   9.028
 1380POPC   C1A22083  12.206  43.145   8.713
 1380POPC   D2A22084  12.032  43.028   8.315
 1380POPC   C3A22085  12.278  43.097   7.935
 1380POPC   C4A22086  12.362  43.345   7.561
 1380POPC   C1B22087  11.510  42.918   8.644
 1380POPC   C2B22088  11.585  42.823   8.188
 1380POPC   C3B22089  11.775  42.925   7.765
 1380POPC   C4B22090  11.724  42.689   7.343
 1381POPC   NC322091  33.956   2.093   9.452
 1381POPC   PO422092  33.362   1.676   9.496
 1381POPC   GL122093  33.628   1.799   9.159
 1381POPC   GL222094  33.647   2.171   9.070
 1381POPC   C1A22095  33.892   1.847   8.790
 1381POPC   D2A22096  34.088   2.042   8.456
 1381POPC   C3A22097  33.893   1.957   8.085
 1381POPC   C4A22098  34.036   1.948   7.646
 1381POPC   C1B22099  33.823   2.410   8.703
 1381POPC   C2B22100  34.100   2.551   8.369
 1381POPC   C3B22101  34.182   2.382   7.948
 1381POPC   C4B22102  34.072   2.436   7.486
 1382POPC   NC322103  15.136   7.775   9.645
 1382POPC   PO422104  15.516   7.241   9.628
 1382POPC   GL122105  15.375   7.525   9.271
 1382POPC   GL222106  15.086   7.311   9.162
 1382POPC   C1A22107  15.384   7.625   8.815
 1382POPC   D2A22108  15.230   7.332   8.505
 1382POPC   C3A22109  15.469   7.349   8.170
 1382POPC   C4A22110  15.461   7.488   7.784
 1382POPC   C1B22111  14.915   7.686   8.947
 1382POPC   C2B22112  14.888   7.708   8.514
 1382POPC   C3B22113  15.004   7.585   8.093
 1382POPC   C4B22114  15.032   7.770   7.682
 1383POPC   NC322115  15.048  19.090   9.604
 1383POPC   PO422116  15.260  18.617   9.222
 1383POPC   GL122117  15.076  19.013   9.094
 1383POPC   GL222118  15.402  19.169   9.171
 1383POPC   C1A22119  14.930  19.048   8.673
 1383POPC   D2A22120  15.141  18.778   8.372
 1383POPC   C3A22121  15.068  18.918   7.973
 1383POPC   C4A22122  14.799  19.234   7.981
 1383POPC   C1B22123  15.434  19.146   8.699
 1383POPC   C2B22124  15.263  19.308   8.283
 1383POPC   C3B22125  15.436  19.318   7.857
 1383POPC   C4B22126  15.562  19.268   7.430
 1384POPC   NC322127  26.173  28.352   9.494
 1384POPC   PO422128  25.491  28.117   9.410
 1384POPC   GL122129  25.831  28.177   9.133
 1384POPC   GL222130  25.915  28.539   9.106
 1384POPC   C1A22131  25.996  28.268   8.714
 1384POPC   D2A22132  25.956  28.584   8.404
 1384POPC   C3A22133  25.925  28.375   8.037
 1384POPC   C4A22134  26.188  28.413   7.672
 1384POPC   C1B22135  25.611  28.612   8.808
 1384POPC   C2B22136  25.471  28.781   8.414
 1384POPC   C3B22137  25.646  28.814   8.019
 1384POPC   C4B22138  25.728  28.610   7.635
 1385POPC   NC322139  20.017  23.290   9.527
 1385POPC   PO422140  19.951  22.651   9.648
 1385POPC   GL122141  19.889  22.681   9.199
 1385POPC   GL222142  20.106  22.926   9.170
 1385POPC   C1A22143  19.792  22.801   8.730
 1385POPC   D2A22144  19.641  22.712   8.283
 1385POPC   C3A22145  19.810  22.817   7.866
 1385POPC   C4A22146  19.621  22.996   7.481
 1385POPC   C1B22147  20.217  23.086   8.764
 1385POPC   C2B22148  20.147  22.942   8.343
 1385POPC   C3B22149  20.227  23.116   7.955
 1385POPC   C4B22150  20.126  23.111   7.562
 1386POPC   NC322151  18.855   0.308   9.399
 1386POPC   PO422152  18.216   0.246   9.635
 1386POPC   GL122153  18.283   0.478   9.250
 1386POPC   GL222154  17.993   0.727   9.267
 1386POPC   C1A22155  18.378   0.580   8.814
 1386POPC   D2A22156  18.103   0.558   8.451
 1386POPC   C3A22157  18.258   0.482   8.047
 1386POPC   C4A22158  18.490   0.790   7.807
 1386POPC   C1B22159  17.966   0.899   8.836
 1386POPC   C2B22160  17.840   1.079   8.440
 1386POPC   C3B22161  17.849   0.817   8.056
 1386POPC   C4B22162  17.872   0.542   7.684
 1387POPC   NC322163   3.213  36.597   9.506
 1387POPC   PO422164   3.509  36.015   9.464
 1387POPC   GL122165   3.547  36.178   9.082
 1387POPC   GL222166   3.471  36.514   9.061
 1387POPC   C1A22167   3.628  35.950   8.742
 1387POPC   D2A22168   3.423  36.029   8.368
 1387POPC   C3A22169   3.558  35.948   7.987
 1387POPC   C4A22170   3.890  35.943   7.695
 1387POPC   C1B22171   3.385  36.575   8.607
 1387POPC   C2B22172   3.423  36.488   8.162
 1387POPC   C3B22173   3.674  36.387   7.777
 1387POPC   C4B22174   3.537  36.247   7.332
 1388POPC   NC322175  12.057  41.256   9.757
 1388POPC   PO422176  12.243  41.750   9.387
 1388POPC   GL122177  12.004  41.574   9.048
 1388POPC   GL222178  12.077  41.236   9.034
 1388POPC   C1A22179  11.985  41.544   8.592
 1388POPC   D2A22180  12.291  41.664   8.308
 1388POPC   C3A22181  12.273  41.616   7.876
 1388POPC   C4A22182  12.405  41.991   7.620
 1388POPC   C1B22183  11.685  41.177   8.767
 1388POPC   C2B22184  11.456  41.266   8.398
 1388POPC   C3B22185  11.632  41.226   8.027
 1388POPC   C4B22186  11.827  41.400   7.690
 1389POPC   NC322187   8.263  11.705   9.584
 1389POPC   PO422188   8.126  11.053   9.746
 1389POPC   GL122189   8.181  11.192   9.279
 1389POPC   GL222190   8.480  11.397   9.213
 1389POPC   C1A22191   8.096  11.394   8.843
 1389POPC   D2A22192   8.180  11.290   8.437
 1389POPC   C3A22193   7.984  11.427   8.087
 1389POPC   C4A22194   7.895  11.207   7.755
 1389POPC   C1B22195   8.617  11.335   8.774
 1389POPC   C2B22196   8.615  11.055   8.408
 1389POPC   C3B22197   8.373  11.042   8.027
 1389POPC   C4B22198   8.358  11.416   7.736
 1390POPC   NC322199  31.921  34.043   9.407
 1390POPC   PO422200  31.281  33.728   9.399
 1390POPC   GL122201  31.471  34.014   9.127
 1390POPC   GL222202  31.777  33.799   8.987
 1390POPC   C1A22203  31.584  34.171   8.729
 1390POPC   D2A22204  31.885  33.993   8.473
 1390POPC   C3A22205  31.631  33.938   8.105
 1390POPC   C4A22206  31.300  33.791   7.877
 1390POPC   C1B22207  31.539  33.616   8.635
 1390POPC   C2B22208  31.667  33.424   8.230
 1390POPC   C3B22209  31.724  33.520   7.775
 1390POPC   C4B22210  31.822  33.549   7.328
 1391POPC   NC322211  31.689  15.931   9.529
 1391POPC   PO422212  30.981  15.792   9.442
 1391POPC   GL122213  31.249  16.030   9.195
 1391POPC   GL222214  31.420  15.745   9.150
 1391POPC   C1A22215  31.539  16.174   8.843
 1391POPC   D2A22216  31.668  16.341   8.419
 1391POPC   C3A22217  31.561  16.146   8.027
 1391POPC   C4A22218  31.369  16.153   7.640
 1391POPC   C1B22219  31.420  15.612   8.760
 1391POPC   C2B22220  31.603  15.782   8.400
 1391POPC   C3B22221  31.494  15.611   8.002
 1391POPC   C4B22222  31.512  15.666   7.580
 1392POPC   NC322223  43.269  17.076   9.521
 1392POPC   PO422224  42.794  16.739   9.614
 1392POPC   GL122225  42.866  16.854   9.216
 1392POPC   GL222226  42.737  17.142   9.060
 1392POPC   C1A22227  42.951  16.726   8.812
 1392POPC   D2A22228  42.851  16.946   8.420
 1392POPC   C3A22229  42.908  16.650   8.140
 1392POPC   C4A22230  42.947  16.688   7.730
 1392POPC   C1B22231  43.091  17.217   8.768
 1392POPC   C2B22232  43.359  17.171   8.418
 1392POPC   C3B22233  43.221  17.076   8.003
 1392POPC   C4B22234  43.178  17.099   7.561
 1393POPC   NC322235  43.015  44.400   9.850
 1393POPC   PO422236  42.858   0.011   9.485
 1393POPC   GL122237  43.098  44.825   9.148
 1393POPC   GL222238  42.883  44.593   8.977
 1393POPC   C1A22239  43.388  44.496   8.925
 1393POPC   D2A22240  43.563  44.471   8.476
 1393POPC   C3A22241  43.374  44.387   8.046
 1393POPC   C4A22242  43.068  44.442   7.682
 1393POPC   C1B22243  43.005  44.844   8.638
 1393POPC   C2B22244  43.276  44.880   8.277
 1393POPC   C3B22245  43.210  44.912   7.841
 1393POPC   C4B22246  42.899   0.157   7.618
 1394POPC   NC322247  11.592   4.122   9.441
 1394POPC   PO422248  11.155   4.581   9.601
 1394POPC   GL122249  11.181   4.499   9.179
 1394POPC   GL222250  11.441   4.711   9.109
 1394POPC   C1A22251  11.287   4.259   8.798
 1394POPC   D2A22252  11.538   4.197   8.439
 1394POPC   C3A22253  11.273   4.226   8.120
 1394POPC   C4A22254  11.300   4.284   7.736
 1394POPC   C1B22255  11.200   4.770   8.712
 1394POPC   C2B22256  11.206   4.706   8.248
 1394POPC   C3B22257  11.054   4.769   7.803
 1394POPC   C4B22258  10.746   4.834   7.451
 1395POPC   NC322259  13.460  30.002   9.350
 1395POPC   PO422260  13.916  29.579   9.546
 1395POPC   GL122261  13.828  29.777   9.101
 1395POPC   GL222262  13.458  29.757   8.885
 1395POPC   C1A22263  13.841  29.980   8.684
 1395POPC   D2A22264  13.595  29.780   8.336
 1395POPC   C3A22265  13.752  29.847   7.907
 1395POPC   C4A22266  13.495  29.810   7.549
 1395POPC   C1B22267  13.341  30.163   8.704
 1395POPC   C2B22268  13.441  30.286   8.288
 1395POPC   C3B22269  13.296  30.073   7.944
 1395POPC   C4B22270  13.188  30.237   7.578
 1396POPC   NC322271  18.868  40.908   9.715
 1396POPC   PO422272  19.349  40.635   9.683
 1396POPC   GL122273  19.286  40.724   9.235
 1396POPC   GL222274  18.958  40.895   9.188
 1396POPC   C1A22275  19.230  40.748   8.761
 1396POPC   D2A22276  18.872  40.704   8.481
 1396POPC   C3A22277  18.871  40.920   8.107
 1396POPC   C4A22278  19.249  41.021   7.828
 1396POPC   C1B22279  18.901  41.144   8.780
 1396POPC   C2B22280  19.079  41.295   8.364
 1396POPC   C3B22281  18.901  41.383   7.920
 1396POPC   C4B22282  18.590  41.083   7.712
 1397POPC   NC322283   5.712   0.800   9.507
 1397POPC   PO422284   5.289   0.245   9.362
 1397POPC   GL122285   5.734   0.335   9.218
 1397POPC   GL222286   5.838   0.669   9.045
 1397POPC   C1A22287   5.943   0.232   8.827
 1397POPC   D2A22288   5.739   0.277   8.424
 1397POPC   C3A22289   5.957   0.206   8.054
 1397POPC   C4A22290   5.861   0.156   7.605
 1397POPC   C1B22291   5.811   0.744   8.609
 1397POPC   C2B22292   6.047   0.692   8.211
 1397POPC   C3B22293   5.804   0.624   7.818
 1397POPC   C4B22294   5.732   0.676   7.389
 1398POPC   NC322295  35.710  15.655   9.586
 1398POPC   PO422296  36.010  16.302   9.536
 1398POPC   GL122297  36.028  15.966   9.240
 1398POPC   GL222298  35.722  16.104   9.150
 1398POPC   C1A22299  36.336  15.899   8.885
 1398POPC   D2A22300  36.347  15.972   8.428
 1398POPC   C3A22301  36.420  15.586   8.156
 1398POPC   C4A22302  36.629  15.677   7.767
 1398POPC   C1B22303  35.959  16.228   8.790
 1398POPC   C2B22304  35.958  16.367   8.423
 1398POPC   C3B22305  35.895  16.186   8.078
 1398POPC   C4B22306  36.165  15.911   7.847
 1399POPC   NC322307   6.617  20.313   9.402
 1399POPC   PO422308   6.950  20.935   9.490
 1399POPC   GL122309   6.869  20.688   9.139
 1399POPC   GL222310   6.511  20.752   9.132
 1399POPC   C1A22311   6.745  20.444   8.789
 1399POPC   D2A22312   6.589  20.516   8.436
 1399POPC   C3A22313   6.867  20.419   8.119
 1399POPC   C4A22314   6.804  20.594   7.720
 1399POPC   C1B22315   6.329  20.916   8.743
 1399POPC   C2B22316   6.377  20.962   8.301
 1399POPC   C3B22317   6.364  20.656   7.983
 1399POPC   C4B22318   6.096  20.413   7.727
 1400POPC   NC322319  14.923  23.019   9.647
 1400POPC   PO422320  15.609  22.835   9.512
 1400POPC   GL122321  15.247  22.947   9.245
 1400POPC   GL222322  15.466  22.851   8.997
 1400POPC   C1A22323  15.089  23.102   8.816
 1400POPC   D2A22324  15.262  23.091   8.374
 1400POPC   C3A22325  15.007  23.249   8.023
 1400POPC   C4A22326  14.774  23.009   7.707
 1400POPC   C1B22327  15.154  22.600   8.789
 1400POPC   C2B22328  14.970  22.655   8.399
 1400POPC   C3B22329  15.085  22.663   7.960
 1400POPC   C4B22330  15.392  22.386   7.750
 1401POPC   NC322331  43.956   0.061   9.599
 1401POPC   PO422332  43.950  44.456   9.656
 1401POPC   GL122333  43.868  44.686   9.256
 1401POPC   GL222334  43.604  44.965   9.225
 1401POPC   C1A22335  43.898  44.640   8.818
 1401POPC   D2A22336  44.070  44.572   8.410
 1401POPC   C3A22337  43.845  44.631   8.028
 1401POPC   C4A22338  44.110  44.648   7.665
 1401POPC   C1B22339  43.502  44.949   8.774
 1401POPC   C2B22340  43.751  44.986   8.410
 1401POPC   C3B22341  43.758   0.140   7.980
 1401POPC   C4B22342  43.673  44.943   7.631
 1402POPC   NC322343   6.641   0.894   9.398
 1402POPC   PO422344   6.534   1.577   9.407
 1402POPC   GL122345   6.403   1.278   9.137
 1402POPC   GL222346   6.040   1.156   9.161
 1402POPC   C1A22347   6.663   1.277   8.771
 1402POPC   D2A22348   6.743   1.498   8.382
 1402POPC   C3A22349   6.876   1.289   8.002
 1402POPC   C4A22350   6.717   1.026   7.707
 1402POPC   C1B22351   6.260   0.916   8.803
 1402POPC   C2B22352   6.466   0.986   8.410
 1402POPC   C3B22353   6.370   1.172   8.057
 1402POPC   C4B22354   6.170   0.946   7.746
 1403POPC   NC322355  22.381   4.919   9.521
 1403POPC   PO422356  22.554   5.539   9.428
 1403POPC   GL122357  22.343   5.301   9.086
 1403POPC   GL222358  22.069   5.040   9.148
 1403POPC   C1A22359  22.188   5.143   8.661
 1403POPC   D2A22360  21.849   5.206   8.330
 1403POPC   C3A22361  22.043   5.285   7.945
 1403POPC   C4A22362  22.443   5.107   7.835
 1403POPC   C1B22363  21.785   4.894   8.836
 1403POPC   C2B22364  21.927   4.712   8.440
 1403POPC   C3B22365  22.112   4.783   8.051
 1403POPC   C4B22366  21.957   4.735   7.622
 1404POPC   NC322367  13.386  25.897   9.464
 1404POPC   PO422368  13.904  26.268   9.640
 1404POPC   GL122369  13.782  26.174   9.222
 1404POPC   GL222370  13.976  25.941   9.039
 1404POPC   C1A22371  13.553  26.143   8.823
 1404POPC   D2A22372  13.306  26.006   8.476
 1404POPC   C3A22373  13.426  26.204   8.090
 1404POPC   C4A22374  13.332  25.917   7.755
 1404POPC   C1B22375  14.076  26.200   8.695
 1404POPC   C2B22376  13.832  26.039   8.370
 1404POPC   C3B22377  13.842  25.968   7.924
 1404POPC   C4B22378  13.683  26.283   7.639
 1405POPC   NC322379   6.611  42.884   9.485
 1405POPC   PO422380   6.249  43.501   9.668
 1405POPC   GL122381   6.403  43.333   9.236
 1405POPC   GL222382   6.363  42.974   9.052
 1405POPC   C1A22383   6.458  43.415   8.792
 1405POPC   D2A22384   6.594  43.563   8.416
 1405POPC   C3A22385   6.472  43.250   8.151
 1405POPC   C4A22386   6.696  43.085   7.819
 1405POPC   C1B22387   6.786  43.005   8.834
 1405POPC   C2B22388   6.922  43.083   8.401
 1405POPC   C3B22389   6.966  42.769   8.080
 1405POPC   C4B22390   7.151  42.836   7.685
 1406POPC   NC322391   4.017  34.148   9.439
 1406POPC   PO422392   4.163  34.866   9.452
 1406POPC   GL122393   4.255  34.547   9.128
 1406POPC   GL222394   4.452  34.230   9.105
 1406POPC   C1A22395   4.441  34.563   8.716
 1406POPC   D2A22396   4.455  34.899   8.425
 1406POPC   C3A22397   4.261  34.758   8.060
 1406POPC   C4A22398   4.498  34.613   7.736
 1406POPC   C1B22399   4.114  34.159   8.798
 1406POPC   C2B22400   4.065  34.352   8.395
 1406POPC   C3B22401   3.996  34.121   8.018
 1406POPC   C4B22402   4.088  34.317   7.635
 1407POPC   NC322403  15.216  34.368   9.494
 1407POPC   PO422404  15.361  35.057   9.377
 1407POPC   GL122405  15.150  34.691   9.127
 1407POPC   GL222406  15.442  34.409   9.028
 1407POPC   C1A22407  15.069  34.428   8.727
 1407POPC   D2A22408  15.197  34.631   8.370
 1407POPC   C3A22409  15.205  34.418   8.024
 1407POPC   C4A22410  14.977  34.275   7.703
 1407POPC   C1B22411  15.461  34.831   8.770
 1407POPC   C2B22412  15.451  35.102   8.419
 1407POPC   C3B22413  15.528  34.871   8.048
 1407POPC   C4B22414  15.415  34.712   7.656
 1408POPC   NC322415  37.381  37.108   9.323
 1408POPC   PO422416  37.918  36.768   9.426
 1408POPC   GL122417  37.705  36.785   9.098
 1408POPC   GL222418  37.431  36.568   9.128
 1408POPC   C1A22419  37.744  36.992   8.715
 1408POPC   D2A22420  37.582  37.190   8.370
 1408POPC   C3A22421  37.888  37.108   8.070
 1408POPC   C4A22422  37.758  36.964   7.691
 1408POPC   C1B22423  37.675  36.483   8.713
 1408POPC   C2B22424  37.654  36.687   8.295
 1408POPC   C3B22425  37.652  36.502   7.890
 1408POPC   C4B22426  37.509  36.573   7.458
 1409POPC   NC322427   0.705  20.119   9.552
 1409POPC   PO422428   0.294  20.823   9.472
 1409POPC   GL122429   0.428  20.667   9.097
 1409POPC   GL222430   0.478  20.320   9.141
 1409POPC   C1A22431   0.402  20.535   8.667
 1409POPC   D2A22432   0.579  20.778   8.315
 1409POPC   C3A22433   0.423  20.728   7.894
 1409POPC   C4A22434   0.505  20.760   7.457
 1409POPC   C1B22435   0.782  20.195   8.854
 1409POPC   C2B22436   0.835  20.336   8.443
 1409POPC   C3B22437   0.613  20.287   8.044
 1409POPC   C4B22438   0.778  20.395   7.651
 1410POPC   NC322439  39.900  29.657   9.476
 1410POPC   PO422440  40.294  30.036   9.763
 1410POPC   GL122441  40.091  30.143   9.297
 1410POPC   GL222442  39.773  30.031   9.145
 1410POPC   C1A22443  40.149  30.112   8.788
 1410POPC   D2A22444  40.060  30.291   8.349
 1410POPC   C3A22445  39.921  30.173   7.926
 1410POPC   C4A22446  40.224  30.118   7.617
 1410POPC   C1B22447  39.817  29.746   8.825
 1410POPC   C2B22448  39.740  29.868   8.410
 1410POPC   C3B22449  39.744  29.689   8.035
 1410POPC   C4B22450  39.926  29.708   7.682
 1411POPC   NC322451   1.503   7.023   9.322
 1411POPC   PO422452   1.218   7.662   9.416
 1411POPC   GL122453   1.041   7.591   9.069
 1411POPC   GL222454   1.323   7.380   8.955
 1411POPC   C1A22455   1.150   7.784   8.701
 1411POPC   D2A22456   1.396   7.574   8.439
 1411POPC   C3A22457   1.215   7.596   8.086
 1411POPC   C4A22458   1.379   7.528   7.704
 1411POPC   C1B22459   1.394   7.086   8.606
 1411POPC   C2B22460   1.363   7.107   8.169
 1411POPC   C3B22461   1.092   7.112   7.832
 1411POPC   C4B22462   0.693   7.033   7.644
 1412POPC   NC322463   9.335   7.196   9.573
 1412POPC   PO422464   9.952   7.538   9.583
 1412POPC   GL122465   9.773   7.312   9.238
 1412POPC   GL222466  10.116   7.209   9.172
 1412POPC   C1A22467   9.629   7.260   8.776
 1412POPC   D2A22468   9.842   7.118   8.407
 1412POPC   C3A22469   9.680   7.230   7.993
 1412POPC   C4A22470   9.779   7.438   7.593
 1412POPC   C1B22471  10.070   7.465   8.830
 1412POPC   C2B22472  10.160   7.510   8.409
 1412POPC   C3B22473  10.048   7.600   7.997
 1412POPC   C4B22474  10.232   7.911   7.737
 1413POPC   NC322475  39.182  40.411   9.304
 1413POPC   PO422476  39.018  40.930   9.672
 1413POPC   GL122477  39.029  40.897   9.201
 1413POPC   GL222478  39.353  40.880   9.080
 1413POPC   C1A22479  39.056  40.725   8.731
 1413POPC   D2A22480  39.304  40.730   8.347
 1413POPC   C3A22481  39.070  40.636   7.982
 1413POPC   C4A22482  38.886  40.833   7.632
 1413POPC   C1B22483  39.549  40.535   8.796
 1413POPC   C2B22484  39.576  40.303   8.418
 1413POPC   C3B22485  39.754  40.393   8.045
 1413POPC   C4B22486  39.546  40.668   7.789
 1414POPC   NC322487   9.925  38.255   9.705
 1414POPC   PO422488   9.459  38.624   9.571
 1414POPC   GL122489   9.679  38.555   9.208
 1414POPC   GL222490  10.021  38.593   9.218
 1414POPC   C1A22491   9.789  38.424   8.795
 1414POPC   D2A22492   9.747  38.733   8.489
 1414POPC   C3A22493   9.904  38.707   8.077
 1414POPC   C4A22494   9.783  38.431   7.711
 1414POPC   C1B22495  10.257  38.588   8.831
 1414POPC   C2B22496  10.180  38.432   8.433
 1414POPC   C3B22497  10.141  38.272   8.036
 1414POPC   C4B22498  10.293  38.376   7.639
 1415POPC   NC322499  34.729  35.689   9.598
 1415POPC   PO422500  34.944  35.065   9.444
 1415POPC   GL122501  34.674  35.196   9.117
 1415POPC   GL222502  34.723  35.514   9.128
 1415POPC   C1A22503  34.599  35.135   8.681
 1415POPC   D2A22504  34.742  34.879   8.302
 1415POPC   C3A22505  34.628  35.113   7.904
 1415POPC   C4A22506  34.360  35.471   7.648
 1415POPC   C1B22507  34.882  35.566   8.721
 1415POPC   C2B22508  34.648  35.520   8.333
 1415POPC   C3B22509  34.766  35.581   7.921
 1415POPC   C4B22510  35.163  35.496   7.758
 1416POPC   NC322511  31.158   1.695   9.452
 1416POPC   PO422512  30.740   2.255   9.456
 1416POPC   GL122513  30.884   2.010   9.119
 1416POPC   GL222514  30.549   1.971   8.982
 1416POPC   C1A22515  30.947   1.776   8.741
 1416POPC   D2A22516  30.718   1.588   8.420
 1416POPC   C3A22517  30.910   1.760   8.044
 1416POPC   C4A22518  30.678   1.908   7.684
 1416POPC   C1B22519  30.337   2.257   8.701
 1416POPC   C2B22520  30.362   2.376   8.286
 1416POPC   C3B22521  30.307   2.208   7.880
 1416POPC   C4B22522  30.234   2.158   7.453
 1417POPC   NC322523  42.678   9.891   9.420
 1417POPC   PO422524  43.260   9.565   9.428
 1417POPC   GL122525  43.095   9.735   9.067
 1417POPC   GL222526  43.031  10.070   9.110
 1417POPC   C1A22527  43.292   9.872   8.709
 1417POPC   D2A22528  43.306   9.640   8.363
 1417POPC   C3A22529  43.367   9.839   7.984
 1417POPC   C4A22530  43.114   9.638   7.675
 1417POPC   C1B22531  42.722  10.072   8.770
 1417POPC   C2B22532  42.893   9.938   8.404
 1417POPC   C3B22533  42.886  10.001   7.996
 1417POPC   C4B22534  42.735  10.341   7.855
 1418POPC   NC322535  13.079  38.333   9.712
 1418POPC   PO422536  12.544  38.433   9.293
 1418POPC   GL122537  12.750  38.153   9.028
 1418POPC   GL222538  13.091  38.066   9.187
 1418POPC   C1A22539  12.695  38.379   8.616
 1418POPC   D2A22540  12.343  38.253   8.385
 1418POPC   C3A22541  12.450  38.160   7.973
 1418POPC   C4A22542  12.856  38.302   7.851
 1418POPC   C1B22543  13.173  38.136   8.724
 1418POPC   C2B22544  13.168  38.297   8.276
 1418POPC   C3B22545  13.325  38.098   7.875
 1418POPC   C4B22546  13.061  37.974   7.497
 1419POPC   NC322547   8.447  19.515   9.418
 1419POPC   PO422548   8.440  20.177   9.373
 1419POPC   GL122549   8.195  19.905   9.084
 1419POPC   GL222550   8.043  19.558   9.122
 1419POPC   C1A22551   8.152  19.935   8.644
 1419POPC   D2A22552   8.321  20.000   8.245
 1419POPC   C3A22553   8.165  20.043   7.796
 1419POPC   C4A22554   8.156  20.298   7.368
 1419POPC   C1B22555   7.826  19.538   8.707
 1419POPC   C2B22556   7.724  19.375   8.261
 1419POPC   C3B22557   7.959  19.391   7.864
 1419POPC   C4B22558   8.292  19.509   7.586
 1420POPC   NC322559  10.187  21.303   9.372
 1420POPC   PO422560  10.629  21.745   9.714
 1420POPC   GL122561  10.579  21.663   9.222
 1420POPC   GL222562  10.564  21.328   9.025
 1420POPC   C1A22563  10.786  21.711   8.772
 1420POPC   D2A22564  10.806  21.789   8.317
 1420POPC   C3A22565  10.747  21.459   8.006
 1420POPC   C4A22566  10.380  21.587   7.728
 1420POPC   C1B22567  10.534  21.340   8.558
 1420POPC   C2B22568  10.266  21.376   8.203
 1420POPC   C3B22569  10.392  21.108   7.878
 1420POPC   C4B22570  10.545  21.163   7.433
 1421POPC   NC322571  29.026   7.771   9.322
 1421POPC   PO422572  29.207   7.170   9.469
 1421POPC   GL122573  29.427   7.150   9.069
 1421POPC   GL222574  29.163   7.382   8.999
 1421POPC   C1A22575  29.340   7.125   8.603
 1421POPC   D2A22576  29.411   7.420   8.267
 1421POPC   C3A22577  29.194   7.433   7.892
 1421POPC   C4A22578  29.407   7.367   7.515
 1421POPC   C1B22579  29.140   7.618   8.641
 1421POPC   C2B22580  28.986   7.787   8.261
 1421POPC   C3B22581  28.922   7.862   7.820
 1421POPC   C4B22582  28.996   7.646   7.445
 1422POPC   NC322583  38.005  28.605   9.834
 1422POPC   PO422584  37.537  29.033   9.501
 1422POPC   GL122585  37.781  29.127   9.146
 1422POPC   GL222586  38.026  29.379   9.257
 1422POPC   C1A22587  37.869  28.932   8.723
 1422POPC   D2A22588  37.757  29.151   8.343
 1422POPC   C3A22589  37.710  29.032   7.924
 1422POPC   C4A22590  37.591  28.945   7.473
 1422POPC   C1B22591  38.180  29.315   8.865
 1422POPC   C2B22592  38.282  29.243   8.455
 1422POPC   C3B22593  38.138  29.297   8.033
 1422POPC   C4B22594  38.098  29.451   7.645
 1423POPC   NC322595  20.586  39.336   9.684
 1423POPC   PO422596  20.343  38.856   9.499
 1423POPC   GL122597  20.494  39.000   9.111
 1423POPC   GL222598  20.741  39.265   9.159
 1423POPC   C1A22599  20.596  38.815   8.722
 1423POPC   D2A22600  20.895  38.910   8.428
 1423POPC   C3A22601  20.775  39.141   8.106
 1423POPC   C4A22602  20.722  39.140   7.684
 1423POPC   C1B22603  20.723  39.319   8.699
 1423POPC   C2B22604  20.502  39.496   8.322
 1423POPC   C3B22605  20.590  39.589   7.868
 1423POPC   C4B22606  20.807  39.574   7.436
 1424POPC   NC322607  39.397  14.278   9.486
 1424POPC   PO422608  38.821  14.591   9.460
 1424POPC   GL122609  39.017  14.432   9.118
 1424POPC   GL222610  38.903  14.746   8.972
 1424POPC   C1A22611  39.248  14.159   8.807
 1424POPC   D2A22612  39.472  14.281   8.431
 1424POPC   C3A22613  39.297  14.230   8.038
 1424POPC   C4A22614  39.376  14.381   7.653
 1424POPC   C1B22615  38.933  14.542   8.626
 1424POPC   C2B22616  39.116  14.657   8.276
 1424POPC   C3B22617  39.056  14.724   7.864
 1424POPC   C4B22618  38.899  14.567   7.497
 1425POPC   NC322619  33.944  33.468   9.536
 1425POPC   PO422620  33.506  33.886   9.413
 1425POPC   GL122621  33.685  33.616   9.085
 1425POPC   GL222622  34.067  33.656   9.081
 1425POPC   C1A22623  33.853  33.643   8.630
 1425POPC   D2A22624  33.850  33.985   8.348
 1425POPC   C3A22625  33.794  33.846   7.908
 1425POPC   C4A22626  33.558  33.871   7.528
 1425POPC   C1B22627  34.238  33.979   8.762
 1425POPC   C2B22628  34.369  33.916   8.324
 1425POPC   C3B22629  34.153  33.577   8.139
 1425POPC   C4B22630  34.069  33.480   7.685
 1426POPC   NC322631  30.911  14.344   9.480
 1426POPC   PO422632  31.331  14.856   9.412
 1426POPC   GL122633  30.984  14.719   9.110
 1426POPC   GL222634  30.633  14.516   9.087
 1426POPC   C1A22635  31.033  14.399   8.771
 1426POPC   D2A22636  31.166  14.478   8.335
 1426POPC   C3A22637  30.920  14.270   8.006
 1426POPC   C4A22638  30.846  14.411   7.636
 1426POPC   C1B22639  30.547  14.302   8.670
 1426POPC   C2B22640  30.343  14.289   8.255
 1426POPC   C3B22641  30.400  14.511   7.864
 1426POPC   C4B22642  30.428  14.806   7.507
 1427POPC   NC322643  38.925  29.435   9.454
 1427POPC   PO422644  39.312  28.883   9.525
 1427POPC   GL122645  39.335  29.185   9.188
 1427POPC   GL222646  39.104  29.089   8.956
 1427POPC   C1A22647  39.470  29.377   8.773
 1427POPC   D2A22648  39.303  29.198   8.381
 1427POPC   C3A22649  39.311  29.412   7.953
 1427POPC   C4A22650  39.101  29.435   7.497
 1427POPC   C1B22651  39.441  28.862   8.768
 1427POPC   C2B22652  39.573  28.761   8.375
 1427POPC   C3B22653  39.411  28.904   7.986
 1427POPC   C4B22654  39.010  29.055   7.799
 1428POPC   NC322655  27.344  31.782   9.452
 1428POPC   PO422656  27.746  31.228   9.530
 1428POPC   GL122657  27.590  31.425   9.171
 1428POPC   GL222658  27.762  31.706   9.109
 1428POPC   C1A22659  27.364  31.570   8.792
 1428POPC   D2A22660  27.095  31.470   8.442
 1428POPC   C3A22661  27.257  31.510   8.030
 1428POPC   C4A22662  27.444  31.351   7.597
 1428POPC   C1B22663  27.902  31.587   8.726
 1428POPC   C2B22664  27.664  31.520   8.374
 1428POPC   C3B22665  27.751  31.384   7.993
 1428POPC   C4B22666  27.913  31.628   7.672
 1429POPC   NC322667  14.110  25.839   9.514
 1429POPC   PO422668  14.591  26.311   9.652
 1429POPC   GL122669  14.484  26.052   9.260
 1429POPC   GL222670  14.277  26.318   9.200
 1429POPC   C1A22671  14.458  25.851   8.821
 1429POPC   D2A22672  14.299  25.830   8.369
 1429POPC   C3A22673  14.590  25.921   8.011
 1429POPC   C4A22674  14.765  25.757   7.624
 1429POPC   C1B22675  14.568  26.349   8.867
 1429POPC   C2B22676  14.574  26.268   8.435
 1429POPC   C3B22677  14.226  26.263   8.117
 1429POPC   C4B22678  14.233  26.281   7.679
 1430POPC   NC322679  26.449   0.881   9.467
 1430POPC   PO422680  25.758   1.001   9.449
 1430POPC   GL122681  26.066   1.195   9.181
 1430POPC   GL222682  26.316   0.998   9.008
 1430POPC   C1A22683  26.176   1.451   8.825
 1430POPC   D2A22684  25.991   1.349   8.431
 1430POPC   C3A22685  26.210   1.304   8.077
 1430POPC   C4A22686  26.057   1.311   7.708
 1430POPC   C1B22687  26.472   1.108   8.647
 1430POPC   C2B22688  26.234   0.890   8.360
 1430POPC   C3B22689  26.265   0.811   7.935
 1430POPC   C4B22690  26.509   1.112   7.698
 1431POPC   NC322691  41.716  16.600   9.734
 1431POPC   PO422692  41.540  15.874   9.705
 1431POPC   GL122693  41.601  15.835   9.238
 1431POPC   GL222694  41.846  15.564   9.176
 1431POPC   C1A22695  41.542  16.027   8.822
 1431POPC   D2A22696  41.346  15.935   8.422
 1431POPC   C3A22697  41.593  16.064   8.084
 1431POPC   C4A22698  41.596  16.274   7.693
 1431POPC   C1B22699  41.509  15.498   8.856
 1431POPC   C2B22700  41.411  15.407   8.422
 1431POPC   C3B22701  41.540  15.549   8.034
 1431POPC   C4B22702  41.473  15.769   7.668
 1432POPC   NC322703  39.109  31.700   9.779
 1432POPC   PO422704  38.531  31.366   9.573
 1432POPC   GL122705  38.494  31.571   9.216
 1432POPC   GL222706  38.531  31.301   8.960
 1432POPC   C1A22707  38.244  31.708   8.899
 1432POPC   D2A22708  38.284  31.458   8.528
 1432POPC   C3A22709  38.357  31.656   8.131
 1432POPC   C4A22710  38.112  31.565   7.764
 1432POPC   C1B22711  38.747  31.637   8.679
 1432POPC   C2B22712  38.911  31.710   8.233
 1432POPC   C3B22713  38.781  31.606   7.810
 1432POPC   C4B22714  38.502  31.257   7.768
 1433POPC   NC322715  19.127  35.740   9.447
 1433POPC   PO422716  18.861  35.154   9.661
 1433POPC   GL122717  18.904  35.265   9.204
 1433POPC   GL222718  19.219  35.343   9.080
 1433POPC   C1A22719  18.862  35.186   8.731
 1433POPC   D2A22720  18.719  34.921   8.368
 1433POPC   C3A22721  18.764  35.159   7.996
 1433POPC   C4A22722  18.984  35.490   7.782
 1433POPC   C1B22723  19.293  35.516   8.674
 1433POPC   C2B22724  19.137  35.621   8.263
 1433POPC   C3B22725  19.400  35.778   7.920
 1433POPC   C4B22726  19.354  35.697   7.472
 1434POPC   NC322727  17.756  13.339   9.338
 1434POPC   PO422728  17.410  13.768   9.685
 1434POPC   GL122729  17.244  13.552   9.220
 1434POPC   GL222730  17.057  13.820   9.023
 1434POPC   C1A22731  17.154  13.387   8.753
 1434POPC   D2A22732  17.097  13.617   8.340
 1434POPC   C3A22733  17.308  13.506   7.970
 1434POPC   C4A22734  17.741  13.490   7.868
 1434POPC   C1B22735  17.444  13.804   8.754
 1434POPC   C2B22736  17.631  13.808   8.316
 1434POPC   C3B22737  17.516  13.971   7.919
 1434POPC   C4B22738  17.075  14.001   7.894
 1435POPC   NC322739  23.796   8.071   9.522
 1435POPC   PO422740  23.276   8.562   9.542
 1435POPC   GL122741  23.501   8.308   9.168
 1435POPC   GL222742  23.558   7.930   9.095
 1435POPC   C1A22743  23.422   8.222   8.718
 1435POPC   D2A22744  23.574   8.098   8.335
 1435POPC   C3A22745  23.380   8.160   7.960
 1435POPC   C4A22746  23.517   8.340   7.591
 1435POPC   C1B22747  23.819   7.825   8.702
 1435POPC   C2B22748  24.033   7.898   8.298
 1435POPC   C3B22749  23.894   8.142   7.936
 1435POPC   C4B22750  23.880   7.966   7.564
 1436POPC   NC322751  43.234  21.962   9.580
 1436POPC   PO422752  42.832  21.432   9.470
 1436POPC   GL122753  43.086  21.431   9.116
 1436POPC   GL222754  43.329  21.177   9.062
 1436POPC   C1A22755  43.260  21.603   8.724
 1436POPC   D2A22756  43.501  21.608   8.333
 1436POPC   C3A22757  43.304  21.572   7.944
 1436POPC   C4A22758  43.298  21.293   7.612
 1436POPC   C1B22759  43.060  21.136   8.707
 1436POPC   C2B22760  42.955  21.347   8.344
 1436POPC   C3B22761  43.061  21.094   8.019
 1436POPC   C4B22762  42.928  20.938   7.625
 1437POPC   NC322763  35.081  43.467   9.581
 1437POPC   PO422764  35.536  42.942   9.548
 1437POPC   GL122765  35.342  43.184   9.212
 1437POPC   GL222766  35.590  43.415   9.121
 1437POPC   C1A22767  35.252  43.269   8.755
 1437POPC   D2A22768  35.307  43.507   8.384
 1437POPC   C3A22769  35.662  43.505   8.092
 1437POPC   C4A22770  35.879  43.376   7.684
 1437POPC   C1B22771  35.700  43.036   8.873
 1437POPC   C2B22772  35.612  43.060   8.424
 1437POPC   C3B22773  35.326  43.102   8.084
 1437POPC   C4B22774  35.178  43.461   7.885
 1438POPC   NC322775  35.350  25.173   9.405
 1438POPC   PO422776  35.410  25.799   9.741
 1438POPC   GL122777  35.579  25.669   9.300
 1438POPC   GL222778  35.340  25.619   9.046
 1438POPC   C1A22779  35.774  25.370   8.946
 1438POPC   D2A22780  35.749  25.077   8.558
 1438POPC   C3A22781  35.541  25.152   8.127
 1438POPC   C4A22782  35.517  25.177   7.637
 1438POPC   C1B22783  35.362  25.428   8.633
 1438POPC   C2B22784  35.251  25.582   8.222
 1438POPC   C3B22785  35.152  25.522   7.795
 1438POPC   C4B22786  35.057  25.563   7.295
 1439POPC   NC322787  33.249  33.499   9.424
 1439POPC   PO422788  33.004  34.143   9.561
 1439POPC   GL122789  32.986  33.877   9.145
 1439POPC   GL222790  33.038  33.530   8.977
 1439POPC   C1A22791  32.872  33.924   8.695
 1439POPC   D2A22792  33.045  34.136   8.313
 1439POPC   C3A22793  32.773  34.050   7.980
 1439POPC   C4A22794  32.724  33.667   7.771
 1439POPC   C1B22795  33.348  33.720   8.701
 1439POPC   C2B22796  33.458  33.646   8.260
 1439POPC   C3B22797  33.227  33.773   7.893
 1439POPC   C4B22798  33.136  33.517   7.479
 1440POPC   NC322799  38.077  23.023   9.457
 1440POPC   PO422800  37.445  22.763   9.442
 1440POPC   GL122801  37.751  22.725   9.113
 1440POPC   GL222802  37.716  23.062   9.088
 1440POPC   C1A22803  37.890  22.749   8.685
 1440POPC   D2A22804  37.817  23.062   8.388
 1440POPC   C3A22805  37.692  22.973   7.986
 1440POPC   C4A22806  37.551  22.873   7.588
 1440POPC   C1B22807  37.386  22.901   8.772
 1440POPC   C2B22808  37.286  22.818   8.307
 1440POPC   C3B22809  37.162  23.063   7.897
 1440POPC   C4B22810  37.217  23.190   7.385
 1441POPC   NC322811  27.675  28.232   9.701
 1441POPC   PO422812  27.297  28.628   9.262
 1441POPC   GL122813  27.700  28.499   9.167
 1441POPC   GL222814  27.674  28.173   9.193
 1441POPC   C1A22815  27.903  28.620   8.790
 1441POPC   D2A22816  27.631  28.718   8.436
 1441POPC   C3A22817  27.737  28.536   8.043
 1441POPC   C4A22818  27.480  28.347   7.750
 1441POPC   C1B22819  27.757  27.988   8.815
 1441POPC   C2B22820  27.795  28.217   8.459
 1441POPC   C3B22821  27.703  28.014   8.092
 1441POPC   C4B22822  27.922  27.963   7.740
 1442POPC   NC322823   3.100  35.758   9.577
 1442POPC   PO422824   3.555  35.222   9.574
 1442POPC   GL122825   3.570  35.415   9.153
 1442POPC   GL222826   3.328  35.697   9.092
 1442POPC   C1A22827   3.685  35.411   8.707
 1442POPC   D2A22828   3.872  35.684   8.395
 1442POPC   C3A22829   3.862  35.539   8.011
 1442POPC   C4A22830   3.564  35.492   7.721
 1442POPC   C1B22831   3.222  35.643   8.640
 1442POPC   C2B22832   3.337  35.538   8.201
 1442POPC   C3B22833   3.061  35.488   7.823
 1442POPC   C4B22834   2.766  35.410   7.459
 1443POPC   NC322835   2.257  30.201   9.518
 1443POPC   PO422836   1.593  30.400   9.615
 1443POPC   GL122837   1.884  30.471   9.188
 1443POPC   GL222838   2.160  30.354   9.023
 1443POPC   C1A22839   1.972  30.795   8.823
 1443POPC   D2A22840   1.840  30.978   8.439
 1443POPC   C3A22841   1.943  30.836   8.032
 1443POPC   C4A22842   2.351  30.825   7.824
 1443POPC   C1B22843   1.782  30.351   8.703
 1443POPC   C2B22844   1.951  30.332   8.272
 1443POPC   C3B22845   2.080  30.369   7.852
 1443POPC   C4B22846   1.945  30.625   7.530
 1444POPC   NC322847   1.573  31.458   9.741
 1444POPC   PO422848   1.119  31.845   9.503
 1444POPC   GL122849   1.082  31.634   9.129
 1444POPC   GL222850   0.773  31.772   9.067
 1444POPC   C1A22851   1.071  31.275   8.824
 1444POPC   D2A22852   1.285  31.138   8.449
 1444POPC   C3A22853   1.104  31.341   8.096
 1444POPC   C4A22854   1.231  31.416   7.669
 1444POPC   C1B22855   0.931  31.743   8.667
 1444POPC   C2B22856   1.285  31.735   8.473
 1444POPC   C3B22857   1.288  31.813   8.081
 1444POPC   C4B22858   0.879  31.773   7.842
 1445POPC   NC322859  19.200  32.675   9.478
 1445POPC   PO422860  18.784  33.262   9.560
 1445POPC   GL122861  18.807  33.062   9.185
 1445POPC   GL222862  19.117  33.132   9.132
 1445POPC   C1A22863  18.702  32.907   8.786
 1445POPC   D2A22864  18.737  33.061   8.387
 1445POPC   C3A22865  18.664  32.948   7.968
 1445POPC   C4A22866  19.026  32.891   7.721
 1445POPC   C1B22867  19.343  33.437   8.864
 1445POPC   C2B22868  19.526  33.331   8.472
 1445POPC   C3B22869  19.455  33.474   8.076
 1445POPC   C4B22870  19.620  33.376   7.689
 1446POPC   NC322871   1.362  19.328   9.469
 1446POPC   PO422872   1.005  18.690   9.525
 1446POPC   GL122873   1.302  18.885   9.247
 1446POPC   GL222874   1.434  18.612   9.159
 1446POPC   C1A22875   1.413  19.026   8.813
 1446POPC   D2A22876   1.123  19.132   8.482
 1446POPC   C3A22877   1.263  19.263   8.090
 1446POPC   C4A22878   1.014  19.480   7.789
 1446POPC   C1B22879   1.057  18.643   8.869
 1446POPC   C2B22880   1.109  18.615   8.441
 1446POPC   C3B22881   0.922  18.804   8.093
 1446POPC   C4B22882   1.069  18.959   7.741
 1447POPC   NC322883  42.466  11.433   9.573
 1447POPC   PO422884  42.012  10.842   9.529
 1447POPC   GL122885  42.260  11.051   9.187
 1447POPC   GL222886  42.397  11.382   9.095
 1447POPC   C1A22887  42.373  11.015   8.742
 1447POPC   D2A22888  42.596  11.271   8.449
 1447POPC   C3A22889  42.397  11.191   8.057
 1447POPC   C4A22890  42.290  11.317   7.663
 1447POPC   C1B22891  42.110  11.459   8.819
 1447POPC   C2B22892  42.119  11.478   8.390
 1447POPC   C3B22893  41.947  11.486   7.990
 1447POPC   C4B22894  41.878  11.657   7.591
 1448POPC   NC322895  24.051   4.149   9.597
 1448POPC   PO422896  23.563   4.513   9.660
 1448POPC   GL122897  23.758   4.471   9.262
 1448POPC   GL222898  23.821   4.156   9.154
 1448POPC   C1A22899  23.786   4.547   8.822
 1448POPC   D2A22900  23.911   4.781   8.489
 1448POPC   C3A22901  23.823   4.626   8.096
 1448POPC   C4A22902  23.646   4.529   7.718
 1448POPC   C1B22903  23.842   3.987   8.783
 1448POPC   C2B22904  23.727   3.861   8.388
 1448POPC   C3B22905  23.707   4.114   8.010
 1448POPC   C4B22906  23.973   4.157   7.627
 1449POPC   NC322907  25.112   2.092   9.943
 1449POPC   PO422908  25.699   1.916   9.590
 1449POPC   GL122909  25.472   1.885   9.178
 1449POPC   GL222910  25.112   1.859   9.126
 1449POPC   C1A22911  25.398   2.032   8.729
 1449POPC   D2A22912  25.359   1.818   8.345
 1449POPC   C3A22913  25.455   2.036   7.992
 1449POPC   C4A22914  25.437   1.769   7.640
 1449POPC   C1B22915  24.886   1.989   8.720
 1449POPC   C2B22916  24.925   2.121   8.287
 1449POPC   C3B22917  24.972   1.832   7.947
 1449POPC   C4B22918  24.966   1.895   7.531
 1450POPC   NC322919  33.330   5.115   9.592
 1450POPC   PO422920  33.940   4.890   9.502
 1450POPC   GL122921  33.676   5.115   9.211
 1450POPC   GL222922  33.460   4.861   9.146
 1450POPC   C1A22923  33.592   5.228   8.772
 1450POPC   D2A22924  33.822   5.417   8.425
 1450POPC   C3A22925  33.729   5.204   8.042
 1450POPC   C4A22926  34.090   5.205   7.748
 1450POPC   C1B22927  33.841   4.774   8.854
 1450POPC   C2B22928  33.817   4.865   8.429
 1450POPC   C3B22929  33.840   4.724   7.984
 1450POPC   C4B22930  33.756   4.853   7.558
 1451POPC   NC322931   9.230   6.538   9.716
 1451POPC   PO422932   8.697   6.329   9.307
 1451POPC   GL122933   8.917   6.682   9.127
 1451POPC   GL222934   9.289   6.769   9.219
 1451POPC   C1A22935   8.994   6.708   8.716
 1451POPC   D2A22936   8.784   6.482   8.408
 1451POPC   C3A22937   8.790   6.743   8.067
 1451POPC   C4A22938   8.880   6.454   7.762
 1451POPC   C1B22939   9.491   6.786   8.805
 1451POPC   C2B22940   9.394   6.866   8.359
 1451POPC   C3B22941   9.339   6.639   7.966
 1451POPC   C4B22942   9.257   6.715   7.529
 1452POPC   NC322943  13.084  22.764   9.450
 1452POPC   PO422944  12.800  23.397   9.429
 1452POPC   GL122945  12.932  23.114   9.104
 1452POPC   GL222946  12.717  22.809   9.050
 1452POPC   C1A22947  13.187  22.918   8.782
 1452POPC   D2A22948  13.246  23.083   8.389
 1452POPC   C3A22949  12.938  22.945   8.129
 1452POPC   C4A22950  12.941  22.840   7.722
 1452POPC   C1B22951  12.698  23.061   8.645
 1452POPC   C2B22952  12.472  23.143   8.267
 1452POPC   C3B22953  12.460  22.957   7.866
 1452POPC   C4B22954  12.523  22.920   7.426
 1453POPC   NC322955   9.234   9.523   9.326
 1453POPC   PO422956   8.607   9.524   9.522
 1453POPC   GL122957   8.758   9.681   9.125
 1453POPC   GL222958   8.874   9.401   8.981
 1453POPC   C1A22959   8.931   9.956   8.780
 1453POPC   D2A22960   8.815  10.148   8.370
 1453POPC   C3A22961   8.826   9.857   8.004
 1453POPC   C4A22962   9.157   9.712   7.745
 1453POPC   C1B22963   9.159   9.507   8.651
 1453POPC   C2B22964   9.140   9.478   8.214
 1453POPC   C3B22965   9.452   9.363   7.919
 1453POPC   C4B22966   9.363   9.324   7.446
 1454POPC   NC322967  31.202   7.412   9.437
 1454POPC   PO422968  31.775   7.763   9.218
 1454POPC   GL122969  31.564   7.406   9.078
 1454POPC   GL222970  31.344   7.633   8.953
 1454POPC   C1A22971  31.378   7.165   8.743
 1454POPC   D2A22972  31.516   7.165   8.299
 1454POPC   C3A22973  31.257   7.188   7.937
 1454POPC   C4A22974  31.475   7.041   7.553
 1454POPC   C1B22975  31.705   7.564   8.613
 1454POPC   C2B22976  31.941   7.493   8.240
 1454POPC   C3B22977  31.751   7.375   7.865
 1454POPC   C4B22978  31.423   7.623   7.721
 1455POPC   NC322979   0.026  44.737   9.692
 1455POPC   PO422980   0.679  44.547   9.488
 1455POPC   GL122981   0.527  44.711   9.084
 1455POPC   GL222982   0.279  44.914   9.226
 1455POPC   C1A22983   0.419  44.931   8.663
 1455POPC   D2A22984   0.226   0.015   8.255
 1455POPC   C3A22985   0.408  44.759   7.936
 1455POPC   C4A22986   0.537  44.510   7.600
 1455POPC   C1B22987   0.073  44.648   8.890
 1455POPC   C2B22988   0.087  44.498   8.429
 1455POPC   C3B22989  44.937  44.559   8.002
 1455POPC   C4B22990   0.050  44.686   7.585
 1456POPC   NC322991   6.232  37.682   9.444
 1456POPC   PO422992   6.798  37.788   9.711
 1456POPC   GL122993   6.682  37.824   9.252
 1456POPC   GL222994   6.704  37.504   9.213
 1456POPC   C1A22995   6.549  37.749   8.801
 1456POPC   D2A22996   6.780  37.736   8.401
 1456POPC   C3A22997   6.584  37.974   8.073
 1456POPC   C4A22998   6.304  37.809   7.817
 1456POPC   C1B22999   6.782  37.264   8.837
 1456POPC   C2B23000   6.649  37.200   8.427
 1456POPC   C3B23001   6.627  37.393   8.034
 1456POPC   C4B23002   6.855  37.165   7.734
 1457POPC   NC323003  42.775  23.313   9.944
 1457POPC   PO423004  43.005  22.810   9.541
 1457POPC   GL123005  43.118  22.913   9.115
 1457POPC   GL223006  42.840  22.731   9.024
 1457POPC   C1A23007  42.899  23.140   8.733
 1457POPC   D2A23008  42.766  22.874   8.361
 1457POPC   C3A23009  43.000  22.899   7.935
 1457POPC   C4A23010  43.093  23.173   7.503
 1457POPC   C1B23011  43.166  22.719   8.655
 1457POPC   C2B23012  43.266  22.566   8.251
 1457POPC   C3B23013  43.381  22.568   7.796
 1457POPC   C4B23014  43.173  22.706   7.392
 1458POPC   NC323015  14.670  31.796   9.614
 1458POPC   PO423016  14.329  31.151   9.462
 1458POPC   GL123017  14.630  31.378   9.262
 1458POPC   GL223018  14.358  31.542   9.112
 1458POPC   C1A23019  14.736  31.390   8.826
 1458POPC   D2A23020  14.496  31.228   8.473
 1458POPC   C3A23021  14.577  31.441   8.094
 1458POPC   C4A23022  14.680  31.234   7.706
 1458POPC   C1B23023  14.188  31.805   8.779
 1458POPC   C2B23024  14.154  31.679   8.375
 1458POPC   C3B23025  14.050  31.606   7.971
 1458POPC   C4B23026  14.359  31.618   7.660
 1459POPC   NC323027  38.736  28.050   9.436
 1459POPC   PO423028  38.444  28.645   9.661
 1459POPC   GL123029  38.461  28.498   9.215
 1459POPC   GL223030  38.737  28.419   9.105
 1459POPC   C1A23031  38.367  28.389   8.751
 1459POPC   D2A23032  38.219  28.129   8.377
 1459POPC   C3A23033  38.112  28.294   8.013
 1459POPC   C4A23034  38.245  28.442   7.603
 1459POPC   C1B23035  38.861  28.163   8.765
 1459POPC   C2B23036  38.747  28.321   8.380
 1459POPC   C3B23037  38.613  28.449   7.999
 1459POPC   C4B23038  38.723  28.294   7.601
 1460POPC   NC323039  28.885  17.540   9.779
 1460POPC   PO423040  29.459  17.762   9.490
 1460POPC   GL123041  29.183  17.591   9.158
 1460POPC   GL223042  28.974  17.312   9.100
 1460POPC   C1A23043  29.292  17.443   8.719
 1460POPC   D2A23044  29.569  17.529   8.369
 1460POPC   C3A23045  29.343  17.505   7.969
 1460POPC   C4A23046  29.208  17.742   7.555
 1460POPC   C1B23047  28.860  17.695   8.780
 1460POPC   C2B23048  28.970  17.852   8.357
 1460POPC   C3B23049  28.897  17.702   7.949
 1460POPC   C4B23050  28.961  17.323   7.674
 1461POPC   NC323051  10.767  42.635   9.460
 1461POPC   PO423052  10.765  41.971   9.572
 1461POPC   GL123053  10.611  42.166   9.196
 1461POPC   GL223054  10.340  42.415   9.273
 1461POPC   C1A23055  10.638  42.361   8.785
 1461POPC   D2A23056  10.423  42.450   8.390
 1461POPC   C3A23057  10.576  42.271   8.011
 1461POPC   C4A23058  10.819  42.556   7.779
 1461POPC   C1B23059  10.159  42.516   8.879
 1461POPC   C2B23060  10.086  42.794   8.551
 1461POPC   C3B23061  10.117  42.781   8.109
 1461POPC   C4B23062  10.282  42.574   7.732
 1462POPC   NC323063   8.003  20.403   9.328
 1462POPC   PO423064   8.456  20.760   9.649
 1462POPC   GL123065   8.440  20.668   9.201
 1462POPC   GL223066   8.174  20.920   9.202
 1462POPC   C1A23067   8.524  20.408   8.781
 1462POPC   D2A23068   8.586  20.642   8.387
 1462POPC   C3A23069   8.289  20.784   8.097
 1462POPC   C4A23070   8.273  20.691   7.659
 1462POPC   C1B23071   8.205  20.798   8.747
 1462POPC   C2B23072   8.107  20.431   8.458
 1462POPC   C3B23073   7.919  20.420   8.045
 1462POPC   C4B23074   7.774  20.522   7.634
 1463POPC   NC323075  28.482  16.042   9.603
 1463POPC   PO423076  27.843  16.200   9.774
 1463POPC   GL123077  28.032  16.113   9.340
 1463POPC   GL223078  28.009  16.377   9.063
 1463POPC   C1A23079  28.209  15.914   8.928
 1463POPC   D2A23080  28.186  15.905   8.457
 1463POPC   C3A23081  28.462  15.960   8.097
 1463POPC   C4A23082  28.493  15.705   7.710
 1463POPC   C1B23083  28.261  16.379   8.700
 1463POPC   C2B23084  28.215  16.420   8.271
 1463POPC   C3B23085  27.937  16.154   8.070
 1463POPC   C4B23086  28.105  16.047   7.725
 1464POPC   NC323087  23.907  31.465   9.400
 1464POPC   PO423088  23.265  31.169   9.415
 1464POPC   GL123089  23.582  31.178   9.127
 1464POPC   GL223090  23.552  31.548   9.038
 1464POPC   C1A23091  23.760  31.205   8.711
 1464POPC   D2A23092  23.616  31.428   8.353
 1464POPC   C3A23093  23.953  31.439   8.092
 1464POPC   C4A23094  24.032  31.182   7.775
 1464POPC   C1B23095  23.905  31.702   8.745
 1464POPC   C2B23096  23.870  31.926   8.346
 1464POPC   C3B23097  23.654  31.837   7.957
 1464POPC   C4B23098  23.594  31.463   7.731
 1465POPC   NC323099  22.523  29.596   9.508
 1465POPC   PO423100  22.676  28.922   9.551
 1465POPC   GL123101  22.828  29.035   9.129
 1465POPC   GL223102  22.804  29.401   9.143
 1465POPC   C1A23103  22.736  29.155   8.697
 1465POPC   D2A23104  22.672  29.202   8.260
 1465POPC   C3A23105  22.924  28.903   8.092
 1465POPC   C4A23106  22.877  28.790   7.706
 1465POPC   C1B23107  23.158  29.458   8.904
 1465POPC   C2B23108  23.214  29.317   8.508
 1465POPC   C3B23109  23.120  29.408   8.106
 1465POPC   C4B23110  23.118  29.228   7.724
 1466POPC   NC323111  21.472  26.433   9.468
 1466POPC   PO423112  21.381  25.810   9.621
 1466POPC   GL123113  21.389  26.005   9.224
 1466POPC   GL223114  21.064  26.193   9.212
 1466POPC   C1A23115  21.441  26.192   8.800
 1466POPC   D2A23116  21.157  26.147   8.423
 1466POPC   C3A23117  21.291  25.984   7.997
 1466POPC   C4A23118  21.451  25.970   7.569
 1466POPC   C1B23119  20.997  26.429   8.834
 1466POPC   C2B23120  21.065  26.647   8.403
 1466POPC   C3B23121  21.034  26.420   8.006
 1466POPC   C4B23122  21.082  26.326   7.567
 1467POPC   NC323123  33.942   7.027   9.576
 1467POPC   PO423124  33.611   7.632   9.501
 1467POPC   GL123125  33.863   7.440   9.187
 1467POPC   GL223126  33.658   7.159   9.173
 1467POPC   C1A23127  34.030   7.532   8.772
 1467POPC   D2A23128  33.763   7.425   8.413
 1467POPC   C3A23129  33.747   7.639   8.067
 1467POPC   C4A23130  34.071   7.646   7.813
 1467POPC   C1B23131  33.797   7.080   8.786
 1467POPC   C2B23132  33.680   6.898   8.426
 1467POPC   C3B23133  33.550   7.020   8.048
 1467POPC   C4B23134  33.669   7.272   7.746
 1468POPC   NC323135   7.121   4.766   9.494
 1468POPC   PO423136   7.749   5.032   9.352
 1468POPC   GL123137   7.348   5.046   9.132
 1468POPC   GL223138   7.251   4.721   9.002
 1468POPC   C1A23139   7.224   5.330   8.817
 1468POPC   D2A23140   7.376   5.526   8.436
 1468POPC   C3A23141   7.300   5.321   8.022
 1468POPC   C4A23142   7.568   5.150   7.697
 1468POPC   C1B23143   7.545   4.922   8.677
 1468POPC   C2B23144   7.610   4.977   8.233
 1468POPC   C3B23145   7.821   4.760   7.904
 1468POPC   C4B23146   7.730   4.619   7.482
 1469POPC   NC323147  41.920  42.238   9.454
 1469POPC   PO423148  41.278  42.432   9.383
 1469POPC   GL123149  41.611  42.505   9.104
 1469POPC   GL223150  41.680  42.146   9.022
 1469POPC   C1A23151  41.760  42.483   8.671
 1469POPC   D2A23152  41.760  42.271   8.289
 1469POPC   C3A23153  41.589  42.569   7.984
 1469POPC   C4A23154  41.791  42.746   7.633
 1469POPC   C1B23155  41.351  42.110   8.691
 1469POPC   C2B23156  41.344  41.995   8.255
 1469POPC   C3B23157  41.265  42.195   7.855
 1469POPC   C4B23158  41.275  41.906   7.510
 1470POPC   NC323159  34.477  19.943   9.457
 1470POPC   PO423160  35.123  20.156   9.440
 1470POPC   GL123161  34.813  20.089   9.106
 1470POPC   GL223162  34.743  19.708   9.057
 1470POPC   C1A23163  34.566  20.067   8.721
 1470POPC   D2A23164  34.618  19.826   8.343
 1470POPC   C3A23165  34.555  19.957   7.895
 1470POPC   C4A23166  34.607  19.664   7.529
 1470POPC   C1B23167  34.479  19.393   8.813
 1470POPC   C2B23168  34.352  19.376   8.377
 1470POPC   C3B23169  34.580  19.426   8.029
 1470POPC   C4B23170  34.332  19.303   7.763
 1471POPC   NC323171   4.679  18.979   9.443
 1471POPC   PO423172   4.233  19.572   9.404
 1471POPC   GL123173   4.242  19.189   9.183
 1471POPC   GL223174   4.089  19.375   8.936
 1471POPC   C1A23175   4.379  18.959   8.796
 1471POPC   D2A23176   4.580  19.073   8.402
 1471POPC   C3A23177   4.438  18.804   8.045
 1471POPC   C4A23178   4.130  18.822   7.720
 1471POPC   C1B23179   4.391  19.507   8.690
 1471POPC   C2B23180   4.204  19.400   8.322
 1471POPC   C3B23181   4.364  19.289   7.962
 1471POPC   C4B23182   4.455  19.272   7.563
 1472POPC   NC323183  35.070  29.572   9.441
 1472POPC   PO423184  35.382  30.201   9.514
 1472POPC   GL123185  35.431  30.077   9.114
 1472POPC   GL223186  35.279  29.758   9.041
 1472POPC   C1A23187  35.262  30.141   8.709
 1472POPC   D2A23188  35.405  30.283   8.319
 1472POPC   C3A23189  35.186  30.087   8.019
 1472POPC   C4A23190  35.096  30.216   7.620
 1472POPC   C1B23191  35.624  29.718   8.795
 1472POPC   C2B23192  35.518  29.791   8.408
 1472POPC   C3B23193  35.574  29.722   8.017
 1472POPC   C4B23194  35.371  29.776   7.656
 1473POPC   NC323195  36.217  22.662   9.525
 1473POPC   PO423196  35.892  23.171   9.635
 1473POPC   GL123197  35.990  23.171   9.191
 1473POPC   GL223198  36.147  22.866   9.071
 1473POPC   C1A23199  36.153  23.252   8.757
 1473POPC   D2A23200  36.281  23.010   8.447
 1473POPC   C3A23201  36.143  23.204   8.100
 1473POPC   C4A23202  35.966  23.019   7.778
 1473POPC   C1B23203  36.438  22.644   8.821
 1473POPC   C2B23204  36.452  22.496   8.401
 1473POPC   C3B23205  36.320  22.692   8.038
 1473POPC   C4B23206  36.416  22.778   7.611
 1474POPC   NC323207   8.809  29.572   9.610
 1474POPC   PO423208   9.402  29.796   9.772
 1474POPC   GL123209   9.223  29.919   9.348
 1474POPC   GL223210   8.841  29.959   9.279
 1474POPC   C1A23211   9.194  30.015   8.901
 1474POPC   D2A23212   8.992  29.963   8.496
 1474POPC   C3A23213   8.847  30.062   8.105
 1474POPC   C4A23214   8.951  29.827   7.750
 1474POPC   C1B23215   8.682  29.813   8.865
 1474POPC   C2B23216   8.498  29.842   8.411
 1474POPC   C3B23217   8.473  29.778   7.925
 1474POPC   C4B23218   8.545  29.977   7.473
 1475POPC   NC323219  36.370  28.525   9.445
 1475POPC   PO423220  36.049  27.962   9.410
 1475POPC   GL123221  36.035  28.291   9.086
 1475POPC   GL223222  35.715  28.460   9.008
 1475POPC   C1A23223  36.198  28.393   8.676
 1475POPC   D2A23224  36.451  28.208   8.338
 1475POPC   C3A23225  36.338  28.217   7.893
 1475POPC   C4A23226  36.337  28.173   7.431
 1475POPC   C1B23227  35.730  28.174   8.673
 1475POPC   C2B23228  35.919  28.207   8.282
 1475POPC   C3B23229  35.923  28.497   7.966
 1475POPC   C4B23230  35.880  28.216   7.647
 1476POPC   NC323231  37.554  10.849   9.407
 1476POPC   PO423232  37.774  10.221   9.674
 1476POPC   GL123233  37.691  10.385   9.217
 1476POPC   GL223234  37.904  10.674   9.093
 1476POPC   C1A23235  37.589  10.441   8.762
 1476POPC   D2A23236  37.744  10.339   8.366
 1476POPC   C3A23237  37.464  10.389   8.025
 1476POPC   C4A23238  37.577  10.645   7.686
 1476POPC   C1B23239  37.766  10.909   8.720
 1476POPC   C2B23240  37.813  10.872   8.273
 1476POPC   C3B23241  38.024  10.711   7.932
 1476POPC   C4B23242  38.066  10.698   7.457
 1477POPC   NC323243  17.448  35.961   9.861
 1477POPC   PO423244  16.846  36.027   9.454
 1477POPC   GL123245  16.926  36.054   9.048
 1477POPC   GL223246  16.964  35.723   9.023
 1477POPC   C1A23247  16.796  36.197   8.635
 1477POPC   D2A23248  17.115  36.372   8.338
 1477POPC   C3A23249  16.947  36.396   7.931
 1477POPC   C4A23250  16.665  36.301   7.603
 1477POPC   C1B23251  16.747  35.632   8.671
 1477POPC   C2B23252  16.523  35.819   8.334
 1477POPC   C3B23253  16.673  35.885   7.886
 1477POPC   C4B23254  16.889  35.843   7.470
 1478POPC   NC323255  28.047  32.421   9.496
 1478POPC   PO423256  28.666  32.097   9.432
 1478POPC   GL123257  28.428  32.263   9.126
 1478POPC   GL223258  28.144  32.044   9.146
 1478POPC   C1A23259  28.631  32.157   8.722
 1478POPC   D2A23260  28.535  31.988   8.307
 1478POPC   C3A23261  28.585  32.262   7.938
 1478POPC   C4A23262  28.581  32.153   7.496
 1478POPC   C1B23263  28.130  32.081   8.681
 1478POPC   C2B23264  28.113  32.278   8.247
 1478POPC   C3B23265  28.015  32.198   7.804
 1478POPC   C4B23266  27.760  32.115   7.456
 1479POPC   NC323267  23.599  27.012   9.548
 1479POPC   PO423268  24.215  26.917   9.494
 1479POPC   GL123269  23.918  26.884   9.111
 1479POPC   GL223270  23.624  27.112   9.064
 1479POPC   C1A23271  23.681  26.750   8.704
 1479POPC   D2A23272  23.786  26.699   8.256
 1479POPC   C3A23273  23.554  26.699   7.835
 1479POPC   C4A23274  23.719  26.436   7.470
 1479POPC   C1B23275  23.835  27.240   8.715
 1479POPC   C2B23276  23.732  27.412   8.325
 1479POPC   C3B23277  23.831  27.129   7.969
 1479POPC   C4B23278  23.983  26.856   7.608
 1480POPC   NC323279  33.263  16.085   9.382
 1480POPC   PO423280  32.771  16.572   9.492
 1480POPC   GL123281  32.920  16.285   9.065
 1480POPC   GL223282  33.294  16.205   8.898
 1480POPC   C1A23283  32.874  15.966   8.745
 1480POPC   D2A23284  33.138  16.028   8.378
 1480POPC   C3A23285  32.938  16.021   7.983
 1480POPC   C4A23286  32.909  15.858   7.576
 1480POPC   C1B23287  33.357  15.765   8.790
 1480POPC   C2B23288  33.427  15.577   8.371
 1480POPC   C3B23289  33.288  15.636   7.928
 1480POPC   C4B23290  33.405  15.933   7.608
 1481POPC   NC323291  25.005  22.049   9.787
 1481POPC   PO423292  25.641  21.919   9.947
 1481POPC   GL123293  25.535  22.047   9.436
 1481POPC   GL223294  25.400  21.792   9.214
 1481POPC   C1A23295  25.579  22.176   8.922
 1481POPC   D2A23296  25.413  22.232   8.440
 1481POPC   C3A23297  25.544  22.143   7.972
 1481POPC   C4A23298  25.359  22.268   7.576
 1481POPC   C1B23299  25.166  21.898   8.789
 1481POPC   C2B23300  25.023  21.908   8.327
 1481POPC   C3B23301  25.038  22.021   7.881
 1481POPC   C4B23302  24.952  21.986   7.427
 1482POPC   NC323303  27.083   4.510   9.444
 1482POPC   PO423304  26.636   4.083   9.516
 1482POPC   GL123305  26.755   4.063   9.123
 1482POPC   GL223306  27.102   4.085   9.099
 1482POPC   C1A23307  26.702   4.314   8.768
 1482POPC   D2A23308  26.649   4.598   8.432
 1482POPC   C3A23309  26.577   4.414   8.034
 1482POPC   C4A23310  26.854   4.639   7.787
 1482POPC   C1B23311  27.208   4.247   8.683
 1482POPC   C2B23312  27.025   4.304   8.275
 1482POPC   C3B23313  26.990   4.126   7.851
 1482POPC   C4B23314  27.042   4.180   7.366
 1483POPC   NC323315  14.874  25.271   9.446
 1483POPC   PO423316  15.485  25.258   9.530
 1483POPC   GL123317  15.269  25.410   9.159
 1483POPC   GL223318  15.208  25.049   9.106
 1483POPC   C1A23319  14.958  25.348   8.793
 1483POPC   D2A23320  14.714  25.545   8.463
 1483POPC   C3A23321  14.907  25.502   8.056
 1483POPC   C4A23322  15.222  25.277   7.811
 1483POPC   C1B23323  15.064  24.831   8.739
 1483POPC   C2B23324  15.011  24.751   8.283
 1483POPC   C3B23325  15.144  24.728   7.840
 1483POPC   C4B23326  15.302  24.850   7.429
 1484POPC   NC323327  25.979  22.106   9.683
 1484POPC   PO423328  26.433  22.268   9.446
 1484POPC   GL123329  26.081  22.174   9.157
 1484POPC   GL223330  25.926  21.865   9.127
 1484POPC   C1A23331  26.038  22.264   8.699
 1484POPC   D2A23332  25.886  22.357   8.283
 1484POPC   C3A23333  26.076  22.300   7.870
 1484POPC   C4A23334  26.318  22.550   7.544
 1484POPC   C1B23335  26.140  21.771   8.734
 1484POPC   C2B23336  26.127  21.899   8.283
 1484POPC   C3B23337  25.942  21.801   7.879
 1484POPC   C4B23338  25.988  21.601   7.474
 1485POPC   NC323339   9.856  20.200   9.457
 1485POPC   PO423340   9.602  19.562   9.595
 1485POPC   GL123341   9.676  19.772   9.194
 1485POPC   GL223342  10.042  19.773   9.155
 1485POPC   C1A23343   9.681  19.720   8.734
 1485POPC   D2A23344   9.723  19.517   8.312
 1485POPC   C3A23345   9.646  19.766   7.940
 1485POPC   C4A23346   9.668  19.612   7.517
 1485POPC   C1B23347  10.150  19.924   8.768
 1485POPC   C2B23348   9.996  19.941   8.385
 1485POPC   C3B23349  10.160  20.012   8.023
 1485POPC   C4B23350  10.050  19.963   7.637
 1486POPC   NC323351   6.426  33.461   9.553
 1486POPC   PO423352   6.882  32.889   9.574
 1486POPC   GL123353   6.748  33.120   9.239
 1486POPC   GL223354   6.395  33.058   9.213
 1486POPC   C1A23355   6.706  32.936   8.821
 1486POPC   D2A23356   6.425  32.972   8.474
 1486POPC   C3A23357   6.656  32.796   8.152
 1486POPC   C4A23358   7.038  32.802   7.936
 1486POPC   C1B23359   6.453  33.393   8.892
 1486POPC   C2B23360   6.328  33.541   8.496
 1486POPC   C3B23361   6.333  33.356   8.092
 1486POPC   C4B23362   6.629  33.178   7.792
 1487POPC   NC323363   3.636  23.407   9.722
 1487POPC   PO423364   3.280  22.871   9.649
 1487POPC   GL123365   3.474  22.945   9.247
 1487POPC   GL223366   3.219  23.171   9.158
 1487POPC   C1A23367   3.595  23.040   8.784
 1487POPC   D2A23368   3.707  22.856   8.348
 1487POPC   C3A23369   3.716  23.054   7.952
 1487POPC   C4A23370   3.891  23.033   7.541
 1487POPC   C1B23371   3.130  22.798   8.895
 1487POPC   C2B23372   3.222  22.899   8.482
 1487POPC   C3B23373   3.180  22.964   8.051
 1487POPC   C4B23374   3.316  23.160   7.662
 1488POPC   NC323375  13.828   0.286   9.561
 1488POPC   PO423376  13.115   0.351   9.765
 1488POPC   GL123377  13.307   0.408   9.305
 1488POPC   GL223378  13.484   0.128   9.154
 1488POPC   C1A23379  13.382   0.460   8.813
 1488POPC   D2A23380  13.679   0.628   8.504
 1488POPC   C3A23381  13.651   0.501   8.070
 1488POPC   C4A23382  13.360   0.376   7.762
 1488POPC   C1B23383  13.813   0.231   8.872
 1488POPC   C2B23384  13.901   0.142   8.442
 1488POPC   C3B23385  14.090   0.212   8.066
 1488POPC   C4B23386  13.968   0.326   7.667
 1489POPC   NC323387  29.428  36.032   9.589
 1489POPC   PO423388  28.718  36.218   9.477
 1489POPC   GL123389  29.076  36.164   9.173
 1489POPC   GL223390  29.394  36.332   9.182
 1489POPC   C1A23391  29.189  35.845   8.867
 1489POPC   D2A23392  29.046  35.781   8.457
 1489POPC   C3A23393  29.214  36.022   8.109
 1489POPC   C4A23394  29.016  36.231   7.767
 1489POPC   C1B23395  29.395  36.283   8.701
 1489POPC   C2B23396  29.545  36.385   8.299
 1489POPC   C3B23397  29.490  36.390   7.838
 1489POPC   C4B23398  29.529  36.080   7.517
 1490POPC   NC323399  28.079  28.541   9.497
 1490POPC   PO423400  28.490  28.103   9.781
 1490POPC   GL123401  28.468  28.243   9.288
 1490POPC   GL223402  28.423  28.586   9.129
 1490POPC   C1A23403  28.195  28.233   8.886
 1490POPC   D2A23404  28.308  28.318   8.473
 1490POPC   C3A23405  28.173  28.249   8.079
 1490POPC   C4A23406  28.410  28.144   7.711
 1490POPC   C1B23407  28.450  28.733   8.721
 1490POPC   C2B23408  28.141  28.792   8.359
 1490POPC   C3B23409  28.199  28.736   7.918
 1490POPC   C4B23410  28.450  28.623   7.515
 1491POPC   NC323411  36.346  10.139   9.202
 1491POPC   PO423412  35.968  10.549   9.659
 1491POPC   GL123413  36.030  10.612   9.195
 1491POPC   GL223414  35.898  10.895   9.108
 1491POPC   C1A23415  35.911  10.513   8.725
 1491POPC   D2A23416  35.827  10.327   8.288
 1491POPC   C3A23417  36.190  10.312   8.017
 1491POPC   C4A23418  36.321  10.413   7.614
 1491POPC   C1B23419  36.230  10.926   8.756
 1491POPC   C2B23420  36.192  10.780   8.311
 1491POPC   C3B23421  36.084  10.810   7.873
 1491POPC   C4B23422  35.812  11.028   7.531
 1492POPC   NC323423  38.345   1.224   9.577
 1492POPC   PO423424  39.027   1.378   9.429
 1492POPC   GL123425  38.629   1.409   9.183
 1492POPC   GL223426  38.549   1.048   9.140
 1492POPC   C1A23427  38.438   1.388   8.747
 1492POPC   D2A23428  38.404   1.561   8.331
 1492POPC   C3A23429  38.402   1.277   7.990
 1492POPC   C4A23430  38.641   1.307   7.597
 1492POPC   C1B23431  38.859   1.109   8.808
 1492POPC   C2B23432  38.749   1.027   8.375
 1492POPC   C3B23433  38.807   0.952   7.954
 1492POPC   C4B23434  38.811   0.811   7.541
 1493POPC   NC323435  39.534   6.796   9.789
 1493POPC   PO423436  39.064   6.465   9.356
 1493POPC   GL123437  39.050   6.762   9.020
 1493POPC   GL223438  39.363   7.000   8.936
 1493POPC   C1A23439  39.126   6.688   8.619
 1493POPC   D2A23440  39.271   6.386   8.370
 1493POPC   C3A23441  39.056   6.343   8.005
 1493POPC   C4A23442  39.186   6.575   7.656
 1493POPC   C1B23443  39.627   6.711   8.640
 1493POPC   C2B23444  39.608   6.706   8.161
 1493POPC   C3B23445  39.543   6.994   7.806
 1493POPC   C4B23446  39.355   7.006   7.371
 1494POPC   NC323447  36.925   9.332   9.480
 1494POPC   PO423448  36.946   8.585   9.422
 1494POPC   GL123449  36.990   8.900   9.135
 1494POPC   GL223450  36.638   8.990   9.166
 1494POPC   C1A23451  37.112   8.752   8.728
 1494POPC   D2A23452  36.896   8.860   8.343
 1494POPC   C3A23453  37.169   8.945   8.004
 1494POPC   C4A23454  37.320   8.791   7.603
 1494POPC   C1B23455  36.443   9.159   8.781
 1494POPC   C2B23456  36.572   9.279   8.365
 1494POPC   C3B23457  36.618   9.069   7.954
 1494POPC   C4B23458  36.519   9.385   7.714
 1495POPC   NC323459  18.419   0.817   9.617
 1495POPC   PO423460  17.974   1.212   9.566
 1495POPC   GL123461  18.153   1.251   9.186
 1495POPC   GL223462  18.416   0.985   9.128
 1495POPC   C1A23463  18.221   1.327   8.762
 1495POPC   D2A23464  18.360   1.020   8.485
 1495POPC   C3A23465  18.197   1.177   8.101
 1495POPC   C4A23466  18.014   1.167   7.718
 1495POPC   C1B23467  18.714   1.263   8.944
 1495POPC   C2B23468  18.761   1.400   8.522
 1495POPC   C3B23469  18.691   1.202   8.131
 1495POPC   C4B23470  18.483   1.405   7.749
 1496POPC   NC323471   5.458   9.723   9.600
 1496POPC   PO423472   6.035   9.434   9.582
 1496POPC   GL123473   5.863   9.726   9.247
 1496POPC   GL223474   6.075  10.014   9.128
 1496POPC   C1A23475   5.657   9.888   8.854
 1496POPC   D2A23476   5.777   9.754   8.439
 1496POPC   C3A23477   5.646   9.880   8.063
 1496POPC   C4A23478   5.872   9.842   7.691
 1496POPC   C1B23479   6.125  10.269   8.775
 1496POPC   C2B23480   5.992  10.220   8.350
 1496POPC   C3B23481   6.178  10.175   7.941
 1496POPC   C4B23482   6.318  10.054   7.496
 1497POPC   NC323483  41.884  14.665   9.431
 1497POPC   PO423484  42.560  14.386   9.473
 1497POPC   GL123485  42.374  14.339   9.105
 1497POPC   GL223486  42.102  14.139   9.101
 1497POPC   C1A23487  42.438  14.238   8.698
 1497POPC   D2A23488  42.297  14.475   8.345
 1497POPC   C3A23489  42.555  14.346   7.990
 1497POPC   C4A23490  42.612  14.413   7.559
 1497POPC   C1B23491  41.930  14.311   8.717
 1497POPC   C2B23492  41.858  14.218   8.273
 1497POPC   C3B23493  42.059  14.403   7.872
 1497POPC   C4B23494  42.141  14.203   7.430
 1498POPC   NC323495  14.940  28.527   9.477
 1498POPC   PO423496  15.504  28.199   9.341
 1498POPC   GL123497  15.321  28.522   9.097
 1498POPC   GL223498  15.120  28.306   8.916
 1498POPC   C1A23499  15.191  28.700   8.653
 1498POPC   D2A23500  15.026  28.405   8.304
 1498POPC   C3A23501  15.239  28.473   7.929
 1498POPC   C4A23502  15.318  28.637   7.532
 1498POPC   C1B23503  14.713  28.278   8.670
 1498POPC   C2B23504  14.627  28.060   8.302
 1498POPC   C3B23505  14.774  28.171   7.895
 1498POPC   C4B23506  15.037  28.190   7.533
 1499POPC   NC323507  11.917  28.947   9.517
 1499POPC   PO423508  12.419  29.436   9.356
 1499POPC   GL123509  12.295  29.048   9.147
 1499POPC   GL223510  11.978  29.097   9.014
 1499POPC   C1A23511  12.357  28.934   8.701
 1499POPC   D2A23512  12.059  28.917   8.335
 1499POPC   C3A23513  12.189  29.151   7.964
 1499POPC   C4A23514  12.555  28.894   7.935
 1499POPC   C1B23515  12.081  29.377   8.656
 1499POPC   C2B23516  11.800  29.378   8.285
 1499POPC   C3B23517  11.676  29.040   8.003
 1499POPC   C4B23518  11.775  29.185   7.623
 1500POPC   NC323519  21.132  43.590   9.438
 1500POPC   PO423520  21.558  44.097   9.642
 1500POPC   GL123521  21.523  43.954   9.209
 1500POPC   GL223522  21.208  43.978   9.098
 1500POPC   C1A23523  21.537  43.977   8.718
 1500POPC   D2A23524  21.295  44.207   8.363
 1500POPC   C3A23525  21.581  44.134   8.019
 1500POPC   C4A23526  21.548  43.733   7.936
 1500POPC   C1B23527  21.138  43.659   8.769
 1500POPC   C2B23528  21.032  43.369   8.450
 1500POPC   C3B23529  21.069  43.504   8.027
 1500POPC   C4B23530  21.068  43.940   7.955
 1501POPC   NC323531  11.070  25.446   9.653
 1501POPC   PO423532  11.595  25.005   9.541
 1501POPC   GL123533  11.456  25.305   9.252
 1501POPC   GL223534  11.499  25.056   9.008
 1501POPC   C1A23535  11.198  25.459   8.894
 1501POPC   D2A23536  11.267  25.600   8.455
 1501POPC   C3A23537  11.115  25.353   8.088
 1501POPC   C4A23538  11.263  25.234   7.676
 1501POPC   C1B23539  11.680  25.364   8.735
 1501POPC   C2B23540  11.805  25.538   8.337
 1501POPC   C3B23541  11.568  25.606   7.960
 1501POPC   C4B23542  11.581  25.598   7.508
 1502POPC   NC323543  10.778  37.096   9.354
 1502POPC   PO423544  10.118  37.258   9.385
 1502POPC   GL123545  10.336  37.054   9.098
 1502POPC   GL223546  10.316  36.713   9.202
 1502POPC   C1A23547  10.445  36.954   8.709
 1502POPC   D2A23548  10.244  36.733   8.388
 1502POPC   C3A23549  10.174  36.960   8.023
 1502POPC   C4A23550  10.483  36.948   7.736
 1502POPC   C1B23551  10.494  36.480   8.875
 1502POPC   C2B23552  10.731  36.595   8.500
 1502POPC   C3B23553  10.630  36.590   8.073
 1502POPC   C4B23554  10.882  36.639   7.681
 1503POPC   NC323555   6.934   7.589   9.227
 1503POPC   PO423556   6.441   7.096   9.234
 1503POPC   GL123557   6.451   7.471   9.045
 1503POPC   GL223558   6.716   7.404   8.808
 1503POPC   C1A23559   6.394   7.871   8.826
 1503POPC   D2A23560   6.324   7.854   8.371
 1503POPC   C3A23561   6.556   7.512   8.172
 1503POPC   C4A23562   6.557   7.391   7.751
 1503POPC   C1B23563   6.417   7.187   8.585
 1503POPC   C2B23564   6.316   6.867   8.312
 1503POPC   C3B23565   6.254   6.967   7.890
 1503POPC   C4B23566   6.206   6.856   7.455
 1504POPC   NC323567  31.931   1.442   9.486
 1504POPC   PO423568  31.249   1.198   9.444
 1504POPC   GL123569  31.505   1.405   9.187
 1504POPC   GL223570  31.776   1.208   9.064
 1504POPC   C1A23571  31.411   1.559   8.800
 1504POPC   D2A23572  31.189   1.401   8.439
 1504POPC   C3A23573  31.442   1.200   8.112
 1504POPC   C4A23574  31.371   1.191   7.662
 1504POPC   C1B23575  31.512   1.050   8.756
 1504POPC   C2B23576  31.707   0.880   8.408
 1504POPC   C3B23577  31.800   0.736   8.006
 1504POPC   C4B23578  31.550   0.717   7.652
 1505POPC   NC323579  44.025  20.863   9.516
 1505POPC   PO423580  43.984  20.225   9.398
 1505POPC   GL123581  44.060  20.563   9.104
 1505POPC   GL223582  43.784  20.855   9.072
 1505POPC   C1A23583  43.886  20.522   8.710
 1505POPC   D2A23584  43.743  20.719   8.338
 1505POPC   C3A23585  43.919  20.640   7.943
 1505POPC   C4A23586  44.113  20.309   7.697
 1505POPC   C1B23587  44.081  20.999   8.729
 1505POPC   C2B23588  44.145  21.032   8.265
 1505POPC   C3B23589  44.147  21.062   7.790
 1505POPC   C4B23590  43.800  20.949   7.471
 1506POPC   NC323591  40.314  14.004   9.357
 1506POPC   PO423592  39.816  14.493   9.484
 1506POPC   GL123593  39.933  14.315   9.136
 1506POPC   GL223594  40.235  14.460   9.104
 1506POPC   C1A23595  39.865  14.425   8.727
 1506POPC   D2A23596  40.078  14.527   8.358
 1506POPC   C3A23597  39.793  14.428   8.010
 1506POPC   C4A23598  39.849  14.238   7.590
 1506POPC   C1B23599  40.344  14.229   8.718
 1506POPC   C2B23600  40.455  14.037   8.318
 1506POPC   C3B23601  40.236  14.170   7.949
 1506POPC   C4B23602  40.258  14.521   7.638
 1507POPC   NC323603  11.470  10.420   9.646
 1507POPC   PO423604  10.851  10.532   9.560
 1507POPC   GL123605  11.199  10.533   9.228
 1507POPC   GL223606  11.426  10.827   9.260
 1507POPC   C1A23607  11.352  10.417   8.812
 1507POPC   D2A23608  11.196  10.258   8.404
 1507POPC   C3A23609  11.287  10.454   8.009
 1507POPC   C4A23610  11.569  10.349   7.667
 1507POPC   C1B23611  11.127  10.919   8.897
 1507POPC   C2B23612  11.090  10.777   8.458
 1507POPC   C3B23613  10.935  10.873   8.045
 1507POPC   C4B23614  11.083  10.815   7.667
 1508POPC   NC323615  13.404  27.461   9.300
 1508POPC   PO423616  13.908  27.844   9.542
 1508POPC   GL123617  13.905  27.796   9.083
 1508POPC   GL223618  13.657  28.013   8.937
 1508POPC   C1A23619  13.909  27.615   8.637
 1508POPC   D2A23620  13.622  27.383   8.322
 1508POPC   C3A23621  13.641  27.423   7.853
 1508POPC   C4A23622  13.931  27.146   7.618
 1508POPC   C1B23623  13.438  27.830   8.549
 1508POPC   C2B23624  13.547  27.862   8.099
 1508POPC   C3B23625  13.476  27.963   7.657
 1508POPC   C4B23626  13.301  27.873   7.219
 1509POPC   NC323627  27.358  44.490   9.706
 1509POPC   PO423628  27.802  44.975   9.481
 1509POPC   GL123629  27.538  44.712   9.242
 1509POPC   GL223630  27.580  44.328   9.268
 1509POPC   C1A23631  27.570  44.866   8.814
 1509POPC   D2A23632  27.706  44.799   8.421
 1509POPC   C3A23633  27.410  44.844   8.129
 1509POPC   C4A23634  27.471  44.790   7.730
 1509POPC   C1B23635  27.843  44.459   8.891
 1509POPC   C2B23636  27.891  44.328   8.485
 1509POPC   C3B23637  27.718  44.405   8.081
 1509POPC   C4B23638  27.858  44.466   7.690
 1510POPC   NC323639  10.059  40.195   9.588
 1510POPC   PO423640  10.678  40.011   9.507
 1510POPC   GL123641  10.536  39.856   9.130
 1510POPC   GL223642  10.297  40.090   9.144
 1510POPC   C1A23643  10.387  39.936   8.694
 1510POPC   D2A23644  10.289  40.234   8.440
 1510POPC   C3A23645  10.237  40.014   8.122
 1510POPC   C4A23646  10.320  40.024   7.709
 1510POPC   C1B23647  10.604  40.357   8.919
 1510POPC   C2B23648  10.738  40.441   8.501
 1510POPC   C3B23649  10.661  40.301   8.100
 1510POPC   C4B23650  10.848  40.096   7.779
 1511POPC   NC323651   8.576   5.905   9.535
 1511POPC   PO423652   7.898   5.720   9.506
 1511POPC   GL123653   8.061   5.947   9.214
 1511POPC   GL223654   8.284   5.736   9.077
 1511POPC   C1A23655   8.023   6.068   8.788
 1511POPC   D2A23656   8.212   5.823   8.484
 1511POPC   C3A23657   8.134   5.824   8.056
 1511POPC   C4A23658   8.034   6.122   7.719
 1511POPC   C1B23659   7.963   5.533   8.816
 1511POPC   C2B23660   7.885   5.415   8.388
 1511POPC   C3B23661   7.990   5.326   7.949
 1511POPC   C4B23662   7.948   5.632   7.583
 1512POPC   NC323663  26.085  29.323   9.600
 1512POPC   PO423664  25.857  28.747   9.554
 1512POPC   GL123665  25.964  29.048   9.187
 1512POPC   GL223666  25.823  29.405   9.145
 1512POPC   C1A23667  25.978  28.979   8.752
 1512POPC   D2A23668  25.948  29.121   8.329
 1512POPC   C3A23669  26.176  28.899   8.002
 1512POPC   C4A23670  26.136  28.919   7.562
 1512POPC   C1B23671  25.831  29.474   8.698
 1512POPC   C2B23672  25.847  29.651   8.274
 1512POPC   C3B23673  26.112  29.452   7.912
 1512POPC   C4B23674  26.002  29.387   7.451
 1513POPC   NC323675   7.974  33.209   9.497
 1513POPC   PO423676   8.456  32.697   9.369
 1513POPC   GL123677   8.208  32.930   9.114
 1513POPC   GL223678   8.395  33.244   9.068
 1513POPC   C1A23679   8.228  32.903   8.681
 1513POPC   D2A23680   8.401  33.138   8.370
 1513POPC   C3A23681   8.342  32.916   7.994
 1513POPC   C4A23682   8.286  33.074   7.601
 1513POPC   C1B23683   8.012  33.343   8.822
 1513POPC   C2B23684   7.882  33.190   8.399
 1513POPC   C3B23685   7.974  33.314   7.962
 1513POPC   C4B23686   7.842  33.273   7.478
 1514POPC   NC323687  16.526  10.739   9.987
 1514POPC   PO423688  16.987  10.365   9.667
 1514POPC   GL123689  16.946  10.478   9.238
 1514POPC   GL223690  17.280  10.338   9.171
 1514POPC   C1A23691  16.676  10.566   8.868
 1514POPC   D2A23692  16.623  10.366   8.440
 1514POPC   C3A23693  16.389  10.657   8.180
 1514POPC   C4A23694  16.187  10.653   7.764
 1514POPC   C1B23695  17.067  10.277   8.762
 1514POPC   C2B23696  17.070  10.079   8.348
 1514POPC   C3B23697  16.896  10.209   7.955
 1514POPC   C4B23698  16.704  10.581   7.787
 1515POPC   NC323699   7.167   7.728   9.755
 1515POPC   PO423700   7.481   8.263   9.496
 1515POPC   GL123701   7.493   8.447   9.089
 1515POPC   GL223702   7.790   8.344   8.903
 1515POPC   C1A23703   7.351   8.388   8.660
 1515POPC   D2A23704   7.625   8.310   8.311
 1515POPC   C3A23705   7.389   8.085   8.004
 1515POPC   C4A23706   7.269   8.246   7.637
 1515POPC   C1B23707   7.739   7.925   8.757
 1515POPC   C2B23708   7.620   7.789   8.358
 1515POPC   C3B23709   7.841   7.817   7.980
 1515POPC   C4B23710   7.674   7.918   7.596
 1516POPC   NC323711   6.604   6.741   9.510
 1516POPC   PO423712   7.168   7.314   9.515
 1516POPC   GL123713   6.946   6.980   9.174
 1516POPC   GL223714   6.876   6.566   9.126
 1516POPC   C1A23715   6.745   6.830   8.738
 1516POPC   D2A23716   6.841   6.605   8.377
 1516POPC   C3A23717   6.715   6.743   7.984
 1516POPC   C4A23718   6.411   6.454   7.781
 1516POPC   C1B23719   7.056   6.302   8.777
 1516POPC   C2B23720   7.198   6.239   8.345
 1516POPC   C3B23721   6.927   6.270   7.970
 1516POPC   C4B23722   6.920   6.480   7.567
 1517POPC   NC323723  21.517   4.811   9.531
 1517POPC   PO423724  21.415   5.477   9.545
 1517POPC   GL123725  21.644   5.320   9.175
 1517POPC   GL223726  21.379   5.078   9.124
 1517POPC   C1A23727  21.528   5.332   8.710
 1517POPC   D2A23728  21.159   5.296   8.419
 1517POPC   C3A23729  21.325   5.241   7.996
 1517POPC   C4A23730  21.615   5.454   7.730
 1517POPC   C1B23731  21.261   4.875   8.739
 1517POPC   C2B23732  21.419   4.850   8.342
 1517POPC   C3B23733  21.620   4.841   7.972
 1517POPC   C4B23734  21.497   4.984   7.538
 1518POPC   NC323735  31.795  19.254   9.522
 1518POPC   PO423736  31.241  18.977   9.631
 1518POPC   GL123737  31.566  18.898   9.213
 1518POPC   GL223738  31.771  19.142   9.035
 1518POPC   C1A23739  31.532  18.714   8.813
 1518POPC   D2A23740  31.278  18.783   8.437
 1518POPC   C3A23741  31.442  19.089   8.140
 1518POPC   C4A23742  31.257  19.271   7.769
 1518POPC   C1B23743  31.717  19.129   8.593
 1518POPC   C2B23744  31.781  18.743   8.369
 1518POPC   C3B23745  31.752  18.691   7.965
 1518POPC   C4B23746  31.720  19.025   7.705
 1519POPC   NC323747  27.121  26.586   9.567
 1519POPC   PO423748  26.614  26.984   9.506
 1519POPC   GL123749  26.742  26.712   9.221
 1519POPC   GL223750  26.673  26.994   8.985
 1519POPC   C1A23751  26.945  26.583   8.856
 1519POPC   D2A23752  26.858  26.845   8.518
 1519POPC   C3A23753  26.693  26.745   8.123
 1519POPC   C4A23754  26.976  26.588   7.817
 1519POPC   C1B23755  26.967  27.276   8.820
 1519POPC   C2B23756  27.138  27.295   8.423
 1519POPC   C3B23757  27.061  27.083   8.063
 1519POPC   C4B23758  27.157  27.083   7.670
 1520POPC   NC323759  30.482  32.212   9.583
 1520POPC   PO423760  31.195  32.198   9.505
 1520POPC   GL123761  30.927  31.968   9.201
 1520POPC   GL223762  30.536  31.895   9.193
 1520POPC   C1A23763  30.812  32.052   8.783
 1520POPC   D2A23764  30.638  32.389   8.525
 1520POPC   C3A23765  30.740  32.316   8.097
 1520POPC   C4A23766  30.790  32.071   7.730
 1520POPC   C1B23767  30.321  31.893   8.792
 1520POPC   C2B23768  30.458  31.922   8.361
 1520POPC   C3B23769  30.330  32.015   7.935
 1520POPC   C4B23770  30.199  32.384   7.744
 1521POPC   NC323771  40.484  21.071   9.366
 1521POPC   PO423772  40.462  21.782   9.455
 1521POPC   GL123773  40.784  21.528   9.159
 1521POPC   GL223774  40.900  21.188   9.049
 1521POPC   C1A23775  41.022  21.637   8.773
 1521POPC   D2A23776  41.070  21.605   8.319
 1521POPC   C3A23777  40.851  21.299   8.085
 1521POPC   C4A23778  41.091  21.066   7.811
 1521POPC   C1B23779  40.608  21.326   8.707
 1521POPC   C2B23780  40.375  21.359   8.312
 1521POPC   C3B23781  40.393  21.282   7.847
 1521POPC   C4B23782  40.679  21.299   7.490
 1522POPC   NC323783  23.754  43.683   9.446
 1522POPC   PO423784  23.261  43.964   9.711
 1522POPC   GL123785  23.351  43.959   9.196
 1522POPC   GL223786  23.662  44.083   9.145
 1522POPC   C1A23787  23.609  43.851   8.714
 1522POPC   D2A23788  23.889  44.014   8.340
 1522POPC   C3A23789  23.875  44.097   7.878
 1522POPC   C4A23790  23.718  43.804   7.573
 1522POPC   C1B23791  23.416  44.289   8.807
 1522POPC   C2B23792  23.604  44.416   8.462
 1522POPC   C3B23793  23.570  44.459   8.078
 1522POPC   C4B23794  23.415  44.486   7.697
 1523POPC   NC323795  24.084  35.439   9.458
 1523POPC   PO423796  23.648  35.006   9.682
 1523POPC   GL123797  23.568  35.174   9.244
 1523POPC   GL223798  23.408  34.926   9.077
 1523POPC   C1A23799  23.764  35.216   8.794
 1523POPC   D2A23800  23.965  35.325   8.381
 1523POPC   C3A23801  23.672  35.556   8.108
 1523POPC   C4A23802  23.620  35.580   7.686
 1523POPC   C1B23803  23.460  34.828   8.672
 1523POPC   C2B23804  23.526  35.095   8.308
 1523POPC   C3B23805  23.729  35.093   7.894
 1523POPC   C4B23806  23.615  35.148   7.439
 1524POPC   NC323807   0.491  24.181   9.770
 1524POPC   PO423808   0.016  23.781   9.635
 1524POPC   GL123809   0.067  23.666   9.146
 1524POPC   GL223810   0.375  23.777   9.095
 1524POPC   C1A23811   0.151  23.605   8.682
 1524POPC   D2A23812   0.481  23.351   8.484
 1524POPC   C3A23813   0.453  23.377   8.051
 1524POPC   C4A23814   0.192  23.641   7.835
 1524POPC   C1B23815   0.632  23.790   8.727
 1524POPC   C2B23816   0.754  23.984   8.337
 1524POPC   C3B23817   0.639  23.862   7.919
 1524POPC   C4B23818   0.505  23.946   7.477
 1525POPC   NC323819  24.258  24.717   9.493
 1525POPC   PO423820  24.863  24.661   9.417
 1525POPC   GL123821  24.560  24.631   9.095
 1525POPC   GL223822  24.464  24.981   9.094
 1525POPC   C1A23823  24.324  24.621   8.683
 1525POPC   D2A23824  24.212  24.547   8.229
 1525POPC   C3A23825  24.538  24.412   7.930
 1525POPC   C4A23826  24.674  24.401   7.473
 1525POPC   C1B23827  24.722  24.942   8.738
 1525POPC   C2B23828  24.682  24.756   8.315
 1525POPC   C3B23829  24.640  24.910   7.872
 1525POPC   C4B23830  24.765  24.912   7.435
 1526POPC   NC323831  25.623   1.446   9.453
 1526POPC   PO423832  25.082   1.120   9.501
 1526POPC   GL123833  25.209   1.350   9.146
 1526POPC   GL223834  25.545   1.238   9.007
 1526POPC   C1A23835  25.218   1.517   8.738
 1526POPC   D2A23836  25.480   1.303   8.435
 1526POPC   C3A23837  25.336   1.350   8.022
 1526POPC   C4A23838  25.099   1.377   7.661
 1526POPC   C1B23839  25.809   0.998   8.756
 1526POPC   C2B23840  25.719   0.821   8.370
 1526POPC   C3B23841  25.745   1.033   7.996
 1526POPC   C4B23842  25.590   1.189   7.579
 1527POPC   NC323843   5.258  17.515   9.620
 1527POPC   PO423844   4.647  17.632   9.437
 1527POPC   GL123845   4.959  17.509   9.170
 1527POPC   GL223846   5.200  17.772   9.151
 1527POPC   C1A23847   5.091  17.481   8.746
 1527POPC   D2A23848   5.132  17.736   8.380
 1527POPC   C3A23849   5.005  17.623   7.972
 1527POPC   C4A23850   5.131  17.331   7.655
 1527POPC   C1B23851   5.477  17.834   8.779
 1527POPC   C2B23852   5.543  18.009   8.368
 1527POPC   C3B23853   5.503  17.778   7.980
 1527POPC   C4B23854   5.288  17.811   7.587
 1528POPC   NC323855   0.651  18.376   9.420
 1528POPC   PO423856  44.998  18.285   9.558
 1528POPC   GL123857   0.230  18.233   9.143
 1528POPC   GL223858   0.546  18.007   9.076
 1528POPC   C1A23859   0.342  18.348   8.723
 1528POPC   D2A23860   0.140  18.373   8.367
 1528POPC   C3A23861   0.330  18.328   8.026
 1528POPC   C4A23862   0.105  18.506   7.724
 1528POPC   C1B23863   0.817  18.179   8.706
 1528POPC   C2B23864   0.770  18.301   8.251
 1528POPC   C3B23865   0.764  18.389   7.797
 1528POPC   C4B23866   0.874  18.119   7.442
 1529POPC   NC323867  20.784   6.141   9.514
 1529POPC   PO423868  20.497   6.733   9.623
 1529POPC   GL123869  20.520   6.718   9.221
 1529POPC   GL223870  20.855   6.786   9.211
 1529POPC   C1A23871  20.371   6.574   8.840
 1529POPC   D2A23872  20.372   6.768   8.449
 1529POPC   C3A23873  20.571   6.579   8.084
 1529POPC   C4A23874  20.440   6.599   7.659
 1529POPC   C1B23875  20.870   6.686   8.781
 1529POPC   C2B23876  20.912   6.883   8.388
 1529POPC   C3B23877  20.951   6.908   7.967
 1529POPC   C4B23878  20.955   6.576   7.658
 1530POPC   NC323879  40.032  11.039   9.633
 1530POPC   PO423880  39.699  11.542   9.352
 1530POPC   GL123881  39.620  11.496   8.946
 1530POPC   GL223882  39.727  11.167   8.911
 1530POPC   C1A23883  39.836  11.558   8.539
 1530POPC   D2A23884  40.090  11.296   8.258
 1530POPC   C3A23885  40.038  11.358   7.838
 1530POPC   C4A23886  39.718  11.598   7.677
 1530POPC   C1B23887  40.155  11.137   8.736
 1530POPC   C2B23888  40.247  10.840   8.379
 1530POPC   C3B23889  40.223  10.893   7.925
 1530POPC   C4B23890  40.097  11.005   7.464
 1531POPC   NC323891  38.646  36.086   9.854
 1531POPC   PO423892  38.044  36.171   9.601
 1531POPC   GL123893  38.295  36.007   9.247
 1531POPC   GL223894  38.650  36.133   9.273
 1531POPC   C1A23895  38.490  35.811   8.887
 1531POPC   D2A23896  38.577  36.001   8.486
 1531POPC   C3A23897  38.487  35.863   8.093
 1531POPC   C4A23898  38.634  35.745   7.713
 1531POPC   C1B23899  38.547  36.330   8.877
 1531POPC   C2B23900  38.575  36.538   8.507
 1531POPC   C3B23901  38.509  36.375   8.124
 1531POPC   C4B23902  38.608  36.265   7.729
 1532POPC   NC323903  38.752  17.389   9.544
 1532POPC   PO423904  39.345  17.786   9.519
 1532POPC   GL123905  39.368  17.564   9.134
 1532POPC   GL223906  39.069  17.367   9.147
 1532POPC   C1A23907  39.256  17.706   8.724
 1532POPC   D2A23908  39.087  17.538   8.345
 1532POPC   C3A23909  39.388  17.481   8.008
 1532POPC   C4A23910  39.461  17.653   7.587
 1532POPC   C1B23911  39.194  17.184   8.785
 1532POPC   C2B23912  39.103  17.014   8.408
 1532POPC   C3B23913  38.980  17.157   8.014
 1532POPC   C4B23914  39.146  17.263   7.625
 1533POPC   NC323915  21.811  28.189   9.290
 1533POPC   PO423916  22.398  28.287   9.503
 1533POPC   GL123917  22.272  28.372   9.105
 1533POPC   GL223918  21.965  28.542   8.967
 1533POPC   C1A23919  22.360  28.331   8.688
 1533POPC   D2A23920  22.054  28.566   8.473
 1533POPC   C3A23921  21.925  28.425   8.108
 1533POPC   C4A23922  22.069  28.468   7.690
 1533POPC   C1B23923  21.871  28.123   8.660
 1533POPC   C2B23924  21.729  27.926   8.242
 1533POPC   C3B23925  21.747  28.071   7.789
 1533POPC   C4B23926  21.583  28.421   7.502
 1534POPC   NC323927   1.235  27.324   9.379
 1534POPC   PO423928   0.936  27.862   9.475
 1534POPC   GL123929   0.996  27.729   9.077
 1534POPC   GL223930   1.343  27.730   9.009
 1534POPC   C1A23931   0.976  27.452   8.746
 1534POPC   D2A23932   1.120  27.405   8.327
 1534POPC   C3A23933   1.198  27.664   7.986
 1534POPC   C4A23934   1.244  27.426   7.619
 1534POPC   C1B23935   1.499  27.457   8.673
 1534POPC   C2B23936   1.609  27.247   8.277
 1534POPC   C3B23937   1.711  27.463   7.877
 1534POPC   C4B23938   1.641  27.782   7.522
 1535POPC   NC323939  40.055  24.744   9.263
 1535POPC   PO423940  40.212  24.184   9.633
 1535POPC   GL123941  40.148  24.261   9.133
 1535POPC   GL223942  39.826  24.291   8.965
 1535POPC   C1A23943  40.178  24.417   8.654
 1535POPC   D2A23944  40.098  24.224   8.243
 1535POPC   C3A23945  40.245  24.427   7.855
 1535POPC   C4A23946  40.260  24.412   7.367
 1535POPC   C1B23947  39.632  24.560   8.678
 1535POPC   C2B23948  39.769  24.660   8.290
 1535POPC   C3B23949  39.752  24.510   7.893
 1535POPC   C4B23950  39.920  24.729   7.535
 1536POPC   NC323951  18.823  28.744   9.592
 1536POPC   PO423952  19.230  29.247   9.721
 1536POPC   GL123953  19.184  29.055   9.309
 1536POPC   GL223954  18.861  28.975   9.117
 1536POPC   C1A23955  19.318  29.117   8.881
 1536POPC   D2A23956  19.161  29.170   8.457
 1536POPC   C3A23957  19.386  28.955   8.105
 1536POPC   C4A23958  19.223  28.870   7.646
 1536POPC   C1B23959  18.649  28.870   8.705
 1536POPC   C2B23960  18.827  28.770   8.293
 1536POPC   C3B23961  18.897  29.039   7.976
 1536POPC   C4B23962  18.755  29.412   7.810
 1537POPC   NC323963  43.017  12.331   9.450
 1537POPC   PO423964  42.735  11.820   9.695
 1537POPC   GL123965  42.914  11.877   9.231
 1537POPC   GL223966  43.233  12.026   9.127
 1537POPC   C1A23967  42.856  12.082   8.802
 1537POPC   D2A23968  43.047  12.212   8.423
 1537POPC   C3A23969  42.863  12.044   8.072
 1537POPC   C4A23970  42.838  12.052   7.668
 1537POPC   C1B23971  43.289  11.751   8.799
 1537POPC   C2B23972  43.438  11.845   8.388
 1537POPC   C3B23973  43.470  12.190   8.114
 1537POPC   C4B23974  43.309  12.210   7.733
 1538POPC   NC323975  43.528   6.741   9.431
 1538POPC   PO423976  43.951   6.264   9.396
 1538POPC   GL123977  43.951   6.640   9.165
 1538POPC   GL223978  44.266   6.783   9.178
 1538POPC   C1A23979  43.818   6.833   8.789
 1538POPC   D2A23980  43.903   6.748   8.398
 1538POPC   C3A23981  43.683   6.920   8.082
 1538POPC   C4A23982  43.692   6.729   7.676
 1538POPC   C1B23983  44.263   6.532   8.770
 1538POPC   C2B23984  44.319   6.450   8.334
 1538POPC   C3B23985  44.138   6.631   7.953
 1538POPC   C4B23986  44.160   6.567   7.517
 1539POPC   NC323987  31.956  10.532   9.356
 1539POPC   PO423988  31.382  10.252   9.757
 1539POPC   GL123989  31.330  10.268   9.223
 1539POPC   GL223990  31.573  10.496   9.022
 1539POPC   C1A23991  31.195  10.326   8.751
 1539POPC   D2A23992  31.415  10.361   8.338
 1539POPC   C3A23993  31.246  10.477   7.948
 1539POPC   C4A23994  31.099  10.147   7.732
 1539POPC   C1B23995  31.774  10.725   8.676
 1539POPC   C2B23996  31.715  10.774   8.226
 1539POPC   C3B23997  31.786  10.450   7.942
 1539POPC   C4B23998  32.039  10.446   7.582
 1540POPC   NC323999  11.861  24.461   9.651
 1540POPC   PO424000  12.340  24.873   9.724
 1540POPC   GL124001  12.195  24.714   9.289
 1540POPC   GL224002  11.827  24.675   9.192
 1540POPC   C1A24003  12.275  24.508   8.861
 1540POPC   D2A24004  12.265  24.225   8.497
 1540POPC   C3A24005  12.223  24.323   8.047
 1540POPC   C4A24006  12.310  24.581   7.675
 1540POPC   C1B24007  11.802  24.311   8.891
 1540POPC   C2B24008  11.760  24.208   8.471
 1540POPC   C3B24009  11.706  24.322   8.053
 1540POPC   C4B24010  11.822  24.101   7.694
 1541POPC   NC324011  16.420  21.978   9.745
 1541POPC   PO424012  16.541  22.528   9.319
 1541POPC   GL124013  16.853  22.336   9.080
 1541POPC   GL224014  17.040  22.059   9.264
 1541POPC   C1A24015  16.715  22.242   8.675
 1541POPC   D2A24016  16.430  21.994   8.440
 1541POPC   C3A24017  16.467  22.124   8.031
 1541POPC   C4A24018  16.801  22.229   7.697
 1541POPC   C1B24019  17.137  21.940   8.824
 1541POPC   C2B24020  16.996  21.961   8.365
 1541POPC   C3B24021  16.918  21.786   7.961
 1541POPC   C4B24022  16.951  21.764   7.489
 1542POPC   NC324023   1.320  23.621   9.575
 1542POPC   PO424024   0.656  23.823   9.520
 1542POPC   GL124025   0.942  23.750   9.115
 1542POPC   GL224026   1.296  23.787   9.095
 1542POPC   C1A24027   1.124  23.743   8.631
 1542POPC   D2A24028   1.276  24.022   8.300
 1542POPC   C3A24029   1.118  24.039   7.906
 1542POPC   C4A24030   1.023  23.709   7.639
 1542POPC   C1B24031   1.371  23.378   8.903
 1542POPC   C2B24032   1.288  23.260   8.474
 1542POPC   C3B24033   1.240  23.522   8.107
 1542POPC   C4B24034   1.449  23.467   7.720
 1543POPC   NC324035  35.047  24.241   9.604
 1543POPC   PO424036  35.515  24.721   9.460
 1543POPC   GL124037  35.549  24.606   9.026
 1543POPC   GL224038  35.387  24.922   8.886
 1543POPC   C1A24039  35.456  24.210   8.790
 1543POPC   D2A24040  35.337  24.129   8.375
 1543POPC   C3A24041  35.434  24.430   8.073
 1543POPC   C4A24042  35.646  24.168   7.798
 1543POPC   C1B24043  35.195  24.605   8.577
 1543POPC   C2B24044  34.922  24.385   8.251
 1543POPC   C3B24045  34.979  24.457   7.816
 1543POPC   C4B24046  35.272  24.717   7.612
 1544POPC   NC324047  10.290  17.659   9.466
 1544POPC   PO424048  10.624  17.049   9.449
 1544POPC   GL124049  10.643  17.402   9.165
 1544POPC   GL224050  10.318  17.383   9.052
 1544POPC   C1A24051  10.663  17.633   8.757
 1544POPC   D2A24052  10.529  17.834   8.363
 1544POPC   C3A24053  10.688  17.800   7.907
 1544POPC   C4A24054  10.411  17.744   7.543
 1544POPC   C1B24055  10.223  17.178   8.713
 1544POPC   C2B24056  10.392  17.089   8.314
 1544POPC   C3B24057  10.446  17.344   7.963
 1544POPC   C4B24058  10.052  17.283   7.766
 1545POPC   NC324059  41.677  33.995   9.464
 1545POPC   PO424060  41.269  33.469   9.428
 1545POPC   GL124061  41.320  33.752   9.120
 1545POPC   GL224062  41.358  33.482   8.919
 1545POPC   C1A24063  41.450  33.964   8.734
 1545POPC   D2A24064  41.414  33.938   8.285
 1545POPC   C3A24065  41.470  34.181   7.900
 1545POPC   C4A24066  41.475  34.016   7.472
 1545POPC   C1B24067  41.695  33.497   8.644
 1545POPC   C2B24068  41.652  33.490   8.211
 1545POPC   C3B24069  41.534  33.683   7.867
 1545POPC   C4B24070  41.719  33.533   7.614
 1546POPC   NC324071   0.064   3.676   9.571
 1546POPC   PO424072  44.517   3.254   9.488
 1546POPC   GL124073  44.566   3.416   9.121
 1546POPC   GL224074  44.711   3.706   9.197
 1546POPC   C1A24075  44.608   3.252   8.715
 1546POPC   D2A24076  44.583   3.070   8.291
 1546POPC   C3A24077  44.448   3.362   7.971
 1546POPC   C4A24078  44.510   3.581   7.564
 1546POPC   C1B24079  44.844   3.750   8.774
 1546POPC   C2B24080  44.902   3.919   8.336
 1546POPC   C3B24081  44.855   3.708   7.953
 1546POPC   C4B24082   0.066   3.720   7.539
 1547POPC   NC324083   2.321  35.940   9.766
 1547POPC   PO424084   2.861  36.279   9.564
 1547POPC   GL124085   3.041  36.141   9.209
 1547POPC   GL224086   2.764  36.267   9.046
 1547POPC   C1A24087   3.151  36.145   8.775
 1547POPC   D2A24088   2.982  36.327   8.405
 1547POPC   C3A24089   3.064  36.153   8.007
 1547POPC   C4A24090   3.195  36.375   7.678
 1547POPC   C1B24091   2.663  36.010   8.671
 1547POPC   C2B24092   2.521  36.187   8.269
 1547POPC   C3B24093   2.579  36.323   7.868
 1547POPC   C4B24094   2.332  36.145   7.541
 1548POPC   NC324095  22.587   3.415   9.730
 1548POPC   PO424096  21.948   3.695   9.540
 1548POPC   GL124097  22.078   3.646   9.099
 1548POPC   GL224098  21.833   3.930   9.051
 1548POPC   C1A24099  22.251   3.390   8.691
 1548POPC   D2A24100  22.141   3.128   8.321
 1548POPC   C3A24101  22.122   3.347   7.923
 1548POPC   C4A24102  22.437   3.662   7.926
 1548POPC   C1B24103  21.874   3.724   8.637
 1548POPC   C2B24104  22.055   3.787   8.250
 1548POPC   C3B24105  21.876   3.802   7.848
 1548POPC   C4B24106  21.708   3.849   7.407
 1549POPC   NC324107  44.952  21.158   9.586
 1549POPC   PO424108  44.415  21.617   9.522
 1549POPC   GL124109  44.639  21.391   9.194
 1549POPC   GL224110  44.668  21.653   8.966
 1549POPC   C1A24111  44.568  21.167   8.789
 1549POPC   D2A24112  44.631  20.971   8.394
 1549POPC   C3A24113  44.576  21.207   8.040
 1549POPC   C4A24114  44.645  21.109   7.615
 1549POPC   C1B24115  44.999  21.440   8.798
 1549POPC   C2B24116  44.818  21.463   8.411
 1549POPC   C3B24117  44.982  21.523   8.016
 1549POPC   C4B24118  44.881  21.579   7.597
 1550POPC   NC324119  26.613  25.725   9.545
 1550POPC   PO424120  26.755  26.328   9.616
 1550POPC   GL124121  26.600  26.188   9.207
 1550POPC   GL224122  26.872  25.961   9.179
 1550POPC   C1A24123  26.698  26.150   8.744
 1550POPC   D2A24124  26.903  26.338   8.382
 1550POPC   C3A24125  26.674  26.204   8.041
 1550POPC   C4A24126  26.583  25.981   7.698
 1550POPC   C1B24127  27.099  25.821   8.813
 1550POPC   C2B24128  26.942  25.825   8.406
 1550POPC   C3B24129  27.001  25.783   7.985
 1550POPC   C4B24130  27.156  26.113   7.780
 1551POPC   NC324131  14.915   8.308   9.512
 1551POPC   PO424132  15.491   8.049   9.515
 1551POPC   GL124133  15.241   8.165   9.128
 1551POPC   GL224134  15.019   8.444   9.015
 1551POPC   C1A24135  15.378   8.132   8.690
 1551POPC   D2A24136  15.382   7.869   8.299
 1551POPC   C3A24137  15.350   8.158   7.908
 1551POPC   C4A24138  15.350   8.595   7.718
 1551POPC   C1B24139  14.876   8.200   8.666
 1551POPC   C2B24140  14.916   8.119   8.223
 1551POPC   C3B24141  14.832   8.222   7.811
 1551POPC   C4B24142  14.854   8.575   7.562
 1552POPC   NC324143  18.711   7.312   9.592
 1552POPC   PO424144  18.692   8.006   9.473
 1552POPC   GL124145  18.854   7.731   9.140
 1552POPC   GL224146  19.153   7.810   9.032
 1552POPC   C1A24147  18.966   7.418   8.773
 1552POPC   D2A24148  18.786   7.343   8.352
 1552POPC   C3A24149  18.979   7.421   7.957
 1552POPC   C4A24150  19.122   7.149   7.640
 1552POPC   C1B24151  19.382   7.796   8.675
 1552POPC   C2B24152  19.311   7.526   8.353
 1552POPC   C3B24153  19.489   7.336   7.997
 1552POPC   C4B24154  19.418   7.661   7.711
 1553POPC   NC324155  39.559  35.544   9.579
 1553POPC   PO424156  40.251  35.546   9.536
 1553POPC   GL124157  39.922  35.368   9.262
 1553POPC   GL224158  39.693  35.622   9.090
 1553POPC   C1A24159  39.853  35.166   8.878
 1553POPC   D2A24160  40.108  35.059   8.513
 1553POPC   C3A24161  39.949  35.336   8.165
 1553POPC   C4A24162  39.782  35.242   7.783
 1553POPC   C1B24163  39.457  35.812   8.741
 1553POPC   C2B24164  39.513  35.631   8.298
 1553POPC   C3B24165  39.514  35.667   7.836
 1553POPC   C4B24166  39.841  35.629   7.470
 1554POPC   NC324167  19.960   9.314   9.421
 1554POPC   PO424168  19.907   9.946   9.413
 1554POPC   GL124169  19.863   9.701   9.099
 1554POPC   GL224170  19.541   9.561   9.122
 1554POPC   C1A24171  19.892   9.745   8.705
 1554POPC   D2A24172  19.783   9.909   8.321
 1554POPC   C3A24173  20.042   9.992   8.000
 1554POPC   C4A24174  20.054   9.786   7.643
 1554POPC   C1B24175  19.673   9.291   8.797
 1554POPC   C2B24176  19.851   9.344   8.415
 1554POPC   C3B24177  19.896   9.499   8.043
 1554POPC   C4B24178  19.693   9.440   7.677
 1555POPC   NC324179  37.517  25.754   9.426
 1555POPC   PO424180  37.853  26.291   9.756
 1555POPC   GL124181  37.909  26.158   9.291
 1555POPC   GL224182  37.630  26.298   9.139
 1555POPC   C1A24183  37.991  26.130   8.793
 1555POPC   D2A24184  37.953  26.191   8.300
 1555POPC   C3A24185  37.797  25.871   7.913
 1555POPC   C4A24186  37.794  25.981   7.465
 1555POPC   C1B24187  37.500  25.974   8.791
 1555POPC   C2B24188  37.506  25.953   8.329
 1555POPC   C3B24189  37.485  26.260   7.955
 1555POPC   C4B24190  37.296  26.161   7.539
 1556POPC   NC324191  32.310  33.159   9.384
 1556POPC   PO424192  32.113  32.589   9.573
 1556POPC   GL124193  32.167  32.734   9.146
 1556POPC   GL224194  31.910  32.995   9.097
 1556POPC   C1A24195  32.341  32.769   8.729
 1556POPC   D2A24196  32.578  32.691   8.342
 1556POPC   C3A24197  32.347  32.868   7.981
 1556POPC   C4A24198  32.513  33.210   7.756
 1556POPC   C1B24199  32.009  33.194   8.711
 1556POPC   C2B24200  31.995  33.010   8.314
 1556POPC   C3B24201  31.874  33.043   7.860
 1556POPC   C4B24202  31.658  33.097   7.448
 1557POPC   NC324203   4.374  32.640   9.789
 1557POPC   PO424204   4.568  33.137   9.442
 1557POPC   GL124205   4.502  33.014   9.037
 1557POPC   GL224206   4.201  32.880   9.107
 1557POPC   C1A24207   4.423  33.192   8.664
 1557POPC   D2A24208   4.299  33.153   8.256
 1557POPC   C3A24209   4.564  33.136   7.904
 1557POPC   C4A24210   4.296  33.301   7.552
 1557POPC   C1B24211   4.206  32.708   8.688
 1557POPC   C2B24212   4.048  32.706   8.254
 1557POPC   C3B24213   4.157  32.848   7.837
 1557POPC   C4B24214   4.412  32.835   7.438
 1558POPC   NC324215  42.929  26.684   9.614
 1558POPC   PO424216  43.569  26.724   9.498
 1558POPC   GL124217  43.234  26.782   9.202
 1558POPC   GL224218  43.087  27.099   9.321
 1558POPC   C1A24219  43.016  26.702   8.781
 1558POPC   D2A24220  42.814  26.751   8.364
 1558POPC   C3A24221  43.012  26.612   7.974
 1558POPC   C4A24222  43.249  26.603   7.576
 1558POPC   C1B24223  43.196  27.184   8.877
 1558POPC   C2B24224  43.194  27.249   8.449
 1558POPC   C3B24225  43.007  27.130   8.084
 1558POPC   C4B24226  43.124  27.085   7.685
 1559POPC   NC324227  41.573  12.709   9.507
 1559POPC   PO424228  41.346  13.345   9.356
 1559POPC   GL124229  41.460  13.015   9.073
 1559POPC   GL224230  41.330  12.673   9.054
 1559POPC   C1A24231  41.572  12.953   8.649
 1559POPC   D2A24232  41.520  12.706   8.287
 1559POPC   C3A24233  41.561  12.913   7.907
 1559POPC   C4A24234  41.428  13.309   7.788
 1559POPC   C1B24235  41.208  12.451   8.665
 1559POPC   C2B24236  41.111  12.397   8.217
 1559POPC   C3B24237  41.465  12.371   7.897
 1559POPC   C4B24238  41.680  12.542   7.556
 1560POPC   NC324239  22.484   6.017   9.450
 1560POPC   PO424240  21.894   6.229   9.727
 1560POPC   GL124241  21.970   6.110   9.266
 1560POPC   GL224242  22.077   5.757   9.201
 1560POPC   C1A24243  22.172   6.153   8.850
 1560POPC   D2A24244  22.330   6.020   8.458
 1560POPC   C3A24245  21.969   5.902   8.219
 1560POPC   C4A24246  21.920   5.885   7.777
 1560POPC   C1B24247  22.150   5.640   8.760
 1560POPC   C2B24248  22.297   5.518   8.340
 1560POPC   C3B24249  22.387   5.707   7.975
 1560POPC   C4B24250  22.325   5.548   7.588
 1561POPC   NC324251  23.455  16.765   9.460
 1561POPC   PO424252  24.106  16.811   9.395
 1561POPC   GL124253  23.939  16.571   9.065
 1561POPC   GL224254  23.669  16.810   9.006
 1561POPC   C1A24255  23.854  16.579   8.607
 1561POPC   D2A24256  23.915  16.785   8.256
 1561POPC   C3A24257  23.743  16.524   7.918
 1561POPC   C4A24258  23.922  16.528   7.494
 1561POPC   C1B24259  23.774  17.092   8.669
 1561POPC   C2B24260  23.635  17.204   8.241
 1561POPC   C3B24261  23.750  17.006   7.813
 1561POPC   C4B24262  23.526  16.880   7.440
 1562POPC   NC324263  41.101   0.400   9.506
 1562POPC   PO424264  40.501   0.404   9.762
 1562POPC   GL124265  40.618   0.482   9.279
 1562POPC   GL224266  40.483   0.745   9.054
 1562POPC   C1A24267  40.794   0.306   8.891
 1562POPC   D2A24268  41.018   0.320   8.505
 1562POPC   C3A24269  40.794   0.241   8.124
 1562POPC   C4A24270  40.884   0.213   7.682
 1562POPC   C1B24271  40.532   0.636   8.584
 1562POPC   C2B24272  40.555   0.715   8.110
 1562POPC   C3B24273  40.436   0.497   7.704
 1562POPC   C4B24274  40.377   0.439   7.204
 1563POPC   NC324275   7.674  13.101   9.345
 1563POPC   PO424276   8.342  13.068   9.478
 1563POPC   GL124277   8.105  12.921   9.107
 1563POPC   GL224278   8.074  12.554   9.034
 1563POPC   C1A24279   8.209  12.882   8.669
 1563POPC   D2A24280   8.368  12.679   8.307
 1563POPC   C3A24281   8.233  12.930   7.933
 1563POPC   C4A24282   8.138  12.873   7.489
 1563POPC   C1B24283   8.297  12.341   8.710
 1563POPC   C2B24284   8.006  12.297   8.374
 1563POPC   C3B24285   8.026  12.463   7.987
 1563POPC   C4B24286   8.411  12.481   7.776
 1564POPC   NC324287  13.739  12.027   9.732
 1564POPC   PO424288  13.180  11.682   9.454
 1564POPC   GL124289  13.478  11.795   9.105
 1564POPC   GL224290  13.739  12.065   9.184
 1564POPC   C1A24291  13.479  11.862   8.649
 1564POPC   D2A24292  13.704  12.029   8.276
 1564POPC   C3A24293  13.449  12.139   7.915
 1564POPC   C4A24294  13.483  12.061   7.467
 1564POPC   C1B24295  13.775  12.283   8.763
 1564POPC   C2B24296  14.041  12.425   8.438
 1564POPC   C3B24297  14.057  12.277   8.017
 1564POPC   C4B24298  13.799  12.427   7.662
 1565POPC   NC324299  23.976  27.829   9.441
 1565POPC   PO424300  23.382  27.466   9.438
 1565POPC   GL124301  23.591  27.630   9.083
 1565POPC   GL224302  23.402  27.915   9.017
 1565POPC   C1A24303  23.949  27.721   8.774
 1565POPC   D2A24304  24.070  27.920   8.360
 1565POPC   C3A24305  24.025  27.660   7.983
 1565POPC   C4A24306  23.597  27.550   7.837
 1565POPC   C1B24307  23.481  27.803   8.612
 1565POPC   C2B24308  23.548  27.927   8.222
 1565POPC   C3B24309  23.272  27.925   7.853
 1565POPC   C4B24310  23.368  27.979   7.423
 1566POPC   NC324311  34.107   7.819   9.449
 1566POPC   PO424312  33.741   8.454   9.512
 1566POPC   GL124313  33.752   8.128   9.207
 1566POPC   GL224314  34.036   8.198   9.108
 1566POPC   C1A24315  33.719   7.937   8.809
 1566POPC   D2A24316  33.953   7.949   8.415
 1566POPC   C3A24317  33.788   8.139   8.042
 1566POPC   C4A24318  33.527   8.303   7.708
 1566POPC   C1B24319  33.960   8.388   8.693
 1566POPC   C2B24320  33.954   8.590   8.276
 1566POPC   C3B24321  34.107   8.483   7.864
 1566POPC   C4B24322  34.053   8.109   7.594
 1567POPC   NC324323   2.316  29.474   9.468
 1567POPC   PO424324   2.717  30.065   9.586
 1567POPC   GL124325   2.629  30.134   9.163
 1567POPC   GL224326   2.359  29.888   9.119
 1567POPC   C1A24327   2.867  30.149   8.787
 1567POPC   D2A24328   2.953  29.881   8.405
 1567POPC   C3A24329   2.710  29.899   8.013
 1567POPC   C4A24330   2.747  30.118   7.647
 1567POPC   C1B24331   2.505  29.793   8.688
 1567POPC   C2B24332   2.398  29.584   8.279
 1567POPC   C3B24333   2.434  29.457   7.816
 1567POPC   C4B24334   2.654  29.614   7.465
 1568POPC   NC324335   3.955   2.446   9.443
 1568POPC   PO424336   3.456   2.918   9.544
 1568POPC   GL124337   3.585   2.783   9.170
 1568POPC   GL224338   3.520   2.443   9.120
 1568POPC   C1A24339   3.704   2.881   8.755
 1568POPC   D2A24340   3.630   2.674   8.381
 1568POPC   C3A24341   3.759   2.800   7.981
 1568POPC   C4A24342   3.455   3.053   7.795
 1568POPC   C1B24343   3.244   2.607   8.782
 1568POPC   C2B24344   3.161   2.424   8.377
 1568POPC   C3B24345   3.236   2.613   8.003
 1568POPC   C4B24346   3.410   2.457   7.659
 1569POPC   NC324347   5.817  43.481   9.813
 1569POPC   PO424348   6.153  42.980   9.510
 1569POPC   GL124349   5.863  43.161   9.225
 1569POPC   GL224350   5.974  43.372   8.927
 1569POPC   C1A24351   5.507  43.167   8.925
 1569POPC   D2A24352   5.519  42.967   8.522
 1569POPC   C3A24353   5.654  43.194   8.127
 1569POPC   C4A24354   5.950  43.326   7.766
 1569POPC   C1B24355   5.983  42.972   8.721
 1569POPC   C2B24356   5.901  42.711   8.334
 1569POPC   C3B24357   5.883  42.791   7.900
 1569POPC   C4B24358   6.245  42.909   7.734
 1570POPC   NC324359  11.617  23.079   9.499
 1570POPC   PO424360  11.149  22.626   9.723
 1570POPC   GL124361  11.175  22.810   9.267
 1570POPC   GL224362  10.960  23.077   9.126
 1570POPC   C1A24363  11.355  22.917   8.836
 1570POPC   D2A24364  11.678  22.874   8.480
 1570POPC   C3A24365  11.525  22.816   8.041
 1570POPC   C4A24366  11.187  22.599   7.786
 1570POPC   C1B24367  10.996  23.268   8.716
 1570POPC   C2B24368  11.216  23.147   8.358
 1570POPC   C3B24369  11.103  23.085   7.946
 1570POPC   C4B24370  11.154  23.150   7.515
 1571POPC   NC324371  21.003  32.865   9.554
 1571POPC   PO424372  20.404  33.124   9.590
 1571POPC   GL124373  20.636  33.052   9.204
 1571POPC   GL224374  20.969  33.224   9.180
 1571POPC   C1A24375  20.454  32.873   8.801
 1571POPC   D2A24376  20.240  33.100   8.465
 1571POPC   C3A24377  20.352  33.090   8.044
 1571POPC   C4A24378  20.515  33.132   7.629
 1571POPC   C1B24379  20.898  33.093   8.757
 1571POPC   C2B24380  20.771  33.026   8.345
 1571POPC   C3B24381  20.794  33.317   7.997
 1571POPC   C4B24382  20.988  33.299   7.593
 1572POPC   NC324383  38.586  41.156   9.623
 1572POPC   PO424384  38.580  40.519   9.501
 1572POPC   GL124385  38.510  40.831   9.201
 1572POPC   GL224386  38.187  40.992   9.307
 1572POPC   C1A24387  38.545  40.676   8.758
 1572POPC   D2A24388  38.736  40.760   8.343
 1572POPC   C3A24389  38.506  40.806   7.982
 1572POPC   C4A24390  38.159  40.531   7.892
 1572POPC   C1B24391  38.212  41.053   8.842
 1572POPC   C2B24392  38.175  40.830   8.410
 1572POPC   C3B24393  38.041  41.033   8.017
 1572POPC   C4B24394  38.207  41.153   7.628
 1573POPC   NC324395  34.744   6.103   9.400
 1573POPC   PO424396  34.337   5.632   9.577
 1573POPC   GL124397  34.250   5.784   9.138
 1573POPC   GL224398  34.536   5.965   8.975
 1573POPC   C1A24399  34.258   5.643   8.712
 1573POPC   D2A24400  34.505   5.944   8.467
 1573POPC   C3A24401  34.467   5.898   8.053
 1573POPC   C4A24402  34.276   5.698   7.719
 1573POPC   C1B24403  34.895   6.146   8.736
 1573POPC   C2B24404  35.073   5.837   8.450
 1573POPC   C3B24405  34.944   5.667   8.063
 1573POPC   C4B24406  34.765   5.755   7.651
 1574POPC   NC324407  12.253  42.201   9.494
 1574POPC   PO424408  11.564  42.268   9.520
 1574POPC   GL124409  11.866  42.424   9.196
 1574POPC   GL224410  12.160  42.236   9.010
 1574POPC   C1A24411  11.934  42.680   8.830
 1574POPC   D2A24412  11.866  42.479   8.434
 1574POPC   C3A24413  12.049  42.589   8.050
 1574POPC   C4A24414  12.034  42.414   7.658
 1574POPC   C1B24415  11.831  42.022   8.842
 1574POPC   C2B24416  11.734  41.985   8.442
 1574POPC   C3B24417  11.999  42.042   8.101
 1574POPC   C4B24418  11.889  41.911   7.727
 1575POPC   NC324419  16.387  21.181   9.524
 1575POPC   PO424420  16.792  21.703   9.649
 1575POPC   GL124421  16.734  21.648   9.212
 1575POPC   GL224422  16.688  21.320   9.132
 1575POPC   C1A24423  16.691  21.686   8.761
 1575POPC   D2A24424  16.745  21.506   8.394
 1575POPC   C3A24425  16.468  21.590   8.074
 1575POPC   C4A24426  16.658  21.424   7.716
 1575POPC   C1B24427  16.619  21.092   8.742
 1575POPC   C2B24428  16.534  21.052   8.310
 1575POPC   C3B24429  16.358  21.116   7.956
 1575POPC   C4B24430  16.364  21.077   7.501
 1576POPC   NC324431  14.481  10.537   9.680
 1576POPC   PO424432  14.003  10.187   9.304
 1576POPC   GL124433  14.468  10.389   9.169
 1576POPC   GL224434  14.699  10.670   9.114
 1576POPC   C1A24435  14.471  10.393   8.721
 1576POPC   D2A24436  14.505  10.082   8.395
 1576POPC   C3A24437  14.459  10.179   7.959
 1576POPC   C4A24438  14.111  10.272   7.682
 1576POPC   C1B24439  14.645  10.889   8.710
 1576POPC   C2B24440  14.319  10.854   8.403
 1576POPC   C3B24441  14.303  10.683   7.995
 1576POPC   C4B24442  14.359  10.786   7.574
 1577POPC   NC324443  14.013  21.366   9.473
 1577POPC   PO424444  13.329  21.113   9.569
 1577POPC   GL124445  13.599  21.249   9.213
 1577POPC   GL224446  13.744  21.589   9.115
 1577POPC   C1A24447  13.706  21.129   8.797
 1577POPC   D2A24448  13.541  21.298   8.396
 1577POPC   C3A24449  13.722  21.285   7.989
 1577POPC   C4A24450  13.769  21.380   7.556
 1577POPC   C1B24451  13.849  21.597   8.678
 1577POPC   C2B24452  13.814  21.732   8.273
 1577POPC   C3B24453  13.844  21.793   7.851
 1577POPC   C4B24454  13.998  21.927   7.460
 1578POPC   NC324455  42.604  22.601   9.476
 1578POPC   PO424456  42.147  22.155   9.563
 1578POPC   GL124457  42.267  22.035   9.171
 1578POPC   GL224458  42.550  22.237   9.115
 1578POPC   C1A24459  42.340  21.966   8.739
 1578POPC   D2A24460  42.094  21.897   8.391
 1578POPC   C3A24461  42.319  22.050   8.059
 1578POPC   C4A24462  42.269  21.935   7.659
 1578POPC   C1B24463  42.691  22.394   8.699
 1578POPC   C2B24464  42.748  22.359   8.255
 1578POPC   C3B24465  42.478  22.556   7.951
 1578POPC   C4B24466  42.350  22.437   7.533
 1579POPC   NC324467   4.155  12.786  10.223
 1579POPC   PO424468   4.492  12.617   9.773
 1579POPC   GL124469   4.494  12.795   9.252
 1579POPC   GL224470   4.825  12.965   9.150
 1579POPC   C1A24471   4.518  12.942   8.746
 1579POPC   D2A24472   4.625  13.072   8.278
 1579POPC   C3A24473   4.321  12.962   7.920
 1579POPC   C4A24474   3.983  12.739   7.655
 1579POPC   C1B24475   4.887  12.603   8.833
 1579POPC   C2B24476   4.895  12.656   8.357
 1579POPC   C3B24477   4.734  12.678   7.908
 1579POPC   C4B24478   4.715  12.373   7.520
 1580POPC   NC324479  22.015  33.018   9.577
 1580POPC   PO424480  21.334  33.188   9.574
 1580POPC   GL124481  21.420  32.984   9.186
 1580POPC   GL224482  21.305  32.639   9.131
 1580POPC   C1A24483  21.391  33.123   8.757
 1580POPC   D2A24484  21.284  32.877   8.376
 1580POPC   C3A24485  21.138  32.957   7.967
 1580POPC   C4A24486  21.159  32.840   7.529
 1580POPC   C1B24487  21.581  32.662   8.751
 1580POPC   C2B24488  21.789  32.743   8.323
 1580POPC   C3B24489  21.592  32.759   7.862
 1580POPC   C4B24490  21.674  32.815   7.398
 1581POPC   NC324491  27.295   8.654   9.580
 1581POPC   PO424492  27.708   8.185   9.560
 1581POPC   GL124493  27.538   8.033   9.169
 1581POPC   GL224494  27.177   7.927   9.187
 1581POPC   C1A24495  27.679   7.917   8.774
 1581POPC   D2A24496  27.705   8.172   8.419
 1581POPC   C3A24497  27.675   8.060   7.992
 1581POPC   C4A24498  27.992   8.324   7.801
 1581POPC   C1B24499  27.245   8.207   8.799
 1581POPC   C2B24500  27.186   8.260   8.342
 1581POPC   C3B24501  27.278   8.408   7.908
 1581POPC   C4B24502  27.180   8.322   7.458
 1582POPC   NC324503   7.183  17.838   9.766
 1582POPC   PO424504   7.293  17.163   9.543
 1582POPC   GL124505   7.376  17.341   9.099
 1582POPC   GL224506   7.247  17.679   9.169
 1582POPC   C1A24507   7.614  17.397   8.718
 1582POPC   D2A24508   7.656  17.663   8.384
 1582POPC   C3A24509   7.542  17.612   7.965
 1582POPC   C4A24510   7.363  17.300   7.763
 1582POPC   C1B24511   7.089  17.607   8.722
 1582POPC   C2B24512   7.117  17.481   8.291
 1582POPC   C3B24513   7.083  17.787   7.957
 1582POPC   C4B24514   7.166  17.716   7.521
 1583POPC   NC324515   8.434  40.970   9.740
 1583POPC   PO424516   8.222  41.576   9.534
 1583POPC   GL124517   8.199  41.368   9.140
 1583POPC   GL224518   7.916  41.153   9.043
 1583POPC   C1A24519   8.110  41.562   8.739
 1583POPC   D2A24520   8.006  41.862   8.427
 1583POPC   C3A24521   7.925  41.683   8.062
 1583POPC   C4A24522   8.155  41.859   7.758
 1583POPC   C1B24523   8.217  41.055   8.722
 1583POPC   C2B24524   8.384  41.274   8.382
 1583POPC   C3B24525   8.383  41.457   7.995
 1583POPC   C4B24526   8.066  41.237   7.824
 1584POPC   NC324527  22.056  42.468   9.568
 1584POPC   PO424528  22.448  41.920   9.549
 1584POPC   GL124529  22.356  42.289   9.188
 1584POPC   GL224530  22.046  42.514   9.074
 1584POPC   C1A24531  22.429  42.455   8.742
 1584POPC   D2A24532  22.645  42.335   8.339
 1584POPC   C3A24533  22.435  42.197   7.950
 1584POPC   C4A24534  22.144  42.508   7.809
 1584POPC   C1B24535  21.852  42.081   9.017
 1584POPC   C2B24536  21.818  41.918   8.586
 1584POPC   C3B24537  21.962  42.135   8.201
 1584POPC   C4B24538  21.991  41.993   7.784
 1585POPC   NC324539  36.333  35.584   9.385
 1585POPC   PO424540  36.149  36.305   9.515
 1585POPC   GL124541  36.163  36.014   9.161
 1585POPC   GL224542  36.504  36.018   9.038
 1585POPC   C1A24543  35.959  35.912   8.761
 1585POPC   D2A24544  36.101  35.834   8.303
 1585POPC   C3A24545  36.013  36.156   7.985
 1585POPC   C4A24546  36.328  36.503   7.871
 1585POPC   C1B24547  36.420  35.721   8.702
 1585POPC   C2B24548  36.617  35.714   8.263
 1585POPC   C3B24549  36.362  35.795   7.866
 1585POPC   C4B24550  35.924  35.650   7.845
 1586POPC   NC324551   0.946  25.782   9.616
 1586POPC   PO424552   1.462  26.255   9.472
 1586POPC   GL124553   1.128  26.144   9.181
 1586POPC   GL224554   1.112  25.781   9.133
 1586POPC   C1A24555   1.103  26.203   8.733
 1586POPC   D2A24556   0.889  26.179   8.344
 1586POPC   C3A24557   1.013  26.289   7.918
 1586POPC   C4A24558   1.049  26.139   7.458
 1586POPC   C1B24559   0.955  25.700   8.732
 1586POPC   C2B24560   1.074  25.717   8.301
 1586POPC   C3B24561   1.070  25.786   7.862
 1586POPC   C4B24562   1.267  25.596   7.534
 1587POPC   NC324563  35.672  33.457   9.616
 1587POPC   PO424564  35.250  33.918   9.424
 1587POPC   GL124565  35.327  33.848   9.033
 1587POPC   GL224566  35.439  33.554   9.085
 1587POPC   C1A24567  35.341  34.081   8.666
 1587POPC   D2A24568  35.625  34.219   8.330
 1587POPC   C3A24569  35.484  34.174   7.909
 1587POPC   C4A24570  35.543  34.054   7.473
 1587POPC   C1B24571  35.555  33.584   8.641
 1587POPC   C2B24572  35.419  33.756   8.241
 1587POPC   C3B24573  35.339  33.675   7.827
 1587POPC   C4B24574  35.032  33.421   7.714
 1588POPC   NC324575   2.646  44.357   9.603
 1588POPC   PO424576   3.257  44.462   9.518
 1588POPC   GL124577   2.987  44.692   9.212
 1588POPC   GL224578   2.693  44.485   9.118
 1588POPC   C1A24579   2.999  44.824   8.762
 1588POPC   D2A24580   2.983   0.041   8.348
 1588POPC   C3A24581   2.792  44.809   7.980
 1588POPC   C4A24582   2.905  44.787   7.531
 1588POPC   C1B24583   2.507  44.640   8.758
 1588POPC   C2B24584   2.604  44.518   8.364
 1588POPC   C3B24585   2.466  44.385   7.990
 1588POPC   C4B24586   2.282  44.663   7.708
 1589POPC   NC324587  17.416  14.230   9.638
 1589POPC   PO424588  17.237  14.672   9.321
 1589POPC   GL124589  17.237  14.333   8.999
 1589POPC   GL224590  17.578  14.283   8.943
 1589POPC   C1A24591  17.287  14.235   8.529
 1589POPC   D2A24592  17.649  14.339   8.295
 1589POPC   C3A24593  17.621  14.476   7.877
 1589POPC   C4A24594  17.915  14.660   7.544
 1589POPC   C1B24595  17.552  14.687   8.681
 1589POPC   C2B24596  17.721  14.880   8.281
 1589POPC   C3B24597  17.636  14.979   7.840
 1589POPC   C4B24598  17.399  14.758   7.493
 1590POPC   NC324599  14.138   7.333   9.592
 1590POPC   PO424600  14.688   7.795   9.532
 1590POPC   GL124601  14.483   7.487   9.178
 1590POPC   GL224602  14.590   7.100   9.156
 1590POPC   C1A24603  14.261   7.437   8.739
 1590POPC   D2A24604  14.074   7.244   8.330
 1590POPC   C3A24605  14.149   7.494   7.959
 1590POPC   C4A24606  14.343   7.419   7.525
 1590POPC   C1B24607  14.758   7.247   8.753
 1590POPC   C2B24608  14.585   7.321   8.351
 1590POPC   C3B24609  14.610   7.295   7.939
 1590POPC   C4B24610  14.948   7.261   7.657
 1591POPC   NC324611  19.560  36.116  10.098
 1591POPC   PO424612  20.087  36.262   9.663
 1591POPC   GL124613  19.758  36.251   9.283
 1591POPC   GL224614  19.899  36.015   9.053
 1591POPC   C1A24615  19.511  36.186   8.823
 1591POPC   D2A24616  19.413  36.054   8.374
 1591POPC   C3A24617  19.654  36.245   8.000
 1591POPC   C4A24618  20.119  36.150   7.885
 1591POPC   C1B24619  19.845  35.799   8.657
 1591POPC   C2B24620  19.900  35.848   8.228
 1591POPC   C3B24621  19.892  35.698   7.809
 1591POPC   C4B24622  20.260  35.747   7.524
 1592POPC   NC324623  28.677  41.351   9.579
 1592POPC   PO424624  28.245  41.827   9.599
 1592POPC   GL124625  28.430  41.857   9.198
 1592POPC   GL224626  28.770  41.820   9.277
 1592POPC   C1A24627  28.319  41.750   8.754
 1592POPC   D2A24628  28.455  41.419   8.434
 1592POPC   C3A24629  28.289  41.435   8.001
 1592POPC   C4A24630  28.008  41.656   7.699
 1592POPC   C1B24631  28.814  41.660   8.842
 1592POPC   C2B24632  28.714  41.853   8.428
 1592POPC   C3B24633  28.544  41.895   8.019
 1592POPC   C4B24634  28.515  41.690   7.624
 1593POPC   NC324635  32.529  19.059   9.560
 1593POPC   PO424636  31.953  18.743   9.557
 1593POPC   GL124637  32.216  18.745   9.216
 1593POPC   GL224638  32.288  19.108   9.117
 1593POPC   C1A24639  32.064  18.760   8.815
 1593POPC   D2A24640  32.205  19.043   8.504
 1593POPC   C3A24641  32.186  18.889   8.098
 1593POPC   C4A24642  32.190  18.828   7.625
 1593POPC   C1B24643  32.539  19.334   8.814
 1593POPC   C2B24644  32.550  19.387   8.344
 1593POPC   C3B24645  32.376  19.304   7.889
 1593POPC   C4B24646  32.084  19.376   7.544
 1594POPC   NC324647  14.771   4.977   9.522
 1594POPC   PO424648  14.055   4.989   9.603
 1594POPC   GL124649  14.131   4.942   9.210
 1594POPC   GL224650  14.420   5.141   9.179
 1594POPC   C1A24651  14.156   4.785   8.818
 1594POPC   D2A24652  14.304   4.751   8.398
 1594POPC   C3A24653  14.467   5.104   8.187
 1594POPC   C4A24654  14.352   5.190   7.742
 1594POPC   C1B24655  14.480   5.203   8.735
 1594POPC   C2B24656  14.269   5.505   8.461
 1594POPC   C3B24657  14.057   5.575   8.078
 1594POPC   C4B24658  14.183   5.655   7.664
 1595POPC   NC324659   3.223   6.319   9.458
 1595POPC   PO424660   2.689   6.790   9.459
 1595POPC   GL124661   2.903   6.714   9.093
 1595POPC   GL224662   2.807   6.344   9.087
 1595POPC   C1A24663   2.883   6.771   8.638
 1595POPC   D2A24664   2.714   6.562   8.270
 1595POPC   C3A24665   2.808   6.801   7.920
 1595POPC   C4A24666   3.213   6.927   7.732
 1595POPC   C1B24667   3.143   6.359   8.791
 1595POPC   C2B24668   3.227   6.374   8.351
 1595POPC   C3B24669   3.115   6.418   7.896
 1595POPC   C4B24670   2.672   6.365   7.713
 1596POPC   NC324671  11.796  20.613   9.848
 1596POPC   PO424672  11.262  20.313   9.559
 1596POPC   GL124673  11.069  20.388   9.166
 1596POPC   GL224674  10.981  20.048   9.179
 1596POPC   C1A24675  11.207  20.613   8.779
 1596POPC   D2A24676  11.520  20.682   8.457
 1596POPC   C3A24677  11.296  20.685   8.072
 1596POPC   C4A24678  11.180  20.666   7.638
 1596POPC   C1B24679  11.070  20.117   8.719
 1596POPC   C2B24680  10.949  20.424   8.367
 1596POPC   C3B24681  10.941  20.328   7.935
 1596POPC   C4B24682  10.938  20.017   7.631
 1597POPC   NC324683  20.495  41.106   9.724
 1597POPC   PO424684  20.982  41.525   9.491
 1597POPC   GL124685  21.009  41.515   9.068
 1597POPC   GL224686  20.697  41.363   9.054
 1597POPC   C1A24687  20.864  41.817   8.739
 1597POPC   D2A24688  20.735  41.917   8.293
 1597POPC   C3A24689  20.641  41.723   7.883
 1597POPC   C4A24690  20.609  41.564   7.452
 1597POPC   C1B24691  20.816  41.332   8.611
 1597POPC   C2B24692  20.918  41.417   8.187
 1597POPC   C3B24693  20.703  41.219   7.826
 1597POPC   C4B24694  20.705  40.936   7.495
 1598POPC   NC324695  27.547   2.612   9.373
 1598POPC   PO424696  27.838   3.153   9.333
 1598POPC   GL124697  27.785   2.871   9.020
 1598POPC   GL224698  27.415   2.864   8.951
 1598POPC   C1A24699  27.762   2.713   8.604
 1598POPC   D2A24700  27.989   2.626   8.232
 1598POPC   C3A24701  27.637   2.598   7.936
 1598POPC   C4A24702  27.519   3.038   7.848
 1598POPC   C1B24703  27.222   2.537   8.679
 1598POPC   C2B24704  26.966   2.473   8.309
 1598POPC   C3B24705  27.133   2.443   7.901
 1598POPC   C4B24706  27.260   2.700   7.554
 1599POPC   NC324707  29.099  29.008   9.505
 1599POPC   PO424708  29.310  29.613   9.426
 1599POPC   GL124709  29.240  29.297   9.092
 1599POPC   GL224710  29.305  28.916   9.071
 1599POPC   C1A24711  29.273  29.284   8.663
 1599POPC   D2A24712  29.372  29.521   8.304
 1599POPC   C3A24713  29.190  29.314   7.957
 1599POPC   C4A24714  29.385  29.368   7.586
 1599POPC   C1B24715  28.939  28.918   8.827
 1599POPC   C2B24716  28.969  28.915   8.391
 1599POPC   C3B24717  29.139  28.782   7.992
 1599POPC   C4B24718  29.277  28.878   7.573
 1600POPC   NC324719   6.384  12.383   9.499
 1600POPC   PO424720   6.778  12.925   9.296
 1600POPC   GL124721   6.627  12.845   8.976
 1600POPC   GL224722   6.375  12.621   9.042
 1600POPC   C1A24723   6.783  12.920   8.614
 1600POPC   D2A24724   6.581  13.062   8.287
 1600POPC   C3A24725   6.775  13.019   7.908
 1600POPC   C4A24726   6.440  13.017   7.648
 1600POPC   C1B24727   6.386  12.579   8.609
 1600POPC   C2B24728   6.657  12.538   8.281
 1600POPC   C3B24729   6.369  12.675   8.018
 1600POPC   C4B24730   6.194  12.560   7.669
 1601POPC   NC324731  35.554  22.020   9.686
 1601POPC   PO424732  34.908  22.018   9.630
 1601POPC   GL124733  35.223  22.207   9.337
 1601POPC   GL224734  35.323  21.881   9.256
 1601POPC   C1A24735  35.516  22.293   8.970
 1601POPC   D2A24736  35.574  22.181   8.522
 1601POPC   C3A24737  35.361  22.319   8.183
 1601POPC   C4A24738  35.503  22.264   7.762
 1601POPC   C1B24739  35.298  21.835   8.818
 1601POPC   C2B24740  35.114  21.868   8.377
 1601POPC   C3B24741  35.121  21.924   7.920
 1601POPC   C4B24742  34.988  21.716   7.542
 1602POPC   NC324743  23.784  34.733   9.344
 1602POPC   PO424744  23.872  34.075   9.294
 1602POPC   GL124745  23.821  34.386   8.985
 1602POPC   GL224746  23.479  34.423   8.987
 1602POPC   C1A24747  23.926  34.672   8.643
 1602POPC   D2A24748  23.680  34.619   8.229
 1602POPC   C3A24749  23.919  34.600   7.862
 1602POPC   C4A24750  24.011  34.857   7.507
 1602POPC   C1B24751  23.258  34.348   8.603
 1602POPC   C2B24752  23.300  34.145   8.201
 1602POPC   C3B24753  23.431  34.333   7.832
 1602POPC   C4B24754  23.438  34.741   7.660
 1603POPC   NC324755   0.805   8.677   9.777
 1603POPC   PO424756   1.033   9.286   9.519
 1603POPC   GL124757   1.272   9.081   9.180
 1603POPC   GL224758   1.008   9.177   8.972
 1603POPC   C1A24759   1.409   8.956   8.764
 1603POPC   D2A24760   1.314   8.644   8.451
 1603POPC   C3A24761   1.106   8.798   8.112
 1603POPC   C4A24762   1.238   8.786   7.696
 1603POPC   C1B24763   0.934   9.024   8.581
 1603POPC   C2B24764   1.042   9.297   8.258
 1603POPC   C3B24765   1.163   9.256   7.868
 1603POPC   C4B24766   0.807   9.043   7.735
 1604POPC   NC324767  42.991  43.734   9.315
 1604POPC   PO424768  42.881  43.155   9.696
 1604POPC   GL124769  43.140  43.059   9.208
 1604POPC   GL224770  43.418  42.825   9.180
 1604POPC   C1A24771  43.069  42.946   8.725
 1604POPC   D2A24772  43.128  42.839   8.255
 1604POPC   C3A24773  43.147  43.009   7.834
 1604POPC   C4A24774  43.015  43.386   7.639
 1604POPC   C1B24775  43.527  43.133   8.853
 1604POPC   C2B24776  43.452  43.199   8.416
 1604POPC   C3B24777  43.456  43.370   8.018
 1604POPC   C4B24778  43.637  43.254   7.668
 1605POPC   NC324779   9.940  11.492   9.501
 1605POPC   PO424780   9.489  10.948   9.485
 1605POPC   GL124781   9.605  11.212   9.150
 1605POPC   GL224782   9.983  11.201   9.090
 1605POPC   C1A24783   9.678  11.299   8.714
 1605POPC   D2A24784   9.485  11.281   8.361
 1605POPC   C3A24785   9.636  11.378   7.984
 1605POPC   C4A24786   9.379  11.366   7.625
 1605POPC   C1B24787  10.014  10.954   8.683
 1605POPC   C2B24788   9.989  11.091   8.275
 1605POPC   C3B24789   9.909  10.957   7.869
 1605POPC   C4B24790   9.872  11.303   7.538
 1606POPC   NC324791   3.988   9.978   9.572
 1606POPC   PO424792   3.421   9.741   9.810
 1606POPC   GL124793   3.390   9.601   9.339
 1606POPC   GL224794   3.718   9.568   9.163
 1606POPC   C1A24795   3.258   9.619   8.858
 1606POPC   D2A24796   3.233   9.428   8.422
 1606POPC   C3A24797   3.299   9.681   8.046
 1606POPC   C4A24798   3.545   9.997   7.847
 1606POPC   C1B24799   3.662   9.328   8.754
 1606POPC   C2B24800   3.603   9.050   8.407
 1606POPC   C3B24801   3.608   9.264   8.019
 1606POPC   C4B24802   3.870   9.440   7.688
 1607POPC   NC324803  25.957  33.845   9.560
 1607POPC   PO424804  26.540  33.629   9.638
 1607POPC   GL124805  26.290  33.638   9.235
 1607POPC   GL224806  26.221  34.011   9.168
 1607POPC   C1A24807  26.003  33.672   8.852
 1607POPC   D2A24808  25.755  33.681   8.455
 1607POPC   C3A24809  25.901  33.811   8.074
 1607POPC   C4A24810  25.946  33.886   7.628
 1607POPC   C1B24811  26.236  34.103   8.755
 1607POPC   C2B24812  26.357  33.914   8.377
 1607POPC   C3B24813  26.321  34.058   7.977
 1607POPC   C4B24814  26.066  34.389   7.793
 1608POPC   NC324815  15.535   4.250   9.534
 1608POPC   PO424816  14.974   4.603   9.668
 1608POPC   GL124817  15.011   4.581   9.193
 1608POPC   GL224818  15.267   4.311   9.121
 1608POPC   C1A24819  14.896   4.254   8.815
 1608POPC   D2A24820  15.167   4.222   8.461
 1608POPC   C3A24821  15.031   4.181   8.046
 1608POPC   C4A24822  14.884   4.416   7.713
 1608POPC   C1B24823  15.291   4.614   8.793
 1608POPC   C2B24824  15.529   4.647   8.445
 1608POPC   C3B24825  15.543   4.409   8.114
 1608POPC   C4B24826  15.411   4.368   7.717
 1609POPC   NC324827  13.165   3.778   9.438
 1609POPC   PO424828  12.811   3.231   9.517
 1609POPC   GL124829  12.784   3.359   9.126
 1609POPC   GL224830  12.913   3.683   9.004
 1609POPC   C1A24831  12.614   3.360   8.731
 1609POPC   D2A24832  12.897   3.548   8.470
 1609POPC   C3A24833  12.679   3.735   8.151
 1609POPC   C4A24834  12.621   3.480   7.794
 1609POPC   C1B24835  13.297   3.761   8.723
 1609POPC   C2B24836  13.425   3.580   8.317
 1609POPC   C3B24837  13.113   3.504   7.990
 1609POPC   C4B24838  12.968   3.836   7.734
 1610POPC   NC324839  40.572  43.367   9.560
 1610POPC   PO424840  41.073  42.979   9.661
 1610POPC   GL124841  40.910  43.093   9.280
 1610POPC   GL224842  40.559  42.943   9.283
 1610POPC   C1A24843  40.823  43.299   8.886
 1610POPC   D2A24844  40.738  43.073   8.510
 1610POPC   C3A24845  40.753  43.241   8.108
 1610POPC   C4A24846  40.964  43.229   7.726
 1610POPC   C1B24847  40.357  43.094   8.899
 1610POPC   C2B24848  40.240  43.153   8.433
 1610POPC   C3B24849  40.254  43.093   7.982
 1610POPC   C4B24850  40.569  42.932   7.699
 1611POPC   NC324851  36.978  39.079   9.726
 1611POPC   PO424852  37.284  39.623   9.575
 1611POPC   GL124853  37.096  39.415   9.198
 1611POPC   GL224854  37.091  39.055   9.100
 1611POPC   C1A24855  37.019  39.442   8.732
 1611POPC   D2A24856  36.793  39.259   8.360
 1611POPC   C3A24857  36.817  39.400   7.916
 1611POPC   C4A24858  36.646  39.712   7.587
 1611POPC   C1B24859  37.158  38.973   8.606
 1611POPC   C2B24860  37.320  39.267   8.258
 1611POPC   C3B24861  37.272  39.156   7.813
 1611POPC   C4B24862  36.972  38.895   7.528
 1612POPC   NC324863  30.366  31.314   9.495
 1612POPC   PO424864  31.062  31.207   9.501
 1612POPC   GL124865  30.835  31.459   9.138
 1612POPC   GL224866  30.457  31.418   9.023
 1612POPC   C1A24867  30.756  31.555   8.664
 1612POPC   D2A24868  30.920  31.706   8.301
 1612POPC   C3A24869  30.999  31.432   7.945
 1612POPC   C4A24870  30.948  31.562   7.512
 1612POPC   C1B24871  30.313  31.293   8.610
 1612POPC   C2B24872  30.468  31.436   8.232
 1612POPC   C3B24873  30.524  31.558   7.818
 1612POPC   C4B24874  30.491  31.304   7.443
 1613POPC   NC324875  11.023   7.622   9.303
 1613POPC   PO424876  11.591   7.721   9.584
 1613POPC   GL124877  11.537   7.461   9.200
 1613POPC   GL224878  11.260   7.235   9.055
 1613POPC   C1A24879  11.571   7.596   8.808
 1613POPC   D2A24880  11.413   7.422   8.474
 1613POPC   C3A24881  11.573   7.525   8.088
 1613POPC   C4A24882  11.338   7.317   7.849
 1613POPC   C1B24883  10.986   7.190   8.687
 1613POPC   C2B24884  10.987   7.299   8.246
 1613POPC   C3B24885  11.071   7.695   8.094
 1613POPC   C4B24886  11.002   7.617   7.651
 1614POPC   NC324887   0.794  19.108   9.380
 1614POPC   PO424888   0.358  18.714   9.262
 1614POPC   GL124889   0.345  19.027   9.005
 1614POPC   GL224890   0.463  19.331   9.070
 1614POPC   C1A24891   0.598  19.093   8.638
 1614POPC   D2A24892   0.526  18.731   8.404
 1614POPC   C3A24893   0.320  18.847   8.045
 1614POPC   C4A24894   0.566  18.896   7.693
 1614POPC   C1B24895   0.166  19.414   8.749
 1614POPC   C2B24896   0.345  19.455   8.350
 1614POPC   C3B24897   0.629  19.267   8.063
 1614POPC   C4B24898   0.507  19.396   7.631
 1615POPC   NC324899  37.318  25.146   9.581
 1615POPC   PO424900  36.790  25.581   9.710
 1615POPC   GL124901  36.766  25.337   9.275
 1615POPC   GL224902  37.052  25.234   9.105
 1615POPC   C1A24903  36.692  25.490   8.807
 1615POPC   D2A24904  36.633  25.352   8.392
 1615POPC   C3A24905  36.858  25.489   8.047
 1615POPC   C4A24906  36.713  25.380   7.639
 1615POPC   C1B24907  36.844  25.014   8.731
 1615POPC   C2B24908  36.935  24.915   8.294
 1615POPC   C3B24909  37.023  25.021   7.862
 1615POPC   C4B24910  37.063  25.068   7.389
 1616POPC   NC324911  12.051   9.927   9.601
 1616POPC   PO424912  12.372   9.355   9.685
 1616POPC   GL124913  12.236   9.545   9.271
 1616POPC   GL224914  12.265   9.868   9.142
 1616POPC   C1A24915  12.065   9.526   8.829
 1616POPC   D2A24916  11.997   9.807   8.477
 1616POPC   C3A24917  12.011   9.651   8.046
 1616POPC   C4A24918  12.361   9.707   7.729
 1616POPC   C1B24919  11.860  10.041   8.917
 1616POPC   C2B24920  11.724  10.228   8.445
 1616POPC   C3B24921  11.972  10.159   8.021
 1616POPC   C4B24922  11.912   9.927   7.608
 1617POPC   NC324923  40.933  14.964   9.343
 1617POPC   PO424924  41.023  15.580   9.426
 1617POPC   GL124925  40.731  15.378   9.101
 1617POPC   GL224926  40.460  15.105   9.170
 1617POPC   C1A24927  40.806  15.203   8.687
 1617POPC   D2A24928  40.797  15.037   8.251
 1617POPC   C3A24929  40.972  15.201   7.846
 1617POPC   C4A24930  40.985  15.101   7.361
 1617POPC   C1B24931  40.292  15.345   8.804
 1617POPC   C2B24932  40.442  15.393   8.364
 1617POPC   C3B24933  40.419  15.222   7.943
 1617POPC   C4B24934  40.540  15.293   7.495
 1618POPC   NC324935  24.594  27.168   9.438
 1618POPC   PO424936  24.453  27.811   9.412
 1618POPC   GL124937  24.628  27.783   9.059
 1618POPC   GL224938  24.773  27.455   9.053
 1618POPC   C1A24939  24.427  27.891   8.730
 1618POPC   D2A24940  24.590  27.792   8.398
 1618POPC   C3A24941  24.542  27.914   7.996
 1618POPC   C4A24942  24.793  27.654   7.766
 1618POPC   C1B24943  24.342  27.375   8.868
 1618POPC   C2B24944  24.233  27.423   8.448
 1618POPC   C3B24945  24.470  27.398   8.094
 1618POPC   C4B24946  24.310  27.200   7.787
 1619POPC   NC324947  35.310  35.399   9.505
 1619POPC   PO424948  35.588  34.848   9.561
 1619POPC   GL124949  35.481  35.066   9.151
 1619POPC   GL224950  35.187  35.245   9.036
 1619POPC   C1A24951  35.605  35.131   8.717
 1619POPC   D2A24952  35.547  35.357   8.315
 1619POPC   C3A24953  35.606  35.245   7.881
 1619POPC   C4A24954  35.580  35.502   7.472
 1619POPC   C1B24955  35.103  35.108   8.639
 1619POPC   C2B24956  35.067  35.256   8.223
 1619POPC   C3B24957  35.136  34.994   7.888
 1619POPC   C4B24958  35.159  35.029   7.476
 1620POPC   NC324959   1.893  26.448   9.522
 1620POPC   PO424960   1.436  26.923   9.436
 1620POPC   GL124961   1.773  26.863   9.140
 1620POPC   GL224962   2.133  26.725   9.143
 1620POPC   C1A24963   1.826  27.048   8.732
 1620POPC   D2A24964   2.099  26.974   8.379
 1620POPC   C3A24965   1.963  26.961   7.962
 1620POPC   C4A24966   2.133  27.185   7.611
 1620POPC   C1B24967   2.029  26.578   8.712
 1620POPC   C2B24968   2.011  26.467   8.244
 1620POPC   C3B24969   1.958  26.464   7.799
 1620POPC   C4B24970   1.957  26.294   7.371
 1621POPC   NC324971  32.745  12.672   9.282
 1621POPC   PO424972  32.623  13.329   9.503
 1621POPC   GL124973  32.835  13.159   9.145
 1621POPC   GL224974  33.168  13.012   9.188
 1621POPC   C1A24975  32.886  12.960   8.723
 1621POPC   D2A24976  32.710  12.836   8.350
 1621POPC   C3A24977  32.856  13.110   8.074
 1621POPC   C4A24978  33.013  13.099   7.678
 1621POPC   C1B24979  33.285  12.653   8.880
 1621POPC   C2B24980  33.212  12.599   8.420
 1621POPC   C3B24981  33.276  12.771   8.011
 1621POPC   C4B24982  33.302  12.695   7.572
 1622POPC   NC324983  20.517  43.437   9.759
 1622POPC   PO424984  20.981  43.167   9.580
 1622POPC   GL124985  20.678  43.227   9.273
 1622POPC   GL224986  20.449  43.509   9.251
 1622POPC   C1A24987  20.732  43.022   8.852
 1622POPC   D2A24988  20.887  42.876   8.453
 1622POPC   C3A24989  20.780  43.084   8.080
 1622POPC   C4A24990  20.535  42.931   7.779
 1622POPC   C1B24991  20.663  43.518   8.834
 1622POPC   C2B24992  20.522  43.342   8.428
 1622POPC   C3B24993  20.336  43.383   7.986
 1622POPC   C4B24994  20.351  43.314   7.517
 1623POPC   NC324995  23.411  12.041   9.521
 1623POPC   PO424996  23.895  12.176   9.301
 1623POPC   GL124997  23.539  12.098   9.002
 1623POPC   GL224998  23.345  12.363   9.113
 1623POPC   C1A24999  23.488  12.048   8.525
 1623POPC   D2A25000  23.516  12.009   8.056
 1623POPC   C3A25001  23.938  11.982   7.864
 1623POPC   C4A25002  24.195  11.955   7.506
 1623POPC   C1B25003  23.249  12.465   8.690
 1623POPC   C2B25004  23.094  12.309   8.291
 1623POPC   C3B25005  23.229  12.385   7.871
 1623POPC   C4B25006  23.644  12.434   7.761
 1624POPC   NC325007   5.244  15.512   9.383
 1624POPC   PO425008   5.102  16.154   9.498
 1624POPC   GL125009   5.334  16.018   9.131
 1624POPC   GL225010   5.037  15.975   8.940
 1624POPC   C1A25011   5.522  16.054   8.719
 1624POPC   D2A25012   5.184  15.989   8.426
 1624POPC   C3A25013   5.239  15.817   8.029
 1624POPC   C4A25014   5.419  16.021   7.712
 1624POPC   C1B25015   4.744  16.194   8.619
 1624POPC   C2B25016   4.760  16.172   8.146
 1624POPC   C3B25017   4.822  15.903   7.746
 1624POPC   C4B25018   4.788  15.604   7.370
 1625POPC   NC325019  13.857  33.603   9.602
 1625POPC   PO425020  13.913  32.913   9.602
 1625POPC   GL125021  13.682  33.084   9.226
 1625POPC   GL225022  13.692  33.426   9.162
 1625POPC   C1A25023  13.657  32.851   8.812
 1625POPC   D2A25024  13.693  32.608   8.397
 1625POPC   C3A25025  13.543  32.849   8.037
 1625POPC   C4A25026  13.404  32.764   7.614
 1625POPC   C1B25027  13.974  33.287   8.845
 1625POPC   C2B25028  13.989  33.099   8.438
 1625POPC   C3B25029  13.876  33.271   8.042
 1625POPC   C4B25030  13.624  33.226   7.661
 1626POPC   NC325031   8.664   4.333   9.682
 1626POPC   PO425032   8.033   4.081   9.479
 1626POPC   GL125033   8.194   4.124   9.106
 1626POPC   GL225034   8.386   3.851   9.076
 1626POPC   C1A25035   7.991   4.237   8.718
 1626POPC   D2A25036   7.856   4.520   8.386
 1626POPC   C3A25037   8.177   4.466   8.130
 1626POPC   C4A25038   8.204   4.415   7.714
 1626POPC   C1B25039   8.404   3.910   8.649
 1626POPC   C2B25040   8.424   4.034   8.263
 1626POPC   C3B25041   8.165   3.928   7.932
 1626POPC   C4B25042   8.408   3.756   7.599
 1627POPC   NC325043  44.378  19.205   9.481
 1627POPC   PO425044  43.735  18.897   9.580
 1627POPC   GL125045  43.732  18.991   9.176
 1627POPC   GL225046  44.065  19.006   9.127
 1627POPC   C1A25047  43.571  18.922   8.760
 1627POPC   D2A25048  43.814  19.101   8.429
 1627POPC   C3A25049  43.758  19.017   8.021
 1627POPC   C4A25050  43.974  19.185   7.653
 1627POPC   C1B25051  44.056  18.753   8.762
 1627POPC   C2B25052  44.194  18.731   8.328
 1627POPC   C3B25053  44.207  18.803   7.875
 1627POPC   C4B25054  44.167  18.723   7.394
 1628POPC   NC325055   2.576   8.196   9.484
 1628POPC   PO425056   3.267   7.963   9.416
 1628POPC   GL125057   2.928   7.962   9.072
 1628POPC   GL225058   2.546   8.058   9.006
 1628POPC   C1A25059   2.835   7.979   8.616
 1628POPC   D2A25060   2.825   8.332   8.338
 1628POPC   C3A25061   2.924   8.281   7.918
 1628POPC   C4A25062   2.810   8.059   7.567
 1628POPC   C1B25063   2.434   8.348   8.704
 1628POPC   C2B25064   2.301   8.340   8.279
 1628POPC   C3B25065   2.411   8.144   7.890
 1628POPC   C4B25066   2.469   8.429   7.532
 1629POPC   NC325067  41.880   2.667   9.456
 1629POPC   PO425068  41.218   2.913   9.487
 1629POPC   GL125069  41.391   2.908   9.090
 1629POPC   GL225070  41.692   3.020   9.070
 1629POPC   C1A25071  41.451   2.970   8.627
 1629POPC   D2A25072  41.404   2.559   8.424
 1629POPC   C3A25073  41.443   2.543   7.987
 1629POPC   C4A25074  41.539   2.822   7.709
 1629POPC   C1B25075  41.714   2.581   8.839
 1629POPC   C2B25076  41.874   2.355   8.435
 1629POPC   C3B25077  41.964   2.462   7.995
 1629POPC   C4B25078  41.787   2.357   7.609
 1630POPC   NC325079  20.096   3.416   9.598
 1630POPC   PO425080  20.740   3.657   9.667
 1630POPC   GL125081  20.594   3.704   9.235
 1630POPC   GL225082  20.573   3.372   9.076
 1630POPC   C1A25083  20.518   3.957   8.865
 1630POPC   D2A25084  20.543   4.043   8.412
 1630POPC   C3A25085  20.532   3.677   8.112
 1630POPC   C4A25086  20.448   3.568   7.665
 1630POPC   C1B25087  20.702   3.391   8.611
 1630POPC   C2B25088  20.848   3.241   8.195
 1630POPC   C3B25089  20.710   3.138   7.760
 1630POPC   C4B25090  20.774   3.327   7.317
 1631POPC   NC325091   4.883   5.278   9.544
 1631POPC   PO425092   5.442   5.542   9.317
 1631POPC   GL125093   5.203   5.315   9.054
 1631POPC   GL225094   5.060   5.024   9.121
 1631POPC   C1A25095   5.141   5.178   8.619
 1631POPC   D2A25096   5.171   4.917   8.248
 1631POPC   C3A25097   5.203   5.168   7.854
 1631POPC   C4A25098   4.994   5.185   7.448
 1631POPC   C1B25099   4.777   4.858   8.807
 1631POPC   C2B25100   4.673   4.852   8.329
 1631POPC   C3B25101   4.800   4.831   7.836
 1631POPC   C4B25102   4.683   4.784   7.356
 1632POPC   NC325103   1.960  44.167   9.479
 1632POPC   PO425104   1.846  43.482   9.480
 1632POPC   GL125105   2.152  43.723   9.181
 1632POPC   GL225106   2.379  44.042   9.231
 1632POPC   C1A25107   2.043  43.761   8.740
 1632POPC   D2A25108   1.703  43.990   8.531
 1632POPC   C3A25109   1.721  44.033   8.087
 1632POPC   C4A25110   1.857  43.754   7.756
 1632POPC   C1B25111   2.424  44.126   8.804
 1632POPC   C2B25112   2.216  44.135   8.411
 1632POPC   C3B25113   2.226  43.901   8.083
 1632POPC   C4B25114   2.320  43.989   7.706
 1633POPC   NC325115  25.061  29.506   9.421
 1633POPC   PO425116  24.869  28.895   9.502
 1633POPC   GL125117  25.095  29.040   9.167
 1633POPC   GL225118  25.443  29.063   9.264
 1633POPC   C1A25119  24.946  29.181   8.779
 1633POPC   D2A25120  24.750  29.167   8.391
 1633POPC   C3A25121  25.020  29.365   8.143
 1633POPC   C4A25122  25.199  29.324   7.740
 1633POPC   C1B25123  25.469  29.122   8.812
 1633POPC   C2B25124  25.458  29.306   8.385
 1633POPC   C3B25125  25.635  29.313   7.965
 1633POPC   C4B25126  25.621  29.094   7.588
 1634POPC   NC325127  35.646  16.600   9.520
 1634POPC   PO425128  35.043  16.711   9.779
 1634POPC   GL125129  35.212  16.792   9.338
 1634POPC   GL225130  35.235  16.417   9.244
 1634POPC   C1A25131  35.384  16.928   8.921
 1634POPC   D2A25132  35.370  17.025   8.458
 1634POPC   C3A25133  35.065  16.818   8.183
 1634POPC   C4A25134  35.059  16.778   7.736
 1634POPC   C1B25135  35.482  16.427   8.866
 1634POPC   C2B25136  35.462  16.530   8.466
 1634POPC   C3B25137  35.424  16.471   8.043
 1634POPC   C4B25138  35.483  16.177   7.734
 1635POPC   NC325139  29.993  36.993   9.532
 1635POPC   PO425140  29.462  36.526   9.712
 1635POPC   GL125141  29.846  36.521   9.345
 1635POPC   GL225142  29.937  36.812   9.084
 1635POPC   C1A25143  29.929  36.375   8.881
 1635POPC   D2A25144  29.861  36.701   8.564
 1635POPC   C3A25145  30.073  36.803   8.205
 1635POPC   C4A25146  30.018  36.743   7.783
 1635POPC   C1B25147  29.739  37.145   8.834
 1635POPC   C2B25148  29.744  37.185   8.385
 1635POPC   C3B25149  29.807  37.240   7.920
 1635POPC   C4B25150  29.874  37.128   7.488
 1636POPC   NC325151  26.026  36.328   9.733
 1636POPC   PO425152  26.346  35.903   9.520
 1636POPC   GL125153  26.038  35.915   9.194
 1636POPC   GL225154  25.997  35.587   9.070
 1636POPC   C1A25155  25.942  36.023   8.740
 1636POPC   D2A25156  26.196  36.163   8.372
 1636POPC   C3A25157  26.075  36.129   7.918
 1636POPC   C4A25158  26.155  36.078   7.471
 1636POPC   C1B25159  26.278  35.642   8.694
 1636POPC   C2B25160  26.334  35.689   8.234
 1636POPC   C3B25161  26.164  35.632   7.818
 1636POPC   C4B25162  25.776  35.759   7.621
 1637POPC   NC325163  38.218  40.234   9.500
 1637POPC   PO425164  38.856  39.944   9.637
 1637POPC   GL125165  38.542  39.914   9.279
 1637POPC   GL225166  38.293  39.674   9.357
 1637POPC   C1A25167  38.449  40.124   8.834
 1637POPC   D2A25168  38.431  40.342   8.390
 1637POPC   C3A25169  38.634  40.302   7.973
 1637POPC   C4A25170  38.414  39.988   7.707
 1637POPC   C1B25171  38.379  39.602   8.912
 1637POPC   C2B25172  38.312  39.740   8.500
 1637POPC   C3B25173  38.247  39.667   8.077
 1637POPC   C4B25174  38.164  39.511   7.691
 1638POPC   NC325175  10.046   4.228   9.395
 1638POPC   PO425176   9.431   4.568   9.360
 1638POPC   GL125177   9.470   4.369   9.036
 1638POPC   GL225178   9.689   4.131   9.048
 1638POPC   C1A25179   9.603   4.505   8.684
 1638POPC   D2A25180   9.808   4.687   8.388
 1638POPC   C3A25181   9.590   4.530   8.069
 1638POPC   C4A25182   9.629   4.523   7.655
 1638POPC   C1B25183   9.559   3.983   8.666
 1638POPC   C2B25184   9.832   4.166   8.364
 1638POPC   C3B25185  10.018   4.277   7.974
 1638POPC   C4B25186   9.763   4.055   7.746
 1639POPC   NC325187  39.109  34.740   9.465
 1639POPC   PO425188  39.478  34.195   9.359
 1639POPC   GL125189  39.407  34.518   9.077
 1639POPC   GL225190  39.381  34.899   9.063
 1639POPC   C1A25191  39.228  34.543   8.678
 1639POPC   D2A25192  39.192  34.765   8.312
 1639POPC   C3A25193  39.159  34.538   7.941
 1639POPC   C4A25194  39.293  34.438   7.544
 1639POPC   C1B25195  38.968  34.965   8.798
 1639POPC   C2B25196  38.725  34.953   8.398
 1639POPC   C3B25197  38.893  34.972   7.954
 1639POPC   C4B25198  38.875  34.773   7.557
 1640POPC   NC325199  17.505  33.934   9.671
 1640POPC   PO425200  17.208  33.539   9.158
 1640POPC   GL125201  17.535  33.710   8.992
 1640POPC   GL225202  17.639  34.033   9.155
 1640POPC   C1A25203  17.467  33.810   8.594
 1640POPC   D2A25204  17.691  34.089   8.441
 1640POPC   C3A25205  17.677  33.887   8.076
 1640POPC   C4A25206  17.632  33.964   7.677
 1640POPC   C1B25207  17.262  34.180   8.878
 1640POPC   C2B25208  17.122  34.217   8.415
 1640POPC   C3B25209  17.190  34.055   7.963
 1640POPC   C4B25210  17.158  34.069   7.478
 1641POPC   NC325211  25.405   3.977   9.441
 1641POPC   PO425212  24.681   4.222   9.471
 1641POPC   GL125213  24.998   4.176   9.215
 1641POPC   GL225214  25.258   4.435   9.265
 1641POPC   C1A25215  25.172   4.051   8.826
 1641POPC   D2A25216  25.246   4.239   8.447
 1641POPC   C3A25217  25.258   4.025   8.056
 1641POPC   C4A25218  25.180   4.263   7.698
 1641POPC   C1B25219  25.519   4.449   8.893
 1641POPC   C2B25220  25.707   4.397   8.495
 1641POPC   C3B25221  25.550   4.456   8.084
 1641POPC   C4B25222  25.558   4.627   7.697
 1642POPC   NC325223   8.189  12.606   9.515
 1642POPC   PO425224   7.950  12.013   9.793
 1642POPC   GL125225   7.960  12.134   9.322
 1642POPC   GL225226   8.284  12.106   9.224
 1642POPC   C1A25227   7.908  12.037   8.847
 1642POPC   D2A25228   8.094  11.802   8.463
 1642POPC   C3A25229   7.975  11.930   8.009
 1642POPC   C4A25230   8.033  12.133   7.613
 1642POPC   C1B25231   8.445  11.838   8.901
 1642POPC   C2B25232   8.623  11.944   8.508
 1642POPC   C3B25233   8.446  12.133   8.152
 1642POPC   C4B25234   8.475  11.935   7.759
 1643POPC   NC325235  10.165  21.617   9.840
 1643POPC   PO425236   9.727  21.215   9.441
 1643POPC   GL125237   9.777  21.456   9.077
 1643POPC   GL225238  10.111  21.622   8.937
 1643POPC   C1A25239   9.525  21.389   8.704
 1643POPC   D2A25240   9.424  21.569   8.301
 1643POPC   C3A25241   9.725  21.528   7.933
 1643POPC   C4A25242   9.461  21.633   7.636
 1643POPC   C1B25243  10.035  21.288   8.666
 1643POPC   C2B25244   9.789  21.178   8.306
 1643POPC   C3B25245   9.864  21.044   7.895
 1643POPC   C4B25246  10.049  21.252   7.509
 1644POPC   NC325247  28.451  29.468   9.533
 1644POPC   PO425248  28.652  28.864   9.481
 1644POPC   GL125249  28.269  29.046   9.277
 1644POPC   GL225250  28.554  29.162   9.079
 1644POPC   C1A25251  28.125  29.113   8.837
 1644POPC   D2A25252  28.409  29.205   8.504
 1644POPC   C3A25253  28.205  29.261   8.128
 1644POPC   C4A25254  28.302  29.176   7.732
 1644POPC   C1B25255  28.799  29.403   8.826
 1644POPC   C2B25256  28.858  29.433   8.379
 1644POPC   C3B25257  28.703  29.206   8.048
 1644POPC   C4B25258  28.787  28.981   7.689
 1645POPC   NC325259  35.843  21.143   9.780
 1645POPC   PO425260  36.420  21.451   9.477
 1645POPC   GL125261  36.188  21.333   9.149
 1645POPC   GL225262  36.227  21.051   9.016
 1645POPC   C1A25263  36.161  21.465   8.713
 1645POPC   D2A25264  35.963  21.374   8.332
 1645POPC   C3A25265  36.162  21.358   7.965
 1645POPC   C4A25266  36.225  21.559   7.549
 1645POPC   C1B25267  35.915  20.958   8.659
 1645POPC   C2B25268  35.752  20.917   8.233
 1645POPC   C3B25269  35.674  21.167   7.956
 1645POPC   C4B25270  35.902  21.131   7.605
 1646POPC   NC325271  36.470   0.321   9.719
 1646POPC   PO425272  36.296   0.856   9.399
 1646POPC   GL125273  36.247   0.710   9.043
 1646POPC   GL225274  36.249   0.351   9.106
 1646POPC   C1A25275  35.954   0.758   8.734
 1646POPC   D2A25276  36.110   0.689   8.342
 1646POPC   C3A25277  35.867   0.510   8.016
 1646POPC   C4A25278  35.986   0.491   7.632
 1646POPC   C1B25279  36.278   0.352   8.676
 1646POPC   C2B25280  36.133   0.156   8.307
 1646POPC   C3B25281  36.101   0.038   7.870
 1646POPC   C4B25282  36.379   0.171   7.542
 1647POPC   NC325283  30.819  33.555   9.474
 1647POPC   PO425284  30.193  33.465   9.192
 1647POPC   GL125285  30.561  33.719   9.054
 1647POPC   GL225286  30.905  33.870   9.098
 1647POPC   C1A25287  30.700  33.773   8.652
 1647POPC   D2A25288  30.692  33.583   8.340
 1647POPC   C3A25289  30.385  33.693   8.091
 1647POPC   C4A25290  30.480  33.806   7.692
 1647POPC   C1B25291  31.078  34.093   8.766
 1647POPC   C2B25292  31.149  33.884   8.376
 1647POPC   C3B25293  30.852  33.966   8.050
 1647POPC   C4B25294  30.799  34.280   7.783
 1648POPC   NC325295  23.085  29.180   9.559
 1648POPC   PO425296  23.781  29.264   9.521
 1648POPC   GL125297  23.923  29.119   9.151
 1648POPC   GL225298  23.525  29.065   9.098
 1648POPC   C1A25299  24.060  28.851   8.830
 1648POPC   D2A25300  24.009  29.032   8.421
 1648POPC   C3A25301  23.975  28.829   8.023
 1648POPC   C4A25302  23.808  28.893   7.560
 1648POPC   C1B25303  23.678  29.301   8.752
 1648POPC   C2B25304  23.757  29.476   8.369
 1648POPC   C3B25305  23.850  29.319   7.973
 1648POPC   C4B25306  23.590  29.338   7.616
 1649POPC   NC325307  18.393  33.515   9.480
 1649POPC   PO425308  17.992  34.004   9.568
 1649POPC   GL125309  18.173  33.965   9.202
 1649POPC   GL225310  18.543  33.985   9.299
 1649POPC   C1A25311  18.116  34.053   8.750
 1649POPC   D2A25312  18.091  33.745   8.389
 1649POPC   C3A25313  18.136  33.765   7.920
 1649POPC   C4A25314  18.075  34.167   7.780
 1649POPC   C1B25315  18.499  33.749   8.895
 1649POPC   C2B25316  18.576  33.863   8.517
 1649POPC   C3B25317  18.557  33.954   8.135
 1649POPC   C4B25318  18.636  33.683   7.761
 1650POPC   NC325319  12.132  27.070   9.623
 1650POPC   PO425320  11.599  26.624   9.402
 1650POPC   GL125321  11.911  26.877   9.177
 1650POPC   GL225322  12.264  26.754   9.250
 1650POPC   C1A25323  12.119  26.998   8.783
 1650POPC   D2A25324  12.034  27.178   8.397
 1650POPC   C3A25325  12.035  26.940   8.025
 1650POPC   C4A25326  11.729  26.827   7.723
 1650POPC   C1B25327  12.277  26.535   8.849
 1650POPC   C2B25328  12.325  26.668   8.390
 1650POPC   C3B25329  12.293  26.461   7.946
 1650POPC   C4B25330  12.313  26.417   7.451
 1651POPC   NC325331  42.344  41.502   9.489
 1651POPC   PO425332  42.880  41.123   9.354
 1651POPC   GL125333  42.635  41.374   9.092
 1651POPC   GL225334  42.646  41.739   9.153
 1651POPC   C1A25335  42.394  41.492   8.724
 1651POPC   D2A25336  42.404  41.306   8.337
 1651POPC   C3A25337  42.392  41.505   7.975
 1651POPC   C4A25338  42.066  41.610   7.735
 1651POPC   C1B25339  42.772  41.830   8.742
 1651POPC   C2B25340  42.693  42.066   8.395
 1651POPC   C3B25341  42.879  42.012   8.020
 1651POPC   C4B25342  42.714  41.780   7.674
 1652POPC   NC325343  35.755  29.930   9.511
 1652POPC   PO425344  36.336  29.662   9.394
 1652POPC   GL125345  36.270  29.952   9.066
 1652POPC   GL225346  35.948  30.008   9.056
 1652POPC   C1A25347  36.226  29.904   8.629
 1652POPC   D2A25348  36.437  30.098   8.291
 1652POPC   C3A25349  36.257  29.926   7.950
 1652POPC   C4A25350  36.320  29.474   7.929
 1652POPC   C1B25351  35.792  30.222   8.704
 1652POPC   C2B25352  35.901  30.136   8.287
 1652POPC   C3B25353  35.737  30.198   7.896
 1652POPC   C4B25354  35.870  30.457   7.572
 1653POPC   NC325355  29.963  44.572   9.409
 1653POPC   PO425356  29.908  43.884   9.475
 1653POPC   GL125357  29.942  44.032   9.090
 1653POPC   GL225358  29.717  44.289   9.074
 1653POPC   C1A25359  29.962  43.753   8.750
 1653POPC   D2A25360  30.197  43.694   8.411
 1653POPC   C3A25361  29.944  43.713   8.041
 1653POPC   C4A25362  30.098  43.904   7.674
 1653POPC   C1B25363  29.652  44.133   8.640
 1653POPC   C2B25364  29.738  44.157   8.216
 1653POPC   C3B25365  29.816  44.301   7.802
 1653POPC   C4B25366  29.568  44.201   7.452
 1654POPC   NC325367  29.258   5.183   9.494
 1654POPC   PO425368  28.567   5.081   9.676
 1654POPC   GL125369  28.700   5.077   9.253
 1654POPC   GL225370  28.911   4.779   9.275
 1654POPC   C1A25371  28.968   5.132   8.877
 1654POPC   D2A25372  29.187   5.206   8.479
 1654POPC   C3A25373  28.901   5.270   8.135
 1654POPC   C4A25374  29.015   5.134   7.738
 1654POPC   C1B25375  29.217   4.618   8.952
 1654POPC   C2B25376  29.286   4.569   8.490
 1654POPC   C3B25377  29.216   4.833   8.109
 1654POPC   C4B25378  29.301   4.738   7.671
 1655POPC   NC325379  10.206  24.976   9.471
 1655POPC   PO425380  10.834  25.004   9.610
 1655POPC   GL125381  10.859  25.226   9.199
 1655POPC   GL225382  10.515  25.311   9.174
 1655POPC   C1A25383  10.745  25.282   8.723
 1655POPC   D2A25384  10.433  25.268   8.384
 1655POPC   C3A25385  10.599  25.277   7.984
 1655POPC   C4A25386  10.767  25.356   7.593
 1655POPC   C1B25387  10.284  25.046   8.842
 1655POPC   C2B25388  10.137  24.882   8.455
 1655POPC   C3B25389  10.030  24.965   8.029
 1655POPC   C4B25390  10.215  25.159   7.667
 1656POPC   NC325391  17.100   1.264   9.437
 1656POPC   PO425392  16.480   0.904   9.533
 1656POPC   GL125393  16.710   1.092   9.155
 1656POPC   GL225394  16.705   1.394   9.082
 1656POPC   C1A25395  16.950   1.145   8.740
 1656POPC   D2A25396  16.922   1.357   8.322
 1656POPC   C3A25397  16.696   1.176   7.946
 1656POPC   C4A25398  16.767   0.866   7.627
 1656POPC   C1B25399  16.753   1.682   8.762
 1656POPC   C2B25400  16.584   1.748   8.371
 1656POPC   C3B25401  16.767   1.685   7.963
 1656POPC   C4B25402  16.481   1.575   7.663
 1657POPC   NC325403  40.948  21.909   9.446
 1657POPC   PO425404  40.878  22.572   9.496
 1657POPC   GL125405  40.664  22.317   9.192
 1657POPC   GL225406  40.591  21.986   9.019
 1657POPC   C1A25407  40.450  22.433   8.829
 1657POPC   D2A25408  40.673  22.406   8.478
 1657POPC   C3A25409  40.545  22.254   8.104
 1657POPC   C4A25410  40.654  22.170   7.684
 1657POPC   C1B25411  40.956  22.152   8.811
 1657POPC   C2B25412  41.089  22.107   8.397
 1657POPC   C3B25413  41.018  22.011   7.998
 1657POPC   C4B25414  40.996  21.663   7.721
 1658POPC   NC325415  18.523  37.064   9.566
 1658POPC   PO425416  18.298  36.513   9.457
 1658POPC   GL125417  18.459  36.749   9.115
 1658POPC   GL225418  18.174  36.950   9.118
 1658POPC   C1A25419  18.360  36.876   8.664
 1658POPC   D2A25420  18.369  37.044   8.277
 1658POPC   C3A25421  18.294  36.740   7.988
 1658POPC   C4A25422  18.411  36.743   7.556
 1658POPC   C1B25423  17.929  37.197   8.783
 1658POPC   C2B25424  17.988  37.374   8.352
 1658POPC   C3B25425  17.971  37.152   7.947
 1658POPC   C4B25426  17.830  36.732   7.805
 1659POPC   NC325427   1.669  42.470   9.349
 1659POPC   PO425428   1.119  42.132   9.325
 1659POPC   GL125429   0.990  42.366   8.979
 1659POPC   GL225430   1.186  42.640   9.073
 1659POPC   C1A25431   1.008  42.313   8.527
 1659POPC   D2A25432   1.361  42.158   8.295
 1659POPC   C3A25433   1.192  42.086   7.916
 1659POPC   C4A25434   0.989  42.343   7.632
 1659POPC   C1B25435   1.422  42.486   8.740
 1659POPC   C2B25436   1.342  42.686   8.373
 1659POPC   C3B25437   1.239  42.613   7.988
 1659POPC   C4B25438   1.502  42.452   7.691
 1660POPC   NC325439  28.891  31.019   9.879
 1660POPC   PO425440  29.278  30.611   9.482
 1660POPC   GL125441  29.202  30.488   9.082
 1660POPC   GL225442  28.930  30.697   8.937
 1660POPC   C1A25443  29.340  30.654   8.686
 1660POPC   D2A25444  28.984  30.798   8.408
 1660POPC   C3A25445  29.161  30.826   7.976
 1660POPC   C4A25446  29.523  30.654   7.731
 1660POPC   C1B25447  28.671  31.030   8.798
 1660POPC   C2B25448  28.488  30.987   8.411
 1660POPC   C3B25449  28.655  30.956   8.020
 1660POPC   C4B25450  28.816  31.155   7.688
 1661POPC   NC325451   7.924  33.995   9.486
 1661POPC   PO425452   8.369  33.487   9.524
 1661POPC   GL125453   8.206  33.720   9.155
 1661POPC   GL225454   8.096  34.059   9.032
 1661POPC   C1A25455   8.327  33.739   8.727
 1661POPC   D2A25456   8.185  33.620   8.342
 1661POPC   C3A25457   8.286  33.852   7.998
 1661POPC   C4A25458   8.187  33.615   7.618
 1661POPC   C1B25459   8.149  34.247   8.692
 1661POPC   C2B25460   7.967  34.149   8.329
 1661POPC   C3B25461   7.953  34.253   7.947
 1661POPC   C4B25462   8.085  34.109   7.608
 1662POPC   NC325463   5.097  31.325   9.691
 1662POPC   PO425464   5.463  31.873   9.645
 1662POPC   GL125465   5.260  31.596   9.301
 1662POPC   GL225466   4.879  31.669   9.260
 1662POPC   C1A25467   5.299  31.329   8.908
 1662POPC   D2A25468   5.164  31.393   8.445
 1662POPC   C3A25469   5.351  31.500   8.006
 1662POPC   C4A25470   5.162  31.368   7.591
 1662POPC   C1B25471   4.781  31.445   8.856
 1662POPC   C2B25472   4.653  31.524   8.420
 1662POPC   C3B25473   4.834  31.461   8.008
 1662POPC   C4B25474   4.670  31.556   7.611
 1663POPC   NC325475  26.414  42.763  10.112
 1663POPC   PO425476  26.863  43.138   9.637
 1663POPC   GL125477  26.875  43.084   9.198
 1663POPC   GL225478  26.622  43.347   9.188
 1663POPC   C1A25479  26.993  43.291   8.808
 1663POPC   D2A25480  26.899  43.512   8.443
 1663POPC   C3A25481  26.862  43.272   8.081
 1663POPC   C4A25482  27.023  42.998   7.788
 1663POPC   C1B25483  26.520  43.509   8.794
 1663POPC   C2B25484  26.516  43.173   8.477
 1663POPC   C3B25485  26.388  43.093   8.048
 1663POPC   C4B25486  26.569  43.222   7.662
 1664POPC   NC325487  20.817   7.065   9.645
 1664POPC   PO425488  20.416   7.581   9.483
 1664POPC   GL125489  20.593   7.285   9.226
 1664POPC   GL225490  20.746   7.576   9.050
 1664POPC   C1A25491  20.488   7.078   8.853
 1664POPC   D2A25492  20.597   7.260   8.474
 1664POPC   C3A25493  20.487   7.097   8.085
 1664POPC   C4A25494  20.595   7.102   7.677
 1664POPC   C1B25495  20.356   7.577   8.786
 1664POPC   C2B25496  20.323   7.662   8.304
 1664POPC   C3B25497  20.487   7.575   7.884
 1664POPC   C4B25498  20.306   7.470   7.477
 1665POPC   NC325499  30.438   7.227   9.399
 1665POPC   PO425500  30.831   7.673   9.534
 1665POPC   GL125501  30.763   7.564   9.127
 1665POPC   GL225502  30.432   7.521   8.972
 1665POPC   C1A25503  30.949   7.438   8.749
 1665POPC   D2A25504  31.223   7.577   8.434
 1665POPC   C3A25505  31.035   7.651   8.057
 1665POPC   C4A25506  30.920   7.752   7.652
 1665POPC   C1B25507  30.571   7.140   8.703
 1665POPC   C2B25508  30.829   7.170   8.298
 1665POPC   C3B25509  30.708   7.285   7.864
 1665POPC   C4B25510  30.437   7.595   7.633
 1666POPC   NC325511  27.931  34.061   9.522
 1666POPC   PO425512  27.441  33.615   9.685
 1666POPC   GL125513  27.621  33.668   9.235
 1666POPC   GL225514  27.416  33.476   8.986
 1666POPC   C1A25515  27.675  33.941   8.831
 1666POPC   D2A25516  27.442  34.112   8.419
 1666POPC   C3A25517  27.631  34.020   7.989
 1666POPC   C4A25518  28.000  34.125   7.786
 1666POPC   C1B25519  27.347  33.648   8.591
 1666POPC   C2B25520  27.569  33.582   8.228
 1666POPC   C3B25521  27.427  33.464   7.814
 1666POPC   C4B25522  27.404  33.644   7.399
 1667POPC   NC325523   8.969  35.638   9.428
 1667POPC   PO425524   8.819  36.330   9.437
 1667POPC   GL125525   8.914  36.039   9.135
 1667POPC   GL225526   9.262  36.056   9.213
 1667POPC   C1A25527   8.792  35.754   8.774
 1667POPC   D2A25528   8.739  35.950   8.371
 1667POPC   C3A25529   8.976  36.093   8.028
 1667POPC   C4A25530   8.977  36.514   7.841
 1667POPC   C1B25531   9.208  36.053   8.738
 1667POPC   C2B25532   9.332  35.908   8.366
 1667POPC   C3B25533   9.499  36.174   8.082
 1667POPC   C4B25534   9.337  36.205   7.670
 1668POPC   NC325535   1.986  28.676   9.590
 1668POPC   PO425536   2.422  28.230   9.524
 1668POPC   GL125537   2.137  28.380   9.158
 1668POPC   GL225538   1.799  28.553   9.135
 1668POPC   C1A25539   2.033  28.385   8.697
 1668POPC   D2A25540   2.073  28.144   8.314
 1668POPC   C3A25541   2.031  28.352   7.917
 1668POPC   C4A25542   2.038  28.133   7.539
 1668POPC   C1B25543   1.623  28.180   8.915
 1668POPC   C2B25544   1.582  27.979   8.494
 1668POPC   C3B25545   1.664  27.968   8.029
 1668POPC   C4B25546   1.529  28.274   7.720
 1669POPC   NC325547   2.238   2.084   9.525
 1669POPC   PO425548   2.411   1.525   9.481
 1669POPC   GL125549   2.184   1.757   9.132
 1669POPC   GL225550   1.880   1.992   9.161
 1669POPC   C1A25551   1.971   1.738   8.744
 1669POPC   D2A25552   2.022   1.959   8.420
 1669POPC   C3A25553   1.805   1.789   8.104
 1669POPC   C4A25554   1.924   1.887   7.694
 1669POPC   C1B25555   1.695   2.189   8.771
 1669POPC   C2B25556   1.595   2.256   8.320
 1669POPC   C3B25557   1.879   2.311   7.973
 1669POPC   C4B25558   1.867   2.368   7.518
 1670POPC   NC325559  11.030  40.333   9.490
 1670POPC   PO425560  11.498  39.833   9.594
 1670POPC   GL125561  11.417  40.061   9.216
 1670POPC   GL225562  11.069  39.930   9.160
 1670POPC   C1A25563  11.416  39.957   8.770
 1670POPC   D2A25564  11.230  39.929   8.361
 1670POPC   C3A25565  11.320  40.142   8.000
 1670POPC   C4A25566  11.488  39.990   7.653
 1670POPC   C1B25567  10.890  39.946   8.748
 1670POPC   C2B25568  10.732  39.845   8.331
 1670POPC   C3B25569  10.930  39.638   7.976
 1670POPC   C4B25570  10.737  39.655   7.561
 1671POPC   NC325571  40.275   7.937   9.535
 1671POPC   PO425572  39.646   8.146   9.445
 1671POPC   GL125573  39.936   8.327   9.138
 1671POPC   GL225574  40.306   8.181   9.092
 1671POPC   C1A25575  39.709   8.476   8.773
 1671POPC   D2A25576  39.560   8.229   8.446
 1671POPC   C3A25577  39.842   8.155   8.131
 1671POPC   C4A25578  39.963   8.342   7.761
 1671POPC   C1B25579  40.248   7.985   8.693
 1671POPC   C2B25580  40.171   7.791   8.279
 1671POPC   C3B25581  40.270   7.946   7.846
 1671POPC   C4B25582  40.479   7.978   7.403
 1672POPC   NC325583   0.807  44.987   9.404
 1672POPC   PO425584   0.351   0.442   9.410
 1672POPC   GL125585   0.402   0.385   9.025
 1672POPC   GL225586   0.670   0.223   8.988
 1672POPC   C1A25587   0.499   0.619   8.689
 1672POPC   D2A25588   0.544   0.427   8.329
 1672POPC   C3A25589   0.410   0.583   7.957
 1672POPC   C4A25590   0.479   0.488   7.528
 1672POPC   C1B25591   0.916   0.053   8.694
 1672POPC   C2B25592   0.786  44.992   8.271
 1672POPC   C3B25593   0.705   0.165   7.893
 1672POPC   C4B25594   0.973   0.311   7.601
 1673POPC   NC325595  32.591  26.704   9.460
 1673POPC   PO425596  32.220  27.214   9.287
 1673POPC   GL125597  32.408  26.931   9.039
 1673POPC   GL225598  32.146  26.720   9.044
 1673POPC   C1A25599  32.506  26.783   8.642
 1673POPC   D2A25600  32.384  26.582   8.288
 1673POPC   C3A25601  32.365  26.822   7.901
 1673POPC   C4A25602  32.032  27.046   7.713
 1673POPC   C1B25603  31.988  26.817   8.619
 1673POPC   C2B25604  31.945  26.825   8.176
 1673POPC   C3B25605  31.765  26.622   7.813
 1673POPC   C4B25606  31.702  26.777   7.367
 1674POPC   NC325607  24.430   6.533   9.510
 1674POPC   PO425608  24.579   7.188   9.365
 1674POPC   GL125609  24.390   6.852   9.060
 1674POPC   GL225610  24.328   6.460   9.036
 1674POPC   C1A25611  24.422   6.722   8.601
 1674POPC   D2A25612  24.219   6.760   8.185
 1674POPC   C3A25613  24.560   6.866   7.928
 1674POPC   C4A25614  24.858   6.596   7.738
 1674POPC   C1B25615  24.239   6.218   8.697
 1674POPC   C2B25616  24.362   6.271   8.291
 1674POPC   C3B25617  24.413   6.395   7.872
 1674POPC   C4B25618  24.419   6.654   7.459
 1675POPC   NC325619   8.968  23.788   9.491
 1675POPC   PO425620   8.936  23.171   9.676
 1675POPC   GL125621   9.001  23.272   9.222
 1675POPC   GL225622   8.695  23.343   9.067
 1675POPC   C1A25623   9.104  23.401   8.761
 1675POPC   D2A25624   9.186  23.613   8.337
 1675POPC   C3A25625   9.043  23.623   7.885
 1675POPC   C4A25626   9.088  23.387   7.487
 1675POPC   C1B25627   8.472  23.336   8.712
 1675POPC   C2B25628   8.715  23.344   8.379
 1675POPC   C3B25629   8.792  23.216   8.016
 1675POPC   C4B25630   8.618  23.379   7.674
 1676POPC   NC325631  15.520   1.715   9.381
 1676POPC   PO425632  16.013   2.232   9.419
 1676POPC   GL125633  15.911   2.371   9.035
 1676POPC   GL225634  15.666   2.103   9.025
 1676POPC   C1A25635  15.879   2.286   8.607
 1676POPC   D2A25636  16.059   2.041   8.324
 1676POPC   C3A25637  15.974   2.234   7.936
 1676POPC   C4A25638  15.572   2.341   7.810
 1676POPC   C1B25639  15.828   1.788   8.746
 1676POPC   C2B25640  15.639   1.683   8.343
 1676POPC   C3B25641  15.629   1.837   7.930
 1676POPC   C4B25642  15.660   1.932   7.479
 1677POPC   NC325643  38.499   4.479   9.618
 1677POPC   PO425644  37.935   4.054   9.569
 1677POPC   GL125645  38.224   4.083   9.233
 1677POPC   GL225646  38.091   4.406   9.217
 1677POPC   C1A25647  38.529   4.312   8.931
 1677POPC   D2A25648  38.757   4.574   8.596
 1677POPC   C3A25649  38.742   4.456   8.137
 1677POPC   C4A25650  38.486   4.585   7.794
 1677POPC   C1B25651  38.148   4.653   8.891
 1677POPC   C2B25652  37.990   4.621   8.523
 1677POPC   C3B25653  38.164   4.500   8.177
 1677POPC   C4B25654  38.000   4.440   7.765
 1678POPC   NC325655  39.488  18.320   9.516
 1678POPC   PO425656  40.174  18.344   9.479
 1678POPC   GL125657  39.974  18.296   9.121
 1678POPC   GL225658  40.252  18.074   9.041
 1678POPC   C1A25659  39.653  18.216   8.816
 1678POPC   D2A25660  39.596  18.003   8.421
 1678POPC   C3A25661  39.739  18.274   8.056
 1678POPC   C4A25662  40.061  18.549   7.826
 1678POPC   C1B25663  40.147  18.252   8.639
 1678POPC   C2B25664  40.218  18.286   8.227
 1678POPC   C3B25665  40.219  18.057   7.838
 1678POPC   C4B25666  40.436  17.897   7.466
 1679POPC   NC325667  30.425   3.475   9.479
 1679POPC   PO425668  31.048   3.635   9.581
 1679POPC   GL125669  30.826   3.652   9.202
 1679POPC   GL225670  30.601   3.923   9.254
 1679POPC   C1A25671  30.717   3.387   8.827
 1679POPC   D2A25672  30.623   3.230   8.379
 1679POPC   C3A25673  30.476   3.405   7.974
 1679POPC   C4A25674  30.717   3.355   7.565
 1679POPC   C1B25675  30.425   3.821   8.848
 1679POPC   C2B25676  30.467   3.774   8.396
 1679POPC   C3B25677  30.332   3.897   7.968
 1679POPC   C4B25678  30.435   3.759   7.542
 1680POPC   NC325679   5.062   8.644   9.769
 1680POPC   PO425680   5.221   9.264   9.561
 1680POPC   GL125681   5.066   9.083   9.136
 1680POPC   GL225682   5.259   8.812   8.922
 1680POPC   C1A25683   4.943   9.113   8.665
 1680POPC   D2A25684   5.261   8.985   8.346
 1680POPC   C3A25685   5.117   8.984   7.944
 1680POPC   C4A25686   4.981   9.375   7.793
 1680POPC   C1B25687   5.018   8.606   8.579
 1680POPC   C2B25688   4.801   8.618   8.192
 1680POPC   C3B25689   4.856   8.574   7.759
 1680POPC   C4B25690   5.091   8.482   7.427
 1681POPC   NC325691  28.084  42.970   9.638
 1681POPC   PO425692  28.664  43.254   9.404
 1681POPC   GL125693  28.368  43.072   9.097
 1681POPC   GL225694  28.101  42.789   9.155
 1681POPC   C1A25695  28.440  43.247   8.673
 1681POPC   D2A25696  28.309  43.471   8.318
 1681POPC   C3A25697  28.444  43.398   7.898
 1681POPC   C4A25698  28.412  42.985   7.753
 1681POPC   C1B25699  28.052  42.917   8.704
 1681POPC   C2B25700  28.196  42.923   8.272
 1681POPC   C3B25701  27.969  42.771   7.926
 1681POPC   C4B25702  27.782  42.904   7.548
 1682POPC   NC325703   4.658  35.921   9.313
 1682POPC   PO425704   5.181  36.266   9.548
 1682POPC   GL125705   5.062  36.157   9.117
 1682POPC   GL225706   5.031  35.791   9.010
 1682POPC   C1A25707   5.266  36.124   8.715
 1682POPC   D2A25708   5.148  36.364   8.378
 1682POPC   C3A25709   5.304  36.378   7.967
 1682POPC   C4A25710   5.159  36.132   7.682
 1682POPC   C1B25711   4.908  35.827   8.555
 1682POPC   C2B25712   5.243  35.857   8.222
 1682POPC   C3B25713   5.230  35.641   7.813
 1682POPC   C4B25714   4.923  35.724   7.486
 1683POPC   NC325715  42.859  24.177   9.255
 1683POPC   PO425716  42.333  24.565   9.570
 1683POPC   GL125717  42.429  24.606   9.145
 1683POPC   GL225718  42.241  24.368   8.961
 1683POPC   C1A25719  42.338  24.786   8.730
 1683POPC   D2A25720  42.184  24.540   8.392
 1683POPC   C3A25721  42.251  24.740   8.043
 1683POPC   C4A25722  42.373  24.680   7.638
 1683POPC   C1B25723  42.530  24.248   8.645
 1683POPC   C2B25724  42.543  24.100   8.215
 1683POPC   C3B25725  42.305  24.221   7.861
 1683POPC   C4B25726  41.921  24.438   7.709
 1684POPC   NC325727  35.086  30.561   9.463
 1684POPC   PO425728  35.508  31.007   9.296
 1684POPC   GL125729  35.553  30.595   9.133
 1684POPC   GL225730  35.894  30.495   9.143
 1684POPC   C1A25731  35.447  30.614   8.699
 1684POPC   D2A25732  35.311  30.796   8.287
 1684POPC   C3A25733  35.372  30.570   7.887
 1684POPC   C4A25734  35.146  30.731   7.561
 1684POPC   C1B25735  35.935  30.761   8.764
 1684POPC   C2B25736  35.840  30.661   8.327
 1684POPC   C3B25737  35.708  30.925   7.983
 1684POPC   C4B25738  35.630  30.892   7.532
 1685POPC   NC325739  15.528  22.364   9.564
 1685POPC   PO425740  14.879  22.470   9.596
 1685POPC   GL125741  15.114  22.350   9.241
 1685POPC   GL225742  15.370  22.056   9.194
 1685POPC   C1A25743  14.977  22.125   8.892
 1685POPC   D2A25744  15.071  22.152   8.459
 1685POPC   C3A25745  14.785  22.254   8.116
 1685POPC   C4A25746  14.918  22.154   7.701
 1685POPC   C1B25747  15.430  21.837   8.793
 1685POPC   C2B25748  15.535  21.962   8.376
 1685POPC   C3B25749  15.289  21.953   8.005
 1685POPC   C4B25750  15.398  21.897   7.560
 1686POPC   NC325751  40.815  33.511   9.311
 1686POPC   PO425752  40.421  33.997   9.473
 1686POPC   GL125753  40.337  33.789   9.063
 1686POPC   GL225754  40.480  33.448   8.910
 1686POPC   C1A25755  40.409  33.895   8.626
 1686POPC   D2A25756  40.660  33.631   8.338
 1686POPC   C3A25757  40.599  33.672   7.890
 1686POPC   C4A25758  40.438  33.745   7.483
 1686POPC   C1B25759  40.894  33.296   8.696
 1686POPC   C2B25760  41.189  33.491   8.446
 1686POPC   C3B25761  41.087  33.585   8.055
 1686POPC   C4B25762  41.063  33.779   7.657
 1687POPC   NC325763  41.204  14.223   9.253
 1687POPC   PO425764  40.637  14.661   9.514
 1687POPC   GL125765  40.692  14.639   9.065
 1687POPC   GL225766  40.799  14.363   8.869
 1687POPC   C1A25767  40.497  14.764   8.705
 1687POPC   D2A25768  40.619  14.522   8.371
 1687POPC   C3A25769  40.470  14.708   8.058
 1687POPC   C4A25770  40.646  14.847   7.693
 1687POPC   C1B25771  41.004  14.026   8.678
 1687POPC   C2B25772  41.022  13.854   8.307
 1687POPC   C3B25773  41.020  14.069   7.917
 1687POPC   C4B25774  40.709  14.346   7.819
 1688POPC   NC325775  30.248  26.827   9.400
 1688POPC   PO425776  29.608  26.998   9.475
 1688POPC   GL125777  29.755  26.727   9.164
 1688POPC   GL225778  29.918  26.979   9.020
 1688POPC   C1A25779  29.607  26.641   8.735
 1688POPC   D2A25780  29.431  26.663   8.299
 1688POPC   C3A25781  29.717  26.711   7.926
 1688POPC   C4A25782  29.982  27.096   7.826
 1688POPC   C1B25783  30.121  26.703   8.735
 1688POPC   C2B25784  30.037  26.628   8.297
 1688POPC   C3B25785  30.279  26.697   7.919
 1688POPC   C4B25786  30.522  27.095   7.850
 1689POPC   NC325787  11.980  21.516   9.656
 1689POPC   PO425788  11.713  20.935   9.530
 1689POPC   GL125789  11.905  21.198   9.243
 1689POPC   GL225790  12.208  21.343   9.216
 1689POPC   C1A25791  11.880  21.186   8.814
 1689POPC   D2A25792  11.611  21.247   8.471
 1689POPC   C3A25793  11.720  21.437   8.091
 1689POPC   C4A25794  11.777  21.156   7.725
 1689POPC   C1B25795  12.370  21.319   8.804
 1689POPC   C2B25796  12.140  21.393   8.412
 1689POPC   C3B25797  12.206  21.265   7.988
 1689POPC   C4B25798  12.523  21.119   7.752
 1690POPC   NC325799  31.190  15.303   9.522
 1690POPC   PO425800  30.580  15.175   9.630
 1690POPC   GL125801  30.781  15.249   9.180
 1690POPC   GL225802  30.560  15.032   9.061
 1690POPC   C1A25803  30.630  15.406   8.731
 1690POPC   D2A25804  30.603  15.182   8.341
 1690POPC   C3A25805  30.769  15.373   7.983
 1690POPC   C4A25806  30.643  15.257   7.581
 1690POPC   C1B25807  30.726  14.813   8.674
 1690POPC   C2B25808  30.720  14.668   8.248
 1690POPC   C3B25809  30.796  14.868   7.875
 1690POPC   C4B25810  30.928  14.882   7.438
 1691POPC   NC325811  14.608  17.708   9.533
 1691POPC   PO425812  13.876  17.542   9.592
 1691POPC   GL125813  14.186  17.633   9.233
 1691POPC   GL225814  14.097  17.930   9.114
 1691POPC   C1A25815  14.472  17.478   8.858
 1691POPC   D2A25816  14.254  17.443   8.447
 1691POPC   C3A25817  14.383  17.432   8.028
 1691POPC   C4A25818  14.423  17.243   7.618
 1691POPC   C1B25819  14.233  17.894   8.714
 1691POPC   C2B25820  14.518  17.860   8.384
 1691POPC   C3B25821  14.380  17.956   7.988
 1691POPC   C4B25822  14.494  17.753   7.619
 1692POPC   NC325823   8.557  16.169   9.599
 1692POPC   PO425824   9.197  15.812   9.578
 1692POPC   GL125825   9.148  15.868   9.170
 1692POPC   GL225826   8.817  16.030   9.172
 1692POPC   C1A25827   8.967  15.717   8.780
 1692POPC   D2A25828   8.801  15.620   8.382
 1692POPC   C3A25829   9.026  15.751   8.009
 1692POPC   C4A25830   9.316  15.720   7.625
 1692POPC   C1B25831   8.915  16.216   8.777
 1692POPC   C2B25832   8.755  16.118   8.380
 1692POPC   C3B25833   8.806  16.215   7.986
 1692POPC   C4B25834   9.043  16.159   7.613
 1693POPC   NC325835  37.551  24.263   9.987
 1693POPC   PO425836  38.028  24.363   9.477
 1693POPC   GL125837  37.734  24.576   9.207
 1693POPC   GL225838  38.026  24.549   8.986
 1693POPC   C1A25839  37.574  24.421   8.829
 1693POPC   D2A25840  37.816  24.361   8.496
 1693POPC   C3A25841  37.629  24.244   8.113
 1693POPC   C4A25842  37.518  24.458   7.716
 1693POPC   C1B25843  37.842  24.868   8.756
 1693POPC   C2B25844  37.943  25.167   8.445
 1693POPC   C3B25845  37.848  24.976   8.072
 1693POPC   C4B25846  37.975  24.567   7.903
 1694POPC   NC325847  13.362  24.995   9.537
 1694POPC   PO425848  13.762  25.539   9.413
 1694POPC   GL125849  13.622  25.299   9.052
 1694POPC   GL225850  13.346  25.026   9.029
 1694POPC   C1A25851  13.580  25.581   8.684
 1694POPC   D2A25852  13.741  25.550   8.264
 1694POPC   C3A25853  13.823  25.146   8.106
 1694POPC   C4A25854  13.968  25.194   7.694
 1694POPC   C1B25855  13.229  25.215   8.646
 1694POPC   C2B25856  13.237  25.397   8.220
 1694POPC   C3B25857  13.454  25.353   7.809
 1694POPC   C4B25858  13.565  25.184   7.388
 1695POPC   NC325859  44.174  22.777   9.443
 1695POPC   PO425860  43.545  23.105   9.604
 1695POPC   GL125861  43.666  23.129   9.223
 1695POPC   GL225862  44.014  23.247   9.242
 1695POPC   C1A25863  43.620  22.795   8.936
 1695POPC   D2A25864  43.658  22.909   8.530
 1695POPC   C3A25865  43.687  22.833   8.124
 1695POPC   C4A25866  43.871  22.747   7.763
 1695POPC   C1B25867  43.952  23.238   8.791
 1695POPC   C2B25868  43.794  23.375   8.369
 1695POPC   C3B25869  43.901  23.326   7.928
 1695POPC   C4B25870  44.218  23.094   7.726
 1696POPC   NC325871   7.755  21.739   9.514
 1696POPC   PO425872   7.528  22.443   9.483
 1696POPC   GL125873   7.429  22.374   9.052
 1696POPC   GL225874   7.357  21.989   9.032
 1696POPC   C1A25875   7.324  22.293   8.640
 1696POPC   D2A25876   7.492  22.029   8.399
 1696POPC   C3A25877   7.416  22.285   8.086
 1696POPC   C4A25878   7.587  22.247   7.717
 1696POPC   C1B25879   6.995  21.907   8.694
 1696POPC   C2B25880   7.013  21.936   8.223
 1696POPC   C3B25881   7.381  21.796   7.932
 1696POPC   C4B25882   7.626  21.804   7.496
 1697POPC   NC325883  39.316  19.077   9.850
 1697POPC   PO425884  39.606  18.709   9.315
 1697POPC   GL125885  39.360  19.097   9.250
 1697POPC   GL225886  39.052  19.151   9.091
 1697POPC   C1A25887  39.430  19.289   8.813
 1697POPC   D2A25888  39.594  19.080   8.447
 1697POPC   C3A25889  39.479  19.245   8.028
 1697POPC   C4A25890  39.217  19.023   7.717
 1697POPC   C1B25891  38.909  19.383   8.740
 1697POPC   C2B25892  38.734  19.430   8.327
 1697POPC   C3B25893  38.934  19.402   7.923
 1697POPC   C4B25894  38.949  19.410   7.464
 1698POPC   NC325895   7.502  35.862   9.524
 1698POPC   PO425896   7.505  36.534   9.417
 1698POPC   GL125897   7.628  36.141   9.125
 1698POPC   GL225898   7.722  35.732   9.099
 1698POPC   C1A25899   7.352  36.013   8.792
 1698POPC   D2A25900   7.152  36.298   8.477
 1698POPC   C3A25901   7.410  36.451   8.136
 1698POPC   C4A25902   7.369  36.349   7.724
 1698POPC   C1B25903   7.694  35.608   8.687
 1698POPC   C2B25904   7.619  35.904   8.376
 1698POPC   C3B25905   7.394  35.932   8.036
 1698POPC   C4B25906   7.583  35.862   7.667
 1699POPC   NC325907   8.851  32.855   9.518
 1699POPC   PO425908   9.466  32.872   9.545
 1699POPC   GL125909   9.246  33.058   9.226
 1699POPC   GL225910   8.990  33.320   9.306
 1699POPC   C1A25911   9.014  33.010   8.846
 1699POPC   D2A25912   9.113  32.937   8.418
 1699POPC   C3A25913   8.850  33.069   8.134
 1699POPC   C4A25914   8.778  33.035   7.729
 1699POPC   C1B25915   9.206  33.466   8.933
 1699POPC   C2B25916   9.263  33.436   8.532
 1699POPC   C3B25917   9.262  33.397   8.145
 1699POPC   C4B25918   8.987  33.506   7.834
 1700POPC   NC325919  12.928   0.740   9.536
 1700POPC   PO425920  12.758   0.219   9.244
 1700POPC   GL125921  12.937   0.324   8.952
 1700POPC   GL225922  12.947   0.668   9.017
 1700POPC   C1A25923  12.914   0.292   8.530
 1700POPC   D2A25924  12.574   0.268   8.268
 1700POPC   C3A25925  12.832   0.332   7.970
 1700POPC   C4A25926  12.888   0.483   7.586
 1700POPC   C1B25927  12.573   0.607   8.724
 1700POPC   C2B25928  12.619   0.780   8.310
 1700POPC   C3B25929  12.704   0.877   7.886
 1700POPC   C4B25930  12.938   0.991   7.495
 1701POPC   NC325931  27.803  30.007   9.408
 1701POPC   PO425932  27.245  29.687   9.414
 1701POPC   GL125933  27.460  29.827   9.093
 1701POPC   GL225934  27.710  29.547   9.159
 1701POPC   C1A25935  27.532  30.106   8.736
 1701POPC   D2A25936  27.659  30.008   8.303
 1701POPC   C3A25937  27.415  29.901   7.968
 1701POPC   C4A25938  27.460  30.117   7.625
 1701POPC   C1B25939  27.862  29.716   8.760
 1701POPC   C2B25940  28.053  29.692   8.352
 1701POPC   C3B25941  27.809  29.578   8.012
 1701POPC   C4B25942  27.795  29.309   7.660
 1702POPC   NC325943  25.149  34.263   9.677
 1702POPC   PO425944  25.213  34.861   9.392
 1702POPC   GL125945  25.336  34.560   9.096
 1702POPC   GL225946  25.311  34.250   9.151
 1702POPC   C1A25947  25.461  34.557   8.689
 1702POPC   D2A25948  25.147  34.590   8.388
 1702POPC   C3A25949  25.160  34.721   7.969
 1702POPC   C4A25950  25.036  34.897   7.561
 1702POPC   C1B25951  25.076  34.233   8.751
 1702POPC   C2B25952  25.045  34.080   8.335
 1702POPC   C3B25953  25.075  34.212   7.913
 1702POPC   C4B25954  25.256  34.432   7.570
 1703POPC   NC325955  42.376  12.358   9.650
 1703POPC   PO425956  42.097  11.740   9.554
 1703POPC   GL125957  42.412  11.898   9.266
 1703POPC   GL225958  42.560  12.260   9.192
 1703POPC   C1A25959  42.377  11.911   8.818
 1703POPC   D2A25960  42.111  12.006   8.456
 1703POPC   C3A25961  42.334  11.871   8.086
 1703POPC   C4A25962  42.387  11.813   7.654
 1703POPC   C1B25963  42.466  12.443   8.782
 1703POPC   C2B25964  42.531  12.347   8.338
 1703POPC   C3B25965  42.463  12.348   7.888
 1703POPC   C4B25966  42.464  12.292   7.436
 1704POPC   NC325967  17.242  10.809   9.503
 1704POPC   PO425968  17.874  10.404   9.462
 1704POPC   GL125969  17.777  10.501   9.078
 1704POPC   GL225970  17.561  10.771   9.057
 1704POPC   C1A25971  17.586  10.343   8.747
 1704POPC   D2A25972  17.384  10.486   8.418
 1704POPC   C3A25973  17.449  10.267   8.053
 1704POPC   C4A25974  17.572  10.480   7.727
 1704POPC   C1B25975  17.160  10.796   8.829
 1704POPC   C2B25976  16.952  10.753   8.420
 1704POPC   C3B25977  17.153  10.704   8.005
 1704POPC   C4B25978  17.098  10.942   7.640
 1705POPC   NC325979  22.682   9.666   9.548
 1705POPC   PO425980  23.216   9.408   9.523
 1705POPC   GL125981  23.067   9.738   9.191
 1705POPC   GL225982  23.227   9.908   8.887
 1705POPC   C1A25983  22.761   9.717   8.818
 1705POPC   D2A25984  22.604   9.730   8.362
 1705POPC   C3A25985  22.876   9.694   7.980
 1705POPC   C4A25986  22.912   9.822   7.529
 1705POPC   C1B25987  23.163   9.684   8.475
 1705POPC   C2B25988  23.337   9.486   8.095
 1705POPC   C3B25989  23.332   9.553   7.630
 1705POPC   C4B25990  23.129   9.443   7.208
 1706POPC   NC325991  22.073  26.840   9.492
 1706POPC   PO425992  21.889  26.258   9.346
 1706POPC   GL125993  21.809  26.673   9.080
 1706POPC   GL225994  21.832  27.079   9.118
 1706POPC   C1A25995  21.843  26.894   8.653
 1706POPC   D2A25996  21.887  26.917   8.224
 1706POPC   C3A25997  22.172  26.606   8.052
 1706POPC   C4A25998  22.596  26.588   7.883
 1706POPC   C1B25999  22.198  27.222   8.801
 1706POPC   C2B26000  22.334  27.218   8.336
 1706POPC   C3B26001  22.224  27.091   7.892
 1706POPC   C4B26002  21.875  26.849   7.711
 1707POPC   NC326003  30.492   6.447   9.437
 1707POPC   PO426004  30.941   6.988   9.337
 1707POPC   GL126005  30.762   6.706   9.084
 1707POPC   GL226006  30.435   6.821   9.080
 1707POPC   C1A26007  30.670   6.455   8.736
 1707POPC   D2A26008  30.441   6.422   8.355
 1707POPC   C3A26009  30.743   6.584   8.065
 1707POPC   C4A26010  30.986   6.319   7.813
 1707POPC   C1B26011  30.242   6.746   8.708
 1707POPC   C2B26012  30.345   6.918   8.293
 1707POPC   C3B26013  30.261   6.707   7.923
 1707POPC   C4B26014  30.453   6.384   7.673
 1708POPC   NC326015  21.028  26.880   9.850
 1708POPC   PO426016  21.613  26.863   9.585
 1708POPC   GL126017  21.360  26.875   9.219
 1708POPC   GL226018  21.187  27.148   9.133
 1708POPC   C1A26019  21.387  26.733   8.794
 1708POPC   D2A26020  21.564  26.529   8.405
 1708POPC   C3A26021  21.459  26.701   7.992
 1708POPC   C4A26022  21.132  26.818   7.703
 1708POPC   C1B26023  21.469  27.238   8.790
 1708POPC   C2B26024  21.421  27.057   8.373
 1708POPC   C3B26025  21.555  27.205   7.937
 1708POPC   C4B26026  21.496  27.062   7.471
 1709POPC   NC326027  41.467  21.001   9.332
 1709POPC   PO426028  41.633  20.391   9.560
 1709POPC   GL126029  41.646  20.268   9.149
 1709POPC   GL226030  42.029  20.234   9.130
 1709POPC   C1A26031  41.415  20.431   8.808
 1709POPC   D2A26032  41.305  20.699   8.483
 1709POPC   C3A26033  41.376  20.665   8.031
 1709POPC   C4A26034  41.466  20.338   7.704
 1709POPC   C1B26035  41.962  20.337   8.720
 1709POPC   C2B26036  41.712  20.388   8.378
 1709POPC   C3B26037  41.854  20.481   7.989
 1709POPC   C4B26038  42.150  20.331   7.720
 1710POPC   NC326039  33.293  28.999   9.496
 1710POPC   PO426040  32.638  29.117   9.293
 1710POPC   GL126041  32.878  29.390   9.079
 1710POPC   GL226042  33.239  29.417   9.207
 1710POPC   C1A26043  32.797  29.480   8.658
 1710POPC   D2A26044  32.909  29.209   8.339
 1710POPC   C3A26045  32.879  29.103   7.903
 1710POPC   C4A26046  33.212  28.790   7.778
 1710POPC   C1B26047  33.320  29.401   8.775
 1710POPC   C2B26048  33.252  29.604   8.394
 1710POPC   C3B26049  33.315  29.323   8.050
 1710POPC   C4B26050  33.277  29.241   7.588
 1711POPC   NC326051  27.314  34.784   9.562
 1711POPC   PO426052  27.965  34.508   9.667
 1711POPC   GL126053  27.687  34.474   9.308
 1711POPC   GL226054  27.720  34.779   9.192
 1711POPC   C1A26055  27.489  34.434   8.867
 1711POPC   D2A26056  27.533  34.627   8.433
 1711POPC   C3A26057  27.378  34.462   8.012
 1711POPC   C4A26058  27.575  34.489   7.585
 1711POPC   C1B26059  27.744  34.960   8.781
 1711POPC   C2B26060  27.944  34.937   8.355
 1711POPC   C3B26061  27.749  34.835   7.956
 1711POPC   C4B26062  27.332  34.914   7.774
 1712POPC   NC326063  43.999  30.040   9.451
 1712POPC   PO426064  43.784  30.749   9.552
 1712POPC   GL126065  43.862  30.643   9.134
 1712POPC   GL226066  44.121  30.412   9.033
 1712POPC   C1A26067  43.982  30.816   8.762
 1712POPC   D2A26068  43.839  30.966   8.385
 1712POPC   C3A26069  44.022  30.751   8.025
 1712POPC   C4A26070  44.017  30.778   7.600
 1712POPC   C1B26071  44.168  30.289   8.617
 1712POPC   C2B26072  44.165  30.268   8.165
 1712POPC   C3B26073  44.329  30.403   7.757
 1712POPC   C4B26074  44.131  30.377   7.309
 1713POPC   NC326075  15.053  10.884   9.453
 1713POPC   PO426076  15.225  11.554   9.659
 1713POPC   GL126077  14.999  11.504   9.236
 1713POPC   GL226078  15.145  11.215   9.061
 1713POPC   C1A26079  15.104  11.628   8.758
 1713POPC   D2A26080  15.083  11.396   8.402
 1713POPC   C3A26081  15.239  11.558   8.036
 1713POPC   C4A26082  15.138  11.432   7.650
 1713POPC   C1B26083  15.327  11.006   8.689
 1713POPC   C2B26084  15.155  10.888   8.280
 1713POPC   C3B26085  15.213  10.974   7.843
 1713POPC   C4B26086  15.401  10.903   7.435
 1714POPC   NC326087   0.065  32.188   9.634
 1714POPC   PO426088  44.430  32.114   9.563
 1714POPC   GL126089  44.522  32.283   9.173
 1714POPC   GL226090  44.859  32.156   9.163
 1714POPC   C1A26091  44.628  32.297   8.733
 1714POPC   D2A26092  44.662  32.116   8.344
 1714POPC   C3A26093  44.543  32.394   7.979
 1714POPC   C4A26094  44.668  32.562   7.557
 1714POPC   C1B26095  44.976  31.849   8.841
 1714POPC   C2B26096  44.980  31.609   8.449
 1714POPC   C3B26097  44.874  31.756   8.067
 1714POPC   C4B26098  44.641  31.953   7.724
 1715POPC   NC326099  38.305  34.097   9.523
 1715POPC   PO426100  38.647  34.723   9.531
 1715POPC   GL126101  38.381  34.607   9.213
 1715POPC   GL226102  38.345  34.935   9.130
 1715POPC   C1A26103  38.513  34.600   8.774
 1715POPC   D2A26104  38.297  34.628   8.394
 1715POPC   C3A26105  38.525  34.616   8.029
 1715POPC   C4A26106  38.676  34.351   7.727
 1715POPC   C1B26107  38.127  34.956   8.745
 1715POPC   C2B26108  38.245  35.121   8.362
 1715POPC   C3B26109  38.166  34.977   7.955
 1715POPC   C4B26110  38.357  34.812   7.578
 1716POPC   NC326111   0.900   5.635   9.383
 1716POPC   PO426112   1.257   6.048   9.670
 1716POPC   GL126113   1.307   5.906   9.239
 1716POPC   GL226114   1.509   6.150   9.138
 1716POPC   C1A26115   1.243   5.826   8.796
 1716POPC   D2A26116   1.172   6.029   8.397
 1716POPC   C3A26117   1.162   5.797   7.995
 1716POPC   C4A26118   0.788   5.813   7.748
 1716POPC   C1B26119   1.736   6.126   8.788
 1716POPC   C2B26120   1.700   6.282   8.385
 1716POPC   C3B26121   1.503   6.170   8.045
 1716POPC   C4B26122   1.394   6.134   7.647
 1717POPC   NC326123  36.584   8.266   9.394
 1717POPC   PO426124  37.056   7.665   9.486
 1717POPC   GL126125  36.970   7.988   9.177
 1717POPC   GL226126  37.218   8.259   9.133
 1717POPC   C1A26127  36.801   8.168   8.775
 1717POPC   D2A26128  36.426   8.187   8.483
 1717POPC   C3A26129  36.517   8.403   8.076
 1717POPC   C4A26130  36.893   8.496   7.795
 1717POPC   C1B26131  37.344   7.959   8.801
 1717POPC   C2B26132  37.444   7.938   8.334
 1717POPC   C3B26133  37.176   8.050   7.942
 1717POPC   C4B26134  37.026   7.974   7.494
 1718POPC   NC326135  20.409  44.394   9.575
 1718POPC   PO426136  20.729  43.807   9.560
 1718POPC   GL126137  20.713  43.936   9.155
 1718POPC   GL226138  20.760  44.249   9.237
 1718POPC   C1A26139  20.808  44.065   8.730
 1718POPC   D2A26140  20.754  43.809   8.390
 1718POPC   C3A26141  20.534  43.863   8.031
 1718POPC   C4A26142  20.698  43.637   7.707
 1718POPC   C1B26143  20.414  44.317   8.926
 1718POPC   C2B26144  20.299  44.231   8.487
 1718POPC   C3B26145  20.210  44.292   8.044
 1718POPC   C4B26146  20.393  44.216   7.660
 1719POPC   NC326147   3.954  16.868   9.707
 1719POPC   PO426148   4.510  16.830   9.496
 1719POPC   GL126149   4.433  16.557   9.162
 1719POPC   GL226150   4.728  16.354   9.127
 1719POPC   C1A26151   4.312  16.680   8.721
 1719POPC   D2A26152   4.427  17.048   8.444
 1719POPC   C3A26153   4.312  16.988   8.012
 1719POPC   C4A26154   4.176  16.597   7.827
 1719POPC   C1B26155   4.793  16.727   8.855
 1719POPC   C2B26156   4.834  16.673   8.408
 1719POPC   C3B26157   4.697  16.658   7.972
 1719POPC   C4B26158   4.609  16.635   7.523
 1720POPC   NC326159   9.351  36.558   9.345
 1720POPC   PO426160   9.792  36.101   9.424
 1720POPC   GL126161   9.803  36.391   9.126
 1720POPC   GL226162   9.653  36.204   8.931
 1720POPC   C1A26163   9.976  36.551   8.775
 1720POPC   D2A26164   9.877  36.310   8.404
 1720POPC   C3A26165   9.963  36.493   8.004
 1720POPC   C4A26166   9.891  36.522   7.555
 1720POPC   C1B26167   9.697  35.842   8.724
 1720POPC   C2B26168   9.961  35.732   8.396
 1720POPC   C3B26169   9.933  35.730   7.974
 1720POPC   C4B26170   9.838  36.054   7.733
 1721POPC   NC326171  39.123  24.841   9.410
 1721POPC   PO426172  39.673  24.391   9.409
 1721POPC   GL126173  39.332  24.454   9.084
 1721POPC   GL226174  38.987  24.368   9.184
 1721POPC   C1A26175  39.220  24.247   8.665
 1721POPC   D2A26176  39.293  24.436   8.246
 1721POPC   C3A26177  39.310  24.282   7.822
 1721POPC   C4A26178  39.417  24.615   7.507
 1721POPC   C1B26179  38.927  24.639   8.814
 1721POPC   C2B26180  38.831  24.584   8.397
 1721POPC   C3B26181  38.853  24.818   8.035
 1721POPC   C4B26182  38.915  24.585   7.676
 1722POPC   NC326183  27.951  35.372   9.887
 1722POPC   PO426184  28.477  35.248   9.511
 1722POPC   GL126185  28.430  35.312   9.097
 1722POPC   GL226186  28.136  35.141   9.069
 1722POPC   C1A26187  28.293  35.433   8.701
 1722POPC   D2A26188  28.131  35.464   8.313
 1722POPC   C3A26189  28.342  35.559   7.917
 1722POPC   C4A26190  28.101  35.311   7.607
 1722POPC   C1B26191  28.273  34.931   8.756
 1722POPC   C2B26192  28.460  35.000   8.424
 1722POPC   C3B26193  28.328  35.065   8.020
 1722POPC   C4B26194  28.568  35.111   7.630
 1723POPC   NC326195  40.246  22.233   9.457
 1723POPC   PO426196  39.637  21.890   9.522
 1723POPC   GL126197  39.739  22.096   9.150
 1723POPC   GL226198  40.050  21.946   9.090
 1723POPC   C1A26199  39.947  22.326   8.790
 1723POPC   D2A26200  40.177  22.141   8.447
 1723POPC   C3A26201  40.032  22.202   8.013
 1723POPC   C4A26202  40.264  22.483   7.743
 1723POPC   C1B26203  39.794  21.828   8.709
 1723POPC   C2B26204  39.892  21.752   8.263
 1723POPC   C3B26205  39.680  21.823   7.847
 1723POPC   C4B26206  39.828  21.955   7.417
 1724POPC   NC326207   1.055  28.282   9.604
 1724POPC   PO426208   1.525  28.653   9.649
 1724POPC   GL126209   1.299  28.452   9.213
 1724POPC   GL226210   0.930  28.484   9.150
 1724POPC   C1A26211   1.122  28.165   8.830
 1724POPC   D2A26212   1.075  27.903   8.471
 1724POPC   C3A26213   1.205  28.168   8.126
 1724POPC   C4A26214   1.005  28.358   7.778
 1724POPC   C1B26215   0.879  28.609   8.713
 1724POPC   C2B26216   0.855  28.552   8.253
 1724POPC   C3B26217   0.704  28.756   7.899
 1724POPC   C4B26218   0.946  28.905   7.569
 1725POPC   NC326219  13.285   5.959   9.398
 1725POPC   PO426220  13.651   5.492   9.658
 1725POPC   GL126221  13.772   5.782   9.283
 1725POPC   GL226222  13.988   6.116   9.287
 1725POPC   C1A26223  13.639   5.761   8.844
 1725POPC   D2A26224  13.580   5.477   8.502
 1725POPC   C3A26225  13.551   5.702   8.137
 1725POPC   C4A26226  13.666   5.773   7.730
 1725POPC   C1B26227  13.890   6.229   8.838
 1725POPC   C2B26228  13.868   6.054   8.383
 1725POPC   C3B26229  14.029   6.106   7.904
 1725POPC   C4B26230  13.993   6.041   7.401
 1726POPC   NC326231  20.088   6.492   9.480
 1726POPC   PO426232  19.755   7.047   9.305
 1726POPC   GL126233  19.925   6.820   9.016
 1726POPC   GL226234  19.720   6.562   9.100
 1726POPC   C1A26235  19.686   6.768   8.635
 1726POPC   D2A26236  19.724   6.895   8.242
 1726POPC   C3A26237  20.051   6.689   8.035
 1726POPC   C4A26238  19.923   6.538   7.646
 1726POPC   C1B26239  19.929   6.339   8.774
 1726POPC   C2B26240  19.786   6.105   8.407
 1726POPC   C3B26241  19.705   6.228   8.010
 1726POPC   C4B26242  19.816   6.016   7.673
 1727POPC   NC326243  21.133  11.758   9.597
 1727POPC   PO426244  20.517  11.831   9.422
 1727POPC   GL126245  20.785  11.973   9.129
 1727POPC   GL226246  20.587  12.245   9.072
 1727POPC   C1A26247  20.650  11.955   8.677
 1727POPC   D2A26248  20.790  12.112   8.293
 1727POPC   C3A26249  20.911  11.876   7.972
 1727POPC   C4A26250  20.604  11.593   7.848
 1727POPC   C1B26251  20.336  12.357   8.707
 1727POPC   C2B26252  20.117  12.356   8.323
 1727POPC   C3B26253  20.257  12.429   7.917
 1727POPC   C4B26254  20.669  12.303   7.840
 1728POPC   NC326255  24.046   7.274   9.387
 1728POPC   PO426256  23.510   7.691   9.563
 1728POPC   GL126257  23.590   7.415   9.180
 1728POPC   GL226258  23.313   7.245   8.990
 1728POPC   C1A26259  23.788   7.305   8.783
 1728POPC   D2A26260  23.984   7.112   8.453
 1728POPC   C3A26261  23.773   7.108   8.054
 1728POPC   C4A26262  23.829   7.328   7.655
 1728POPC   C1B26263  23.357   7.600   8.740
 1728POPC   C2B26264  23.576   7.549   8.346
 1728POPC   C3B26265  23.668   7.704   7.967
 1728POPC   C4B26266  23.412   7.788   7.603
 1729POPC   NC326267  39.635  17.353   9.525
 1729POPC   PO426268  40.368  17.364   9.523
 1729POPC   GL126269  40.031  17.424   9.215
 1729POPC   GL226270  39.862  17.759   9.228
 1729POPC   C1A26271  39.749  17.318   8.876
 1729POPC   D2A26272  39.572  17.364   8.474
 1729POPC   C3A26273  39.863  17.313   8.130
 1729POPC   C4A26274  39.772  17.226   7.687
 1729POPC   C1B26275  39.949  17.777   8.772
 1729POPC   C2B26276  40.060  17.806   8.328
 1729POPC   C3B26277  39.805  17.785   7.951
 1729POPC   C4B26278  39.974  17.679   7.552
 1730POPC   NC326279  17.900  24.394   9.357
 1730POPC   PO426280  18.472  24.351   9.552
 1730POPC   GL126281  18.346  24.339   9.112
 1730POPC   GL226282  18.219  24.666   9.069
 1730POPC   C1A26283  18.122  24.311   8.711
 1730POPC   D2A26284  18.078  24.018   8.372
 1730POPC   C3A26285  18.228  24.257   8.035
 1730POPC   C4A26286  18.248  24.599   7.750
 1730POPC   C1B26287  18.537  24.721   8.785
 1730POPC   C2B26288  18.545  24.586   8.355
 1730POPC   C3B26289  18.582  24.843   8.015
 1730POPC   C4B26290  18.782  24.857   7.648
 1731POPC   NC326291  22.634  44.927   9.372
 1731POPC   PO426292  23.083  44.452   9.379
 1731POPC   GL126293  22.961  44.250   9.012
 1731POPC   GL226294  22.642  44.293   9.026
 1731POPC   C1A26295  22.940  44.297   8.569
 1731POPC   D2A26296  23.127  44.593   8.283
 1731POPC   C3A26297  22.928  44.664   7.875
 1731POPC   C4A26298  22.717  44.755   7.480
 1731POPC   C1B26299  22.671  44.686   8.777
 1731POPC   C2B26300  22.601  44.673   8.355
 1731POPC   C3B26301  22.662  44.297   8.118
 1731POPC   C4B26302  22.558  44.315   7.689
 1732POPC   NC326303   5.452  41.868   9.681
 1732POPC   PO426304   5.539  41.180   9.494
 1732POPC   GL126305   5.716  41.467   9.138
 1732POPC   GL226306   6.007  41.698   9.185
 1732POPC   C1A26307   5.569  41.628   8.751
 1732POPC   D2A26308   5.760  41.648   8.329
 1732POPC   C3A26309   5.565  41.648   7.912
 1732POPC   C4A26310   5.839  41.580   7.539
 1732POPC   C1B26311   6.085  41.573   8.765
 1732POPC   C2B26312   6.232  41.501   8.359
 1732POPC   C3B26313   6.131  41.469   7.949
 1732POPC   C4B26314   6.344  41.556   7.556
 1733POPC   NC326315  32.749  29.068   9.732
 1733POPC   PO426316  32.076  29.201   9.705
 1733POPC   GL126317  32.070  29.088   9.161
 1733POPC   GL226318  32.345  29.333   8.921
 1733POPC   C1A26319  32.097  28.980   8.701
 1733POPC   D2A26320  32.429  29.092   8.466
 1733POPC   C3A26321  32.455  28.891   8.102
 1733POPC   C4A26322  32.411  28.861   7.650
 1733POPC   C1B26323  31.987  29.459   8.674
 1733POPC   C2B26324  31.952  29.291   8.277
 1733POPC   C3B26325  32.171  29.298   7.891
 1733POPC   C4B26326  31.928  29.416   7.528
 1734POPC   NC326327  37.491  18.677  10.115
 1734POPC   PO426328  37.617  18.144   9.746
 1734POPC   GL126329  37.616  18.336   9.316
 1734POPC   GL226330  37.473  18.080   9.089
 1734POPC   C1A26331  37.850  18.400   8.899
 1734POPC   D2A26332  37.627  18.459   8.509
 1734POPC   C3A26333  37.745  18.541   8.073
 1734POPC   C4A26334  37.603  18.417   7.631
 1734POPC   C1B26335  37.754  17.904   8.790
 1734POPC   C2B26336  37.953  18.038   8.400
 1734POPC   C3B26337  37.735  18.021   7.981
 1734POPC   C4B26338  37.309  18.019   7.784
 1735POPC   NC326339  38.723   9.193   9.823
 1735POPC   PO426340  39.143   8.813   9.417
 1735POPC   GL126341  39.335   8.866   9.049
 1735POPC   GL226342  39.223   9.198   9.013
 1735POPC   C1A26343  39.380   8.877   8.629
 1735POPC   D2A26344  39.192   9.151   8.321
 1735POPC   C3A26345  39.354   9.076   7.912
 1735POPC   C4A26346  39.142   8.725   7.665
 1735POPC   C1B26347  38.889   9.036   8.749
 1735POPC   C2B26348  38.709   9.384   8.548
 1735POPC   C3B26349  38.908   9.578   8.190
 1735POPC   C4B26350  38.934   9.311   7.818
 1736POPC   NC326351   8.525  23.116   9.489
 1736POPC   PO426352   7.880  23.036   9.507
 1736POPC   GL126353   8.197  22.921   9.149
 1736POPC   GL226354   8.010  22.648   8.987
 1736POPC   C1A26355   8.338  22.845   8.692
 1736POPC   D2A26356   8.259  23.084   8.319
 1736POPC   C3A26357   8.366  22.974   7.896
 1736POPC   C4A26358   8.484  22.605   7.768
 1736POPC   C1B26359   7.903  23.101   8.798
 1736POPC   C2B26360   7.757  23.201   8.381
 1736POPC   C3B26361   7.871  23.010   7.994
 1736POPC   C4B26362   7.798  23.041   7.560
 1737POPC   NC326363  32.082  34.771   9.407
 1737POPC   PO426364  32.363  34.208   9.526
 1737POPC   GL126365  32.432  34.370   9.139
 1737POPC   GL226366  32.537  34.716   9.154
 1737POPC   C1A26367  32.301  34.449   8.726
 1737POPC   D2A26368  32.411  34.320   8.296
 1737POPC   C3A26369  32.135  34.562   8.018
 1737POPC   C4A26370  31.808  34.425   7.777
 1737POPC   C1B26371  32.580  34.891   8.784
 1737POPC   C2B26372  32.406  34.830   8.390
 1737POPC   C3B26373  32.491  35.016   8.005
 1737POPC   C4B26374  32.221  34.990   7.684
 1738POPC   NC326375   5.743  13.150   9.479
 1738POPC   PO426376   5.939  12.479   9.588
 1738POPC   GL126377   5.852  12.706   9.199
 1738POPC   GL226378   6.066  13.021   9.118
 1738POPC   C1A26379   5.899  12.686   8.765
 1738POPC   D2A26380   5.815  12.879   8.375
 1738POPC   C3A26381   5.813  12.633   7.988
 1738POPC   C4A26382   5.676  12.412   7.637
 1738POPC   C1B26383   6.243  13.111   8.727
 1738POPC   C2B26384   6.150  13.319   8.344
 1738POPC   C3B26385   6.035  13.102   7.965
 1738POPC   C4B26386   5.871  12.921   7.562
 1739POPC   NC326387  30.822  35.293   9.582
 1739POPC   PO426388  30.198  35.107   9.501
 1739POPC   GL126389  30.535  35.202   9.161
 1739POPC   GL226390  30.925  35.107   9.129
 1739POPC   C1A26391  30.690  35.417   8.790
 1739POPC   D2A26392  30.701  35.350   8.363
 1739POPC   C3A26393  30.598  35.587   8.025
 1739POPC   C4A26394  30.274  35.403   7.765
 1739POPC   C1B26395  31.084  35.040   8.716
 1739POPC   C2B26396  31.083  35.030   8.250
 1739POPC   C3B26397  30.785  35.122   7.887
 1739POPC   C4B26398  30.950  35.052   7.416
 1740POPC   NC326399  17.846  30.198   9.467
 1740POPC   PO426400  18.387  29.735   9.495
 1740POPC   GL126401  18.344  30.134   9.258
 1740POPC   GL226402  18.614  30.174   9.027
 1740POPC   C1A26403  18.137  30.276   8.878
 1740POPC   D2A26404  17.971  30.098   8.511
 1740POPC   C3A26405  18.185  30.180   8.118
 1740POPC   C4A26406  18.185  30.034   7.680
 1740POPC   C1B26407  18.448  29.820   8.815
 1740POPC   C2B26408  18.387  29.742   8.378
 1740POPC   C3B26409  18.530  29.826   7.970
 1740POPC   C4B26410  18.623  29.811   7.511
 1741POPC   NC326411  19.396  11.746   9.432
 1741POPC   PO426412  18.844  12.281   9.508
 1741POPC   GL126413  18.968  12.066   9.143
 1741POPC   GL226414  18.655  11.836   9.167
 1741POPC   C1A26415  19.226  12.013   8.699
 1741POPC   D2A26416  19.353  11.897   8.255
 1741POPC   C3A26417  19.136  12.090   7.851
 1741POPC   C4A26418  19.342  12.070   7.400
 1741POPC   C1B26419  18.763  11.834   8.731
 1741POPC   C2B26420  18.837  11.928   8.328
 1741POPC   C3B26421  18.655  11.861   7.948
 1741POPC   C4B26422  18.702  12.091   7.579
 1742POPC   NC326423   7.569   6.977   9.403
 1742POPC   PO426424   7.616   7.568   9.757
 1742POPC   GL126425   7.675   7.466   9.242
 1742POPC   GL226426   7.365   7.321   9.071
 1742POPC   C1A26427   7.677   7.382   8.711
 1742POPC   D2A26428   7.358   7.356   8.325
 1742POPC   C3A26429   7.423   7.525   7.880
 1742POPC   C4A26430   7.587   7.422   7.454
 1742POPC   C1B26431   7.153   7.130   8.737
 1742POPC   C2B26432   6.879   7.139   8.355
 1742POPC   C3B26433   6.992   7.211   7.932
 1742POPC   C4B26434   7.015   7.342   7.477
 1743POPC   NC326435  41.032  31.236   9.517
 1743POPC   PO426436  40.516  31.399   9.732
 1743POPC   GL126437  40.750  31.523   9.208
 1743POPC   GL226438  41.123  31.424   9.081
 1743POPC   C1A26439  40.962  31.769   8.795
 1743POPC   D2A26440  41.169  31.593   8.448
 1743POPC   C3A26441  40.955  31.640   8.091
 1743POPC   C4A26442  40.710  31.569   7.783
 1743POPC   C1B26443  40.894  31.276   8.746
 1743POPC   C2B26444  40.733  31.267   8.359
 1743POPC   C3B26445  40.628  31.088   7.987
 1743POPC   C4B26446  40.985  31.093   7.726
 1744POPC   NC326447  28.558  35.763   9.477
 1744POPC   PO426448  27.844  35.687   9.571
 1744POPC   GL126449  28.124  35.727   9.155
 1744POPC   GL226450  28.350  36.045   9.122
 1744POPC   C1A26451  28.124  35.904   8.687
 1744POPC   D2A26452  28.312  36.195   8.348
 1744POPC   C3A26453  28.237  36.091   7.890
 1744POPC   C4A26454  28.105  35.825   7.534
 1744POPC   C1B26455  28.627  35.825   8.827
 1744POPC   C2B26456  28.549  35.754   8.404
 1744POPC   C3B26457  28.695  35.952   8.066
 1744POPC   C4B26458  28.654  35.883   7.635
 1745POPC   NC326459  11.141  41.105   9.529
 1745POPC   PO426460  11.545  40.573   9.432
 1745POPC   GL126461  11.350  40.792   9.131
 1745POPC   GL226462  11.010  40.756   9.119
 1745POPC   C1A26463  11.282  40.876   8.695
 1745POPC   D2A26464  11.655  40.773   8.460
 1745POPC   C3A26465  11.578  40.671   8.071
 1745POPC   C4A26466  11.390  40.882   7.739
 1745POPC   C1B26467  11.140  40.403   8.836
 1745POPC   C2B26468  11.222  40.460   8.393
 1745POPC   C3B26469  11.068  40.581   7.987
 1745POPC   C4B26470  11.144  40.441   7.562
 1746POPC   NC326471   8.330   2.490   9.308
 1746POPC   PO426472   8.235   1.807   9.494
 1746POPC   GL126473   8.306   2.017   9.122
 1746POPC   GL226474   7.971   2.163   9.105
 1746POPC   C1A26475   8.405   2.031   8.690
 1746POPC   D2A26476   8.291   1.693   8.404
 1746POPC   C3A26477   8.352   1.886   8.013
 1746POPC   C4A26478   8.280   2.045   7.623
 1746POPC   C1B26479   7.922   1.882   8.749
 1746POPC   C2B26480   7.956   2.065   8.350
 1746POPC   C3B26481   7.916   2.191   7.948
 1746POPC   C4B26482   7.754   1.977   7.625
 1747POPC   NC326483   9.403  25.535   9.676
 1747POPC   PO426484   9.782  24.991   9.627
 1747POPC   GL126485   9.814  25.088   9.181
 1747POPC   GL226486  10.011  25.399   9.172
 1747POPC   C1A26487   9.793  25.195   8.761
 1747POPC   D2A26488   9.907  25.332   8.409
 1747POPC   C3A26489   9.620  25.335   8.089
 1747POPC   C4A26490   9.692  25.205   7.693
 1747POPC   C1B26491  10.265  25.560   8.800
 1747POPC   C2B26492  10.199  25.727   8.386
 1747POPC   C3B26493  10.109  25.517   7.981
 1747POPC   C4B26494   9.935  25.588   7.494
 1748POPC   NC326495  35.116   9.349   9.888
 1748POPC   PO426496  35.104   8.767   9.419
 1748POPC   GL126497  35.455   8.908   9.168
 1748POPC   GL226498  35.188   8.987   8.959
 1748POPC   C1A26499  35.616   9.102   8.770
 1748POPC   D2A26500  35.354   9.111   8.391
 1748POPC   C3A26501  35.582   9.179   7.987
 1748POPC   C4A26502  35.675   8.800   7.835
 1748POPC   C1B26503  35.122   8.714   8.674
 1748POPC   C2B26504  34.963   8.746   8.287
 1748POPC   C3B26505  35.148   8.921   7.929
 1748POPC   C4B26506  34.988   9.159   7.606
 1749POPC   NC326507  38.126  28.840   9.368
 1749POPC   PO426508  38.489  29.304   9.643
 1749POPC   GL126509  38.522  29.202   9.222
 1749POPC   GL226510  38.714  28.935   9.228
 1749POPC   C1A26511  38.681  29.329   8.807
 1749POPC   D2A26512  38.825  29.368   8.397
 1749POPC   C3A26513  38.617  29.162   8.075
 1749POPC   C4A26514  38.587  29.332   7.659
 1749POPC   C1B26515  38.475  28.873   8.823
 1749POPC   C2B26516  38.446  28.755   8.383
 1749POPC   C3B26517  38.203  28.797   7.995
 1749POPC   C4B26518  38.093  28.952   7.579
 1750POPC   NC326519  25.214  14.250   9.505
 1750POPC   PO426520  25.584  13.892   9.279
 1750POPC   GL126521  25.360  14.220   9.008
 1750POPC   GL226522  25.222  14.568   9.082
 1750POPC   C1A26523  25.105  14.313   8.646
 1750POPC   D2A26524  25.260  14.490   8.272
 1750POPC   C3A26525  25.342  14.238   7.924
 1750POPC   C4A26526  25.298  14.374   7.495
 1750POPC   C1B26527  25.008  14.807   8.719
 1750POPC   C2B26528  25.115  14.974   8.278
 1750POPC   C3B26529  24.988  14.917   7.848
 1750POPC   C4B26530  24.683  14.899   7.496
 1751POPC   NC326531  28.420   4.690   9.479
 1751POPC   PO426532  27.948   5.058   9.785
 1751POPC   GL126533  28.156   5.090   9.334
 1751POPC   GL226534  28.114   4.797   9.093
 1751POPC   C1A26535  28.296   5.202   8.883
 1751POPC   D2A26536  28.181   5.340   8.449
 1751POPC   C3A26537  28.348   5.189   8.049
 1751POPC   C4A26538  28.152   5.337   7.657
 1751POPC   C1B26539  28.574   4.774   8.849
 1751POPC   C2B26540  28.824   4.822   8.461
 1751POPC   C3B26541  28.692   4.794   8.015
 1751POPC   C4B26542  28.309   4.688   7.770
 1752POPC   NC326543  30.816   2.713   9.436
 1752POPC   PO426544  30.240   3.056   9.478
 1752POPC   GL126545  30.444   2.918   9.110
 1752POPC   GL226546  30.497   2.540   9.081
 1752POPC   C1A26547  30.691   2.871   8.732
 1752POPC   D2A26548  30.794   2.682   8.329
 1752POPC   C3A26549  30.721   2.916   7.936
 1752POPC   C4A26550  30.357   2.989   7.679
 1752POPC   C1B26551  30.832   2.377   8.781
 1752POPC   C2B26552  30.825   2.147   8.395
 1752POPC   C3B26553  30.796   2.312   7.974
 1752POPC   C4B26554  30.672   2.470   7.602
 1753POPC   NC326555  13.581  28.940   9.388
 1753POPC   PO426556  13.362  29.528   9.308
 1753POPC   GL126557  13.574  29.273   9.004
 1753POPC   GL226558  13.894  29.269   9.149
 1753POPC   C1A26559  13.441  28.918   8.724
 1753POPC   D2A26560  13.603  28.770   8.339
 1753POPC   C3A26561  13.413  28.927   7.958
 1753POPC   C4A26562  13.363  29.377   7.799
 1753POPC   C1B26563  13.980  29.449   8.748
 1753POPC   C2B26564  13.775  29.269   8.426
 1753POPC   C3B26565  13.812  29.340   8.015
 1753POPC   C4B26566  14.145  29.516   7.786
 1754POPC   NC326567  39.316   4.941   9.759
 1754POPC   PO426568  39.064   5.469   9.446
 1754POPC   GL126569  39.240   5.105   9.209
 1754POPC   GL226570  39.474   5.270   9.021
 1754POPC   C1A26571  39.079   5.018   8.764
 1754POPC   D2A26572  39.200   4.874   8.335
 1754POPC   C3A26573  38.951   4.890   7.938
 1754POPC   C4A26574  38.868   5.222   7.621
 1754POPC   C1B26575  39.579   4.923   8.766
 1754POPC   C2B26576  39.714   4.909   8.364
 1754POPC   C3B26577  39.591   4.858   7.959
 1754POPC   C4B26578  39.335   5.038   7.640
 1755POPC   NC326579  33.182   3.216   9.221
 1755POPC   PO426580  33.466   3.839   9.315
 1755POPC   GL126581  33.038   3.717   9.035
 1755POPC   GL226582  32.767   3.429   8.954
 1755POPC   C1A26583  32.973   3.679   8.580
 1755POPC   D2A26584  33.207   3.481   8.269
 1755POPC   C3A26585  33.122   3.534   7.855
 1755POPC   C4A26586  32.921   3.712   7.473
 1755POPC   C1B26587  32.923   3.176   8.589
 1755POPC   C2B26588  32.780   3.211   8.158
 1755POPC   C3B26589  32.688   3.311   7.713
 1755POPC   C4B26590  33.057   3.224   7.457
 1756POPC   NC326591  21.143  31.875   9.546
 1756POPC   PO426592  21.315  31.160   9.713
 1756POPC   GL126593  21.306  31.204   9.240
 1756POPC   GL226594  21.230  31.557   9.130
 1756POPC   C1A26595  21.383  31.192   8.783
 1756POPC   D2A26596  21.352  31.405   8.381
 1756POPC   C3A26597  21.282  31.264   7.971
 1756POPC   C4A26598  20.983  31.545   7.812
 1756POPC   C1B26599  21.498  31.708   8.780
 1756POPC   C2B26600  21.501  31.872   8.348
 1756POPC   C3B26601  21.455  31.744   7.960
 1756POPC   C4B26602  21.704  31.834   7.648
 1757POPC   NC326603  35.996  34.702   9.715
 1757POPC   PO426604  35.902  35.345   9.381
 1757POPC   GL126605  35.970  35.438   8.996
 1757POPC   GL226606  36.280  35.255   8.953
 1757POPC   C1A26607  35.987  35.432   8.574
 1757POPC   D2A26608  36.345  35.303   8.383
 1757POPC   C3A26609  36.269  35.298   7.965
 1757POPC   C4A26610  36.461  35.384   7.571
 1757POPC   C1B26611  36.082  34.937   8.643
 1757POPC   C2B26612  35.920  34.996   8.241
 1757POPC   C3B26613  36.038  34.886   7.814
 1757POPC   C4B26614  35.999  35.220   7.497
 1758POPC   NC326615  32.724  34.517   9.585
 1758POPC   PO426616  33.290  34.846   9.593
 1758POPC   GL126617  33.066  34.735   9.212
 1758POPC   GL226618  32.952  34.397   9.121
 1758POPC   C1A26619  33.271  34.635   8.807
 1758POPC   D2A26620  33.325  34.857   8.431
 1758POPC   C3A26621  33.349  34.593   8.108
 1758POPC   C4A26622  33.102  34.391   7.795
 1758POPC   C1B26623  32.811  34.450   8.673
 1758POPC   C2B26624  32.847  34.624   8.236
 1758POPC   C3B26625  32.616  34.548   7.852
 1758POPC   C4B26626  32.681  34.340   7.473
 1759POPC   NC326627  32.423  15.545   9.429
 1759POPC   PO426628  32.177  14.859   9.481
 1759POPC   GL126629  32.088  15.217   9.168
 1759POPC   GL226630  31.955  15.579   9.242
 1759POPC   C1A26631  32.293  15.263   8.766
 1759POPC   D2A26632  32.581  15.207   8.403
 1759POPC   C3A26633  32.343  15.252   8.022
 1759POPC   C4A26634  32.316  15.099   7.613
 1759POPC   C1B26635  31.927  15.635   8.799
 1759POPC   C2B26636  32.018  15.461   8.369
 1759POPC   C3B26637  31.994  15.596   7.922
 1759POPC   C4B26638  32.075  15.519   7.459
 1760POPC   NC326639  34.548  14.130   9.828
 1760POPC   PO426640  33.965  14.345   9.494
 1760POPC   GL126641  33.843  14.600   9.147
 1760POPC   GL226642  34.179  14.546   9.047
 1760POPC   C1A26643  33.754  14.520   8.713
 1760POPC   D2A26644  33.656  14.126   8.478
 1760POPC   C3A26645  33.495  14.267   8.081
 1760POPC   C4A26646  33.617  14.568   7.778
 1760POPC   C1B26647  34.108  14.161   8.839
 1760POPC   C2B26648  34.227  14.146   8.438
 1760POPC   C3B26649  34.011  14.287   8.128
 1760POPC   C4B26650  33.864  14.088   7.770
 1761POPC   NC326651   9.902  42.750   9.461
 1761POPC   PO426652   9.639  42.191   9.390
 1761POPC   GL126653   9.454  42.202   9.018
 1761POPC   GL226654   9.387  41.858   8.930
 1761POPC   C1A26655   9.673  42.442   8.704
 1761POPC   D2A26656   9.976  42.206   8.469
 1761POPC   C3A26657   9.993  42.281   8.034
 1761POPC   C4A26658   9.755  42.601   7.807
 1761POPC   C1B26659   9.499  41.975   8.543
 1761POPC   C2B26660   9.504  42.300   8.246
 1761POPC   C3B26661   9.468  42.205   7.869
 1761POPC   C4B26662   9.248  42.008   7.603
 1762POPC   NC326663  26.519  33.151   9.492
 1762POPC   PO426664  25.826  33.423   9.434
 1762POPC   GL126665  26.104  33.111   9.157
 1762POPC   GL226666  26.444  33.209   8.982
 1762POPC   C1A26667  26.208  32.759   8.834
 1762POPC   D2A26668  26.353  32.798   8.391
 1762POPC   C3A26669  26.131  32.903   7.978
 1762POPC   C4A26670  26.254  32.940   7.563
 1762POPC   C1B26671  26.107  33.219   8.651
 1762POPC   C2B26672  26.059  33.327   8.241
 1762POPC   C3B26673  26.178  33.416   7.825
 1762POPC   C4B26674  26.162  33.435   7.383
 1763POPC   NC326675  33.686  35.156   9.544
 1763POPC   PO426676  34.381  35.384   9.554
 1763POPC   GL126677  34.114  35.237   9.191
 1763POPC   GL226678  33.787  35.409   9.126
 1763POPC   C1A26679  34.101  35.296   8.737
 1763POPC   D2A26680  34.145  35.455   8.302
 1763POPC   C3A26681  34.090  35.174   7.949
 1763POPC   C4A26682  33.927  35.110   7.500
 1763POPC   C1B26683  33.487  35.352   8.801
 1763POPC   C2B26684  33.263  35.415   8.408
 1763POPC   C3B26685  33.416  35.524   7.990
 1763POPC   C4B26686  33.497  35.725   7.551
 1764POPC   NC326687  38.252  13.183   9.280
 1764POPC   PO426688  38.638  12.938   9.714
 1764POPC   GL126689  38.622  12.814   9.245
 1764POPC   GL226690  38.344  12.603   9.102
 1764POPC   C1A26691  38.547  12.923   8.775
 1764POPC   D2A26692  38.189  13.139   8.600
 1764POPC   C3A26693  38.268  13.177   8.169
 1764POPC   C4A26694  38.316  12.966   7.770
 1764POPC   C1B26695  38.179  12.597   8.661
 1764POPC   C2B26696  38.343  12.676   8.266
 1764POPC   C3B26697  38.512  12.497   7.892
 1764POPC   C4B26698  38.614  12.354   7.461
 1765POPC   NC326699   3.972   4.869   9.489
 1765POPC   PO426700   4.444   5.335   9.415
 1765POPC   GL126701   4.427   5.193   9.019
 1765POPC   GL226702   4.303   4.876   9.089
 1765POPC   C1A26703   4.629   5.313   8.642
 1765POPC   D2A26704   4.556   5.387   8.218
 1765POPC   C3A26705   4.357   5.064   7.987
 1765POPC   C4A26706   4.441   5.141   7.596
 1765POPC   C1B26707   4.029   4.768   8.757
 1765POPC   C2B26708   4.143   4.749   8.359
 1765POPC   C3B26709   3.946   4.737   7.999
 1765POPC   C4B26710   4.074   4.788   7.617
 1766POPC   NC326711  30.140  10.918   9.609
 1766POPC   PO426712  29.815  10.372   9.532
 1766POPC   GL126713  30.108  10.449   9.243
 1766POPC   GL226714  29.988  10.730   9.160
 1766POPC   C1A26715  30.221  10.439   8.805
 1766POPC   D2A26716  29.993  10.353   8.416
 1766POPC   C3A26717  30.169  10.377   8.008
 1766POPC   C4A26718  30.223  10.416   7.563
 1766POPC   C1B26719  29.716  10.548   8.827
 1766POPC   C2B26720  29.605  10.717   8.394
 1766POPC   C3B26721  29.676  10.479   7.997
 1766POPC   C4B26722  29.801  10.044   7.882
 1767POPC   NC326723  38.679  33.277   9.796
 1767POPC   PO426724  38.244  32.865   9.490
 1767POPC   GL126725  38.539  32.881   9.165
 1767POPC   GL226726  38.592  32.612   9.071
 1767POPC   C1A26727  38.648  33.035   8.754
 1767POPC   D2A26728  38.460  33.211   8.393
 1767POPC   C3A26729  38.624  33.280   7.978
 1767POPC   C4A26730  38.300  33.218   7.692
 1767POPC   C1B26731  38.257  32.651   8.798
 1767POPC   C2B26732  38.453  32.579   8.435
 1767POPC   C3B26733  38.448  32.798   8.048
 1767POPC   C4B26734  38.389  32.713   7.630
 1768POPC   NC326735   3.340   0.779   9.856
 1768POPC   PO426736   2.693   0.800   9.532
 1768POPC   GL126737   2.674   1.123   9.218
 1768POPC   GL226738   2.983   1.200   9.161
 1768POPC   C1A26739   2.696   1.036   8.780
 1768POPC   D2A26740   2.930   1.019   8.414
 1768POPC   C3A26741   2.689   1.243   8.103
 1768POPC   C4A26742   2.831   1.239   7.685
 1768POPC   C1B26743   3.225   1.194   8.803
 1768POPC   C2B26744   3.401   1.237   8.404
 1768POPC   C3B26745   3.222   1.252   8.012
 1768POPC   C4B26746   3.249   1.538   7.671
 1769POPC   NC326747  33.417  29.745   9.590
 1769POPC   PO426748  34.066  29.876   9.611
 1769POPC   GL126749  33.926  29.912   9.170
 1769POPC   GL226750  33.905  30.269   9.162
 1769POPC   C1A26751  33.784  29.646   8.793
 1769POPC   D2A26752  33.744  29.416   8.388
 1769POPC   C3A26753  33.669  29.734   8.089
 1769POPC   C4A26754  33.782  29.851   7.676
 1769POPC   C1B26755  33.681  30.189   8.784
 1769POPC   C2B26756  33.699  30.226   8.347
 1769POPC   C3B26757  33.615  30.236   7.935
 1769POPC   C4B26758  33.798  30.411   7.577
 1770POPC   NC326759  13.371  44.219   9.472
 1770POPC   PO426760  13.639  44.827   9.509
 1770POPC   GL126761  13.637  44.620   9.149
 1770POPC   GL226762  13.306  44.587   9.129
 1770POPC   C1A26763  13.678  44.750   8.750
 1770POPC   D2A26764  13.559  44.634   8.371
 1770POPC   C3A26765  13.826  44.752   8.089
 1770POPC   C4A26766  13.642  44.957   7.783
 1770POPC   C1B26767  13.232  44.441   8.726
 1770POPC   C2B26768  13.108  44.429   8.290
 1770POPC   C3B26769  13.268  44.505   7.893
 1770POPC   C4B26770  13.308  44.175   7.623
 1771POPC   NC326771  17.849  32.598   9.458
 1771POPC   PO426772  17.351  32.207   9.708
 1771POPC   GL126773  17.325  32.243   9.241
 1771POPC   GL226774  17.657  32.273   9.115
 1771POPC   C1A26775  17.238  32.339   8.812
 1771POPC   D2A26776  17.247  32.096   8.400
 1771POPC   C3A26777  17.522  32.304   8.122
 1771POPC   C4A26778  17.485  32.458   7.703
 1771POPC   C1B26779  17.697  32.148   8.677
 1771POPC   C2B26780  17.890  31.948   8.332
 1771POPC   C3B26781  17.832  31.947   7.905
 1771POPC   C4B26782  17.851  32.164   7.506
 1772POPC   NC326783  39.426  23.992   9.268
 1772POPC   PO426784  39.366  23.672   9.791
 1772POPC   GL126785  39.156  23.586   9.229
 1772POPC   GL226786  39.424  23.687   8.872
 1772POPC   C1A26787  38.950  23.623   8.795
 1772POPC   D2A26788  39.210  23.779   8.424
 1772POPC   C3A26789  39.022  23.891   8.048
 1772POPC   C4A26790  38.975  23.588   7.751
 1772POPC   C1B26791  39.672  23.984   8.611
 1772POPC   C2B26792  39.621  24.048   8.181
 1772POPC   C3B26793  39.503  23.800   7.834
 1772POPC   C4B26794  39.533  23.880   7.380
 1773POPC   NC326795  10.850  23.022   9.640
 1773POPC   PO426796  10.327  22.602   9.459
 1773POPC   GL126797  10.522  22.802   9.212
 1773POPC   GL226798  10.390  22.576   8.928
 1773POPC   C1A26799  10.539  23.047   8.888
 1773POPC   D2A26800  10.566  22.903   8.516
 1773POPC   C3A26801  10.666  23.215   8.245
 1773POPC   C4A26802  10.659  23.263   7.823
 1773POPC   C1B26803  10.855  22.620   8.880
 1773POPC   C2B26804  11.044  22.665   8.477
 1773POPC   C3B26805  10.803  22.722   8.108
 1773POPC   C4B26806  10.724  22.780   7.672
 1774POPC   NC326807  21.735  10.063   9.558
 1774POPC   PO426808  21.240   9.680   9.612
 1774POPC   GL126809  21.193   9.678   9.171
 1774POPC   GL226810  21.437   9.932   9.095
 1774POPC   C1A26811  21.261   9.588   8.711
 1774POPC   D2A26812  21.342   9.753   8.278
 1774POPC   C3A26813  21.486   9.495   7.932
 1774POPC   C4A26814  21.263   9.368   7.569
 1774POPC   C1B26815  21.602  10.006   8.672
 1774POPC   C2B26816  21.540  10.228   8.277
 1774POPC   C3B26817  21.584  10.022   7.867
 1774POPC   C4B26818  21.979   9.823   7.695
 1775POPC   NC326819  27.440  25.257   9.582
 1775POPC   PO426820  27.905  24.954   9.519
 1775POPC   GL126821  27.624  25.081   9.138
 1775POPC   GL226822  27.252  25.029   9.113
 1775POPC   C1A26823  27.459  25.446   8.888
 1775POPC   D2A26824  27.350  25.522   8.435
 1775POPC   C3A26825  27.634  25.456   8.072
 1775POPC   C4A26826  27.584  25.189   7.693
 1775POPC   C1B26827  27.404  25.006   8.634
 1775POPC   C2B26828  27.535  24.963   8.172
 1775POPC   C3B26829  27.531  24.681   7.791
 1775POPC   C4B26830  27.387  24.816   7.346
 1776POPC   NC326831   8.665   1.963   9.509
 1776POPC   PO426832   9.217   2.152   9.708
 1776POPC   GL126833   9.121   1.939   9.256
 1776POPC   GL226834   9.206   2.138   8.994
 1776POPC   C1A26835   8.825   1.816   8.896
 1776POPC   D2A26836   8.794   1.699   8.463
 1776POPC   C3A26837   8.863   1.977   8.126
 1776POPC   C4A26838   8.800   1.946   7.672
 1776POPC   C1B26839   9.270   1.891   8.632
 1776POPC   C2B26840   9.399   2.131   8.280
 1776POPC   C3B26841   9.299   2.051   7.860
 1776POPC   C4B26842   9.415   1.648   7.732
 1777POPC   NC326843  42.563  15.381   9.539
 1777POPC   PO426844  41.923  15.155   9.522
 1777POPC   GL126845  42.218  15.025   9.173
 1777POPC   GL226846  42.078  14.736   8.961
 1777POPC   C1A26847  42.453  15.274   8.847
 1777POPC   D2A26848  42.293  15.540   8.523
 1777POPC   C3A26849  42.385  15.435   8.108
 1777POPC   C4A26850  42.383  15.560   7.686
 1777POPC   C1B26851  42.499  14.753   8.798
 1777POPC   C2B26852  42.589  14.970   8.419
 1777POPC   C3B26853  42.291  14.934   8.093
 1777POPC   C4B26854  42.324  14.806   7.699
 1778POPC   NC326855   7.466   1.032   9.437
 1778POPC   PO426856   7.341   1.688   9.537
 1778POPC   GL126857   7.263   1.399   9.157
 1778POPC   GL226858   7.619   1.289   9.023
 1778POPC   C1A26859   7.205   1.227   8.721
 1778POPC   D2A26860   7.256   1.446   8.328
 1778POPC   C3A26861   7.398   1.226   7.976
 1778POPC   C4A26862   7.205   1.173   7.555
 1778POPC   C1B26863   7.697   1.010   8.666
 1778POPC   C2B26864   7.613   0.817   8.247
 1778POPC   C3B26865   7.746   0.880   7.806
 1778POPC   C4B26866   7.752   1.066   7.348
 1779POPC   NC326867   9.499  28.928   9.280
 1779POPC   PO426868   9.996  29.360   9.557
 1779POPC   GL126869   9.937  29.164   9.136
 1779POPC   GL226870   9.659  29.332   8.981
 1779POPC   C1A26871   9.902  28.885   8.735
 1779POPC   D2A26872   9.940  28.951   8.267
 1779POPC   C3A26873   9.678  28.985   7.910
 1779POPC   C4A26874   9.872  29.294   7.750
 1779POPC   C1B26875   9.905  29.381   8.622
 1779POPC   C2B26876   9.905  29.671   8.285
 1779POPC   C3B26877   9.586  29.655   7.982
 1779POPC   C4B26878   9.343  29.372   7.719
 1780POPC   NC326879   5.907  30.951   9.805
 1780POPC   PO426880   5.311  30.923   9.634
 1780POPC   GL126881   5.651  31.038   9.291
 1780POPC   GL226882   6.012  30.910   9.249
 1780POPC   C1A26883   5.705  30.996   8.824
 1780POPC   D2A26884   5.803  30.778   8.418
 1780POPC   C3A26885   5.880  30.912   7.978
 1780POPC   C4A26886   5.600  31.076   7.645
 1780POPC   C1B26887   6.138  30.704   8.817
 1780POPC   C2B26888   6.247  30.527   8.376
 1780POPC   C3B26889   6.160  30.470   7.910
 1780POPC   C4B26890   6.186  30.238   7.488
 1781POPC   NC326891  15.358  37.374   9.332
 1781POPC   PO426892  15.392  37.940   9.720
 1781POPC   GL126893  15.185  37.903   9.265
 1781POPC   GL226894  15.369  37.755   8.994
 1781POPC   C1A26895  14.919  37.945   8.838
 1781POPC   D2A26896  14.922  37.975   8.332
 1781POPC   C3A26897  14.975  37.592   8.003
 1781POPC   C4A26898  15.285  37.259   7.828
 1781POPC   C1B26899  15.636  37.920   8.669
 1781POPC   C2B26900  15.535  38.014   8.264
 1781POPC   C3B26901  15.450  37.796   7.895
 1781POPC   C4B26902  15.722  37.802   7.544
 1782POPC   NC326903   3.563  21.038   9.391
 1782POPC   PO426904   3.820  20.479   9.497
 1782POPC   GL126905   3.560  20.460   9.145
 1782POPC   GL226906   3.421  20.141   9.070
 1782POPC   C1A26907   3.645  20.692   8.782
 1782POPC   D2A26908   3.688  20.731   8.354
 1782POPC   C3A26909   3.315  20.699   8.089
 1782POPC   C4A26910   3.143  20.986   7.775
 1782POPC   C1B26911   3.335  20.307   8.648
 1782POPC   C2B26912   3.161  20.236   8.235
 1782POPC   C3B26913   3.432  20.265   7.857
 1782POPC   C4B26914   3.819  20.529   7.884
 1783POPC   NC326915  43.219   0.319   9.513
 1783POPC   PO426916  42.791   0.722   9.251
 1783POPC   GL126917  42.942   0.345   9.048
 1783POPC   GL226918  43.291   0.344   9.022
 1783POPC   C1A26919  43.006   0.351   8.588
 1783POPC   D2A26920  42.941   0.273   8.140
 1783POPC   C3A26921  42.875   0.646   7.831
 1783POPC   C4A26922  42.779   0.905   7.441
 1783POPC   C1B26923  43.540   0.424   8.671
 1783POPC   C2B26924  43.437   0.384   8.274
 1783POPC   C3B26925  43.339   0.403   7.850
 1783POPC   C4B26926  43.360   0.263   7.420
 1784POPC   NC326927  16.409   5.305   9.369
 1784POPC   PO426928  16.106   4.829   9.742
 1784POPC   GL126929  15.973   4.921   9.251
 1784POPC   GL226930  15.792   5.245   9.206
 1784POPC   C1A26931  16.136   4.926   8.770
 1784POPC   D2A26932  16.426   4.863   8.379
 1784POPC   C3A26933  16.196   5.021   8.021
 1784POPC   C4A26934  15.814   4.808   7.913
 1784POPC   C1B26935  15.960   5.408   8.798
 1784POPC   C2B26936  16.133   5.432   8.359
 1784POPC   C3B26937  15.864   5.450   7.997
 1784POPC   C4B26938  15.615   5.225   7.689
 1785POPC   NC326939  14.158  29.991   9.483
 1785POPC   PO426940  14.567  29.543   9.621
 1785POPC   GL126941  14.550  29.797   9.252
 1785POPC   GL226942  14.314  29.554   9.136
 1785POPC   C1A26943  14.367  29.985   8.853
 1785POPC   D2A26944  14.260  29.827   8.447
 1785POPC   C3A26945  14.361  30.111   8.125
 1785POPC   C4A26946  14.146  30.184   7.748
 1785POPC   C1B26947  14.667  29.558   8.833
 1785POPC   C2B26948  14.775  29.782   8.456
 1785POPC   C3B26949  14.609  29.656   8.079
 1785POPC   C4B26950  14.548  29.824   7.722
 1786POPC   NC326951   7.273  20.586   9.468
 1786POPC   PO426952   7.703  20.111   9.533
 1786POPC   GL126953   7.522  20.360   9.107
 1786POPC   GL226954   7.370  20.720   9.010
 1786POPC   C1A26955   7.253  20.360   8.706
 1786POPC   D2A26956   7.446  20.505   8.312
 1786POPC   C3A26957   7.279  20.692   7.945
 1786POPC   C4A26958   7.270  20.525   7.534
 1786POPC   C1B26959   7.711  20.644   8.731
 1786POPC   C2B26960   7.841  20.860   8.364
 1786POPC   C3B26961   7.740  20.909   7.948
 1786POPC   C4B26962   7.480  20.984   7.549
 1787POPC   NC326963   7.753  15.759   9.561
 1787POPC   PO426964   8.435  15.679   9.611
 1787POPC   GL126965   8.360  15.787   9.220
 1787POPC   GL226966   8.180  15.506   9.137
 1787POPC   C1A26967   8.463  15.822   8.788
 1787POPC   D2A26968   8.272  16.083   8.501
 1787POPC   C3A26969   8.323  15.948   8.081
 1787POPC   C4A26970   7.955  16.012   7.827
 1787POPC   C1B26971   7.976  15.544   8.724
 1787POPC   C2B26972   7.905  15.739   8.309
 1787POPC   C3B26973   8.031  15.522   7.925
 1787POPC   C4B26974   7.817  15.551   7.548
 1788POPC   NC326975   7.644   6.152   9.666
 1788POPC   PO426976   7.309   6.617   9.363
 1788POPC   GL126977   7.586   6.625   9.055
 1788POPC   GL226978   7.686   6.292   9.135
 1788POPC   C1A26979   7.590   6.854   8.671
 1788POPC   D2A26980   7.300   6.849   8.333
 1788POPC   C3A26981   7.479   7.003   7.952
 1788POPC   C4A26982   7.213   6.892   7.603
 1788POPC   C1B26983   7.580   6.319   8.683
 1788POPC   C2B26984   7.662   6.500   8.293
 1788POPC   C3B26985   7.365   6.512   7.955
 1788POPC   C4B26986   7.515   6.130   7.846
 1789POPC   NC326987  11.630  16.891   9.523
 1789POPC   PO426988  12.296  16.728   9.401
 1789POPC   GL126989  12.235  16.919   9.007
 1789POPC   GL226990  11.885  16.906   9.068
 1789POPC   C1A26991  12.074  16.824   8.584
 1789POPC   D2A26992  11.962  16.435   8.405
 1789POPC   C3A26993  12.107  16.284   8.023
 1789POPC   C4A26994  12.080  16.530   7.651
 1789POPC   C1B26995  11.648  17.105   8.750
 1789POPC   C2B26996  11.636  16.934   8.352
 1789POPC   C3B26997  11.908  16.821   8.048
 1789POPC   C4B26998  11.832  16.979   7.642
 1790POPC   NC326999  43.529  28.806   9.528
 1790POPC   PO427000  44.163  28.939   9.591
 1790POPC   GL127001  43.900  28.897   9.196
 1790POPC   GL227002  43.689  29.163   9.134
 1790POPC   C1A27003  43.783  28.859   8.729
 1790POPC   D2A27004  43.666  29.128   8.372
 1790POPC   C3A27005  43.754  28.919   8.021
 1790POPC   C4A27006  44.141  28.951   7.800
 1790POPC   C1B27007  43.869  29.359   8.777
 1790POPC   C2B27008  43.970  29.563   8.378
 1790POPC   C3B27009  43.887  29.406   7.962
 1790POPC   C4B27010  43.939  29.415   7.526
 1791POPC   NC327011  12.593  18.586   9.329
 1791POPC   PO427012  12.515  17.886   9.406
 1791POPC   GL127013  12.636  17.985   9.022
 1791POPC   GL227014  12.371  18.250   8.979
 1791POPC   C1A27015  13.035  17.904   8.745
 1791POPC   D2A27016  13.322  18.129   8.455
 1791POPC   C3A27017  13.034  18.349   8.204
 1791POPC   C4A27018  12.947  18.385   7.810
 1791POPC   C1B27019  12.676  18.289   8.628
 1791POPC   C2B27020  12.684  17.969   8.323
 1791POPC   C3B27021  12.486  18.021   7.937
 1791POPC   C4B27022  12.534  18.233   7.571
 1792POPC   NC327023  36.617  23.577   9.574
 1792POPC   PO427024  36.096  23.935   9.437
 1792POPC   GL127025  36.203  23.642   9.122
 1792POPC   GL227026  36.482  23.353   9.127
 1792POPC   C1A27027  36.063  23.794   8.736
 1792POPC   D2A27028  35.846  24.032   8.417
 1792POPC   C3A27029  35.999  23.879   8.043
 1792POPC   C4A27030  35.915  23.538   7.756
 1792POPC   C1B27031  36.533  23.595   8.721
 1792POPC   C2B27032  36.361  23.636   8.313
 1792POPC   C3B27033  36.399  23.573   7.860
 1792POPC   C4B27034  36.564  23.678   7.481
 1793POPC   NC327035  31.270   4.006   9.420
 1793POPC   PO427036  31.321   4.687   9.488
 1793POPC   GL127037  31.605   4.437   9.197
 1793POPC   GL227038  31.479   4.133   8.977
 1793POPC   C1A27039  31.843   4.440   8.814
 1793POPC   D2A27040  31.719   4.192   8.454
 1793POPC   C3A27041  31.804   4.396   8.077
 1793POPC   C4A27042  31.618   4.473   7.658
 1793POPC   C1B27043  31.295   4.424   8.700
 1793POPC   C2B27044  31.291   4.398   8.250
 1793POPC   C3B27045  31.223   4.228   7.873
 1793POPC   C4B27046  31.090   4.537   7.579
 1794POPC   NC327047  30.625  11.478   9.552
 1794POPC   PO427048  31.273  11.631   9.416
 1794POPC   GL127049  30.951  11.461   9.104
 1794POPC   GL227050  30.621  11.238   9.111
 1794POPC   C1A27051  30.903  11.264   8.683
 1794POPC   D2A27052  30.663  11.093   8.318
 1794POPC   C3A27053  30.873  11.090   7.911
 1794POPC   C4A27054  31.160  10.904   7.606
 1794POPC   C1B27055  30.400  11.268   8.723
 1794POPC   C2B27056  30.307  11.550   8.378
 1794POPC   C3B27057  30.228  11.658   7.958
 1794POPC   C4B27058  30.349  11.237   7.831
 1795POPC   NC327059  31.418   3.437   9.772
 1795POPC   PO427060  31.703   3.861   9.355
 1795POPC   GL127061  31.622   3.636   9.050
 1795POPC   GL227062  31.356   3.460   9.204
 1795POPC   C1A27063  31.594   3.684   8.596
 1795POPC   D2A27064  31.364   3.853   8.242
 1795POPC   C3A27065  31.483   3.551   7.931
 1795POPC   C4A27066  31.550   3.659   7.513
 1795POPC   C1B27067  31.157   3.706   8.839
 1795POPC   C2B27068  30.974   3.600   8.450
 1795POPC   C3B27069  30.986   3.440   8.045
 1795POPC   C4B27070  31.075   3.697   7.675
 1796POPC   NC327071  25.399  33.302   9.554
 1796POPC   PO427072  25.259  32.606   9.536
 1796POPC   GL127073  25.272  32.902   9.190
 1796POPC   GL227074  25.593  33.011   9.189
 1796POPC   C1A27075  25.213  33.025   8.757
 1796POPC   D2A27076  25.186  32.833   8.344
 1796POPC   C3A27077  25.021  33.147   8.071
 1796POPC   C4A27078  24.897  33.093   7.603
 1796POPC   C1B27079  25.692  32.844   8.799
 1796POPC   C2B27080  25.865  32.809   8.419
 1796POPC   C3B27081  25.655  32.764   8.049
 1796POPC   C4B27082  25.355  32.906   7.800
 1797POPC   NC327083  13.607  15.350   9.415
 1797POPC   PO427084  13.896  14.764   9.388
 1797POPC   GL127085  13.657  14.957   9.080
 1797POPC   GL227086  13.778  15.297   8.936
 1797POPC   C1A27087  13.444  14.988   8.726
 1797POPC   D2A27088  13.620  15.272   8.416
 1797POPC   C3A27089  13.615  15.120   7.997
 1797POPC   C4A27090  13.540  15.125   7.601
 1797POPC   C1B27091  13.389  15.520   8.803
 1797POPC   C2B27092  13.216  15.716   8.425
 1797POPC   C3B27093  13.406  15.590   8.072
 1797POPC   C4B27094  13.615  15.626   7.703
 1798POPC   NC327095  26.558  32.152   9.509
 1798POPC   PO427096  27.103  32.057   9.174
 1798POPC   GL127097  26.945  32.374   8.952
 1798POPC   GL227098  26.591  32.445   9.084
 1798POPC   C1A27099  27.028  32.312   8.537
 1798POPC   D2A27100  26.891  31.948   8.304
 1798POPC   C3A27101  27.031  31.997   7.893
 1798POPC   C4A27102  26.895  32.271   7.548
 1798POPC   C1B27103  26.531  32.399   8.650
 1798POPC   C2B27104  26.635  32.408   8.236
 1798POPC   C3B27105  26.540  32.161   7.938
 1798POPC   C4B27106  26.388  32.386   7.607
 1799POPC   NC327107  34.191  14.823   9.467
 1799POPC   PO427108  33.729  15.313   9.576
 1799POPC   GL127109  33.845  15.188   9.191
 1799POPC   GL227110  34.142  15.371   9.077
 1799POPC   C1A27111  33.734  15.256   8.756
 1799POPC   D2A27112  33.860  15.061   8.360
 1799POPC   C3A27113  33.648  15.261   8.000
 1799POPC   C4A27114  33.573  15.384   7.565
 1799POPC   C1B27115  34.158  14.991   8.824
 1799POPC   C2B27116  34.225  14.653   8.532
 1799POPC   C3B27117  34.257  14.843   8.124
 1799POPC   C4B27118  33.991  14.919   7.825
 1800POPC   NC327119  16.247   8.943   9.411
 1800POPC   PO427120  16.929   8.684   9.451
 1800POPC   GL127121  16.667   8.837   9.125
 1800POPC   GL227122  16.695   9.193   9.118
 1800POPC   C1A27123  16.530   8.973   8.718
 1800POPC   D2A27124  16.682   9.196   8.392
 1800POPC   C3A27125  16.614   9.007   8.003
 1800POPC   C4A27126  16.569   9.187   7.581
 1800POPC   C1B27127  17.009   9.157   8.810
 1800POPC   C2B27128  17.042   8.828   8.505
 1800POPC   C3B27129  17.111   8.671   8.080
 1800POPC   C4B27130  16.985   8.872   7.675
 1801POPC   NC327131  27.774  33.332   9.806
 1801POPC   PO427132  27.738  32.790   9.417
 1801POPC   GL127133  27.724  32.999   9.052
 1801POPC   GL227134  27.938  33.259   9.149
 1801POPC   C1A27135  27.879  32.858   8.660
 1801POPC   D2A27136  28.069  32.800   8.270
 1801POPC   C3A27137  27.753  32.612   7.981
 1801POPC   C4A27138  27.727  32.639   7.507
 1801POPC   C1B27139  27.844  33.405   8.746
 1801POPC   C2B27140  27.502  33.177   8.558
 1801POPC   C3B27141  27.558  33.074   8.148
 1801POPC   C4B27142  27.430  32.946   7.773
 1802POPC   NC327143  18.083  36.094   9.468
 1802POPC   PO427144  18.720  35.941   9.310
 1802POPC   GL127145  18.465  36.210   9.075
 1802POPC   GL227146  18.107  36.338   9.032
 1802POPC   C1A27147  18.489  36.398   8.726
 1802POPC   D2A27148  18.179  36.402   8.449
 1802POPC   C3A27149  18.397  36.265   8.129
 1802POPC   C4A27150  18.626  36.347   7.795
 1802POPC   C1B27151  18.147  35.958   8.789
 1802POPC   C2B27152  18.195  35.869   8.388
 1802POPC   C3B27153  18.057  35.934   7.982
 1802POPC   C4B27154  18.165  35.829   7.577
 1803POPC   NC327155  37.218   3.096   9.578
 1803POPC   PO427156  36.613   3.342   9.619
 1803POPC   GL127157  36.702   3.433   9.163
 1803POPC   GL227158  37.016   3.279   9.158
 1803POPC   C1A27159  36.956   3.595   8.776
 1803POPC   D2A27160  36.977   3.842   8.412
 1803POPC   C3A27161  36.942   3.544   8.123
 1803POPC   C4A27162  36.965   3.522   7.699
 1803POPC   C1B27163  37.243   3.150   8.816
 1803POPC   C2B27164  37.362   3.363   8.437
 1803POPC   C3B27165  37.411   3.432   7.980
 1803POPC   C4B27166  37.256   3.098   7.691
 1804POPC   NC327167  16.183  24.171   9.571
 1804POPC   PO427168  15.767  24.650   9.513
 1804POPC   GL127169  16.044  24.473   9.187
 1804POPC   GL227170  15.913  24.162   9.090
 1804POPC   C1A27171  16.217  24.486   8.774
 1804POPC   D2A27172  15.964  24.715   8.487
 1804POPC   C3A27173  16.047  24.708   8.060
 1804POPC   C4A27174  16.022  24.653   7.640
 1804POPC   C1B27175  15.820  24.172   8.655
 1804POPC   C2B27176  16.105  24.241   8.306
 1804POPC   C3B27177  16.048  24.215   7.887
 1804POPC   C4B27178  15.904  24.096   7.507
 1805POPC   NC327179  40.069  33.221   9.415
 1805POPC   PO427180  39.637  32.713   9.503
 1805POPC   GL127181  39.853  32.865   9.122
 1805POPC   GL227182  40.218  32.824   9.086
 1805POPC   C1A27183  39.938  33.171   8.765
 1805POPC   D2A27184  39.633  33.326   8.458
 1805POPC   C3A27185  39.814  33.316   8.061
 1805POPC   C4A27186  40.081  33.448   7.711
 1805POPC   C1B27187  40.064  32.684   8.674
 1805POPC   C2B27188  40.088  32.938   8.290
 1805POPC   C3B27189  39.890  32.846   7.879
 1805POPC   C4B27190  39.788  32.557   7.536
 1806POPC   NC327191  18.181   2.376   9.419
 1806POPC   PO427192  18.447   2.897   9.404
 1806POPC   GL127193  18.194   2.803   9.090
 1806POPC   GL227194  18.438   2.526   9.014
 1806POPC   C1A27195  17.976   2.564   8.769
 1806POPC   D2A27196  17.923   2.382   8.366
 1806POPC   C3A27197  18.141   2.634   8.045
 1806POPC   C4A27198  18.192   3.043   7.819
 1806POPC   C1B27199  18.490   2.783   8.668
 1806POPC   C2B27200  18.721   3.011   8.361
 1806POPC   C3B27201  18.631   2.839   7.969
 1806POPC   C4B27202  18.467   2.507   7.665
 1807POPC   NC327203  18.848  26.344   9.381
 1807POPC   PO427204  19.201  26.936   9.439
 1807POPC   GL127205  18.995  26.754   9.097
 1807POPC   GL227206  19.161  26.545   8.940
 1807POPC   C1A27207  18.985  26.957   8.699
 1807POPC   D2A27208  18.796  26.904   8.324
 1807POPC   C3A27209  19.049  26.969   7.985
 1807POPC   C4A27210  19.141  27.220   7.649
 1807POPC   C1B27211  18.786  26.498   8.669
 1807POPC   C2B27212  18.874  26.416   8.221
 1807POPC   C3B27213  18.920  26.296   7.818
 1807POPC   C4B27214  19.138  26.427   7.455
 1808POPC   NC327215   2.563  40.889   9.548
 1808POPC   PO427216   3.017  40.439   9.526
 1808POPC   GL127217   2.797  40.613   9.189
 1808POPC   GL227218   2.826  41.000   9.133
 1808POPC   C1A27219   2.712  40.707   8.752
 1808POPC   D2A27220   2.608  40.514   8.407
 1808POPC   C3A27221   2.791  40.692   8.046
 1808POPC   C4A27222   2.660  40.904   7.664
 1808POPC   C1B27223   3.179  41.097   8.842
 1808POPC   C2B27224   3.260  40.896   8.431
 1808POPC   C3B27225   3.123  41.098   8.062
 1808POPC   C4B27226   3.048  41.241   7.662
 1809POPC   NC327227   9.837  44.946   9.206
 1809POPC   PO427228   9.450   0.403   9.572
 1809POPC   GL127229   9.661   0.634   9.234
 1809POPC   GL227230   9.518   0.967   9.169
 1809POPC   C1A27231   9.786   0.500   8.821
 1809POPC   D2A27232   9.700   0.206   8.480
 1809POPC   C3A27233   9.844   0.318   8.062
 1809POPC   C4A27234   9.885   0.569   7.678
 1809POPC   C1B27235   9.345   0.796   8.777
 1809POPC   C2B27236   9.592   0.713   8.395
 1809POPC   C3B27237   9.497   0.682   7.966
 1809POPC   C4B27238   9.452   0.737   7.480
 1810POPC   NC327239  23.806  19.528  10.184
 1810POPC   PO427240  24.120  19.418   9.663
 1810POPC   GL127241  24.016  19.430   9.166
 1810POPC   GL227242  23.926  19.098   9.015
 1810POPC   C1A27243  24.001  19.687   8.744
 1810POPC   D2A27244  24.140  19.751   8.296
 1810POPC   C3A27245  23.845  19.854   7.936
 1810POPC   C4A27246  23.842  20.045   7.504
 1810POPC   C1B27247  23.634  19.343   8.760
 1810POPC   C2B27248  23.690  19.508   8.335
 1810POPC   C3B27249  23.942  19.346   7.980
 1810POPC   C4B27250  23.846  19.018   7.646
 1811POPC   NC327251   0.797  16.773  10.123
 1811POPC   PO427252   0.379  16.840   9.668
 1811POPC   GL127253   0.283  16.997   9.250
 1811POPC   GL227254   0.601  17.034   9.152
 1811POPC   C1A27255   0.176  16.909   8.816
 1811POPC   D2A27256   0.350  16.849   8.387
 1811POPC   C3A27257   0.180  16.601   8.024
 1811POPC   C4A27258   0.029  16.386   7.635
 1811POPC   C1B27259   0.640  17.127   8.712
 1811POPC   C2B27260   0.826  16.993   8.311
 1811POPC   C3B27261   0.603  16.934   7.924
 1811POPC   C4B27262   0.709  17.038   7.487
 1812POPC   NC327263  16.568  31.431   9.437
 1812POPC   PO427264  17.226  31.486   9.420
 1812POPC   GL127265  16.932  31.342   9.092
 1812POPC   GL227266  16.670  31.604   8.979
 1812POPC   C1A27267  16.887  31.147   8.719
 1812POPC   D2A27268  16.908  31.552   8.511
 1812POPC   C3A27269  17.000  31.617   8.104
 1812POPC   C4A27270  16.773  31.424   7.813
 1812POPC   C1B27271  16.431  31.368   8.691
 1812POPC   C2B27272  16.506  31.343   8.249
 1812POPC   C3B27273  16.484  31.765   8.060
 1812POPC   C4B27274  16.778  31.972   7.816
 1813POPC   NC327275  40.924  40.616   9.509
 1813POPC   PO427276  40.564  41.102   9.751
 1813POPC   GL127277  40.669  40.991   9.273
 1813POPC   GL227278  40.606  40.657   9.063
 1813POPC   C1A27279  40.976  40.933   8.897
 1813POPC   D2A27280  40.757  40.760   8.550
 1813POPC   C3A27281  40.993  40.796   8.178
 1813POPC   C4A27282  40.935  40.919   7.784
 1813POPC   C1B27283  40.303  40.554   8.700
 1813POPC   C2B27284  40.347  40.511   8.251
 1813POPC   C3B27285  40.609  40.515   7.882
 1813POPC   C4B27286  40.595  40.617   7.460
 1814POPC   NC327287   3.728   7.098   9.405
 1814POPC   PO427288   3.581   6.535   9.751
 1814POPC   GL127289   3.448   6.717   9.269
 1814POPC   GL227290   3.802   6.709   9.073
 1814POPC   C1A27291   3.382   6.820   8.820
 1814POPC   D2A27292   3.644   6.630   8.504
 1814POPC   C3A27293   3.496   6.729   8.107
 1814POPC   C4A27294   3.720   6.903   7.806
 1814POPC   C1B27295   4.030   6.415   8.771
 1814POPC   C2B27296   4.175   6.317   8.363
 1814POPC   C3B27297   3.876   6.403   8.037
 1814POPC   C4B27298   3.632   6.406   7.674
 1815POPC   NC327299  20.629   4.727   9.369
 1815POPC   PO427300  20.417   5.423   9.515
 1815POPC   GL127301  20.680   5.248   9.269
 1815POPC   GL227302  20.411   5.106   9.073
 1815POPC   C1A27303  20.910   5.201   8.902
 1815POPC   D2A27304  20.778   4.963   8.551
 1815POPC   C3A27305  20.848   5.007   8.101
 1815POPC   C4A27306  21.128   4.774   7.835
 1815POPC   C1B27307  20.278   4.929   8.688
 1815POPC   C2B27308  20.365   4.786   8.316
 1815POPC   C3B27309  20.325   4.965   7.949
 1815POPC   C4B27310  20.126   4.662   7.737
 1816POPC   NC327311  37.528  24.160   9.425
 1816POPC   PO427312  37.832  23.450   9.438
 1816POPC   GL127313  37.819  23.767   9.121
 1816POPC   GL227314  37.468  23.746   9.115
 1816POPC   C1A27315  37.745  23.846   8.647
 1816POPC   D2A27316  37.854  23.565   8.270
 1816POPC   C3A27317  37.778  23.804   7.886
 1816POPC   C4A27318  37.371  23.960   7.768
 1816POPC   C1B27319  37.539  23.413   8.797
 1816POPC   C2B27320  37.359  23.305   8.429
 1816POPC   C3B27321  37.361  23.520   8.078
 1816POPC   C4B27322  37.526  23.389   7.731
 1817POPC   NC327323  39.637   7.660   9.470
 1817POPC   PO427324  40.387   7.484   9.478
 1817POPC   GL127325  40.065   7.437   9.199
 1817POPC   GL227326  39.993   7.774   9.114
 1817POPC   C1A27327  39.794   7.304   8.860
 1817POPC   D2A27328  39.770   7.147   8.432
 1817POPC   C3A27329  40.033   7.297   8.131
 1817POPC   C4A27330  39.982   7.296   7.708
 1817POPC   C1B27331  39.773   7.806   8.726
 1817POPC   C2B27332  39.663   7.644   8.335
 1817POPC   C3B27333  39.772   7.707   7.890
 1817POPC   C4B27334  40.021   7.746   7.453
 1818POPC   NC327335  10.548  20.443   9.510
 1818POPC   PO427336  10.689  21.130   9.486
 1818POPC   GL127337  10.808  20.852   9.159
 1818POPC   GL227338  10.519  20.630   9.051
 1818POPC   C1A27339  10.771  20.901   8.724
 1818POPC   D2A27340  10.532  20.859   8.368
 1818POPC   C3A27341  10.815  20.861   8.040
 1818POPC   C4A27342  10.686  20.727   7.670
 1818POPC   C1B27343  10.152  20.443   8.832
 1818POPC   C2B27344  10.132  20.435   8.392
 1818POPC   C3B27345  10.460  20.428   8.087
 1818POPC   C4B27346  10.484  20.259   7.684
 1819POPC   NC327347  43.934  26.694   9.764
 1819POPC   PO427348  44.088  27.308   9.560
 1819POPC   GL127349  43.985  26.993   9.157
 1819POPC   GL227350  43.833  26.646   9.089
 1819POPC   C1A27351  44.029  26.874   8.692
 1819POPC   D2A27352  44.239  26.952   8.319
 1819POPC   C3A27353  44.030  26.970   7.917
 1819POPC   C4A27354  44.240  27.337   7.796
 1819POPC   C1B27355  43.530  26.764   8.766
 1819POPC   C2B27356  43.348  26.742   8.350
 1819POPC   C3B27357  43.511  26.836   7.934
 1819POPC   C4B27358  43.648  27.131   7.600
 1820POPC   NC327359  31.306  12.024   9.659
 1820POPC   PO427360  30.568  12.008   9.579
 1820POPC   GL127361  30.660  12.166   9.204
 1820POPC   GL227362  30.962  11.997   9.217
 1820POPC   C1A27363  30.634  12.375   8.832
 1820POPC   D2A27364  30.789  12.253   8.447
 1820POPC   C3A27365  30.539  12.058   8.151
 1820POPC   C4A27366  30.549  11.995   7.727
 1820POPC   C1B27367  30.799  11.867   8.823
 1820POPC   C2B27368  30.805  11.714   8.440
 1820POPC   C3B27369  30.722  11.564   8.064
 1820POPC   C4B27370  30.886  11.583   7.702
 1821POPC   NC327371  28.032   1.095   9.461
 1821POPC   PO427372  27.501   1.520   9.316
 1821POPC   GL127373  27.360   1.257   9.040
 1821POPC   GL227374  27.310   0.948   9.203
 1821POPC   C1A27375  27.552   1.322   8.668
 1821POPC   D2A27376  27.800   1.190   8.357
 1821POPC   C3A27377  27.757   1.389   7.972
 1821POPC   C4A27378  27.773   1.265   7.556
 1821POPC   C1B27379  27.403   0.846   8.756
 1821POPC   C2B27380  27.269   1.003   8.369
 1821POPC   C3B27381  27.437   0.994   7.988
 1821POPC   C4B27382  27.590   0.788   7.670
 1822POPC   NC327383   2.413  10.731   9.546
 1822POPC   PO427384   2.781  10.299   9.494
 1822POPC   GL127385   2.781  10.449   9.079
 1822POPC   GL227386   2.508  10.651   8.986
 1822POPC   C1A27387   2.907  10.619   8.656
 1822POPC   D2A27388   2.837  10.396   8.252
 1822POPC   C3A27389   2.846  10.585   7.834
 1822POPC   C4A27390   2.945  10.498   7.395
 1822POPC   C1B27391   2.551  10.250   8.670
 1822POPC   C2B27392   2.430  10.090   8.225
 1822POPC   C3B27393   2.513  10.204   7.779
 1822POPC   C4B27394   2.428  10.508   7.418
 1823POPC   NC327395  43.290  31.845   9.421
 1823POPC   PO427396  43.220  31.173   9.636
 1823POPC   GL127397  43.152  31.387   9.213
 1823POPC   GL227398  42.822  31.401   9.065
 1823POPC   C1A27399  43.206  31.539   8.764
 1823POPC   D2A27400  43.042  31.814   8.409
 1823POPC   C3A27401  43.259  31.718   8.055
 1823POPC   C4A27402  43.379  31.364   7.855
 1823POPC   C1B27403  42.894  31.113   8.705
 1823POPC   C2B27404  42.715  31.121   8.292
 1823POPC   C3B27405  42.848  31.400   7.953
 1823POPC   C4B27406  42.839  31.297   7.497
 1824POPC   NC327407  44.896  18.670   9.334
 1824POPC   PO427408  44.877  19.314   9.441
 1824POPC   GL127409  44.810  19.082   9.039
 1824POPC   GL227410  44.557  18.808   8.956
 1824POPC   C1A27411  44.848  19.032   8.588
 1824POPC   D2A27412  44.848  19.380   8.314
 1824POPC   C3A27413   0.062  19.312   7.916
 1824POPC   C4A27414   0.041  18.981   7.593
 1824POPC   C1B27415  44.369  19.176   8.754
 1824POPC   C2B27416  44.381  19.192   8.326
 1824POPC   C3B27417  44.660  18.952   8.078
 1824POPC   C4B27418  44.572  19.131   7.717
 1825POPC   NC327419   8.635  30.531   9.474
 1825POPC   PO427420   8.066  30.717   9.381
 1825POPC   GL127421   8.210  30.819   8.990
 1825POPC   GL227422   8.536  30.738   9.019
 1825POPC   C1A27423   8.212  30.689   8.589
 1825POPC   D2A27424   7.913  30.460   8.360
 1825POPC   C3A27425   7.997  30.480   7.950
 1825POPC   C4A27426   7.934  30.783   7.691
 1825POPC   C1B27427   8.763  30.909   8.711
 1825POPC   C2B27428   8.699  30.756   8.344
 1825POPC   C3B27429   8.354  30.852   8.104
 1825POPC   C4B27430   8.429  30.794   7.697
 1826POPC   NC327431  36.484  27.768   9.444
 1826POPC   PO427432  36.952  27.313   9.780
 1826POPC   GL127433  36.982  27.454   9.307
 1826POPC   GL227434  36.708  27.427   9.099
 1826POPC   C1A27435  37.108  27.541   8.808
 1826POPC   D2A27436  36.861  27.434   8.471
 1826POPC   C3A27437  37.024  27.431   8.081
 1826POPC   C4A27438  36.903  27.509   7.654
 1826POPC   C1B27439  36.692  27.820   8.845
 1826POPC   C2B27440  36.852  27.929   8.467
 1826POPC   C3B27441  36.685  27.830   8.064
 1826POPC   C4B27442  36.748  27.993   7.674
 1827POPC   NC327443  30.645  12.477   9.596
 1827POPC   PO427444  30.820  13.126   9.396
 1827POPC   GL127445  30.802  12.749   9.165
 1827POPC   GL227446  31.052  12.504   9.250
 1827POPC   C1A27447  30.880  12.817   8.735
 1827POPC   D2A27448  30.676  12.813   8.359
 1827POPC   C3A27449  30.900  12.995   8.008
 1827POPC   C4A27450  30.569  12.882   7.710
 1827POPC   C1B27451  31.182  12.412   8.810
 1827POPC   C2B27452  31.155  12.578   8.344
 1827POPC   C3B27453  30.826  12.495   7.984
 1827POPC   C4B27454  30.819  12.451   7.521
 1828POPC   NC327455  19.546  22.426   9.709
 1828POPC   PO427456  18.952  22.672   9.601
 1828POPC   GL127457  18.981  22.894   9.177
 1828POPC   GL227458  18.672  22.953   9.023
 1828POPC   C1A27459  19.083  23.063   8.735
 1828POPC   D2A27460  19.131  22.895   8.311
 1828POPC   C3A27461  18.948  23.147   7.937
 1828POPC   C4A27462  19.011  23.332   7.505
 1828POPC   C1B27463  18.750  22.678   8.701
 1828POPC   C2B27464  18.648  22.711   8.305
 1828POPC   C3B27465  18.869  22.647   7.956
 1828POPC   C4B27466  19.282  22.765   7.816
 1829POPC   NC327467   1.932  41.658   9.649
 1829POPC   PO427468   2.315  41.211   9.344
 1829POPC   GL127469   2.130  41.544   9.162
 1829POPC   GL227470   1.805  41.439   9.150
 1829POPC   C1A27471   2.239  41.737   8.773
 1829POPC   D2A27472   2.438  41.532   8.423
 1829POPC   C3A27473   2.174  41.566   8.062
 1829POPC   C4A27474   2.158  41.835   7.686
 1829POPC   C1B27475   1.890  41.348   8.719
 1829POPC   C2B27476   1.723  41.450   8.349
 1829POPC   C3B27477   1.674  41.270   7.992
 1829POPC   C4B27478   1.847  41.420   7.680
 1830POPC   NC327479  39.766  32.268   9.443
 1830POPC   PO427480  40.236  31.886   9.558
 1830POPC   GL127481  40.207  32.118   9.217
 1830POPC   GL227482  40.412  32.408   9.341
 1830POPC   C1A27483  39.980  31.987   8.844
 1830POPC   D2A27484  40.100  31.723   8.499
 1830POPC   C3A27485  40.036  31.934   8.112
 1830POPC   C4A27486  39.725  32.156   7.850
 1830POPC   C1B27487  40.465  32.402   8.890
 1830POPC   C2B27488  40.291  32.230   8.510
 1830POPC   C3B27489  40.032  32.430   8.219
 1830POPC   C4B27490  40.176  32.425   7.850
 1831POPC   NC327491  13.499  14.537   9.353
 1831POPC   PO427492  13.882  14.020   9.449
 1831POPC   GL127493  13.766  14.189   9.066
 1831POPC   GL227494  13.405  14.177   9.009
 1831POPC   C1A27495  13.748  14.492   8.722
 1831POPC   D2A27496  13.649  14.743   8.338
 1831POPC   C3A27497  13.868  14.658   7.943
 1831POPC   C4A27498  13.731  14.242   7.818
 1831POPC   C1B27499  13.235  14.515   8.735
 1831POPC   C2B27500  13.170  14.507   8.312
 1831POPC   C3B27501  13.348  14.662   7.906
 1831POPC   C4B27502  13.134  14.829   7.545
 1832POPC   NC327503  29.593   5.765   9.639
 1832POPC   PO427504  30.213   6.040   9.465
 1832POPC   GL127505  29.886   5.839   9.208
 1832POPC   GL227506  29.574   6.009   9.134
 1832POPC   C1A27507  29.916   5.847   8.768
 1832POPC   D2A27508  30.255   5.946   8.462
 1832POPC   C3A27509  30.201   5.754   8.076
 1832POPC   C4A27510  30.238   5.922   7.680
 1832POPC   C1B27511  29.415   5.990   8.733
 1832POPC   C2B27512  29.557   5.750   8.385
 1832POPC   C3B27513  29.690   5.670   7.979
 1832POPC   C4B27514  29.508   5.357   7.725
 1833POPC   NC327515   7.356  31.739   9.502
 1833POPC   PO427516   7.763  31.215   9.462
 1833POPC   GL127517   7.591  31.513   9.102
 1833POPC   GL227518   7.211  31.523   9.068
 1833POPC   C1A27519   7.451  31.549   8.644
 1833POPC   D2A27520   7.375  31.273   8.299
 1833POPC   C3A27521   7.307  31.528   7.955
 1833POPC   C4A27522   7.703  31.626   7.755
 1833POPC   C1B27523   7.108  31.174   8.751
 1833POPC   C2B27524   7.030  30.913   8.357
 1833POPC   C3B27525   7.081  31.023   7.924
 1833POPC   C4B27526   7.129  31.217   7.551
 1834POPC   NC327527   8.916  26.013   9.671
 1834POPC   PO427528   9.401  26.441   9.477
 1834POPC   GL127529   9.141  26.107   9.225
 1834POPC   GL227530   8.827  25.883   9.190
 1834POPC   C1A27531   9.246  25.857   8.866
 1834POPC   D2A27532   9.215  26.085   8.489
 1834POPC   C3A27533   9.254  25.935   8.087
 1834POPC   C4A27534   9.372  26.164   7.761
 1834POPC   C1B27535   8.734  25.932   8.737
 1834POPC   C2B27536   8.798  25.820   8.289
 1834POPC   C3B27537   8.790  26.054   7.902
 1834POPC   C4B27538   8.988  25.926   7.514
 1835POPC   NC327539  10.598  10.910   9.609
 1835POPC   PO427540  10.124  10.396   9.640
 1835POPC   GL127541  10.404  10.590   9.248
 1835POPC   GL227542  10.221  10.753   9.095
 1835POPC   C1A27543  10.719  10.509   8.877
 1835POPC   D2A27544  10.649  10.239   8.472
 1835POPC   C3A27545  10.783  10.389   8.082
 1835POPC   C4A27546  10.629  10.516   7.702
 1835POPC   C1B27547  10.240  10.514   8.697
 1835POPC   C2B27548  10.090  10.588   8.282
 1835POPC   C3B27549  10.137  10.466   7.865
 1835POPC   C4B27550  10.186  10.719   7.494
 1836POPC   NC327551  23.863  36.286   9.941
 1836POPC   PO427552  24.086  35.881   9.613
 1836POPC   GL127553  23.873  35.939   9.190
 1836POPC   GL227554  23.715  35.637   9.104
 1836POPC   C1A27555  23.708  36.057   8.730
 1836POPC   D2A27556  23.753  36.261   8.272
 1836POPC   C3A27557  23.700  36.073   7.828
 1836POPC   C4A27558  23.471  35.987   7.419
 1836POPC   C1B27559  24.032  35.663   8.780
 1836POPC   C2B27560  24.005  35.833   8.369
 1836POPC   C3B27561  24.113  35.799   7.933
 1836POPC   C4B27562  24.211  36.192   7.685
 1837POPC   NC327563  10.143   1.114   9.576
 1837POPC   PO427564   9.506   1.263   9.636
 1837POPC   GL127565   9.750   1.422   9.291
 1837POPC   GL227566   9.478   1.485   9.058
 1837POPC   C1A27567   9.972   1.293   8.896
 1837POPC   D2A27568  10.014   1.105   8.474
 1837POPC   C3A27569  10.039   1.279   8.079
 1837POPC   C4A27570   9.817   1.083   7.723
 1837POPC   C1B27571   9.538   1.237   8.637
 1837POPC   C2B27572   9.536   1.175   8.179
 1837POPC   C3B27573   9.301   1.117   7.796
 1837POPC   C4B27574   9.371   1.265   7.369
 1838POPC   NC327575  31.250   9.850   9.548
 1838POPC   PO427576  31.810  10.106   9.246
 1838POPC   GL127577  31.517   9.804   9.118
 1838POPC   GL227578  31.521   9.970   8.843
 1838POPC   C1A27579  31.261   9.556   8.826
 1838POPC   D2A27580  31.285   9.796   8.430
 1838POPC   C3A27581  31.365   9.525   8.124
 1838POPC   C4A27582  31.179   9.635   7.753
 1838POPC   C1B27583  31.793  10.209   8.622
 1838POPC   C2B27584  31.862  10.047   8.261
 1838POPC   C3B27585  31.524   9.991   7.963
 1838POPC   C4B27586  31.543   9.907   7.511
 1839POPC   NC327587  36.014  39.294   9.569
 1839POPC   PO427588  36.513  39.086   9.701
 1839POPC   GL127589  36.477  39.253   9.246
 1839POPC   GL227590  36.168  39.101   9.097
 1839POPC   C1A27591  36.453  39.384   8.762
 1839POPC   D2A27592  36.160  39.454   8.377
 1839POPC   C3A27593  36.318  39.489   7.944
 1839POPC   C4A27594  36.170  39.519   7.514
 1839POPC   C1B27595  36.224  38.940   8.655
 1839POPC   C2B27596  36.360  39.016   8.221
 1839POPC   C3B27597  36.271  39.008   7.794
 1839POPC   C4B27598  36.458  38.724   7.475
 1840POPC   NC327599  41.682  40.349   9.470
 1840POPC   PO427600  41.106  40.223   9.684
 1840POPC   GL127601  41.051  40.246   9.184
 1840POPC   GL227602  41.395  40.195   9.073
 1840POPC   C1A27603  41.135  40.442   8.727
 1840POPC   D2A27604  41.346  40.448   8.295
 1840POPC   C3A27605  41.535  40.180   7.962
 1840POPC   C4A27606  41.863  40.259   7.648
 1840POPC   C1B27607  41.636  40.313   8.693
 1840POPC   C2B27608  41.888  40.360   8.291
 1840POPC   C3B27609  42.247  40.213   8.012
 1840POPC   C4B27610  42.320  40.016   7.588
 1841POPC   NC327611  19.928  10.262   9.738
 1841POPC   PO427612  20.102  10.923   9.489
 1841POPC   GL127613  19.929  10.718   9.103
 1841POPC   GL227614  19.953  10.367   9.144
 1841POPC   C1A27615  20.017  10.723   8.627
 1841POPC   D2A27616  20.243  10.735   8.224
 1841POPC   C3A27617  19.986  10.579   7.877
 1841POPC   C4A27618  19.570  10.662   7.707
 1841POPC   C1B27619  19.858  10.249   8.718
 1841POPC   C2B27620  19.792  10.401   8.292
 1841POPC   C3B27621  19.588  10.207   7.934
 1841POPC   C4B27622  19.744  10.215   7.522
 1842POPC   NC327623  31.612  11.364   9.618
 1842POPC   PO427624  31.466  10.710   9.471
 1842POPC   GL127625  31.585  11.039   9.166
 1842POPC   GL227626  31.753  11.404   9.157
 1842POPC   C1A27627  31.411  11.239   8.806
 1842POPC   D2A27628  31.286  11.534   8.486
 1842POPC   C3A27629  31.264  11.372   8.066
 1842POPC   C4A27630  31.497  11.296   7.689
 1842POPC   C1B27631  31.749  11.638   8.801
 1842POPC   C2B27632  31.728  11.784   8.407
 1842POPC   C3B27633  31.643  11.704   8.001
 1842POPC   C4B27634  31.855  11.671   7.630
 1843POPC   NC327635   7.421  38.768   9.379
 1843POPC   PO427636   7.036  38.168   9.345
 1843POPC   GL127637   7.182  38.429   9.071
 1843POPC   GL227638   7.557  38.369   9.047
 1843POPC   C1A27639   7.236  38.516   8.679
 1843POPC   D2A27640   7.511  38.363   8.411
 1843POPC   C3A27641   7.350  38.490   8.037
 1843POPC   C4A27642   7.492  38.313   7.696
 1843POPC   C1B27643   7.751  38.682   8.756
 1843POPC   C2B27644   7.966  38.920   8.438
 1843POPC   C3B27645   7.766  39.054   8.079
 1843POPC   C4B27646   7.652  38.794   7.744
 1844POPC   NC327647  36.101  29.252   9.410
 1844POPC   PO427648  35.911  28.609   9.471
 1844POPC   GL127649  36.040  28.843   9.114
 1844POPC   GL227650  36.360  28.762   8.978
 1844POPC   C1A27651  35.854  29.111   8.791
 1844POPC   D2A27652  35.804  28.990   8.366
 1844POPC   C3A27653  35.834  29.270   8.024
 1844POPC   C4A27654  35.815  28.947   7.763
 1844POPC   C1B27655  36.387  29.191   8.804
 1844POPC   C2B27656  36.225  29.310   8.412
 1844POPC   C3B27657  36.265  28.985   8.076
 1844POPC   C4B27658  36.377  29.024   7.644
 1845POPC   NC327659   5.769  20.320   9.571
 1845POPC   PO427660   5.490  20.892   9.571
 1845POPC   GL127661   5.634  20.660   9.199
 1845POPC   GL227662   6.014  20.566   9.207
 1845POPC   C1A27663   5.757  20.683   8.767
 1845POPC   D2A27664   5.880  20.950   8.422
 1845POPC   C3A27665   5.835  20.750   8.041
 1845POPC   C4A27666   5.532  20.504   7.840
 1845POPC   C1B27667   6.212  20.430   8.842
 1845POPC   C2B27668   6.072  20.471   8.418
 1845POPC   C3B27669   5.833  20.194   8.145
 1845POPC   C4B27670   5.722  20.041   7.716
 1846POPC   NC327671   5.383   1.744   9.484
 1846POPC   PO427672   5.257   2.396   9.682
 1846POPC   GL127673   5.055   2.186   9.295
 1846POPC   GL227674   5.054   1.867   9.134
 1846POPC   C1A27675   4.965   2.212   8.801
 1846POPC   D2A27676   4.730   2.233   8.398
 1846POPC   C3A27677   5.006   2.216   8.012
 1846POPC   C4A27678   5.368   2.278   7.731
 1846POPC   C1B27679   5.143   1.648   8.785
 1846POPC   C2B27680   5.128   1.862   8.403
 1846POPC   C3B27681   5.128   1.707   8.005
 1846POPC   C4B27682   4.948   1.456   7.700
 1847POPC   NC327683   2.945  41.778   9.713
 1847POPC   PO427684   2.366  41.535   9.754
 1847POPC   GL127685   2.745  41.461   9.358
 1847POPC   GL227686   2.907  41.775   9.197
 1847POPC   C1A27687   2.696  41.428   8.865
 1847POPC   D2A27688   2.824  41.177   8.486
 1847POPC   C3A27689   2.604  41.173   8.095
 1847POPC   C4A27690   2.518  41.421   7.719
 1847POPC   C1B27691   3.132  41.676   8.817
 1847POPC   C2B27692   2.998  41.685   8.406
 1847POPC   C3B27693   2.891  41.584   8.022
 1847POPC   C4B27694   3.020  41.732   7.597
 1848POPC   NC327695  13.400   1.900   9.510
 1848POPC   PO427696  14.088   1.696   9.440
 1848POPC   GL127697  13.803   1.840   9.096
 1848POPC   GL227698  13.458   1.713   9.038
 1848POPC   C1A27699  13.668   2.128   8.756
 1848POPC   D2A27700  13.490   2.125   8.305
 1848POPC   C3A27701  13.666   2.282   7.894
 1848POPC   C4A27702  14.061   2.244   7.715
 1848POPC   C1B27703  13.255   1.791   8.654
 1848POPC   C2B27704  13.350   1.633   8.233
 1848POPC   C3B27705  13.416   1.829   7.859
 1848POPC   C4B27706  13.631   1.567   7.624
 1849POPC   NC327707  24.987   2.334   9.283
 1849POPC   PO427708  25.390   2.865   9.530
 1849POPC   GL127709  25.315   2.734   9.125
 1849POPC   GL227710  25.451   2.399   9.071
 1849POPC   C1A27711  25.503   2.992   8.801
 1849POPC   D2A27712  25.351   3.228   8.493
 1849POPC   C3A27713  25.313   3.006   8.116
 1849POPC   C4A27714  25.370   2.774   7.726
 1849POPC   C1B27715  25.304   2.540   8.636
 1849POPC   C2B27716  25.271   2.497   8.177
 1849POPC   C3B27717  25.103   2.339   7.784
 1849POPC   C4B27718  25.024   2.386   7.334
 1850POPC   NC327719   9.131  42.462   9.527
 1850POPC   PO427720   9.119  41.789   9.664
 1850POPC   GL127721   9.006  42.033   9.244
 1850POPC   GL227722   8.971  42.393   9.054
 1850POPC   C1A27723   8.910  41.987   8.783
 1850POPC   D2A27724   9.023  41.935   8.314
 1850POPC   C3A27725   8.974  42.270   7.975
 1850POPC   C4A27726   8.849  42.307   7.519
 1850POPC   C1B27727   9.152  42.400   8.642
 1850POPC   C2B27728   9.143  42.656   8.317
 1850POPC   C3B27729   9.267  42.697   7.926
 1850POPC   C4B27730   9.295  42.546   7.520
 1851POPC   NC327731  13.804  22.343   9.442
 1851POPC   PO427732  13.422  21.749   9.490
 1851POPC   GL127733  13.460  22.028   9.155
 1851POPC   GL227734  13.303  22.341   9.214
 1851POPC   C1A27735  13.626  22.072   8.762
 1851POPC   D2A27736  13.706  22.229   8.367
 1851POPC   C3A27737  13.463  22.107   8.079
 1851POPC   C4A27738  13.530  22.156   7.685
 1851POPC   C1B27739  13.156  22.368   8.775
 1851POPC   C2B27740  13.278  22.568   8.359
 1851POPC   C3B27741  13.500  22.604   7.975
 1851POPC   C4B27742  13.356  22.600   7.549
 1852POPC   NC327743   5.982   6.463   9.611
 1852POPC   PO427744   6.260   6.967   9.750
 1852POPC   GL127745   6.029   6.801   9.247
 1852POPC   GL227746   6.210   6.823   8.894
 1852POPC   C1A27747   5.765   6.607   8.821
 1852POPC   D2A27748   6.028   6.418   8.447
 1852POPC   C3A27749   5.913   6.455   7.984
 1852POPC   C4A27750   5.968   6.419   7.504
 1852POPC   C1B27751   5.912   7.026   8.603
 1852POPC   C2B27752   5.777   6.919   8.177
 1852POPC   C3B27753   5.778   6.876   7.728
 1852POPC   C4B27754   5.695   6.833   7.284
 1853POPC   NC327755  32.453  37.385   9.574
 1853POPC   PO427756  32.539  36.816   9.545
 1853POPC   GL127757  32.318  36.839   9.152
 1853POPC   GL227758  32.112  36.558   9.080
 1853POPC   C1A27759  32.191  36.923   8.704
 1853POPC   D2A27760  32.268  37.046   8.262
 1853POPC   C3A27761  32.106  36.761   7.940
 1853POPC   C4A27762  32.222  36.567   7.560
 1853POPC   C1B27763  32.475  36.510   8.784
 1853POPC   C2B27764  32.336  36.540   8.352
 1853POPC   C3B27765  32.551  36.485   7.942
 1853POPC   C4B27766  32.709  36.371   7.514
 1854POPC   NC327767   7.222  37.799   9.529
 1854POPC   PO427768   7.689  37.412   9.307
 1854POPC   GL127769   7.531  37.744   9.100
 1854POPC   GL227770   7.150  37.766   9.023
 1854POPC   C1A27771   7.559  37.954   8.737
 1854POPC   D2A27772   7.263  37.897   8.450
 1854POPC   C3A27773   7.447  37.967   8.073
 1854POPC   C4A27774   7.419  37.829   7.659
 1854POPC   C1B27775   7.262  37.450   8.745
 1854POPC   C2B27776   7.143  37.351   8.342
 1854POPC   C3B27777   7.123  37.553   7.964
 1854POPC   C4B27778   7.356  37.323   7.650
 1855POPC   NC327779  15.177  27.917   9.501
 1855POPC   PO427780  14.785  27.369   9.479
 1855POPC   GL127781  14.961  27.564   9.135
 1855POPC   GL227782  15.350  27.627   9.123
 1855POPC   C1A27783  15.093  27.365   8.758
 1855POPC   D2A27784  14.954  27.548   8.372
 1855POPC   C3A27785  15.123  27.390   7.982
 1855POPC   C4A27786  14.921  27.400   7.588
 1855POPC   C1B27787  15.207  27.850   8.751
 1855POPC   C2B27788  15.360  28.023   8.379
 1855POPC   C3B27789  15.211  27.937   7.982
 1855POPC   C4B27790  15.296  27.728   7.605
 1856POPC   NC327791   6.990  41.204   9.145
 1856POPC   PO427792   6.436  41.455   9.435
 1856POPC   GL127793   6.682  41.693   9.160
 1856POPC   GL227794   6.554  41.451   8.915
 1856POPC   C1A27795   6.918  41.777   8.773
 1856POPC   D2A27796   6.824  41.510   8.409
 1856POPC   C3A27797   6.737  41.656   7.973
 1856POPC   C4A27798   6.900  41.487   7.568
 1856POPC   C1B27799   6.412  41.124   8.623
 1856POPC   C2B27800   6.550  41.135   8.231
 1856POPC   C3B27801   6.581  41.195   7.839
 1856POPC   C4B27802   6.558  41.124   7.389
 1857POPC   NC327803   3.239  43.982   9.487
 1857POPC   PO427804   3.829  43.613   9.520
 1857POPC   GL127805   3.915  43.701   9.114
 1857POPC   GL227806   3.642  43.933   9.150
 1857POPC   C1A27807   3.947  43.684   8.648
 1857POPC   D2A27808   3.824  44.012   8.359
 1857POPC   C3A27809   3.809  43.959   7.956
 1857POPC   C4A27810   3.660  43.580   7.859
 1857POPC   C1B27811   3.491  43.989   8.749
 1857POPC   C2B27812   3.273  44.057   8.376
 1857POPC   C3B27813   3.309  43.986   7.959
 1857POPC   C4B27814   3.379  44.096   7.540
 1858POPC   NC327815  34.879   0.052   9.507
 1858POPC   PO427816  34.283  44.705   9.439
 1858POPC   GL127817  34.659  44.764   9.144
 1858POPC   GL227818  34.799  44.412   9.149
 1858POPC   C1A27819  34.738  44.967   8.701
 1858POPC   D2A27820  34.614  44.798   8.261
 1858POPC   C3A27821  34.699  44.813   7.801
 1858POPC   C4A27822  34.869  44.504   7.524
 1858POPC   C1B27823  34.592  44.477   8.734
 1858POPC   C2B27824  34.358  44.367   8.363
 1858POPC   C3B27825  34.367  44.432   7.915
 1858POPC   C4B27826  34.105  44.182   7.637
 1859POPC   NC327827   2.832  22.847   9.525
 1859POPC   PO427828   2.318  23.312   9.497
 1859POPC   GL127829   2.414  22.934   9.233
 1859POPC   GL227830   2.706  23.060   9.082
 1859POPC   C1A27831   2.514  22.670   8.826
 1859POPC   D2A27832   2.746  22.813   8.452
 1859POPC   C3A27833   2.656  22.978   8.038
 1859POPC   C4A27834   2.495  22.645   7.842
 1859POPC   C1B27835   2.903  23.231   8.733
 1859POPC   C2B27836   2.977  23.347   8.314
 1859POPC   C3B27837   2.912  23.414   7.874
 1859POPC   C4B27838   2.467  23.425   7.753
 1860POPC   NC327839  10.512  10.180   9.485
 1860POPC   PO427840  10.711   9.544   9.500
 1860POPC   GL127841  10.665   9.818   9.147
 1860POPC   GL227842  10.928  10.092   9.229
 1860POPC   C1A27843  10.517   9.765   8.706
 1860POPC   D2A27844  10.458   9.466   8.365
 1860POPC   C3A27845  10.659   9.598   7.996
 1860POPC   C4A27846  10.557  10.005   7.817
 1860POPC   C1B27847  10.962  10.054   8.810
 1860POPC   C2B27848  10.984   9.760   8.456
 1860POPC   C3B27849  11.028   9.936   8.049
 1860POPC   C4B27850  11.039   9.810   7.637
 1861POPC   NC327851  39.196  10.546   9.795
 1861POPC   PO427852  39.470  10.576   9.233
 1861POPC   GL127853  39.012  10.479   9.253
 1861POPC   GL227854  38.864  10.177   9.167
 1861POPC   C1A27855  38.819  10.539   8.806
 1861POPC   D2A27856  39.066  10.492   8.409
 1861POPC   C3A27857  39.233  10.808   8.120
 1861POPC   C4A27858  39.343  10.664   7.734
 1861POPC   C1B27859  39.142  10.123   8.760
 1861POPC   C2B27860  39.290  10.023   8.336
 1861POPC   C3B27861  39.151  10.229   7.984
 1861POPC   C4B27862  39.060  10.295   7.550
 1862POPC   NC327863  31.552  35.919   9.420
 1862POPC   PO427864  31.117  36.423   9.480
 1862POPC   GL127865  31.384  36.345   9.112
 1862POPC   GL227866  31.725  36.213   9.051
 1862POPC   C1A27867  31.344  36.209   8.685
 1862POPC   D2A27868  31.323  36.363   8.271
 1862POPC   C3A27869  31.527  36.199   7.904
 1862POPC   C4A27870  31.738  36.387   7.554
 1862POPC   C1B27871  31.707  35.876   8.733
 1862POPC   C2B27872  31.517  35.835   8.323
 1862POPC   C3B27873  31.803  35.781   8.004
 1862POPC   C4B27874  31.851  35.888   7.570
 1863POPC   NC327875  20.193  33.520   9.448
 1863POPC   PO427876  20.740  33.992   9.588
 1863POPC   GL127877  20.475  33.916   9.257
 1863POPC   GL227878  20.629  33.601   9.211
 1863POPC   C1A27879  20.304  33.871   8.857
 1863POPC   D2A27880  20.475  34.004   8.484
 1863POPC   C3A27881  20.287  34.003   8.108
 1863POPC   C4A27882  20.326  34.203   7.746
 1863POPC   C1B27883  20.484  33.396   8.839
 1863POPC   C2B27884  20.620  33.505   8.447
 1863POPC   C3B27885  20.775  33.797   8.133
 1863POPC   C4B27886  20.553  33.736   7.734
 1864POPC   NC327887  36.884  13.883   9.505
 1864POPC   PO427888  36.963  13.196   9.410
 1864POPC   GL127889  36.988  13.510   9.100
 1864POPC   GL227890  36.667  13.704   9.078
 1864POPC   C1A27891  36.905  13.481   8.660
 1864POPC   D2A27892  36.664  13.526   8.302
 1864POPC   C3A27893  36.680  13.232   7.981
 1864POPC   C4A27894  37.074  13.281   7.790
 1864POPC   C1B27895  36.668  13.925   8.670
 1864POPC   C2B27896  36.986  13.923   8.338
 1864POPC   C3B27897  36.973  13.811   7.905
 1864POPC   C4B27898  36.991  13.960   7.484
 1865POPC   NC327899   6.905  10.773  10.021
 1865POPC   PO427900   6.389  10.352   9.759
 1865POPC   GL127901   6.512  10.267   9.306
 1865POPC   GL227902   6.577  10.619   9.287
 1865POPC   C1A27903   6.600  10.109   8.856
 1865POPC   D2A27904   6.514  10.310   8.434
 1865POPC   C3A27905   6.859  10.397   8.137
 1865POPC   C4A27906   6.645  10.329   7.764
 1865POPC   C1B27907   6.526  10.645   8.849
 1865POPC   C2B27908   6.669  10.808   8.457
 1865POPC   C3B27909   6.494  10.736   8.063
 1865POPC   C4B27910   6.638  10.820   7.679
 1866POPC   NC327911  31.232  20.754   9.905
 1866POPC   PO427912  31.750  20.528   9.655
 1866POPC   GL127913  31.592  20.389   9.269
 1866POPC   GL227914  31.240  20.404   9.184
 1866POPC   C1A27915  31.599  20.358   8.824
 1866POPC   D2A27916  31.545  20.596   8.450
 1866POPC   C3A27917  31.670  20.440   8.042
 1866POPC   C4A27918  31.921  20.709   7.771
 1866POPC   C1B27919  31.110  20.578   8.763
 1866POPC   C2B27920  31.067  20.757   8.328
 1866POPC   C3B27921  31.250  20.706   7.914
 1866POPC   C4B27922  31.400  20.451   7.575
 1867POPC   NC327923  10.447  29.050   9.569
 1867POPC   PO427924  11.097  28.977   9.378
 1867POPC   GL127925  10.756  28.878   9.201
 1867POPC   GL227926  10.686  29.195   9.143
 1867POPC   C1A27927  10.615  28.827   8.816
 1867POPC   D2A27928  10.378  28.991   8.512
 1867POPC   C3A27929  10.480  28.992   8.090
 1867POPC   C4A27930  10.299  29.042   7.702
 1867POPC   C1B27931  10.358  29.333   8.888
 1867POPC   C2B27932  10.372  29.499   8.462
 1867POPC   C3B27933  10.300  29.465   8.009
 1867POPC   C4B27934  10.045  29.754   7.766
 1868POPC   NC327935  24.848  32.864   9.503
 1868POPC   PO427936  24.946  33.455   9.468
 1868POPC   GL127937  24.607  33.225   9.236
 1868POPC   GL227938  24.795  33.060   9.030
 1868POPC   C1A27939  24.355  33.238   8.826
 1868POPC   D2A27940  24.149  32.978   8.504
 1868POPC   C3A27941  24.377  32.956   8.130
 1868POPC   C4A27942  24.327  33.028   7.698
 1868POPC   C1B27943  24.803  32.689   8.797
 1868POPC   C2B27944  24.721  32.548   8.395
 1868POPC   C3B27945  24.801  32.688   7.986
 1868POPC   C4B27946  25.003  32.609   7.610
 1869POPC   NC327947  11.458  11.782   9.560
 1869POPC   PO427948  10.936  12.193   9.621
 1869POPC   GL127949  11.178  12.059   9.218
 1869POPC   GL227950  10.969  11.895   9.003
 1869POPC   C1A27951  11.437  12.046   8.786
 1869POPC   D2A27952  11.471  12.311   8.387
 1869POPC   C3A27953  11.645  12.160   7.977
 1869POPC   C4A27954  11.432  12.076   7.574
 1869POPC   C1B27955  10.979  12.134   8.608
 1869POPC   C2B27956  11.187  11.897   8.276
 1869POPC   C3B27957  11.170  11.742   7.863
 1869POPC   C4B27958  10.923  11.984   7.556
 1870POPC   NC327959   2.747  28.535   9.499
 1870POPC   PO427960   2.329  29.009   9.510
 1870POPC   GL127961   2.482  28.762   9.120
 1870POPC   GL227962   2.843  28.835   9.091
 1870POPC   C1A27963   2.541  28.432   8.750
 1870POPC   D2A27964   2.591  28.115   8.360
 1870POPC   C3A27965   2.526  28.199   7.890
 1870POPC   C4A27966   2.518  27.995   7.464
 1870POPC   C1B27967   2.997  28.662   8.699
 1870POPC   C2B27968   2.874  28.533   8.262
 1870POPC   C3B27969   3.031  28.238   7.942
 1870POPC   C4B27970   2.967  27.861   7.696
 1871POPC   NC327971  25.564  25.961   9.597
 1871POPC   PO427972  26.229  26.006   9.527
 1871POPC   GL127973  26.073  26.055   9.146
 1871POPC   GL227974  25.821  25.832   9.183
 1871POPC   C1A27975  26.152  26.137   8.737
 1871POPC   D2A27976  25.990  26.146   8.337
 1871POPC   C3A27977  26.145  26.022   7.976
 1871POPC   C4A27978  26.039  26.286   7.614
 1871POPC   C1B27979  25.648  25.680   8.850
 1871POPC   C2B27980  25.728  25.745   8.469
 1871POPC   C3B27981  25.655  25.807   8.079
 1871POPC   C4B27982  25.546  25.544   7.736
 1872POPC   NC327983   3.481  44.836   9.330
 1872POPC   PO427984   3.570   0.379   9.764
 1872POPC   GL127985   3.698   0.437   9.312
 1872POPC   GL227986   3.404   0.343   9.221
 1872POPC   C1A27987   3.881   0.455   8.831
 1872POPC   D2A27988   4.095   0.427   8.379
 1872POPC   C3A27989   3.866   0.553   8.002
 1872POPC   C4A27990   3.458   0.615   7.789
 1872POPC   C1B27991   3.396   0.233   8.808
 1872POPC   C2B27992   3.600   0.291   8.433
 1872POPC   C3B27993   3.377   0.234   8.087
 1872POPC   C4B27994   3.020   0.255   7.785
 1873POPC   NC327995   0.261  19.576   9.451
 1873POPC   PO427996   0.906  19.680   9.625
 1873POPC   GL127997   0.650  19.790   9.179
 1873POPC   GL227998   0.307  19.838   9.017
 1873POPC   C1A27999   0.659  19.669   8.717
 1873POPC   D2A28000   0.591  19.908   8.395
 1873POPC   C3A28001   0.553  19.771   7.983
 1873POPC   C4A28002   0.230  19.840   7.735
 1873POPC   C1B28003   0.120  19.897   8.618
 1873POPC   C2B28004   0.186  20.204   8.326
 1873POPC   C3B28005   0.057  20.340   7.939
 1873POPC   C4B28006   0.274  20.324   7.591
 1874POPC   NC328007  35.145   4.556   9.445
 1874POPC   PO428008  35.782   4.685   9.623
 1874POPC   GL128009  35.585   4.407   9.224
 1874POPC   GL228010  35.301   4.150   9.168
 1874POPC   C1A28011  35.357   4.500   8.795
 1874POPC   D2A28012  35.274   4.703   8.385
 1874POPC   C3A28013  35.565   4.728   8.052
 1874POPC   C4A28014  35.613   4.469   7.718
 1874POPC   C1B28015  35.015   4.071   8.800
 1874POPC   C2B28016  35.156   4.196   8.393
 1874POPC   C3B28017  35.218   4.304   7.987
 1874POPC   C4B28018  35.208   3.989   7.666
 1875POPC   NC328019   4.625   7.755   9.632
 1875POPC   PO428020   4.070   7.374   9.509
 1875POPC   GL128021   4.320   7.431   9.126
 1875POPC   GL228022   4.568   7.673   9.152
 1875POPC   C1A28023   4.442   7.288   8.705
 1875POPC   D2A28024   4.301   7.399   8.295
 1875POPC   C3A28025   4.097   7.226   7.955
 1875POPC   C4A28026   3.990   7.492   7.654
 1875POPC   C1B28027   4.506   7.802   8.779
 1875POPC   C2B28028   4.717   7.696   8.436
 1875POPC   C3B28029   4.637   7.764   8.048
 1875POPC   C4B28030   4.474   7.516   7.778
 1876POPC   NC328031   5.587   2.520   9.383
 1876POPC   PO428032   6.170   2.803   9.696
 1876POPC   GL128033   6.002   2.951   9.261
 1876POPC   GL228034   5.660   2.961   9.095
 1876POPC   C1A28035   6.054   2.993   8.797
 1876POPC   D2A28036   6.041   2.727   8.437
 1876POPC   C3A28037   6.180   2.948   8.094
 1876POPC   C4A28038   6.211   2.982   7.674
 1876POPC   C1B28039   5.609   2.677   8.734
 1876POPC   C2B28040   5.452   2.363   8.423
 1876POPC   C3B28041   5.725   2.326   8.073
 1876POPC   C4B28042   5.828   2.635   7.786
 1877POPC   NC328043  34.306  32.284   9.591
 1877POPC   PO428044  34.942  32.291   9.840
 1877POPC   GL128045  34.793  32.253   9.361
 1877POPC   GL228046  34.903  32.566   9.185
 1877POPC   C1A28047  34.539  32.350   8.932
 1877POPC   D2A28048  34.363  32.474   8.540
 1877POPC   C3A28049  34.481  32.155   8.262
 1877POPC   C4A28050  34.574  32.038   7.837
 1877POPC   C1B28051  34.808  32.725   8.746
 1877POPC   C2B28052  34.810  32.562   8.325
 1877POPC   C3B28053  34.554  32.569   7.966
 1877POPC   C4B28054  34.681  32.596   7.545
 1878POPC   NC328055  11.748   5.684   9.655
 1878POPC   PO428056  11.322   6.220   9.459
 1878POPC   GL128057  11.302   5.965   9.070
 1878POPC   GL228058  11.361   5.662   9.186
 1878POPC   C1A28059  11.270   5.781   8.634
 1878POPC   D2A28060  11.419   5.975   8.246
 1878POPC   C3A28061  11.297   5.854   7.832
 1878POPC   C4A28062  11.164   5.601   7.465
 1878POPC   C1B28063  11.691   5.578   8.869
 1878POPC   C2B28064  11.836   5.705   8.450
 1878POPC   C3B28065  11.731   5.595   8.044
 1878POPC   C4B28066  11.720   5.705   7.626
 1879POPC   NC328067  17.541  27.759   9.673
 1879POPC   PO428068  17.001  27.534   9.385
 1879POPC   GL128069  17.368  27.691   9.183
 1879POPC   GL228070  17.708  27.566   9.188
 1879POPC   C1A28071  17.418  27.620   8.745
 1879POPC   D2A28072  17.257  27.563   8.331
 1879POPC   C3A28073  17.448  27.824   8.026
 1879POPC   C4A28074  17.427  27.769   7.566
 1879POPC   C1B28075  17.901  27.436   8.775
 1879POPC   C2B28076  17.758  27.485   8.333
 1879POPC   C3B28077  17.567  27.357   7.895
 1879POPC   C4B28078  17.777  27.259   7.485
 1880POPC   NC328079  33.313  15.094   9.508
 1880POPC   PO428080  32.875  15.589   9.342
 1880POPC   GL128081  32.965  15.188   9.145
 1880POPC   GL228082  33.309  15.309   9.036
 1880POPC   C1A28083  33.116  14.900   8.811
 1880POPC   D2A28084  33.361  15.067   8.460
 1880POPC   C3A28085  33.128  15.158   8.096
 1880POPC   C4A28086  32.751  14.951   7.960
 1880POPC   C1B28087  33.012  15.409   8.667
 1880POPC   C2B28088  32.889  15.587   8.260
 1880POPC   C3B28089  32.763  15.454   7.827
 1880POPC   C4B28090  32.589  15.489   7.375
 1881POPC   NC328091  38.343  30.246   9.509
 1881POPC   PO428092  38.860  29.870   9.350
 1881POPC   GL128093  38.529  29.719   9.101
 1881POPC   GL228094  38.380  30.039   9.050
 1881POPC   C1A28095  38.354  29.745   8.659
 1881POPC   D2A28096  38.230  30.024   8.341
 1881POPC   C3A28097  38.302  29.778   8.000
 1881POPC   C4A28098  38.404  29.854   7.595
 1881POPC   C1B28099  38.649  30.234   8.727
 1881POPC   C2B28100  38.595  30.411   8.327
 1881POPC   C3B28101  38.466  30.273   7.906
 1881POPC   C4B28102  38.623  30.291   7.459
 1882POPC   NC328103   7.809   3.014   9.556
 1882POPC   PO428104   8.464   2.913   9.440
 1882POPC   GL128105   8.084   2.895   9.126
 1882POPC   GL228106   8.136   3.067   8.845
 1882POPC   C1A28107   7.920   2.612   8.749
 1882POPC   D2A28108   8.081   2.555   8.305
 1882POPC   C3A28109   8.107   2.878   7.973
 1882POPC   C4A28110   7.875   3.050   7.637
 1882POPC   C1B28111   8.413   2.729   8.706
 1882POPC   C2B28112   8.704   2.848   8.427
 1882POPC   C3B28113   8.629   3.031   8.061
 1882POPC   C4B28114   8.586   2.812   7.680
 1883POPC   NC328115  10.866  27.727   9.519
 1883POPC   PO428116  11.502  27.446   9.640
 1883POPC   GL128117  11.728  27.387   9.222
 1883POPC   GL228118  11.381  27.451   9.117
 1883POPC   C1A28119  11.635  27.213   8.760
 1883POPC   D2A28120  11.394  27.334   8.354
 1883POPC   C3A28121  11.436  27.183   7.954
 1883POPC   C4A28122  11.551  27.391   7.581
 1883POPC   C1B28123  11.341  27.659   8.737
 1883POPC   C2B28124  11.345  27.868   8.315
 1883POPC   C3B28125  11.479  27.827   7.871
 1883POPC   C4B28126  11.183  27.731   7.522
 1884POPC   NC328127  27.673  14.885   9.573
 1884POPC   PO428128  27.432  15.396   9.709
 1884POPC   GL128129  27.663  15.281   9.273
 1884POPC   GL228130  27.438  15.033   9.130
 1884POPC   C1A28131  27.815  15.149   8.822
 1884POPC   D2A28132  27.621  15.216   8.444
 1884POPC   C3A28133  27.594  14.965   8.103
 1884POPC   C4A28134  27.866  15.114   7.807
 1884POPC   C1B28135  27.211  15.171   8.738
 1884POPC   C2B28136  27.193  15.435   8.327
 1884POPC   C3B28137  27.457  15.433   7.941
 1884POPC   C4B28138  27.400  15.105   7.617
 1885POPC   NC328139  32.464  27.567   9.446
 1885POPC   PO428140  32.064  28.066   9.732
 1885POPC   GL128141  32.083  27.828   9.282
 1885POPC   GL228142  32.442  27.973   9.140
 1885POPC   C1A28143  32.161  27.698   8.813
 1885POPC   D2A28144  32.272  27.720   8.359
 1885POPC   C3A28145  32.024  27.544   7.999
 1885POPC   C4A28146  31.764  27.479   7.609
 1885POPC   C1B28147  32.602  28.003   8.685
 1885POPC   C2B28148  32.733  27.878   8.232
 1885POPC   C3B28149  32.424  27.871   7.877
 1885POPC   C4B28150  32.516  27.867   7.432
 1886POPC   NC328151  43.253   2.715   9.477
 1886POPC   PO428152  42.642   2.587   9.635
 1886POPC   GL128153  42.829   2.698   9.192
 1886POPC   GL228154  43.010   2.997   9.156
 1886POPC   C1A28155  43.064   2.627   8.789
 1886POPC   D2A28156  42.931   2.689   8.356
 1886POPC   C3A28157  43.144   2.736   7.960
 1886POPC   C4A28158  43.040   2.657   7.505
 1886POPC   C1B28159  42.997   3.128   8.734
 1886POPC   C2B28160  43.183   3.166   8.333
 1886POPC   C3B28161  43.319   3.208   7.904
 1886POPC   C4B28162  43.460   2.914   7.556
 1887POPC   NC328163  41.002  14.369   9.662
 1887POPC   PO428164  41.667  14.217   9.345
 1887POPC   GL128165  41.562  14.551   9.038
 1887POPC   GL228166  41.199  14.653   8.999
 1887POPC   C1A28167  41.456  14.460   8.620
 1887POPC   D2A28168  41.318  14.263   8.291
 1887POPC   C3A28169  41.519  14.401   7.937
 1887POPC   C4A28170  41.723  14.066   7.744
 1887POPC   C1B28171  41.019  14.736   8.624
 1887POPC   C2B28172  41.222  14.765   8.247
 1887POPC   C3B28173  41.107  14.686   7.844
 1887POPC   C4B28174  41.330  14.770   7.497
 1888POPC   NC328175  16.415  22.058   9.216
 1888POPC   PO428176  15.976  22.281   9.628
 1888POPC   GL128177  15.932  22.250   9.171
 1888POPC   GL228178  15.856  21.893   9.126
 1888POPC   C1A28179  16.133  22.348   8.729
 1888POPC   D2A28180  15.967  22.230   8.320
 1888POPC   C3A28181  15.962  22.402   7.918
 1888POPC   C4A28182  16.294  22.384   7.614
 1888POPC   C1B28183  15.963  21.855   8.689
 1888POPC   C2B28184  16.019  21.724   8.266
 1888POPC   C3B28185  15.783  21.795   7.928
 1888POPC   C4B28186  15.949  21.976   7.594
 1889POPC   NC328187   8.774  12.881   9.472
 1889POPC   PO428188   9.418  12.623   9.408
 1889POPC   GL128189   9.065  12.805   9.080
 1889POPC   GL228190   8.796  13.126   9.041
 1889POPC   C1A28191   8.692  12.708   8.795
 1889POPC   D2A28192   8.821  12.942   8.440
 1889POPC   C3A28193   8.763  12.782   8.015
 1889POPC   C4A28194   8.994  12.775   7.668
 1889POPC   C1B28195   9.159  13.237   8.816
 1889POPC   C2B28196   9.300  13.229   8.428
 1889POPC   C3B28197   9.118  13.153   8.043
 1889POPC   C4B28198   9.269  13.213   7.673
 1890POPC   NC328199  38.897  35.717   9.445
 1890POPC   PO428200  39.292  35.163   9.532
 1890POPC   GL128201  39.236  35.388   9.187
 1890POPC   GL228202  38.885  35.273   9.180
 1890POPC   C1A28203  39.371  35.309   8.763
 1890POPC   D2A28204  39.132  35.267   8.405
 1890POPC   C3A28205  39.339  35.214   8.036
 1890POPC   C4A28206  39.324  34.971   7.671
 1890POPC   C1B28207  38.945  35.572   8.815
 1890POPC   C2B28208  39.046  35.768   8.435
 1890POPC   C3B28209  39.009  35.605   8.033
 1890POPC   C4B28210  39.092  35.439   7.638
 1891POPC   NC328211  39.937   3.487   9.518
 1891POPC   PO428212  39.761   4.011   9.097
 1891POPC   GL128213  39.811   3.511   9.026
 1891POPC   GL228214  40.169   3.324   9.098
 1891POPC   C1A28215  39.749   3.230   8.635
 1891POPC   D2A28216  39.648   3.330   8.202
 1891POPC   C3A28217  39.822   3.562   7.875
 1891POPC   C4A28218  40.053   3.932   7.848
 1891POPC   C1B28219  40.172   3.519   8.683
 1891POPC   C2B28220  40.270   3.803   8.364
 1891POPC   C3B28221  40.362   3.566   8.012
 1891POPC   C4B28222  40.237   3.244   7.789
 1892POPC   NC328223   9.824   0.181   9.739
 1892POPC   PO428224   9.566  44.608   9.431
 1892POPC   GL128225   9.698  44.501   9.042
 1892POPC   GL228226  10.047  44.475   9.105
 1892POPC   C1A28227   9.818  44.655   8.638
 1892POPC   D2A28228   9.622  44.736   8.293
 1892POPC   C3A28229   9.855  44.762   7.973
 1892POPC   C4A28230   9.512  44.729   7.679
 1892POPC   C1B28231  10.203  44.335   8.718
 1892POPC   C2B28232  10.288  44.495   8.280
 1892POPC   C3B28233  10.224  44.388   7.824
 1892POPC   C4B28234   9.959  44.552   7.474
 1893POPC   NC328235  34.658   8.646   9.345
 1893POPC   PO428236  34.529   8.027   9.481
 1893POPC   GL128237  34.537   8.208   9.099
 1893POPC   GL228238  34.381   8.534   8.937
 1893POPC   C1A28239  34.344   8.025   8.745
 1893POPC   D2A28240  34.549   8.028   8.384
 1893POPC   C3A28241  34.363   8.040   8.003
 1893POPC   C4A28242  34.511   7.822   7.632
 1893POPC   C1B28243  34.737   8.400   8.686
 1893POPC   C2B28244  35.052   8.254   8.416
 1893POPC   C3B28245  34.867   8.233   8.027
 1893POPC   C4B28246  34.747   8.290   7.595
 1894POPC   NC328247   2.415   2.684   9.505
 1894POPC   PO428248   1.882   2.381   9.501
 1894POPC   GL128249   2.163   2.437   9.153
 1894POPC   GL228250   2.161   2.791   9.044
 1894POPC   C1A28251   2.248   2.340   8.765
 1894POPC   D2A28252   2.042   2.471   8.438
 1894POPC   C3A28253   2.239   2.646   8.123
 1894POPC   C4A28254   2.028   2.776   7.759
 1894POPC   C1B28255   2.057   2.967   8.603
 1894POPC   C2B28256   2.023   3.107   8.161
 1894POPC   C3B28257   1.688   3.143   7.821
 1894POPC   C4B28258   1.326   3.172   7.522
 1895POPC   NC328259   4.298  17.856   9.627
 1895POPC   PO428260   4.400  18.595   9.543
 1895POPC   GL128261   4.385  18.350   9.190
 1895POPC   GL228262   4.638  18.107   9.270
 1895POPC   C1A28263   4.217  18.439   8.774
 1895POPC   D2A28264   4.345  18.339   8.364
 1895POPC   C3A28265   4.115  18.346   7.999
 1895POPC   C4A28266   4.207  18.008   7.724
 1895POPC   C1B28267   4.798  17.956   8.879
 1895POPC   C2B28268   4.787  18.089   8.458
 1895POPC   C3B28269   4.595  17.936   8.093
 1895POPC   C4B28270   4.763  17.987   7.692
 1896POPC   NC328271   0.333  23.469   9.518
 1896POPC   PO428272   0.488  22.776   9.531
 1896POPC   GL128273   0.662  22.981   9.168
 1896POPC   GL228274   0.439  23.276   9.045
 1896POPC   C1A28275   0.556  22.893   8.751
 1896POPC   D2A28276   0.361  22.854   8.393
 1896POPC   C3A28277   0.684  22.929   8.127
 1896POPC   C4A28278   0.592  22.804   7.749
 1896POPC   C1B28279   0.084  23.114   8.766
 1896POPC   C2B28280  44.986  23.184   8.308
 1896POPC   C3B28281   0.154  22.982   7.906
 1896POPC   C4B28282   0.255  23.082   7.448
 1897POPC   NC328283  27.176   6.118   9.443
 1897POPC   PO428284  26.669   6.623   9.499
 1897POPC   GL128285  26.983   6.551   9.202
 1897POPC   GL228286  27.017   6.892   9.157
 1897POPC   C1A28287  26.911   6.296   8.832
 1897POPC   D2A28288  26.699   6.415   8.451
 1897POPC   C3A28289  26.949   6.651   8.166
 1897POPC   C4A28290  26.835   6.559   7.766
 1897POPC   C1B28291  26.759   6.844   8.774
 1897POPC   C2B28292  26.698   7.052   8.375
 1897POPC   C3B28293  26.645   7.024   7.932
 1897POPC   C4B28294  26.617   6.926   7.486
 1898POPC   NC328295  29.800  31.179   9.494
 1898POPC   PO428296  30.182  31.839   9.572
 1898POPC   GL128297  30.023  31.621   9.227
 1898POPC   GL228298  29.680  31.664   9.301
 1898POPC   C1A28299  29.917  31.579   8.786
 1898POPC   D2A28300  29.933  31.845   8.404
 1898POPC   C3A28301  30.029  31.611   8.027
 1898POPC   C4A28302  30.146  31.223   7.847
 1898POPC   C1B28303  29.431  31.552   8.950
 1898POPC   C2B28304  29.453  31.593   8.538
 1898POPC   C3B28305  29.530  31.688   8.125
 1898POPC   C4B28306  29.607  31.551   7.709
 1899POPC   NC328307  38.666  38.168   9.551
 1899POPC   PO428308  38.025  38.390   9.495
 1899POPC   GL128309  38.402  38.434   9.205
 1899POPC   GL228310  38.655  38.671   9.362
 1899POPC   C1A28311  38.445  38.502   8.762
 1899POPC   D2A28312  38.301  38.721   8.393
 1899POPC   C3A28313  38.401  38.461   8.036
 1899POPC   C4A28314  38.504  38.526   7.623
 1899POPC   C1B28315  38.815  38.796   8.965
 1899POPC   C2B28316  38.798  38.856   8.514
 1899POPC   C3B28317  38.685  38.903   8.089
 1899POPC   C4B28318  38.921  38.819   7.742
 1900POPC   NC328319  16.979  34.627   9.583
 1900POPC   PO428320  16.391  34.265   9.482
 1900POPC   GL128321  16.477  34.474   9.065
 1900POPC   GL228322  16.669  34.755   9.118
 1900POPC   C1A28323  16.486  34.676   8.633
 1900POPC   D2A28324  16.699  34.557   8.280
 1900POPC   C3A28325  16.572  34.593   7.844
 1900POPC   C4A28326  16.955  34.546   7.624
 1900POPC   C1B28327  16.980  34.610   8.784
 1900POPC   C2B28328  17.140  34.779   8.374
 1900POPC   C3B28329  16.957  34.942   7.977
 1900POPC   C4B28330  17.149  35.012   7.583
 1901POPC   NC328331  24.222  44.559   9.572
 1901POPC   PO428332  23.868   0.033   9.165
 1901POPC   GL128333  24.258  44.818   9.125
 1901POPC   GL228334  24.361  44.443   9.110
 1901POPC   C1A28335  24.486  44.829   8.766
 1901POPC   D2A28336  24.396  44.919   8.322
 1901POPC   C3A28337  24.697  44.812   8.006
 1901POPC   C4A28338  24.445  44.643   7.760
 1901POPC   C1B28339  24.637  44.348   8.786
 1901POPC   C2B28340  24.540  44.426   8.381
 1901POPC   C3B28341  24.603  44.224   8.022
 1901POPC   C4B28342  24.897  44.349   7.722
 1902POPC   NC328343  23.798  33.287   9.981
 1902POPC   PO428344  23.456  32.802   9.792
 1902POPC   GL128345  23.576  32.848   9.323
 1902POPC   GL228346  23.497  33.162   9.245
 1902POPC   C1A28347  23.742  32.970   8.858
 1902POPC   D2A28348  23.688  33.214   8.457
 1902POPC   C3A28349  23.862  33.054   8.017
 1902POPC   C4A28350  23.877  33.138   7.529
 1902POPC   C1B28351  23.228  33.188   8.881
 1902POPC   C2B28352  23.100  33.204   8.454
 1902POPC   C3B28353  23.373  33.222   8.060
 1902POPC   C4B28354  23.418  33.290   7.626
 1903POPC   NC328355  42.988   8.181   9.545
 1903POPC   PO428356  43.634   8.181   9.576
 1903POPC   GL128357  43.393   8.121   9.183
 1903POPC   GL228358  43.001   8.086   9.056
 1903POPC   C1A28359  43.375   8.336   8.780
 1903POPC   D2A28360  43.161   8.251   8.401
 1903POPC   C3A28361  43.350   8.265   7.989
 1903POPC   C4A28362  43.147   8.265   7.581
 1903POPC   C1B28363  42.812   7.852   8.701
 1903POPC   C2B28364  42.664   8.069   8.340
 1903POPC   C3B28365  42.773   8.138   7.905
 1903POPC   C4B28366  42.850   7.857   7.509
 1904POPC   NC328367  15.444   5.131   9.567
 1904POPC   PO428368  14.810   5.431   9.465
 1904POPC   GL128369  14.935   5.199   9.070
 1904POPC   GL228370  15.264   5.050   9.102
 1904POPC   C1A28371  15.079   5.090   8.634
 1904POPC   D2A28372  15.030   4.715   8.387
 1904POPC   C3A28373  14.839   4.768   8.057
 1904POPC   C4A28374  14.825   5.080   7.810
 1904POPC   C1B28375  15.598   5.039   8.782
 1904POPC   C2B28376  15.632   5.136   8.344
 1904POPC   C3B28377  15.335   4.927   8.021
 1904POPC   C4B28378  15.192   4.822   7.595
 1905POPC   NC328379  31.628  33.414   9.296
 1905POPC   PO428380  31.494  32.759   9.274
 1905POPC   GL128381  31.379  33.059   9.016
 1905POPC   GL228382  31.140  33.244   9.205
 1905POPC   C1A28383  31.496  33.074   8.601
 1905POPC   D2A28384  31.520  32.889   8.202
 1905POPC   C3A28385  31.360  33.178   7.898
 1905POPC   C4A28386  31.154  33.160   7.498
 1905POPC   C1B28387  31.061  33.429   8.789
 1905POPC   C2B28388  31.152  33.363   8.336
 1905POPC   C3B28389  30.941  33.458   7.919
 1905POPC   C4B28390  30.862  33.583   7.472
 1906POPC   NC328391  28.715  34.499   9.514
 1906POPC   PO428392  29.329  34.820   9.445
 1906POPC   GL128393  29.090  34.555   9.163
 1906POPC   GL228394  29.435  34.488   9.025
 1906POPC   C1A28395  29.008  34.260   8.829
 1906POPC   D2A28396  29.197  34.232   8.445
 1906POPC   C3A28397  28.971  34.244   8.099
 1906POPC   C4A28398  29.225  34.260   7.744
 1906POPC   C1B28399  29.224  34.809   8.752
 1906POPC   C2B28400  29.092  34.996   8.375
 1906POPC   C3B28401  29.193  34.692   8.078
 1906POPC   C4B28402  29.363  34.740   7.674
 1907POPC   NC328403  20.943  35.154   9.545
 1907POPC   PO428404  20.377  35.496   9.399
 1907POPC   GL128405  20.664  35.277   9.131
 1907POPC   GL228406  20.846  35.578   9.142
 1907POPC   C1A28407  20.884  35.255   8.735
 1907POPC   D2A28408  20.692  35.285   8.339
 1907POPC   C3A28409  20.976  35.258   7.990
 1907POPC   C4A28410  20.828  35.072   7.607
 1907POPC   C1B28411  20.609  35.680   8.769
 1907POPC   C2B28412  20.352  35.682   8.413
 1907POPC   C3B28413  20.359  35.565   7.997
 1907POPC   C4B28414  20.710  35.579   7.699
 1908POPC   NC328415  27.477  13.905   9.526
 1908POPC   PO428416  27.656  14.435   9.545
 1908POPC   GL128417  27.498  14.518   9.132
 1908POPC   GL228418  27.402  14.181   9.072
 1908POPC   C1A28419  27.540  14.747   8.696
 1908POPC   D2A28420  27.943  14.809   8.448
 1908POPC   C3A28421  28.021  14.681   8.026
 1908POPC   C4A28422  27.715  14.658   7.679
 1908POPC   C1B28423  27.592  14.250   8.654
 1908POPC   C2B28424  27.588  14.455   8.235
 1908POPC   C3B28425  27.524  14.225   7.839
 1908POPC   C4B28426  27.753  14.067   7.472
 1909POPC   NC328427  19.847   1.660   9.822
 1909POPC   PO428428  19.630   2.078   9.325
 1909POPC   GL128429  19.486   2.127   8.933
 1909POPC   GL228430  19.784   1.905   8.884
 1909POPC   C1A28431  19.548   2.083   8.498
 1909POPC   D2A28432  19.817   1.807   8.323
 1909POPC   C3A28433  19.813   2.076   7.994
 1909POPC   C4A28434  19.664   1.868   7.686
 1909POPC   C1B28435  20.163   1.959   8.710
 1909POPC   C2B28436  20.217   2.116   8.332
 1909POPC   C3B28437  20.304   2.102   7.904
 1909POPC   C4B28438  20.234   2.298   7.511
 1910POPC   NC328439  43.186  10.706   9.698
 1910POPC   PO428440  42.735  10.360   9.414
 1910POPC   GL128441  42.968  10.575   9.116
 1910POPC   GL228442  43.312  10.515   9.210
 1910POPC   C1A28443  43.125  10.386   8.721
 1910POPC   D2A28444  42.983  10.415   8.305
 1910POPC   C3A28445  43.244  10.379   7.960
 1910POPC   C4A28446  43.129  10.629   7.609
 1910POPC   C1B28447  43.357  10.814   8.847
 1910POPC   C2B28448  43.331  10.771   8.389
 1910POPC   C3B28449  43.428  10.898   7.966
 1910POPC   C4B28450  43.499  10.957   7.519
 1911POPC   NC328451  12.515  10.533   9.621
 1911POPC   PO428452  11.813  10.738   9.639
 1911POPC   GL128453  11.804  10.439   9.271
 1911POPC   GL228454  12.135  10.346   9.265
 1911POPC   C1A28455  11.861  10.548   8.829
 1911POPC   D2A28456  11.887  10.792   8.454
 1911POPC   C3A28457  11.764  10.616   8.069
 1911POPC   C4A28458  12.015  10.600   7.675
 1911POPC   C1B28459  12.295  10.258   8.816
 1911POPC   C2B28460  12.207  10.371   8.443
 1911POPC   C3B28461  12.287  10.589   8.102
 1911POPC   C4B28462  12.457  10.357   7.741
 1912POPC   NC328463   7.065   8.570   9.366
 1912POPC   PO428464   6.804   7.922   9.511
 1912POPC   GL128465   6.774   8.188   9.135
 1912POPC   GL228466   6.555   8.496   9.138
 1912POPC   C1A28467   6.775   8.348   8.703
 1912POPC   D2A28468   6.544   8.340   8.315
 1912POPC   C3A28469   6.828   8.237   7.950
 1912POPC   C4A28470   6.962   7.790   7.851
 1912POPC   C1B28471   6.324   8.632   8.720
 1912POPC   C2B28472   6.190   8.752   8.269
 1912POPC   C3B28473   6.386   8.543   7.878
 1912POPC   C4B28474   6.510   8.251   7.525
 1913POPC   NC328475  19.463  34.287   9.417
 1913POPC   PO428476  19.979  33.906   9.573
 1913POPC   GL128477  19.883  33.859   9.167
 1913POPC   GL228478  19.559  33.722   9.238
 1913POPC   C1A28479  19.857  33.624   8.769
 1913POPC   D2A28480  20.108  33.590   8.391
 1913POPC   C3A28481  19.946  33.653   7.965
 1913POPC   C4A28482  19.940  33.920   7.551
 1913POPC   C1B28483  19.503  33.981   8.857
 1913POPC   C2B28484  19.467  33.843   8.468
 1913POPC   C3B28485  19.583  33.976   8.095
 1913POPC   C4B28486  19.477  33.870   7.718
 1914POPC   NC328487  11.763  44.562   9.577
 1914POPC   PO428488  12.403  44.601   9.528
 1914POPC   GL128489  12.142  44.622   9.138
 1914POPC   GL228490  11.867  44.389   9.060
 1914POPC   C1A28491  12.213  44.476   8.696
 1914POPC   D2A28492  12.006  44.396   8.294
 1914POPC   C3A28493  12.256  44.541   7.950
 1914POPC   C4A28494  12.310  44.783   7.598
 1914POPC   C1B28495  11.777  44.742   8.707
 1914POPC   C2B28496  11.739  44.853   8.236
 1914POPC   C3B28497  11.796  44.670   7.778
 1914POPC   C4B28498  11.669  44.452   7.338
 1915POPC   NC328499  43.715   1.188   9.552
 1915POPC   PO428500  44.393   1.002   9.543
 1915POPC   GL128501  44.193   1.121   9.154
 1915POPC   GL228502  43.906   0.934   9.168
 1915POPC   C1A28503  44.001   1.143   8.716
 1915POPC   D2A28504  44.143   0.921   8.326
 1915POPC   C3A28505  44.076   1.102   7.936
 1915POPC   C4A28506  44.002   1.464   7.685
 1915POPC   C1B28507  43.572   0.885   8.866
 1915POPC   C2B28508  43.638   0.865   8.434
 1915POPC   C3B28509  43.633   0.792   8.011
 1915POPC   C4B28510  43.644   1.056   7.634
 1916POPC   NC328511  39.468  37.937   9.885
 1916POPC   PO428512  38.933  37.549   9.844
 1916POPC   GL128513  38.895  37.700   9.356
 1916POPC   GL228514  39.214  37.853   9.272
 1916POPC   C1A28515  39.001  37.543   8.886
 1916POPC   D2A28516  39.360  37.544   8.534
 1916POPC   C3A28517  39.306  37.506   8.043
 1916POPC   C4A28518  39.185  37.254   7.650
 1916POPC   C1B28519  39.243  37.993   8.850
 1916POPC   C2B28520  39.110  37.967   8.419
 1916POPC   C3B28521  38.958  37.901   8.027
 1916POPC   C4B28522  38.786  37.554   7.811
 1917POPC   NC328523  16.742  27.144   9.441
 1917POPC   PO428524  16.898  26.487   9.637
 1917POPC   GL128525  16.718  26.670   9.244
 1917POPC   GL228526  16.967  26.776   9.050
 1917POPC   C1A28527  16.515  26.739   8.813
 1917POPC   D2A28528  16.521  26.519   8.384
 1917POPC   C3A28529  16.686  26.779   8.024
 1917POPC   C4A28530  16.535  27.209   7.877
 1917POPC   C1B28531  16.898  27.128   8.735
 1917POPC   C2B28532  16.842  27.272   8.283
 1917POPC   C3B28533  17.071  27.118   7.889
 1917POPC   C4B28534  17.039  26.820   7.536
 1918POPC   NC328535  18.490  31.891   9.757
 1918POPC   PO428536  18.321  32.480   9.470
 1918POPC   GL128537  18.191  32.307   9.053
 1918POPC   GL228538  18.051  31.947   8.974
 1918POPC   C1A28539  18.209  32.261   8.601
 1918POPC   D2A28540  17.937  32.479   8.337
 1918POPC   C3A28541  18.015  32.411   7.933
 1918POPC   C4A28542  18.357  32.571   7.806
 1918POPC   C1B28543  18.257  31.709   8.654
 1918POPC   C2B28544  18.576  31.925   8.436
 1918POPC   C3B28545  18.479  32.112   8.046
 1918POPC   C4B28546  18.281  31.956   7.675
 1919POPC   NC328547  28.622   3.990   9.613
 1919POPC   PO428548  28.196   3.420   9.689
 1919POPC   GL128549  28.315   3.566   9.259
 1919POPC   GL228550  28.017   3.558   9.094
 1919POPC   C1A28551  28.381   3.455   8.783
 1919POPC   D2A28552  28.210   3.461   8.379
 1919POPC   C3A28553  28.529   3.469   8.082
 1919POPC   C4A28554  28.492   3.580   7.669
 1919POPC   C1B28555  27.957   3.785   8.761
 1919POPC   C2B28556  27.984   3.960   8.369
 1919POPC   C3B28557  28.161   3.822   8.007
 1919POPC   C4B28558  28.009   3.782   7.601
 1920POPC   NC328559  44.255  43.236   9.612
 1920POPC   PO428560  44.903  42.930   9.567
 1920POPC   GL128561  44.618  43.101   9.257
 1920POPC   GL228562  44.374  42.859   9.263
 1920POPC   C1A28563  44.614  43.326   8.847
 1920POPC   D2A28564  44.885  43.264   8.484
 1920POPC   C3A28565  44.815  43.240   8.042
 1920POPC   C4A28566  44.893  42.808   7.871
 1920POPC   C1B28567  44.379  42.876   8.832
 1920POPC   C2B28568  44.354  43.064   8.429
 1920POPC   C3B28569  44.417  42.942   8.000
 1920POPC   C4B28570  44.374  42.644   7.685
 1921POPC   NC328571   4.847   0.368   9.250
 1921POPC   PO428572   5.250   0.672   9.708
 1921POPC   GL128573   5.187   0.757   9.208
 1921POPC   GL228574   5.321   0.536   8.944
 1921POPC   C1A28575   4.902   0.814   8.781
 1921POPC   D2A28576   4.987   0.799   8.313
 1921POPC   C3A28577   5.396   0.603   8.192
 1921POPC   C4A28578   5.422   0.302   7.843
 1921POPC   C1B28579   5.295   0.131   8.717
 1921POPC   C2B28580   5.280   0.091   8.305
 1921POPC   C3B28581   4.958   0.306   8.112
 1921POPC   C4B28582   4.913   0.479   7.732
 1922POPC   NC328583  39.661  43.561   9.295
 1922POPC   PO428584  40.039  43.988   9.744
 1922POPC   GL128585  40.114  43.909   9.289
 1922POPC   GL228586  40.175  43.558   9.294
 1922POPC   C1A28587  39.966  43.978   8.844
 1922POPC   D2A28588  39.859  44.100   8.422
 1922POPC   C3A28589  39.849  43.850   8.080
 1922POPC   C4A28590  39.716  43.880   7.701
 1922POPC   C1B28591  40.328  43.608   8.885
 1922POPC   C2B28592  40.322  43.820   8.497
 1922POPC   C3B28593  40.288  43.610   8.116
 1922POPC   C4B28594  40.213  43.831   7.721
 1923POPC   NC328595  44.051  13.728   9.482
 1923POPC   PO428596  43.513  13.536   9.589
 1923POPC   GL128597  43.648  13.535   9.170
 1923POPC   GL228598  43.908  13.293   9.133
 1923POPC   C1A28599  43.800  13.748   8.779
 1923POPC   D2A28600  43.912  13.726   8.317
 1923POPC   C3A28601  43.658  13.541   7.993
 1923POPC   C4A28602  43.664  13.477   7.527
 1923POPC   C1B28603  44.048  13.321   8.666
 1923POPC   C2B28604  44.089  13.259   8.202
 1923POPC   C3B28605  44.144  13.547   7.853
 1923POPC   C4B28606  43.931  13.948   7.809
 1924POPC   NC328607  33.046   4.009   9.459
 1924POPC   PO428608  33.220   4.656   9.563
 1924POPC   GL128609  33.102   4.439   9.179
 1924POPC   GL228610  32.823   4.199   9.060
 1924POPC   C1A28611  32.902   4.616   8.815
 1924POPC   D2A28612  32.707   4.448   8.457
 1924POPC   C3A28613  32.843   4.394   8.047
 1924POPC   C4A28614  32.613   4.246   7.690
 1924POPC   C1B28615  33.084   4.154   8.668
 1924POPC   C2B28616  33.111   4.007   8.217
 1924POPC   C3B28617  33.144   4.068   7.757
 1924POPC   C4B28618  33.431   4.104   7.387
 1925POPC   NC328619  39.553   8.622   9.440
 1925POPC   PO428620  40.060   9.022   9.757
 1925POPC   GL128621  40.054   8.882   9.283
 1925POPC   GL228622  40.336   8.680   9.147
 1925POPC   C1A28623  39.947   8.949   8.817
 1925POPC   D2A28624  39.777   9.098   8.394
 1925POPC   C3A28625  40.007   9.032   8.003
 1925POPC   C4A28626  39.739   8.788   7.772
 1925POPC   C1B28627  40.221   8.525   8.722
 1925POPC   C2B28628  40.049   8.614   8.300
 1925POPC   C3B28629  40.343   8.657   7.922
 1925POPC   C4B28630  40.426   8.452   7.554
 1926POPC   NC328631  41.861   9.733   9.452
 1926POPC   PO428632  42.504   9.453   9.450
 1926POPC   GL128633  42.290   9.692   9.141
 1926POPC   GL228634  42.607   9.610   8.960
 1926POPC   C1A28635  42.236   9.832   8.725
 1926POPC   D2A28636  42.445   9.730   8.374
 1926POPC   C3A28637  42.171   9.648   8.079
 1926POPC   C4A28638  42.049   9.880   7.712
 1926POPC   C1B28639  42.846   9.461   8.590
 1926POPC   C2B28640  42.854   9.508   8.118
 1926POPC   C3B28641  42.601   9.665   7.739
 1926POPC   C4B28642  42.518   9.399   7.369
 1927POPC   NC328643   4.796   6.040   9.642
 1927POPC   PO428644   4.143   6.017   9.834
 1927POPC   GL128645   4.155   5.996   9.338
 1927POPC   GL228646   4.100   5.638   9.201
 1927POPC   C1A28647   4.378   6.071   8.935
 1927POPC   D2A28648   4.546   5.830   8.566
 1927POPC   C3A28649   4.424   5.884   8.127
 1927POPC   C4A28650   4.377   5.629   7.767
 1927POPC   C1B28651   3.941   5.838   8.860
 1927POPC   C2B28652   4.033   5.828   8.454
 1927POPC   C3B28653   3.925   5.908   8.038
 1927POPC   C4B28654   3.907   5.738   7.654
 1928POPC   NC328655  19.950   1.726   9.320
 1928POPC   PO428656  19.673   1.073   9.511
 1928POPC   GL128657  19.653   1.340   9.149
 1928POPC   GL228658  19.977   1.218   9.054
 1928POPC   C1A28659  19.673   1.467   8.707
 1928POPC   D2A28660  19.932   1.268   8.425
 1928POPC   C3A28661  19.875   1.187   7.992
 1928POPC   C4A28662  19.937   0.962   7.601
 1928POPC   C1B28663  20.246   1.465   8.777
 1928POPC   C2B28664  20.314   1.614   8.357
 1928POPC   C3B28665  20.143   1.617   7.922
 1928POPC   C4B28666  20.317   1.379   7.574
 1929POPC   NC328667  35.069   9.231   9.374
 1929POPC   PO428668  34.469   9.024   9.520
 1929POPC   GL128669  34.358   9.027   9.103
 1929POPC   GL228670  34.697   9.144   9.055
 1929POPC   C1A28671  34.311   9.312   8.748
 1929POPC   D2A28672  34.524   9.479   8.408
 1929POPC   C3A28673  34.751   9.216   8.139
 1929POPC   C4A28674  34.508   9.157   7.798
 1929POPC   C1B28675  34.800   9.120   8.653
 1929POPC   C2B28676  34.500   8.840   8.516
 1929POPC   C3B28677  34.483   8.536   8.216
 1929POPC   C4B28678  34.691   8.700   7.856
 1930POPC   NC328679  28.314   7.180   9.584
 1930POPC   PO428680  28.077   7.704   9.400
 1930POPC   GL128681  28.287   7.386   9.127
 1930POPC   GL228682  28.659   7.332   9.205
 1930POPC   C1A28683  28.200   7.247   8.720
 1930POPC   D2A28684  28.374   7.099   8.338
 1930POPC   C3A28685  28.116   7.289   8.046
 1930POPC   C4A28686  28.062   7.407   7.599
 1930POPC   C1B28687  28.653   7.522   8.784
 1930POPC   C2B28688  28.490   7.625   8.398
 1930POPC   C3B28689  28.604   7.493   8.024
 1930POPC   C4B28690  28.505   7.139   7.770
 1931POPC   NC328691  14.713  21.951   9.585
 1931POPC   PO428692  14.239  22.292   9.299
 1931POPC   GL128693  14.429  22.060   9.020
 1931POPC   GL228694  14.089  21.948   8.951
 1931POPC   C1A28695  14.568  22.093   8.600
 1931POPC   D2A28696  14.632  21.805   8.304
 1931POPC   C3A28697  14.286  21.909   8.117
 1931POPC   C4A28698  14.367  22.099   7.777
 1931POPC   C1B28699  14.099  22.331   8.676
 1931POPC   C2B28700  14.222  22.404   8.250
 1931POPC   C3B28701  13.952  22.346   7.903
 1931POPC   C4B28702  14.100  22.436   7.485
 1932POPC   NC328703  14.411   8.909   9.569
 1932POPC   PO428704  14.686   9.478   9.473
 1932POPC   GL128705  14.624   9.170   9.136
 1932POPC   GL228706  14.311   8.965   9.088
 1932POPC   C1A28707  14.617   9.061   8.691
 1932POPC   D2A28708  14.580   9.163   8.280
 1932POPC   C3A28709  14.494   8.863   7.981
 1932POPC   C4A28710  14.464   8.918   7.562
 1932POPC   C1B28711  14.220   9.328   8.849
 1932POPC   C2B28712  14.201   9.469   8.460
 1932POPC   C3B28713  14.100   9.253   8.080
 1932POPC   C4B28714  14.054   9.206   7.620
 1933POPC   NC328715  14.028  31.820   9.406
 1933POPC   PO428716  13.631  31.320   9.482
 1933POPC   GL128717  13.529  31.405   9.098
 1933POPC   GL228718  13.832  31.536   9.028
 1933POPC   C1A28719  13.443  31.503   8.688
 1933POPC   D2A28720  13.629  31.607   8.310
 1933POPC   C3A28721  13.350  31.469   7.960
 1933POPC   C4A28722  13.449  31.213   7.588
 1933POPC   C1B28723  14.063  31.306   8.753
 1933POPC   C2B28724  13.990  31.179   8.338
 1933POPC   C3B28725  13.817  31.151   7.937
 1933POPC   C4B28726  13.994  31.289   7.540
 1934POPC   NC328727  29.487  17.296   9.458
 1934POPC   PO428728  30.134  17.083   9.531
 1934POPC   GL128729  30.029  17.373   9.181
 1934POPC   GL228730  29.705  17.557   9.068
 1934POPC   C1A28731  30.160  17.513   8.768
 1934POPC   D2A28732  30.303  17.368   8.378
 1934POPC   C3A28733  30.123  17.560   8.048
 1934POPC   C4A28734  29.749  17.805   7.961
 1934POPC   C1B28735  29.735  17.199   8.787
 1934POPC   C2B28736  29.848  17.100   8.375
 1934POPC   C3B28737  29.764  17.228   7.947
 1934POPC   C4B28738  29.655  17.480   7.568
 1935POPC   NC328739   4.737  37.448   9.521
 1935POPC   PO428740   5.139  37.918   9.729
 1935POPC   GL128741   5.115  37.991   9.286
 1935POPC   GL228742   5.260  37.700   9.121
 1935POPC   C1A28743   4.966  38.054   8.846
 1935POPC   D2A28744   5.176  37.885   8.463
 1935POPC   C3A28745   5.075  37.807   8.005
 1935POPC   C4A28746   5.467  37.872   7.758
 1935POPC   C1B28747   5.342  37.448   8.729
 1935POPC   C2B28748   5.229  37.381   8.276
 1935POPC   C3B28749   5.316  37.387   7.823
 1935POPC   C4B28750   4.939  37.337   7.593
 1936POPC   NC328751  25.959  17.820   9.449
 1936POPC   PO428752  26.255  17.205   9.553
 1936POPC   GL128753  25.996  17.308   9.192
 1936POPC   GL228754  25.913  17.629   9.004
 1936POPC   C1A28755  25.923  17.216   8.753
 1936POPC   D2A28756  26.003  17.540   8.473
 1936POPC   C3A28757  25.951  17.518   8.049
 1936POPC   C4A28758  25.975  17.236   7.710
 1936POPC   C1B28759  25.562  17.647   8.719
 1936POPC   C2B28760  25.514  17.930   8.358
 1936POPC   C3B28761  25.521  17.818   7.927
 1936POPC   C4B28762  25.738  17.668   7.572
 1937POPC   NC328763  11.885  19.472   9.343
 1937POPC   PO428764  12.231  18.850   9.443
 1937POPC   GL128765  12.252  19.129   9.143
 1937POPC   GL228766  11.914  19.066   9.039
 1937POPC   C1A28767  12.302  19.297   8.768
 1937POPC   D2A28768  12.077  19.109   8.466
 1937POPC   C3A28769  12.312  19.079   8.100
 1937POPC   C4A28770  12.140  19.164   7.713
 1937POPC   C1B28771  11.718  18.767   8.781
 1937POPC   C2B28772  11.899  18.640   8.385
 1937POPC   C3B28773  11.917  18.766   7.982
 1937POPC   C4B28774  11.652  18.906   7.676
 1938POPC   NC328775   7.374  21.236   9.534
 1938POPC   PO428776   7.715  20.764   9.404
 1938POPC   GL128777   7.681  21.110   9.115
 1938POPC   GL228778   7.563  21.467   9.110
 1938POPC   C1A28779   7.474  21.108   8.711
 1938POPC   D2A28780   7.560  21.296   8.340
 1938POPC   C3A28781   7.356  21.234   8.000
 1938POPC   C4A28782   7.690  21.396   7.771
 1938POPC   C1B28783   7.402  21.609   8.706
 1938POPC   C2B28784   7.065  21.455   8.396
 1938POPC   C3B28785   6.929  21.496   7.939
 1938POPC   C4B28786   7.220  21.493   7.561
 1939POPC   NC328787  29.702  39.834   9.380
 1939POPC   PO428788  30.144  40.166   9.414
 1939POPC   GL128789  30.113  39.837   9.073
 1939POPC   GL228790  29.793  39.858   8.888
 1939POPC   C1A28791  30.242  39.679   8.682
 1939POPC   D2A28792  29.931  39.814   8.403
 1939POPC   C3A28793  30.021  39.801   8.023
 1939POPC   C4A28794  30.177  40.168   7.843
 1939POPC   C1B28795  29.450  39.726   8.591
 1939POPC   C2B28796  29.500  39.629   8.163
 1939POPC   C3B28797  29.568  39.797   7.754
 1939POPC   C4B28798  29.510  39.887   7.318
 1940POPC   NC328799  10.063  12.467   9.683
 1940POPC   PO428800   9.632  11.983   9.432
 1940POPC   GL128801   9.557  11.971   9.019
 1940POPC   GL228802   9.711  11.686   9.017
 1940POPC   C1A28803   9.566  12.248   8.617
 1940POPC   D2A28804   9.816  12.117   8.245
 1940POPC   C3A28805   9.760  12.313   7.851
 1940POPC   C4A28806   9.759  12.170   7.369
 1940POPC   C1B28807   9.551  11.747   8.577
 1940POPC   C2B28808   9.895  11.609   8.351
 1940POPC   C3B28809  10.046  11.705   7.956
 1940POPC   C4B28810   9.695  11.821   7.734
 1941POPC   NC328811  24.429  42.958   9.534
 1941POPC   PO428812  24.822  43.528   9.545
 1941POPC   GL128813  24.633  43.383   9.133
 1941POPC   GL228814  24.316  43.162   9.079
 1941POPC   C1A28815  24.499  43.419   8.677
 1941POPC   D2A28816  24.307  43.160   8.357
 1941POPC   C3A28817  24.477  43.244   7.941
 1941POPC   C4A28818  24.529  43.203   7.496
 1941POPC   C1B28819  24.586  42.917   8.771
 1941POPC   C2B28820  24.746  42.901   8.339
 1941POPC   C3B28821  24.563  42.723   7.986
 1941POPC   C4B28822  24.229  42.836   7.719
 1942POPC   NC328823  31.514   2.521   9.384
 1942POPC   PO428824  31.656   1.864   9.543
 1942POPC   GL128825  31.599   1.915   9.122
 1942POPC   GL228826  31.897   1.722   9.056
 1942POPC   C1A28827  31.328   2.120   8.795
 1942POPC   D2A28828  31.250   2.439   8.460
 1942POPC   C3A28829  31.260   2.205   8.094
 1942POPC   C4A28830  31.489   2.128   7.774
 1942POPC   C1B28831  31.811   1.835   8.642
 1942POPC   C2B28832  31.455   1.834   8.365
 1942POPC   C3B28833  31.432   1.671   7.951
 1942POPC   C4B28834  31.795   1.682   7.652
 1943POPC   NC328835  38.904  44.522   9.430
 1943POPC   PO428836  38.358   0.009   9.352
 1943POPC   GL128837  38.574  44.784   9.075
 1943POPC   GL228838  38.881  44.915   9.108
 1943POPC   C1A28839  38.498  44.802   8.637
 1943POPC   D2A28840  38.255  44.564   8.391
 1943POPC   C3A28841  38.072  44.747   8.053
 1943POPC   C4A28842  38.203  44.642   7.663
 1943POPC   C1B28843  38.943  44.603   8.770
 1943POPC   C2B28844  38.826  44.440   8.396
 1943POPC   C3B28845  38.729  44.602   8.004
 1943POPC   C4B28846  38.691  44.507   7.587
 1944POPC   NC328847  17.514   7.493   9.461
 1944POPC   PO428848  17.856   6.942   9.143
 1944POPC   GL128849  17.655   7.367   9.006
 1944POPC   GL228850  17.235   7.406   9.039
 1944POPC   C1A28851  17.448   7.783   8.793
 1944POPC   D2A28852  17.307   7.778   8.354
 1944POPC   C3A28853  17.470   7.431   8.090
 1944POPC   C4A28854  17.266   7.277   7.751
 1944POPC   C1B28855  17.410   7.329   8.591
 1944POPC   C2B28856  17.838   7.261   8.443
 1944POPC   C3B28857  17.884   7.002   8.105
 1944POPC   C4B28858  17.531   6.860   7.861
 1945POPC   NC328859   9.169   6.264   9.253
 1945POPC   PO428860   8.895   6.134   9.789
 1945POPC   GL128861   9.020   5.797   9.335
 1945POPC   GL228862   8.777   5.855   9.087
 1945POPC   C1A28863   9.171   5.732   8.833
 1945POPC   D2A28864   9.174   5.960   8.417
 1945POPC   C3A28865   9.090   5.745   8.011
 1945POPC   C4A28866   8.988   5.975   7.647
 1945POPC   C1B28867   8.672   5.995   8.701
 1945POPC   C2B28868   8.679   5.855   8.303
 1945POPC   C3B28869   8.588   6.028   7.942
 1945POPC   C4B28870   8.424   5.832   7.608
 1946POPC   NC328871  21.129  41.094   9.427
 1946POPC   PO428872  21.592  41.489   9.727
 1946POPC   GL128873  21.500  41.567   9.234
 1946POPC   GL228874  21.491  41.293   8.976
 1946POPC   C1A28875  21.371  41.810   8.834
 1946POPC   D2A28876  21.226  41.797   8.382
 1946POPC   C3A28877  21.552  41.846   8.083
 1946POPC   C4A28878  21.490  41.935   7.685
 1946POPC   C1B28879  21.565  41.463   8.531
 1946POPC   C2B28880  21.438  41.363   8.120
 1946POPC   C3B28881  21.224  41.499   7.783
 1946POPC   C4B28882  21.043  41.322   7.428
 1947POPC   NC328883  33.376  27.313   9.572
 1947POPC   PO428884  32.860  27.864   9.485
 1947POPC   GL128885  33.196  27.679   9.246
 1947POPC   GL228886  33.054  27.366   9.176
 1947POPC   C1A28887  33.307  27.649   8.815
 1947POPC   D2A28888  33.032  27.503   8.490
 1947POPC   C3A28889  33.145  27.465   8.056
 1947POPC   C4A28890  32.863  27.625   7.767
 1947POPC   C1B28891  32.796  27.200   8.856
 1947POPC   C2B28892  32.524  27.300   8.514
 1947POPC   C3B28893  32.525  27.359   8.060
 1947POPC   C4B28894  32.760  27.124   7.760
 1948POPC   NC328895   9.784  35.651   9.475
 1948POPC   PO428896   9.230  35.301   9.631
 1948POPC   GL128897   9.461  35.209   9.175
 1948POPC   GL228898   9.713  35.432   9.018
 1948POPC   C1A28899   9.578  34.889   8.847
 1948POPC   D2A28900   9.907  34.826   8.517
 1948POPC   C3A28901   9.947  35.155   8.163
 1948POPC   C4A28902   9.741  35.294   7.758
 1948POPC   C1B28903   9.694  35.323   8.588
 1948POPC   C2B28904   9.515  35.440   8.192
 1948POPC   C3B28905   9.415  35.715   7.882
 1948POPC   C4B28906   9.426  35.757   7.462
 1949POPC   NC328907  38.706  11.810   9.522
 1949POPC   PO428908  38.510  12.415   9.569
 1949POPC   GL128909  38.586  12.176   9.192
 1949POPC   GL228910  38.305  11.925   9.189
 1949POPC   C1A28911  38.445  12.179   8.766
 1949POPC   D2A28912  38.275  12.151   8.355
 1949POPC   C3A28913  38.539  11.976   8.045
 1949POPC   C4A28914  38.287  12.074   7.725
 1949POPC   C1B28915  38.167  11.727   8.798
 1949POPC   C2B28916  38.291  11.625   8.400
 1949POPC   C3B28917  38.114  11.689   8.006
 1949POPC   C4B28918  38.233  11.576   7.581
 1950POPC   NC328919  15.671  23.313   9.525
 1950POPC   PO428920  15.794  23.952   9.547
 1950POPC   GL128921  15.795  23.675   9.197
 1950POPC   GL228922  16.141  23.686   9.115
 1950POPC   C1A28923  15.790  23.634   8.751
 1950POPC   D2A28924  15.978  23.741   8.370
 1950POPC   C3A28925  15.761  23.825   8.024
 1950POPC   C4A28926  15.702  23.602   7.662
 1950POPC   C1B28927  16.280  23.416   8.779
 1950POPC   C2B28928  16.231  23.300   8.339
 1950POPC   C3B28929  16.437  23.327   7.915
 1950POPC   C4B28930  16.269  23.291   7.453
 1951POPC   NC328931  14.072  10.639   9.328
 1951POPC   PO428932  13.361  10.694   9.511
 1951POPC   GL128933  13.544  10.487   9.134
 1951POPC   GL228934  13.651  10.797   9.072
 1951POPC   C1A28935  13.834  10.441   8.738
 1951POPC   D2A28936  14.057  10.393   8.336
 1951POPC   C3A28937  13.821  10.573   7.972
 1951POPC   C4A28938  13.468  10.483   7.763
 1951POPC   C1B28939  13.308  10.808   8.773
 1951POPC   C2B28940  13.174  10.826   8.333
 1951POPC   C3B28941  13.159  10.855   7.887
 1951POPC   C4B28942  13.257  10.802   7.419
 1952POPC   NC328943  38.551  10.079   9.607
 1952POPC   PO428944  38.372   9.424   9.583
 1952POPC   GL128945  38.276   9.553   9.175
 1952POPC   GL228946  38.451   9.845   9.167
 1952POPC   C1A28947  38.223   9.664   8.721
 1952POPC   D2A28948  38.410   9.704   8.301
 1952POPC   C3A28949  38.474   9.579   7.897
 1952POPC   C4A28950  38.212   9.894   7.736
 1952POPC   C1B28951  38.688   9.870   8.782
 1952POPC   C2B28952  38.782  10.055   8.391
 1952POPC   C3B28953  38.662  10.057   7.976
 1952POPC   C4B28954  38.627  10.021   7.510
 1953POPC   NC328955  11.953   8.005   9.500
 1953POPC   PO428956  12.250   8.596   9.381
 1953POPC   GL128957  11.928   8.398   9.145
 1953POPC   GL228958  12.204   8.158   9.069
 1953POPC   C1A28959  11.751   8.076   8.847
 1953POPC   D2A28960  11.972   7.799   8.561
 1953POPC   C3A28961  11.961   7.862   8.129
 1953POPC   C4A28962  12.098   8.230   7.904
 1953POPC   C1B28963  12.111   8.368   8.676
 1953POPC   C2B28964  11.822   8.319   8.351
 1953POPC   C3B28965  11.763   8.619   8.036
 1953POPC   C4B28966  11.811   8.779   7.632
 1954POPC   NC328967  22.078   8.944   9.748
 1954POPC   PO428968  22.236   9.596   9.590
 1954POPC   GL128969  22.021   9.197   9.297
 1954POPC   GL228970  22.012   8.782   9.258
 1954POPC   C1A28971  22.002   9.104   8.827
 1954POPC   D2A28972  22.069   9.331   8.420
 1954POPC   C3A28973  22.044   9.274   7.970
 1954POPC   C4A28974  22.412   9.142   7.719
 1954POPC   C1B28975  21.781   8.633   8.873
 1954POPC   C2B28976  21.855   8.766   8.456
 1954POPC   C3B28977  22.148   8.796   8.119
 1954POPC   C4B28978  22.045   8.793   7.700
 1955POPC   NC328979  13.843   2.985   9.391
 1955POPC   PO428980  13.421   2.439   9.497
 1955POPC   GL128981  13.461   2.708   9.198
 1955POPC   GL228982  13.792   2.572   9.071
 1955POPC   C1A28983  13.416   2.781   8.816
 1955POPC   D2A28984  13.632   2.579   8.504
 1955POPC   C3A28985  13.420   2.637   8.153
 1955POPC   C4A28986  13.293   2.714   7.765
 1955POPC   C1B28987  13.909   2.921   8.769
 1955POPC   C2B28988  14.063   2.881   8.399
 1955POPC   C3B28989  13.889   2.845   8.023
 1955POPC   C4B28990  13.917   3.190   7.742
 1956POPC   NC328991  17.209  23.812   9.409
 1956POPC   PO428992  17.873  23.596   9.397
 1956POPC   GL128993  17.646  23.415   9.067
 1956POPC   GL228994  17.530  23.733   9.028
 1956POPC   C1A28995  17.504  23.474   8.608
 1956POPC   D2A28996  17.577  23.786   8.328
 1956POPC   C3A28997  17.468  23.583   7.971
 1956POPC   C4A28998  17.625  23.353   7.647
 1956POPC   C1B28999  17.238  23.897   8.746
 1956POPC   C2B29000  17.085  24.013   8.340
 1956POPC   C3B29001  17.211  24.013   7.898
 1956POPC   C4B29002  17.057  23.969   7.464
 1957POPC   NC329003   6.527  39.206   9.473
 1957POPC   PO429004   7.018  39.608   9.474
 1957POPC   GL129005   6.914  39.311   9.134
 1957POPC   GL229006   6.537  39.351   8.988
 1957POPC   C1A29007   6.903  39.194   8.687
 1957POPC   D2A29008   6.631  39.320   8.363
 1957POPC   C3A29009   6.765  39.184   7.958
 1957POPC   C4A29010   7.029  39.462   7.691
 1957POPC   C1B29011   6.344  39.022   8.691
 1957POPC   C2B29012   6.344  38.926   8.225
 1957POPC   C3B29013   6.232  39.266   7.977
 1957POPC   C4B29014   6.423  39.468   7.723
 1958POPC   NC329015  42.695  42.878   9.360
 1958POPC   PO429016  42.014  42.735   9.428
 1958POPC   GL129017  42.123  42.475   9.063
 1958POPC   GL229018  42.343  42.188   9.137
 1958POPC   C1A29019  42.272  42.535   8.685
 1958POPC   D2A29020  42.268  42.347   8.307
 1958POPC   C3A29021  42.075  42.403   7.899
 1958POPC   C4A29022  42.407  42.523   7.630
 1958POPC   C1B29023  42.274  42.022   8.733
 1958POPC   C2B29024  42.236  41.821   8.346
 1958POPC   C3B29025  42.365  41.998   7.965
 1958POPC   C4B29026  42.260  42.044   7.564
 1959POPC   NC329027  12.260  31.700   9.630
 1959POPC   PO429028  11.899  31.191   9.758
 1959POPC   GL129029  12.077  31.296   9.297
 1959POPC   GL229030  12.277  31.600   9.140
 1959POPC   C1A29031  12.091  31.248   8.823
 1959POPC   D2A29032  11.911  31.211   8.399
 1959POPC   C3A29033  12.143  31.354   8.009
 1959POPC   C4A29034  12.452  31.142   7.801
 1959POPC   C1B29035  12.064  31.772   8.785
 1959POPC   C2B29036  12.050  31.764   8.360
 1959POPC   C3B29037  11.852  32.004   8.044
 1959POPC   C4B29038  11.846  31.824   7.644
 1960POPC   NC329039  28.085  38.354   9.394
 1960POPC   PO429040  28.691  38.337   9.436
 1960POPC   GL129041  28.502  38.439   9.069
 1960POPC   GL229042  28.321  38.128   8.999
 1960POPC   C1A29043  28.283  38.594   8.692
 1960POPC   D2A29044  28.132  38.472   8.259
 1960POPC   C3A29045  28.191  38.428   7.793
 1960POPC   C4A29046  28.172  38.054   7.524
 1960POPC   C1B29047  28.584  38.188   8.630
 1960POPC   C2B29048  28.679  38.541   8.367
 1960POPC   C3B29049  28.654  38.576   7.942
 1960POPC   C4B29050  28.642  38.248   7.604
 1961POPC   NC329051  21.853   8.347   9.526
 1961POPC   PO429052  22.423   8.619   9.687
 1961POPC   GL129053  22.436   8.306   9.276
 1961POPC   GL229054  22.092   8.254   9.107
 1961POPC   C1A29055  22.459   8.065   8.845
 1961POPC   D2A29056  22.189   8.214   8.488
 1961POPC   C3A29057  22.242   8.034   8.068
 1961POPC   C4A29058  22.279   8.357   7.766
 1961POPC   C1B29059  21.788   8.124   8.801
 1961POPC   C2B29060  21.661   8.287   8.423
 1961POPC   C3B29061  21.865   8.378   8.058
 1961POPC   C4B29062  21.825   8.135   7.673
 1962POPC   NC329063  35.390  10.008   9.463
 1962POPC   PO429064  35.474   9.292   9.601
 1962POPC   GL129065  35.492   9.424   9.163
 1962POPC   GL229066  35.615   9.733   9.078
 1962POPC   C1A29067  35.256   9.464   8.777
 1962POPC   D2A29068  35.018   9.575   8.449
 1962POPC   C3A29069  35.204   9.497   8.086
 1962POPC   C4A29070  35.328   9.541   7.701
 1962POPC   C1B29071  35.361   9.966   8.779
 1962POPC   C2B29072  35.366   9.944   8.326
 1962POPC   C3B29073  35.246  10.011   7.912
 1962POPC   C4B29074  35.503  10.021   7.541
 1963POPC   NC329075   9.830  23.915   9.565
 1963POPC   PO429076   9.777  23.335   9.307
 1963POPC   GL129077   9.668  23.719   9.123
 1963POPC   GL229078   9.987  23.833   9.093
 1963POPC   C1A29079   9.542  23.712   8.718
 1963POPC   D2A29080   9.626  23.359   8.440
 1963POPC   C3A29081   9.721  23.593   8.079
 1963POPC   C4A29082   9.517  23.572   7.687
 1963POPC   C1B29083  10.023  23.517   8.743
 1963POPC   C2B29084  10.155  23.360   8.347
 1963POPC   C3B29085  10.217  23.469   7.947
 1963POPC   C4B29086  10.086  23.836   7.755
 1964POPC   NC329087   8.535  43.791   9.402
 1964POPC   PO429088   8.005  43.352   9.420
 1964POPC   GL129089   8.147  43.573   9.038
 1964POPC   GL229090   8.232  43.932   8.891
 1964POPC   C1A29091   8.292  43.518   8.615
 1964POPC   D2A29092   8.273  43.817   8.326
 1964POPC   C3A29093   8.097  43.674   7.984
 1964POPC   C4A29094   7.848  43.793   7.644
 1964POPC   C1B29095   8.472  44.313   8.795
 1964POPC   C2B29096   8.781  44.312   8.484
 1964POPC   C3B29097   8.647  44.115   8.149
 1964POPC   C4B29098   8.325  44.083   7.810
 1965POPC   NC329099  39.832  23.151   9.428
 1965POPC   PO429100  39.878  22.503   9.419
 1965POPC   GL129101  39.990  22.827   9.083
 1965POPC   GL229102  39.753  23.110   8.936
 1965POPC   C1A29103  40.190  22.965   8.730
 1965POPC   D2A29104  40.188  22.647   8.439
 1965POPC   C3A29105  39.940  22.688   8.118
 1965POPC   C4A29106  40.039  22.937   7.773
 1965POPC   C1B29107  39.690  22.743   8.659
 1965POPC   C2B29108  39.454  22.695   8.307
 1965POPC   C3B29109  39.536  22.942   7.944
 1965POPC   C4B29110  39.753  23.339   7.940
 1966POPC   NC329111  11.674  42.831   9.462
 1966POPC   PO429112  11.444  43.497   9.480
 1966POPC   GL129113  11.253  43.404   9.122
 1966POPC   GL229114  11.176  43.064   9.075
 1966POPC   C1A29115  11.369  43.427   8.726
 1966POPC   D2A29116  11.204  43.272   8.372
 1966POPC   C3A29117  11.371  43.248   7.971
 1966POPC   C4A29118  11.007  43.156   7.745
 1966POPC   C1B29119  11.023  42.713   8.814
 1966POPC   C2B29120  10.917  42.596   8.412
 1966POPC   C3B29121  11.089  42.816   8.114
 1966POPC   C4B29122  11.320  42.698   7.752
 1967POPC   NC329123   1.153  28.901   9.768
 1967POPC   PO429124   1.003  29.488   9.475
 1967POPC   GL129125   1.111  29.298   9.133
 1967POPC   GL229126   1.094  28.957   9.236
 1967POPC   C1A29127   1.229  29.286   8.713
 1967POPC   D2A29128   1.049  28.998   8.425
 1967POPC   C3A29129   1.005  29.163   8.034
 1967POPC   C4A29130   1.375  29.243   7.821
 1967POPC   C1B29131   1.332  28.798   8.864
 1967POPC   C2B29132   1.338  28.538   8.472
 1967POPC   C3B29133   1.296  28.703   8.020
 1967POPC   C4B29134   1.430  28.761   7.574
 1968POPC   NC329135  42.540  40.831   9.289
 1968POPC   PO429136  43.058  40.676   9.736
 1968POPC   GL129137  43.124  40.711   9.232
 1968POPC   GL229138  43.453  40.813   9.049
 1968POPC   C1A29139  43.035  40.844   8.774
 1968POPC   D2A29140  43.296  40.799   8.452
 1968POPC   C3A29141  43.263  40.496   8.153
 1968POPC   C4A29142  43.294  40.508   7.711
 1968POPC   C1B29143  43.545  41.168   8.720
 1968POPC   C2B29144  43.312  41.299   8.338
 1968POPC   C3B29145  43.226  41.012   7.979
 1968POPC   C4B29146  42.887  40.804   7.760
 1969POPC   NC329147  41.920  16.085   9.551
 1969POPC   PO429148  42.511  15.839   9.469
 1969POPC   GL129149  42.300  16.149   9.200
 1969POPC   GL229150  41.961  16.216   9.085
 1969POPC   C1A29151  42.373  16.284   8.773
 1969POPC   D2A29152  42.379  16.052   8.394
 1969POPC   C3A29153  42.569  16.252   8.041
 1969POPC   C4A29154  42.440  16.090   7.680
 1969POPC   C1B29155  42.043  15.879   8.825
 1969POPC   C2B29156  41.825  15.736   8.481
 1969POPC   C3B29157  42.016  15.768   8.106
 1969POPC   C4B29158  41.962  15.887   7.713
 1970POPC   NC329159  40.463  24.652   9.624
 1970POPC   PO429160  40.632  24.163   9.238
 1970POPC   GL129161  40.838  24.526   9.209
 1970POPC   GL229162  40.536  24.677   9.083
 1970POPC   C1A29163  41.090  24.722   8.892
 1970POPC   D2A29164  41.152  24.564   8.447
 1970POPC   C3A29165  40.858  24.517   8.096
 1970POPC   C4A29166  41.025  24.525   7.678
 1970POPC   C1B29167  40.673  24.548   8.661
 1970POPC   C2B29168  40.595  24.164   8.428
 1970POPC   C3B29169  40.535  24.025   8.007
 1970POPC   C4B29170  40.638  24.219   7.608
 1971POPC   NC329171  40.483   6.873   9.847
 1971POPC   PO429172  40.967   7.161   9.421
 1971POPC   GL129173  40.681   7.333   9.062
 1971POPC   GL229174  40.519   7.702   9.047
 1971POPC   C1A29175  40.841   7.467   8.702
 1971POPC   D2A29176  41.021   7.256   8.378
 1971POPC   C3A29177  41.050   7.420   8.004
 1971POPC   C4A29178  41.044   7.211   7.636
 1971POPC   C1B29179  40.292   7.466   8.727
 1971POPC   C2B29180  40.499   7.389   8.338
 1971POPC   C3B29181  40.549   7.259   7.940
 1971POPC   C4B29182  40.449   7.513   7.625
 1972POPC   NC329183  10.868   1.215   9.523
 1972POPC   PO429184  10.291   1.528   9.434
 1972POPC   GL129185  10.417   1.395   9.100
 1972POPC   GL229186  10.497   1.091   9.148
 1972POPC   C1A29187  10.478   1.268   8.678
 1972POPC   D2A29188  10.518   0.962   8.359
 1972POPC   C3A29189  10.555   1.147   7.937
 1972POPC   C4A29190  10.281   1.375   7.635
 1972POPC   C1B29191  10.179   0.829   8.870
 1972POPC   C2B29192  10.123   0.602   8.437
 1972POPC   C3B29193  10.185   0.770   8.015
 1972POPC   C4B29194  10.281   0.880   7.558
 1973POPC   NC329195  39.043  27.522   9.574
 1973POPC   PO429196  39.479  27.108   9.310
 1973POPC   GL129197  39.363  27.593   9.139
 1973POPC   GL229198  38.994  27.749   9.120
 1973POPC   C1A29199  39.269  27.822   8.718
 1973POPC   D2A29200  39.132  27.703   8.298
 1973POPC   C3A29201  39.347  27.717   7.883
 1973POPC   C4A29202  39.387  27.391   7.566
 1973POPC   C1B29203  38.805  27.556   8.756
 1973POPC   C2B29204  38.774  27.346   8.334
 1973POPC   C3B29205  38.702  27.485   7.931
 1973POPC   C4B29206  38.910  27.708   7.637
 1974POPC   NC329207  13.304  43.566   9.497
 1974POPC   PO429208  13.803  44.092   9.447
 1974POPC   GL129209  13.549  44.114   9.009
 1974POPC   GL229210  13.190  44.024   9.037
 1974POPC   C1A29211  13.447  44.024   8.545
 1974POPC   D2A29212  13.587  44.175   8.127
 1974POPC   C3A29213  13.674  43.859   7.813
 1974POPC   C4A29214  13.993  43.800   7.473
 1974POPC   C1B29215  13.219  43.627   8.833
 1974POPC   C2B29216  13.428  43.491   8.459
 1974POPC   C3B29217  13.353  43.410   8.021
 1974POPC   C4B29218  13.207  43.627   7.699
 1975POPC   NC329219  41.736  17.666   9.488
 1975POPC   PO429220  41.291  17.337   9.653
 1975POPC   GL129221  41.291  17.478   9.216
 1975POPC   GL229222  41.622  17.378   9.096
 1975POPC   C1A29223  41.344  17.635   8.770
 1975POPC   D2A29224  41.739  17.477   8.595
 1975POPC   C3A29225  41.876  17.471   8.180
 1975POPC   C4A29226  41.717  17.516   7.771
 1975POPC   C1B29227  41.387  17.111   8.810
 1975POPC   C2B29228  41.288  17.226   8.430
 1975POPC   C3B29229  41.480  17.143   8.049
 1975POPC   C4B29230  41.310  17.256   7.641
 1976POPC   NC329231  19.650  29.018   9.602
 1976POPC   PO429232  20.207  29.459   9.683
 1976POPC   GL129233  19.955  29.281   9.294
 1976POPC   GL229234  19.605  29.379   9.239
 1976POPC   C1A29235  19.833  28.980   8.922
 1976POPC   D2A29236  20.043  28.857   8.514
 1976POPC   C3A29237  19.917  28.969   8.062
 1976POPC   C4A29238  20.093  29.086   7.632
 1976POPC   C1B29239  19.755  29.479   8.831
 1976POPC   C2B29240  19.765  29.300   8.437
 1976POPC   C3B29241  19.744  29.450   8.011
 1976POPC   C4B29242  19.605  29.186   7.699
 1977POPC   NC329243  19.280  38.081   9.470
 1977POPC   PO429244  19.745  38.485   9.624
 1977POPC   GL129245  19.791  38.152   9.278
 1977POPC   GL229246  20.098  38.232   9.098
 1977POPC   C1A29247  19.678  38.029   8.816
 1977POPC   D2A29248  19.677  38.063   8.324
 1977POPC   C3A29249  19.570  38.446   8.015
 1977POPC   C4A29250  19.450  38.686   7.617
 1977POPC   C1B29251  20.111  38.627   8.799
 1977POPC   C2B29252  20.235  38.805   8.342
 1977POPC   C3B29253  20.076  38.633   7.932
 1977POPC   C4B29254  19.986  38.169   7.920
 1978POPC   NC329255  10.964   5.871   9.448
 1978POPC   PO429256  10.335   5.894   9.613
 1978POPC   GL129257  10.460   6.106   9.245
 1978POPC   GL229258  10.744   6.348   9.282
 1978POPC   C1A29259  10.386   5.902   8.873
 1978POPC   D2A29260  10.334   5.622   8.521
 1978POPC   C3A29261  10.396   5.864   8.127
 1978POPC   C4A29262  10.264   5.962   7.702
 1978POPC   C1B29263  10.830   6.182   8.871
 1978POPC   C2B29264  10.772   5.896   8.555
 1978POPC   C3B29265  10.916   5.841   8.185
 1978POPC   C4B29266  10.802   5.761   7.805
 1979POPC   NC329267  34.836  23.416   9.504
 1979POPC   PO429268  34.179  23.481   9.485
 1979POPC   GL129269  34.480  23.477   9.092
 1979POPC   GL229270  34.807  23.682   9.077
 1979POPC   C1A29271  34.611  23.491   8.632
 1979POPC   D2A29272  34.713  23.293   8.230
 1979POPC   C3A29273  34.553  23.510   7.889
 1979POPC   C4A29274  34.782  23.612   7.538
 1979POPC   C1B29275  34.936  23.935   8.714
 1979POPC   C2B29276  34.928  23.821   8.269
 1979POPC   C3B29277  34.712  24.001   7.907
 1979POPC   C4B29278  34.792  24.128   7.487
 1980POPC   NC329279  38.928  20.645   9.544
 1980POPC   PO429280  39.449  20.313   9.333
 1980POPC   GL129281  39.172  20.585   9.106
 1980POPC   GL229282  38.794  20.450   9.108
 1980POPC   C1A29283  39.290  20.845   8.762
 1980POPC   D2A29284  39.397  20.979   8.357
 1980POPC   C3A29285  39.212  20.765   8.040
 1980POPC   C4A29286  39.399  20.778   7.671
 1980POPC   C1B29287  38.787  20.591   8.745
 1980POPC   C2B29288  38.929  20.508   8.370
 1980POPC   C3B29289  38.812  20.391   7.995
 1980POPC   C4B29290  38.913  20.603   7.624
 1981POPC   NC329291   7.309  34.865   9.515
 1981POPC   PO429292   7.648  34.345   9.624
 1981POPC   GL129293   7.565  34.256   9.193
 1981POPC   GL229294   7.282  34.509   9.100
 1981POPC   C1A29295   7.642  34.265   8.763
 1981POPC   D2A29296   7.647  34.576   8.436
 1981POPC   C3A29297   7.509  34.473   8.020
 1981POPC   C4A29298   7.500  34.200   7.686
 1981POPC   C1B29299   7.049  34.720   8.750
 1981POPC   C2B29300   7.160  34.761   8.334
 1981POPC   C3B29301   7.468  34.960   8.120
 1981POPC   C4B29302   7.358  34.868   7.717
 1982POPC   NC329303  39.658  20.742   9.331
 1982POPC   PO429304  40.236  20.831   9.667
 1982POPC   GL129305  40.153  20.576   9.169
 1982POPC   GL229306  39.882  20.375   9.078
 1982POPC   C1A29307  40.182  20.626   8.703
 1982POPC   D2A29308  40.395  20.826   8.371
 1982POPC   C3A29309  40.213  20.674   8.013
 1982POPC   C4A29310  39.947  20.895   7.744
 1982POPC   C1B29311  39.683  20.506   8.707
 1982POPC   C2B29312  39.890  20.384   8.348
 1982POPC   C3B29313  39.706  20.552   8.020
 1982POPC   C4B29314  39.750  20.436   7.590
 1983POPC   NC329315   5.289  32.299   9.573
 1983POPC   PO429316   4.673  32.246   9.443
 1983POPC   GL129317   5.009  32.160   9.163
 1983POPC   GL229318   5.391  32.059   9.148
 1983POPC   C1A29319   5.114  32.313   8.761
 1983POPC   D2A29320   5.297  32.418   8.380
 1983POPC   C3A29321   4.963  32.351   8.120
 1983POPC   C4A29322   5.058  32.386   7.729
 1983POPC   C1B29323   5.168  31.808   8.824
 1983POPC   C2B29324   5.178  31.901   8.397
 1983POPC   C3B29325   5.319  32.019   8.015
 1983POPC   C4B29326   5.085  31.858   7.710
 1984POPC   NC329327  31.752   4.985   9.498
 1984POPC   PO429328  31.142   5.310   9.511
 1984POPC   GL129329  31.318   5.244   9.115
 1984POPC   GL229330  31.623   5.337   9.140
 1984POPC   C1A29331  31.519   4.929   8.831
 1984POPC   D2A29332  31.634   4.720   8.443
 1984POPC   C3A29333  31.610   4.899   8.039
 1984POPC   C4A29334  31.482   4.954   7.634
 1984POPC   C1B29335  31.803   5.426   8.775
 1984POPC   C2B29336  31.747   5.249   8.395
 1984POPC   C3B29337  31.906   5.362   8.008
 1984POPC   C4B29338  31.923   5.246   7.615
 1985POPC   NC329339  15.327   9.332   9.450
 1985POPC   PO429340  15.217   8.638   9.439
 1985POPC   GL129341  15.106   8.953   9.126
 1985POPC   GL229342  15.377   9.157   8.994
 1985POPC   C1A29343  15.069   8.833   8.693
 1985POPC   D2A29344  15.199   8.525   8.396
 1985POPC   C3A29345  14.979   8.652   8.050
 1985POPC   C4A29346  14.930   9.028   7.812
 1985POPC   C1B29347  15.064   9.347   8.742
 1985POPC   C2B29348  15.083   9.249   8.293
 1985POPC   C3B29349  15.310   9.343   7.905
 1985POPC   C4B29350  15.353   9.089   7.527
 1986POPC   NC329351   8.842   4.943   9.474
 1986POPC   PO429352   8.591   5.470   9.388
 1986POPC   GL129353   8.858   5.295   9.076
 1986POPC   GL229354   8.765   4.924   8.967
 1986POPC   C1A29355   9.010   5.280   8.655
 1986POPC   D2A29356   8.883   5.057   8.317
 1986POPC   C3A29357   9.006   5.226   7.934
 1986POPC   C4A29358   8.753   4.986   7.688
 1986POPC   C1B29359   9.148   4.799   8.770
 1986POPC   C2B29360   9.173   4.584   8.387
 1986POPC   C3B29361   9.141   4.733   7.986
 1986POPC   C4B29362   9.453   4.969   7.772
 1987POPC   NC329363  22.700  43.122   9.553
 1987POPC   PO429364  23.336  43.476   9.323
 1987POPC   GL129365  23.061  43.306   9.106
 1987POPC   GL229366  22.994  43.040   9.152
 1987POPC   C1A29367  22.867  43.322   8.714
 1987POPC   D2A29368  23.042  43.276   8.348
 1987POPC   C3A29369  22.856  43.354   7.976
 1987POPC   C4A29370  22.655  43.086   7.682
 1987POPC   C1B29371  23.330  42.915   8.857
 1987POPC   C2B29372  23.499  42.820   8.449
 1987POPC   C3B29373  23.326  42.972   8.059
 1987POPC   C4B29374  23.201  43.131   7.669
 1988POPC   NC329375  43.925  29.371   9.551
 1988POPC   PO429376  43.524  29.885   9.459
 1988POPC   GL129377  43.791  29.682   9.163
 1988POPC   GL229378  43.524  29.715   8.926
 1988POPC   C1A29379  44.001  29.850   8.800
 1988POPC   D2A29380  43.713  30.009   8.457
 1988POPC   C3A29381  43.743  29.887   8.039
 1988POPC   C4A29382  44.127  29.835   7.782
 1988POPC   C1B29383  43.644  30.215   8.911
 1988POPC   C2B29384  43.650  30.509   8.560
 1988POPC   C3B29385  43.660  30.405   8.123
 1988POPC   C4B29386  43.856  30.271   7.735
 1989POPC   NC329387   0.069  34.328   9.693
 1989POPC   PO429388  44.587  34.601   9.692
 1989POPC   GL129389  44.757  34.583   9.214
 1989POPC   GL229390   0.026  34.311   9.173
 1989POPC   C1A29391  44.614  34.738   8.752
 1989POPC   D2A29392  44.476  34.866   8.321
 1989POPC   C3A29393  44.652  34.823   7.885
 1989POPC   C4A29394  44.392  34.706   7.507
 1989POPC   C1B29395  44.882  34.318   8.725
 1989POPC   C2B29396  44.808  34.489   8.297
 1989POPC   C3B29397  44.800  34.300   7.884
 1989POPC   C4B29398  44.536  34.207   7.516
 1990POPC   NC329399   5.384   7.851   9.647
 1990POPC   PO429400   4.929   7.392   9.649
 1990POPC   GL129401   5.057   7.626   9.288
 1990POPC   GL229402   5.427   7.646   9.192
 1990POPC   C1A29403   4.916   7.413   8.902
 1990POPC   D2A29404   5.065   7.322   8.505
 1990POPC   C3A29405   4.774   7.253   8.160
 1990POPC   C4A29406   4.903   7.255   7.736
 1990POPC   C1B29407   5.240   7.785   8.833
 1990POPC   C2B29408   5.270   7.791   8.420
 1990POPC   C3B29409   5.145   7.610   8.049
 1990POPC   C4B29410   5.262   7.650   7.631
 1991POPC   NC329411  42.623   2.187   9.412
 1991POPC   PO429412  42.322   1.584   9.442
 1991POPC   GL129413  42.320   1.866   9.108
 1991POPC   GL229414  42.648   1.763   9.056
 1991POPC   C1A29415  42.049   1.995   8.771
 1991POPC   D2A29416  41.993   1.859   8.354
 1991POPC   C3A29417  42.287   2.076   8.106
 1991POPC   C4A29418  42.256   2.132   7.680
 1991POPC   C1B29419  42.809   1.487   8.741
 1991POPC   C2B29420  42.938   1.599   8.323
 1991POPC   C3B29421  42.759   1.835   7.977
 1991POPC   C4B29422  42.695   1.888   7.547
 1992POPC   NC329423  42.543   4.527   9.664
 1992POPC   PO429424  42.130   4.056   9.514
 1992POPC   GL129425  42.218   4.305   9.187
 1992POPC   GL229426  42.160   3.990   8.975
 1992POPC   C1A29427  42.020   4.457   8.837
 1992POPC   D2A29428  41.982   4.214   8.487
 1992POPC   C3A29429  42.130   4.263   8.086
 1992POPC   C4A29430  42.026   4.462   7.701
 1992POPC   C1B29431  42.501   4.199   8.738
 1992POPC   C2B29432  42.787   4.347   8.401
 1992POPC   C3B29433  42.704   4.206   8.036
 1992POPC   C4B29434  42.475   4.210   7.702
 1993POPC   NC329435  30.222  33.034   9.364
 1993POPC   PO429436  29.712  33.416   9.565
 1993POPC   GL129437  29.774  33.146   9.128
 1993POPC   GL229438  29.982  32.786   9.012
 1993POPC   C1A29439  29.862  33.124   8.663
 1993POPC   D2A29440  30.093  33.124   8.277
 1993POPC   C3A29441  29.822  33.150   7.917
 1993POPC   C4A29442  29.864  33.048   7.466
 1993POPC   C1B29443  30.284  32.772   8.626
 1993POPC   C2B29444  30.426  32.722   8.174
 1993POPC   C3B29445  30.228  32.881   7.794
 1993POPC   C4B29446  30.309  32.821   7.371
 1994POPC   NC329447  34.371  12.782   9.475
 1994POPC   PO429448  35.045  12.773   9.454
 1994POPC   GL129449  34.739  12.902   9.129
 1994POPC   GL229450  34.397  13.018   9.041
 1994POPC   C1A29451  34.601  12.687   8.747
 1994POPC   D2A29452  34.771  12.763   8.387
 1994POPC   C3A29453  34.582  12.708   8.003
 1994POPC   C4A29454  34.804  12.535   7.685
 1994POPC   C1B29455  34.385  13.204   8.674
 1994POPC   C2B29456  34.288  12.982   8.347
 1994POPC   C3B29457  34.346  13.152   7.976
 1994POPC   C4B29458  34.112  13.153   7.629
 1995POPC   NC329459  37.050  33.180   9.360
 1995POPC   PO429460  36.496  32.773   9.453
 1995POPC   GL129461  36.618  33.031   9.128
 1995POPC   GL229462  36.923  32.824   8.995
 1995POPC   C1A29463  36.686  33.203   8.738
 1995POPC   D2A29464  36.816  32.946   8.402
 1995POPC   C3A29465  36.707  33.122   8.026
 1995POPC   C4A29466  36.700  32.848   7.701
 1995POPC   C1B29467  37.195  33.104   8.721
 1995POPC   C2B29468  37.329  33.081   8.301
 1995POPC   C3B29469  37.157  32.850   7.976
 1995POPC   C4B29470  37.097  33.187   7.703
 1996POPC   NC329471  30.379   1.946   9.463
 1996POPC   PO429472  29.858   1.603   9.707
 1996POPC   GL129473  29.892   1.582   9.240
 1996POPC   GL229474  29.579   1.601   9.054
 1996POPC   C1A29475  29.977   1.901   8.889
 1996POPC   D2A29476  29.835   2.238   8.580
 1996POPC   C3A29477  29.883   2.129   8.158
 1996POPC   C4A29478  29.892   1.907   7.745
 1996POPC   C1B29479  29.530   1.788   8.625
 1996POPC   C2B29480  29.608   1.676   8.154
 1996POPC   C3B29481  29.425   1.675   7.724
 1996POPC   C4B29482  29.496   1.801   7.260
 1997POPC   NC329483   4.703  32.689   9.353
 1997POPC   PO429484   4.219  32.225   9.705
 1997POPC   GL129485   4.231  32.366   9.229
 1997POPC   GL229486   4.360  32.064   9.098
 1997POPC   C1A29487   3.992  32.223   8.806
 1997POPC   D2A29488   3.901  32.208   8.351
 1997POPC   C3A29489   4.283  32.299   8.074
 1997POPC   C4A29490   4.588  32.566   7.840
 1997POPC   C1B29491   4.666  31.941   8.818
 1997POPC   C2B29492   4.692  32.043   8.404
 1997POPC   C3B29493   4.624  31.933   7.967
 1997POPC   C4B29494   4.671  32.073   7.532
 1998POPC   NC329495   0.573   1.864   9.484
 1998POPC   PO429496   0.241   2.565   9.472
 1998POPC   GL129497   0.215   2.297   9.116
 1998POPC   GL229498   0.354   1.989   9.034
 1998POPC   C1A29499   0.164   2.322   8.687
 1998POPC   D2A29500   0.285   1.934   8.463
 1998POPC   C3A29501   0.202   1.939   7.989
 1998POPC   C4A29502   0.619   1.925   7.799
 1998POPC   C1B29503   0.583   1.675   8.842
 1998POPC   C2B29504   0.557   1.399   8.527
 1998POPC   C3B29505   0.366   1.510   8.183
 1998POPC   C4B29506   0.364   1.484   7.774
 1999POPC   NC329507   0.387  43.038   9.530
 1999POPC   PO429508   0.277  43.673   9.341
 1999POPC   GL129509   0.301  43.279   9.076
 1999POPC   GL229510   0.611  43.040   9.075
 1999POPC   C1A29511   0.188  42.910   8.792
 1999POPC   D2A29512   0.261  42.725   8.372
 1999POPC   C3A29513   0.344  43.017   8.021
 1999POPC   C4A29514   0.197  43.319   7.691
 1999POPC   C1B29515   0.625  43.224   8.683
 1999POPC   C2B29516   0.812  43.219   8.294
 1999POPC   C3B29517   0.680  43.391   7.900
 1999POPC   C4B29518   0.649  43.099   7.560
 2000POPC   NC329519   8.409   1.356   9.517
 2000POPC   PO429520   7.899   0.871   9.392
 2000POPC   GL129521   8.130   1.124   9.119
 2000POPC   GL229522   8.484   1.070   9.109
 2000POPC   C1A29523   8.062   1.374   8.750
 2000POPC   D2A29524   7.776   1.476   8.419
 2000POPC   C3A29525   7.972   1.528   8.017
 2000POPC   C4A29526   8.071   1.276   7.687
 2000POPC   C1B29527   8.566   1.367   8.820
 2000POPC   C2B29528   8.555   1.251   8.404
 2000POPC   C3B29529   8.519   1.403   8.005
 2000POPC   C4B29530   8.468   1.575   7.584
 2001POPC   NC329531  14.771  36.772   9.416
 2001POPC   PO429532  15.452  36.933   9.500
 2001POPC   GL129533  15.179  36.876   9.134
 2001POPC   GL229534  15.107  36.506   9.100
 2001POPC   C1A29535  14.866  36.871   8.753
 2001POPC   D2A29536  14.759  36.714   8.322
 2001POPC   C3A29537  14.819  37.015   7.959
 2001POPC   C4A29538  14.826  37.264   7.580
 2001POPC   C1B29539  15.334  36.657   8.718
 2001POPC   C2B29540  15.237  36.901   8.347
 2001POPC   C3B29541  15.253  36.742   7.942
 2001POPC   C4B29542  15.480  36.833   7.569
 2002POPC   NC329543  23.280  15.932   9.650
 2002POPC   PO429544  23.962  15.855   9.656
 2002POPC   GL129545  23.771  16.070   9.259
 2002POPC   GL229546  23.496  16.305   9.171
 2002POPC   C1A29547  23.824  16.112   8.782
 2002POPC   D2A29548  23.621  16.165   8.353
 2002POPC   C3A29549  23.764  16.017   7.931
 2002POPC   C4A29550  23.570  16.191   7.537
 2002POPC   C1B29551  23.398  15.896   8.936
 2002POPC   C2B29552  23.481  15.685   8.503
 2002POPC   C3B29553  23.365  15.732   8.040
 2002POPC   C4B29554  23.208  15.855   7.635
 2003POPC   NC329555  27.659  20.104   9.497
 2003POPC   PO429556  27.956  19.475   9.534
 2003POPC   GL129557  27.793  19.553   9.152
 2003POPC   GL229558  27.603  19.843   9.081
 2003POPC   C1A29559  27.725  19.517   8.731
 2003POPC   D2A29560  27.659  19.828   8.484
 2003POPC   C3A29561  27.655  19.643   8.123
 2003POPC   C4A29562  27.463  19.719   7.796
 2003POPC   C1B29563  27.301  20.088   8.889
 2003POPC   C2B29564  27.141  20.002   8.515
 2003POPC   C3B29565  27.257  20.052   8.127
 2003POPC   C4B29566  27.291  20.178   7.703
 2004POPC   NC329567  27.494  19.333   9.538
 2004POPC   PO429568  27.911  18.764   9.543
 2004POPC   GL129569  27.807  19.047   9.214
 2004POPC   GL229570  27.464  18.980   9.163
 2004POPC   C1A29571  27.757  18.995   8.759
 2004POPC   D2A29572  27.772  19.179   8.350
 2004POPC   C3A29573  27.782  18.855   8.066
 2004POPC   C4A29574  27.513  18.738   7.730
 2004POPC   C1B29575  27.295  19.331   8.910
 2004POPC   C2B29576  27.270  19.482   8.467
 2004POPC   C3B29577  27.301  19.253   8.090
 2004POPC   C4B29578  27.187  19.324   7.679
 2005POPC   NC329579  27.223  32.447   9.392
 2005POPC   PO429580  27.769  31.996   9.522
 2005POPC   GL129581  27.639  32.215   9.156
 2005POPC   GL229582  27.871  32.463   9.005
 2005POPC   C1A29583  27.616  32.054   8.729
 2005POPC   D2A29584  27.390  31.952   8.344
 2005POPC   C3A29585  27.569  31.902   7.926
 2005POPC   C4A29586  27.348  31.843   7.508
 2005POPC   C1B29587  27.468  32.570   8.793
 2005POPC   C2B29588  27.296  32.725   8.406
 2005POPC   C3B29589  27.121  32.573   8.006
 2005POPC   C4B29590  27.379  32.332   7.716
 2006POPC   NC329591  15.902  25.079   9.545
 2006POPC   PO429592  16.314  25.483   9.427
 2006POPC   GL129593  16.124  25.252   9.104
 2006POPC   GL229594  15.754  25.274   9.064
 2006POPC   C1A29595  16.110  25.191   8.672
 2006POPC   D2A29596  16.239  25.347   8.288
 2006POPC   C3A29597  15.966  25.206   7.970
 2006POPC   C4A29598  15.645  24.976   7.782
 2006POPC   C1B29599  15.521  25.523   8.713
 2006POPC   C2B29600  15.444  25.551   8.224
 2006POPC   C3B29601  15.671  25.572   7.796
 2006POPC   C4B29602  15.724  25.750   7.358
 2007POPC   NC329603   9.227  22.824   9.546
 2007POPC   PO429604   8.513  22.610   9.437
 2007POPC   GL129605   8.759  22.823   9.132
 2007POPC   GL229606   9.112  22.754   9.043
 2007POPC   C1A29607   8.813  22.977   8.725
 2007POPC   D2A29608   8.703  22.787   8.316
 2007POPC   C3A29609   9.002  22.750   7.970
 2007POPC   C4A29610   8.865  22.931   7.587
 2007POPC   C1B29611   9.167  22.659   8.587
 2007POPC   C2B29612   9.148  23.076   8.363
 2007POPC   C3B29613   9.332  23.216   8.017
 2007POPC   C4B29614   9.383  23.006   7.661
 2008POPC   NC329615  13.543  17.145   9.957
 2008POPC   PO429616  13.385  17.776   9.573
 2008POPC   GL129617  13.651  17.671   9.164
 2008POPC   GL229618  13.378  17.611   9.008
 2008POPC   C1A29619  13.827  17.558   8.750
 2008POPC   D2A29620  13.474  17.606   8.445
 2008POPC   C3A29621  13.480  17.774   8.029
 2008POPC   C4A29622  13.424  18.151   7.775
 2008POPC   C1B29623  13.253  17.285   8.770
 2008POPC   C2B29624  13.185  17.032   8.387
 2008POPC   C3B29625  13.450  17.023   8.030
 2008POPC   C4B29626  13.575  17.357   7.748
 2009POPC   NC329627   4.692  21.539   9.526
 2009POPC   PO429628   3.990  21.225   9.513
 2009POPC   GL129629   4.115  21.456   9.156
 2009POPC   GL229630   4.454  21.341   9.103
 2009POPC   C1A29631   4.066  21.335   8.717
 2009POPC   D2A29632   3.918  21.223   8.300
 2009POPC   C3A29633   3.995  21.387   7.854
 2009POPC   C4A29634   4.051  21.370   7.379
 2009POPC   C1B29635   4.544  21.634   8.786
 2009POPC   C2B29636   4.714  21.687   8.378
 2009POPC   C3B29637   4.459  21.482   8.072
 2009POPC   C4B29638   4.359  21.702   7.697
 2010POPC   NC329639  40.312   0.801   9.561
 2010POPC   PO429640  40.076   0.133   9.627
 2010POPC   GL129641  40.125   0.340   9.223
 2010POPC   GL229642  39.962   0.676   9.183
 2010POPC   C1A29643  40.082   0.365   8.763
 2010POPC   D2A29644  39.847   0.163   8.410
 2010POPC   C3A29645  40.001   0.279   8.003
 2010POPC   C4A29646  39.717   0.475   7.754
 2010POPC   C1B29647  40.037   0.875   8.771
 2010POPC   C2B29648  40.075   0.682   8.336
 2010POPC   C3B29649  40.065   0.811   7.910
 2010POPC   C4B29650  40.044   0.717   7.468
 2011POPC   NC329651   0.099  41.746   9.517
 2011POPC   PO429652   0.680  41.310   9.485
 2011POPC   GL129653   0.441  41.363   9.138
 2011POPC   GL229654   0.462  41.715   9.133
 2011POPC   C1A29655   0.540  41.481   8.691
 2011POPC   D2A29656   0.341  41.813   8.454
 2011POPC   C3A29657   0.182  41.809   8.055
 2011POPC   C4A29658   0.380  41.700   7.675
 2011POPC   C1B29659   0.070  41.668   8.877
 2011POPC   C2B29660  44.844  41.670   8.477
 2011POPC   C3B29661  44.829  41.402   8.124
 2011POPC   C4B29662   0.103  41.294   7.806
 2012POPC   NC329663  34.991  11.530   9.452
 2012POPC   PO429664  35.681  11.223   9.474
 2012POPC   GL129665  35.472  11.217   9.128
 2012POPC   GL229666  35.169  11.054   9.223
 2012POPC   C1A29667  35.336  11.508   8.830
 2012POPC   D2A29668  35.171  11.515   8.419
 2012POPC   C3A29669  35.415  11.425   8.046
 2012POPC   C4A29670  35.306  11.423   7.617
 2012POPC   C1B29671  35.066  11.075   8.774
 2012POPC   C2B29672  35.201  11.002   8.330
 2012POPC   C3B29673  35.135  11.031   7.874
 2012POPC   C4B29674  35.320  10.942   7.450
 2013POPC   NC329675  11.395  27.051   9.423
 2013POPC   PO429676  10.969  26.601   9.704
 2013POPC   GL129677  11.130  26.642   9.230
 2013POPC   GL229678  11.042  26.977   9.097
 2013POPC   C1A29679  11.367  26.746   8.805
 2013POPC   D2A29680  11.537  26.859   8.403
 2013POPC   C3A29681  11.241  26.745   8.120
 2013POPC   C4A29682  11.224  26.720   7.695
 2013POPC   C1B29683  11.069  27.183   8.730
 2013POPC   C2B29684  10.836  27.036   8.374
 2013POPC   C3B29685  10.880  27.073   7.943
 2013POPC   C4B29686  11.083  27.203   7.584
 2014POPC   NC329687  39.634   0.067   9.550
 2014POPC   PO429688  39.188   0.558   9.449
 2014POPC   GL129689  39.127   0.398   9.045
 2014POPC   GL229690  39.339   0.118   9.149
 2014POPC   C1A29691  39.030   0.641   8.680
 2014POPC   D2A29692  39.112   0.669   8.255
 2014POPC   C3A29693  38.936   0.425   7.922
 2014POPC   C4A29694  39.247   0.633   7.727
 2014POPC   C1B29695  39.579   0.271   8.847
 2014POPC   C2B29696  39.325   0.259   8.509
 2014POPC   C3B29697  39.409   0.264   8.101
 2014POPC   C4B29698  39.343   0.117   7.702
 2015POPC   NC329699  29.548  41.401   9.738
 2015POPC   PO429700  29.678  41.686   9.322
 2015POPC   GL129701  29.911  41.617   8.994
 2015POPC   GL229702  30.129  41.877   9.108
 2015POPC   C1A29703  29.905  41.524   8.550
 2015POPC   D2A29704  29.648  41.617   8.211
 2015POPC   C3A29705  29.724  41.497   7.777
 2015POPC   C4A29706  29.737  41.255   7.350
 2015POPC   C1B29707  30.299  41.827   8.687
 2015POPC   C2B29708  30.329  41.633   8.263
 2015POPC   C3B29709  30.227  41.385   7.901
 2015POPC   C4B29710  30.213  41.078   7.539
 2016POPC   NC329711  28.372  33.214   9.423
 2016POPC   PO429712  28.414  32.669   9.632
 2016POPC   GL129713  28.226  32.795   9.196
 2016POPC   GL229714  28.560  32.778   9.107
 2016POPC   C1A29715  28.297  33.093   8.804
 2016POPC   D2A29716  28.534  33.098   8.428
 2016POPC   C3A29717  28.268  33.250   8.112
 2016POPC   C4A29718  27.952  33.129   7.807
 2016POPC   C1B29719  28.329  32.584   8.744
 2016POPC   C2B29720  28.537  32.554   8.378
 2016POPC   C3B29721  28.558  32.759   8.015
 2016POPC   C4B29722  28.210  32.674   7.781
 2017POPC   NC329723   4.905  33.442   9.516
 2017POPC   PO429724   5.151  32.773   9.518
 2017POPC   GL129725   5.033  33.051   9.163
 2017POPC   GL229726   5.191  33.379   9.115
 2017POPC   C1A29727   4.920  32.913   8.730
 2017POPC   D2A29728   4.688  32.783   8.354
 2017POPC   C3A29729   4.986  32.843   8.028
 2017POPC   C4A29730   4.957  32.919   7.606
 2017POPC   C1B29731   4.873  33.413   8.796
 2017POPC   C2B29732   4.848  33.283   8.336
 2017POPC   C3B29733   5.118  33.322   7.939
 2017POPC   C4B29734   5.190  33.453   7.457
 2018POPC   NC329735   4.541  41.897   9.611
 2018POPC   PO429736   4.605  42.541   9.341
 2018POPC   GL129737   4.351  42.214   9.181
 2018POPC   GL229738   3.984  42.311   9.141
 2018POPC   C1A29739   4.267  42.209   8.732
 2018POPC   D2A29740   4.020  42.231   8.333
 2018POPC   C3A29741   4.262  42.111   7.951
 2018POPC   C4A29742   4.709  42.068   7.893
 2018POPC   C1B29743   3.876  42.569   8.725
 2018POPC   C2B29744   3.853  42.726   8.282
 2018POPC   C3B29745   4.231  42.720   8.013
 2018POPC   C4B29746   4.525  42.540   7.731
 2019POPC   NC329747   4.028  20.073   9.497
 2019POPC   PO429748   3.390  19.702   9.394
 2019POPC   GL129749   3.484  19.626   8.979
 2019POPC   GL229750   3.817  19.812   8.988
 2019POPC   C1A29751   3.663  19.406   8.649
 2019POPC   D2A29752   3.737  19.588   8.258
 2019POPC   C3A29753   3.459  19.491   7.953
 2019POPC   C4A29754   3.422  19.764   7.667
 2019POPC   C1B29755   3.823  20.192   8.747
 2019POPC   C2B29756   3.728  20.213   8.295
 2019POPC   C3B29757   3.851  19.978   7.907
 2019POPC   C4B29758   3.807  20.007   7.451
 2020POPC   NC329759  43.257  30.677   9.586
 2020POPC   PO429760  42.703  30.951   9.321
 2020POPC   GL129761  43.100  30.866   9.119
 2020POPC   GL229762  43.462  30.976   9.212
 2020POPC   C1A29763  43.162  30.581   8.765
 2020POPC   D2A29764  43.214  30.351   8.360
 2020POPC   C3A29765  43.094  30.547   7.974
 2020POPC   C4A29766  43.044  30.948   7.820
 2020POPC   C1B29767  43.466  31.012   8.771
 2020POPC   C2B29768  43.284  30.901   8.368
 2020POPC   C3B29769  43.515  30.888   8.002
 2020POPC   C4B29770  43.506  30.622   7.690
 2021POPC   NC329771  44.954  17.066   9.671
 2021POPC   PO429772  44.450  17.451   9.620
 2021POPC   GL129773  44.633  17.604   9.168
 2021POPC   GL229774  44.934  17.835   9.132
 2021POPC   C1A29775  44.759  17.648   8.713
 2021POPC   D2A29776  44.588  17.526   8.353
 2021POPC   C3A29777  44.621  17.258   8.062
 2021POPC   C4A29778  44.336  17.337   7.801
 2021POPC   C1B29779   0.218  17.854   8.739
 2021POPC   C2B29780   0.284  17.860   8.319
 2021POPC   C3B29781   0.018  17.600   8.111
 2021POPC   C4B29782  44.688  17.688   7.803
 2022POPC   NC329783  29.783  32.154   9.550
 2022POPC   PO429784  30.288  32.563   9.371
 2022POPC   GL129785  30.069  32.252   9.127
 2022POPC   GL229786  29.701  32.344   9.103
 2022POPC   C1A29787  30.016  32.315   8.691
 2022POPC   D2A29788  30.140  32.320   8.302
 2022POPC   C3A29789  29.931  32.643   8.154
 2022POPC   C4A29790  29.772  32.652   7.792
 2022POPC   C1B29791  29.631  32.017   8.809
 2022POPC   C2B29792  29.448  32.104   8.425
 2022POPC   C3B29793  29.640  32.213   8.062
 2022POPC   C4B29794  29.836  32.010   7.771
 2023POPC   NC329795  27.553   5.290   9.858
 2023POPC   PO429796  27.649   4.934   9.309
 2023POPC   GL129797  27.607   5.004   8.979
 2023POPC   GL229798  27.216   4.975   8.967
 2023POPC   C1A29799  27.882   4.940   8.639
 2023POPC   D2A29800  27.727   5.085   8.271
 2023POPC   C3A29801  27.899   4.979   7.909
 2023POPC   C4A29802  27.718   5.117   7.553
 2023POPC   C1B29803  27.353   5.214   8.597
 2023POPC   C2B29804  27.239   5.512   8.281
 2023POPC   C3B29805  27.408   5.340   7.919
 2023POPC   C4B29806  27.214   5.012   7.663
 2024POPC   NC329807  37.057  16.976   9.757
 2024POPC   PO429808  37.639  16.792   9.461
 2024POPC   GL129809  37.771  16.689   9.068
 2024POPC   GL229810  37.951  16.382   9.108
 2024POPC   C1A29811  37.495  16.787   8.698
 2024POPC   D2A29812  37.269  16.697   8.304
 2024POPC   C3A29813  37.549  16.801   7.966
 2024POPC   C4A29814  37.615  16.670   7.553
 2024POPC   C1B29815  37.779  16.351   8.713
 2024POPC   C2B29816  37.745  16.483   8.315
 2024POPC   C3B29817  37.809  16.340   7.912
 2024POPC   C4B29818  37.982  16.331   7.493
 2025POPC   NC329819  37.765   4.552   9.598
 2025POPC   PO429820  37.162   4.228   9.659
 2025POPC   GL129821  37.474   4.319   9.272
 2025POPC   GL229822  37.713   4.040   9.110
 2025POPC   C1A29823  37.652   4.482   8.910
 2025POPC   D2A29824  37.590   4.287   8.533
 2025POPC   C3A29825  37.658   4.446   8.165
 2025POPC   C4A29826  37.474   4.364   7.807
 2025POPC   C1B29827  38.016   4.141   8.763
 2025POPC   C2B29828  37.978   4.015   8.322
 2025POPC   C3B29829  37.804   4.003   7.914
 2025POPC   C4B29830  37.795   4.115   7.439
 2026POPC   NC329831  34.168  19.311   9.517
 2026POPC   PO429832  33.738  18.851   9.439
 2026POPC   GL129833  34.023  18.994   9.112
 2026POPC   GL229834  33.726  19.168   8.964
 2026POPC   C1A29835  34.099  19.010   8.663
 2026POPC   D2A29836  33.798  19.122   8.375
 2026POPC   C3A29837  33.933  19.048   7.986
 2026POPC   C4A29838  33.888  18.705   7.695
 2026POPC   C1B29839  33.648  18.738   8.785
 2026POPC   C2B29840  33.476  18.526   8.441
 2026POPC   C3B29841  33.554  18.700   8.067
 2026POPC   C4B29842  33.485  19.062   7.764
 2027POPC   NC329843  20.828   1.081   9.579
 2027POPC   PO429844  20.374   1.550   9.431
 2027POPC   GL129845  20.638   1.364   9.179
 2027POPC   GL229846  20.468   1.050   9.197
 2027POPC   C1A29847  20.739   1.310   8.762
 2027POPC   D2A29848  20.877   1.450   8.366
 2027POPC   C3A29849  20.761   1.239   7.963
 2027POPC   C4A29850  20.821   1.403   7.556
 2027POPC   C1B29851  20.347   0.968   8.771
 2027POPC   C2B29852  20.443   1.112   8.349
 2027POPC   C3B29853  20.333   0.983   7.907
 2027POPC   C4B29854  20.394   0.879   7.421
 2028POPC   NC329855  34.953  21.536   9.545
 2028POPC   PO429856  34.334  21.347   9.339
 2028POPC   GL129857  34.721  21.419   9.095
 2028POPC   GL229858  34.863  21.087   9.108
 2028POPC   C1A29859  34.751  21.614   8.658
 2028POPC   D2A29860  34.647  21.635   8.198
 2028POPC   C3A29861  34.392  21.247   8.068
 2028POPC   C4A29862  34.160  21.146   7.705
 2028POPC   C1B29863  34.640  21.100   8.706
 2028POPC   C2B29864  34.857  21.197   8.303
 2028POPC   C3B29865  34.841  21.289   7.836
 2028POPC   C4B29866  34.851  21.226   7.374
 2029POPC   NC329867  43.594   6.062   9.587
 2029POPC   PO429868  44.061   5.591   9.721
 2029POPC   GL129869  43.960   5.756   9.253
 2029POPC   GL229870  43.685   5.952   9.094
 2029POPC   C1A29871  44.124   5.928   8.815
 2029POPC   D2A29872  44.249   5.929   8.376
 2029POPC   C3A29873  43.904   5.784   8.106
 2029POPC   C4A29874  43.704   5.753   7.715
 2029POPC   C1B29875  43.729   6.296   8.783
 2029POPC   C2B29876  43.850   6.236   8.372
 2029POPC   C3B29877  43.763   6.289   7.959
 2029POPC   C4B29878  43.504   6.246   7.626
 2030POPC   NC329879   7.778  29.951   9.649
 2030POPC   PO429880   8.415  29.809   9.616
 2030POPC   GL129881   8.148  30.029   9.303
 2030POPC   GL229882   8.287  30.310   9.156
 2030POPC   C1A29883   8.022  29.963   8.877
 2030POPC   D2A29884   8.019  29.718   8.508
 2030POPC   C3A29885   8.061  29.991   8.151
 2030POPC   C4A29886   8.060  30.013   7.721
 2030POPC   C1B29887   8.434  30.254   8.733
 2030POPC   C2B29888   8.430  30.334   8.278
 2030POPC   C3B29889   8.462  30.311   7.839
 2030POPC   C4B29890   8.213  30.403   7.423
 2031POPC   NC329891  39.248  33.791   9.393
 2031POPC   PO429892  38.885  33.214   9.380
 2031POPC   GL129893  39.159  33.411   9.067
 2031POPC   GL229894  39.487  33.268   8.979
 2031POPC   C1A29895  39.317  33.674   8.720
 2031POPC   D2A29896  39.513  33.826   8.348
 2031POPC   C3A29897  39.282  34.045   7.983
 2031POPC   C4A29898  38.999  33.985   7.622
 2031POPC   C1B29899  39.169  33.155   8.645
 2031POPC   C2B29900  39.021  33.379   8.289
 2031POPC   C3B29901  39.167  33.559   7.907
 2031POPC   C4B29902  39.511  33.391   7.664
 2032POPC   NC329903  12.374   3.169   9.376
 2032POPC   PO429904  11.822   3.701   9.465
 2032POPC   GL129905  12.035   3.506   9.163
 2032POPC   GL229906  12.370   3.644   9.107
 2032POPC   C1A29907  11.863   3.358   8.766
 2032POPC   D2A29908  11.874   3.545   8.372
 2032POPC   C3A29909  12.224   3.450   8.126
 2032POPC   C4A29910  12.225   3.177   7.806
 2032POPC   C1B29911  12.234   3.718   8.716
 2032POPC   C2B29912  12.228   3.923   8.335
 2032POPC   C3B29913  12.257   3.893   7.905
 2032POPC   C4B29914  12.578   4.135   7.801
 2033POPC   NC329915  24.302  18.063   9.398
 2033POPC   PO429916  23.957  18.657   9.349
 2033POPC   GL129917  24.260  18.449   9.061
 2033POPC   GL229918  24.637  18.374   9.130
 2033POPC   C1A29919  24.377  18.130   8.750
 2033POPC   D2A29920  24.700  18.118   8.435
 2033POPC   C3A29921  24.526  18.118   8.031
 2033POPC   C4A29922  24.697  17.938   7.679
 2033POPC   C1B29923  24.634  18.557   8.699
 2033POPC   C2B29924  24.577  18.596   8.248
 2033POPC   C3B29925  24.645  18.611   7.806
 2033POPC   C4B29926  24.330  18.658   7.450
 2034POPC   NC329927  25.144   5.357   9.781
 2034POPC   PO429928  25.235   4.740   9.670
 2034POPC   GL129929  25.316   5.059   9.329
 2034POPC   GL229930  25.593   5.328   9.318
 2034POPC   C1A29931  25.334   4.993   8.863
 2034POPC   D2A29932  25.321   4.760   8.471
 2034POPC   C3A29933  25.034   4.911   8.138
 2034POPC   C4A29934  25.049   4.773   7.703
 2034POPC   C1B29935  25.624   5.422   8.836
 2034POPC   C2B29936  25.451   5.341   8.380
 2034POPC   C3B29937  25.501   5.091   7.959
 2034POPC   C4B29938  25.662   5.092   7.521
 2035POPC   NC329939   6.925  35.418   9.466
 2035POPC   PO429940   7.531  35.366   9.456
 2035POPC   GL129941   7.439  35.105   9.076
 2035POPC   GL229942   7.078  35.066   9.115
 2035POPC   C1A29943   7.549  35.101   8.611
 2035POPC   D2A29944   7.421  35.448   8.271
 2035POPC   C3A29945   7.498  35.375   7.830
 2035POPC   C4A29946   7.832  35.079   7.749
 2035POPC   C1B29947   7.104  35.297   8.739
 2035POPC   C2B29948   6.971  35.236   8.360
 2035POPC   C3B29949   7.019  35.180   7.942
 2035POPC   C4B29950   7.039  35.180   7.466
 2036POPC   NC329951  11.832  40.179   9.569
 2036POPC   PO429952  12.126  39.502   9.651
 2036POPC   GL129953  11.982  39.793   9.262
 2036POPC   GL229954  12.138  40.147   9.166
 2036POPC   C1A29955  12.149  39.798   8.799
 2036POPC   D2A29956  12.156  40.088   8.424
 2036POPC   C3A29957  12.349  40.051   8.016
 2036POPC   C4A29958  12.416  39.737   7.712
 2036POPC   C1B29959  11.838  40.241   8.833
 2036POPC   C2B29960  11.677  40.243   8.402
 2036POPC   C3B29961  11.830  40.175   7.981
 2036POPC   C4B29962  11.696  40.468   7.633
 2037POPC   NC329963  30.070  33.709   9.550
 2037POPC   PO429964  30.638  34.049   9.515
 2037POPC   GL129965  30.196  34.046   9.193
 2037POPC   GL229966  29.811  33.826   9.142
 2037POPC   C1A29967  30.071  33.957   8.733
 2037POPC   D2A29968  29.979  34.062   8.300
 2037POPC   C3A29969  29.897  33.760   7.941
 2037POPC   C4A29970  30.009  33.846   7.495
 2037POPC   C1B29971  29.574  33.529   8.805
 2037POPC   C2B29972  29.430  33.296   8.379
 2037POPC   C3B29973  29.356  33.338   7.911
 2037POPC   C4B29974  29.640  33.495   7.554
 2038POPC   NC329975  34.389  31.208   9.773
 2038POPC   PO429976  34.641  30.581   9.554
 2038POPC   GL129977  34.565  30.524   9.154
 2038POPC   GL229978  34.234  30.661   9.153
 2038POPC   C1A29979  34.792  30.422   8.775
 2038POPC   D2A29980  34.833  30.301   8.336
 2038POPC   C3A29981  34.873  30.606   8.001
 2038POPC   C4A29982  34.754  31.004   7.768
 2038POPC   C1B29983  34.245  30.348   8.787
 2038POPC   C2B29984  34.292  30.318   8.347
 2038POPC   C3B29985  34.337  30.489   7.925
 2038POPC   C4B29986  34.270  30.278   7.521
 2039POPC   NC329987  38.691  14.063   9.461
 2039POPC   PO429988  38.685  13.343   9.239
 2039POPC   GL129989  38.416  13.556   8.957
 2039POPC   GL229990  38.284  13.879   9.072
 2039POPC   C1A29991  38.409  13.697   8.541
 2039POPC   D2A29992  38.134  13.875   8.242
 2039POPC   C3A29993  38.224  13.602   7.901
 2039POPC   C4A29994  38.617  13.398   7.849
 2039POPC   C1B29995  38.654  14.069   8.815
 2039POPC   C2B29996  38.880  14.104   8.406
 2039POPC   C3B29997  38.792  14.277   8.029
 2039POPC   C4B29998  38.586  13.938   7.857
 2040POPC   NC329999  15.137  30.199   9.474
 2040POPC   PO430000  15.377  29.558   9.588
 2040POPC   GL130001  15.053  29.734   9.266
 2040POPC   GL230002  15.297  29.861   9.105
 2040POPC   C1A30003  14.890  30.034   8.884
 2040POPC   D2A30004  15.022  30.269   8.481
 2040POPC   C3A30005  14.957  30.101   8.059
 2040POPC   C4A30006  15.149  30.299   7.689
 2040POPC   C1B30007  15.408  29.912   8.672
 2040POPC   C2B30008  15.491  29.719   8.286
 2040POPC   C3B30009  15.409  29.887   7.875
 2040POPC   C4B30010  15.715  30.023   7.616
 2041POPC   NC330011  13.651  30.919   9.700
 2041POPC   PO430012  13.890  30.373   9.380
 2041POPC   GL130013  13.612  30.545   9.085
 2041POPC   GL230014  13.522  30.895   9.170
 2041POPC   C1A30015  13.739  30.509   8.657
 2041POPC   D2A30016  13.738  30.734   8.285
 2041POPC   C3A30017  13.911  30.639   7.892
 2041POPC   C4A30018  13.667  30.357   7.688
 2041POPC   C1B30019  13.638  31.016   8.742
 2041POPC   C2B30020  13.452  31.130   8.340
 2041POPC   C3B30021  13.363  30.882   7.967
 2041POPC   C4B30022  13.306  30.720   7.531
 2042POPC   NC330023  37.322  23.279   9.409
 2042POPC   PO430024  37.095  23.984   9.464
 2042POPC   GL130025  36.978  23.642   9.200
 2042POPC   GL230026  36.710  23.813   9.138
 2042POPC   C1A30027  37.033  23.543   8.756
 2042POPC   D2A30028  36.851  23.412   8.337
 2042POPC   C3A30029  36.883  23.631   7.964
 2042POPC   C4A30030  37.066  23.597   7.604
 2042POPC   C1B30031  36.851  24.050   8.800
 2042POPC   C2B30032  36.794  23.935   8.374
 2042POPC   C3B30033  36.582  24.046   7.989
 2042POPC   C4B30034  36.880  24.063   7.617
 2043POPC   NC330035  38.954  40.433   9.768
 2043POPC   PO430036  39.470  40.072   9.428
 2043POPC   GL130037  39.306  39.956   9.094
 2043POPC   GL230038  38.999  39.849   9.107
 2043POPC   C1A30039  39.198  40.132   8.709
 2043POPC   D2A30040  38.961  40.297   8.404
 2043POPC   C3A30041  39.188  40.147   8.079
 2043POPC   C4A30042  39.430  40.148   7.724
 2043POPC   C1B30043  38.807  39.797   8.676
 2043POPC   C2B30044  38.710  39.871   8.215
 2043POPC   C3B30045  38.883  39.859   7.791
 2043POPC   C4B30046  38.786  39.977   7.331
 2044POPC   NC330047  18.308  25.040   9.408
 2044POPC   PO430048  17.949  25.586   9.368
 2044POPC   GL130049  18.180  25.480   9.062
 2044POPC   GL230050  18.038  25.151   8.998
 2044POPC   C1A30051  18.481  25.309   8.808
 2044POPC   D2A30052  18.400  25.086   8.453
 2044POPC   C3A30053  18.544  25.325   8.141
 2044POPC   C4A30054  18.533  25.435   7.736
 2044POPC   C1B30055  17.917  25.316   8.624
 2044POPC   C2B30056  17.982  25.287   8.180
 2044POPC   C3B30057  17.994  25.407   7.746
 2044POPC   C4B30058  18.152  25.463   7.312
 2045POPC   NC330059   3.678   7.752   9.509
 2045POPC   PO430060   3.288   7.211   9.354
 2045POPC   GL130061   3.429   7.515   9.099
 2045POPC   GL230062   3.797   7.505   9.086
 2045POPC   C1A30063   3.433   7.352   8.695
 2045POPC   D2A30064   3.664   7.143   8.363
 2045POPC   C3A30065   3.463   7.302   7.987
 2045POPC   C4A30066   3.548   7.293   7.528
 2045POPC   C1B30067   3.937   7.487   8.693
 2045POPC   C2B30068   3.682   7.648   8.357
 2045POPC   C3B30069   3.667   7.766   7.961
 2045POPC   C4B30070   3.715   7.893   7.559
 2046POPC   NC330071  30.538   8.026   9.459
 2046POPC   PO430072  31.168   8.250   9.673
 2046POPC   GL130073  30.998   8.068   9.238
 2046POPC   GL230074  30.736   8.288   9.070
 2046POPC   C1A30075  30.971   7.941   8.776
 2046POPC   D2A30076  30.677   7.732   8.430
 2046POPC   C3A30077  30.625   7.984   8.039
 2046POPC   C4A30078  30.917   8.236   7.783
 2046POPC   C1B30079  30.498   8.127   8.706
 2046POPC   C2B30080  30.196   8.059   8.351
 2046POPC   C3B30081  30.118   7.951   7.897
 2046POPC   C4B30082  30.421   8.091   7.573
 2047POPC   NC330083   5.145  13.615   9.472
 2047POPC   PO430084   5.639  13.882   9.313
 2047POPC   GL130085   5.453  13.476   9.080
 2047POPC   GL230086   5.110  13.429   9.007
 2047POPC   C1A30087   5.570  13.205   8.706
 2047POPC   D2A30088   5.651  13.355   8.255
 2047POPC   C3A30089   5.325  13.551   8.035
 2047POPC   C4A30090   5.011  13.611   7.720
 2047POPC   C1B30091   5.205  13.554   8.568
 2047POPC   C2B30092   4.873  13.524   8.240
 2047POPC   C3B30093   4.552  13.472   7.928
 2047POPC   C4B30094   4.545  13.668   7.483
 2048POPC   NC330095  15.390  36.037   9.694
 2048POPC   PO430096  14.802  36.303   9.504
 2048POPC   GL130097  14.973  35.998   9.207
 2048POPC   GL230098  15.343  36.025   9.188
 2048POPC   C1A30099  14.985  35.865   8.770
 2048POPC   D2A30100  14.830  35.652   8.398
 2048POPC   C3A30101  14.982  35.895   8.052
 2048POPC   C4A30102  15.325  35.814   7.764
 2048POPC   C1B30103  15.404  36.155   8.792
 2048POPC   C2B30104  15.209  36.235   8.407
 2048POPC   C3B30105  15.367  36.245   7.995
 2048POPC   C4B30106  15.292  36.351   7.573
 2049POPC   NC330107  12.817  30.380   9.571
 2049POPC   PO430108  13.218  30.859   9.583
 2049POPC   GL130109  13.034  30.701   9.205
 2049POPC   GL230110  12.839  30.970   9.209
 2049POPC   C1A30111  12.865  30.714   8.763
 2049POPC   D2A30112  13.162  30.702   8.422
 2049POPC   C3A30113  13.018  30.504   8.032
 2049POPC   C4A30114  12.713  30.626   7.726
 2049POPC   C1B30115  13.137  31.120   8.870
 2049POPC   C2B30116  12.970  31.212   8.473
 2049POPC   C3B30117  12.829  30.981   8.120
 2049POPC   C4B30118  12.967  31.069   7.700
 2050POPC   NC330119  42.367  31.989   9.539
 2050POPC   PO430120  42.771  32.493   9.425
 2050POPC   GL130121  42.535  32.407   9.032
 2050POPC   GL230122  42.440  32.114   9.052
 2050POPC   C1A30123  42.301  32.462   8.641
 2050POPC   D2A30124  42.183  32.637   8.238
 2050POPC   C3A30125  42.127  32.473   7.834
 2050POPC   C4A30126  42.301  32.412   7.439
 2050POPC   C1B30127  42.084  32.017   8.797
 2050POPC   C2B30128  41.905  32.172   8.447
 2050POPC   C3B30129  42.010  32.029   8.046
 2050POPC   C4B30130  42.276  31.961   7.700
 2051POPC   NC330131   4.802  34.254   9.533
 2051POPC   PO430132   5.298  33.803   9.588
 2051POPC   GL130133   5.225  33.888   9.180
 2051POPC   GL230134   4.864  33.837   9.162
 2051POPC   C1A30135   5.440  33.698   8.823
 2051POPC   D2A30136   5.297  33.512   8.463
 2051POPC   C3A30137   5.386  33.766   8.144
 2051POPC   C4A30138   5.125  33.807   7.824
 2051POPC   C1B30139   4.987  33.899   8.709
 2051POPC   C2B30140   4.928  33.993   8.290
 2051POPC   C3B30141   4.698  33.705   8.063
 2051POPC   C4B30142   4.728  33.543   7.661
 2052POPC   NC330143  38.596  30.947   9.367
 2052POPC   PO430144  38.812  30.375   9.606
 2052POPC   GL130145  38.705  30.476   9.162
 2052POPC   GL230146  38.374  30.551   9.054
 2052POPC   C1A30147  38.727  30.747   8.752
 2052POPC   D2A30148  38.622  31.026   8.393
 2052POPC   C3A30149  38.643  30.792   7.986
 2052POPC   C4A30150  38.542  30.793   7.555
 2052POPC   C1B30151  38.192  30.419   8.665
 2052POPC   C2B30152  38.067  30.522   8.232
 2052POPC   C3B30153  38.101  30.597   7.774
 2052POPC   C4B30154  38.117  30.284   7.416
 2053POPC   NC330155   7.162  19.023   9.454
 2053POPC   PO430156   7.804  19.289   9.502
 2053POPC   GL130157   7.556  19.303   9.133
 2053POPC   GL230158   7.515  18.919   9.118
 2053POPC   C1A30159   7.466  19.175   8.698
 2053POPC   D2A30160   7.440  18.921   8.344
 2053POPC   C3A30161   7.310  19.143   7.987
 2053POPC   C4A30162   7.494  19.335   7.653
 2053POPC   C1B30163   7.714  18.726   8.762
 2053POPC   C2B30164   7.762  18.488   8.389
 2053POPC   C3B30165   7.688  18.572   7.997
 2053POPC   C4B30166   7.753  18.929   7.771
 2054POPC   NC330167  16.752   6.061   9.431
 2054POPC   PO430168  16.877   5.369   9.409
 2054POPC   GL130169  16.679   5.580   9.042
 2054POPC   GL230170  16.647   5.924   8.976
 2054POPC   C1A30171  16.860   5.644   8.625
 2054POPC   D2A30172  16.606   5.828   8.293
 2054POPC   C3A30173  16.510   5.630   7.878
 2054POPC   C4A30174  16.603   5.763   7.465
 2054POPC   C1B30175  16.592   6.216   8.639
 2054POPC   C2B30176  16.712   6.336   8.220
 2054POPC   C3B30177  16.548   6.148   7.884
 2054POPC   C4B30178  16.306   6.298   7.628
 2055POPC   NC330179  15.599  21.518   9.421
 2055POPC   PO430180  16.231  21.683   9.424
 2055POPC   GL130181  16.255  21.579   9.011
 2055POPC   GL230182  16.104  21.287   9.078
 2055POPC   C1A30183  16.241  21.397   8.588
 2055POPC   D2A30184  15.989  21.102   8.337
 2055POPC   C3A30185  15.881  21.278   7.967
 2055POPC   C4A30186  16.109  21.489   7.634
 2055POPC   C1B30187  15.755  21.387   8.803
 2055POPC   C2B30188  15.619  21.470   8.407
 2055POPC   C3B30189  15.401  21.449   8.040
 2055POPC   C4B30190  15.505  21.415   7.669
 2056POPC   NC330191  32.685   4.633   9.582
 2056POPC   PO430192  32.899   5.338   9.572
 2056POPC   GL130193  33.079   5.241   9.166
 2056POPC   GL230194  32.954   4.928   9.227
 2056POPC   C1A30195  33.035   5.109   8.726
 2056POPC   D2A30196  32.792   5.332   8.392
 2056POPC   C3A30197  32.922   5.244   7.962
 2056POPC   C4A30198  32.730   5.296   7.546
 2056POPC   C1B30199  32.576   4.952   9.016
 2056POPC   C2B30200  32.556   4.920   8.589
 2056POPC   C3B30201  32.598   4.878   8.150
 2056POPC   C4B30202  32.787   4.794   7.743
 2057POPC   NC330203  10.419  33.387   9.455
 2057POPC   PO430204  10.670  32.772   9.526
 2057POPC   GL130205  10.590  32.739   9.063
 2057POPC   GL230206  10.233  32.759   9.006
 2057POPC   C1A30207  10.538  33.051   8.698
 2057POPC   D2A30208  10.626  33.371   8.359
 2057POPC   C3A30209  10.712  33.108   8.008
 2057POPC   C4A30210  10.736  32.666   7.889
 2057POPC   C1B30211   9.951  32.622   8.687
 2057POPC   C2B30212   9.937  32.680   8.238
 2057POPC   C3B30213  10.181  32.847   7.887
 2057POPC   C4B30214  10.198  32.676   7.471
 2058POPC   NC330215  40.296  38.411   9.472
 2058POPC   PO430216  40.818  38.112   9.681
 2058POPC   GL130217  40.783  38.306   9.246
 2058POPC   GL230218  40.832  37.996   9.114
 2058POPC   C1A30219  40.573  38.387   8.786
 2058POPC   D2A30220  40.458  38.602   8.360
 2058POPC   C3A30221  40.680  38.529   7.943
 2058POPC   C4A30222  40.689  38.519   7.487
 2058POPC   C1B30223  41.056  38.209   8.783
 2058POPC   C2B30224  40.963  38.411   8.378
 2058POPC   C3B30225  41.080  38.223   7.975
 2058POPC   C4B30226  41.162  38.365   7.574
 2059POPC   NC330227  44.293  41.196   9.412
 2059POPC   PO430228  44.911  41.301   9.496
 2059POPC   GL130229  44.649  41.501   9.161
 2059POPC   GL230230  44.653  41.821   9.257
 2059POPC   C1A30231  44.379  41.547   8.765
 2059POPC   D2A30232  44.190  41.623   8.330
 2059POPC   C3A30233  44.300  41.366   7.981
 2059POPC   C4A30234  44.608  41.311   7.659
 2059POPC   C1B30235  44.647  41.981   8.843
 2059POPC   C2B30236  44.505  42.042   8.427
 2059POPC   C3B30237  44.572  41.819   8.022
 2059POPC   C4B30238  44.869  41.750   7.654
 2060POPC   NC330239  23.954   3.162   9.471
 2060POPC   PO430240  23.791   3.767   9.483
 2060POPC   GL130241  23.824   3.570   9.126
 2060POPC   GL230242  23.588   3.361   9.078
 2060POPC   C1A30243  23.932   3.495   8.703
 2060POPC   D2A30244  24.055   3.460   8.280
 2060POPC   C3A30245  24.008   3.730   7.947
 2060POPC   C4A30246  23.740   3.704   7.590
 2060POPC   C1B30247  23.452   3.655   8.782
 2060POPC   C2B30248  23.323   3.489   8.436
 2060POPC   C3B30249  23.486   3.606   8.037
 2060POPC   C4B30250  23.323   3.369   7.774
 2061POPC   NC330251   4.082  33.317   9.475
 2061POPC   PO430252   4.445  33.934   9.501
 2061POPC   GL130253   4.198  33.739   9.180
 2061POPC   GL230254   4.449  33.509   9.117
 2061POPC   C1A30255   4.069  33.573   8.760
 2061POPC   D2A30256   3.978  33.562   8.306
 2061POPC   C3A30257   4.213  33.639   7.946
 2061POPC   C4A30258   4.072  33.793   7.559
 2061POPC   C1B30259   4.509  33.805   8.788
 2061POPC   C2B30260   4.361  33.931   8.398
 2061POPC   C3B30261   4.485  34.200   8.071
 2061POPC   C4B30262   4.509  34.008   7.664
 2062POPC   NC330263   1.775  30.872   9.438
 2062POPC   PO430264   2.042  31.472   9.602
 2062POPC   GL130265   1.825  31.372   9.261
 2062POPC   GL230266   1.588  31.670   9.280
 2062POPC   C1A30267   2.032  31.342   8.852
 2062POPC   D2A30268   2.171  31.655   8.552
 2062POPC   C3A30269   2.080  31.580   8.141
 2062POPC   C4A30270   2.127  31.287   7.824
 2062POPC   C1B30271   1.525  31.498   8.872
 2062POPC   C2B30272   1.696  31.448   8.478
 2062POPC   C3B30273   1.626  31.329   8.070
 2062POPC   C4B30274   1.709  31.620   7.757
 2063POPC   NC330275  28.355  27.695   9.617
 2063POPC   PO430276  29.010  27.705   9.475
 2063POPC   GL130277  28.910  27.515   9.098
 2063POPC   GL230278  28.880  27.158   9.104
 2063POPC   C1A30279  28.991  27.770   8.755
 2063POPC   D2A30280  29.174  28.012   8.410
 2063POPC   C3A30281  29.297  27.784   8.022
 2063POPC   C4A30282  29.476  27.771   7.616
 2063POPC   C1B30283  28.871  27.243   8.654
 2063POPC   C2B30284  28.968  27.527   8.315
 2063POPC   C3B30285  28.920  27.437   7.892
 2063POPC   C4B30286  29.114  27.414   7.506
 2064POPC   NC330287   7.722  11.181   9.526
 2064POPC   PO430288   6.993  11.274   9.599
 2064POPC   GL130289   7.309  11.355   9.286
 2064POPC   GL230290   7.077  11.324   9.075
 2064POPC   C1A30291   7.559  11.256   8.887
 2064POPC   D2A30292   7.676  11.408   8.490
 2064POPC   C3A30293   7.515  11.196   8.106
 2064POPC   C4A30294   7.433  11.342   7.671
 2064POPC   C1B30295   7.128  10.988   8.769
 2064POPC   C2B30296   7.081  11.103   8.363
 2064POPC   C3B30297   7.036  10.897   7.996
 2064POPC   C4B30298   7.054  11.048   7.587
 2065POPC   NC330299   1.724  44.896   9.372
 2065POPC   PO430300   2.229  44.522   9.592
 2065POPC   GL130301   2.164  44.529   9.155
 2065POPC   GL230302   2.126  44.881   9.043
 2065POPC   C1A30303   2.016  44.462   8.738
 2065POPC   D2A30304   2.116  44.655   8.341
 2065POPC   C3A30305   1.832  44.562   8.017
 2065POPC   C4A30306   1.899  44.313   7.685
 2065POPC   C1B30307   1.807  44.936   8.701
 2065POPC   C2B30308   1.794   0.042   8.259
 2065POPC   C3B30309   1.986   0.033   7.872
 2065POPC   C4B30310   1.835  44.807   7.498
 2066POPC   NC330311  11.864  13.859   9.548
 2066POPC   PO430312  12.229  13.325   9.401
 2066POPC   GL130313  12.190  13.567   9.075
 2066POPC   GL230314  12.266  13.863   9.238
 2066POPC   C1A30315  12.009  13.505   8.678
 2066POPC   D2A30316  12.019  13.546   8.234
 2066POPC   C3A30317  12.091  13.547   7.835
 2066POPC   C4A30318  12.147  13.368   7.430
 2066POPC   C1B30319  11.982  13.990   8.878
 2066POPC   C2B30320  11.766  13.950   8.465
 2066POPC   C3B30321  11.695  13.881   8.006
 2066POPC   C4B30322  11.996  14.026   7.687
 2067POPC   NC330323  38.237   7.698   9.468
 2067POPC   PO430324  38.450   7.111   9.499
 2067POPC   GL130325  38.496   7.391   9.136
 2067POPC   GL230326  38.717   7.621   9.196
 2067POPC   C1A30327  38.427   7.556   8.705
 2067POPC   D2A30328  38.279   7.402   8.315
 2067POPC   C3A30329  38.345   7.658   7.936
 2067POPC   C4A30330  38.379   7.610   7.474
 2067POPC   C1B30331  38.876   7.735   8.847
 2067POPC   C2B30332  38.896   7.532   8.446
 2067POPC   C3B30333  38.736   7.336   8.079
 2067POPC   C4B30334  38.827   7.558   7.705
 2068POPC   NC330335   2.461   9.119   9.506
 2068POPC   PO430336   2.930   8.611   9.558
 2068POPC   GL130337   2.685   8.719   9.204
 2068POPC   GL230338   2.810   9.065   9.134
 2068POPC   C1A30339   2.798   8.708   8.753
 2068POPC   D2A30340   2.550   8.761   8.395
 2068POPC   C3A30341   2.640   8.691   7.974
 2068POPC   C4A30342   2.875   8.856   7.622
 2068POPC   C1B30343   2.775   9.232   8.707
 2068POPC   C2B30344   2.810   9.176   8.268
 2068POPC   C3B30345   2.581   9.202   7.896
 2068POPC   C4B30346   2.571   9.250   7.460
 2069POPC   NC330347   3.370  17.150   9.544
 2069POPC   PO430348   3.576  16.648   9.808
 2069POPC   GL130349   3.619  16.737   9.323
 2069POPC   GL230350   3.970  16.788   9.155
 2069POPC   C1A30351   3.536  16.860   8.868
 2069POPC   D2A30352   3.674  16.861   8.410
 2069POPC   C3A30353   3.418  16.810   7.996
 2069POPC   C4A30354   3.236  16.813   7.547
 2069POPC   C1B30355   3.999  17.093   8.782
 2069POPC   C2B30356   3.947  17.292   8.385
 2069POPC   C3B30357   3.836  17.125   7.985
 2069POPC   C4B30358   3.911  17.306   7.630
 2070POPC   NC330359  41.855   6.014   9.378
 2070POPC   PO430360  41.176   5.681   9.474
 2070POPC   GL130361  41.466   5.779   9.142
 2070POPC   GL230362  41.532   6.125   9.006
 2070POPC   C1A30363  41.705   5.656   8.769
 2070POPC   D2A30364  41.552   5.723   8.371
 2070POPC   C3A30365  41.710   5.603   7.977
 2070POPC   C4A30366  41.317   5.571   7.720
 2070POPC   C1B30367  41.845   6.133   8.654
 2070POPC   C2B30368  41.867   6.077   8.194
 2070POPC   C3B30369  41.481   6.045   7.931
 2070POPC   C4B30370  41.468   6.246   7.556
 2071POPC   NC330371   8.853  31.697   9.524
 2071POPC   PO430372   8.740  31.004   9.423
 2071POPC   GL130373   9.000  31.256   9.070
 2071POPC   GL230374   8.908  31.604   9.034
 2071POPC   C1A30375   9.098  31.289   8.635
 2071POPC   D2A30376   8.755  31.252   8.297
 2071POPC   C3A30377   8.867  31.056   7.938
 2071POPC   C4A30378   9.057  31.270   7.592
 2071POPC   C1B30379   8.703  31.593   8.669
 2071POPC   C2B30380   8.970  31.719   8.327
 2071POPC   C3B30381   8.952  31.595   7.938
 2071POPC   C4B30382   8.696  31.697   7.575
 2072POPC   NC330383  44.151   2.968   9.489
 2072POPC   PO430384  43.529   3.102   9.517
 2072POPC   GL130385  43.627   2.866   9.156
 2072POPC   GL230386  43.944   2.700   9.120
 2072POPC   C1A30387  43.561   2.815   8.733
 2072POPC   D2A30388  43.671   3.008   8.361
 2072POPC   C3A30389  43.659   2.787   8.003
 2072POPC   C4A30390  43.918   2.751   7.648
 2072POPC   C1B30391  43.935   2.427   8.787
 2072POPC   C2B30392  43.943   2.562   8.379
 2072POPC   C3B30393  44.204   2.729   8.064
 2072POPC   C4B30394  44.316   2.451   7.703
 2073POPC   NC330395  15.857  28.199   9.632
 2073POPC   PO430396  16.020  28.867   9.689
 2073POPC   GL130397  15.873  28.603   9.278
 2073POPC   GL230398  16.165  28.487   9.115
 2073POPC   C1A30399  15.725  28.515   8.791
 2073POPC   D2A30400  15.541  28.512   8.348
 2073POPC   C3A30401  15.833  28.537   8.001
 2073POPC   C4A30402  15.841  28.554   7.558
 2073POPC   C1B30403  16.158  28.223   8.748
 2073POPC   C2B30404  15.922  28.179   8.375
 2073POPC   C3B30405  15.979  28.022   7.981
 2073POPC   C4B30406  16.179  28.152   7.593
 2074POPC   NC330407   6.144  15.908   9.569
 2074POPC   PO430408   6.754  16.029   9.783
 2074POPC   GL130409   6.756  16.071   9.249
 2074POPC   GL230410   6.368  16.134   9.143
 2074POPC   C1A30411   6.811  15.902   8.826
 2074POPC   D2A30412   6.727  16.033   8.413
 2074POPC   C3A30413   6.677  15.784   8.064
 2074POPC   C4A30414   6.980  15.563   7.803
 2074POPC   C1B30415   6.324  15.869   8.727
 2074POPC   C2B30416   6.198  15.932   8.303
 2074POPC   C3B30417   6.299  16.146   7.928
 2074POPC   C4B30418   6.649  16.310   7.765
 2075POPC   NC330419  40.487  28.911   9.241
 2075POPC   PO430420  40.974  29.325   9.586
 2075POPC   GL130421  40.981  29.116   9.181
 2075POPC   GL230422  41.076  28.758   9.143
 2075POPC   C1A30423  40.829  29.315   8.803
 2075POPC   D2A30424  40.473  29.246   8.524
 2075POPC   C3A30425  40.580  29.386   8.127
 2075POPC   C4A30426  40.627  29.138   7.764
 2075POPC   C1B30427  40.977  28.828   8.681
 2075POPC   C2B30428  40.843  28.894   8.232
 2075POPC   C3B30429  41.077  28.904   7.828
 2075POPC   C4B30430  40.982  28.950   7.404
 2076POPC   NC330431   8.005  35.465   9.462
 2076POPC   PO430432   8.412  34.987   9.680
 2076POPC   GL130433   8.244  35.053   9.187
 2076POPC   GL230434   7.928  35.245   9.026
 2076POPC   C1A30435   8.265  35.110   8.702
 2076POPC   D2A30436   7.990  35.212   8.355
 2076POPC   C3A30437   8.254  35.301   8.024
 2076POPC   C4A30438   8.312  35.304   7.590
 2076POPC   C1B30439   8.192  35.598   8.816
 2076POPC   C2B30440   8.139  35.730   8.386
 2076POPC   C3B30441   7.901  35.660   8.018
 2076POPC   C4B30442   8.102  35.827   7.663
 2077POPC   NC330443   6.068  10.703   9.720
 2077POPC   PO430444   5.736  10.121   9.532
 2077POPC   GL130445   5.766  10.420   9.200
 2077POPC   GL230446   6.078  10.546   9.232
 2077POPC   C1A30447   5.643  10.397   8.765
 2077POPC   D2A30448   5.645  10.631   8.392
 2077POPC   C3A30449   5.613  10.387   8.036
 2077POPC   C4A30450   5.770  10.327   7.647
 2077POPC   C1B30451   6.000  10.760   8.853
 2077POPC   C2B30452   6.144  10.706   8.437
 2077POPC   C3B30453   5.993  10.705   7.998
 2077POPC   C4B30454   6.201  10.576   7.625
 2078POPC   NC330455  32.102  31.388   9.323
 2078POPC   PO430456  32.632  31.573   9.676
 2078POPC   GL130457  32.582  31.531   9.182
 2078POPC   GL230458  32.642  31.845   9.004
 2078POPC   C1A30459  32.405  31.249   8.776
 2078POPC   D2A30460  32.564  31.151   8.362
 2078POPC   C3A30461  32.499  31.159   7.906
 2078POPC   C4A30462  32.334  31.366   7.553
 2078POPC   C1B30463  32.781  31.561   8.705
 2078POPC   C2B30464  32.746  31.641   8.295
 2078POPC   C3B30465  32.445  31.668   7.990
 2078POPC   C4B30466  32.447  31.891   7.616
 2079POPC   NC330467  16.241  34.730   9.429
 2079POPC   PO430468  15.643  34.465   9.673
 2079POPC   GL130469  15.776  34.681   9.269
 2079POPC   GL230470  15.964  34.361   9.145
 2079POPC   C1A30471  15.949  34.723   8.806
 2079POPC   D2A30472  15.702  34.438   8.486
 2079POPC   C3A30473  15.741  34.407   8.018
 2079POPC   C4A30474  16.027  34.744   7.871
 2079POPC   C1B30475  16.175  34.287   8.702
 2079POPC   C2B30476  16.204  34.437   8.245
 2079POPC   C3B30477  16.182  34.240   7.798
 2079POPC   C4B30478  16.204  34.166   7.302
 2080POPC   NC330479  37.399  21.094   9.568
 2080POPC   PO430480  37.958  21.555   9.465
 2080POPC   GL130481  37.611  21.445   9.189
 2080POPC   GL230482  37.731  21.147   9.185
 2080POPC   C1A30483  37.469  21.262   8.780
 2080POPC   D2A30484  37.658  21.353   8.400
 2080POPC   C3A30485  37.511  21.207   8.017
 2080POPC   C4A30486  37.549  21.541   7.735
 2080POPC   C1B30487  37.909  21.017   8.807
 2080POPC   C2B30488  38.082  21.084   8.405
 2080POPC   C3B30489  38.045  20.914   7.983
 2080POPC   C4B30490  37.846  21.128   7.613
 2081POPC   NC330491  20.002   2.424   9.515
 2081POPC   PO430492  20.009   3.085   9.297
 2081POPC   GL130493  19.941   2.797   9.045
 2081POPC   GL230494  19.681   2.560   9.146
 2081POPC   C1A30495  19.623   2.771   8.704
 2081POPC   D2A30496  19.666   2.594   8.306
 2081POPC   C3A30497  19.651   2.913   8.000
 2081POPC   C4A30498  19.461   2.753   7.661
 2081POPC   C1B30499  19.930   2.387   8.777
 2081POPC   C2B30500  20.154   2.613   8.466
 2081POPC   C3B30501  20.092   2.536   8.031
 2081POPC   C4B30502  20.005   2.734   7.673
 2082POPC   NC330503  14.949  35.225   9.516
 2082POPC   PO430504  14.346  35.564   9.546
 2082POPC   GL130505  14.431  35.486   9.141
 2082POPC   GL230506  14.506  35.134   9.216
 2082POPC   C1A30507  14.250  35.537   8.731
 2082POPC   D2A30508  14.049  35.269   8.430
 2082POPC   C3A30509  14.220  35.393   8.046
 2082POPC   C4A30510  14.668  35.479   7.880
 2082POPC   C1B30511  14.272  35.028   8.845
 2082POPC   C2B30512  14.460  34.976   8.435
 2082POPC   C3B30513  14.533  35.009   8.014
 2082POPC   C4B30514  14.376  35.084   7.615
 2083POPC   NC330515  38.501  24.329   9.580
 2083POPC   PO430516  38.489  24.910   9.679
 2083POPC   GL130517  38.529  24.634   9.180
 2083POPC   GL230518  38.450  24.238   9.103
 2083POPC   C1A30519  38.436  24.539   8.716
 2083POPC   D2A30520  38.210  24.651   8.366
 2083POPC   C3A30521  38.460  24.495   8.032
 2083POPC   C4A30522  38.402  24.614   7.624
 2083POPC   C1B30523  38.185  24.072   8.769
 2083POPC   C2B30524  38.118  24.009   8.290
 2083POPC   C3B30525  38.219  24.082   7.845
 2083POPC   C4B30526  38.672  24.117   7.670
 2084POPC   NC330527  32.235   0.299   9.538
 2084POPC   PO430528  32.066   0.992   9.433
 2084POPC   GL130529  32.067   0.641   9.157
 2084POPC   GL230530  32.430   0.639   9.118
 2084POPC   C1A30531  32.177   0.389   8.767
 2084POPC   D2A30532  32.318   0.491   8.327
 2084POPC   C3A30533  32.146   0.342   7.940
 2084POPC   C4A30534  32.266   0.201   7.516
 2084POPC   C1B30535  32.645   0.658   8.714
 2084POPC   C2B30536  32.773   0.286   8.450
 2084POPC   C3B30537  32.649   0.221   8.007
 2084POPC   C4B30538  32.617   0.544   7.686
 2085POPC   NC330539  20.547  29.420   9.375
 2085POPC   PO430540  20.963  28.835   9.558
 2085POPC   GL130541  20.729  28.949   9.192
 2085POPC   GL230542  20.363  28.998   9.189
 2085POPC   C1A30543  20.688  29.065   8.795
 2085POPC   D2A30544  20.871  29.105   8.438
 2085POPC   C3A30545  20.732  29.206   8.076
 2085POPC   C4A30546  20.899  29.091   7.688
 2085POPC   C1B30547  20.231  29.275   8.838
 2085POPC   C2B30548  20.341  29.284   8.434
 2085POPC   C3B30549  20.251  29.390   8.033
 2085POPC   C4B30550  20.506  29.431   7.683
 2086POPC   NC330551   9.159  19.710   9.664
 2086POPC   PO430552   9.348  20.334   9.501
 2086POPC   GL130553   9.215  20.020   9.233
 2086POPC   GL230554   8.873  20.036   9.175
 2086POPC   C1A30555   9.200  19.787   8.862
 2086POPC   D2A30556   9.236  19.561   8.488
 2086POPC   C3A30557   9.172  19.809   8.157
 2086POPC   C4A30558   9.174  19.715   7.727
 2086POPC   C1B30559   8.660  19.890   8.777
 2086POPC   C2B30560   8.703  19.673   8.362
 2086POPC   C3B30561   8.676  19.803   7.894
 2086POPC   C4B30562   8.519  19.930   7.453
 2087POPC   NC330563  13.778  24.290   9.701
 2087POPC   PO430564  13.632  23.698   9.421
 2087POPC   GL130565  13.635  23.676   8.992
 2087POPC   GL230566  13.337  23.872   9.012
 2087POPC   C1A30567  13.628  23.929   8.605
 2087POPC   D2A30568  13.848  23.917   8.231
 2087POPC   C3A30569  13.762  23.888   7.793
 2087POPC   C4A30570  13.934  23.724   7.395
 2087POPC   C1B30571  13.242  23.447   8.801
 2087POPC   C2B30572  13.353  23.569   8.395
 2087POPC   C3B30573  13.543  23.507   8.036
 2087POPC   C4B30574  13.381  23.548   7.632
 2088POPC   NC330575  30.491  15.572   9.414
 2088POPC   PO430576  30.294  16.192   9.387
 2088POPC   GL130577  30.521  16.088   8.958
 2088POPC   GL230578  30.747  15.813   9.001
 2088POPC   C1A30579  30.616  15.973   8.520
 2088POPC   D2A30580  30.426  15.664   8.264
 2088POPC   C3A30581  30.538  15.857   7.900
 2088POPC   C4A30582  30.663  16.237   7.929
 2088POPC   C1B30583  31.074  15.993   8.710
 2088POPC   C2B30584  31.079  16.071   8.241
 2088POPC   C3B30585  31.044  15.819   7.847
 2088POPC   C4B30586  31.058  15.811   7.393
 2089POPC   NC330587  16.073  22.722   9.480
 2089POPC   PO430588  16.146  23.363   9.494
 2089POPC   GL130589  15.918  23.135   9.116
 2089POPC   GL230590  15.948  22.739   9.001
 2089POPC   C1A30591  15.830  23.105   8.671
 2089POPC   D2A30592  15.921  22.734   8.415
 2089POPC   C3A30593  16.141  22.868   8.065
 2089POPC   C4A30594  15.948  23.223   7.870
 2089POPC   C1B30595  15.638  22.423   8.748
 2089POPC   C2B30596  15.478  22.477   8.296
 2089POPC   C3B30597  15.602  22.807   7.974
 2089POPC   C4B30598  15.425  23.183   7.755
 2090POPC   NC330599  25.205  44.743   9.535
 2090POPC   PO430600  24.673  44.400   9.523
 2090POPC   GL130601  25.000  44.421   9.192
 2090POPC   GL230602  25.409  44.488   9.127
 2090POPC   C1A30603  25.030  44.686   8.850
 2090POPC   D2A30604  24.889  44.788   8.481
 2090POPC   C3A30605  25.072  44.543   8.195
 2090POPC   C4A30606  25.270  44.669   7.811
 2090POPC   C1B30607  25.457  44.411   8.669
 2090POPC   C2B30608  25.581  44.451   8.215
 2090POPC   C3B30609  25.631  44.308   7.781
 2090POPC   C4B30610  25.679  44.159   7.349
 2091POPC   NC330611  33.671   4.507   9.479
 2091POPC   PO430612  34.190   4.033   9.529
 2091POPC   GL130613  34.005   4.094   9.127
 2091POPC   GL230614  33.635   4.232   9.049
 2091POPC   C1A30615  34.011   4.282   8.725
 2091POPC   D2A30616  33.721   4.369   8.419
 2091POPC   C3A30617  33.812   4.215   8.035
 2091POPC   C4A30618  33.908   4.346   7.645
 2091POPC   C1B30619  33.409   4.524   8.790
 2091POPC   C2B30620  33.218   4.619   8.415
 2091POPC   C3B30621  33.352   4.443   8.063
 2091POPC   C4B30622  33.437   4.507   7.680
 2092POPC   NC330623  35.941  30.909   9.425
 2092POPC   PO430624  36.306  30.368   9.497
 2092POPC   GL130625  36.411  30.462   9.110
 2092POPC   GL230626  36.325  30.810   9.092
 2092POPC   C1A30627  36.290  30.408   8.698
 2092POPC   D2A30628  36.458  30.596   8.319
 2092POPC   C3A30629  36.204  30.481   7.978
 2092POPC   C4A30630  36.135  30.834   7.741
 2092POPC   C1B30631  36.549  30.861   8.747
 2092POPC   C2B30632  36.566  31.103   8.372
 2092POPC   C3B30633  36.539  31.043   7.944
 2092POPC   C4B30634  36.491  31.099   7.487
 2093POPC   NC330635  40.153  39.278   9.395
 2093POPC   PO430636  39.497  39.306   9.583
 2093POPC   GL130637  39.708  39.186   9.178
 2093POPC   GL230638  39.637  38.855   9.105
 2093POPC   C1A30639  39.829  39.455   8.779
 2093POPC   D2A30640  40.078  39.584   8.388
 2093POPC   C3A30641  39.901  39.383   8.009
 2093POPC   C4A30642  39.533  39.203   7.799
 2093POPC   C1B30643  39.906  38.949   8.726
 2093POPC   C2B30644  39.988  38.880   8.252
 2093POPC   C3B30645  39.824  38.801   7.819
 2093POPC   C4B30646  39.715  38.850   7.339
 2094POPC   NC330647  12.375  23.632   9.431
 2094POPC   PO430648  11.819  24.031   9.497
 2094POPC   GL130649  12.007  23.850   9.080
 2094POPC   GL230650  11.891  23.512   9.031
 2094POPC   C1A30651  11.981  23.775   8.594
 2094POPC   D2A30652  12.302  23.673   8.242
 2094POPC   C3A30653  12.239  23.832   7.826
 2094POPC   C4A30654  12.217  23.832   7.359
 2094POPC   C1B30655  11.611  23.357   8.714
 2094POPC   C2B30656  11.521  23.564   8.344
 2094POPC   C3B30657  11.812  23.738   8.075
 2094POPC   C4B30658  11.849  23.606   7.613
 2095POPC   NC330659   2.499  36.557   9.602
 2095POPC   PO430660   2.979  36.995   9.589
 2095POPC   GL130661   2.831  36.748   9.219
 2095POPC   GL230662   2.483  36.710   9.105
 2095POPC   C1A30663   2.916  36.667   8.791
 2095POPC   D2A30664   2.923  36.871   8.396
 2095POPC   C3A30665   2.952  36.662   8.009
 2095POPC   C4A30666   2.928  36.782   7.546
 2095POPC   C1B30667   2.457  36.865   8.649
 2095POPC   C2B30668   2.482  36.705   8.219
 2095POPC   C3B30669   2.544  36.908   7.840
 2095POPC   C4B30670   2.774  37.306   7.763
 2096POPC   NC330671  37.248  12.761   9.396
 2096POPC   PO430672  37.820  13.125   9.427
 2096POPC   GL130673  37.619  12.986   9.076
 2096POPC   GL230674  37.907  12.839   9.004
 2096POPC   C1A30675  37.658  13.127   8.654
 2096POPC   D2A30676  37.825  12.935   8.280
 2096POPC   C3A30677  37.547  12.855   7.937
 2096POPC   C4A30678  37.643  12.705   7.509
 2096POPC   C1B30679  37.667  12.612   8.681
 2096POPC   C2B30680  37.828  12.426   8.295
 2096POPC   C3B30681  37.985  12.551   7.888
 2096POPC   C4B30682  38.117  12.494   7.449
 2097POPC   NC330683   4.464  40.608   9.690
 2097POPC   PO430684   4.081  41.004   9.211
 2097POPC   GL130685   4.366  40.888   8.974
 2097POPC   GL230686   4.558  40.604   9.045
 2097POPC   C1A30687   4.329  40.841   8.554
 2097POPC   D2A30688   4.306  41.151   8.254
 2097POPC   C3A30689   4.085  40.923   7.997
 2097POPC   C4A30690   4.324  40.662   7.755
 2097POPC   C1B30691   4.519  40.346   8.676
 2097POPC   C2B30692   4.436  40.425   8.228
 2097POPC   C3B30693   4.589  40.239   7.800
 2097POPC   C4B30694   4.623  40.371   7.331
 2098POPC   NC330695  28.653  11.199   9.736
 2098POPC   PO430696  28.173  11.029   9.560
 2098POPC   GL130697  28.498  11.191   9.224
 2098POPC   GL230698  28.792  11.445   9.226
 2098POPC   C1A30699  28.602  11.211   8.763
 2098POPC   D2A30700  28.718  11.063   8.337
 2098POPC   C3A30701  28.486  11.240   7.962
 2098POPC   C4A30702  28.138  11.199   7.644
 2098POPC   C1B30703  28.932  11.596   8.785
 2098POPC   C2B30704  28.903  11.550   8.307
 2098POPC   C3B30705  28.875  11.630   7.851
 2098POPC   C4B30706  28.738  11.355   7.522
 2099POPC   NC330707  42.823  11.563  10.062
 2099POPC   PO430708  42.780  11.026   9.711
 2099POPC   GL130709  42.764  11.033   9.283
 2099POPC   GL230710  42.886  11.365   9.257
 2099POPC   C1A30711  42.877  11.031   8.856
 2099POPC   D2A30712  43.119  11.234   8.546
 2099POPC   C3A30713  42.983  11.110   8.143
 2099POPC   C4A30714  43.074  11.184   7.728
 2099POPC   C1B30715  42.796  11.557   8.845
 2099POPC   C2B30716  42.925  11.702   8.447
 2099POPC   C3B30717  43.120  11.602   8.070
 2099POPC   C4B30718  42.736  11.547   7.909
 2100POPC   NC330719  39.805  42.741   9.582
 2100POPC   PO430720  39.845  42.137   9.467
 2100POPC   GL130721  40.087  42.296   9.149
 2100POPC   GL230722  40.124  42.653   9.181
 2100POPC   C1A30723  39.994  42.234   8.740
 2100POPC   D2A30724  39.782  42.183   8.382
 2100POPC   C3A30725  40.013  42.176   8.010
 2100POPC   C4A30726  39.854  42.343   7.595
 2100POPC   C1B30727  40.341  42.614   8.760
 2100POPC   C2B30728  40.450  42.575   8.319
 2100POPC   C3B30729  40.247  42.594   7.897
 2100POPC   C4B30730  40.268  42.620   7.436
 2101POPC   NC330731  35.498  18.429   9.861
 2101POPC   PO430732  35.302  18.861   9.420
 2101POPC   GL130733  35.428  19.024   9.052
 2101POPC   GL230734  35.444  19.370   9.156
 2101POPC   C1A30735  35.566  18.835   8.672
 2101POPC   D2A30736  35.723  18.942   8.259
 2101POPC   C3A30737  35.393  18.760   8.000
 2101POPC   C4A30738  35.068  18.659   7.708
 2101POPC   C1B30739  35.177  19.356   8.764
 2101POPC   C2B30740  35.234  19.118   8.380
 2101POPC   C3B30741  35.279  19.260   7.964
 2101POPC   C4B30742  35.030  19.569   7.789
 2102POPC   NC330743  11.186  42.083   9.733
 2102POPC   PO430744  11.210  42.759   9.493
 2102POPC   GL130745  11.351  42.557   9.159
 2102POPC   GL230746  11.118  42.292   9.205
 2102POPC   C1A30747  11.487  42.405   8.778
 2102POPC   D2A30748  11.358  42.344   8.354
 2102POPC   C3A30749  11.595  42.314   7.964
 2102POPC   C4A30750  11.571  42.227   7.505
 2102POPC   C1B30751  11.076  42.084   8.793
 2102POPC   C2B30752  10.897  42.094   8.381
 2102POPC   C3B30753  11.085  42.149   7.967
 2102POPC   C4B30754  10.843  42.002   7.629
 2103POPC   NC330755   1.096  44.408   9.609
 2103POPC   PO430756   1.650  44.438   9.279
 2103POPC   GL130757   1.394  44.731   9.034
 2103POPC   GL230758   1.062  44.693   9.097
 2103POPC   C1A30759   1.320  44.730   8.613
 2103POPC   D2A30760   1.284   0.010   8.301
 2103POPC   C3A30761   1.432  44.904   7.889
 2103POPC   C4A30762   1.416  44.531   7.675
 2103POPC   C1B30763   0.844  44.543   8.728
 2103POPC   C2B30764   0.602  44.544   8.353
 2103POPC   C3B30765   0.880  44.555   7.977
 2103POPC   C4B30766   0.976  44.793   7.605
 2104POPC   NC330767  22.945  15.029   9.664
 2104POPC   PO430768  22.440  15.213   9.275
 2104POPC   GL130769  22.899  15.219   9.138
 2104POPC   GL230770  23.080  15.536   9.191
 2104POPC   C1A30771  23.167  15.121   8.747
 2104POPC   D2A30772  23.266  14.911   8.333
 2104POPC   C3A30773  23.227  15.026   7.864
 2104POPC   C4A30774  23.247  14.819   7.425
 2104POPC   C1B30775  23.024  15.601   8.728
 2104POPC   C2B30776  23.069  15.406   8.296
 2104POPC   C3B30777  22.936  15.463   7.845
 2104POPC   C4B30778  22.814  15.627   7.414
 2105POPC   NC330779  26.183  30.461   9.343
 2105POPC   PO430780  26.137  31.073   9.651
 2105POPC   GL130781  25.935  30.877   9.207
 2105POPC   GL230782  25.824  30.609   8.982
 2105POPC   C1A30783  26.175  30.853   8.745
 2105POPC   D2A30784  26.063  30.892   8.317
 2105POPC   C3A30785  26.276  30.824   7.934
 2105POPC   C4A30786  25.971  30.706   7.616
 2105POPC   C1B30787  26.034  30.331   8.737
 2105POPC   C2B30788  26.185  30.386   8.394
 2105POPC   C3B30789  25.974  30.427   8.052
 2105POPC   C4B30790  26.059  30.195   7.687
 2106POPC   NC330791   8.646  39.777   9.590
 2106POPC   PO430792   8.092  40.196   9.485
 2106POPC   GL130793   8.184  39.944   9.139
 2106POPC   GL230794   8.500  39.783   9.106
 2106POPC   C1A30795   8.331  40.117   8.744
 2106POPC   D2A30796   8.535  40.229   8.355
 2106POPC   C3A30797   8.189  40.323   8.080
 2106POPC   C4A30798   8.035  40.265   7.688
 2106POPC   C1B30799   8.300  39.627   8.751
 2106POPC   C2B30800   8.506  39.676   8.396
 2106POPC   C3B30801   8.329  39.831   8.055
 2106POPC   C4B30802   8.397  39.684   7.655
 2107POPC   NC330803  10.580  23.979   9.541
 2107POPC   PO430804  10.462  23.341   9.604
 2107POPC   GL130805  10.368  23.449   9.146
 2107POPC   GL230806  10.499  23.776   9.081
 2107POPC   C1A30807  10.532  23.491   8.673
 2107POPC   D2A30808  10.538  23.734   8.301
 2107POPC   C3A30809  10.578  23.807   7.867
 2107POPC   C4A30810  10.484  23.578   7.476
 2107POPC   C1B30811  10.283  23.949   8.712
 2107POPC   C2B30812  10.090  23.942   8.298
 2107POPC   C3B30813  10.266  24.237   7.975
 2107POPC   C4B30814  10.096  24.294   7.506
 2108POPC   NC330815  29.004  31.783   9.507
 2108POPC   PO430816  29.335  32.369   9.545
 2108POPC   GL130817  29.170  32.308   9.160
 2108POPC   GL230818  29.307  31.999   9.176
 2108POPC   C1A30819  29.111  32.460   8.749
 2108POPC   D2A30820  28.974  32.295   8.366
 2108POPC   C3A30821  29.156  32.382   8.000
 2108POPC   C4A30822  28.985  32.447   7.624
 2108POPC   C1B30823  29.111  31.947   8.788
 2108POPC   C2B30824  28.998  31.788   8.402
 2108POPC   C3B30825  28.967  31.912   8.007
 2108POPC   C4B30826  29.276  31.924   7.747
 2109POPC   NC330827  32.594  28.287   9.557
 2109POPC   PO430828  32.063  28.305   9.197
 2109POPC   GL130829  32.159  28.597   8.999
 2109POPC   GL230830  31.797  28.676   8.954
 2109POPC   C1A30831  32.430  28.597   8.630
 2109POPC   D2A30832  32.563  28.372   8.287
 2109POPC   C3A30833  32.268  28.396   7.961
 2109POPC   C4A30834  32.409  28.331   7.562
 2109POPC   C1B30835  31.924  28.502   8.554
 2109POPC   C2B30836  31.988  28.773   8.249
 2109POPC   C3B30837  31.950  28.824   7.843
 2109POPC   C4B30838  31.931  28.477   7.531
 2110POPC   NC330839  18.876  27.208   9.269
 2110POPC   PO430840  18.916  27.729   9.570
 2110POPC   GL130841  19.015  27.710   9.147
 2110POPC   GL230842  19.331  27.555   9.201
 2110POPC   C1A30843  19.081  27.492   8.736
 2110POPC   D2A30844  19.202  27.269   8.385
 2110POPC   C3A30845  19.078  27.469   8.072
 2110POPC   C4A30846  18.859  27.634   7.764
 2110POPC   C1B30847  19.467  27.815   8.845
 2110POPC   C2B30848  19.396  27.758   8.422
 2110POPC   C3B30849  19.526  27.683   8.031
 2110POPC   C4B30850  19.362  27.663   7.622
 2111POPC   NC330851  36.665  12.056   9.428
 2111POPC   PO430852  37.228  11.676   9.502
 2111POPC   GL130853  37.077  11.916   9.124
 2111POPC   GL230854  36.992  12.279   9.058
 2111POPC   C1A30855  36.747  11.922   8.782
 2111POPC   D2A30856  36.833  12.246   8.471
 2111POPC   C3A30857  36.908  12.229   8.036
 2111POPC   C4A30858  36.803  12.032   7.634
 2111POPC   C1B30859  37.148  12.549   8.723
 2111POPC   C2B30860  37.317  12.499   8.288
 2111POPC   C3B30861  37.351  12.374   7.823
 2111POPC   C4B30862  37.169  12.355   7.379
 2112POPC   NC330863  29.296  33.412   9.382
 2112POPC   PO430864  28.991  34.106   9.500
 2112POPC   GL130865  29.271  34.002   9.170
 2112POPC   GL230866  29.031  33.756   9.105
 2112POPC   C1A30867  29.527  34.046   8.786
 2112POPC   D2A30868  29.536  33.825   8.382
 2112POPC   C3A30869  29.171  33.770   8.137
 2112POPC   C4A30870  29.232  33.766   7.697
 2112POPC   C1B30871  29.105  33.754   8.692
 2112POPC   C2B30872  28.943  33.434   8.477
 2112POPC   C3B30873  28.686  33.561   8.163
 2112POPC   C4B30874  28.832  33.469   7.769
 2113POPC   NC330875  35.653  17.412   9.584
 2113POPC   PO430876  35.010  17.541   9.422
 2113POPC   GL130877  35.289  17.383   9.170
 2113POPC   GL230878  35.458  17.694   9.188
 2113POPC   C1A30879  35.389  17.436   8.744
 2113POPC   D2A30880  35.327  17.658   8.345
 2113POPC   C3A30881  35.214  17.346   8.052
 2113POPC   C4A30882  35.490  17.019   7.949
 2113POPC   C1B30883  35.416  17.926   8.816
 2113POPC   C2B30884  35.748  17.849   8.548
 2113POPC   C3B30885  35.791  17.747   8.100
 2113POPC   C4B30886  35.397  17.789   7.847
 2114POPC   NC330887  37.393   8.725   9.420
 2114POPC   PO430888  37.397   9.354   9.692
 2114POPC   GL130889  37.630   9.160   9.303
 2114POPC   GL230890  37.914   8.944   9.309
 2114POPC   C1A30891  37.589   9.020   8.854
 2114POPC   D2A30892  37.477   9.055   8.422
 2114POPC   C3A30893  37.694   9.053   8.024
 2114POPC   C4A30894  37.574   9.239   7.617
 2114POPC   C1B30895  38.003   8.721   8.906
 2114POPC   C2B30896  37.937   8.786   8.462
 2114POPC   C3B30897  38.041   8.669   8.030
 2114POPC   C4B30898  37.807   8.632   7.654
 2115POPC   NC330899  15.723  26.419   9.526
 2115POPC   PO430900  16.287  26.827   9.490
 2115POPC   GL130901  16.102  26.905   9.093
 2115POPC   GL230902  15.865  26.653   9.100
 2115POPC   C1A30903  15.781  27.053   8.779
 2115POPC   D2A30904  15.767  27.201   8.347
 2115POPC   C3A30905  16.080  26.949   8.150
 2115POPC   C4A30906  16.244  26.787   7.778
 2115POPC   C1B30907  16.063  26.488   8.728
 2115POPC   C2B30908  15.988  26.365   8.285
 2115POPC   C3B30909  15.821  26.512   7.865
 2115POPC   C4B30910  15.598  26.643   7.487
 2116POPC   NC330911   8.673  33.839   9.518
 2116POPC   PO430912   9.271  33.694   9.547
 2116POPC   GL130913   9.032  33.879   9.144
 2116POPC   GL230914   8.716  33.672   9.054
 2116POPC   C1A30915   8.963  33.851   8.659
 2116POPC   D2A30916   9.050  34.014   8.276
 2116POPC   C3A30917   8.788  33.979   7.949
 2116POPC   C4A30918   9.005  34.111   7.605
 2116POPC   C1B30919   8.727  33.406   8.693
 2116POPC   C2B30920   8.715  33.562   8.286
 2116POPC   C3B30921   8.509  33.409   7.930
 2116POPC   C4B30922   8.653  33.447   7.461
 2117POPC   NC330923  16.970  20.413   9.792
 2117POPC   PO430924  16.468  20.760   9.730
 2117POPC   GL130925  16.570  20.552   9.343
 2117POPC   GL230926  16.512  20.837   9.173
 2117POPC   C1A30927  16.811  20.489   8.926
 2117POPC   D2A30928  16.739  20.632   8.492
 2117POPC   C3A30929  16.872  20.398   8.130
 2117POPC   C4A30930  17.052  20.413   7.719
 2117POPC   C1B30931  16.334  20.663   8.837
 2117POPC   C2B30932  16.210  20.646   8.419
 2117POPC   C3B30933  16.407  20.607   8.034
 2117POPC   C4B30934  16.720  20.807   7.775
 2118POPC   NC330935  14.547   1.488   9.325
 2118POPC   PO430936  14.724   0.949   9.571
 2118POPC   GL130937  14.470   0.932   9.179
 2118POPC   GL230938  14.101   1.025   9.105
 2118POPC   C1A30939  14.422   1.068   8.734
 2118POPC   D2A30940  14.540   1.340   8.434
 2118POPC   C3A30941  14.597   1.133   8.062
 2118POPC   C4A30942  14.944   1.179   7.809
 2118POPC   C1B30943  14.048   1.401   8.813
 2118POPC   C2B30944  14.039   1.418   8.335
 2118POPC   C3B30945  14.348   1.561   8.001
 2118POPC   C4B30946  14.483   1.329   7.600
 2119POPC   NC330947  14.150   5.475   9.531
 2119POPC   PO430948  14.437   6.048   9.583
 2119POPC   GL130949  14.497   6.046   9.164
 2119POPC   GL230950  14.475   5.682   9.160
 2119POPC   C1A30951  14.585   6.145   8.742
 2119POPC   D2A30952  14.351   6.203   8.367
 2119POPC   C3A30953  14.552   6.028   8.028
 2119POPC   C4A30954  14.472   6.057   7.612
 2119POPC   C1B30955  14.797   5.664   8.840
 2119POPC   C2B30956  14.737   5.730   8.413
 2119POPC   C3B30957  14.676   5.543   7.978
 2119POPC   C4B30958  14.670   5.527   7.506
 2120POPC   NC330959  25.201  30.294   9.432
 2120POPC   PO430960  25.494  29.676   9.474
 2120POPC   GL130961  25.358  29.858   9.126
 2120POPC   GL230962  24.990  29.944   9.126
 2120POPC   C1A30963  25.264  29.634   8.759
 2120POPC   D2A30964  25.130  29.811   8.393
 2120POPC   C3A30965  25.349  29.735   8.031
 2120POPC   C4A30966  25.274  29.867   7.608
 2120POPC   C1B30967  24.829  30.077   8.725
 2120POPC   C2B30968  24.584  29.922   8.393
 2120POPC   C3B30969  24.756  29.781   8.022
 2120POPC   C4B30970  24.789  30.000   7.692
 2121POPC   NC330971  41.283   5.210   9.536
 2121POPC   PO430972  41.906   5.513   9.378
 2121POPC   GL130973  41.600   5.285   9.134
 2121POPC   GL230974  41.626   4.950   9.145
 2121POPC   C1A30975  41.467   5.203   8.708
 2121POPC   D2A30976  41.740   5.222   8.335
 2121POPC   C3A30977  41.485   5.140   7.965
 2121POPC   C4A30978  41.324   5.100   7.546
 2121POPC   C1B30979  41.905   4.956   8.793
 2121POPC   C2B30980  41.869   4.725   8.423
 2121POPC   C3B30981  41.767   4.718   8.034
 2121POPC   C4B30982  41.809   4.917   7.633
 2122POPC   NC330983  30.463  28.889   9.385
 2122POPC   PO430984  30.932  29.325   9.498
 2122POPC   GL130985  30.937  29.047   9.189
 2122POPC   GL230986  31.088  29.317   9.018
 2122POPC   C1A30987  30.702  29.033   8.782
 2122POPC   D2A30988  30.442  29.190   8.440
 2122POPC   C3A30989  30.629  29.129   8.063
 2122POPC   C4A30990  30.625  29.113   7.645
 2122POPC   C1B30991  31.122  29.309   8.608
 2122POPC   C2B30992  31.000  29.415   8.232
 2122POPC   C3B30993  31.092  29.334   7.815
 2122POPC   C4B30994  30.925  29.440   7.417
 2123POPC   NC330995  41.444  23.439   9.366
 2123POPC   PO430996  41.680  22.819   9.500
 2123POPC   GL130997  41.466  22.979   9.144
 2123POPC   GL230998  41.758  23.170   9.041
 2123POPC   C1A30999  41.377  23.094   8.689
 2123POPC   D2A31000  41.101  23.063   8.308
 2123POPC   C3A31001  41.282  22.907   7.913
 2123POPC   C4A31002  41.662  22.711   7.809
 2123POPC   C1B31003  41.895  23.060   8.614
 2123POPC   C2B31004  41.661  23.136   8.213
 2123POPC   C3B31005  41.670  23.213   7.754
 2123POPC   C4B31006  41.889  23.111   7.352
 2124POPC   NC331007   5.666  21.312   9.507
 2124POPC   PO431008   6.273  21.534   9.359
 2124POPC   GL131009   6.001  21.403   9.082
 2124POPC   GL231010   6.123  21.672   8.881
 2124POPC   C1A31011   5.696  21.193   8.827
 2124POPC   D2A31012   5.362  21.225   8.519
 2124POPC   C3A31013   5.558  21.244   8.127
 2124POPC   C4A31014   5.755  21.457   7.754
 2124POPC   C1B31015   6.144  21.370   8.593
 2124POPC   C2B31016   6.032  21.379   8.197
 2124POPC   C3B31017   6.130  21.131   7.882
 2124POPC   C4B31018   6.535  21.127   7.799
 2125POPC   NC331019  32.652  19.768   9.498
 2125POPC   PO431020  33.184  20.084   9.768
 2125POPC   GL131021  33.064  19.953   9.235
 2125POPC   GL231022  32.877  19.660   9.050
 2125POPC   C1A31023  33.075  19.969   8.709
 2125POPC   D2A31024  33.220  20.160   8.288
 2125POPC   C3A31025  33.162  19.951   7.881
 2125POPC   C4A31026  33.230  19.525   7.747
 2125POPC   C1B31027  33.028  19.444   8.677
 2125POPC   C2B31028  33.082  19.604   8.273
 2125POPC   C3B31029  32.778  19.627   7.966
 2125POPC   C4B31030  32.678  19.653   7.575
 2126POPC   NC331031   9.702  37.403   9.230
 2126POPC   PO431032   9.671  36.814   9.604
 2126POPC   GL131033   9.813  36.900   9.172
 2126POPC   GL231034   9.540  36.812   8.945
 2126POPC   C1A31035   9.941  37.048   8.735
 2126POPC   D2A31036   9.753  36.849   8.375
 2126POPC   C3A31037   9.675  37.092   8.037
 2126POPC   C4A31038   9.787  37.014   7.611
 2126POPC   C1B31039   9.449  36.520   8.620
 2126POPC   C2B31040   9.290  36.616   8.240
 2126POPC   C3B31041   9.493  36.645   7.858
 2126POPC   C4B31042   9.406  36.648   7.401
 2127POPC   NC331043  36.292  12.529   9.573
 2127POPC   PO431044  35.969  13.154   9.487
 2127POPC   GL131045  36.120  12.888   9.196
 2127POPC   GL231046  35.924  12.595   9.251
 2127POPC   C1A31047  36.165  13.039   8.788
 2127POPC   D2A31048  36.387  13.095   8.399
 2127POPC   C3A31049  36.159  13.110   8.009
 2127POPC   C4A31050  36.289  13.148   7.583
 2127POPC   C1B31051  35.999  12.561   8.830
 2127POPC   C2B31052  36.031  12.713   8.422
 2127POPC   C3B31053  36.065  12.598   8.016
 2127POPC   C4B31054  35.984  12.626   7.607
 2128POPC   NC331055  27.466  29.337   9.642
 2128POPC   PO431056  27.688  28.694   9.687
 2128POPC   GL131057  27.662  29.006   9.291
 2128POPC   GL231058  27.320  29.195   9.181
 2128POPC   C1A31059  27.630  29.041   8.830
 2128POPC   D2A31060  27.787  29.262   8.464
 2128POPC   C3A31061  27.741  29.050   8.076
 2128POPC   C4A31062  27.417  28.884   7.792
 2128POPC   C1B31063  27.379  29.465   8.778
 2128POPC   C2B31064  27.368  29.578   8.365
 2128POPC   C3B31065  27.342  29.388   7.959
 2128POPC   C4B31066  27.376  29.563   7.533
 2129POPC   NC331067   1.492   9.387   9.521
 2129POPC   PO431068   2.016   9.016   9.565
 2129POPC   GL131069   2.088   8.744   9.228
 2129POPC   GL231070   1.754   8.839   9.127
 2129POPC   C1A31071   2.304   8.863   8.842
 2129POPC   D2A31072   2.263   9.162   8.471
 2129POPC   C3A31073   2.176   8.929   8.076
 2129POPC   C4A31074   2.266   8.874   7.657
 2129POPC   C1B31075   1.827   8.674   8.757
 2129POPC   C2B31076   1.781   8.898   8.393
 2129POPC   C3B31077   1.653   8.823   7.973
 2129POPC   C4B31078   1.685   8.655   7.520
 2130POPC   NC331079  19.779   4.231   9.542
 2130POPC   PO431080  20.192   4.640   9.232
 2130POPC   GL131081  20.053   4.231   9.045
 2130POPC   GL231082  19.721   4.065   9.062
 2130POPC   C1A31083  20.140   4.279   8.624
 2130POPC   D2A31084  19.950   4.463   8.259
 2130POPC   C3A31085  19.999   4.203   7.894
 2130POPC   C4A31086  19.862   4.318   7.458
 2130POPC   C1B31087  19.639   4.209   8.640
 2130POPC   C2B31088  19.607   4.056   8.211
 2130POPC   C3B31089  19.551   4.005   7.755
 2130POPC   C4B31090  19.541   3.944   7.301
 2131POPC   NC331091  29.249  15.403   9.656
 2131POPC   PO431092  28.940  15.999   9.697
 2131POPC   GL131093  29.106  16.024   9.238
 2131POPC   GL231094  29.366  15.801   9.128
 2131POPC   C1A31095  28.973  15.952   8.786
 2131POPC   D2A31096  28.910  15.736   8.365
 2131POPC   C3A31097  28.989  15.999   7.967
 2131POPC   C4A31098  29.248  16.182   7.616
 2131POPC   C1B31099  29.450  15.797   8.665
 2131POPC   C2B31100  29.409  15.737   8.210
 2131POPC   C3B31101  29.528  15.808   7.787
 2131POPC   C4B31102  29.449  15.618   7.368
 2132POPC   NC331103  21.312  37.942   9.730
 2132POPC   PO431104  21.154  37.314   9.635
 2132POPC   GL131105  21.182  37.541   9.253
 2132POPC   GL231106  21.463  37.378   9.073
 2132POPC   C1A31107  21.167  37.728   8.837
 2132POPC   D2A31108  21.000  37.680   8.419
 2132POPC   C3A31109  21.263  37.738   8.038
 2132POPC   C4A31110  21.138  37.779   7.608
 2132POPC   C1B31111  21.202  37.212   8.701
 2132POPC   C2B31112  21.169  37.248   8.230
 2132POPC   C3B31113  21.348  37.298   7.811
 2132POPC   C4B31114  21.616  37.547   7.561
 2133POPC   NC331115  26.669   2.332   9.367
 2133POPC   PO431116  27.091   1.848   9.599
 2133POPC   GL131117  26.956   1.939   9.168
 2133POPC   GL231118  26.592   1.851   9.194
 2133POPC   C1A31119  26.836   2.175   8.759
 2133POPC   D2A31120  26.863   1.957   8.364
 2133POPC   C3A31121  26.676   2.157   8.029
 2133POPC   C4A31122  26.735   2.039   7.639
 2133POPC   C1B31123  26.628   1.716   8.771
 2133POPC   C2B31124  26.470   1.594   8.401
 2133POPC   C3B31125  26.312   1.794   8.037
 2133POPC   C4B31126  26.313   1.747   7.616
 2134POPC   NC331127   5.971  31.916  10.059
 2134POPC   PO431128   5.774  32.343   9.566
 2134POPC   GL131129   6.001  32.476   9.197
 2134POPC   GL231130   5.916  32.158   9.011
 2134POPC   C1A31131   6.155  32.542   8.758
 2134POPC   D2A31132   6.040  32.206   8.465
 2134POPC   C3A31133   5.793  32.350   8.127
 2134POPC   C4A31134   6.010  32.355   7.733
 2134POPC   C1B31135   5.616  32.022   8.688
 2134POPC   C2B31136   5.690  31.802   8.310
 2134POPC   C3B31137   5.784  31.907   7.869
 2134POPC   C4B31138   5.553  32.220   7.582
 2135POPC   NC331139  39.850  25.509   9.568
 2135POPC   PO431140  40.332  25.116   9.291
 2135POPC   GL131141  40.026  25.334   9.120
 2135POPC   GL231142  39.745  25.157   9.170
 2135POPC   C1A31143  40.023  25.531   8.748
 2135POPC   D2A31144  40.266  25.362   8.472
 2135POPC   C3A31145  40.173  25.458   8.076
 2135POPC   C4A31146  40.175  25.093   7.801
 2135POPC   C1B31147  39.865  25.037   8.712
 2135POPC   C2B31148  39.754  25.212   8.297
 2135POPC   C3B31149  39.663  25.010   7.888
 2135POPC   C4B31150  39.601  25.108   7.430
 2136POPC   NC331151  41.658  27.508   9.479
 2136POPC   PO431152  41.052  27.829   9.429
 2136POPC   GL131153  41.249  27.524   9.185
 2136POPC   GL231154  41.465  27.758   9.054
 2136POPC   C1A31155  41.297  27.366   8.751
 2136POPC   D2A31156  41.400  27.610   8.369
 2136POPC   C3A31157  41.622  27.350   8.065
 2136POPC   C4A31158  41.713  27.316   7.627
 2136POPC   C1B31159  41.769  27.579   8.769
 2136POPC   C2B31160  41.897  27.733   8.354
 2136POPC   C3B31161  41.741  27.829   7.933
 2136POPC   C4B31162  41.328  27.746   7.756
 2137POPC   NC331163  19.279  44.544   9.636
 2137POPC   PO431164  18.666  44.477   9.709
 2137POPC   GL131165  18.852  44.612   9.250
 2137POPC   GL231166  19.208  44.599   9.124
 2137POPC   C1A31167  18.897  44.783   8.779
 2137POPC   D2A31168  18.975   0.051   8.407
 2137POPC   C3A31169  18.984  44.876   8.009
 2137POPC   C4A31170  18.767  44.551   7.770
 2137POPC   C1B31171  19.431  44.662   8.712
 2137POPC   C2B31172  19.382  44.598   8.259
 2137POPC   C3B31173  19.318  44.543   7.823
 2137POPC   C4B31174  19.515  44.726   7.491
 2138POPC   NC331175  40.666  25.528   9.375
 2138POPC   PO431176  40.553  25.045   9.824
 2138POPC   GL131177  40.815  25.019   9.343
 2138POPC   GL231178  41.035  25.189   9.127
 2138POPC   C1A31179  40.712  25.063   8.795
 2138POPC   D2A31180  40.904  25.020   8.390
 2138POPC   C3A31181  40.652  25.103   8.028
 2138POPC   C4A31182  40.572  25.458   7.760
 2138POPC   C1B31183  41.180  25.392   8.729
 2138POPC   C2B31184  41.170  25.627   8.341
 2138POPC   C3B31185  41.092  25.358   8.000
 2138POPC   C4B31186  41.431  25.272   7.742
 2139POPC   NC331187  38.565  32.530   9.566
 2139POPC   PO431188  38.887  32.059   9.574
 2139POPC   GL131189  38.537  32.103   9.237
 2139POPC   GL231190  38.206  32.307   9.180
 2139POPC   C1A31191  38.596  32.204   8.805
 2139POPC   D2A31192  38.607  32.066   8.419
 2139POPC   C3A31193  38.601  32.302   8.035
 2139POPC   C4A31194  38.468  32.046   7.730
 2139POPC   C1B31195  38.110  32.152   8.711
 2139POPC   C2B31196  38.145  32.142   8.255
 2139POPC   C3B31197  38.065  32.435   7.920
 2139POPC   C4B31198  38.017  32.433   7.445
 2140POPC   NC331199  29.126  16.409   9.598
 2140POPC   PO431200  29.070  17.139   9.611
 2140POPC   GL131201  29.247  16.885   9.258
 2140POPC   GL231202  29.172  16.551   9.124
 2140POPC   C1A31203  29.278  16.935   8.817
 2140POPC   D2A31204  29.356  16.731   8.438
 2140POPC   C3A31205  29.272  16.988   8.084
 2140POPC   C4A31206  29.384  17.040   7.664
 2140POPC   C1B31207  29.350  16.312   8.813
 2140POPC   C2B31208  29.252  16.207   8.394
 2140POPC   C3B31209  29.266  16.453   8.028
 2140POPC   C4B31210  29.008  16.667   7.745
 2141POPC   NC331211   3.975  38.021   9.348
 2141POPC   PO431212   3.504  37.759   9.745
 2141POPC   GL131213   3.619  37.602   9.298
 2141POPC   GL231214   3.596  37.885   9.049
 2141POPC   C1A31215   3.661  37.418   8.856
 2141POPC   D2A31216   3.444  37.492   8.474
 2141POPC   C3A31217   3.550  37.428   8.028
 2141POPC   C4A31218   3.198  37.603   7.776
 2141POPC   C1B31219   3.913  37.851   8.711
 2141POPC   C2B31220   3.811  37.813   8.296
 2141POPC   C3B31221   3.635  37.926   7.894
 2141POPC   C4B31222   3.773  38.122   7.508
 2142POPC   NC331223   6.841   5.715   9.649
 2142POPC   PO431224   6.410   6.263   9.623
 2142POPC   GL131225   6.456   5.866   9.291
 2142POPC   GL231226   6.511   5.455   9.355
 2142POPC   C1A31227   6.547   5.940   8.837
 2142POPC   D2A31228   6.524   6.133   8.400
 2142POPC   C3A31229   6.572   5.898   8.011
 2142POPC   C4A31230   6.680   6.032   7.587
 2142POPC   C1B31231   6.649   5.425   8.912
 2142POPC   C2B31232   6.533   5.556   8.494
 2142POPC   C3B31233   6.519   5.386   8.091
 2142POPC   C4B31234   6.307   5.532   7.734
 2143POPC   NC331235  37.350   6.249   9.429
 2143POPC   PO431236  37.607   5.662   9.536
 2143POPC   GL131237  37.537   5.725   9.125
 2143POPC   GL231238  37.908   5.658   9.114
 2143POPC   C1A31239  37.602   5.951   8.729
 2143POPC   D2A31240  37.853   6.002   8.346
 2143POPC   C3A31241  37.587   5.888   7.998
 2143POPC   C4A31242  37.382   5.704   7.665
 2143POPC   C1B31243  37.765   5.471   8.728
 2143POPC   C2B31244  37.584   5.511   8.334
 2143POPC   C3B31245  37.725   5.370   7.931
 2143POPC   C4B31246  37.968   5.452   7.555
 2144POPC   NC331247   0.959  41.712   9.423
 2144POPC   PO431248   1.498  41.276   9.535
 2144POPC   GL131249   1.285  41.425   9.153
 2144POPC   GL231250   0.944  41.401   9.033
 2144POPC   C1A31251   1.369  41.327   8.728
 2144POPC   D2A31252   1.242  41.217   8.305
 2144POPC   C3A31253   1.262  41.592   8.081
 2144POPC   C4A31254   1.391  41.650   7.689
 2144POPC   C1B31255   1.014  41.753   8.751
 2144POPC   C2B31256   0.854  41.852   8.351
 2144POPC   C3B31257   0.745  41.597   8.020
 2144POPC   C4B31258   0.897  41.761   7.662
 2145POPC   NC331259   3.113   8.965   9.835
 2145POPC   PO431260   3.730   8.846   9.486
 2145POPC   GL131261   3.535   9.055   9.163
 2145POPC   GL231262   3.683   8.824   8.907
 2145POPC   C1A31263   3.235   9.014   8.794
 2145POPC   D2A31264   3.221   8.687   8.449
 2145POPC   C3A31265   3.184   8.881   8.051
 2145POPC   C4A31266   3.092   9.269   7.836
 2145POPC   C1B31267   4.026   8.592   8.660
 2145POPC   C2B31268   4.023   8.536   8.207
 2145POPC   C3B31269   3.688   8.741   7.959
 2145POPC   C4B31270   3.471   9.000   7.617
 2146POPC   NC331271  13.090  44.952   9.431
 2146POPC   PO431272  12.918  44.246   9.406
 2146POPC   GL131273  12.831  44.407   9.028
 2146POPC   GL231274  12.838  44.776   8.987
 2146POPC   C1A31275  12.718  44.429   8.622
 2146POPC   D2A31276  12.787  44.816   8.420
 2146POPC   C3A31277  12.676  44.833   7.986
 2146POPC   C4A31278  12.781  44.581   7.617
 2146POPC   C1B31279  13.211  44.945   8.766
 2146POPC   C2B31280  13.395   0.126   8.415
 2146POPC   C3B31281  13.202  44.974   8.079
 2146POPC   C4B31282  13.054  44.989   7.672
 2147POPC   NC331283  36.492   2.893   9.749
 2147POPC   PO431284  37.108   2.645   9.546
 2147POPC   GL131285  37.011   2.774   9.154
 2147POPC   GL231286  36.674   2.912   9.253
 2147POPC   C1A31287  36.994   2.697   8.715
 2147POPC   D2A31288  36.651   2.709   8.439
 2147POPC   C3A31289  36.746   2.566   8.044
 2147POPC   C4A31290  36.810   2.635   7.602
 2147POPC   C1B31291  36.677   3.081   8.824
 2147POPC   C2B31292  36.885   3.168   8.471
 2147POPC   C3B31293  37.063   2.983   8.158
 2147POPC   C4B31294  36.761   3.075   7.862
 2148POPC   NC331295  31.422   0.757   9.394
 2148POPC   PO431296  31.778   0.202   9.516
 2148POPC   GL131297  31.592   0.309   9.182
 2148POPC   GL231298  31.275   0.166   9.283
 2148POPC   C1A31299  31.663   0.528   8.802
 2148POPC   D2A31300  31.820   0.393   8.414
 2148POPC   C3A31301  31.637   0.257   8.067
 2148POPC   C4A31302  31.771   0.083   7.707
 2148POPC   C1B31303  31.275   0.165   8.819
 2148POPC   C2B31304  31.298   0.427   8.445
 2148POPC   C3B31305  31.213   0.515   8.003
 2148POPC   C4B31306  31.277   0.151   7.710
 2149POPC   NC331307  13.932  36.667   9.242
 2149POPC   PO431308  13.989  37.317   9.508
 2149POPC   GL131309  14.326  37.152   9.171
 2149POPC   GL231310  14.397  36.862   9.021
 2149POPC   C1A31311  14.470  37.242   8.729
 2149POPC   D2A31312  14.546  37.284   8.312
 2149POPC   C3A31313  14.298  37.022   8.043
 2149POPC   C4A31314  14.336  37.172   7.663
 2149POPC   C1B31315  14.159  36.838   8.632
 2149POPC   C2B31316  14.274  36.580   8.302
 2149POPC   C3B31317  14.128  36.446   7.918
 2149POPC   C4B31318  14.179  36.685   7.581
 2150POPC   NC331319  23.340   5.555   9.326
 2150POPC   PO431320  22.904   5.995   9.650
 2150POPC   GL131321  22.921   5.865   9.201
 2150POPC   GL231322  22.591   5.829   9.003
 2150POPC   C1A31323  23.055   5.892   8.756
 2150POPC   D2A31324  22.870   6.005   8.341
 2150POPC   C3A31325  23.073   5.906   7.933
 2150POPC   C4A31326  23.282   5.780   7.542
 2150POPC   C1B31327  22.657   5.550   8.693
 2150POPC   C2B31328  22.843   5.491   8.288
 2150POPC   C3B31329  22.804   5.471   7.845
 2150POPC   C4B31330  22.792   5.723   7.510
 2151POPC   NC331331  26.403  35.472   9.380
 2151POPC   PO431332  27.008  35.158   9.428
 2151POPC   GL131333  26.834  35.236   9.044
 2151POPC   GL231334  26.958  35.563   9.084
 2151POPC   C1A31335  26.739  35.081   8.611
 2151POPC   D2A31336  26.631  35.263   8.195
 2151POPC   C3A31337  26.899  35.189   7.845
 2151POPC   C4A31338  26.859  34.964   7.462
 2151POPC   C1B31339  26.795  35.589   8.659
 2151POPC   C2B31340  26.840  35.756   8.248
 2151POPC   C3B31341  26.690  35.670   7.850
 2151POPC   C4B31342  26.573  35.788   7.430
 2152POPC   NC331343  39.461   6.690   9.304
 2152POPC   PO431344  40.044   6.839   9.635
 2152POPC   GL131345  39.919   6.907   9.182
 2152POPC   GL231346  39.908   6.553   9.059
 2152POPC   C1A31347  40.118   6.922   8.742
 2152POPC   D2A31348  40.094   6.691   8.344
 2152POPC   C3A31349  40.056   6.816   7.895
 2152POPC   C4A31350  40.341   6.962   7.572
 2152POPC   C1B31351  40.214   6.337   8.755
 2152POPC   C2B31352  40.151   6.183   8.315
 2152POPC   C3B31353  40.032   6.280   7.870
 2152POPC   C4B31354  39.685   6.521   7.636
 2153POPC   NC331355  16.763  25.583   9.485
 2153POPC   PO431356  17.172  24.995   9.586
 2153POPC   GL131357  17.065  25.239   9.224
 2153POPC   GL231358  16.677  25.214   9.121
 2153POPC   C1A31359  17.046  25.364   8.810
 2153POPC   D2A31360  16.667  25.368   8.584
 2153POPC   C3A31361  16.740  25.258   8.185
 2153POPC   C4A31362  16.910  25.270   7.778
 2153POPC   C1B31363  16.529  24.914   8.782
 2153POPC   C2B31364  16.462  24.844   8.318
 2153POPC   C3B31365  16.418  25.018   7.847
 2153POPC   C4B31366  16.351  24.916   7.366
 2154POPC   NC331367  28.507  17.112   9.383
 2154POPC   PO431368  28.425  16.433   9.378
 2154POPC   GL131369  28.416  16.740   9.040
 2154POPC   GL231370  28.759  16.853   9.022
 2154POPC   C1A31371  28.385  16.864   8.603
 2154POPC   D2A31372  28.057  17.029   8.341
 2154POPC   C3A31373  28.162  16.867   7.948
 2154POPC   C4A31374  28.066  16.540   7.685
 2154POPC   C1B31375  28.885  16.603   8.673
 2154POPC   C2B31376  28.795  16.594   8.230
 2154POPC   C3B31377  28.551  16.452   7.866
 2154POPC   C4B31378  28.548  16.667   7.470
 2155POPC   NC331379  14.035  25.146   9.402
 2155POPC   PO431380  14.544  25.596   9.511
 2155POPC   GL131381  14.517  25.403   9.096
 2155POPC   GL231382  14.190  25.493   9.084
 2155POPC   C1A31383  14.463  25.115   8.723
 2155POPC   D2A31384  14.165  24.849   8.443
 2155POPC   C3A31385  14.285  24.894   7.995
 2155POPC   C4A31386  14.732  25.034   7.888
 2155POPC   C1B31387  14.088  25.467   8.665
 2155POPC   C2B31388  14.281  25.327   8.272
 2155POPC   C3B31389  14.404  25.440   7.861
 2155POPC   C4B31390  14.221  25.774   7.635
 2156POPC   NC331391  22.868  31.271   9.655
 2156POPC   PO431392  22.883  31.995   9.575
 2156POPC   GL131393  22.746  31.868   9.133
 2156POPC   GL231394  22.962  31.519   9.088
 2156POPC   C1A31395  22.704  31.786   8.722
 2156POPC   D2A31396  22.800  31.497   8.378
 2156POPC   C3A31397  23.168  31.646   8.151
 2156POPC   C4A31398  23.203  31.768   7.730
 2156POPC   C1B31399  23.212  31.296   8.725
 2156POPC   C2B31400  23.163  31.135   8.279
 2156POPC   C3B31401  23.139  31.253   7.824
 2156POPC   C4B31402  23.031  31.056   7.441
 2157POPC   NC331403   8.758  17.841   9.525
 2157POPC   PO431404   9.034  17.273   9.387
 2157POPC   GL131405   8.811  17.490   9.092
 2157POPC   GL231406   9.048  17.739   9.085
 2157POPC   C1A31407   8.935  17.456   8.638
 2157POPC   D2A31408   9.092  17.668   8.250
 2157POPC   C3A31409   9.067  17.303   7.935
 2157POPC   C4A31410   8.651  17.174   7.734
 2157POPC   C1B31411   8.953  17.945   8.706
 2157POPC   C2B31412   8.810  18.211   8.386
 2157POPC   C3B31413   8.876  18.089   7.992
 2157POPC   C4B31414   9.009  17.758   7.733
 2158POPC   NC331415  15.504  38.349   9.583
 2158POPC   PO431416  15.624  38.838   9.347
 2158POPC   GL131417  15.373  38.501   9.082
 2158POPC   GL231418  15.574  38.222   9.076
 2158POPC   C1A31419  15.255  38.267   8.661
 2158POPC   D2A31420  15.222  38.411   8.230
 2158POPC   C3A31421  14.867  38.345   7.933
 2158POPC   C4A31422  14.688  38.256   7.507
 2158POPC   C1B31423  15.718  38.459   8.674
 2158POPC   C2B31424  15.734  38.499   8.203
 2158POPC   C3B31425  15.537  38.311   7.820
 2158POPC   C4B31426  15.176  38.123   7.616
 2159POPC   NC331427  36.153  19.499   9.518
 2159POPC   PO431428  36.548  19.925   9.443
 2159POPC   GL131429  36.312  19.747   9.110
 2159POPC   GL231430  36.015  19.867   9.030
 2159POPC   C1A31431  36.302  19.464   8.776
 2159POPC   D2A31432  36.418  19.470   8.318
 2159POPC   C3A31433  36.186  19.793   8.073
 2159POPC   C4A31434  35.950  19.816   7.677
 2159POPC   C1B31435  36.058  19.869   8.601
 2159POPC   C2B31436  35.761  19.995   8.332
 2159POPC   C3B31437  35.764  20.209   7.956
 2159POPC   C4B31438  35.706  20.269   7.536
 2160POPC   NC331439  32.373   8.986   9.571
 2160POPC   PO431440  31.850   8.826   9.127
 2160POPC   GL131441  32.254   8.944   9.078
 2160POPC   GL231442  32.188   9.276   9.165
 2160POPC   C1A31443  32.512   8.832   8.740
 2160POPC   D2A31444  32.390   8.578   8.350
 2160POPC   C3A31445  32.177   8.768   7.976
 2160POPC   C4A31446  32.491   8.860   7.609
 2160POPC   C1B31447  32.283   9.334   8.746
 2160POPC   C2B31448  32.322   9.108   8.375
 2160POPC   C3B31449  32.418   9.204   8.005
 2160POPC   C4B31450  32.140   9.210   7.711
 2161POPC   NC331451   1.988   7.758   9.419
 2161POPC   PO431452   1.948   7.083   9.444
 2161POPC   GL131453   1.833   7.364   9.125
 2161POPC   GL231454   2.170   7.411   9.065
 2161POPC   C1A31455   1.814   7.363   8.696
 2161POPC   D2A31456   1.964   7.239   8.342
 2161POPC   C3A31457   1.792   7.454   8.016
 2161POPC   C4A31458   2.026   7.776   7.734
 2161POPC   C1B31459   2.186   7.755   8.778
 2161POPC   C2B31460   2.351   7.857   8.402
 2161POPC   C3B31461   2.300   7.559   8.097
 2161POPC   C4B31462   2.241   7.140   7.920
 2162POPC   NC331463  29.501   3.526   9.500
 2162POPC   PO431464  30.093   3.792   9.514
 2162POPC   GL131465  29.962   3.515   9.174
 2162POPC   GL231466  29.630   3.646   9.025
 2162POPC   C1A31467  30.202   3.339   8.825
 2162POPC   D2A31468  30.142   3.369   8.391
 2162POPC   C3A31469  29.915   3.593   8.109
 2162POPC   C4A31470  29.964   3.610   7.673
 2162POPC   C1B31471  29.913   3.753   8.688
 2162POPC   C2B31472  29.999   4.017   8.352
 2162POPC   C3B31473  29.841   4.059   7.920
 2162POPC   C4B31474  29.690   4.005   7.493
 2163POPC   NC331475  24.224   2.070   9.484
 2163POPC   PO431476  24.865   2.015   9.576
 2163POPC   GL131477  24.621   2.008   9.151
 2163POPC   GL231478  24.371   1.814   9.084
 2163POPC   C1A31479  24.413   2.222   8.779
 2163POPC   D2A31480  24.414   1.978   8.396
 2163POPC   C3A31481  24.313   2.207   8.040
 2163POPC   C4A31482  24.616   2.231   7.704
 2163POPC   C1B31483  24.088   1.829   8.764
 2163POPC   C2B31484  24.018   1.640   8.374
 2163POPC   C3B31485  24.244   1.566   8.001
 2163POPC   C4B31486  24.270   1.856   7.662
 2164POPC   NC331487  11.273  17.824   9.548
 2164POPC   PO431488  11.116  18.548   9.568
 2164POPC   GL131489  11.181  18.255   9.269
 2164POPC   GL231490  10.874  18.247   9.096
 2164POPC   C1A31491  11.394  18.344   8.901
 2164POPC   D2A31492  11.347  18.546   8.499
 2164POPC   C3A31493  11.560  18.330   8.164
 2164POPC   C4A31494  11.564  18.361   7.728
 2164POPC   C1B31495  10.978  18.064   8.695
 2164POPC   C2B31496  11.142  18.052   8.285
 2164POPC   C3B31497  11.089  18.253   7.907
 2164POPC   C4B31498  10.747  18.240   7.614
 2165POPC   NC331499  44.705  28.075   9.294
 2165POPC   PO431500  44.874  28.650   9.517
 2165POPC   GL131501  44.930  28.523   9.092
 2165POPC   GL231502   0.124  28.225   9.086
 2165POPC   C1A31503  44.639  28.395   8.756
 2165POPC   D2A31504  44.381  28.195   8.465
 2165POPC   C3A31505  44.578  28.177   8.077
 2165POPC   C4A31506  44.494  28.312   7.664
 2165POPC   C1B31507   0.130  28.224   8.640
 2165POPC   C2B31508   0.234  27.948   8.320
 2165POPC   C3B31509   0.021  27.883   7.973
 2165POPC   C4B31510  44.997  28.178   7.735
 2166POPC   NC331511  41.250  38.188   9.527
 2166POPC   PO431512  41.762  38.160   9.353
 2166POPC   GL131513  41.491  38.428   9.096
 2166POPC   GL231514  41.745  38.672   9.038
 2166POPC   C1A31515  41.379  38.579   8.662
 2166POPC   D2A31516  41.456  38.281   8.330
 2166POPC   C3A31517  41.569  38.295   7.888
 2166POPC   C4A31518  41.484  37.935   7.630
 2166POPC   C1B31519  41.875  38.517   8.620
 2166POPC   C2B31520  41.784  38.663   8.186
 2166POPC   C3B31521  41.970  38.594   7.771
 2166POPC   C4B31522  41.939  38.208   7.522
 2167POPC   NC331523  14.846   1.895   9.712
 2167POPC   PO431524  15.340   2.152   9.404
 2167POPC   GL131525  15.158   1.903   9.102
 2167POPC   GL231526  14.834   1.930   9.176
 2167POPC   C1A31527  15.283   1.874   8.711
 2167POPC   D2A31528  15.059   2.170   8.480
 2167POPC   C3A31529  15.212   2.099   8.105
 2167POPC   C4A31530  15.185   2.002   7.699
 2167POPC   C1B31531  14.776   1.753   8.769
 2167POPC   C2B31532  14.709   1.818   8.348
 2167POPC   C3B31533  14.873   1.673   7.964
 2167POPC   C4B31534  14.872   1.630   7.512
 2168POPC   NC331535   6.350  17.913   9.531
 2168POPC   PO431536   6.749  18.457   9.639
 2168POPC   GL131537   6.538  18.379   9.190
 2168POPC   GL231538   6.557  18.048   9.081
 2168POPC   C1A31539   6.458  18.416   8.737
 2168POPC   D2A31540   6.343  18.085   8.451
 2168POPC   C3A31541   6.368  18.217   8.030
 2168POPC   C4A31542   6.479  18.634   7.942
 2168POPC   C1B31543   6.843  18.077   8.716
 2168POPC   C2B31544   6.793  18.301   8.330
 2168POPC   C3B31545   6.858  18.252   7.881
 2168POPC   C4B31546   6.670  17.874   7.690
 2169POPC   NC331547  42.465  10.703   9.550
 2169POPC   PO431548  42.177  10.079   9.511
 2169POPC   GL131549  42.336  10.217   9.106
 2169POPC   GL231550  42.445  10.583   9.059
 2169POPC   C1A31551  42.232  10.328   8.678
 2169POPC   D2A31552  42.461  10.271   8.298
 2169POPC   C3A31553  42.282  10.530   7.952
 2169POPC   C4A31554  42.134  10.364   7.580
 2169POPC   C1B31555  42.666  10.597   8.672
 2169POPC   C2B31556  42.617  10.772   8.258
 2169POPC   C3B31557  42.686  10.851   7.790
 2169POPC   C4B31558  42.819  10.931   7.334
 2170POPC   NC331559  28.911   8.795   9.318
 2170POPC   PO431560  29.491   8.662   9.571
 2170POPC   GL131561  29.412   8.703   9.147
 2170POPC   GL231562  29.536   9.037   9.166
 2170POPC   C1A31563  29.214   8.889   8.761
 2170POPC   D2A31564  28.970   8.791   8.395
 2170POPC   C3A31565  29.131   8.938   8.011
 2170POPC   C4A31566  29.189   8.738   7.633
 2170POPC   C1B31567  29.580   9.263   8.774
 2170POPC   C2B31568  29.505   9.404   8.347
 2170POPC   C3B31569  29.365   9.476   7.918
 2170POPC   C4B31570  29.449   9.171   7.657
 2171POPC   NC331571  28.269  20.824   9.486
 2171POPC   PO431572  28.107  20.204   9.475
 2171POPC   GL131573  28.311  20.452   9.103
 2171POPC   GL231574  28.461  20.811   9.028
 2171POPC   C1A31575  28.166  20.568   8.703
 2171POPC   D2A31576  28.017  20.632   8.305
 2171POPC   C3A31577  28.168  20.455   7.962
 2171POPC   C4A31578  28.222  20.691   7.608
 2171POPC   C1B31579  28.645  20.656   8.679
 2171POPC   C2B31580  28.532  20.517   8.319
 2171POPC   C3B31581  28.620  20.705   7.951
 2171POPC   C4B31582  28.743  20.611   7.543
 2172POPC   NC331583  39.392  42.012   9.478
 2172POPC   PO431584  39.081  42.588   9.718
 2172POPC   GL131585  39.258  42.532   9.282
 2172POPC   GL231586  39.585  42.431   9.165
 2172POPC   C1A31587  39.290  42.669   8.841
 2172POPC   D2A31588  39.434  42.552   8.441
 2172POPC   C3A31589  39.205  42.503   8.075
 2172POPC   C4A31590  39.371  42.530   7.671
 2172POPC   C1B31591  39.430  42.172   8.801
 2172POPC   C2B31592  39.288  42.060   8.354
 2172POPC   C3B31593  39.516  42.117   7.942
 2172POPC   C4B31594  39.482  42.011   7.487
 2173POPC   NC331595   1.419   2.331   9.483
 2173POPC   PO431596   1.074   2.969   9.526
 2173POPC   GL131597   1.042   2.768   9.129
 2173POPC   GL231598   1.014   2.382   9.162
 2173POPC   C1A31599   1.219   2.985   8.743
 2173POPC   D2A31600   1.531   3.122   8.402
 2173POPC   C3A31601   1.657   2.749   8.153
 2173POPC   C4A31602   1.467   2.588   7.769
 2173POPC   C1B31603   1.110   2.477   8.709
 2173POPC   C2B31604   0.983   2.717   8.329
 2173POPC   C3B31605   0.923   2.574   7.885
 2173POPC   C4B31606   1.096   2.278   7.579
 2174POPC   NC331607   3.145  29.797   9.895
 2174POPC   PO431608   3.605  30.179   9.574
 2174POPC   GL131609   3.643  30.038   9.168
 2174POPC   GL231610   3.244  30.041   9.152
 2174POPC   C1A31611   3.876  29.967   8.779
 2174POPC   D2A31612   3.853  30.108   8.353
 2174POPC   C3A31613   3.873  29.806   8.022
 2174POPC   C4A31614   3.732  29.797   7.591
 2174POPC   C1B31615   3.370  30.011   8.716
 2174POPC   C2B31616   3.359  30.205   8.325
 2174POPC   C3B31617   3.183  30.257   7.932
 2174POPC   C4B31618   3.184  29.848   7.765
 2175POPC   NC331619  26.628   7.112   9.555
 2175POPC   PO431620  27.179   7.478   9.491
 2175POPC   GL131621  26.980   7.410   9.118
 2175POPC   GL231622  26.655   7.261   9.074
 2175POPC   C1A31623  27.135   7.197   8.750
 2175POPC   D2A31624  27.094   7.360   8.342
 2175POPC   C3A31625  27.187   7.121   7.978
 2175POPC   C4A31626  27.039   7.171   7.588
 2175POPC   C1B31627  26.691   7.479   8.701
 2175POPC   C2B31628  26.384   7.698   8.497
 2175POPC   C3B31629  26.386   7.496   8.110
 2175POPC   C4B31630  26.762   7.527   7.873
 2176POPC   NC331631  25.214  16.321   9.417
 2176POPC   PO431632  25.525  16.853   9.705
 2176POPC   GL131633  25.331  16.782   9.235
 2176POPC   GL231634  25.081  16.996   9.064
 2176POPC   C1A31635  25.388  16.617   8.814
 2176POPC   D2A31636  25.666  16.553   8.472
 2176POPC   C3A31637  25.525  16.779   8.149
 2176POPC   C4A31638  25.217  16.739   7.868
 2176POPC   C1B31639  24.967  16.894   8.662
 2176POPC   C2B31640  25.117  17.044   8.265
 2176POPC   C3B31641  25.004  17.196   7.850
 2176POPC   C4B31642  24.810  16.922   7.610
 2177POPC   NC331643   7.581   8.900   9.616
 2177POPC   PO431644   7.214   8.925   9.105
 2177POPC   GL131645   7.652   8.931   9.109
 2177POPC   GL231646   7.678   9.265   9.241
 2177POPC   C1A31647   7.679   8.789   8.704
 2177POPC   D2A31648   7.304   8.883   8.501
 2177POPC   C3A31649   7.435   8.796   8.113
 2177POPC   C4A31650   7.395   8.729   7.720
 2177POPC   C1B31651   7.672   9.303   8.775
 2177POPC   C2B31652   7.708   9.184   8.348
 2177POPC   C3B31653   7.583   9.288   7.959
 2177POPC   C4B31654   7.223   9.204   7.723
 2178POPC   NC331655  32.614  11.923   9.379
 2178POPC   PO431656  33.043  12.423   9.542
 2178POPC   GL131657  33.003  12.191   9.134
 2178POPC   GL231658  32.680  12.083   8.911
 2178POPC   C1A31659  33.133  12.181   8.703
 2178POPC   D2A31660  32.773  12.303   8.431
 2178POPC   C3A31661  32.908  12.318   8.026
 2178POPC   C4A31662  33.306  12.263   7.876
 2178POPC   C1B31663  32.948  11.703   8.758
 2178POPC   C2B31664  33.231  11.658   8.364
 2178POPC   C3B31665  33.076  11.786   7.940
 2178POPC   C4B31666  32.658  11.929   7.776
 2179POPC   NC331667  35.041  44.168   9.582
 2179POPC   PO431668  35.473  43.700   9.562
 2179POPC   GL131669  35.297  43.833   9.221
 2179POPC   GL231670  35.271  44.181   9.132
 2179POPC   C1A31671  35.391  43.778   8.808
 2179POPC   D2A31672  35.596  43.908   8.443
 2179POPC   C3A31673  35.326  43.924   8.081
 2179POPC   C4A31674  35.520  43.799   7.698
 2179POPC   C1B31675  35.474  44.287   8.743
 2179POPC   C2B31676  35.426  44.409   8.295
 2179POPC   C3B31677  35.317  44.355   7.820
 2179POPC   C4B31678  35.117  44.066   7.526
 2180POPC   NC331679  34.959  15.042   9.829
 2180POPC   PO431680  34.421  15.235   9.516
 2180POPC   GL131681  34.639  15.249   9.177
 2180POPC   GL231682  34.870  14.995   9.282
 2180POPC   C1A31683  34.576  15.430   8.789
 2180POPC   D2A31684  34.197  15.419   8.523
 2180POPC   C3A31685  34.174  15.370   8.061
 2180POPC   C4A31686  34.482  15.257   7.758
 2180POPC   C1B31687  34.627  14.821   8.928
 2180POPC   C2B31688  34.590  14.994   8.513
 2180POPC   C3B31689  34.761  14.960   8.126
 2180POPC   C4B31690  34.687  14.801   7.741
 2181POPC   NC331691  44.306   7.346   9.600
 2181POPC   PO431692  43.595   7.182   9.575
 2181POPC   GL131693  43.748   7.138   9.181
 2181POPC   GL231694  43.991   7.347   9.181
 2181POPC   C1A31695  43.668   7.372   8.791
 2181POPC   D2A31696  43.916   7.271   8.459
 2181POPC   C3A31697  43.820   7.454   8.080
 2181POPC   C4A31698  43.821   7.232   7.696
 2181POPC   C1B31699  44.126   7.603   8.831
 2181POPC   C2B31700  44.049   7.769   8.429
 2181POPC   C3B31701  44.270   7.783   8.061
 2181POPC   C4B31702  44.248   7.525   7.762
 2182POPC   NC331703  27.811  16.569   9.484
 2182POPC   PO431704  27.235  17.008   9.543
 2182POPC   GL131705  27.559  16.881   9.183
 2182POPC   GL231706  27.532  16.575   8.961
 2182POPC   C1A31707  27.912  16.873   8.844
 2182POPC   D2A31708  27.819  16.616   8.523
 2182POPC   C3A31709  27.759  16.629   8.090
 2182POPC   C4A31710  27.571  16.394   7.781
 2182POPC   C1B31711  27.344  16.857   8.682
 2182POPC   C2B31712  27.452  16.969   8.268
 2182POPC   C3B31713  27.363  16.867   7.844
 2182POPC   C4B31714  27.065  16.536   7.817
 2183POPC   NC331715  10.028  28.110   9.318
 2183POPC   PO431716  10.495  28.540   9.620
 2183POPC   GL131717  10.600  28.381   9.180
 2183POPC   GL231718  10.692  28.042   9.129
 2183POPC   C1A31719  10.757  28.349   8.729
 2183POPC   D2A31720  10.656  28.138   8.344
 2183POPC   C3A31721  10.730  28.404   8.024
 2183POPC   C4A31722  10.531  28.596   7.760
 2183POPC   C1B31723  10.379  28.023   8.784
 2183POPC   C2B31724  10.131  28.076   8.385
 2183POPC   C3B31725  10.271  28.137   7.944
 2183POPC   C4B31726  10.316  27.859   7.606
 2184POPC   NC331727  17.732  12.698   9.408
 2184POPC   PO431728  17.119  12.732   9.680
 2184POPC   GL131729  17.307  12.612   9.185
 2184POPC   GL231730  17.561  12.934   8.998
 2184POPC   C1A31731  17.492  12.533   8.749
 2184POPC   D2A31732  17.778  12.565   8.429
 2184POPC   C3A31733  17.566  12.686   8.090
 2184POPC   C4A31734  17.534  12.542   7.718
 2184POPC   C1B31735  17.483  13.017   8.559
 2184POPC   C2B31736  17.199  13.035   8.209
 2184POPC   C3B31737  17.324  13.030   7.778
 2184POPC   C4B31738  17.768  13.007   7.679
 2185POPC   NC331739   7.472  13.915   9.460
 2185POPC   PO431740   7.265  13.249   9.476
 2185POPC   GL131741   7.488  13.524   9.113
 2185POPC   GL231742   7.278  13.814   9.010
 2185POPC   C1A31743   7.602  13.635   8.650
 2185POPC   D2A31744   7.537  13.302   8.295
 2185POPC   C3A31745   7.582  13.376   7.835
 2185POPC   C4A31746   7.364  13.522   7.466
 2185POPC   C1B31747   6.991  13.899   8.679
 2185POPC   C2B31748   7.069  13.833   8.280
 2185POPC   C3B31749   7.349  13.905   7.959
 2185POPC   C4B31750   7.071  13.912   7.641
 2186POPC   NC331751   6.543   2.396   9.517
 2186POPC   PO431752   6.729   2.985   9.537
 2186POPC   GL131753   6.521   2.912   9.154
 2186POPC   GL231754   6.712   2.607   9.087
 2186POPC   C1A31755   6.517   2.852   8.683
 2186POPC   D2A31756   6.731   2.942   8.316
 2186POPC   C3A31757   6.665   2.815   7.907
 2186POPC   C4A31758   6.950   3.048   7.664
 2186POPC   C1B31759   6.530   2.353   8.716
 2186POPC   C2B31760   6.485   2.503   8.297
 2186POPC   C3B31761   6.287   2.471   7.923
 2186POPC   C4B31762   6.522   2.358   7.592
 2187POPC   NC331763   6.395   4.943   9.670
 2187POPC   PO431764   7.012   5.257   9.513
 2187POPC   GL131765   6.822   5.014   9.173
 2187POPC   GL231766   6.487   4.942   9.165
 2187POPC   C1A31767   6.884   4.960   8.734
 2187POPC   D2A31768   6.937   5.242   8.394
 2187POPC   C3A31769   6.886   5.039   8.008
 2187POPC   C4A31770   6.666   5.171   7.642
 2187POPC   C1B31771   6.485   4.665   8.805
 2187POPC   C2B31772   6.324   4.666   8.365
 2187POPC   C3B31773   6.386   4.863   7.938
 2187POPC   C4B31774   6.384   4.761   7.468
 2188POPC   NC331775   7.666   2.025   9.519
 2188POPC   PO431776   7.010   2.323   9.443
 2188POPC   GL131777   7.283   2.059   9.156
 2188POPC   GL231778   7.569   1.801   9.098
 2188POPC   C1A31779   7.548   2.230   8.820
 2188POPC   D2A31780   7.478   2.514   8.491
 2188POPC   C3A31781   7.454   2.303   8.128
 2188POPC   C4A31782   7.306   2.167   7.752
 2188POPC   C1B31783   7.349   1.726   8.763
 2188POPC   C2B31784   7.498   1.900   8.439
 2188POPC   C3B31785   7.533   1.789   8.044
 2188POPC   C4B31786   7.178   1.678   7.837
 2189POPC   NC331787  26.413   9.038   9.490
 2189POPC   PO431788  26.852   8.555   9.503
 2189POPC   GL131789  26.790   8.682   9.077
 2189POPC   GL231790  26.538   8.932   8.993
 2189POPC   C1A31791  26.944   8.601   8.664
 2189POPC   D2A31792  26.991   8.774   8.250
 2189POPC   C3A31793  26.693   8.711   7.927
 2189POPC   C4A31794  26.719   8.513   7.521
 2189POPC   C1B31795  26.535   8.888   8.547
 2189POPC   C2B31796  26.608   9.148   8.200
 2189POPC   C3B31797  26.740   9.211   7.768
 2189POPC   C4B31798  26.744   9.410   7.345
 2190POPC   NC331799  28.925   3.125   9.503
 2190POPC   PO431800  29.107   3.797   9.526
 2190POPC   GL131801  29.113   3.505   9.172
 2190POPC   GL231802  28.785   3.386   9.086
 2190POPC   C1A31803  29.244   3.382   8.763
 2190POPC   D2A31804  29.530   3.511   8.437
 2190POPC   C3A31805  29.450   3.380   8.024
 2190POPC   C4A31806  29.434   3.552   7.631
 2190POPC   C1B31807  28.849   3.717   8.765
 2190POPC   C2B31808  29.020   3.649   8.329
 2190POPC   C3B31809  28.987   3.595   7.881
 2190POPC   C4B31810  28.954   3.463   7.456
 2191POPC   NC331811  44.445  24.287   9.438
 2191POPC   PO431812   0.091  24.643   9.436
 2191POPC   GL131813  44.792  24.560   9.107
 2191POPC   GL231814  44.443  24.678   9.072
 2191POPC   C1A31815  44.743  24.450   8.685
 2191POPC   D2A31816  44.984  24.383   8.346
 2191POPC   C3A31817  44.785  24.315   7.986
 2191POPC   C4A31818  44.861  24.583   7.675
 2191POPC   C1B31819  44.228  24.559   8.701
 2191POPC   C2B31820  44.343  24.438   8.261
 2191POPC   C3B31821  44.360  24.619   7.823
 2191POPC   C4B31822  44.470  24.724   7.383
 2192POPC   NC331823   1.471  30.022   9.867
 2192POPC   PO431824   1.959  29.782   9.472
 2192POPC   GL131825   1.831  29.963   9.107
 2192POPC   GL231826   1.517  30.136   9.144
 2192POPC   C1A31827   2.003  29.908   8.697
 2192POPC   D2A31828   1.897  29.755   8.292
 2192POPC   C3A31829   2.141  29.872   7.927
 2192POPC   C4A31830   2.286  29.971   7.521
 2192POPC   C1B31831   1.456  29.932   8.730
 2192POPC   C2B31832   1.506  30.090   8.324
 2192POPC   C3B31833   1.629  30.000   7.927
 2192POPC   C4B31834   1.788  30.092   7.537
 2193POPC   NC331835  22.981   1.629   9.521
 2193POPC   PO431836  22.886   2.263   9.476
 2193POPC   GL131837  22.929   1.924   9.129
 2193POPC   GL231838  23.293   1.944   9.165
 2193POPC   C1A31839  22.664   1.748   8.754
 2193POPC   D2A31840  22.811   2.016   8.371
 2193POPC   C3A31841  22.843   2.030   7.886
 2193POPC   C4A31842  22.688   2.222   7.483
 2193POPC   C1B31843  23.133   2.274   8.837
 2193POPC   C2B31844  23.108   2.485   8.443
 2193POPC   C3B31845  23.250   2.361   8.024
 2193POPC   C4B31846  23.377   2.021   7.747
 2194POPC   NC331847  41.725   7.586   9.674
 2194POPC   PO431848  41.275   7.924   9.347
 2194POPC   GL131849  41.355   7.543   9.123
 2194POPC   GL231850  41.665   7.357   9.185
 2194POPC   C1A31851  41.383   7.438   8.704
 2194POPC   D2A31852  41.577   7.331   8.329
 2194POPC   C3A31853  41.559   7.598   8.024
 2194POPC   C4A31854  41.393   7.589   7.646
 2194POPC   C1B31855  41.932   7.362   8.810
 2194POPC   C2B31856  42.071   7.216   8.394
 2194POPC   C3B31857  42.079   7.452   8.037
 2194POPC   C4B31858  41.864   7.406   7.666
 2195POPC   NC331859  15.947   9.600   9.539
 2195POPC   PO431860  16.062  10.244   9.487
 2195POPC   GL131861  15.835   9.967   9.156
 2195POPC   GL231862  15.744   9.572   9.090
 2195POPC   C1A31863  15.969   9.879   8.762
 2195POPC   D2A31864  15.891   9.675   8.412
 2195POPC   C3A31865  15.952   9.922   8.091
 2195POPC   C4A31866  15.984   9.830   7.666
 2195POPC   C1B31867  15.773   9.291   8.735
 2195POPC   C2B31868  15.624   9.241   8.321
 2195POPC   C3B31869  15.809   9.438   7.964
 2195POPC   C4B31870  16.032   9.297   7.604
 2196POPC   NC331871  13.484  35.172   9.828
 2196POPC   PO431872  13.916  34.847   9.443
 2196POPC   GL131873  13.665  34.747   9.124
 2196POPC   GL231874  13.760  34.440   8.989
 2196POPC   C1A31875  13.781  34.865   8.701
 2196POPC   D2A31876  13.659  34.583   8.408
 2196POPC   C3A31877  13.563  34.720   8.015
 2196POPC   C4A31878  13.555  34.596   7.639
 2196POPC   C1B31879  13.494  34.201   8.751
 2196POPC   C2B31880  13.237  34.290   8.430
 2196POPC   C3B31881  13.482  34.214   8.065
 2196POPC   C4B31882  13.377  34.120   7.654
 2197POPC   NC331883  31.024  19.387   9.433
 2197POPC   PO431884  31.585  19.670   9.631
 2197POPC   GL131885  31.622  19.623   9.186
 2197POPC   GL231886  31.414  19.908   9.157
 2197POPC   C1A31887  31.622  19.739   8.723
 2197POPC   D2A31888  31.673  20.079   8.407
 2197POPC   C3A31889  31.810  19.927   8.028
 2197POPC   C4A31890  31.714  19.527   7.846
 2197POPC   C1B31891  31.200  20.052   8.775
 2197POPC   C2B31892  31.187  20.252   8.373
 2197POPC   C3B31893  31.223  20.174   7.961
 2197POPC   C4B31894  31.447  19.939   7.655
 2198POPC   NC331895  33.942  28.137   9.598
 2198POPC   PO431896  33.452  28.557   9.450
 2198POPC   GL131897  33.690  28.228   9.165
 2198POPC   GL231898  34.100  28.174   9.128
 2198POPC   C1A31899  33.781  28.335   8.745
 2198POPC   D2A31900  33.698  28.512   8.366
 2198POPC   C3A31901  33.695  28.199   8.049
 2198POPC   C4A31902  33.629  28.519   7.763
 2198POPC   C1B31903  34.320  28.238   8.748
 2198POPC   C2B31904  34.167  28.279   8.328
 2198POPC   C3B31905  34.125  28.467   7.911
 2198POPC   C4B31906  34.137  28.416   7.445
 2199POPC   NC331907   2.300  18.559   9.899
 2199POPC   PO431908   1.828  18.270   9.567
 2199POPC   GL131909   1.900  18.379   9.140
 2199POPC   GL231910   2.259  18.331   9.104
 2199POPC   C1A31911   1.947  18.224   8.711
 2199POPC   D2A31912   1.776  18.087   8.318
 2199POPC   C3A31913   1.967  18.234   7.919
 2199POPC   C4A31914   1.752  18.493   7.644
 2199POPC   C1B31915   2.509  18.412   8.730
 2199POPC   C2B31916   2.591  18.351   8.291
 2199POPC   C3B31917   2.423  18.541   7.914
 2199POPC   C4B31918   2.253  18.415   7.500
 2200POPC   NC331919  32.859  10.175   9.595
 2200POPC   PO431920  33.237  10.789   9.564
 2200POPC   GL131921  33.261  10.511   9.188
 2200POPC   GL231922  32.921  10.447   9.151
 2200POPC   C1A31923  33.239  10.310   8.763
 2200POPC   D2A31924  33.056  10.438   8.370
 2200POPC   C3A31925  32.908  10.305   7.966
 2200POPC   C4A31926  33.110  10.227   7.581
 2200POPC   C1B31927  32.802  10.645   8.756
 2200POPC   C2B31928  32.629  10.734   8.324
 2200POPC   C3B31929  32.656  10.826   7.882
 2200POPC   C4B31930  32.721  10.532   7.520
 2201POPC   NC331931  41.615  25.828   9.464
 2201POPC   PO431932  41.332  26.459   9.465
 2201POPC   GL131933  41.366  26.119   9.118
 2201POPC   GL231934  41.687  25.870   8.987
 2201POPC   C1A31935  41.289  25.938   8.727
 2201POPC   D2A31936  41.626  25.915   8.436
 2201POPC   C3A31937  41.432  26.026   8.083
 2201POPC   C4A31938  41.335  25.752   7.823
 2201POPC   C1B31939  41.790  26.253   8.797
 2201POPC   C2B31940  41.915  26.372   8.358
 2201POPC   C3B31941  41.840  26.278   7.917
 2201POPC   C4B31942  41.697  26.033   7.606
 2202POPC   NC331943   6.081  14.040   9.395
 2202POPC   PO431944   6.192  13.334   9.518
 2202POPC   GL131945   6.248  13.589   9.166
 2202POPC   GL231946   5.941  13.539   9.067
 2202POPC   C1A31947   6.249  13.677   8.709
 2202POPC   D2A31948   6.135  13.880   8.326
 2202POPC   C3A31949   5.999  13.634   7.950
 2202POPC   C4A31950   6.091  13.362   7.543
 2202POPC   C1B31951   5.731  13.689   8.669
 2202POPC   C2B31952   5.625  13.888   8.281
 2202POPC   C3B31953   5.592  13.969   7.855
 2202POPC   C4B31954   5.414  13.814   7.463
 2203POPC   NC331955  22.623  31.132   9.204
 2203POPC   PO431956  23.007  30.652   9.595
 2203POPC   GL131957  23.066  30.773   9.144
 2203POPC   GL231958  23.050  30.451   9.008
 2203POPC   C1A31959  22.966  30.840   8.678
 2203POPC   D2A31960  22.675  30.918   8.321
 2203POPC   C3A31961  22.819  30.881   7.893
 2203POPC   C4A31962  22.774  30.622   7.497
 2203POPC   C1B31963  23.264  30.399   8.605
 2203POPC   C2B31964  23.118  30.601   8.231
 2203POPC   C3B31965  23.263  30.651   7.826
 2203POPC   C4B31966  23.569  30.405   7.633
 2204POPC   NC331967  40.822  23.047   9.530
 2204POPC   PO431968  40.252  23.350   9.458
 2204POPC   GL131969  40.538  23.126   9.098
 2204POPC   GL231970  40.942  23.142   9.048
 2204POPC   C1A31971  40.690  22.916   8.669
 2204POPC   D2A31972  40.613  22.840   8.240
 2204POPC   C3A31973  40.776  23.017   7.898
 2204POPC   C4A31974  40.544  22.879   7.577
 2204POPC   C1B31975  41.103  22.706   8.881
 2204POPC   C2B31976  41.208  22.589   8.473
 2204POPC   C3B31977  40.982  22.530   8.087
 2204POPC   C4B31978  40.967  22.560   7.658
 2205POPC   NC331979  14.220  29.242   9.560
 2205POPC   PO431980  14.743  28.941   9.499
 2205POPC   GL131981  14.475  29.002   9.180
 2205POPC   GL231982  14.166  28.845   9.193
 2205POPC   C1A31983  14.389  29.135   8.806
 2205POPC   D2A31984  14.400  29.344   8.443
 2205POPC   C3A31985  14.594  29.148   8.140
 2205POPC   C4A31986  14.535  29.200   7.762
 2205POPC   C1B31987  13.939  28.916   8.801
 2205POPC   C2B31988  14.134  28.903   8.413
 2205POPC   C3B31989  14.143  28.949   8.009
 2205POPC   C4B31990  13.845  28.912   7.722
 2206POPC   NC331991  11.216   9.470   9.465
 2206POPC   PO431992  11.598   9.987   9.629
 2206POPC   GL131993  11.409   9.917   9.172
 2206POPC   GL231994  11.141   9.650   9.021
 2206POPC   C1A31995  11.432   9.896   8.705
 2206POPC   D2A31996  11.509   9.735   8.325
 2206POPC   C3A31997  11.519   9.919   7.947
 2206POPC   C4A31998  11.517   9.599   7.651
 2206POPC   C1B31999  11.318   9.338   8.747
 2206POPC   C2B32000  11.449   9.222   8.353
 2206POPC   C3B32001  11.206   9.437   8.018
 2206POPC   C4B32002  10.961   9.303   7.670
 2207POPC   NC332003  11.185   1.649   9.312
 2207POPC   PO432004  11.121   0.931   9.282
 2207POPC   GL132005  11.246   1.234   9.040
 2207POPC   GL232006  10.918   1.345   9.006
 2207POPC   C1A32007  11.347   1.387   8.647
 2207POPC   D2A32008  11.369   1.070   8.332
 2207POPC   C3A32009  11.703   1.132   8.080
 2207POPC   C4A32010  11.585   1.361   7.764
 2207POPC   C1B32011  10.945   1.056   8.657
 2207POPC   C2B32012  10.906   1.330   8.311
 2207POPC   C3B32013  11.069   1.419   7.915
 2207POPC   C4B32014  10.826   1.593   7.609
 2208POPC   NC332015  28.690  26.807   9.933
 2208POPC   PO432016  28.183  27.164   9.630
 2208POPC   GL132017  28.421  26.987   9.254
 2208POPC   GL232018  28.271  26.696   9.170
 2208POPC   C1A32019  28.574  26.844   8.804
 2208POPC   D2A32020  28.405  26.960   8.381
 2208POPC   C3A32021  28.504  26.757   7.980
 2208POPC   C4A32022  28.401  26.840   7.535
 2208POPC   C1B32023  28.281  26.429   8.836
 2208POPC   C2B32024  28.285  26.474   8.404
 2208POPC   C3B32025  28.069  26.432   8.024
 2208POPC   C4B32026  28.323  26.366   7.694
 2209POPC   NC332027  24.672  41.990   9.465
 2209POPC   PO432028  24.342  42.508   9.612
 2209POPC   GL132029  24.398  42.381   9.251
 2209POPC   GL232030  24.127  42.233   9.130
 2209POPC   C1A32031  24.571  42.341   8.872
 2209POPC   D2A32032  24.495  42.467   8.465
 2209POPC   C3A32033  24.597  42.214   8.122
 2209POPC   C4A32034  24.458  42.247   7.711
 2209POPC   C1B32035  24.118  42.194   8.698
 2209POPC   C2B32036  24.167  42.002   8.289
 2209POPC   C3B32037  24.050  41.956   7.840
 2209POPC   C4B32038  24.198  41.915   7.394
 2210POPC   NC332039  29.037  38.580   9.600
 2210POPC   PO432040  29.678  38.418   9.573
 2210POPC   GL132041  29.397  38.644   9.219
 2210POPC   GL232042  29.059  38.505   9.088
 2210POPC   C1A32043  29.357  38.775   8.746
 2210POPC   D2A32044  29.601  38.668   8.329
 2210POPC   C3A32045  29.501  38.580   7.866
 2210POPC   C4A32046  29.070  38.541   7.671
 2210POPC   C1B32047  29.081  38.355   8.635
 2210POPC   C2B32048  29.136  38.405   8.174
 2210POPC   C3B32049  29.175  38.084   7.820
 2210POPC   C4B32050  29.066  38.103   7.362
 2211POPC   NC332051  28.191  18.409   9.655
 2211POPC   PO432052  28.546  17.870   9.823
 2211POPC   GL132053  28.291  17.956   9.367
 2211POPC   GL232054  28.276  18.286   9.164
 2211POPC   C1A32055  28.401  17.907   8.870
 2211POPC   D2A32056  28.448  17.722   8.424
 2211POPC   C3A32057  28.538  18.018   8.065
 2211POPC   C4A32058  28.382  18.115   7.646
 2211POPC   C1B32059  28.537  18.386   8.788
 2211POPC   C2B32060  28.575  18.445   8.333
 2211POPC   C3B32061  28.412  18.561   7.924
 2211POPC   C4B32062  28.165  18.903   7.710
 2212POPC   NC332063  20.800   9.739   9.700
 2212POPC   PO432064  20.367  10.170   9.943
 2212POPC   GL132065  20.408  10.014   9.409
 2212POPC   GL232066  20.701   9.872   9.241
 2212POPC   C1A32067  20.341   9.880   8.888
 2212POPC   D2A32068  20.285   9.710   8.392
 2212POPC   C3A32069  20.556   9.837   8.019
 2212POPC   C4A32070  20.545   9.695   7.564
 2212POPC   C1B32071  20.857   9.895   8.850
 2212POPC   C2B32072  20.790   9.630   8.476
 2212POPC   C3B32073  20.941   9.492   8.080
 2212POPC   C4B32074  21.034   9.763   7.768
 2213POPC   NC332075  29.952  18.969   9.392
 2213POPC   PO432076  30.588  19.215   9.462
 2213POPC   GL132077  30.301  19.194   9.093
 2213POPC   GL232078  30.261  18.851   9.008
 2213POPC   C1A32079  30.078  19.204   8.676
 2213POPC   D2A32080  30.161  19.093   8.229
 2213POPC   C3A32081  29.920  19.278   7.859
 2213POPC   C4A32082  29.487  19.368   7.793
 2213POPC   C1B32083  29.944  18.708   8.729
 2213POPC   C2B32084  29.996  18.546   8.311
 2213POPC   C3B32085  29.895  18.774   7.938
 2213POPC   C4B32086  30.145  18.856   7.629
 2214POPC   NC332087  22.379   2.421   9.558
 2214POPC   PO432088  22.040   1.812   9.701
 2214POPC   GL132089  22.098   1.844   9.256
 2214POPC   GL232090  22.434   1.955   9.203
 2214POPC   C1A32091  22.151   1.837   8.794
 2214POPC   D2A32092  22.323   1.720   8.370
 2214POPC   C3A32093  22.098   1.798   8.000
 2214POPC   C4A32094  22.143   2.035   7.664
 2214POPC   C1B32095  22.599   2.230   8.859
 2214POPC   C2B32096  22.418   2.343   8.458
 2214POPC   C3B32097  22.404   2.337   8.004
 2214POPC   C4B32098  22.266   2.526   7.616
 2215POPC   NC332099  21.466   2.540   9.490
 2215POPC   PO432100  21.190   3.165   9.601
 2215POPC   GL132101  21.274   2.931   9.194
 2215POPC   GL232102  21.055   3.176   9.077
 2215POPC   C1A32103  21.448   2.632   8.828
 2215POPC   D2A32104  21.469   2.322   8.477
 2215POPC   C3A32105  21.455   2.551   8.096
 2215POPC   C4A32106  21.583   2.786   7.724
 2215POPC   C1B32107  21.065   3.009   8.711
 2215POPC   C2B32108  21.329   2.947   8.404
 2215POPC   C3B32109  21.312   3.084   8.015
 2215POPC   C4B32110  21.170   3.074   7.592
 2216POPC   NC332111  42.124  18.587   9.476
 2216POPC   PO432112  42.650  18.202   9.512
 2216POPC   GL132113  42.577  18.200   9.131
 2216POPC   GL232114  42.250  18.245   9.114
 2216POPC   C1A32115  42.589  18.399   8.747
 2216POPC   D2A32116  42.417  18.211   8.395
 2216POPC   C3A32117  42.612  18.364   8.029
 2216POPC   C4A32118  42.849  18.297   7.664
 2216POPC   C1B32119  42.084  18.471   8.778
 2216POPC   C2B32120  41.905  18.409   8.392
 2216POPC   C3B32121  42.061  18.259   8.008
 2216POPC   C4B32122  42.196  18.501   7.680
 2217POPC   NC332123  19.222   7.918   9.515
 2217POPC   PO432124  19.215   8.614   9.595
 2217POPC   GL132125  19.063   8.313   9.250
 2217POPC   GL232126  19.412   8.223   9.137
 2217POPC   C1A32127  18.886   8.182   8.832
 2217POPC   D2A32128  18.866   7.837   8.507
 2217POPC   C3A32129  18.825   7.907   8.040
 2217POPC   C4A32130  18.930   8.113   7.651
 2217POPC   C1B32131  19.365   8.314   8.729
 2217POPC   C2B32132  19.145   8.241   8.338
 2217POPC   C3B32133  19.324   8.261   7.905
 2217POPC   C4B32134  19.251   8.478   7.470
 2218POPC   NC332135   0.649  33.556   9.434
 2218POPC   PO432136   0.460  34.121   9.610
 2218POPC   GL132137   0.360  33.898   9.177
 2218POPC   GL232138   0.598  33.672   8.950
 2218POPC   C1A32139   0.249  33.962   8.720
 2218POPC   D2A32140   0.022  34.022   8.300
 2218POPC   C3A32141   0.255  33.922   7.895
 2218POPC   C4A32142   0.572  33.961   7.545
 2218POPC   C1B32143   0.884  33.661   8.605
 2218POPC   C2B32144   0.886  33.473   8.181
 2218POPC   C3B32145   0.652  33.515   7.781
 2218POPC   C4B32146   0.608  33.488   7.309
 2219POPC   NC332147  13.483   8.089   9.614
 2219POPC   PO432148  13.350   8.738   9.610
 2219POPC   GL132149  13.474   8.404   9.222
 2219POPC   GL232150  13.399   8.032   9.123
 2219POPC   C1A32151  13.833   8.231   8.924
 2219POPC   D2A32152  14.167   8.248   8.552
 2219POPC   C3A32153  14.050   8.095   8.116
 2219POPC   C4A32154  13.867   8.259   7.743
 2219POPC   C1B32155  13.474   7.907   8.713
 2219POPC   C2B32156  13.351   7.995   8.290
 2219POPC   C3B32157  13.395   8.042   7.859
 2219POPC   C4B32158  13.550   7.939   7.473
 2220POPC   NC332159  44.445   0.551   9.661
 2220POPC   PO432160  43.681   0.421   9.592
 2220POPC   GL132161  43.773   0.455   9.162
 2220POPC   GL232162  44.114   0.448   9.228
 2220POPC   C1A32163  44.007   0.624   8.754
 2220POPC   D2A32164  43.965   0.447   8.329
 2220POPC   C3A32165  44.068   0.585   7.880
 2220POPC   C4A32166  43.760   0.548   7.564
 2220POPC   C1B32167  44.019   0.128   8.875
 2220POPC   C2B32168  44.244   0.044   8.499
 2220POPC   C3B32169  44.229  44.970   8.060
 2220POPC   C4B32170  44.139   0.142   7.627
 2221POPC   NC332171   3.988   9.241   9.459
 2221POPC   PO432172   4.595   8.881   9.475
 2221POPC   GL132173   4.449   8.693   9.130
 2221POPC   GL232174   4.140   8.835   9.108
 2221POPC   C1A32175   4.542   8.789   8.721
 2221POPC   D2A32176   4.375   8.857   8.351
 2221POPC   C3A32177   4.616   9.118   8.136
 2221POPC   C4A32178   4.621   9.034   7.741
 2221POPC   C1B32179   4.116   9.104   8.743
 2221POPC   C2B32180   4.065   9.265   8.304
 2221POPC   C3B32181   4.109   9.056   7.908
 2221POPC   C4B32182   4.242   9.149   7.437
 2222POPC   NC332183  35.188  12.272   9.475
 2222POPC   PO432184  34.622  11.869   9.518
 2222POPC   GL132185  34.284  11.982   9.219
 2222POPC   GL232186  34.567  12.062   8.986
 2222POPC   C1A32187  34.096  12.001   8.804
 2222POPC   D2A32188  34.360  12.054   8.448
 2222POPC   C3A32189  34.255  11.888   8.044
 2222POPC   C4A32190  34.332  12.278   7.816
 2222POPC   C1B32191  34.960  12.275   8.832
 2222POPC   C2B32192  35.108  12.383   8.409
 2222POPC   C3B32193  34.821  12.268   8.122
 2222POPC   C4B32194  34.734  11.969   7.838
 2223POPC   NC332195  39.187  25.767   9.657
 2223POPC   PO432196  38.949  26.260   9.323
 2223POPC   GL132197  39.273  25.987   9.175
 2223POPC   GL232198  39.556  26.248   9.192
 2223POPC   C1A32199  39.167  25.777   8.766
 2223POPC   D2A32200  38.809  25.780   8.449
 2223POPC   C3A32201  38.909  25.867   8.006
 2223POPC   C4A32202  39.256  25.774   7.701
 2223POPC   C1B32203  39.385  26.246   8.751
 2223POPC   C2B32204  39.295  26.055   8.337
 2223POPC   C3B32205  39.276  26.240   7.947
 2223POPC   C4B32206  39.078  26.248   7.569
 2224POPC   NC332207  36.924   6.588   9.546
 2224POPC   PO432208  36.418   6.951   9.701
 2224POPC   GL132209  36.437   6.651   9.235
 2224POPC   GL232210  36.761   6.502   9.087
 2224POPC   C1A32211  36.495   6.778   8.756
 2224POPC   D2A32212  36.775   6.672   8.409
 2224POPC   C3A32213  36.746   6.690   7.946
 2224POPC   C4A32214  37.134   6.663   7.674
 2224POPC   C1B32215  37.125   6.560   8.780
 2224POPC   C2B32216  37.261   6.499   8.313
 2224POPC   C3B32217  37.200   6.208   7.911
 2224POPC   C4B32218  37.445   6.275   7.499
 2225POPC   NC332219  17.273  26.277   9.809
 2225POPC   PO432220  17.285  26.872   9.445
 2225POPC   GL132221  17.519  26.772   9.102
 2225POPC   GL232222  17.555  27.107   9.000
 2225POPC   C1A32223  17.312  26.770   8.694
 2225POPC   D2A32224  17.106  26.830   8.322
 2225POPC   C3A32225  17.177  26.573   7.969
 2225POPC   C4A32226  17.337  26.406   7.570
 2225POPC   C1B32227  17.803  26.924   8.675
 2225POPC   C2B32228  17.604  27.010   8.293
 2225POPC   C3B32229  17.609  26.849   7.906
 2225POPC   C4B32230  17.948  26.652   7.733
 2226POPC   NC332231  40.643  12.505   9.555
 2226POPC   PO432232  40.451  11.808   9.622
 2226POPC   GL132233  40.616  11.908   9.233
 2226POPC   GL232234  40.512  12.243   9.149
 2226POPC   C1A32235  40.707  11.877   8.812
 2226POPC   D2A32236  40.726  12.096   8.453
 2226POPC   C3A32237  40.761  11.838   8.106
 2226POPC   C4A32238  40.894  12.084   7.774
 2226POPC   C1B32239  40.280  12.211   8.806
 2226POPC   C2B32240  40.205  12.169   8.410
 2226POPC   C3B32241  40.410  12.184   8.031
 2226POPC   C4B32242  40.356  12.374   7.686
 2227POPC   NC332243   5.221  21.088   9.901
 2227POPC   PO432244   5.376  21.656   9.650
 2227POPC   GL132245   5.142  21.340   9.383
 2227POPC   GL232246   5.328  21.340   9.130
 2227POPC   C1A32247   4.906  21.123   8.978
 2227POPC   D2A32248   4.789  21.228   8.551
 2227POPC   C3A32249   4.981  21.200   8.146
 2227POPC   C4A32250   5.242  21.159   7.757
 2227POPC   C1B32251   5.113  21.565   8.808
 2227POPC   C2B32252   5.230  21.770   8.437
 2227POPC   C3B32253   5.240  21.639   8.024
 2227POPC   C4B32254   4.865  21.565   7.798
 2228POPC   NC332255  24.352   8.544   9.344
 2228POPC   PO432256  24.460   8.003   9.616
 2228POPC   GL132257  24.384   8.060   9.161
 2228POPC   GL232258  24.035   8.204   9.086
 2228POPC   C1A32259  24.328   7.991   8.714
 2228POPC   D2A32260  24.455   8.203   8.312
 2228POPC   C3A32261  24.377   8.000   7.895
 2228POPC   C4A32262  24.345   8.152   7.462
 2228POPC   C1B32263  23.938   8.311   8.653
 2228POPC   C2B32264  24.054   8.505   8.240
 2228POPC   C3B32265  24.130   8.543   7.757
 2228POPC   C4B32266  24.331   8.672   7.336
 2229POPC   NC332267  21.135  44.353   9.741
 2229POPC   PO432268  21.322  44.990   9.570
 2229POPC   GL132269  21.501  44.634   9.345
 2229POPC   GL232270  21.235  44.471   9.242
 2229POPC   C1A32271  21.622  44.437   8.897
 2229POPC   D2A32272  21.734  44.455   8.445
 2229POPC   C3A32273  21.530  44.637   8.049
 2229POPC   C4A32274  21.214  44.394   7.771
 2229POPC   C1B32275  21.305  44.821   8.917
 2229POPC   C2B32276  21.237  44.706   8.495
 2229POPC   C3B32277  21.024  44.725   8.115
 2229POPC   C4B32278  21.126  44.882   7.725
 2230POPC   NC332279  24.337  30.566   9.474
 2230POPC   PO432280  24.908  30.823   9.742
 2230POPC   GL132281  24.756  30.852   9.295
 2230POPC   GL232282  25.003  31.048   9.141
 2230POPC   C1A32283  24.571  30.759   8.891
 2230POPC   D2A32284  24.741  30.645   8.514
 2230POPC   C3A32285  24.527  30.732   8.149
 2230POPC   C4A32286  24.429  30.830   7.739
 2230POPC   C1B32287  24.958  31.071   8.729
 2230POPC   C2B32288  25.130  30.932   8.354
 2230POPC   C3B32289  24.963  30.962   7.961
 2230POPC   C4B32290  24.962  30.830   7.530
 2231POPC   NC332291  19.222  12.511   9.342
 2231POPC   PO432292  19.115  13.150   9.331
 2231POPC   GL132293  18.957  12.861   8.987
 2231POPC   GL232294  18.785  12.576   9.098
 2231POPC   C1A32295  19.075  12.726   8.560
 2231POPC   D2A32296  19.191  12.395   8.257
 2231POPC   C3A32297  19.216  12.624   7.857
 2231POPC   C4A32298  19.180  13.073   7.925
 2231POPC   C1B32299  18.807  12.338   8.752
 2231POPC   C2B32300  18.687  12.407   8.367
 2231POPC   C3B32301  18.765  12.725   8.117
 2231POPC   C4B32302  18.690  12.649   7.721
 2232POPC   NC332303  33.727  17.462   9.591
 2232POPC   PO432304  34.270  17.165   9.348
 2232POPC   GL132305  33.981  17.520   9.156
 2232POPC   GL232306  33.584  17.488   9.102
 2232POPC   C1A32307  33.893  17.718   8.753
 2232POPC   D2A32308  33.998  17.520   8.376
 2232POPC   C3A32309  34.008  17.780   8.026
 2232POPC   C4A32310  34.000  17.533   7.675
 2232POPC   C1B32311  33.466  17.460   8.632
 2232POPC   C2B32312  33.540  17.691   8.228
 2232POPC   C3B32313  33.524  17.588   7.793
 2232POPC   C4B32314  33.604  17.507   7.357
 2233POPC   NC332315  27.392  35.596   9.450
 2233POPC   PO432316  27.696  35.058   9.674
 2233POPC   GL132317  27.726  35.271   9.295
 2233POPC   GL232318  27.420  35.191   9.129
 2233POPC   C1A32319  27.794  35.462   8.858
 2233POPC   D2A32320  27.628  35.340   8.434
 2233POPC   C3A32321  27.749  35.345   7.985
 2233POPC   C4A32322  27.647  35.549   7.579
 2233POPC   C1B32323  27.242  35.145   8.725
 2233POPC   C2B32324  27.126  35.344   8.331
 2233POPC   C3B32325  27.251  35.541   7.945
 2233POPC   C4B32326  27.100  35.691   7.541
 2234POPC   NC332327  20.770   7.869   9.483
 2234POPC   PO432328  20.812   8.494   9.590
 2234POPC   GL132329  20.660   8.302   9.181
 2234POPC   GL232330  20.415   8.001   9.148
 2234POPC   C1A32331  20.756   8.412   8.739
 2234POPC   D2A32332  20.761   8.588   8.310
 2234POPC   C3A32333  20.870   8.265   7.965
 2234POPC   C4A32334  20.834   7.909   7.667
 2234POPC   C1B32335  20.348   8.083   8.717
 2234POPC   C2B32336  20.502   8.140   8.303
 2234POPC   C3B32337  20.387   8.089   7.876
 2234POPC   C4B32338  20.193   7.992   7.490
 2235POPC   NC332339  39.649  12.579   9.500
 2235POPC   PO432340  39.656  13.120   9.148
 2235POPC   GL132341  39.937  12.770   8.983
 2235POPC   GL232342  40.313  12.722   9.031
 2235POPC   C1A32343  40.071  12.645   8.585
 2235POPC   D2A32344  39.721  12.657   8.318
 2235POPC   C3A32345  39.781  13.016   8.064
 2235POPC   C4A32346  39.742  12.823   7.701
 2235POPC   C1B32347  40.445  13.012   8.724
 2235POPC   C2B32348  40.243  13.044   8.321
 2235POPC   C3B32349  40.253  12.904   7.872
 2235POPC   C4B32350  40.075  13.168   7.528
 2236POPC   NC332351   4.200  42.767   9.272
 2236POPC   PO432352   4.533  43.312   9.562
 2236POPC   GL132353   4.277  43.319   9.202
 2236POPC   GL232354   3.949  43.193   9.137
 2236POPC   C1A32355   4.282  43.255   8.764
 2236POPC   D2A32356   4.297  42.942   8.487
 2236POPC   C3A32357   4.432  43.173   8.154
 2236POPC   C4A32358   4.371  43.172   7.726
 2236POPC   C1B32359   3.803  43.076   8.748
 2236POPC   C2B32360   3.886  43.234   8.376
 2236POPC   C3B32361   3.924  43.150   7.960
 2236POPC   C4B32362   3.907  42.864   7.649
 2237POPC   NC332363  16.373  28.857   9.398
 2237POPC   PO432364  16.999  29.068   9.702
 2237POPC   GL132365  16.876  28.957   9.284
 2237POPC   GL232366  16.669  29.244   9.200
 2237POPC   C1A32367  16.873  28.960   8.828
 2237POPC   D2A32368  16.851  29.235   8.477
 2237POPC   C3A32369  17.056  29.216   8.107
 2237POPC   C4A32370  16.965  29.022   7.766
 2237POPC   C1B32371  16.437  29.235   8.794
 2237POPC   C2B32372  16.380  29.062   8.396
 2237POPC   C3B32373  16.514  29.105   7.983
 2237POPC   C4B32374  16.288  29.411   7.703
 2238POPC   NC332375  27.343   5.295   9.331
 2238POPC   PO432376  27.768   5.678   9.748
 2238POPC   GL132377  27.812   5.798   9.328
 2238POPC   GL232378  27.813   5.448   9.261
 2238POPC   C1A32379  27.828   5.931   8.882
 2238POPC   D2A32380  27.755   6.198   8.505
 2238POPC   C3A32381  27.591   5.983   8.145
 2238POPC   C4A32382  27.597   6.191   7.746
 2238POPC   C1B32383  27.824   5.427   8.827
 2238POPC   C2B32384  27.716   5.586   8.458
 2238POPC   C3B32385  27.891   5.536   8.059
 2238POPC   C4B32386  27.814   5.731   7.696
 2239POPC   NC332387  20.892  31.232   9.562
 2239POPC   PO432388  20.579  31.777   9.442
 2239POPC   GL132389  20.736  31.730   9.074
 2239POPC   GL232390  20.736  31.369   9.096
 2239POPC   C1A32391  20.478  31.655   8.718
 2239POPC   D2A32392  20.428  31.296   8.481
 2239POPC   C3A32393  20.569  31.522   8.140
 2239POPC   C4A32394  20.320  31.758   7.862
 2239POPC   C1B32395  20.927  31.401   8.709
 2239POPC   C2B32396  20.919  31.145   8.361
 2239POPC   C3B32397  20.799  31.080   7.976
 2239POPC   C4B32398  20.534  31.298   7.675
 2240POPC   NC332399  25.002   7.023   9.240
 2240POPC   PO432400  25.326   7.554   9.394
 2240POPC   GL132401  25.388   7.389   9.042
 2240POPC   GL232402  25.641   7.150   9.102
 2240POPC   C1A32403  25.233   7.488   8.649
 2240POPC   D2A32404  24.963   7.397   8.330
 2240POPC   C3A32405  25.177   7.526   7.982
 2240POPC   C4A32406  25.052   7.410   7.594
 2240POPC   C1B32407  25.438   7.025   8.705
 2240POPC   C2B32408  25.419   7.133   8.285
 2240POPC   C3B32409  25.576   7.225   7.881
 2240POPC   C4B32410  25.766   7.102   7.499
 2241POPC   NC332411  15.739   3.334   9.516
 2241POPC   PO432412  15.957   4.012   9.486
 2241POPC   GL132413  15.857   3.706   9.172
 2241POPC   GL232414  16.056   3.374   9.109
 2241POPC   C1A32415  15.838   3.728   8.759
 2241POPC   D2A32416  15.911   3.463   8.434
 2241POPC   C3A32417  15.734   3.506   8.042
 2241POPC   C4A32418  15.995   3.299   7.754
 2241POPC   C1B32419  16.309   3.542   8.778
 2241POPC   C2B32420  16.280   3.840   8.443
 2241POPC   C3B32421  16.230   3.675   8.047
 2241POPC   C4B32422  16.474   3.470   7.766
 2242POPC   NC332423   1.491   0.694   9.230
 2242POPC   PO432424   1.270   0.054   9.490
 2242POPC   GL132425   1.177   0.244   9.138
 2242POPC   GL232426   0.965   0.533   9.270
 2242POPC   C1A32427   1.391   0.240   8.755
 2242POPC   D2A32428   1.572   0.455   8.413
 2242POPC   C3A32429   1.349   0.404   8.012
 2242POPC   C4A32430   1.365   0.684   7.707
 2242POPC   C1B32431   0.993   0.600   8.821
 2242POPC   C2B32432   1.045   0.465   8.415
 2242POPC   C3B32433   0.908   0.630   8.024
 2242POPC   C4B32434   0.886   0.812   7.640
 2243POPC   NC332435  16.734  13.030   9.499
 2243POPC   PO432436  17.403  13.077   9.436
 2243POPC   GL132437  17.049  13.023   9.087
 2243POPC   GL232438  16.817  12.705   9.084
 2243POPC   C1A32439  17.042  12.784   8.659
 2243POPC   D2A32440  16.793  12.698   8.274
 2243POPC   C3A32441  17.035  12.620   7.888
 2243POPC   C4A32442  17.106  12.450   7.462
 2243POPC   C1B32443  16.497  12.722   8.731
 2243POPC   C2B32444  16.333  12.895   8.314
 2243POPC   C3B32445  16.401  12.807   7.863
 2243POPC   C4B32446  16.619  12.528   7.592
 2244POPC   NC332447  21.521  35.969   9.591
 2244POPC   PO432448  20.950  36.345   9.773
 2244POPC   GL132449  21.141  36.321   9.263
 2244POPC   GL232450  21.238  35.962   9.144
 2244POPC   C1A32451  21.233  36.273   8.748
 2244POPC   D2A32452  21.376  35.971   8.354
 2244POPC   C3A32453  21.496  36.123   7.905
 2244POPC   C4A32454  21.529  36.529   7.682
 2244POPC   C1B32455  21.116  35.755   8.752
 2244POPC   C2B32456  20.927  35.725   8.338
 2244POPC   C3B32457  21.060  35.857   7.939
 2244POPC   C4B32458  21.309  35.688   7.617
 2245POPC   NC332459  15.328  32.520   9.458
 2245POPC   PO432460  14.698  32.297   9.533
 2245POPC   GL132461  14.946  32.292   9.155
 2245POPC   GL232462  15.303  32.118   9.142
 2245POPC   C1A32463  15.079  32.310   8.732
 2245POPC   D2A32464  15.373  32.234   8.411
 2245POPC   C3A32465  15.157  32.312   8.028
 2245POPC   C4A32466  14.920  32.317   7.669
 2245POPC   C1B32467  15.582  31.885   8.852
 2245POPC   C2B32468  15.612  31.792   8.408
 2245POPC   C3B32469  15.367  31.846   8.033
 2245POPC   C4B32470  15.330  32.004   7.614
 2246POPC   NC332471  31.212   6.596   9.353
 2246POPC   PO432472  31.653   7.105   9.496
 2246POPC   GL132473  31.775   6.917   9.084
 2246POPC   GL232474  31.627   6.602   9.063
 2246POPC   C1A32475  31.669   6.777   8.609
 2246POPC   D2A32476  31.223   6.745   8.438
 2246POPC   C3A32477  31.288   6.691   8.031
 2246POPC   C4A32478  31.699   6.678   7.859
 2246POPC   C1B32479  31.380   6.357   8.748
 2246POPC   C2B32480  31.373   6.136   8.355
 2246POPC   C3B32481  31.482   6.233   7.948
 2246POPC   C4B32482  31.372   6.468   7.548
 2247POPC   NC332483   8.045  37.356   9.606
 2247POPC   PO432484   8.558  37.826   9.363
 2247POPC   GL132485   8.134  37.720   9.163
 2247POPC   GL232486   8.118  37.362   9.063
 2247POPC   C1A32487   8.045  37.735   8.706
 2247POPC   D2A32488   8.245  37.533   8.347
 2247POPC   C3A32489   8.238  37.725   7.941
 2247POPC   C4A32490   7.905  37.964   7.756
 2247POPC   C1B32491   7.773  37.306   8.705
 2247POPC   C2B32492   7.647  37.561   8.383
 2247POPC   C3B32493   7.723  37.532   7.972
 2247POPC   C4B32494   7.873  37.227   7.711
 2248POPC   NC332495   2.599  40.162   9.509
 2248POPC   PO432496   3.008  39.697   9.649
 2248POPC   GL132497   3.014  39.962   9.277
 2248POPC   GL232498   2.715  39.795   9.167
 2248POPC   C1A32499   2.851  40.186   8.878
 2248POPC   D2A32500   2.809  39.998   8.479
 2248POPC   C3A32501   2.822  40.181   8.066
 2248POPC   C4A32502   3.075  40.097   7.738
 2248POPC   C1B32503   2.573  39.641   8.761
 2248POPC   C2B32504   2.539  39.594   8.291
 2248POPC   C3B32505   2.466  39.764   7.876
 2248POPC   C4B32506   2.415  40.177   7.715
 2249POPC   NC332507   1.690   5.929   9.576
 2249POPC   PO432508   2.152   5.535   9.780
 2249POPC   GL132509   2.061   5.737   9.278
 2249POPC   GL232510   2.041   6.104   9.231
 2249POPC   C1A32511   1.914   5.640   8.801
 2249POPC   D2A32512   1.606   5.763   8.425
 2249POPC   C3A32513   1.690   5.686   7.972
 2249POPC   C4A32514   2.122   5.615   7.812
 2249POPC   C1B32515   2.252   6.054   8.867
 2249POPC   C2B32516   2.123   5.989   8.462
 2249POPC   C3B32517   2.031   6.060   8.062
 2249POPC   C4B32518   2.212   6.154   7.700
 2250POPC   NC332519  23.939   4.809   9.620
 2250POPC   PO432520  23.671   5.403   9.606
 2250POPC   GL132521  23.730   5.255   9.158
 2250POPC   GL232522  23.941   4.951   9.110
 2250POPC   C1A32523  23.535   5.042   8.765
 2250POPC   D2A32524  23.408   4.785   8.394
 2250POPC   C3A32525  23.409   4.908   7.969
 2250POPC   C4A32526  23.721   5.142   7.788
 2250POPC   C1B32527  23.998   5.230   8.734
 2250POPC   C2B32528  23.815   5.252   8.319
 2250POPC   C3B32529  24.119   5.059   8.071
 2250POPC   C4B32530  24.280   5.177   7.687
 2251POPC   NC332531   2.643  39.405   9.580
 2251POPC   PO432532   2.992  38.737   9.601
 2251POPC   GL132533   3.030  39.067   9.214
 2251POPC   GL232534   3.098  39.423   9.233
 2251POPC   C1A32535   2.900  39.211   8.764
 2251POPC   D2A32536   3.043  39.240   8.305
 2251POPC   C3A32537   2.717  39.204   7.981
 2251POPC   C4A32538   2.273  39.274   7.928
 2251POPC   C1B32539   3.084  39.682   8.852
 2251POPC   C2B32540   3.273  39.709   8.473
 2251POPC   C3B32541   3.022  39.716   8.116
 2251POPC   C4B32542   2.933  39.606   7.750
 2252POPC   NC332543  23.428   6.489   9.344
 2252POPC   PO432544  24.035   6.794   9.469
 2252POPC   GL132545  23.862   6.691   9.074
 2252POPC   GL232546  23.515   6.767   8.926
 2252POPC   C1A32547  23.918   6.619   8.647
 2252POPC   D2A32548  23.607   6.685   8.346
 2252POPC   C3A32549  23.772   6.591   7.955
 2252POPC   C4A32550  24.014   6.848   7.665
 2252POPC   C1B32551  23.261   6.433   8.680
 2252POPC   C2B32552  23.103   6.492   8.256
 2252POPC   C3B32553  23.230   6.818   7.969
 2252POPC   C4B32554  23.496   6.896   7.640
 2253POPC   NC332555  10.423   5.423   9.579
 2253POPC   PO432556  10.226   4.688   9.545
 2253POPC   GL132557  10.477   4.993   9.300
 2253POPC   GL232558  10.358   5.287   9.090
 2253POPC   C1A32559  10.770   4.967   8.959
 2253POPC   D2A32560  10.678   4.816   8.558
 2253POPC   C3A32561  10.783   4.963   8.185
 2253POPC   C4A32562  10.489   4.970   7.852
 2253POPC   C1B32563  10.725   5.486   8.890
 2253POPC   C2B32564  10.850   5.391   8.484
 2253POPC   C3B32565  10.604   5.413   8.128
 2253POPC   C4B32566  10.408   5.467   7.740
 2254POPC   NC332567  27.117  16.544   9.592
 2254POPC   PO432568  26.468  16.670   9.595
 2254POPC   GL132569  26.691  16.751   9.189
 2254POPC   GL232570  27.058  16.751   9.126
 2254POPC   C1A32571  26.661  16.700   8.722
 2254POPC   D2A32572  26.937  16.690   8.338
 2254POPC   C3A32573  26.637  16.788   8.008
 2254POPC   C4A32574  26.623  16.638   7.566
 2254POPC   C1B32575  26.928  17.100   8.880
 2254POPC   C2B32576  26.824  17.160   8.467
 2254POPC   C3B32577  26.998  17.158   8.072
 2254POPC   C4B32578  26.912  17.041   7.647
 2255POPC   NC332579  27.372  33.228   9.409
 2255POPC   PO432580  26.953  32.744   9.613
 2255POPC   GL132581  26.918  32.828   9.170
 2255POPC   GL232582  27.198  32.980   8.978
 2255POPC   C1A32583  26.742  32.844   8.760
 2255POPC   D2A32584  26.842  32.931   8.337
 2255POPC   C3A32585  26.562  33.117   8.068
 2255POPC   C4A32586  26.646  32.754   7.837
 2255POPC   C1B32587  27.001  33.289   8.672
 2255POPC   C2B32588  27.083  33.366   8.246
 2255POPC   C3B32589  27.002  33.183   7.869
 2255POPC   C4B32590  26.663  33.224   7.570
 2256POPC   NC332591  43.742  31.213   9.591
 2256POPC   PO432592  43.713  31.753   9.236
 2256POPC   GL132593  44.012  31.569   8.985
 2256POPC   GL232594  43.971  31.205   9.086
 2256POPC   C1A32595  43.992  31.609   8.548
 2256POPC   D2A32596  43.687  31.474   8.274
 2256POPC   C3A32597  43.760  31.729   7.920
 2256POPC   C4A32598  43.726  31.675   7.484
 2256POPC   C1B32599  44.273  31.223   8.719
 2256POPC   C2B32600  44.251  31.218   8.245
 2256POPC   C3B32601  43.931  31.231   7.895
 2256POPC   C4B32602  44.054  31.293   7.446
 2257POPC   NC332603  12.007   2.383   9.540
 2257POPC   PO432604  11.940   3.023   9.327
 2257POPC   GL132605  12.037   2.653   9.088
 2257POPC   GL232606  12.270   2.384   9.032
 2257POPC   C1A32607  12.150   2.710   8.658
 2257POPC   D2A32608  12.175   3.078   8.454
 2257POPC   C3A32609  11.859   3.076   8.140
 2257POPC   C4A32610  11.833   2.835   7.784
 2257POPC   C1B32611  12.018   2.230   8.648
 2257POPC   C2B32612  11.976   2.376   8.243
 2257POPC   C3B32613  12.226   2.711   8.068
 2257POPC   C4B32614  12.371   2.751   7.619
 2258POPC   NC332615  44.248   3.724   9.422
 2258POPC   PO432616  43.744   3.750   9.826
 2258POPC   GL132617  43.799   3.524   9.346
 2258POPC   GL232618  43.876   3.761   9.043
 2258POPC   C1A32619  43.932   3.251   8.941
 2258POPC   D2A32620  44.117   3.244   8.495
 2258POPC   C3A32621  43.874   3.429   8.166
 2258POPC   C4A32622  43.802   3.241   7.757
 2258POPC   C1B32623  44.253   3.632   8.788
 2258POPC   C2B32624  44.464   3.666   8.416
 2258POPC   C3B32625  44.262   3.839   8.090
 2258POPC   C4B32626  44.050   3.688   7.778
 2259POPC   NC332627   9.234  31.036   9.439
 2259POPC   PO432628   9.069  30.369   9.516
 2259POPC   GL132629   8.952  30.423   9.100
 2259POPC   GL232630   9.047  30.728   9.094
 2259POPC   C1A32631   8.912  30.422   8.682
 2259POPC   D2A32632   9.138  30.417   8.320
 2259POPC   C3A32633   8.929  30.535   7.927
 2259POPC   C4A32634   9.080  30.764   7.585
 2259POPC   C1B32635   9.272  30.791   8.724
 2259POPC   C2B32636   9.202  30.910   8.310
 2259POPC   C3B32637   9.386  31.108   7.994
 2259POPC   C4B32638   9.506  31.043   7.586
 2260POPC   NC332639   4.066  30.029   9.581
 2260POPC   PO432640   4.565  30.394   9.229
 2260POPC   GL132641   4.272  30.171   9.036
 2260POPC   GL232642   4.215  29.821   9.139
 2260POPC   C1A32643   4.227  30.306   8.629
 2260POPC   D2A32644   4.204  30.461   8.225
 2260POPC   C3A32645   4.231  30.164   7.879
 2260POPC   C4A32646   4.495  30.233   7.534
 2260POPC   C1B32647   4.394  29.795   8.721
 2260POPC   C2B32648   4.316  29.900   8.305
 2260POPC   C3B32649   4.371  29.668   7.930
 2260POPC   C4B32650   4.052  29.412   7.733
 2261POPC   NC332651  18.997  25.722   9.653
 2261POPC   PO432652  19.196  26.129   9.189
 2261POPC   GL132653  18.883  26.060   8.972
 2261POPC   GL232654  18.817  25.732   9.170
 2261POPC   C1A32655  19.037  26.078   8.574
 2261POPC   D2A32656  19.283  25.837   8.384
 2261POPC   C3A32657  19.347  26.065   8.033
 2261POPC   C4A32658  19.267  25.967   7.625
 2261POPC   C1B32659  18.919  25.611   8.766
 2261POPC   C2B32660  18.755  25.714   8.389
 2261POPC   C3B32661  18.910  25.757   7.983
 2261POPC   C4B32662  18.751  25.877   7.594
 2262POPC   NC332663  39.694  43.691   9.824
 2262POPC   PO432664  40.086  43.104   9.557
 2262POPC   GL132665  39.902  43.112   9.180
 2262POPC   GL232666  39.601  42.950   9.153
 2262POPC   C1A32667  39.880  43.239   8.784
 2262POPC   D2A32668  39.879  43.534   8.483
 2262POPC   C3A32669  39.807  43.319   8.103
 2262POPC   C4A32670  39.899  43.393   7.704
 2262POPC   C1B32671  39.803  42.723   8.803
 2262POPC   C2B32672  39.949  42.686   8.394
 2262POPC   C3B32673  39.739  42.642   8.018
 2262POPC   C4B32674  39.844  42.854   7.637
 2263POPC   NC332675  40.036   4.169   9.435
 2263POPC   PO432676  39.574   4.700   9.458
 2263POPC   GL132677  39.833   4.522   9.122
 2263POPC   GL232678  40.238   4.527   9.150
 2263POPC   C1A32679  39.894   4.514   8.672
 2263POPC   D2A32680  39.952   4.232   8.302
 2263POPC   C3A32681  39.791   4.378   7.912
 2263POPC   C4A32682  39.746   4.170   7.471
 2263POPC   C1B32683  40.322   4.252   8.793
 2263POPC   C2B32684  40.442   4.311   8.391
 2263POPC   C3B32685  40.429   4.407   7.969
 2263POPC   C4B32686  40.208   4.340   7.620
 2264POPC   NC332687  43.399  17.708   9.419
 2264POPC   PO432688  42.738  17.445   9.481
 2264POPC   GL132689  42.726  17.659   9.081
 2264POPC   GL232690  43.073  17.625   9.048
 2264POPC   C1A32691  42.789  17.594   8.606
 2264POPC   D2A32692  42.997  17.499   8.223
 2264POPC   C3A32693  42.799  17.343   7.840
 2264POPC   C4A32694  42.818  17.391   7.373
 2264POPC   C1B32695  43.308  17.696   8.658
 2264POPC   C2B32696  43.493  17.641   8.255
 2264POPC   C3B32697  43.353  17.619   7.832
 2264POPC   C4B32698  43.305  17.572   7.371
 2265POPC   NC332699  13.826   3.971   9.177
 2265POPC   PO432700  13.690   3.402   9.503
 2265POPC   GL132701  13.641   3.399   9.082
 2265POPC   GL232702  13.291   3.340   9.145
 2265POPC   C1A32703  13.826   3.434   8.662
 2265POPC   D2A32704  13.926   3.341   8.236
 2265POPC   C3A32705  13.808   3.645   7.955
 2265POPC   C4A32706  13.457   3.831   7.837
 2265POPC   C1B32707  13.300   3.262   8.712
 2265POPC   C2B32708  13.526   3.072   8.404
 2265POPC   C3B32709  13.490   3.158   7.999
 2265POPC   C4B32710  13.329   3.208   7.610
 2266POPC   NC332711  11.107   6.652   9.510
 2266POPC   PO432712  10.455   6.805   9.513
 2266POPC   GL132713  10.484   6.764   9.108
 2266POPC   GL232714  10.854   6.842   9.090
 2266POPC   C1A32715  10.389   6.442   8.822
 2266POPC   D2A32716  10.516   6.323   8.423
 2266POPC   C3A32717  10.385   6.650   8.188
 2266POPC   C4A32718  10.272   6.648   7.761
 2266POPC   C1B32719  10.825   6.678   8.687
 2266POPC   C2B32720  10.935   6.800   8.281
 2266POPC   C3B32721  10.782   6.703   7.889
 2266POPC   C4B32722  10.619   6.269   7.890
 2267POPC   NC332723  20.125   0.757   9.493
 2267POPC   PO432724  19.664   0.289   9.432
 2267POPC   GL132725  19.939   0.431   9.143
 2267POPC   GL232726  19.751   0.733   9.131
 2267POPC   C1A32727  20.176   0.302   8.780
 2267POPC   D2A32728  19.944   0.315   8.407
 2267POPC   C3A32729  20.035   0.146   8.054
 2267POPC   C4A32730  19.897   0.238   7.660
 2267POPC   C1B32731  19.910   0.727   8.720
 2267POPC   C2B32732  20.057   0.794   8.315
 2267POPC   C3B32733  19.859   0.643   7.983
 2267POPC   C4B32734  19.480   0.578   7.779
 2268POPC   NC332735  12.984  38.563   9.206
 2268POPC   PO432736  13.464  38.168   9.514
 2268POPC   GL132737  13.526  38.427   9.215
 2268POPC   GL232738  13.867  38.294   9.142
 2268POPC   C1A32739  13.544  38.491   8.789
 2268POPC   D2A32740  13.642  38.242   8.463
 2268POPC   C3A32741  13.653  38.441   8.084
 2268POPC   C4A32742  13.821  38.437   7.682
 2268POPC   C1B32743  14.061  38.410   8.734
 2268POPC   C2B32744  14.142  38.286   8.307
 2268POPC   C3B32745  14.329  38.381   7.905
 2268POPC   C4B32746  14.277  38.571   7.476
 2269POPC   NC332747   9.685  10.517   9.500
 2269POPC   PO432748  10.169  10.096   9.168
 2269POPC   GL132749   9.843  10.377   9.028
 2269POPC   GL232750   9.709  10.725   9.047
 2269POPC   C1A32751   9.721  10.432   8.623
 2269POPC   D2A32752   9.712  10.249   8.233
 2269POPC   C3A32753   9.628  10.490   7.859
 2269POPC   C4A32754   9.757  10.439   7.415
 2269POPC   C1B32755   9.456  10.851   8.710
 2269POPC   C2B32756   9.581  10.791   8.280
 2269POPC   C3B32757   9.396  10.939   7.913
 2269POPC   C4B32758   9.557  10.896   7.507
 2270POPC   NC332759  23.436  43.066   9.492
 2270POPC   PO432760  24.069  43.305   9.549
 2270POPC   GL132761  23.819  43.206   9.186
 2270POPC   GL232762  23.750  43.474   8.997
 2270POPC   C1A32763  23.844  43.054   8.754
 2270POPC   D2A32764  23.803  43.178   8.311
 2270POPC   C3A32765  23.820  42.894   7.999
 2270POPC   C4A32766  23.770  43.017   7.566
 2270POPC   C1B32767  23.446  43.377   8.656
 2270POPC   C2B32768  23.464  43.547   8.232
 2270POPC   C3B32769  23.604  43.399   7.838
 2270POPC   C4B32770  23.504  43.386   7.337
 2271POPC   NC332771  37.789  19.473   9.421
 2271POPC   PO432772  37.444  19.056   9.869
 2271POPC   GL132773  37.690  18.981   9.353
 2271POPC   GL232774  37.894  19.147   9.045
 2271POPC   C1A32775  37.548  18.807   8.912
 2271POPC   D2A32776  37.844  18.927   8.565
 2271POPC   C3A32777  37.829  19.071   8.126
 2271POPC   C4A32778  37.617  18.937   7.749
 2271POPC   C1B32779  37.514  19.281   8.735
 2271POPC   C2B32780  37.442  19.466   8.314
 2271POPC   C3B32781  37.568  19.471   7.895
 2271POPC   C4B32782  37.969  19.420   7.714
 2272POPC   NC332783   5.848  17.066   9.364
 2272POPC   PO432784   5.998  16.364   9.581
 2272POPC   GL132785   5.997  16.550   9.197
 2272POPC   GL232786   5.686  16.604   9.246
 2272POPC   C1A32787   6.089  16.778   8.793
 2272POPC   D2A32788   6.177  16.881   8.355
 2272POPC   C3A32789   6.114  16.630   7.983
 2272POPC   C4A32790   6.091  16.993   7.758
 2272POPC   C1B32791   5.626  16.587   8.830
 2272POPC   C2B32792   5.650  16.876   8.486
 2272POPC   C3B32793   5.675  16.829   8.082
 2272POPC   C4B32794   5.503  16.629   7.733
 2273POPC   NC332795  40.462  35.151   9.406
 2273POPC   PO432796  40.172  34.561   9.543
 2273POPC   GL132797  39.930  34.610   9.152
 2273POPC   GL232798  40.190  34.838   9.066
 2273POPC   C1A32799  39.715  34.705   8.729
 2273POPC   D2A32800  39.618  35.004   8.418
 2273POPC   C3A32801  39.628  34.797   8.029
 2273POPC   C4A32802  39.809  34.775   7.622
 2273POPC   C1B32803  40.185  34.557   8.705
 2273POPC   C2B32804  40.008  34.578   8.303
 2273POPC   C3B32805  40.130  34.877   8.006
 2273POPC   C4B32806  40.381  34.902   7.658
 2274POPC   NC332807  31.679  13.869   9.471
 2274POPC   PO432808  31.178  13.540   9.692
 2274POPC   GL132809  31.222  13.624   9.241
 2274POPC   GL232810  31.391  13.922   9.047
 2274POPC   C1A32811  31.313  13.444   8.826
 2274POPC   D2A32812  31.346  13.652   8.415
 2274POPC   C3A32813  31.394  13.484   7.991
 2274POPC   C4A32814  31.291  13.754   7.627
 2274POPC   C1B32815  31.722  13.760   8.756
 2274POPC   C2B32816  31.843  13.918   8.319
 2274POPC   C3B32817  31.750  13.825   7.854
 2274POPC   C4B32818  31.706  13.891   7.355
 2275POPC   NC332819  32.546   0.970   9.474
 2275POPC   PO432820  32.349   1.577   9.658
 2275POPC   GL132821  32.372   1.566   9.200
 2275POPC   GL232822  32.313   1.238   9.075
 2275POPC   C1A32823  32.347   1.632   8.731
 2275POPC   D2A32824  32.550   1.541   8.298
 2275POPC   C3A32825  32.276   1.365   7.975
 2275POPC   C4A32826  31.870   1.216   7.838
 2275POPC   C1B32827  32.197   0.953   8.740
 2275POPC   C2B32828  32.364   0.995   8.323
 2275POPC   C3B32829  32.292   0.862   7.896
 2275POPC   C4B32830  32.045   0.881   7.507
 2276POPC   NC332831   8.678  22.107   9.403
 2276POPC   PO432832   9.354  22.424   9.312
 2276POPC   GL132833   9.127  22.166   9.037
 2276POPC   GL232834   9.134  21.806   9.139
 2276POPC   C1A32835   8.853  22.215   8.665
 2276POPC   D2A32836   8.793  22.005   8.257
 2276POPC   C3A32837   8.822  22.251   7.887
 2276POPC   C4A32838   8.836  22.424   7.450
 2276POPC   C1B32839   9.107  21.773   8.687
 2276POPC   C2B32840   9.300  22.062   8.409
 2276POPC   C3B32841   9.241  21.952   7.992
 2276POPC   C4B32842   9.183  22.096   7.574
 2277POPC   NC332843   8.347  36.404   9.443
 2277POPC   PO432844   7.951  35.904   9.556
 2277POPC   GL132845   8.134  36.015   9.169
 2277POPC   GL232846   8.449  35.842   9.188
 2277POPC   C1A32847   7.958  36.067   8.744
 2277POPC   D2A32848   7.836  36.357   8.388
 2277POPC   C3A32849   7.869  36.184   7.989
 2277POPC   C4A32850   7.846  36.280   7.568
 2277POPC   C1B32851   8.479  36.154   8.818
 2277POPC   C2B32852   8.322  36.219   8.395
 2277POPC   C3B32853   8.412  36.140   7.972
 2277POPC   C4B32854   8.538  35.721   7.903
 2278POPC   NC332855  22.191  28.738   9.485
 2278POPC   PO432856  21.840  29.315   9.589
 2278POPC   GL132857  21.951  29.087   9.204
 2278POPC   GL232858  22.326  29.148   9.196
 2278POPC   C1A32859  22.054  29.223   8.775
 2278POPC   D2A32860  22.134  29.073   8.376
 2278POPC   C3A32861  22.224  29.342   8.053
 2278POPC   C4A32862  22.073  29.173   7.688
 2278POPC   C1B32863  22.381  28.823   8.842
 2278POPC   C2B32864  22.518  28.738   8.385
 2278POPC   C3B32865  22.401  28.838   7.929
 2278POPC   C4B32866  22.418  28.885   7.441
 2279POPC   NC332867  25.474   6.193   9.537
 2279POPC   PO432868  25.012   6.593   9.391
 2279POPC   GL132869  25.307   6.645   9.073
 2279POPC   GL232870  25.432   6.334   9.059
 2279POPC   C1A32871  25.166   6.615   8.659
 2279POPC   D2A32872  24.898   6.883   8.368
 2279POPC   C3A32873  25.052   7.022   7.952
 2279POPC   C4A32874  25.292   6.932   7.585
 2279POPC   C1B32875  25.630   6.364   8.681
 2279POPC   C2B32876  25.426   6.342   8.308
 2279POPC   C3B32877  25.323   6.516   7.921
 2279POPC   C4B32878  25.246   6.430   7.481
 2280POPC   NC332879  20.784   4.140   9.646
 2280POPC   PO432880  20.332   4.569   9.712
 2280POPC   GL132881  20.514   4.270   9.249
 2280POPC   GL232882  20.868   4.291   9.171
 2280POPC   C1A32883  20.599   4.473   8.758
 2280POPC   D2A32884  20.797   4.493   8.321
 2280POPC   C3A32885  20.496   4.377   8.009
 2280POPC   C4A32886  20.467   4.103   7.661
 2280POPC   C1B32887  20.972   4.143   8.768
 2280POPC   C2B32888  21.020   3.911   8.409
 2280POPC   C3B32889  20.911   4.001   7.993
 2280POPC   C4B32890  20.969   4.310   7.704
 2281POPC   NC332891   3.998   6.402   9.616
 2281POPC   PO432892   4.660   6.477   9.485
 2281POPC   GL132893   4.357   6.559   9.137
 2281POPC   GL232894   4.280   6.917   9.092
 2281POPC   C1A32895   4.467   6.665   8.671
 2281POPC   D2A32896   4.581   6.723   8.208
 2281POPC   C3A32897   4.475   6.361   7.944
 2281POPC   C4A32898   4.158   6.192   7.670
 2281POPC   C1B32899   4.036   6.958   8.686
 2281POPC   C2B32900   4.072   6.815   8.246
 2281POPC   C3B32901   4.183   6.747   7.766
 2281POPC   C4B32902   3.994   7.045   7.397
 2282POPC   NC332903  32.613  14.658   9.471
 2282POPC   PO432904  32.080  14.168   9.508
 2282POPC   GL132905  32.197  14.153   9.099
 2282POPC   GL232906  32.160  14.511   9.097
 2282POPC   C1A32907  32.283  14.254   8.655
 2282POPC   D2A32908  32.021  14.413   8.331
 2282POPC   C3A32909  32.022  14.251   7.923
 2282POPC   C4A32910  32.000  14.263   7.494
 2282POPC   C1B32911  32.073  14.751   8.731
 2282POPC   C2B32912  32.148  14.925   8.364
 2282POPC   C3B32913  32.164  14.755   7.961
 2282POPC   C4B32914  31.838  14.735   7.673
 2283POPC   NC332915  26.749   8.098   9.443
 2283POPC   PO432916  26.228   7.778   9.420
 2283POPC   GL132917  26.566   7.787   9.090
 2283POPC   GL232918  26.343   8.018   8.939
 2283POPC   C1A32919  26.797   7.982   8.718
 2283POPC   D2A32920  26.865   7.823   8.312
 2283POPC   C3A32921  26.908   8.064   7.935
 2283POPC   C4A32922  26.766   8.016   7.535
 2283POPC   C1B32923  26.485   8.388   8.714
 2283POPC   C2B32924  26.675   8.343   8.301
 2283POPC   C3B32925  26.447   8.272   7.891
 2283POPC   C4B32926  26.232   8.625   7.680
 2284POPC   NC332927  38.142  14.841   9.449
 2284POPC   PO432928  38.225  14.162   9.577
 2284POPC   GL132929  38.166  14.367   9.219
 2284POPC   GL232930  38.450  14.530   9.138
 2284POPC   C1A32931  38.172  14.297   8.778
 2284POPC   D2A32932  38.447  14.382   8.437
 2284POPC   C3A32933  38.267  14.324   8.026
 2284POPC   C4A32934  38.452  14.367   7.624
 2284POPC   C1B32935  38.403  14.779   8.794
 2284POPC   C2B32936  38.633  14.920   8.477
 2284POPC   C3B32937  38.575  14.744   8.088
 2284POPC   C4B32938  38.203  14.810   7.804
 2285POPC   NC332939  11.523   0.713   9.405
 2285POPC   PO432940  11.078   0.108   9.495
 2285POPC   GL132941  11.425   0.262   9.188
 2285POPC   GL232942  11.225   0.522   9.003
 2285POPC   C1A32943  11.573   0.301   8.720
 2285POPC   D2A32944  11.252   0.553   8.446
 2285POPC   C3A32945  11.154   0.402   8.064
 2285POPC   C4A32946  11.239   0.501   7.650
 2285POPC   C1B32947  11.513   0.814   8.775
 2285POPC   C2B32948  11.749   0.728   8.413
 2285POPC   C3B32949  11.618   0.632   8.005
 2285POPC   C4B32950  11.614   0.856   7.607
 2286POPC   NC332951   8.027  22.575   9.480
 2286POPC   PO432952   8.230  21.927   9.465
 2286POPC   GL132953   8.206  22.208   9.174
 2286POPC   GL232954   7.856  22.155   9.188
 2286POPC   C1A32955   8.364  22.323   8.793
 2286POPC   D2A32956   8.307  22.053   8.450
 2286POPC   C3A32957   8.314  22.184   8.021
 2286POPC   C4A32958   8.045  22.022   7.708
 2286POPC   C1B32959   7.847  22.211   8.756
 2286POPC   C2B32960   8.012  22.505   8.455
 2286POPC   C3B32961   7.890  22.500   8.061
 2286POPC   C4B32962   7.981  22.570   7.667
 2287POPC   NC332963  14.010  26.679   9.444
 2287POPC   PO432964  13.375  27.009   9.405
 2287POPC   GL132965  13.705  26.924   9.128
 2287POPC   GL232966  13.529  26.613   9.071
 2287POPC   C1A32967  13.922  26.704   8.758
 2287POPC   D2A32968  13.758  26.550   8.344
 2287POPC   C3A32969  13.930  26.639   7.916
 2287POPC   C4A32970  14.001  26.663   7.425
 2287POPC   C1B32971  13.451  26.920   8.703
 2287POPC   C2B32972  13.346  26.939   8.296
 2287POPC   C3B32973  13.537  26.941   7.941
 2287POPC   C4B32974  13.518  26.764   7.555
 2288POPC   NC332975  10.277   2.009   9.473
 2288POPC   PO432976  10.879   1.654   9.664
 2288POPC   GL132977  10.709   1.801   9.239
 2288POPC   GL232978  10.792   2.149   9.192
 2288POPC   C1A32979  10.495   1.799   8.813
 2288POPC   D2A32980  10.229   1.640   8.440
 2288POPC   C3A32981  10.475   1.666   8.053
 2288POPC   C4A32982  10.384   1.859   7.655
 2288POPC   C1B32983  10.676   2.288   8.765
 2288POPC   C2B32984  10.451   2.113   8.394
 2288POPC   C3B32985  10.300   2.225   8.012
 2288POPC   C4B32986  10.566   2.323   7.684
 2289POPC   NC332987  43.710   5.359   9.550
 2289POPC   PO432988  44.299   4.963   9.566
 2289POPC   GL132989  44.016   5.006   9.195
 2289POPC   GL232990  43.779   4.799   9.038
 2289POPC   C1A32991  43.864   5.270   8.853
 2289POPC   D2A32992  44.063   5.469   8.514
 2289POPC   C3A32993  44.042   5.271   8.098
 2289POPC   C4A32994  43.712   5.225   7.788
 2289POPC   C1B32995  43.546   4.878   8.693
 2289POPC   C2B32996  43.644   4.970   8.288
 2289POPC   C3B32997  43.588   4.714   7.934
 2289POPC   C4B32998  43.693   4.745   7.512
 2290POPC   NC332999  26.595  20.927   9.564
 2290POPC   PO433000  26.978  20.380   9.571
 2290POPC   GL133001  26.987  20.475   9.169
 2290POPC   GL233002  26.838  20.746   9.153
 2290POPC   C1A33003  26.828  20.350   8.759
 2290POPC   D2A33004  26.761  20.251   8.290
 2290POPC   C3A33005  26.639  20.605   7.959
 2290POPC   C4A33006  26.347  20.837   7.658
 2290POPC   C1B33007  26.882  20.877   8.734
 2290POPC   C2B33008  26.961  20.983   8.296
 2290POPC   C3B33009  27.138  21.046   7.912
 2290POPC   C4B33010  26.941  21.038   7.505
 2291POPC   NC333011  40.508   0.034   9.465
 2291POPC   PO433012  41.207  44.987   9.343
 2291POPC   GL133013  40.826  44.831   9.121
 2291POPC   GL233014  40.663  44.533   9.219
 2291POPC   C1A33015  40.633  44.782   8.716
 2291POPC   D2A33016  40.834  44.712   8.315
 2291POPC   C3A33017  40.655  44.786   7.929
 2291POPC   C4A33018  40.791  44.684   7.509
 2291POPC   C1B33019  40.327  44.401   8.920
 2291POPC   C2B33020  40.287  44.382   8.485
 2291POPC   C3B33021  40.368  44.172   8.093
 2291POPC   C4B33022  40.764  44.295   7.886
 2292POPC   NC333023  41.100   2.459   9.377
 2292POPC   PO433024  40.715   1.806   9.418
 2292POPC   GL133025  40.888   2.036   9.083
 2292POPC   GL233026  41.193   1.908   9.106
 2292POPC   C1A33027  40.891   2.239   8.663
 2292POPC   D2A33028  40.924   2.512   8.314
 2292POPC   C3A33029  40.979   2.327   7.940
 2292POPC   C4A33030  40.703   2.051   7.793
 2292POPC   C1B33031  41.082   1.757   8.668
 2292POPC   C2B33032  40.996   1.836   8.197
 2292POPC   C3B33033  41.023   1.625   7.768
 2292POPC   C4B33034  41.187   1.719   7.325
 2293POPC   NC333035  16.153   6.856   9.340
 2293POPC   PO433036  15.632   6.438   9.543
 2293POPC   GL133037  15.804   6.286   9.169
 2293POPC   GL233038  15.791   6.611   9.070
 2293POPC   C1A33039  16.078   6.303   8.796
 2293POPC   D2A33040  16.207   6.614   8.492
 2293POPC   C3A33041  16.125   6.512   8.064
 2293POPC   C4A33042  16.063   6.737   7.674
 2293POPC   C1B33043  15.579   6.402   8.706
 2293POPC   C2B33044  15.694   6.361   8.275
 2293POPC   C3B33045  15.638   6.636   7.907
 2293POPC   C4B33046  15.634   6.537   7.444
 2294POPC   NC333047  19.985  31.068   9.644
 2294POPC   PO433048  19.920  30.391   9.460
 2294POPC   GL133049  19.893  30.776   9.210
 2294POPC   GL233050  19.533  30.741   9.147
 2294POPC   C1A33051  20.006  31.000   8.817
 2294POPC   D2A33052  20.121  30.751   8.430
 2294POPC   C3A33053  19.975  30.836   8.014
 2294POPC   C4A33054  19.986  30.756   7.555
 2294POPC   C1B33055  19.688  30.621   8.720
 2294POPC   C2B33056  19.521  30.649   8.265
 2294POPC   C3B33057  19.531  30.678   7.786
 2294POPC   C4B33058  19.533  30.829   7.329
 2295POPC   NC333059  34.972  26.492   9.567
 2295POPC   PO433060  34.431  26.485   9.165
 2295POPC   GL133061  34.786  26.611   9.044
 2295POPC   GL233062  34.734  26.968   9.094
 2295POPC   C1A33063  34.822  26.743   8.626
 2295POPC   D2A33064  34.520  26.936   8.387
 2295POPC   C3A33065  34.587  26.831   7.988
 2295POPC   C4A33066  34.368  26.496   7.788
 2295POPC   C1B33067  34.781  27.234   8.735
 2295POPC   C2B33068  34.960  27.160   8.289
 2295POPC   C3B33069  34.743  27.315   7.896
 2295POPC   C4B33070  34.580  27.059   7.529
 2296POPC   NC333071  32.718   6.689   9.430
 2296POPC   PO433072  33.400   6.864   9.496
 2296POPC   GL133073  33.166   6.546   9.222
 2296POPC   GL233074  32.972   6.836   9.023
 2296POPC   C1A33075  33.075   6.390   8.793
 2296POPC   D2A33076  33.094   6.776   8.526
 2296POPC   C3A33077  33.103   6.760   8.089
 2296POPC   C4A33078  33.301   6.447   7.855
 2296POPC   C1B33079  32.624   6.664   8.742
 2296POPC   C2B33080  32.636   6.657   8.292
 2296POPC   C3B33081  32.480   6.758   7.891
 2296POPC   C4B33082  32.725   6.756   7.480
 2297POPC   NC333083  20.494  36.493   9.802
 2297POPC   PO433084  20.415  37.150   9.516
 2297POPC   GL133085  20.632  36.934   9.149
 2297POPC   GL233086  20.410  37.015   8.991
 2297POPC   C1A33087  20.483  36.583   8.757
 2297POPC   D2A33088  20.637  36.591   8.363
 2297POPC   C3A33089  20.539  36.519   7.959
 2297POPC   C4A33090  20.609  36.705   7.563
 2297POPC   C1B33091  20.640  37.050   8.611
 2297POPC   C2B33092  20.362  37.004   8.245
 2297POPC   C3B33093  20.437  37.093   7.833
 2297POPC   C4B33094  20.261  37.085   7.394
 2298POPC   NC333095  14.914  20.080   9.560
 2298POPC   PO433096  15.313  19.484   9.586
 2298POPC   GL133097  15.055  19.531   9.207
 2298POPC   GL233098  15.154  19.862   9.142
 2298POPC   C1A33099  15.128  19.544   8.735
 2298POPC   D2A33100  15.430  19.790   8.440
 2298POPC   C3A33101  15.394  19.823   7.985
 2298POPC   C4A33102  15.031  19.650   7.829
 2298POPC   C1B33103  15.015  20.030   8.727
 2298POPC   C2B33104  14.974  19.947   8.301
 2298POPC   C3B33105  15.022  20.174   7.937
 2298POPC   C4B33106  14.973  20.054   7.531
 2299POPC   NC333107  14.961  15.302   9.564
 2299POPC   PO433108  15.410  14.861   9.713
 2299POPC   GL133109  15.145  14.854   9.331
 2299POPC   GL233110  14.765  14.915   9.255
 2299POPC   C1A33111  15.289  15.036   8.933
 2299POPC   D2A33112  15.236  15.332   8.597
 2299POPC   C3A33113  15.388  15.266   8.184
 2299POPC   C4A33114  15.499  15.652   7.950
 2299POPC   C1B33115  14.781  15.151   8.859
 2299POPC   C2B33116  14.748  15.418   8.485
 2299POPC   C3B33117  14.946  15.520   8.073
 2299POPC   C4B33118  15.173  15.334   7.723
 2300POPC   NC333119  43.446  19.254   9.624
 2300POPC   PO433120  42.835  18.975   9.570
 2300POPC   GL133121  42.905  19.121   9.182
 2300POPC   GL233122  43.225  18.967   9.214
 2300POPC   C1A33123  42.792  19.272   8.770
 2300POPC   D2A33124  42.767  19.058   8.384
 2300POPC   C3A33125  42.746  19.295   8.037
 2300POPC   C4A33126  42.933  19.145   7.669
 2300POPC   C1B33127  43.287  19.311   8.928
 2300POPC   C2B33128  43.256  19.285   8.501
 2300POPC   C3B33129  43.259  19.208   8.069
 2300POPC   C4B33130  43.449  19.217   7.667
 2301POPC   NC333131  39.217  32.556   9.659
 2301POPC   PO433132  39.391  31.972   9.512
 2301POPC   GL133133  39.312  32.277   9.208
 2301POPC   GL233134  39.003  32.271   9.113
 2301POPC   C1A33135  39.501  32.336   8.797
 2301POPC   D2A33136  39.562  32.320   8.337
 2301POPC   C3A33137  39.361  32.512   7.958
 2301POPC   C4A33138  39.300  32.378   7.514
 2301POPC   C1B33139  39.079  32.069   8.700
 2301POPC   C2B33140  39.068  32.217   8.271
 2301POPC   C3B33141  39.027  32.073   7.840
 2301POPC   C4B33142  38.907  31.949   7.429
 2302POPC   NC333143  41.630  11.710   9.496
 2302POPC   PO433144  41.295  12.336   9.524
 2302POPC   GL133145  41.406  12.169   9.169
 2302POPC   GL233146  41.037  12.204   9.078
 2302POPC   C1A33147  41.683  12.102   8.797
 2302POPC   D2A33148  41.585  12.197   8.376
 2302POPC   C3A33149  41.812  12.007   8.013
 2302POPC   C4A33150  42.028  12.185   7.689
 2302POPC   C1B33151  41.212  11.884   8.817
 2302POPC   C2B33152  41.156  11.783   8.425
 2302POPC   C3B33153  41.271  11.941   8.072
 2302POPC   C4B33154  41.395  11.849   7.696
 2303POPC   NC333155   4.492   1.833   9.522
 2303POPC   PO433156   3.797   2.003   9.535
 2303POPC   GL133157   4.153   2.039   9.198
 2303POPC   GL233158   4.540   2.148   9.117
 2303POPC   C1A33159   4.181   2.048   8.767
 2303POPC   D2A33160   4.054   1.875   8.411
 2303POPC   C3A33161   4.217   2.018   8.052
 2303POPC   C4A33162   4.123   1.845   7.659
 2303POPC   C1B33163   4.646   1.823   8.750
 2303POPC   C2B33164   4.622   1.743   8.272
 2303POPC   C3B33165   4.656   1.871   7.813
 2303POPC   C4B33166   4.663   2.114   7.397
 2304POPC   NC333167  22.881  27.310   9.520
 2304POPC   PO433168  23.250  26.794   9.722
 2304POPC   GL133169  23.166  26.961   9.248
 2304POPC   GL233170  23.116  27.290   9.063
 2304POPC   C1A33171  23.100  26.856   8.781
 2304POPC   D2A33172  22.836  26.698   8.418
 2304POPC   C3A33173  23.079  26.694   8.042
 2304POPC   C4A33174  23.101  26.503   7.628
 2304POPC   C1B33175  23.336  27.297   8.689
 2304POPC   C2B33176  23.389  27.033   8.339
 2304POPC   C3B33177  23.287  27.149   7.932
 2304POPC   C4B33178  23.079  27.015   7.576
 2305POPC   NC333179   2.209  20.251   9.377
 2305POPC   PO433180   1.981  20.932   9.474
 2305POPC   GL133181   2.053  20.687   9.132
 2305POPC   GL233182   1.763  20.460   9.151
 2305POPC   C1A33183   2.324  20.541   8.789
 2305POPC   D2A33184   2.267  20.311   8.431
 2305POPC   C3A33185   2.319  20.580   8.060
 2305POPC   C4A33186   2.143  20.891   7.833
 2305POPC   C1B33187   1.880  20.167   8.799
 2305POPC   C2B33188   1.761  20.024   8.393
 2305POPC   C3B33189   1.898  20.277   8.037
 2305POPC   C4B33190   1.716  20.603   7.771
 2306POPC   NC333191  24.970  25.098   9.445
 2306POPC   PO433192  24.270  25.169   9.547
 2306POPC   GL133193  24.477  25.479   9.222
 2306POPC   GL233194  24.208  25.456   8.999
 2306POPC   C1A33195  24.667  25.460   8.777
 2306POPC   D2A33196  24.742  25.259   8.353
 2306POPC   C3A33197  24.624  25.413   7.947
 2306POPC   C4A33198  24.815  25.424   7.557
 2306POPC   C1B33199  24.263  25.150   8.641
 2306POPC   C2B33200  24.275  25.066   8.192
 2306POPC   C3B33201  23.988  25.041   7.831
 2306POPC   C4B33202  23.914  24.974   7.348
 2307POPC   NC333203  37.469  34.009   9.489
 2307POPC   PO433204  38.099  33.682   9.441
 2307POPC   GL133205  37.961  33.947   9.125
 2307POPC   GL233206  37.608  33.905   9.020
 2307POPC   C1A33207  37.978  33.762   8.705
 2307POPC   D2A33208  37.636  33.839   8.448
 2307POPC   C3A33209  37.579  34.103   8.091
 2307POPC   C4A33210  37.739  33.971   7.701
 2307POPC   C1B33211  37.287  34.091   8.768
 2307POPC   C2B33212  37.137  33.948   8.361
 2307POPC   C3B33213  37.337  33.632   8.082
 2307POPC   C4B33214  37.421  33.571   7.681
 2308POPC   NC333215  26.965  28.881   9.427
 2308POPC   PO433216  27.017  29.417   9.809
 2308POPC   GL133217  26.854  29.361   9.354
 2308POPC   GL233218  26.522  29.214   9.245
 2308POPC   C1A33219  26.904  29.278   8.875
 2308POPC   D2A33220  27.170  29.097   8.495
 2308POPC   C3A33221  26.974  29.036   8.078
 2308POPC   C4A33222  26.979  29.199   7.655
 2308POPC   C1B33223  26.378  29.326   8.795
 2308POPC   C2B33224  26.470  29.219   8.364
 2308POPC   C3B33225  26.611  29.395   7.988
 2308POPC   C4B33226  26.489  29.310   7.570
 2309POPC   NC333227  17.316  29.460   9.646
 2309POPC   PO433228  17.734  28.978   9.462
 2309POPC   GL133229  17.436  29.212   9.193
 2309POPC   GL233230  17.719  29.131   8.959
 2309POPC   C1A33231  17.300  29.319   8.737
 2309POPC   D2A33232  17.607  29.085   8.444
 2309POPC   C3A33233  17.769  29.137   8.032
 2309POPC   C4A33234  17.687  29.453   7.728
 2309POPC   C1B33235  17.365  28.833   8.841
 2309POPC   C2B33236  17.171  28.816   8.425
 2309POPC   C3B33237  17.366  28.800   8.025
 2309POPC   C4B33238  17.463  28.975   7.633
 2310POPC   NC333239  35.638  28.225   9.447
 2310POPC   PO433240  35.087  28.629   9.518
 2310POPC   GL133241  35.204  28.431   9.147
 2310POPC   GL233242  35.210  28.095   9.158
 2310POPC   C1A33243  35.305  28.480   8.716
 2310POPC   D2A33244  35.538  28.541   8.359
 2310POPC   C3A33245  35.461  28.280   8.006
 2310POPC   C4A33246  35.431  28.468   7.626
 2310POPC   C1B33247  35.257  27.978   8.743
 2310POPC   C2B33248  35.103  28.164   8.361
 2310POPC   C3B33249  34.991  28.071   7.941
 2310POPC   C4B33250  35.013  28.165   7.486
 2311POPC   NC333251  22.529  34.561   9.412
 2311POPC   PO433252  23.245  34.553   9.415
 2311POPC   GL133253  22.960  34.703   9.115
 2311POPC   GL233254  22.928  34.369   9.039
 2311POPC   C1A33255  22.958  34.869   8.679
 2311POPC   D2A33256  23.167  34.740   8.281
 2311POPC   C3A33257  23.008  34.774   7.912
 2311POPC   C4A33258  22.941  34.376   7.685
 2311POPC   C1B33259  22.764  34.416   8.669
 2311POPC   C2B33260  22.747  34.447   8.242
 2311POPC   C3B33261  22.529  34.615   7.878
 2311POPC   C4B33262  22.679  34.841   7.537
 2312POPC   NC333263   7.186  34.111   9.520
 2312POPC   PO433264   7.606  33.574   9.492
 2312POPC   GL133265   7.354  33.672   9.150
 2312POPC   GL233266   7.682  33.757   9.032
 2312POPC   C1A33267   7.274  33.879   8.743
 2312POPC   D2A33268   7.422  34.072   8.328
 2312POPC   C3A33269   7.269  33.828   7.956
 2312POPC   C4A33270   7.091  33.626   7.572
 2312POPC   C1B33271   7.790  33.777   8.640
 2312POPC   C2B33272   7.645  33.616   8.270
 2312POPC   C3B33273   7.780  33.787   7.914
 2312POPC   C4B33274   7.701  33.762   7.504
 2313POPC   NC333275  14.861  26.926   9.505
 2313POPC   PO433276  15.544  26.861   9.468
 2313POPC   GL133277  15.271  26.691   9.144
 2313POPC   GL233278  15.440  26.363   9.104
 2313POPC   C1A33279  14.998  26.853   8.773
 2313POPC   D2A33280  15.172  27.032   8.373
 2313POPC   C3A33281  15.066  26.852   7.986
 2313POPC   C4A33282  14.828  26.895   7.601
 2313POPC   C1B33283  15.535  26.578   8.704
 2313POPC   C2B33284  15.601  26.724   8.281
 2313POPC   C3B33285  15.585  26.989   7.908
 2313POPC   C4B33286  15.303  27.042   7.577
 2314POPC   NC333287   6.324  35.571   9.663
 2314POPC   PO433288   5.709  35.418   9.503
 2314POPC   GL133289   5.899  35.458   9.137
 2314POPC   GL233290   6.132  35.238   9.243
 2314POPC   C1A33291   5.860  35.412   8.693
 2314POPC   D2A33292   5.518  35.410   8.383
 2314POPC   C3A33293   5.699  35.491   7.982
 2314POPC   C4A33294   6.090  35.422   7.758
 2314POPC   C1B33295   5.997  34.976   8.923
 2314POPC   C2B33296   6.112  34.964   8.512
 2314POPC   C3B33297   5.892  35.052   8.149
 2314POPC   C4B33298   5.935  34.927   7.732
 2315POPC   NC333299   1.933   4.044   9.333
 2315POPC   PO433300   1.999   4.684   9.514
 2315POPC   GL133301   1.870   4.527   9.114
 2315POPC   GL233302   2.159   4.375   9.017
 2315POPC   C1A33303   1.950   4.625   8.659
 2315POPC   D2A33304   1.781   4.538   8.262
 2315POPC   C3A33305   2.008   4.329   7.928
 2315POPC   C4A33306   1.662   4.517   7.709
 2315POPC   C1B33307   2.080   4.068   8.667
 2315POPC   C2B33308   1.808   4.028   8.336
 2315POPC   C3B33309   1.675   3.957   7.941
 2315POPC   C4B33310   1.903   3.980   7.536
 2316POPC   NC333311  16.961  32.444   9.559
 2316POPC   PO433312  16.450  31.928   9.375
 2316POPC   GL133313  16.838  32.048   9.200
 2316POPC   GL233314  16.767  32.369   9.094
 2316POPC   C1A33315  16.869  32.007   8.754
 2316POPC   D2A33316  16.525  32.028   8.501
 2316POPC   C3A33317  16.581  32.290   8.167
 2316POPC   C4A33318  16.585  32.438   7.754
 2316POPC   C1B33319  16.751  32.527   8.672
 2316POPC   C2B33320  17.082  32.589   8.386
 2316POPC   C3B33321  17.051  32.419   7.990
 2316POPC   C4B33322  17.028  32.710   7.679
 2317POPC   NC333323  38.112  31.236   9.458
 2317POPC   PO433324  37.518  31.544   9.574
 2317POPC   GL133325  37.707  31.506   9.171
 2317POPC   GL233326  37.467  31.334   9.013
 2317POPC   C1A33327  37.768  31.621   8.707
 2317POPC   D2A33328  37.834  31.362   8.325
 2317POPC   C3A33329  37.659  31.492   7.957
 2317POPC   C4A33330  37.435  31.370   7.597
 2317POPC   C1B33331  37.870  31.145   8.832
 2317POPC   C2B33332  38.137  30.949   8.532
 2317POPC   C3B33333  38.164  31.024   8.081
 2317POPC   C4B33334  37.862  31.061   7.728
 2318POPC   NC333335   1.696   8.686   9.596
 2318POPC   PO433336   2.096   8.204   9.481
 2318POPC   GL133337   1.858   8.253   9.120
 2318POPC   GL233338   1.566   8.041   9.217
 2318POPC   C1A33339   1.951   8.204   8.667
 2318POPC   D2A33340   1.787   8.401   8.287
 2318POPC   C3A33341   2.002   8.458   7.884
 2318POPC   C4A33342   1.985   8.248   7.496
 2318POPC   C1B33343   1.655   7.823   8.823
 2318POPC   C2B33344   1.828   7.821   8.368
 2318POPC   C3B33345   1.614   7.932   7.964
 2318POPC   C4B33346   1.580   7.946   7.484
 2319POPC   NC333347  41.475   0.770   9.460
 2319POPC   PO433348  41.629   1.447   9.453
 2319POPC   GL133349  41.548   1.173   9.116
 2319POPC   GL233350  41.331   1.419   9.011
 2319POPC   C1A33351  41.681   1.035   8.698
 2319POPC   D2A33352  41.499   0.930   8.311
 2319POPC   C3A33353  41.747   0.974   7.940
 2319POPC   C4A33354  41.916   1.339   7.756
 2319POPC   C1B33355  41.221   1.256   8.658
 2319POPC   C2B33356  41.221   1.383   8.278
 2319POPC   C3B33357  41.285   1.179   7.932
 2319POPC   C4B33358  41.354   1.275   7.521
 2320POPC   NC333359   8.214  31.160   9.369
 2320POPC   PO433360   8.485  31.785   9.265
 2320POPC   GL133361   8.295  31.531   8.989
 2320POPC   GL233362   8.510  31.249   8.988
 2320POPC   C1A33363   7.947  31.544   8.711
 2320POPC   D2A33364   7.804  31.556   8.268
 2320POPC   C3A33365   8.021  31.266   7.989
 2320POPC   C4A33366   8.010  31.256   7.532
 2320POPC   C1B33367   8.332  31.189   8.603
 2320POPC   C2B33368   8.309  31.541   8.363
 2320POPC   C3B33369   8.442  31.625   8.010
 2320POPC   C4B33370   8.476  31.286   7.736
 2321POPC   NC333371  33.039   5.788   9.582
 2321POPC   PO433372  32.536   6.263   9.466
 2321POPC   GL133373  32.853   6.059   9.153
 2321POPC   GL233374  33.217   5.936   9.109
 2321POPC   C1A33375  32.744   5.768   8.778
 2321POPC   D2A33376  32.937   5.827   8.365
 2321POPC   C3A33377  32.828   5.755   7.925
 2321POPC   C4A33378  33.141   5.994   7.673
 2321POPC   C1B33379  33.212   5.585   8.785
 2321POPC   C2B33380  33.309   5.457   8.338
 2321POPC   C3B33381  33.319   5.548   7.883
 2321POPC   C4B33382  33.168   5.530   7.447
 2322POPC   NC333383  43.961  21.783   9.440
 2322POPC   PO433384  43.625  21.153   9.499
 2322POPC   GL133385  43.799  21.360   9.155
 2322POPC   GL233386  44.141  21.254   9.212
 2322POPC   C1A33387  43.666  21.277   8.713
 2322POPC   D2A33388  43.432  21.111   8.367
 2322POPC   C3A33389  43.691  21.172   8.048
 2322POPC   C4A33390  43.781  21.400   7.725
 2322POPC   C1B33391  44.186  21.503   8.862
 2322POPC   C2B33392  44.310  21.508   8.463
 2322POPC   C3B33393  44.151  21.513   8.073
 2322POPC   C4B33394  44.380  21.556   7.724
 2323POPC   NC333395  11.416   4.967   9.623
 2323POPC   PO433396  10.909   5.418   9.523
 2323POPC   GL133397  11.161   5.173   9.226
 2323POPC   GL233398  11.543   5.200   9.197
 2323POPC   C1A33399  11.225   5.287   8.812
 2323POPC   D2A33400  11.358   5.184   8.405
 2323POPC   C3A33401  11.164   5.407   8.079
 2323POPC   C4A33402  10.912   5.255   7.747
 2323POPC   C1B33403  11.696   5.068   8.816
 2323POPC   C2B33404  11.863   5.188   8.419
 2323POPC   C3B33405  11.734   5.079   8.026
 2323POPC   C4B33406  11.474   5.260   7.715
 2324POPC   NC333407   8.121   9.549   9.452
 2324POPC   PO433408   8.277  10.200   9.475
 2324POPC   GL133409   8.047   9.998   9.072
 2324POPC   GL233410   7.939   9.656   8.998
 2324POPC   C1A33411   8.079   9.905   8.593
 2324POPC   D2A33412   8.440   9.806   8.357
 2324POPC   C3A33413   8.276   9.928   7.973
 2324POPC   C4A33414   7.910  10.168   7.794
 2324POPC   C1B33415   8.303   9.490   8.767
 2324POPC   C2B33416   8.176   9.386   8.304
 2324POPC   C3B33417   8.066   9.440   7.851
 2324POPC   C4B33418   8.023   9.524   7.399
 2325POPC   NC333419   8.831  15.563   9.415
 2325POPC   PO433420   8.745  14.943   9.437
 2325POPC   GL133421   9.025  15.105   9.138
 2325POPC   GL233422   9.367  14.985   9.193
 2325POPC   C1A33423   8.983  15.210   8.712
 2325POPC   D2A33424   8.769  15.122   8.329
 2325POPC   C3A33425   9.023  15.249   8.013
 2325POPC   C4A33426   8.937  15.414   7.615
 2325POPC   C1B33427   9.270  14.778   8.781
 2325POPC   C2B33428   9.332  14.988   8.390
 2325POPC   C3B33429   9.339  14.856   7.983
 2325POPC   C4B33430   9.119  14.938   7.596
 2326POPC   NC333431  10.871  26.221   9.458
 2326POPC   PO433432  10.286  26.424   9.488
 2326POPC   GL133433  10.465  26.135   9.158
 2326POPC   GL233434  10.701  25.820   9.172
 2326POPC   C1A33435  10.358  26.068   8.751
 2326POPC   D2A33436  10.520  26.117   8.351
 2326POPC   C3A33437  10.278  26.019   7.979
 2326POPC   C4A33438  10.369  25.772   7.642
 2326POPC   C1B33439  10.833  25.823   8.739
 2326POPC   C2B33440  10.746  25.663   8.341
 2326POPC   C3B33441  10.774  25.809   7.944
 2326POPC   C4B33442  11.111  25.722   7.703
 2327POPC   NC333443  33.338   8.736   9.499
 2327POPC   PO433444  32.785   8.999   9.790
 2327POPC   GL133445  32.815   8.994   9.289
 2327POPC   GL233446  33.131   9.131   9.226
 2327POPC   C1A33447  33.006   8.813   8.858
 2327POPC   D2A33448  33.084   9.004   8.438
 2327POPC   C3A33449  32.868   8.927   8.040
 2327POPC   C4A33450  33.036   8.968   7.625
 2327POPC   C1B33451  33.298   9.313   8.835
 2327POPC   C2B33452  33.306   9.465   8.385
 2327POPC   C3B33453  33.310   9.275   7.965
 2327POPC   C4B33454  33.211   9.445   7.552
 2328POPC   NC333455  38.811  18.948   9.468
 2328POPC   PO433456  38.248  19.421   9.430
 2328POPC   GL133457  38.571  19.429   9.140
 2328POPC   GL233458  38.541  19.068   9.048
 2328POPC   C1A33459  38.386  19.431   8.744
 2328POPC   D2A33460  38.303  19.106   8.453
 2328POPC   C3A33461  38.344  19.228   8.036
 2328POPC   C4A33462  38.628  19.044   7.707
 2328POPC   C1B33463  38.251  18.748   8.872
 2328POPC   C2B33464  38.151  18.536   8.472
 2328POPC   C3B33465  38.240  18.715   8.072
 2328POPC   C4B33466  38.114  18.922   7.690
 2329POPC   NC333467   7.820   7.936   9.533
 2329POPC   PO433468   8.477   8.171   9.475
 2329POPC   GL133469   8.185   8.261   9.205
 2329POPC   GL233470   8.022   8.606   9.281
 2329POPC   C1A33471   8.237   8.096   8.772
 2329POPC   D2A33472   8.089   8.060   8.369
 2329POPC   C3A33473   8.391   8.098   8.052
 2329POPC   C4A33474   8.189   8.076   7.718
 2329POPC   C1B33475   8.240   8.609   8.847
 2329POPC   C2B33476   8.062   8.555   8.474
 2329POPC   C3B33477   8.064   8.491   8.067
 2329POPC   C4B33478   7.762   8.374   7.782
 2330POPC   NC333479  30.284   0.352   9.554
 2330POPC   PO433480  29.702   0.153   9.885
 2330POPC   GL133481  29.788   0.223   9.338
 2330POPC   GL233482  30.073   0.418   9.120
 2330POPC   C1A33483  29.728   0.233   8.826
 2330POPC   D2A33484  29.884   0.436   8.415
 2330POPC   C3A33485  29.819   0.350   7.965
 2330POPC   C4A33486  29.959   0.628   7.631
 2330POPC   C1B33487  30.243   0.260   8.722
 2330POPC   C2B33488  30.377   0.276   8.263
 2330POPC   C3B33489  30.311   0.268   7.799
 2330POPC   C4B33490  30.085   0.182   7.418
 2331POPC   NC333491   5.957  43.655   9.335
 2331POPC   PO433492   5.657  44.315   9.428
 2331POPC   GL133493   5.846  44.070   9.073
 2331POPC   GL233494   5.571  43.829   9.060
 2331POPC   C1A33495   6.158  43.876   8.711
 2331POPC   D2A33496   6.072  43.530   8.429
 2331POPC   C3A33497   5.853  43.702   8.096
 2331POPC   C4A33498   5.983  43.952   7.771
 2331POPC   C1B33499   5.651  43.841   8.617
 2331POPC   C2B33500   5.506  44.095   8.283
 2331POPC   C3B33501   5.503  44.066   7.844
 2331POPC   C4B33502   5.590  43.701   7.583
 2332POPC   NC333503  34.899   7.704   9.499
 2332POPC   PO433504  34.289   7.320   9.459
 2332POPC   GL133505  34.491   7.334   9.068
 2332POPC   GL233506  34.541   7.683   9.110
 2332POPC   C1A33507  34.528   7.521   8.637
 2332POPC   D2A33508  34.289   7.588   8.288
 2332POPC   C3A33509  34.476   7.341   7.996
 2332POPC   C4A33510  34.407   7.308   7.598
 2332POPC   C1B33511  34.837   7.895   8.830
 2332POPC   C2B33512  34.977   7.746   8.443
 2332POPC   C3B33513  34.819   7.723   8.051
 2332POPC   C4B33514  35.022   7.877   7.694
 2333POPC   NC333515  38.736  39.465   9.638
 2333POPC   PO433516  38.112  39.285   9.639
 2333POPC   GL133517  38.445  39.174   9.283
 2333POPC   GL233518  38.748  39.376   9.152
 2333POPC   C1A33519  38.429  39.085   8.825
 2333POPC   D2A33520  38.229  39.238   8.475
 2333POPC   C3A33521  38.210  39.142   8.065
 2333POPC   C4A33522  38.362  39.023   7.678
 2333POPC   C1B33523  38.907  39.297   8.748
 2333POPC   C2B33524  38.701  39.371   8.359
 2333POPC   C3B33525  38.645  39.402   7.914
 2333POPC   C4B33526  38.637  39.520   7.485
 2334POPC   NC333527   9.254  16.858   9.401
 2334POPC   PO433528   8.632  16.636   9.510
 2334POPC   GL133529   8.884  16.563   9.152
 2334POPC   GL233530   9.204  16.373   9.196
 2334POPC   C1A33531   8.963  16.826   8.789
 2334POPC   D2A33532   9.049  17.010   8.375
 2334POPC   C3A33533   8.775  16.809   8.091
 2334POPC   C4A33534   8.745  16.623   7.694
 2334POPC   C1B33535   9.366  16.499   8.789
 2334POPC   C2B33536   9.117  16.508   8.399
 2334POPC   C3B33537   9.204  16.542   7.982
 2334POPC   C4B33538   9.337  16.578   7.588
 2335POPC   NC333539  28.202   0.258   9.556
 2335POPC   PO433540  28.897   0.285   9.435
 2335POPC   GL133541  28.574   0.466   9.121
 2335POPC   GL233542  28.200   0.538   9.136
 2335POPC   C1A33543  28.442   0.631   8.715
 2335POPC   D2A33544  28.436   0.349   8.394
 2335POPC   C3A33545  28.250   0.422   8.047
 2335POPC   C4A33546  28.431   0.526   7.669
 2335POPC   C1B33547  27.958   0.272   8.850
 2335POPC   C2B33548  27.874   0.269   8.408
 2335POPC   C3B33549  27.859   0.095   7.980
 2335POPC   C4B33550  27.939   0.422   7.661
 2336POPC   NC333551  19.466  13.481   9.334
 2336POPC   PO433552  20.092  13.377   9.322
 2336POPC   GL133553  20.029  13.679   8.997
 2336POPC   GL233554  19.719  13.889   8.962
 2336POPC   C1A33555  19.891  13.554   8.600
 2336POPC   D2A33556  19.664  13.630   8.219
 2336POPC   C3A33557  19.713  13.280   7.972
 2336POPC   C4A33558  19.985  13.265   7.626
 2336POPC   C1B33559  19.781  14.036   8.515
 2336POPC   C2B33560  20.133  13.845   8.250
 2336POPC   C3B33561  20.039  13.722   7.868
 2336POPC   C4B33562  19.616  13.796   7.735
 2337POPC   NC333563  36.457  13.234   9.392
 2337POPC   PO433564  36.716  12.529   9.399
 2337POPC   GL133565  36.870  12.828   9.075
 2337POPC   GL233566  36.660  13.110   8.942
 2337POPC   C1A33567  37.148  13.050   8.773
 2337POPC   D2A33568  36.900  13.023   8.394
 2337POPC   C3A33569  37.011  12.798   8.009
 2337POPC   C4A33570  37.167  12.820   7.581
 2337POPC   C1B33571  36.562  12.712   8.706
 2337POPC   C2B33572  36.530  12.615   8.276
 2337POPC   C3B33573  36.517  12.750   7.859
 2337POPC   C4B33574  36.765  12.534   7.623
 2338POPC   NC333575  37.705  22.356   9.446
 2338POPC   PO433576  37.146  22.138   9.492
 2338POPC   GL133577  37.470  21.960   9.178
 2338POPC   GL233578  37.668  22.212   8.961
 2338POPC   C1A33579  37.554  21.770   8.744
 2338POPC   D2A33580  37.740  21.988   8.386
 2338POPC   C3A33581  37.822  21.916   7.939
 2338POPC   C4A33582  37.603  22.059   7.553
 2338POPC   C1B33583  37.495  22.411   8.595
 2338POPC   C2B33584  37.694  22.505   8.219
 2338POPC   C3B33585  37.822  22.462   7.801
 2338POPC   C4B33586  37.865  22.550   7.368
 2339POPC   NC333587  42.043  29.970   9.598
 2339POPC   PO433588  42.557  29.630   9.451
 2339POPC   GL133589  42.339  29.898   9.170
 2339POPC   GL233590  42.047  29.727   9.110
 2339POPC   C1A33591  42.466  29.953   8.740
 2339POPC   D2A33592  42.665  29.783   8.374
 2339POPC   C3A33593  42.487  29.940   8.011
 2339POPC   C4A33594  42.284  29.767   7.690
 2339POPC   C1B33595  41.968  30.054   8.797
 2339POPC   C2B33596  42.140  30.167   8.343
 2339POPC   C3B33597  41.930  30.055   7.924
 2339POPC   C4B33598  41.904  29.982   7.447
 2340POPC   NC333599  20.373  30.404   9.349
 2340POPC   PO433600  20.423  31.084   9.467
 2340POPC   GL133601  20.672  30.857   9.183
 2340POPC   GL233602  20.403  30.710   8.948
 2340POPC   C1A33603  20.871  30.838   8.772
 2340POPC   D2A33604  20.676  30.523   8.466
 2340POPC   C3A33605  20.747  30.543   8.009
 2340POPC   C4A33606  20.451  30.807   7.746
 2340POPC   C1B33607  20.167  30.343   8.742
 2340POPC   C2B33608  20.263  30.210   8.327
 2340POPC   C3B33609  20.266  30.374   7.921
 2340POPC   C4B33610  20.332  30.419   7.437
 2341POPC   NC333611  20.332  11.405   9.519
 2341POPC   PO433612  21.051  11.303   9.691
 2341POPC   GL133613  20.882  11.452   9.289
 2341POPC   GL233614  20.656  11.234   9.165
 2341POPC   C1A33615  20.896  11.555   8.852
 2341POPC   D2A33616  20.686  11.508   8.435
 2341POPC   C3A33617  20.705  11.103   8.263
 2341POPC   C4A33618  20.781  11.111   7.850
 2341POPC   C1B33619  20.374  11.373   8.839
 2341POPC   C2B33620  20.217  11.213   8.435
 2341POPC   C3B33621  20.276  11.215   7.989
 2341POPC   C4B33622  20.082  11.551   7.742
 2342POPC   NC333623  37.610   1.114   9.485
 2342POPC   PO433624  38.037   1.546   9.677
 2342POPC   GL133625  37.915   1.459   9.212
 2342POPC   GL233626  37.527   1.407   9.070
 2342POPC   C1A33627  37.922   1.480   8.761
 2342POPC   D2A33628  38.022   1.226   8.405
 2342POPC   C3A33629  37.848   1.335   8.008
 2342POPC   C4A33630  37.718   1.027   7.735
 2342POPC   C1B33631  37.544   1.122   8.701
 2342POPC   C2B33632  37.547   0.959   8.274
 2342POPC   C3B33633  37.260   0.966   7.923
 2342POPC   C4B33634  37.309   1.167   7.486
 2343POPC   NC333635  33.343  11.151   9.823
 2343POPC   PO433636  32.821  11.516   9.518
 2343POPC   GL133637  32.888  11.301   9.095
 2343POPC   GL233638  33.119  11.014   9.090
 2343POPC   C1A33639  32.783  11.149   8.656
 2343POPC   D2A33640  32.624  11.244   8.223
 2343POPC   C3A33641  32.963  11.268   7.908
 2343POPC   C4A33642  33.425  11.373   7.860
 2343POPC   C1B33643  33.286  11.280   8.729
 2343POPC   C2B33644  33.482  11.154   8.360
 2343POPC   C3B33645  33.185  10.886   8.155
 2343POPC   C4B33646  33.127  10.733   7.761
 2344POPC   NC333647   4.355  44.558   9.554
 2344POPC   PO433648   4.521   0.218   9.560
 2344POPC   GL133649   4.496  44.863   9.167
 2344POPC   GL233650   4.647  44.526   9.141
 2344POPC   C1A33651   4.308  44.583   8.780
 2344POPC   D2A33652   3.928  44.468   8.530
 2344POPC   C3A33653   4.066  44.476   8.120
 2344POPC   C4A33654   4.146  44.697   7.737
 2344POPC   C1B33655   4.830  44.527   8.734
 2344POPC   C2B33656   4.661  44.391   8.345
 2344POPC   C3B33657   4.563  44.520   7.933
 2344POPC   C4B33658   4.548  44.426   7.481
 2345POPC   NC333659  29.214  30.218   9.737
 2345POPC   PO433660  28.682  29.864   9.453
 2345POPC   GL133661  28.714  29.875   8.995
 2345POPC   GL233662  28.733  30.224   9.016
 2345POPC   C1A33663  29.077  29.791   8.657
 2345POPC   D2A33664  29.046  29.929   8.221
 2345POPC   C3A33665  29.183  29.803   7.800
 2345POPC   C4A33666  29.028  29.751   7.360
 2345POPC   C1B33667  28.983  30.286   8.641
 2345POPC   C2B33668  29.239  30.390   8.264
 2345POPC   C3B33669  29.126  30.322   7.860
 2345POPC   C4B33670  29.196  30.252   7.420
 2346POPC   NC333671  20.713   3.187   9.607
 2346POPC   PO433672  20.277   2.770   9.644
 2346POPC   GL133673  20.461   2.883   9.265
 2346POPC   GL233674  20.773   2.793   9.268
 2346POPC   C1A33675  20.441   2.872   8.841
 2346POPC   D2A33676  20.635   2.871   8.481
 2346POPC   C3A33677  20.429   2.905   8.102
 2346POPC   C4A33678  20.530   2.642   7.745
 2346POPC   C1B33679  20.941   2.559   8.937
 2346POPC   C2B33680  21.013   2.530   8.492
 2346POPC   C3B33681  20.952   2.736   8.092
 2346POPC   C4B33682  21.100   2.585   7.738
 2347POPC   NC333683  16.918   0.511   9.731
 2347POPC   PO433684  17.233   0.837   9.329
 2347POPC   GL133685  16.822   0.621   9.213
 2347POPC   GL233686  16.719   0.290   9.318
 2347POPC   C1A33687  16.636   0.740   8.790
 2347POPC   D2A33688  16.760   0.854   8.356
 2347POPC   C3A33689  16.567   0.628   8.014
 2347POPC   C4A33690  16.572   0.399   7.617
 2347POPC   C1B33691  16.756   0.249   8.866
 2347POPC   C2B33692  16.683   0.339   8.426
 2347POPC   C3B33693  16.654   0.111   8.019
 2347POPC   C4B33694  16.431  44.914   7.640
 2348POPC   NC333695  13.991  44.523   9.501
 2348POPC   PO433696  14.278   0.132   9.572
 2348POPC   GL133697  14.103  44.971   9.210
 2348POPC   GL233698  14.379  44.741   9.174
 2348POPC   C1A33699  14.258   0.029   8.782
 2348POPC   D2A33700  14.299  44.794   8.397
 2348POPC   C3A33701  14.454  44.852   8.000
 2348POPC   C4A33702  14.178  44.845   7.709
 2348POPC   C1B33703  14.126  44.533   8.841
 2348POPC   C2B33704  14.000  44.375   8.415
 2348POPC   C3B33705  14.188  44.396   7.982
 2348POPC   C4B33706  14.588  44.431   7.734
 2349POPC   NC333707  15.804  25.620   9.465
 2349POPC   PO433708  16.069  26.142   9.672
 2349POPC   GL133709  15.949  26.095   9.200
 2349POPC   GL233710  15.995  25.753   9.033
 2349POPC   C1A33711  15.730  26.094   8.787
 2349POPC   D2A33712  15.827  25.854   8.437
 2349POPC   C3A33713  15.634  26.025   8.082
 2349POPC   C4A33714  15.900  26.027   7.749
 2349POPC   C1B33715  16.291  25.699   8.726
 2349POPC   C2B33716  16.507  25.974   8.427
 2349POPC   C3B33717  16.356  25.960   8.011
 2349POPC   C4B33718  16.354  25.542   7.829
 2350POPC   NC333719   7.610   3.878   9.539
 2350POPC   PO433720   7.222   3.296   9.538
 2350POPC   GL133721   7.464   3.479   9.226
 2350POPC   GL233722   7.214   3.741   9.211
 2350POPC   C1A33723   7.606   3.456   8.776
 2350POPC   D2A33724   7.540   3.382   8.325
 2350POPC   C3A33725   7.618   3.730   8.006
 2350POPC   C4A33726   7.524   3.842   7.558
 2350POPC   C1B33727   7.118   3.427   8.855
 2350POPC   C2B33728   6.973   3.383   8.426
 2350POPC   C3B33729   7.133   3.390   8.007
 2350POPC   C4B33730   7.449   3.354   7.688
 2351POPC   NC333731  42.583  44.559   9.382
 2351POPC   PO433732  42.180  44.999   9.574
 2351POPC   GL133733  42.241  44.903   9.164
 2351POPC   GL233734  42.561  44.986   9.062
 2351POPC   C1A33735  41.964  44.881   8.809
 2351POPC   D2A33736  41.984  44.741   8.371
 2351POPC   C3A33737  42.061   0.068   8.051
 2351POPC   C4A33738  42.230   0.027   7.629
 2351POPC   C1B33739  42.461  44.807   8.679
 2351POPC   C2B33740  42.529  44.940   8.256
 2351POPC   C3B33741  42.582  44.725   7.855
 2351POPC   C4B33742  42.584  44.281   7.701
 2352POPC   NC333743   7.195  36.806   9.643
 2352POPC   PO433744   7.620  37.221   9.772
 2352POPC   GL133745   7.278  37.162   9.301
 2352POPC   GL233746   6.939  37.066   9.289
 2352POPC   C1A33747   7.398  36.974   8.859
 2352POPC   D2A33748   7.621  36.825   8.489
 2352POPC   C3A33749   7.513  36.984   8.065
 2352POPC   C4A33750   7.710  36.745   7.729
 2352POPC   C1B33751   6.946  36.771   8.937
 2352POPC   C2B33752   7.066  36.840   8.482
 2352POPC   C3B33753   7.027  36.764   8.031
 2352POPC   C4B33754   7.225  36.824   7.626
 2353POPC   NC333755  23.838   5.786   9.812
 2353POPC   PO433756  23.433   6.007   9.338
 2353POPC   GL133757  23.743   5.808   9.106
 2353POPC   GL233758  23.899   6.161   9.105
 2353POPC   C1A33759  23.608   5.596   8.697
 2353POPC   D2A33760  23.371   5.789   8.347
 2353POPC   C3A33761  23.604   5.793   7.955
 2353POPC   C4A33762  23.985   5.569   7.878
 2353POPC   C1B33763  23.718   6.121   8.689
 2353POPC   C2B33764  23.921   5.974   8.314
 2353POPC   C3B33765  24.001   6.111   7.884
 2353POPC   C4B33766  24.177   6.218   7.466
 2354POPC   NC333767  30.398  34.462   9.494
 2354POPC   PO433768  30.974  34.699   9.474
 2354POPC   GL133769  30.743  34.636   9.135
 2354POPC   GL233770  30.721  34.337   9.117
 2354POPC   C1A33771  30.802  34.604   8.710
 2354POPC   D2A33772  30.650  34.849   8.433
 2354POPC   C3A33773  30.620  34.652   8.080
 2354POPC   C4A33774  30.583  34.716   7.650
 2354POPC   C1B33775  30.512  34.197   8.827
 2354POPC   C2B33776  30.542  34.236   8.396
 2354POPC   C3B33777  30.358  34.195   8.005
 2354POPC   C4B33778  30.322  34.266   7.578
 2355POPC   NC333779  14.861  25.930   9.588
 2355POPC   PO433780  15.478  25.937   9.406
 2355POPC   GL133781  15.107  25.965   9.161
 2355POPC   GL233782  14.934  26.297   9.222
 2355POPC   C1A33783  14.996  25.854   8.788
 2355POPC   D2A33784  15.301  25.978   8.504
 2355POPC   C3A33785  15.096  25.985   8.152
 2355POPC   C4A33786  15.238  25.824   7.793
 2355POPC   C1B33787  15.063  26.352   8.775
 2355POPC   C2B33788  15.154  26.484   8.356
 2355POPC   C3B33789  15.305  26.405   7.929
 2355POPC   C4B33790  14.936  26.255   7.733
 2356POPC   NC333791  17.112  33.124   9.356
 2356POPC   PO433792  16.531  32.727   9.468
 2356POPC   GL133793  16.710  32.895   9.100
 2356POPC   GL233794  17.055  32.770   9.005
 2356POPC   C1A33795  16.495  32.973   8.728
 2356POPC   D2A33796  16.646  33.132   8.356
 2356POPC   C3A33797  16.707  32.812   8.103
 2356POPC   C4A33798  16.587  32.936   7.721
 2356POPC   C1B33799  17.050  33.036   8.666
 2356POPC   C2B33800  17.144  33.254   8.285
 2356POPC   C3B33801  17.026  33.200   7.846
 2356POPC   C4B33802  16.974  33.132   7.385
 2357POPC   NC333803  25.643   0.550   9.499
 2357POPC   PO433804  26.279   0.447   9.528
 2357POPC   GL133805  26.161   0.386   9.115
 2357POPC   GL233806  25.960   0.660   9.105
 2357POPC   C1A33807  26.077   0.217   8.700
 2357POPC   D2A33808  26.048   0.422   8.314
 2357POPC   C3A33809  26.101   0.240   7.937
 2357POPC   C4A33810  26.312   0.437   7.581
 2357POPC   C1B33811  25.653   0.499   8.822
 2357POPC   C2B33812  25.559   0.330   8.438
 2357POPC   C3B33813  25.592   0.395   8.010
 2357POPC   C4B33814  25.837   0.623   7.707
 2358POPC   NC333815  35.102  19.661   9.457
 2358POPC   PO433816  35.775  19.740   9.456
 2358POPC   GL133817  35.535  20.019   9.158
 2358POPC   GL233818  35.251  19.829   9.017
 2358POPC   C1A33819  35.453  20.164   8.734
 2358POPC   D2A33820  35.117  19.924   8.475
 2358POPC   C3A33821  35.059  20.014   8.003
 2358POPC   C4A33822  35.268  19.991   7.574
 2358POPC   C1B33823  35.589  19.670   8.754
 2358POPC   C2B33824  35.467  19.574   8.341
 2358POPC   C3B33825  35.501  19.749   7.951
 2358POPC   C4B33826  35.488  19.527   7.567
 2359POPC   NC333827  30.886  44.401   9.755
 2359POPC   PO433828  30.466  44.876   9.812
 2359POPC   GL133829  30.575  44.589   9.367
 2359POPC   GL233830  30.809  44.392   9.240
 2359POPC   C1A33831  30.539  44.642   8.872
 2359POPC   D2A33832  30.333  44.811   8.495
 2359POPC   C3A33833  30.550  44.816   8.070
 2359POPC   C4A33834  30.978  44.754   7.886
 2359POPC   C1B33835  30.900  44.295   8.784
 2359POPC   C2B33836  30.690  44.442   8.410
 2359POPC   C3B33837  30.715  44.324   8.008
 2359POPC   C4B33838  30.372  44.356   7.729
 2360POPC   NC333839  12.251  29.864   9.507
 2360POPC   PO433840  11.564  29.832   9.589
 2360POPC   GL133841  11.836  30.032   9.225
 2360POPC   GL233842  11.997  29.721   9.077
 2360POPC   C1A33843  11.989  30.244   8.827
 2360POPC   D2A33844  12.130  30.247   8.392
 2360POPC   C3A33845  11.953  30.179   7.955
 2360POPC   C4A33846  11.953  29.834   7.609
 2360POPC   C1B33847  12.318  29.830   8.774
 2360POPC   C2B33848  12.482  29.874   8.357
 2360POPC   C3B33849  12.353  29.802   7.935
 2360POPC   C4B33850  12.500  29.833   7.504
 2361POPC   NC333851  15.672  11.405   9.599
 2361POPC   PO433852  16.251  11.061   9.804
 2361POPC   GL133853  16.034  11.118   9.365
 2361POPC   GL233854  16.102  11.463   9.278
 2361POPC   C1A33855  15.757  11.210   8.969
 2361POPC   D2A33856  15.592  11.472   8.618
 2361POPC   C3A33857  15.561  11.233   8.234
 2361POPC   C4A33858  15.624  11.296   7.776
 2361POPC   C1B33859  16.232  11.370   8.859
 2361POPC   C2B33860  16.084  11.375   8.442
 2361POPC   C3B33861  16.266  11.315   8.051
 2361POPC   C4B33862  16.095  11.153   7.694
 2362POPC   NC333863  33.889  18.420   9.403
 2362POPC   PO433864  33.550  17.888   9.636
 2362POPC   GL133865  33.729  17.970   9.185
 2362POPC   GL233866  34.085  18.074   9.080
 2362POPC   C1A33867  33.678  18.179   8.763
 2362POPC   D2A33868  33.856  18.116   8.378
 2362POPC   C3A33869  33.644  18.178   7.978
 2362POPC   C4A33870  33.820  17.998   7.605
 2362POPC   C1B33871  34.112  18.468   8.773
 2362POPC   C2B33872  33.993  18.609   8.342
 2362POPC   C3B33873  34.137  18.365   7.967
 2362POPC   C4B33874  34.187  18.334   7.493
 2363POPC   NC333875  12.754  16.727   9.505
 2363POPC   PO433876  13.365  16.835   9.249
 2363POPC   GL133877  12.964  16.727   9.020
 2363POPC   GL233878  12.635  16.530   9.046
 2363POPC   C1A33879  12.896  16.645   8.594
 2363POPC   D2A33880  13.031  16.571   8.200
 2363POPC   C3A33881  12.898  16.850   7.920
 2363POPC   C4A33882  12.879  16.725   7.496
 2363POPC   C1B33883  12.428  16.472   8.656
 2363POPC   C2B33884  12.441  16.642   8.221
 2363POPC   C3B33885  12.554  16.466   7.803
 2363POPC   C4B33886  12.488  16.508   7.306
 2364POPC   NC333887  42.085   8.146   9.389
 2364POPC   PO433888  42.698   7.836   9.412
 2364POPC   GL133889  42.439   7.925   9.065
 2364POPC   GL233890  42.424   8.288   9.023
 2364POPC   C1A33891  42.070   7.864   8.796
 2364POPC   D2A33892  41.950   7.907   8.350
 2364POPC   C3A33893  42.276   7.937   8.046
 2364POPC   C4A33894  42.380   8.048   7.604
 2364POPC   C1B33895  42.102   8.365   8.695
 2364POPC   C2B33896  42.198   8.392   8.271
 2364POPC   C3B33897  42.080   8.371   7.851
 2364POPC   C4B33898  42.190   8.541   7.436
 2365POPC   NC333899  32.756  43.512   9.461
 2365POPC   PO433900  33.005  44.078   9.625
 2365POPC   GL133901  32.889  44.152   9.190
 2365POPC   GL233902  32.533  44.176   9.216
 2365POPC   C1A33903  33.053  44.109   8.743
 2365POPC   D2A33904  32.941  43.813   8.397
 2365POPC   C3A33905  33.201  43.748   8.012
 2365POPC   C4A33906  33.236  43.915   7.618
 2365POPC   C1B33907  32.559  43.954   8.810
 2365POPC   C2B33908  32.509  44.101   8.371
 2365POPC   C3B33909  32.505  43.851   7.991
 2365POPC   C4B33910  32.762  43.621   7.681
 2366POPC   NC333911  42.573   9.003   9.430
 2366POPC   PO433912  42.015   8.594   9.304
 2366POPC   GL133913  42.306   8.801   9.054
 2366POPC   GL233914  42.277   9.181   9.054
 2366POPC   C1A33915  42.390   8.788   8.652
 2366POPC   D2A33916  42.027   8.862   8.416
 2366POPC   C3A33917  42.172   8.848   8.023
 2366POPC   C4A33918  42.523   8.606   7.879
 2366POPC   C1B33919  42.325   9.297   8.634
 2366POPC   C2B33920  42.563   9.117   8.287
 2366POPC   C3B33921  42.481   9.205   7.871
 2366POPC   C4B33922  42.088   9.341   7.696
 2367POPC   NC333923  28.600  33.890   9.371
 2367POPC   PO433924  28.066  33.569   9.539
 2367POPC   GL133925  28.178  33.721   9.123
 2367POPC   GL233926  28.485  33.516   9.037
 2367POPC   C1A33927  28.181  34.048   8.781
 2367POPC   D2A33928  27.977  34.109   8.375
 2367POPC   C3A33929  28.075  33.744   8.125
 2367POPC   C4A33930  28.355  33.654   7.786
 2367POPC   C1B33931  28.554  33.708   8.667
 2367POPC   C2B33932  28.613  34.097   8.478
 2367POPC   C3B33933  28.475  34.115   8.070
 2367POPC   C4B33934  28.764  33.971   7.729
 2368POPC   NC333935  30.809   8.547   9.525
 2368POPC   PO433936  30.998   9.215   9.476
 2368POPC   GL133937  30.995   9.036   9.104
 2368POPC   GL233938  30.705   8.851   9.138
 2368POPC   C1A33939  30.882   9.073   8.704
 2368POPC   D2A33940  30.497   9.042   8.462
 2368POPC   C3A33941  30.624   8.970   8.110
 2368POPC   C4A33942  30.842   9.244   7.827
 2368POPC   C1B33943  30.532   8.656   8.783
 2368POPC   C2B33944  30.451   8.514   8.354
 2368POPC   C3B33945  30.494   8.506   7.922
 2368POPC   C4B33946  30.379   8.878   7.693
 2369POPC   NC333947  17.484   5.645   9.570
 2369POPC   PO433948  17.156   6.324   9.503
 2369POPC   GL133949  17.387   6.019   9.231
 2369POPC   GL233950  17.139   5.750   9.174
 2369POPC   C1A33951  17.513   5.801   8.842
 2369POPC   D2A33952  17.658   5.820   8.444
 2369POPC   C3A33953  17.488   5.980   8.087
 2369POPC   C4A33954  17.413   5.742   7.730
 2369POPC   C1B33955  17.084   6.076   8.826
 2369POPC   C2B33956  17.093   6.037   8.396
 2369POPC   C3B33957  16.993   5.930   7.954
 2369POPC   C4B33958  17.018   6.073   7.505
 2370POPC   NC333959   5.504   5.007   9.521
 2370POPC   PO433960   6.115   5.310   9.669
 2370POPC   GL133961   6.000   5.028   9.321
 2370POPC   GL233962   5.768   5.205   9.154
 2370POPC   C1A33963   6.057   4.937   8.852
 2370POPC   D2A33964   6.193   5.186   8.500
 2370POPC   C3A33965   6.024   5.199   8.085
 2370POPC   C4A33966   6.000   5.134   7.650
 2370POPC   C1B33967   5.554   4.992   8.854
 2370POPC   C2B33968   5.673   4.995   8.430
 2370POPC   C3B33969   5.622   4.904   8.002
 2370POPC   C4B33970   5.558   4.902   7.573
 2371POPC   NC333971  18.581  22.958   9.512
 2371POPC   PO433972  17.956  22.656   9.516
 2371POPC   GL133973  18.163  22.903   9.082
 2371POPC   GL233974  18.151  23.267   9.031
 2371POPC   C1A33975  18.317  22.956   8.661
 2371POPC   D2A33976  18.209  22.977   8.254
 2371POPC   C3A33977  18.368  22.800   7.884
 2371POPC   C4A33978  18.057  22.489   7.722
 2371POPC   C1B33979  18.522  23.391   8.808
 2371POPC   C2B33980  18.684  23.225   8.413
 2371POPC   C3B33981  18.486  23.337   8.030
 2371POPC   C4B33982  18.482  23.356   7.594
 2372POPC   NC333983   6.653  13.343   9.430
 2372POPC   PO433984   6.630  14.010   9.344
 2372POPC   GL133985   6.741  13.670   9.047
 2372POPC   GL233986   6.987  13.402   9.080
 2372POPC   C1A33987   6.663  13.406   8.695
 2372POPC   D2A33988   6.603  13.590   8.322
 2372POPC   C3A33989   6.475  13.450   7.924
 2372POPC   C4A33990   6.415  13.729   7.552
 2372POPC   C1B33991   7.167  13.385   8.707
 2372POPC   C2B33992   7.031  13.293   8.315
 2372POPC   C3B33993   7.069  13.450   7.918
 2372POPC   C4B33994   6.844  13.448   7.554
 2373POPC   NC333995   3.349  33.095   9.655
 2373POPC   PO433996   4.018  32.865   9.585
 2373POPC   GL133997   3.726  33.037   9.262
 2373POPC   GL233998   3.411  33.125   9.169
 2373POPC   C1A33999   3.815  33.086   8.831
 2373POPC   D2A34000   3.774  33.112   8.393
 2373POPC   C3A34001   3.667  32.953   7.967
 2373POPC   C4A34002   3.804  33.176   7.597
 2373POPC   C1B34003   3.327  32.838   8.884
 2373POPC   C2B34004   3.304  32.915   8.460
 2373POPC   C3B34005   3.329  33.281   8.174
 2373POPC   C4B34006   3.288  33.231   7.716
 2374POPC   NC334007  17.089  13.409   9.688
 2374POPC   PO434008  16.576  13.570   9.309
 2374POPC   GL134009  16.719  13.418   9.035
 2374POPC   GL234010  16.527  13.122   9.060
 2374POPC   C1A34011  16.691  13.655   8.651
 2374POPC   D2A34012  16.615  13.816   8.249
 2374POPC   C3A34013  16.776  13.597   7.887
 2374POPC   C4A34014  17.044  13.418   7.536
 2374POPC   C1B34015  16.706  13.151   8.630
 2374POPC   C2B34016  16.739  13.245   8.259
 2374POPC   C3B34017  16.801  13.100   7.868
 2374POPC   C4B34018  16.561  13.312   7.514
 2375POPC   NC334019   1.046   8.072   9.297
 2375POPC   PO434020   1.229   8.697   9.561
 2375POPC   GL134021   1.331   8.539   9.164
 2375POPC   GL234022   1.061   8.630   8.951
 2375POPC   C1A34023   1.451   8.303   8.794
 2375POPC   D2A34024   1.390   8.115   8.396
 2375POPC   C3A34025   1.364   8.363   7.988
 2375POPC   C4A34026   1.120   8.024   7.807
 2375POPC   C1B34027   0.932   8.318   8.659
 2375POPC   C2B34028   0.932   8.285   8.231
 2375POPC   C3B34029   0.838   8.464   7.820
 2375POPC   C4B34030   0.851   8.667   7.402
 2376POPC   NC334031  44.881   2.975   9.621
 2376POPC   PO434032  44.361   2.552   9.447
 2376POPC   GL134033  44.468   2.864   9.106
 2376POPC   GL234034  44.809   2.964   9.115
 2376POPC   C1A34035  44.333   2.809   8.679
 2376POPC   D2A34036  44.487   2.469   8.411
 2376POPC   C3A34037  44.705   2.507   8.002
 2376POPC   C4A34038  44.607   2.882   7.778
 2376POPC   C1B34039  44.865   2.776   8.693
 2376POPC   C2B34040   0.018   2.791   8.260
 2376POPC   C3B34041   0.104   2.797   7.782
 2376POPC   C4B34042   0.043   2.917   7.301
 2377POPC   NC334043  37.088  42.392   9.682
 2377POPC   PO434044  36.464  42.331   9.432
 2377POPC   GL134045  36.823  42.503   9.237
 2377POPC   GL234046  36.967  42.177   9.206
 2377POPC   C1A34047  37.038  42.529   8.813
 2377POPC   D2A34048  36.922  42.530   8.394
 2377POPC   C3A34049  37.153  42.443   8.018
 2377POPC   C4A34050  36.788  42.557   7.826
 2377POPC   C1B34051  37.110  42.020   8.776
 2377POPC   C2B34052  37.101  42.024   8.299
 2377POPC   C3B34053  37.107  41.910   7.832
 2377POPC   C4B34054  36.988  41.856   7.368
 2378POPC   NC334055  29.293  35.281   9.398
 2378POPC   PO434056  29.025  35.773   9.502
 2378POPC   GL134057  28.905  35.493   9.115
 2378POPC   GL234058  28.940  35.107   9.072
 2378POPC   C1A34059  28.787  35.354   8.656
 2378POPC   D2A34060  28.741  35.342   8.193
 2378POPC   C3A34061  29.018  35.577   7.972
 2378POPC   C4A34062  29.388  35.654   7.753
 2378POPC   C1B34063  29.278  35.331   8.757
 2378POPC   C2B34064  29.388  35.443   8.324
 2378POPC   C3B34065  29.405  35.179   7.985
 2378POPC   C4B34066  29.015  35.088   7.844
 2379POPC   NC334067  34.052   8.812   9.553
 2379POPC   PO434068  33.527   9.173   9.553
 2379POPC   GL134069  33.621   8.952   9.134
 2379POPC   GL234070  33.881   8.701   9.080
 2379POPC   C1A34071  33.507   8.834   8.702
 2379POPC   D2A34072  33.604   8.980   8.290
 2379POPC   C3A34073  33.546   8.811   7.863
 2379POPC   C4A34074  33.604   9.071   7.505
 2379POPC   C1B34075  34.012   8.912   8.692
 2379POPC   C2B34076  34.129   9.105   8.269
 2379POPC   C3B34077  34.027   9.002   7.822
 2379POPC   C4B34078  34.317   8.779   7.506
 2380POPC   NC334079  10.982  16.288   9.463
 2380POPC   PO434080  11.204  16.983   9.700
 2380POPC   GL134081  11.100  16.784   9.256
 2380POPC   GL234082  11.409  16.698   9.100
 2380POPC   C1A34083  11.154  16.974   8.790
 2380POPC   D2A34084  11.169  17.126   8.343
 2380POPC   C3A34085  11.278  16.863   7.991
 2380POPC   C4A34086  11.133  16.471   7.868
 2380POPC   C1B34087  11.560  16.586   8.719
 2380POPC   C2B34088  11.449  16.461   8.296
 2380POPC   C3B34089  11.628  16.405   7.887
 2380POPC   C4B34090  11.447  16.341   7.462
 2381POPC   NC334091  42.817  41.105   9.803
 2381POPC   PO434092  42.176  41.057   9.478
 2381POPC   GL134093  41.974  40.915   9.125
 2381POPC   GL234094  42.221  41.080   8.942
 2381POPC   C1A34095  41.987  40.701   8.701
 2381POPC   D2A34096  42.221  40.759   8.303
 2381POPC   C3A34097  42.080  40.675   7.878
 2381POPC   C4A34098  42.442  40.519   7.633
 2381POPC   C1B34099  42.552  40.943   8.657
 2381POPC   C2B34100  42.780  40.979   8.259
 2381POPC   C3B34101  42.466  40.996   7.924
 2381POPC   C4B34102  42.333  41.196   7.573
 2382POPC   NC334103  29.473  11.617   9.867
 2382POPC   PO434104  29.773  11.167   9.516
 2382POPC   GL134105  29.970  11.229   9.113
 2382POPC   GL234106  29.684  11.039   8.896
 2382POPC   C1A34107  29.931  11.436   8.722
 2382POPC   D2A34108  29.729  11.238   8.398
 2382POPC   C3A34109  29.868  11.296   8.020
 2382POPC   C4A34110  29.881  11.453   7.625
 2382POPC   C1B34111  30.043  10.906   8.657
 2382POPC   C2B34112  30.075  10.855   8.221
 2382POPC   C3B34113  29.988  10.847   7.776
 2382POPC   C4B34114  30.122  11.061   7.396
 2383POPC   NC334115  12.271   3.829   9.551
 2383POPC   PO434116  11.932   4.427   9.514
 2383POPC   GL134117  12.086   4.145   9.187
 2383POPC   GL234118  11.837   3.967   8.997
 2383POPC   C1A34119  12.242   4.225   8.769
 2383POPC   D2A34120  12.036   4.380   8.401
 2383POPC   C3A34121  12.142   4.369   7.990
 2383POPC   C4A34122  11.805   4.144   7.772
 2383POPC   C1B34123  11.769   4.423   8.846
 2383POPC   C2B34124  11.665   4.700   8.481
 2383POPC   C3B34125  11.673   4.569   8.053
 2383POPC   C4B34126  11.534   4.742   7.680
 2384POPC   NC334127  34.322  16.461   9.413
 2384POPC   PO434128  34.569  15.855   9.574
 2384POPC   GL134129  34.684  15.816   9.143
 2384POPC   GL234130  34.809  16.129   9.140
 2384POPC   C1A34131  34.522  15.973   8.741
 2384POPC   D2A34132  34.243  15.932   8.395
 2384POPC   C3A34133  34.463  15.808   8.024
 2384POPC   C4A34134  34.298  15.730   7.636
 2384POPC   C1B34135  34.985  16.294   8.768
 2384POPC   C2B34136  35.031  16.291   8.316
 2384POPC   C3B34137  34.977  16.287   7.857
 2384POPC   C4B34138  34.709  16.041   7.604
 2385POPC   NC334139   2.449   4.569   9.424
 2385POPC   PO434140   2.378   3.985   9.230
 2385POPC   GL134141   2.668   4.274   9.075
 2385POPC   GL234142   2.970   4.485   9.186
 2385POPC   C1A34143   2.546   4.477   8.700
 2385POPC   D2A34144   2.758   4.471   8.337
 2385POPC   C3A34145   2.530   4.401   7.956
 2385POPC   C4A34146   2.585   4.646   7.589
 2385POPC   C1B34147   3.266   4.619   8.831
 2385POPC   C2B34148   3.196   4.768   8.389
 2385POPC   C3B34149   3.022   4.667   7.954
 2385POPC   C4B34150   3.118   4.641   7.518
 2386POPC   NC334151   3.790   4.115   9.487
 2386POPC   PO434152   4.398   4.152   9.612
 2386POPC   GL134153   4.336   4.373   9.220
 2386POPC   GL234154   3.987   4.456   9.159
 2386POPC   C1A34155   4.438   4.474   8.764
 2386POPC   D2A34156   4.510   4.363   8.321
 2386POPC   C3A34157   4.402   4.507   7.928
 2386POPC   C4A34158   4.475   4.135   7.701
 2386POPC   C1B34159   4.060   4.114   8.885
 2386POPC   C2B34160   4.058   4.236   8.491
 2386POPC   C3B34161   3.915   4.233   8.100
 2386POPC   C4B34162   3.979   4.274   7.688
 2387POPC   NC334163  28.035  31.604   9.537
 2387POPC   PO434164  28.538  31.116   9.578
 2387POPC   GL134165  28.425  31.362   9.242
 2387POPC   GL234166  28.095  31.277   9.160
 2387POPC   C1A34167  28.380  31.655   8.907
 2387POPC   D2A34168  28.409  31.497   8.502
 2387POPC   C3A34169  28.171  31.625   8.162
 2387POPC   C4A34170  28.355  31.829   7.814
 2387POPC   C1B34171  28.171  31.136   8.795
 2387POPC   C2B34172  27.999  31.138   8.389
 2387POPC   C3B34173  28.154  31.061   7.987
 2387POPC   C4B34174  28.340  31.330   7.705
 2388POPC   NC334175  31.894   6.724   9.617
 2388POPC   PO434176  32.415   7.032   9.450
 2388POPC   GL134177  32.326   6.887   9.108
 2388POPC   GL234178  32.176   6.581   9.164
 2388POPC   C1A34179  32.155   6.931   8.744
 2388POPC   D2A34180  32.149   6.724   8.394
 2388POPC   C3A34181  31.991   6.981   8.124
 2388POPC   C4A34182  32.060   6.982   7.692
 2388POPC   C1B34183  31.985   6.393   8.786
 2388POPC   C2B34184  31.845   6.324   8.363
 2388POPC   C3B34185  32.083   6.364   7.988
 2388POPC   C4B34186  31.884   6.223   7.607
 2389POPC   NC334187  26.898  42.007   9.491
 2389POPC   PO434188  26.832  41.396   9.345
 2389POPC   GL134189  26.785  41.756   9.057
 2389POPC   GL234190  27.097  41.959   9.032
 2389POPC   C1A34191  26.692  41.868   8.629
 2389POPC   D2A34192  26.992  41.907   8.273
 2389POPC   C3A34193  26.917  41.725   7.852
 2389POPC   C4A34194  26.583  41.817   7.557
 2389POPC   C1B34195  27.146  41.654   8.696
 2389POPC   C2B34196  26.850  41.429   8.401
 2389POPC   C3B34197  26.933  41.239   8.012
 2389POPC   C4B34198  27.256  41.356   7.700
 2390POPC   NC334199  37.483   7.846   9.487
 2390POPC   PO434200  37.792   8.462   9.472
 2390POPC   GL134201  37.732   8.279   9.111
 2390POPC   GL234202  37.883   7.994   9.195
 2390POPC   C1A34203  37.645   8.388   8.704
 2390POPC   D2A34204  37.845   8.295   8.329
 2390POPC   C3A34205  37.600   8.315   7.973
 2390POPC   C4A34206  37.436   8.297   7.537
 2390POPC   C1B34207  37.843   7.897   8.748
 2390POPC   C2B34208  38.093   7.869   8.398
 2390POPC   C3B34209  37.881   7.882   8.002
 2390POPC   C4B34210  37.913   8.079   7.612
 2391POPC   NC334211   1.481  20.926   9.490
 2391POPC   PO434212   1.102  20.366   9.546
 2391POPC   GL134213   0.948  20.661   9.233
 2391POPC   GL234214   1.273  20.741   9.066
 2391POPC   C1A34215   0.848  20.750   8.792
 2391POPC   D2A34216   1.111  20.781   8.425
 2391POPC   C3A34217   1.016  20.615   8.043
 2391POPC   C4A34218   1.225  20.708   7.684
 2391POPC   C1B34219   1.257  20.401   8.766
 2391POPC   C2B34220   1.329  20.288   8.331
 2391POPC   C3B34221   1.404  20.224   7.913
 2391POPC   C4B34222   1.383  20.277   7.498
 2392POPC   NC334223   6.665  21.311   9.433
 2392POPC   PO434224   7.259  21.693   9.464
 2392POPC   GL134225   7.032  21.560   9.097
 2392POPC   GL234226   6.699  21.718   9.107
 2392POPC   C1A34227   6.971  21.174   8.842
 2392POPC   D2A34228   7.038  20.828   8.532
 2392POPC   C3A34229   6.887  20.967   8.123
 2392POPC   C4A34230   7.004  21.051   7.667
 2392POPC   C1B34231   6.621  21.549   8.703
 2392POPC   C2B34232   6.550  21.443   8.279
 2392POPC   C3B34233   6.381  21.592   7.909
 2392POPC   C4B34234   6.573  21.595   7.567
 2393POPC   NC334235  13.653  41.431   9.628
 2393POPC   PO434236  13.237  41.824   9.463
 2393POPC   GL134237  13.466  41.750   9.058
 2393POPC   GL234238  13.722  41.481   9.128
 2393POPC   C1A34239  13.527  41.869   8.586
 2393POPC   D2A34240  13.517  41.570   8.208
 2393POPC   C3A34241  13.440  41.682   7.789
 2393POPC   C4A34242  13.641  41.444   7.451
 2393POPC   C1B34243  13.944  41.710   8.824
 2393POPC   C2B34244  13.998  41.718   8.358
 2393POPC   C3B34245  13.928  41.717   7.892
 2393POPC   C4B34246  13.888  41.884   7.462
 2394POPC   NC334247   5.658   9.066   9.511
 2394POPC   PO434248   6.213   8.714   9.471
 2394POPC   GL134249   5.964   8.848   9.152
 2394POPC   GL234250   5.977   9.187   9.150
 2394POPC   C1A34251   5.740   8.912   8.790
 2394POPC   D2A34252   5.681   8.714   8.402
 2394POPC   C3A34253   5.682   8.910   8.004
 2394POPC   C4A34254   6.002   8.828   7.718
 2394POPC   C1B34255   5.864   9.421   8.828
 2394POPC   C2B34256   5.798   9.245   8.418
 2394POPC   C3B34257   5.970   9.364   8.067
 2394POPC   C4B34258   5.874   9.337   7.678
 2395POPC   NC334259   7.824  39.681   9.436
 2395POPC   PO434260   7.380  40.102   9.592
 2395POPC   GL134261   7.345  40.191   9.154
 2395POPC   GL234262   7.690  40.120   9.146
 2395POPC   C1A34263   7.290  40.063   8.696
 2395POPC   D2A34264   7.196  39.822   8.297
 2395POPC   C3A34265   7.208  39.947   7.857
 2395POPC   C4A34266   7.461  40.222   7.615
 2395POPC   C1B34267   7.791  39.876   8.792
 2395POPC   C2B34268   7.818  40.111   8.421
 2395POPC   C3B34269   7.710  40.020   8.023
 2395POPC   C4B34270   7.912  39.762   7.758
 2396POPC   NC334271  20.322  34.215   9.651
 2396POPC   PO434272  20.602  34.807   9.513
 2396POPC   GL134273  20.641  34.433   9.275
 2396POPC   GL234274  20.504  34.670   9.027
 2396POPC   C1A34275  20.706  34.234   8.877
 2396POPC   D2A34276  20.777  34.432   8.472
 2396POPC   C3A34277  20.736  34.323   8.050
 2396POPC   C4A34278  20.625  34.614   7.730
 2396POPC   C1B34279  20.514  34.867   8.628
 2396POPC   C2B34280  20.543  34.818   8.193
 2396POPC   C3B34281  20.417  35.073   7.860
 2396POPC   C4B34282  20.351  34.901   7.417
 2397POPC   NC334283  32.969  16.914   9.239
 2397POPC   PO434284  32.431  16.957   9.695
 2397POPC   GL134285  32.400  16.840   9.239
 2397POPC   GL234286  32.131  16.618   9.146
 2397POPC   C1A34287  32.379  16.923   8.790
 2397POPC   D2A34288  32.159  16.997   8.411
 2397POPC   C3A34289  32.329  16.849   8.027
 2397POPC   C4A34290  32.457  16.764   7.616
 2397POPC   C1B34291  32.026  16.371   8.796
 2397POPC   C2B34292  32.164  16.475   8.370
 2397POPC   C3B34293  32.035  16.350   7.936
 2397POPC   C4B34294  32.230  16.322   7.506
 2398POPC   NC334295  12.100  37.154   9.692
 2398POPC   PO434296  11.897  37.789   9.617
 2398POPC   GL134297  11.894  37.761   9.195
 2398POPC   GL234298  12.246  37.725   9.119
 2398POPC   C1A34299  11.752  37.631   8.790
 2398POPC   D2A34300  11.837  37.431   8.389
 2398POPC   C3A34301  11.668  37.662   8.032
 2398POPC   C4A34302  11.698  37.987   7.742
 2398POPC   C1B34303  12.267  37.624   8.673
 2398POPC   C2B34304  12.372  37.723   8.261
 2398POPC   C3B34305  12.181  37.588   7.925
 2398POPC   C4B34306  12.324  37.377   7.523
 2399POPC   NC334307  14.331  14.787   9.513
 2399POPC   PO434308  14.530  15.476   9.553
 2399POPC   GL134309  14.385  15.328   9.151
 2399POPC   GL234310  14.200  15.032   9.090
 2399POPC   C1A34311  14.285  15.345   8.710
 2399POPC   D2A34312  14.175  15.521   8.337
 2399POPC   C3A34313  14.465  15.333   8.085
 2399POPC   C4A34314  14.675  15.226   7.735
 2399POPC   C1B34315  14.011  14.924   8.675
 2399POPC   C2B34316  14.059  15.047   8.236
 2399POPC   C3B34317  14.049  15.300   7.819
 2399POPC   C4B34318  14.010  14.986   7.521
 2400POPC   NC334319   2.506  17.841   9.547
 2400POPC   PO434320   3.075  17.490   9.611
 2400POPC   GL134321   2.984  17.677   9.225
 2400POPC   GL234322   2.670  17.518   9.181
 2400POPC   C1A34323   2.973  17.565   8.774
 2400POPC   D2A34324   3.146  17.663   8.405
 2400POPC   C3A34325   2.973  17.519   8.028
 2400POPC   C4A34326   2.804  17.722   7.665
 2400POPC   C1B34327   2.514  17.778   8.816
 2400POPC   C2B34328   2.648  17.833   8.358
 2400POPC   C3B34329   2.416  17.929   7.947
 2400POPC   C4B34330   2.349  17.929   7.472
 2401POPC   NC334331  31.354  39.900   9.508
 2401POPC   PO434332  31.728  40.267   9.307
 2401POPC   GL134333  31.377  40.091   9.025
 2401POPC   GL234334  31.386  39.722   9.030
 2401POPC   C1A34335  31.260  39.943   8.587
 2401POPC   D2A34336  31.380  39.794   8.153
 2401POPC   C3A34337  31.325  40.077   7.800
 2401POPC   C4A34338  31.634  40.208   7.461
 2401POPC   C1B34339  31.743  39.869   8.738
 2401POPC   C2B34340  31.937  39.887   8.325
 2401POPC   C3B34341  31.832  39.974   7.909
 2401POPC   C4B34342  31.647  39.694   7.662
 2402POPC   NC334343  17.410  38.689   9.757
 2402POPC   PO434344  17.747  38.628   9.386
 2402POPC   GL134345  17.695  38.261   9.067
 2402POPC   GL234346  17.375  38.106   8.914
 2402POPC   C1A34347  17.776  38.095   8.632
 2402POPC   D2A34348  17.570  38.199   8.213
 2402POPC   C3A34349  17.820  38.360   7.851
 2402POPC   C4A34350  17.682  38.709   7.604
 2402POPC   C1B34351  17.424  38.464   8.642
 2402POPC   C2B34352  17.221  38.632   8.274
 2402POPC   C3B34353  17.256  38.530   7.834
 2402POPC   C4B34354  17.041  38.426   7.436
 2403POPC   NC334355  36.315  21.913   9.525
 2403POPC   PO434356  35.706  21.581   9.630
 2403POPC   GL134357  35.848  21.950   9.290
 2403POPC   GL234358  36.085  21.813   9.100
 2403POPC   C1A34359  36.037  22.302   8.960
 2403POPC   D2A34360  35.962  22.552   8.567
 2403POPC   C3A34361  35.916  22.345   8.155
 2403POPC   C4A34362  35.962  22.498   7.740
 2403POPC   C1B34363  35.832  21.860   8.796
 2403POPC   C2B34364  36.007  21.897   8.405
 2403POPC   C3B34365  36.114  21.875   7.972
 2403POPC   C4B34366  35.963  22.011   7.543
 2404POPC   NC334367  39.947  34.170   9.444
 2404POPC   PO434368  39.648  33.500   9.411
 2404POPC   GL134369  39.710  33.808   9.072
 2404POPC   GL234370  39.946  34.115   8.956
 2404POPC   C1A34371  39.905  33.689   8.698
 2404POPC   D2A34372  40.167  33.494   8.395
 2404POPC   C3A34373  40.130  33.806   8.074
 2404POPC   C4A34374  39.721  33.787   7.904
 2404POPC   C1B34375  39.614  34.190   8.699
 2404POPC   C2B34376  39.537  34.363   8.292
 2404POPC   C3B34377  39.744  34.315   7.881
 2404POPC   C4B34378  40.177  34.423   7.715
 2405POPC   NC334379  41.511  15.425   9.560
 2405POPC   PO434380  41.311  14.730   9.478
 2405POPC   GL134381  41.408  15.073   9.166
 2405POPC   GL234382  41.711  15.063   9.091
 2405POPC   C1A34383  41.468  14.974   8.682
 2405POPC   D2A34384  41.743  14.784   8.339
 2405POPC   C3A34385  41.591  14.958   7.930
 2405POPC   C4A34386  41.419  15.271   7.606
 2405POPC   C1B34387  41.932  15.220   8.725
 2405POPC   C2B34388  41.914  15.269   8.266
 2405POPC   C3B34389  41.952  15.326   7.809
 2405POPC   C4B34390  41.854  15.490   7.379
 2406POPC   NC334391  18.991  10.812   9.439
 2406POPC   PO434392  19.573  10.487   9.503
 2406POPC   GL134393  19.373  10.668   9.126
 2406POPC   GL234394  19.464  10.406   8.981
 2406POPC   C1A34395  18.982  10.544   8.831
 2406POPC   D2A34396  18.875  10.459   8.362
 2406POPC   C3A34397  19.186  10.565   8.015
 2406POPC   C4A34398  19.082  10.724   7.537
 2406POPC   C1B34399  19.387  10.471   8.561
 2406POPC   C2B34400  19.288  10.128   8.338
 2406POPC   C3B34401  19.073  10.063   7.981
 2406POPC   C4B34402  19.218  10.255   7.578
 2407POPC   NC334403  35.932   0.583   9.422
 2407POPC   PO434404  35.300   0.311   9.514
 2407POPC   GL134405  35.493   0.404   9.202
 2407POPC   GL234406  35.502   0.114   9.072
 2407POPC   C1A34407  35.258   0.476   8.826
 2407POPC   D2A34408  35.112   0.517   8.417
 2407POPC   C3A34409  35.379   0.697   8.125
 2407POPC   C4A34410  35.315   0.555   7.726
 2407POPC   C1B34411  35.796   0.267   8.813
 2407POPC   C2B34412  35.646   0.389   8.452
 2407POPC   C3B34413  35.460   0.190   8.091
 2407POPC   C4B34414  35.623   0.166   7.684
 2408POPC   NC334415   4.271  31.802   9.517
 2408POPC   PO434416   4.670  31.276   9.527
 2408POPC   GL134417   4.406  31.212   9.148
 2408POPC   GL234418   4.324  31.537   9.098
 2408POPC   C1A34419   4.313  31.240   8.688
 2408POPC   D2A34420   4.084  31.361   8.318
 2408POPC   C3A34421   4.321  31.435   7.992
 2408POPC   C4A34422   4.447  31.117   7.735
 2408POPC   C1B34423   4.191  31.737   8.743
 2408POPC   C2B34424   4.237  31.838   8.337
 2408POPC   C3B34425   4.013  31.866   7.973
 2408POPC   C4B34426   4.220  31.782   7.619
 2409POPC   NC334427  25.026   4.299   9.761
 2409POPC   PO434428  24.311   4.537   9.674
 2409POPC   GL134429  24.281   4.487   9.229
 2409POPC   GL234430  24.619   4.520   9.079
 2409POPC   C1A34431  24.247   4.308   8.807
 2409POPC   D2A34432  24.041   4.275   8.405
 2409POPC   C3A34433  24.253   4.335   8.008
 2409POPC   C4A34434  24.150   4.654   7.678
 2409POPC   C1B34435  24.980   4.548   8.845
 2409POPC   C2B34436  24.788   4.433   8.497
 2409POPC   C3B34437  24.869   4.402   8.082
 2409POPC   C4B34438  24.663   4.358   7.693
 2410POPC   NC334439  12.745  32.833   9.187
 2410POPC   PO434440  12.588  33.447   9.430
 2410POPC   GL134441  12.643  33.314   9.003
 2410POPC   GL234442  12.532  33.604   8.900
 2410POPC   C1A34443  12.551  33.086   8.570
 2410POPC   D2A34444  12.578  32.839   8.181
 2410POPC   C3A34445  12.938  32.805   7.867
 2410POPC   C4A34446  12.910  32.715   7.396
 2410POPC   C1B34447  12.742  33.557   8.525
 2410POPC   C2B34448  12.813  33.360   8.115
 2410POPC   C3B34449  12.666  33.235   7.715
 2410POPC   C4B34450  12.344  33.474   7.499
 2411POPC   NC334451  19.451  10.026   9.357
 2411POPC   PO434452  18.750   9.922   9.448
 2411POPC   GL134453  18.815   9.812   9.076
 2411POPC   GL234454  19.053  10.081   9.013
 2411POPC   C1A34455  19.128   9.618   8.826
 2411POPC   D2A34456  19.414   9.678   8.549
 2411POPC   C3A34457  19.380   9.640   8.087
 2411POPC   C4A34458  19.314   9.767   7.641
 2411POPC   C1B34459  18.859   9.993   8.603
 2411POPC   C2B34460  18.877   9.638   8.319
 2411POPC   C3B34461  18.854   9.616   7.866
 2411POPC   C4B34462  18.748   9.940   7.573
 2412POPC   NC334463  31.373  29.235   9.613
 2412POPC   PO434464  31.858  29.630   9.277
 2412POPC   GL134465  31.618  29.303   9.036
 2412POPC   GL234466  31.464  28.997   9.163
 2412POPC   C1A34467  31.607  29.081   8.632
 2412POPC   D2A34468  31.424  29.137   8.224
 2412POPC   C3A34469  31.624  29.242   7.882
 2412POPC   C4A34470  31.444  29.231   7.471
 2412POPC   C1B34471  31.192  28.844   8.805
 2412POPC   C2B34472  30.977  28.867   8.384
 2412POPC   C3B34473  31.079  28.856   7.968
 2412POPC   C4B34474  31.448  28.785   7.746
 2413POPC   NC334475  40.740  41.523   9.724
 2413POPC   PO434476  41.278  41.484   9.381
 2413POPC   GL134477  40.840  41.480   9.195
 2413POPC   GL234478  40.563  41.713   9.076
 2413POPC   C1A34479  40.680  41.320   8.780
 2413POPC   D2A34480  40.951  41.223   8.431
 2413POPC   C3A34481  40.796  41.354   8.012
 2413POPC   C4A34482  40.463  41.645   7.827
 2413POPC   C1B34483  40.900  41.791   8.778
 2413POPC   C2B34484  40.931  41.720   8.354
 2413POPC   C3B34485  40.961  41.812   7.920
 2413POPC   C4B34486  40.765  41.952   7.540
 2414POPC   NC334487   1.062  40.295   9.577
 2414POPC   PO434488   1.327  39.812   9.421
 2414POPC   GL134489   1.241  40.176   9.104
 2414POPC   GL234490   0.913  40.394   9.105
 2414POPC   C1A34491   1.370  40.361   8.701
 2414POPC   D2A34492   1.589  40.277   8.304
 2414POPC   C3A34493   1.314  40.139   7.961
 2414POPC   C4A34494   1.095  40.337   7.619
 2414POPC   C1B34495   0.899  40.178   8.702
 2414POPC   C2B34496   0.904  40.328   8.267
 2414POPC   C3B34497   0.705  40.173   7.879
 2414POPC   C4B34498   0.678  40.058   7.420
 2415POPC   NC334499   6.199  15.323   9.237
 2415POPC   PO434500   5.497  15.139   9.370
 2415POPC   GL134501   5.743  15.231   9.043
 2415POPC   GL234502   5.956  14.926   9.052
 2415POPC   C1A34503   5.718  15.062   8.623
 2415POPC   D2A34504   5.913  14.934   8.240
 2415POPC   C3A34505   5.961  15.340   8.003
 2415POPC   C4A34506   5.577  15.493   7.754
 2415POPC   C1B34507   6.230  15.017   8.673
 2415POPC   C2B34508   6.421  14.874   8.285
 2415POPC   C3B34509   6.266  14.905   7.866
 2415POPC   C4B34510   5.888  15.004   7.637
 2416POPC   NC334511  13.360  36.108   9.499
 2416POPC   PO434512  14.002  36.288   9.494
 2416POPC   GL134513  13.824  36.183   9.058
 2416POPC   GL234514  13.497  36.038   9.023
 2416POPC   C1A34515  13.744  36.071   8.595
 2416POPC   D2A34516  13.475  36.090   8.224
 2416POPC   C3A34517  13.735  36.083   7.900
 2416POPC   C4A34518  13.789  35.874   7.486
 2416POPC   C1B34519  13.252  36.170   8.688
 2416POPC   C2B34520  13.140  36.452   8.346
 2416POPC   C3B34521  13.125  36.351   7.899
 2416POPC   C4B34522  13.349  36.102   7.588
 2417POPC   NC334523  16.251  10.679   9.504
 2417POPC   PO434524  15.560  10.779   9.455
 2417POPC   GL134525  15.858  10.625   9.167
 2417POPC   GL234526  16.224  10.457   9.061
 2417POPC   C1A34527  15.817  10.425   8.793
 2417POPC   D2A34528  16.103  10.320   8.491
 2417POPC   C3A34529  15.921  10.425   8.129
 2417POPC   C4A34530  15.747  10.284   7.768
 2417POPC   C1B34531  16.171  10.846   8.843
 2417POPC   C2B34532  15.858  10.913   8.552
 2417POPC   C3B34533  15.944  10.931   8.138
 2417POPC   C4B34534  15.692  10.790   7.828
 2418POPC   NC334535   4.842  36.610   9.510
 2418POPC   PO434536   5.120  37.243   9.345
 2418POPC   GL134537   5.258  36.981   9.040
 2418POPC   GL234538   5.240  36.660   9.187
 2418POPC   C1A34539   5.249  36.956   8.593
 2418POPC   D2A34540   5.428  36.774   8.255
 2418POPC   C3A34541   5.230  36.899   7.890
 2418POPC   C4A34542   5.216  36.950   7.446
 2418POPC   C1B34543   4.991  36.585   8.818
 2418POPC   C2B34544   4.783  36.713   8.439
 2418POPC   C3B34545   4.847  36.601   8.032
 2418POPC   C4B34546   4.916  36.579   7.619
 2419POPC   NC334547  37.552  30.408   9.442
 2419POPC   PO434548  38.144  30.778   9.427
 2419POPC   GL134549  37.808  30.770   9.159
 2419POPC   GL234550  37.538  30.952   9.335
 2419POPC   C1A34551  37.753  30.645   8.709
 2419POPC   D2A34552  37.457  30.617   8.377
 2419POPC   C3A34553  37.596  30.528   7.967
 2419POPC   C4A34554  37.440  30.179   7.704
 2419POPC   C1B34555  37.356  30.861   8.907
 2419POPC   C2B34556  37.429  31.117   8.530
 2419POPC   C3B34557  37.439  31.057   8.080
 2419POPC   C4B34558  37.349  30.878   7.668
 2420POPC   NC334559  21.017   0.238   9.315
 2420POPC   PO434560  20.580   0.662   9.576
 2420POPC   GL134561  20.491   0.541   9.138
 2420POPC   GL234562  20.601   0.220   9.045
 2420POPC   C1A34563  20.654   0.570   8.702
 2420POPC   D2A34564  20.446   0.477   8.352
 2420POPC   C3A34565  20.654   0.596   7.999
 2420POPC   C4A34566  20.312   0.493   7.763
 2420POPC   C1B34567  20.821   0.058   8.677
 2420POPC   C2B34568  20.834   0.166   8.244
 2420POPC   C3B34569  20.679   0.108   7.822
 2420POPC   C4B34570  20.664  44.971   7.382
 2421POPC   NC334571  11.478  27.733   9.988
 2421POPC   PO434572  12.078  27.566   9.629
 2421POPC   GL134573  12.235  27.618   9.216
 2421POPC   GL234574  12.288  27.275   9.181
 2421POPC   C1A34575  12.051  27.502   8.805
 2421POPC   D2A34576  11.788  27.646   8.463
 2421POPC   C3A34577  11.832  27.493   8.045
 2421POPC   C4A34578  12.017  27.613   7.663
 2421POPC   C1B34579  12.537  27.355   8.838
 2421POPC   C2B34580  12.535  27.341   8.419
 2421POPC   C3B34581  12.347  27.405   8.043
 2421POPC   C4B34582  12.367  27.178   7.693
 2422POPC   NC334583  22.275   1.426   9.571
 2422POPC   PO434584  21.755   1.442   9.261
 2422POPC   GL134585  22.047   1.227   9.042
 2422POPC   GL234586  22.353   1.093   9.159
 2422POPC   C1A34587  22.043   1.352   8.616
 2422POPC   D2A34588  21.946   1.352   8.196
 2422POPC   C3A34589  22.252   1.263   7.922
 2422POPC   C4A34590  22.555   1.590   7.891
 2422POPC   C1B34591  22.497   1.166   8.754
 2422POPC   C2B34592  22.325   0.987   8.369
 2422POPC   C3B34593  22.509   0.656   8.119
 2422POPC   C4B34594  22.562   0.808   7.697
 2423POPC   NC334595  12.470  20.140   9.519
 2423POPC   PO434596  11.799  19.926   9.416
 2423POPC   GL134597  11.955  19.871   9.023
 2423POPC   GL234598  12.235  20.092   9.058
 2423POPC   C1A34599  11.900  19.588   8.670
 2423POPC   D2A34600  12.089  19.584   8.268
 2423POPC   C3A34601  11.876  19.802   7.942
 2423POPC   C4A34602  11.834  19.885   7.477
 2423POPC   C1B34603  12.232  19.988   8.606
 2423POPC   C2B34604  12.441  19.980   8.202
 2423POPC   C3B34605  12.374  20.299   7.921
 2423POPC   C4B34606  11.972  20.278   7.802
 2424POPC   NC334607  40.598  34.407   9.555
 2424POPC   PO434608  40.833  34.899   9.327
 2424POPC   GL134609  40.639  34.579   9.017
 2424POPC   GL234610  40.394  34.327   9.093
 2424POPC   C1A34611  40.640  34.402   8.561
 2424POPC   D2A34612  40.498  34.507   8.121
 2424POPC   C3A34613  40.825  34.624   7.822
 2424POPC   C4A34614  41.108  34.367   7.550
 2424POPC   C1B34615  40.782  34.080   8.935
 2424POPC   C2B34616  40.968  33.985   8.524
 2424POPC   C3B34617  40.937  34.089   8.061
 2424POPC   C4B34618  40.642  34.163   7.708
 2425POPC   NC334619   4.924   0.975   9.590
 2425POPC   PO434620   4.912   1.652   9.564
 2425POPC   GL134621   4.795   1.432   9.218
 2425POPC   GL234622   5.105   1.287   9.195
 2425POPC   C1A34623   4.754   1.313   8.777
 2425POPC   D2A34624   4.936   1.342   8.368
 2425POPC   C3A34625   4.701   1.132   8.030
 2425POPC   C4A34626   4.824   0.968   7.618
 2425POPC   C1B34627   5.299   1.128   8.829
 2425POPC   C2B34628   5.396   1.089   8.400
 2425POPC   C3B34629   5.248   1.144   7.983
 2425POPC   C4B34630   5.320   0.807   7.736
 2426POPC   NC334631  35.935  20.213   9.424
 2426POPC   PO434632  36.139  20.860   9.537
 2426POPC   GL134633  36.207  20.580   9.156
 2426POPC   GL234634  36.353  20.266   9.066
 2426POPC   C1A34635  36.323  20.662   8.694
 2426POPC   D2A34636  36.273  20.940   8.296
 2426POPC   C3A34637  36.493  20.951   7.895
 2426POPC   C4A34638  36.398  20.781   7.506
 2426POPC   C1B34639  35.954  20.331   8.778
 2426POPC   C2B34640  35.969  20.483   8.349
 2426POPC   C3B34641  36.073  20.620   7.906
 2426POPC   C4B34642  36.212  20.297   7.596
 2427POPC   NC334643  13.887   4.512   9.523
 2427POPC   PO434644  13.384   4.136   9.228
 2427POPC   GL134645  13.438   4.502   8.997
 2427POPC   GL234646  13.792   4.500   9.035
 2427POPC   C1A34647  13.382   4.437   8.551
 2427POPC   D2A34648  13.582   4.172   8.217
 2427POPC   C3A34649  13.504   4.323   7.787
 2427POPC   C4A34650  13.709   4.083   7.466
 2427POPC   C1B34651  13.912   4.359   8.643
 2427POPC   C2B34652  13.818   4.616   8.328
 2427POPC   C3B34653  13.910   4.571   7.947
 2427POPC   C4B34654  14.026   4.800   7.608
 2428POPC   NC334655  13.723  24.114   9.232
 2428POPC   PO434656  13.822  24.743   9.528
 2428POPC   GL134657  13.767  24.727   9.130
 2428POPC   GL234658  13.480  24.530   9.074
 2428POPC   C1A34659  13.704  24.839   8.716
 2428POPC   D2A34660  13.384  24.752   8.441
 2428POPC   C3A34661  13.606  24.678   8.104
 2428POPC   C4A34662  13.613  24.788   7.712
 2428POPC   C1B34663  13.287  24.317   8.723
 2428POPC   C2B34664  13.392  24.243   8.286
 2428POPC   C3B34665  13.243  24.396   7.876
 2428POPC   C4B34666  13.332  24.440   7.445
 2429POPC   NC334667   3.875   3.136   9.573
 2429POPC   PO434668   3.489   3.742   9.535
 2429POPC   GL134669   3.623   3.758   9.114
 2429POPC   GL234670   3.331   3.534   9.101
 2429POPC   C1A34671   3.534   3.643   8.665
 2429POPC   D2A34672   3.739   3.289   8.426
 2429POPC   C3A34673   3.760   3.420   8.002
 2429POPC   C4A34674   3.680   3.853   7.814
 2429POPC   C1B34675   3.277   3.134   8.914
 2429POPC   C2B34676   3.260   3.100   8.485
 2429POPC   C3B34677   3.274   3.496   8.244
 2429POPC   C4B34678   3.281   3.525   7.820
 2430POPC   NC334679  35.493  12.973   9.452
 2430POPC   PO434680  35.647  12.314   9.579
 2430POPC   GL134681  35.423  12.571   9.150
 2430POPC   GL234682  35.601  12.863   8.962
 2430POPC   C1A34683  35.133  12.754   8.802
 2430POPC   D2A34684  35.271  12.964   8.415
 2430POPC   C3A34685  35.125  12.797   8.024
 2430POPC   C4A34686  34.888  13.040   7.747
 2430POPC   C1B34687  35.539  12.503   8.655
 2430POPC   C2B34688  35.566  12.564   8.226
 2430POPC   C3B34689  35.632  12.876   7.929
 2430POPC   C4B34690  35.408  12.733   7.585
 2431POPC   NC334691  31.435   8.892   9.328
 2431POPC   PO434692  31.618   9.519   9.536
 2431POPC   GL134693  31.677   9.329   9.116
 2431POPC   GL234694  31.479   9.102   8.878
 2431POPC   C1A34695  31.775   9.465   8.693
 2431POPC   D2A34696  31.814   9.098   8.428
 2431POPC   C3A34697  31.724   9.116   7.989
 2431POPC   C4A34698  31.351   9.156   7.780
 2431POPC   C1B34699  31.357   8.757   8.622
 2431POPC   C2B34700  30.976   8.638   8.454
 2431POPC   C3B34701  31.112   8.901   8.148
 2431POPC   C4B34702  30.979   8.755   7.765
 2432POPC   NC334703  19.290  35.039   9.491
 2432POPC   PO434704  18.631  34.828   9.249
 2432POPC   GL134705  18.980  34.550   9.169
 2432POPC   GL234706  19.202  34.791   9.070
 2432POPC   C1A34707  19.145  34.365   8.811
 2432POPC   D2A34708  19.147  34.601   8.456
 2432POPC   C3A34709  19.358  34.414   8.155
 2432POPC   C4A34710  19.191  34.343   7.763
 2432POPC   C1B34711  19.353  34.987   8.728
 2432POPC   C2B34712  19.211  35.103   8.325
 2432POPC   C3B34713  19.128  34.831   7.985
 2432POPC   C4B34714  19.083  34.988   7.597
 2433POPC   NC334715  15.316  24.748   9.503
 2433POPC   PO434716  14.919  24.125   9.444
 2433POPC   GL134717  15.064  24.424   9.175
 2433POPC   GL234718  15.449  24.430   9.113
 2433POPC   C1A34719  15.043  24.325   8.776
 2433POPC   D2A34720  15.375  24.405   8.552
 2433POPC   C3A34721  15.373  24.134   8.203
 2433POPC   C4A34722  15.048  24.216   7.918
 2433POPC   C1B34723  15.586  24.796   8.864
 2433POPC   C2B34724  15.494  24.934   8.442
 2433POPC   C3B34725  15.554  24.624   8.140
 2433POPC   C4B34726  15.578  24.449   7.769
 2434POPC   NC334727  18.453  12.034   9.603
 2434POPC   PO434728  17.828  12.259   9.615
 2434POPC   GL134729  18.114  12.042   9.232
 2434POPC   GL234730  18.359  12.303   9.168
 2434POPC   C1A34731  18.287  11.915   8.811
 2434POPC   D2A34732  18.366  11.677   8.405
 2434POPC   C3A34733  18.137  11.802   8.033
 2434POPC   C4A34734  18.248  11.858   7.604
 2434POPC   C1B34735  18.300  12.424   8.743
 2434POPC   C2B34736  18.224  12.193   8.371
 2434POPC   C3B34737  18.366  12.273   7.951
 2434POPC   C4B34738  18.303  12.379   7.513
 2435POPC   NC334739  13.000  10.519   9.302
 2435POPC   PO434740  12.507  10.067   9.555
 2435POPC   GL134741  12.633  10.227   9.166
 2435POPC   GL234742  12.544  10.601   9.093
 2435POPC   C1A34743  12.817  10.218   8.736
 2435POPC   D2A34744  12.716  10.371   8.324
 2435POPC   C3A34745  13.036  10.382   8.034
 2435POPC   C4A34746  12.972  10.444   7.608
 2435POPC   C1B34747  12.755  10.735   8.706
 2435POPC   C2B34748  12.668  10.901   8.307
 2435POPC   C3B34749  12.672  10.814   7.861
 2435POPC   C4B34750  12.744  10.854   7.398
 2436POPC   NC334751  13.449  13.838   9.531
 2436POPC   PO434752  13.855  13.388   9.607
 2436POPC   GL134753  13.625  13.360   9.173
 2436POPC   GL234754  13.562  13.689   9.063
 2436POPC   C1A34755  13.590  13.358   8.667
 2436POPC   D2A34756  13.415  13.705   8.394
 2436POPC   C3A34757  13.575  13.718   7.942
 2436POPC   C4A34758  13.789  13.678   7.525
 2436POPC   C1B34759  13.860  13.785   8.745
 2436POPC   C2B34760  13.931  13.678   8.303
 2436POPC   C3B34761  14.083  13.867   7.913
 2436POPC   C4B34762  14.183  13.989   7.461
 2437POPC   NC334763  34.122  15.600   9.553
 2437POPC   PO434764  33.724  16.154   9.395
 2437POPC   GL134765  33.829  15.782   9.157
 2437POPC   GL234766  34.176  15.895   9.117
 2437POPC   C1A34767  33.857  15.749   8.714
 2437POPC   D2A34768  33.637  16.084   8.498
 2437POPC   C3A34769  33.597  16.043   8.080
 2437POPC   C4A34770  33.829  15.738   7.835
 2437POPC   C1B34771  34.035  16.213   8.796
 2437POPC   C2B34772  34.029  16.395   8.360
 2437POPC   C3B34773  34.107  16.178   7.937
 2437POPC   C4B34774  34.154  16.210   7.457
 2438POPC   NC334775   3.700  34.801   9.620
 2438POPC   PO434776   3.550  34.228   9.469
 2438POPC   GL134777   3.743  34.491   9.143
 2438POPC   GL234778   3.774  34.889   9.130
 2438POPC   C1A34779   3.657  34.396   8.714
 2438POPC   D2A34780   3.578  34.347   8.256
 2438POPC   C3A34781   3.780  34.595   7.952
 2438POPC   C4A34782   3.637  34.699   7.540
 2438POPC   C1B34783   3.980  34.811   8.748
 2438POPC   C2B34784   3.695  34.821   8.413
 2438POPC   C3B34785   3.602  35.083   8.070
 2438POPC   C4B34786   3.911  35.069   7.785
 2439POPC   NC334787  18.106  23.945   9.589
 2439POPC   PO434788  18.357  23.358   9.532
 2439POPC   GL134789  18.310  23.733   9.174
 2439POPC   GL234790  17.993  23.966   9.079
 2439POPC   C1A34791  18.403  23.889   8.763
 2439POPC   D2A34792  18.564  23.736   8.366
 2439POPC   C3A34793  18.507  23.846   7.921
 2439POPC   C4A34794  18.717  23.805   7.523
 2439POPC   C1B34795  17.964  23.653   8.752
 2439POPC   C2B34796  18.144  23.457   8.434
 2439POPC   C3B34797  18.034  23.628   8.042
 2439POPC   C4B34798  18.050  23.719   7.616
 2440POPC   NC334799  14.363   6.493   9.499
 2440POPC   PO434800  14.073   7.069   9.224
 2440POPC   GL134801  14.184   6.682   9.024
 2440POPC   GL234802  14.513   6.562   9.026
 2440POPC   C1A34803  14.157   6.621   8.597
 2440POPC   D2A34804  14.384   6.789   8.255
 2440POPC   C3A34805  14.409   6.501   7.934
 2440POPC   C4A34806  14.212   6.519   7.580
 2440POPC   C1B34807  14.655   6.764   8.691
 2440POPC   C2B34808  14.880   6.913   8.328
 2440POPC   C3B34809  14.778   6.830   7.899
 2440POPC   C4B34810  14.561   6.933   7.539
 2441POPC   NC334811  26.149  16.360   9.421
 2441POPC   PO434812  26.441  15.760   9.470
 2441POPC   GL134813  26.206  15.971   9.098
 2441POPC   GL234814  25.827  15.985   9.099
 2441POPC   C1A34815  26.062  16.224   8.726
 2441POPC   D2A34816  25.882  16.090   8.343
 2441POPC   C3A34817  26.117  16.024   7.976
 2441POPC   C4A34818  26.345  16.213   7.647
 2441POPC   C1B34819  25.529  16.125   8.734
 2441POPC   C2B34820  25.393  16.140   8.261
 2441POPC   C3B34821  25.598  15.960   7.868
 2441POPC   C4B34822  25.514  15.900   7.386
 2442POPC   NC334823  31.070  34.227   9.459
 2442POPC   PO434824  31.698  34.499   9.366
 2442POPC   GL134825  31.613  34.600   9.000
 2442POPC   GL234826  31.246  34.493   9.036
 2442POPC   C1A34827  31.829  34.624   8.629
 2442POPC   D2A34828  31.678  34.428   8.282
 2442POPC   C3A34829  31.505  34.764   8.105
 2442POPC   C4A34830  31.714  34.930   7.801
 2442POPC   C1B34831  31.296  34.588   8.608
 2442POPC   C2B34832  31.078  34.386   8.313
 2442POPC   C3B34833  31.272  34.333   7.967
 2442POPC   C4B34834  31.080  34.717   7.819
 2443POPC   NC334835  14.969  29.331   9.589
 2443POPC   PO434836  15.306  28.757   9.679
 2443POPC   GL134837  15.199  28.980   9.268
 2443POPC   GL234838  15.283  29.295   9.171
 2443POPC   C1A34839  14.904  29.052   8.888
 2443POPC   D2A34840  14.715  28.836   8.522
 2443POPC   C3A34841  15.019  28.880   8.177
 2443POPC   C4A34842  15.052  29.067   7.812
 2443POPC   C1B34843  15.163  29.484   8.796
 2443POPC   C2B34844  14.980  29.327   8.433
 2443POPC   C3B34845  15.091  29.510   8.034
 2443POPC   C4B34846  15.405  29.413   7.677
 2444POPC   NC334847   9.577   7.754   9.451
 2444POPC   PO434848   9.853   8.311   9.403
 2444POPC   GL134849   9.629   8.101   9.064
 2444POPC   GL234850   9.651   7.739   8.966
 2444POPC   C1A34851   9.658   8.232   8.653
 2444POPC   D2A34852   9.821   8.483   8.345
 2444POPC   C3A34853   9.542   8.438   8.021
 2444POPC   C4A34854   9.626   8.433   7.603
 2444POPC   C1B34855   9.694   7.725   8.531
 2444POPC   C2B34856   9.507   7.945   8.198
 2444POPC   C3B34857   9.709   7.959   7.804
 2444POPC   C4B34858   9.850   7.930   7.396
 2445POPC   NC334859  40.374  20.394   9.559
 2445POPC   PO434860  40.998  20.776   9.383
 2445POPC   GL134861  40.958  20.455   9.047
 2445POPC   GL234862  40.624  20.377   9.085
 2445POPC   C1A34863  40.852  20.437   8.589
 2445POPC   D2A34864  40.484  20.316   8.337
 2445POPC   C3A34865  40.622  20.297   7.898
 2445POPC   C4A34866  40.994  20.489   7.715
 2445POPC   C1B34867  40.635  20.800   8.834
 2445POPC   C2B34868  40.876  20.962   8.497
 2445POPC   C3B34869  40.830  20.756   8.112
 2445POPC   C4B34870  40.584  20.819   7.704
 2446POPC   NC334871  14.889   5.958   9.476
 2446POPC   PO434872  15.554   5.644   9.565
 2446POPC   GL134873  15.403   5.930   9.259
 2446POPC   GL234874  15.190   5.635   9.199
 2446POPC   C1A34875  15.229   5.983   8.835
 2446POPC   D2A34876  15.261   6.116   8.404
 2446POPC   C3A34877  15.080   5.879   8.088
 2446POPC   C4A34878  14.963   5.914   7.698
 2446POPC   C1B34879  15.428   5.505   8.877
 2446POPC   C2B34880  15.287   5.576   8.475
 2446POPC   C3B34881  15.321   5.435   8.070
 2446POPC   C4B34882  15.139   5.434   7.689
 2447POPC   NC334883  37.541  34.761   9.533
 2447POPC   PO434884  37.876  34.261   9.559
 2447POPC   GL134885  37.677  34.413   9.184
 2447POPC   GL234886  37.856  34.756   9.138
 2447POPC   C1A34887  37.466  34.591   8.810
 2447POPC   D2A34888  37.291  34.449   8.397
 2447POPC   C3A34889  37.437  34.600   8.001
 2447POPC   C4A34890  37.384  34.328   7.630
 2447POPC   C1B34891  38.010  34.459   8.827
 2447POPC   C2B34892  37.798  34.436   8.443
 2447POPC   C3B34893  37.948  34.489   8.055
 2447POPC   C4B34894  37.883  34.602   7.666
 2448POPC   NC334895  12.674  40.583   9.508
 2448POPC   PO434896  12.475  41.185   9.569
 2448POPC   GL134897  12.573  41.132   9.136
 2448POPC   GL234898  12.863  40.938   9.177
 2448POPC   C1A34899  12.608  40.950   8.708
 2448POPC   D2A34900  12.496  40.846   8.259
 2448POPC   C3A34901  12.667  40.543   7.951
 2448POPC   C4A34902  12.894  40.435   7.564
 2448POPC   C1B34903  13.069  40.767   8.797
 2448POPC   C2B34904  12.975  40.663   8.345
 2448POPC   C3B34905  13.169  40.722   7.911
 2448POPC   C4B34906  13.436  41.060   7.722
 2449POPC   NC334907  11.044  30.382   9.406
 2449POPC   PO434908  11.521  30.822   9.450
 2449POPC   GL134909  11.367  30.631   9.095
 2449POPC   GL234910  11.003  30.752   9.078
 2449POPC   C1A34911  11.489  30.344   8.772
 2449POPC   D2A34912  11.311  30.305   8.335
 2449POPC   C3A34913  11.445  30.519   7.945
 2449POPC   C4A34914  11.538  30.249   7.635
 2449POPC   C1B34915  11.110  30.674   8.651
 2449POPC   C2B34916  11.097  30.819   8.238
 2449POPC   C3B34917  10.967  30.622   7.859
 2449POPC   C4B34918  11.119  30.531   7.449
 2450POPC   NC334919  34.714  17.880   9.574
 2450POPC   PO434920  34.381  18.472   9.415
 2450POPC   GL134921  34.718  18.283   9.179
 2450POPC   GL234922  34.929  17.977   9.114
 2450POPC   C1A34923  34.746  18.398   8.758
 2450POPC   D2A34924  34.481  18.431   8.392
 2450POPC   C3A34925  34.658  18.489   7.985
 2450POPC   C4A34926  34.689  18.332   7.557
 2450POPC   C1B34927  34.521  17.942   8.859
 2450POPC   C2B34928  34.356  17.897   8.447
 2450POPC   C3B34929  34.494  18.005   8.042
 2450POPC   C4B34930  34.378  17.892   7.654
 2451POPC   NC334931   9.256  13.861   9.455
 2451POPC   PO434932   9.016  13.293   9.488
 2451POPC   GL134933   8.936  13.608   9.128
 2451POPC   GL234934   9.139  13.885   8.983
 2451POPC   C1A34935   8.804  13.629   8.695
 2451POPC   D2A34936   8.968  13.588   8.279
 2451POPC   C3A34937   8.750  13.675   7.893
 2451POPC   C4A34938   8.982  13.570   7.503
 2451POPC   C1B34939   9.341  13.726   8.647
 2451POPC   C2B34940   9.441  13.914   8.255
 2451POPC   C3B34941   9.209  13.885   7.862
 2451POPC   C4B34942   9.219  13.997   7.406
 2452POPC   NC334943  41.439  30.344   9.321
 2452POPC   PO434944  41.400  30.984   9.516
 2452POPC   GL134945  41.421  30.825   9.126
 2452POPC   GL234946  41.773  30.803   9.181
 2452POPC   C1A34947  41.548  30.620   8.747
 2452POPC   D2A34948  41.656  30.295   8.447
 2452POPC   C3A34949  41.580  30.421   8.040
 2452POPC   C4A34950  41.247  30.654   7.811
 2452POPC   C1B34951  41.880  31.013   8.802
 2452POPC   C2B34952  41.780  30.900   8.391
 2452POPC   C3B34953  41.657  30.961   8.014
 2452POPC   C4B34954  41.724  30.748   7.675
 2453POPC   NC334955  17.942  23.134   9.459
 2453POPC   PO434956  17.297  22.890   9.662
 2453POPC   GL134957  17.364  23.000   9.219
 2453POPC   GL234958  17.666  22.892   9.072
 2453POPC   C1A34959  17.264  23.053   8.766
 2453POPC   D2A34960  17.163  22.908   8.320
 2453POPC   C3A34961  17.401  22.964   7.920
 2453POPC   C4A34962  17.742  22.854   7.602
 2453POPC   C1B34963  17.819  23.084   8.665
 2453POPC   C2B34964  17.765  23.210   8.193
 2453POPC   C3B34965  18.056  23.188   7.797
 2453POPC   C4B34966  18.005  23.301   7.314
 2454POPC   NC334967  26.681  19.915   9.578
 2454POPC   PO434968  27.361  19.769   9.545
 2454POPC   GL134969  27.080  19.719   9.200
 2454POPC   GL234970  26.854  19.995   9.125
 2454POPC   C1A34971  26.901  19.648   8.790
 2454POPC   D2A34972  26.710  19.649   8.405
 2454POPC   C3A34973  26.954  19.654   8.038
 2454POPC   C4A34974  26.707  19.589   7.678
 2454POPC   C1B34975  26.498  19.966   8.817
 2454POPC   C2B34976  26.316  19.974   8.394
 2454POPC   C3B34977  26.376  20.150   7.990
 2454POPC   C4B34978  26.797  20.096   7.794
 2455POPC   NC334979   3.286  37.351   9.623
 2455POPC   PO434980   3.708  36.802   9.467
 2455POPC   GL134981   3.628  36.997   9.117
 2455POPC   GL234982   3.296  37.030   9.184
 2455POPC   C1A34983   3.774  36.920   8.690
 2455POPC   D2A34984   3.865  36.717   8.280
 2455POPC   C3A34985   3.647  36.863   7.919
 2455POPC   C4A34986   3.470  36.779   7.514
 2455POPC   C1B34987   3.270  37.063   8.741
 2455POPC   C2B34988   3.398  37.010   8.316
 2455POPC   C3B34989   3.206  37.074   7.882
 2455POPC   C4B34990   3.207  37.202   7.447
 2456POPC   NC334991  14.620  33.628   9.381
 2456POPC   PO434992  14.094  34.083   9.533
 2456POPC   GL134993  14.317  34.007   9.172
 2456POPC   GL234994  14.161  33.658   9.162
 2456POPC   C1A34995  14.434  34.155   8.733
 2456POPC   D2A34996  14.364  33.970   8.303
 2456POPC   C3A34997  14.556  34.055   7.867
 2456POPC   C4A34998  14.648  34.075   7.374
 2456POPC   C1B34999  14.372  33.634   8.764
 2456POPC   C2B35000  14.491  33.467   8.369
 2456POPC   C3B35001  14.479  33.548   7.941
 2456POPC   C4B35002  14.180  33.380   7.653
 2457POPC   NC335003  12.671  34.679   9.521
 2457POPC   PO435004  13.379  34.780   9.582
 2457POPC   GL135005  13.118  34.643   9.251
 2457POPC   GL235006  13.247  34.354   9.145
 2457POPC   C1A35007  12.827  34.555   8.896
 2457POPC   D2A35008  12.754  34.536   8.461
 2457POPC   C3A35009  12.699  34.891   8.173
 2457POPC   C4A35010  12.564  34.781   7.758
 2457POPC   C1B35011  13.300  34.682   8.777
 2457POPC   C2B35012  13.184  34.795   8.341
 2457POPC   C3B35013  13.023  34.488   8.007
 2457POPC   C4B35014  13.033  34.527   7.562
 2458POPC   NC335015  44.396  44.557   9.560
 2458POPC   PO435016  44.721   0.083   9.767
 2458POPC   GL135017  44.750  44.767   9.263
 2458POPC   GL235018  44.359  44.664   9.075
 2458POPC   C1A35019  44.658  44.896   8.783
 2458POPC   D2A35020  44.638  44.736   8.401
 2458POPC   C3A35021  44.739   0.011   8.064
 2458POPC   C4A35022  44.587  44.871   7.695
 2458POPC   C1B35023  44.284  44.315   8.806
 2458POPC   C2B35024  44.434  44.213   8.403
 2458POPC   C3B35025  44.415  44.453   8.042
 2458POPC   C4B35026  44.447  44.236   7.724
 2459POPC   NC335027  23.125  33.032   9.549
 2459POPC   PO435028  22.462  33.135   9.678
 2459POPC   GL135029  22.693  33.212   9.267
 2459POPC   GL235030  22.830  32.927   9.098
 2459POPC   C1A35031  22.700  33.319   8.795
 2459POPC   D2A35032  22.590  33.185   8.343
 2459POPC   C3A35033  22.887  33.106   8.003
 2459POPC   C4A35034  22.927  33.362   7.662
 2459POPC   C1B35035  22.822  32.763   8.690
 2459POPC   C2B35036  22.887  32.596   8.294
 2459POPC   C3B35037  22.915  32.597   7.869
 2459POPC   C4B35038  23.157  32.849   7.616
 2460POPC   NC335039  36.546   7.508   9.648
 2460POPC   PO435040  36.790   6.972   9.322
 2460POPC   GL135041  36.779   7.195   9.013
 2460POPC   GL235042  36.717   7.498   9.145
 2460POPC   C1A35043  36.904   7.149   8.618
 2460POPC   D2A35044  36.718   7.182   8.228
 2460POPC   C3A35045  37.003   7.133   7.865
 2460POPC   C4A35046  36.946   7.375   7.473
 2460POPC   C1B35047  36.920   7.655   8.782
 2460POPC   C2B35048  37.045   7.594   8.356
 2460POPC   C3B35049  36.904   7.635   7.928
 2460POPC   C4B35050  36.619   7.987   7.803
 2461POPC   NC335051   3.267   4.902   9.520
 2461POPC   PO435052   3.728   5.260   9.566
 2461POPC   GL135053   3.487   5.193   9.186
 2461POPC   GL235054   3.645   4.875   9.085
 2461POPC   C1A35055   3.324   5.107   8.780
 2461POPC   D2A35056   3.665   5.059   8.499
 2461POPC   C3A35057   3.544   5.028   8.095
 2461POPC   C4A35058   3.539   4.844   7.686
 2461POPC   C1B35059   3.920   5.231   8.928
 2461POPC   C2B35060   4.123   5.320   8.549
 2461POPC   C3B35061   4.035   5.422   8.127
 2461POPC   C4B35062   3.892   5.236   7.755
 2462POPC   NC335063  40.380  30.502   9.711
 2462POPC   PO435064  39.684  30.431   9.428
 2462POPC   GL135065  39.958  30.660   9.170
 2462POPC   GL235066  39.647  30.668   8.964
 2462POPC   C1A35067  40.038  30.931   8.800
 2462POPC   D2A35068  39.867  30.776   8.405
 2462POPC   C3A35069  39.936  31.026   8.055
 2462POPC   C4A35070  39.920  31.036   7.640
 2462POPC   C1B35071  39.658  30.330   8.674
 2462POPC   C2B35072  39.543  30.340   8.228
 2462POPC   C3B35073  39.669  30.626   7.876
 2462POPC   C4B35074  39.443  30.973   7.651
 2463POPC   NC335075   0.077   8.244   9.477
 2463POPC   PO435076   0.771   8.433   9.371
 2463POPC   GL135077   0.489   8.164   9.177
 2463POPC   GL235078   0.577   7.818   9.213
 2463POPC   C1A35079   0.240   8.184   8.813
 2463POPC   D2A35080   0.434   8.216   8.402
 2463POPC   C3A35081   0.211   8.290   8.004
 2463POPC   C4A35082   0.367   8.407   7.585
 2463POPC   C1B35083   0.657   7.883   8.771
 2463POPC   C2B35084   0.772   7.790   8.346
 2463POPC   C3B35085   0.632   7.971   7.981
 2463POPC   C4B35086   0.391   7.921   7.672
 2464POPC   NC335087  16.898  22.862   9.412
 2464POPC   PO435088  16.895  23.489   9.254
 2464POPC   GL135089  16.737  23.126   9.009
 2464POPC   GL235090  16.414  23.011   9.148
 2464POPC   C1A35091  16.813  22.803   8.688
 2464POPC   D2A35092  16.657  23.029   8.299
 2464POPC   C3A35093  16.892  23.080   7.910
 2464POPC   C4A35094  17.001  22.716   7.661
 2464POPC   C1B35095  16.320  22.891   8.704
 2464POPC   C2B35096  16.430  22.564   8.380
 2464POPC   C3B35097  16.606  22.617   7.985
 2464POPC   C4B35098  16.476  22.873   7.664
 2465POPC   NC335099  21.089  34.314   9.531
 2465POPC   PO435100  21.342  34.909   9.584
 2465POPC   GL135101  21.469  34.609   9.253
 2465POPC   GL235102  21.147  34.492   9.074
 2465POPC   C1A35103  21.594  34.412   8.861
 2465POPC   D2A35104  21.312  34.440   8.519
 2465POPC   C3A35105  21.476  34.463   8.118
 2465POPC   C4A35106  21.338  34.287   7.728
 2465POPC   C1B35107  20.983  34.759   8.794
 2465POPC   C2B35108  21.049  34.880   8.351
 2465POPC   C3B35109  21.098  34.738   7.902
 2465POPC   C4B35110  21.044  34.622   7.435
 2466POPC   NC335111  20.054  35.825   9.476
 2466POPC   PO435112  19.514  35.462   9.480
 2466POPC   GL135113  19.730  35.249   9.130
 2466POPC   GL235114  19.995  35.494   9.062
 2466POPC   C1A35115  19.764  35.266   8.654
 2466POPC   D2A35116  19.618  35.436   8.260
 2466POPC   C3A35117  19.440  35.257   7.870
 2466POPC   C4A35118  19.541  35.211   7.418
 2466POPC   C1B35119  20.268  35.306   8.745
 2466POPC   C2B35120  20.172  35.174   8.326
 2466POPC   C3B35121  19.933  35.163   7.956
 2466POPC   C4B35122  20.053  35.286   7.565
 2467POPC   NC335123   1.014  24.865   9.862
 2467POPC   PO435124   1.065  25.487   9.974
 2467POPC   GL135125   1.129  25.326   9.434
 2467POPC   GL235126   1.399  25.167   9.266
 2467POPC   C1A35127   1.037  25.201   8.913
 2467POPC   D2A35128   0.848  25.263   8.492
 2467POPC   C3A35129   1.112  25.234   8.109
 2467POPC   C4A35130   0.940  25.199   7.715
 2467POPC   C1B35131   1.458  25.463   8.878
 2467POPC   C2B35132   1.491  25.437   8.397
 2467POPC   C3B35133   1.603  25.269   7.957
 2467POPC   C4B35134   1.894  25.064   7.659
 2468POPC   NC335135  32.386   5.381   9.526
 2468POPC   PO435136  32.174   4.722   9.547
 2468POPC   GL135137  32.057   4.795   9.138
 2468POPC   GL235138  32.113   5.151   9.158
 2468POPC   C1A35139  32.027   4.935   8.722
 2468POPC   D2A35140  32.127   4.740   8.396
 2468POPC   C3A35141  32.102   4.890   8.021
 2468POPC   C4A35142  32.329   4.965   7.696
 2468POPC   C1B35143  32.335   5.341   8.798
 2468POPC   C2B35144  32.266   5.257   8.359
 2468POPC   C3B35145  32.427   5.385   7.961
 2468POPC   C4B35146  32.298   5.582   7.554
 2469POPC   NC335147  34.431  34.923   9.469
 2469POPC   PO435148  34.777  34.389   9.587
 2469POPC   GL135149  34.735  34.496   9.153
 2469POPC   GL235150  34.905  34.161   9.076
 2469POPC   C1A35151  34.424  34.668   8.789
 2469POPC   D2A35152  34.227  34.918   8.410
 2469POPC   C3A35153  34.331  34.726   8.016
 2469POPC   C4A35154  34.274  34.564   7.602
 2469POPC   C1B35155  34.694  34.231   8.705
 2469POPC   C2B35156  34.566  34.382   8.317
 2469POPC   C3B35157  34.632  34.334   7.886
 2469POPC   C4B35158  34.778  34.679   7.621
 2470POPC   NC335159  30.660  36.326   9.548
 2470POPC   PO435160  30.619  35.677   9.445
 2470POPC   GL135161  30.627  36.015   9.156
 2470POPC   GL235162  30.944  36.091   9.140
 2470POPC   C1A35163  30.435  36.130   8.784
 2470POPC   D2A35164  30.495  36.014   8.376
 2470POPC   C3A35165  30.403  36.305   8.020
 2470POPC   C4A35166  30.690  36.355   7.687
 2470POPC   C1B35167  30.942  35.866   8.781
 2470POPC   C2B35168  31.004  35.968   8.382
 2470POPC   C3B35169  31.015  36.084   7.974
 2470POPC   C4B35170  30.941  35.922   7.601
 2471POPC   NC335171  13.549  32.661   9.470
 2471POPC   PO435172  14.071  32.301   9.292
 2471POPC   GL135173  13.654  32.280   9.125
 2471POPC   GL235174  13.520  31.932   9.151
 2471POPC   C1A35175  13.374  32.350   8.762
 2471POPC   D2A35176  13.316  32.136   8.373
 2471POPC   C3A35177  13.313  32.367   7.992
 2471POPC   C4A35178  13.715  32.416   7.810
 2471POPC   C1B35179  13.704  31.952   8.718
 2471POPC   C2B35180  13.838  32.095   8.294
 2471POPC   C3B35181  13.612  31.943   7.934
 2471POPC   C4B35182  13.671  31.677   7.601
 2472POPC   NC335183   5.962   2.429   9.895
 2472POPC   PO435184   5.724   2.062   9.375
 2472POPC   GL135185   5.812   2.212   9.027
 2472POPC   GL235186   5.447   2.251   8.963
 2472POPC   C1A35187   6.067   2.024   8.729
 2472POPC   D2A35188   6.102   2.204   8.379
 2472POPC   C3A35189   6.131   1.998   7.997
 2472POPC   C4A35190   5.976   2.147   7.622
 2472POPC   C1B35191   5.553   1.938   8.689
 2472POPC   C2B35192   5.734   1.847   8.301
 2472POPC   C3B35193   5.627   1.847   7.876
 2472POPC   C4B35194   5.441   1.538   7.629
 2473POPC   NC335195  43.134  27.998   9.334
 2473POPC   PO435196  43.310  28.670   9.143
 2473POPC   GL135197  42.943  28.519   8.964
 2473POPC   GL235198  43.044  28.172   8.878
 2473POPC   C1A35199  42.845  28.522   8.552
 2473POPC   D2A35200  43.012  28.180   8.354
 2473POPC   C3A35201  43.059  28.349   7.961
 2473POPC   C4A35202  43.358  28.650   7.793
 2473POPC   C1B35203  43.465  28.189   8.688
 2473POPC   C2B35204  43.612  28.445   8.332
 2473POPC   C3B35205  43.563  28.210   7.963
 2473POPC   C4B35206  43.288  28.098   7.591
 2474POPC   NC335207  43.918  14.711   9.355
 2474POPC   PO435208  43.685  15.334   9.297
 2474POPC   GL135209  43.818  15.070   9.007
 2474POPC   GL235210  44.133  15.096   9.072
 2474POPC   C1A35211  43.875  15.021   8.587
 2474POPC   D2A35212  43.580  15.135   8.283
 2474POPC   C3A35213  43.759  15.126   7.893
 2474POPC   C4A35214  43.848  14.752   7.696
 2474POPC   C1B35215  44.118  15.449   8.792
 2474POPC   C2B35216  43.956  15.489   8.377
 2474POPC   C3B35217  44.192  15.209   8.153
 2474POPC   C4B35218  44.282  15.036   7.755
 2475POPC   NC335219  44.471  26.523   9.494
 2475POPC   PO435220  44.906  27.049   9.518
 2475POPC   GL135221  44.509  26.986   9.206
 2475POPC   GL235222  44.338  26.622   9.037
 2475POPC   C1A35223  44.538  26.973   8.752
 2475POPC   D2A35224  44.898  26.787   8.571
 2475POPC   C3A35225  44.958  26.814   8.153
 2475POPC   C4A35226  44.962  26.969   7.779
 2475POPC   C1B35227  44.522  26.426   8.680
 2475POPC   C2B35228  44.505  26.512   8.247
 2475POPC   C3B35229  44.499  26.780   7.897
 2475POPC   C4B35230  44.292  26.700   7.508
 2476POPC   NC335231   7.134  22.194   9.438
 2476POPC   PO435232   6.514  22.347   9.329
 2476POPC   GL135233   6.630  22.204   8.983
 2476POPC   GL235234   6.929  22.313   8.979
 2476POPC   C1A35235   6.428  22.036   8.629
 2476POPC   D2A35236   6.469  21.967   8.215
 2476POPC   C3A35237   6.566  22.088   7.784
 2476POPC   C4A35238   6.956  21.941   7.669
 2476POPC   C1B35239   6.804  22.368   8.549
 2476POPC   C2B35240   6.561  22.479   8.212
 2476POPC   C3B35241   6.910  22.387   8.006
 2476POPC   C4B35242   7.123  22.424   7.685
 2477POPC   NC335243  10.095  28.188   9.813
 2477POPC   PO435244   9.553  28.504   9.467
 2477POPC   GL135245   9.830  28.544   9.118
 2477POPC   GL235246  10.182  28.685   9.148
 2477POPC   C1A35247   9.789  28.321   8.722
 2477POPC   D2A35248   9.780  28.475   8.312
 2477POPC   C3A35249   9.753  28.188   7.995
 2477POPC   C4A35250   9.834  28.006   7.626
 2477POPC   C1B35251  10.253  28.508   8.702
 2477POPC   C2B35252  10.283  28.550   8.245
 2477POPC   C3B35253  10.025  28.607   7.842
 2477POPC   C4B35254   9.951  28.732   7.384
 2478POPC   NC335255  31.758   8.243   9.444
 2478POPC   PO435256  31.161   8.552   9.190
 2478POPC   GL135257  31.538   8.441   8.998
 2478POPC   GL235258  31.467   8.123   9.035
 2478POPC   C1A35259  31.784   8.441   8.590
 2478POPC   D2A35260  31.662   8.655   8.201
 2478POPC   C3A35261  31.334   8.446   8.028
 2478POPC   C4A35262  31.451   8.148   7.748
 2478POPC   C1B35263  31.465   8.027   8.608
 2478POPC   C2B35264  31.589   7.905   8.197
 2478POPC   C3B35265  31.876   7.879   7.864
 2478POPC   C4B35266  31.806   7.803   7.416
 2479POPC   NC335267  37.116  31.307   9.474
 2479POPC   PO435268  36.474  31.200   9.412
 2479POPC   GL135269  36.651  31.483   9.067
 2479POPC   GL235270  37.007  31.567   9.052
 2479POPC   C1A35271  36.733  31.540   8.618
 2479POPC   D2A35272  36.998  31.359   8.281
 2479POPC   C3A35273  36.752  31.607   8.003
 2479POPC   C4A35274  36.391  31.511   7.783
 2479POPC   C1B35275  37.232  31.628   8.689
 2479POPC   C2B35276  37.127  31.843   8.353
 2479POPC   C3B35277  37.240  31.760   7.976
 2479POPC   C4B35278  37.077  31.760   7.599
 2480POPC   NC335279  25.470   3.319   9.677
 2480POPC   PO435280  25.020   3.799   9.628
 2480POPC   GL135281  25.048   3.651   9.197
 2480POPC   GL235282  24.829   3.357   9.105
 2480POPC   C1A35283  25.354   3.572   8.884
 2480POPC   D2A35284  25.403   3.745   8.462
 2480POPC   C3A35285  25.503   3.518   8.090
 2480POPC   C4A35286  25.294   3.327   7.714
 2480POPC   C1B35287  24.924   3.475   8.656
 2480POPC   C2B35288  25.005   3.462   8.201
 2480POPC   C3B35289  24.857   3.160   7.917
 2480POPC   C4B35290  24.688   3.253   7.551
 2481POPC   NC335291   5.055  41.284   9.543
 2481POPC   PO435292   4.994  41.936   9.725
 2481POPC   GL135293   5.260  41.692   9.250
 2481POPC   GL235294   5.229  41.353   9.085
 2481POPC   C1A35295   5.077  41.689   8.752
 2481POPC   D2A35296   5.251  41.559   8.323
 2481POPC   C3A35297   5.009  41.659   7.947
 2481POPC   C4A35298   5.075  41.897   7.559
 2481POPC   C1B35299   5.247  41.185   8.674
 2481POPC   C2B35300   5.106  41.047   8.268
 2481POPC   C3B35301   5.224  41.221   7.851
 2481POPC   C4B35302   5.347  41.464   7.450
 2482POPC   NC335303  39.949  27.164   9.293
 2482POPC   PO435304  40.101  27.849   9.453
 2482POPC   GL135305  39.933  27.651   9.089
 2482POPC   GL235306  40.246  27.483   9.029
 2482POPC   C1A35307  39.699  27.533   8.704
 2482POPC   D2A35308  39.607  27.482   8.257
 2482POPC   C3A35309  39.843  27.718   7.937
 2482POPC   C4A35310  39.822  27.644   7.464
 2482POPC   C1B35311  40.141  27.243   8.689
 2482POPC   C2B35312  40.112  27.504   8.376
 2482POPC   C3B35313  40.077  27.295   8.054
 2482POPC   C4B35314  40.187  27.382   7.708
 2483POPC   NC335315   0.148  30.658   9.490
 2483POPC   PO435316   0.789  30.919   9.632
 2483POPC   GL135317   0.572  30.822   9.230
 2483POPC   GL235318   0.231  31.005   9.138
 2483POPC   C1A35319   0.440  30.596   8.871
 2483POPC   D2A35320   0.406  30.680   8.443
 2483POPC   C3A35321   0.634  30.518   8.100
 2483POPC   C4A35322   0.361  30.459   7.757
 2483POPC   C1B35323   0.003  30.844   8.802
 2483POPC   C2B35324  44.899  30.677   8.424
 2483POPC   C3B35325   0.080  30.796   8.038
 2483POPC   C4B35326  44.912  30.963   7.665
 2484POPC   NC335327  17.673  35.184   9.529
 2484POPC   PO435328  17.192  35.561   9.750
 2484POPC   GL135329  17.324  35.374   9.211
 2484POPC   GL235330  17.601  35.390   9.071
 2484POPC   C1A35331  17.258  35.437   8.732
 2484POPC   D2A35332  17.428  35.577   8.320
 2484POPC   C3A35333  17.276  35.388   7.948
 2484POPC   C4A35334  17.298  35.507   7.539
 2484POPC   C1B35335  17.790  35.559   8.691
 2484POPC   C2B35336  17.924  35.465   8.267
 2484POPC   C3B35337  17.767  35.549   7.842
 2484POPC   C4B35338  17.771  35.591   7.368
 2485POPC   NC335339   9.853   3.285   9.546
 2485POPC   PO435340   9.608   3.905   9.489
 2485POPC   GL135341   9.923   3.721   9.260
 2485POPC   GL235342   9.702   3.460   9.098
 2485POPC   C1A35343  10.026   3.776   8.835
 2485POPC   D2A35344   9.783   3.526   8.558
 2485POPC   C3A35345   9.710   3.722   8.138
 2485POPC   C4A35346   9.985   3.598   7.770
 2485POPC   C1B35347   9.519   3.134   8.827
 2485POPC   C2B35348   9.665   3.034   8.455
 2485POPC   C3B35349   9.746   3.222   8.101
 2485POPC   C4B35350   9.549   3.069   7.762
 2486POPC   NC335351  37.098  29.203   9.469
 2486POPC   PO435352  36.473  28.974   9.432
 2486POPC   GL135353  36.810  28.969   9.123
 2486POPC   GL235354  37.136  28.775   9.147
 2486POPC   C1A35355  36.867  29.009   8.708
 2486POPC   D2A35356  36.745  29.239   8.350
 2486POPC   C3A35357  36.783  29.035   7.958
 2486POPC   C4A35358  36.759  29.368   7.691
 2486POPC   C1B35359  37.365  29.043   8.832
 2486POPC   C2B35360  37.257  29.104   8.379
 2486POPC   C3B35361  37.220  29.280   7.961
 2486POPC   C4B35362  37.183  29.236   7.461
 2487POPC   NC335363  38.714   2.692   9.458
 2487POPC   PO435364  38.100   2.483   9.333
 2487POPC   GL135365  38.296   2.811   9.156
 2487POPC   GL235366  38.594   2.788   8.970
 2487POPC   C1A35367  38.158   2.865   8.768
 2487POPC   D2A35368  38.394   2.846   8.430
 2487POPC   C3A35369  38.174   3.051   8.106
 2487POPC   C4A35370  38.145   2.856   7.704
 2487POPC   C1B35371  38.801   2.570   8.637
 2487POPC   C2B35372  38.890   2.765   8.251
 2487POPC   C3B35373  38.631   2.760   7.888
 2487POPC   C4B35374  38.824   2.620   7.506
 2488POPC   NC335375  29.463  42.541   9.955
 2488POPC   PO435376  29.013  42.333   9.578
 2488POPC   GL135377  29.260  42.467   9.246
 2488POPC   GL235378  29.063  42.213   9.086
 2488POPC   C1A35379  29.379  42.468   8.797
 2488POPC   D2A35380  29.090  42.464   8.439
 2488POPC   C3A35381  29.301  42.431   8.059
 2488POPC   C4A35382  29.167  42.507   7.661
 2488POPC   C1B35383  29.115  42.040   8.698
 2488POPC   C2B35384  29.437  42.062   8.393
 2488POPC   C3B35385  29.613  42.055   7.984
 2488POPC   C4B35386  29.622  42.236   7.609
 2489POPC   NC335387   8.352  32.217   9.403
 2489POPC   PO435388   7.652  32.122   9.518
 2489POPC   GL135389   7.943  32.057   9.103
 2489POPC   GL235390   8.091  32.402   9.003
 2489POPC   C1A35391   8.206  31.989   8.684
 2489POPC   D2A35392   8.098  31.985   8.226
 2489POPC   C3A35393   7.924  32.356   8.068
 2489POPC   C4A35394   7.942  32.405   7.643
 2489POPC   C1B35395   8.474  32.457   8.754
 2489POPC   C2B35396   8.590  32.592   8.334
 2489POPC   C3B35397   8.430  32.404   7.925
 2489POPC   C4B35398   8.275  32.013   7.709
 2490POPC   NC335399  26.203   3.891   9.513
 2490POPC   PO435400  25.668   4.316   9.603
 2490POPC   GL135401  25.891   4.369   9.247
 2490POPC   GL235402  25.857   4.048   9.169
 2490POPC   C1A35403  26.110   4.374   8.832
 2490POPC   D2A35404  26.161   4.574   8.431
 2490POPC   C3A35405  26.057   4.334   8.111
 2490POPC   C4A35406  26.161   4.357   7.717
 2490POPC   C1B35407  25.740   3.960   8.787
 2490POPC   C2B35408  25.903   3.909   8.381
 2490POPC   C3B35409  25.760   3.951   7.967
 2490POPC   C4B35410  25.721   4.155   7.610
 2491POPC   NC335411  41.795  10.275   9.665
 2491POPC   PO435412  41.258  10.422   9.315
 2491POPC   GL135413  41.332  10.632   8.962
 2491POPC   GL235414  41.198  10.976   9.117
 2491POPC   C1A35415  41.728  10.575   8.724
 2491POPC   D2A35416  41.977  10.648   8.359
 2491POPC   C3A35417  41.778  10.431   8.010
 2491POPC   C4A35418  41.645  10.211   7.643
 2491POPC   C1B35419  40.983  10.904   8.745
 2491POPC   C2B35420  41.261  10.689   8.424
 2491POPC   C3B35421  41.326  10.731   7.960
 2491POPC   C4B35422  41.141  10.420   7.662
 2492POPC   NC335423   8.808  35.081   9.919
 2492POPC   PO435424   8.688  35.290   9.321
 2492POPC   GL135425   8.982  35.278   9.025
 2492POPC   GL235426   9.218  35.601   8.989
 2492POPC   C1A35427   8.768  35.200   8.661
 2492POPC   D2A35428   8.600  35.465   8.385
 2492POPC   C3A35429   8.970  35.559   8.137
 2492POPC   C4A35430   8.786  35.258   7.915
 2492POPC   C1B35431   9.194  35.453   8.585
 2492POPC   C2B35432   9.149  35.073   8.298
 2492POPC   C3B35433   9.394  34.922   7.947
 2492POPC   C4B35434   9.249  35.259   7.686
 2493POPC   NC335435   7.142  29.984   9.452
 2493POPC   PO435436   7.590  30.353   9.770
 2493POPC   GL135437   7.684  30.315   9.287
 2493POPC   GL235438   7.583  29.982   9.173
 2493POPC   C1A35439   7.669  30.323   8.798
 2493POPC   D2A35440   7.628  30.027   8.422
 2493POPC   C3A35441   7.594  30.170   7.973
 2493POPC   C4A35442   7.280  30.161   7.638
 2493POPC   C1B35443   7.581  29.687   8.812
 2493POPC   C2B35444   7.567  29.511   8.355
 2493POPC   C3B35445   7.684  29.658   7.919
 2493POPC   C4B35446   7.643  29.841   7.493
 2494POPC   NC335447  23.868  15.408   9.728
 2494POPC   PO435448  23.239  15.451   9.708
 2494POPC   GL135449  23.560  15.597   9.355
 2494POPC   GL235450  23.931  15.554   9.251
 2494POPC   C1A35451  23.559  15.414   8.933
 2494POPC   D2A35452  23.676  15.157   8.581
 2494POPC   C3A35453  23.574  15.288   8.173
 2494POPC   C4A35454  23.726  15.429   7.795
 2494POPC   C1B35455  24.047  15.221   8.977
 2494POPC   C2B35456  24.178  15.226   8.560
 2494POPC   C3B35457  24.081  15.214   8.142
 2494POPC   C4B35458  24.032  14.894   7.824
 2495POPC   NC335459  30.506  18.138   9.357
 2495POPC   PO435460  31.098  18.355   9.464
 2495POPC   GL135461  30.901  18.301   9.051
 2495POPC   GL235462  30.641  18.530   9.084
 2495POPC   C1A35463  30.682  17.998   8.727
 2495POPC   D2A35464  30.524  17.829   8.312
 2495POPC   C3A35465  30.683  18.084   7.965
 2495POPC   C4A35466  31.090  18.096   7.865
 2495POPC   C1B35467  30.365  18.411   8.749
 2495POPC   C2B35468  30.473  18.349   8.345
 2495POPC   C3B35469  30.390  18.513   7.920
 2495POPC   C4B35470  30.345  18.348   7.477
 2496POPC   NC335471   1.893  41.020   9.451
 2496POPC   PO435472   2.301  40.517   9.514
 2496POPC   GL135473   2.320  40.753   9.111
 2496POPC   GL235474   2.070  40.980   8.994
 2496POPC   C1A35475   2.212  40.593   8.729
 2496POPC   D2A35476   2.039  40.524   8.378
 2496POPC   C3A35477   2.281  40.606   8.024
 2496POPC   C4A35478   2.108  40.592   7.640
 2496POPC   C1B35479   2.335  41.082   8.658
 2496POPC   C2B35480   2.140  41.083   8.264
 2496POPC   C3B35481   2.167  41.067   7.825
 2496POPC   C4B35482   2.259  41.000   7.387
 2497POPC   NC335483  17.972  26.023   9.525
 2497POPC   PO435484  18.666  26.048   9.666
 2497POPC   GL135485  18.430  26.042   9.244
 2497POPC   GL235486  18.153  26.158   9.076
 2497POPC   C1A35487  18.452  25.845   8.812
 2497POPC   D2A35488  18.260  25.639   8.462
 2497POPC   C3A35489  18.365  25.805   8.068
 2497POPC   C4A35490  18.242  25.850   7.674
 2497POPC   C1B35491  17.953  25.984   8.713
 2497POPC   C2B35492  18.015  26.144   8.273
 2497POPC   C3B35493  18.306  26.307   7.921
 2497POPC   C4B35494  18.249  26.341   7.454
 2498POPC   NC335495  32.640  42.529   9.602
 2498POPC   PO435496  33.143  42.313   9.617
 2498POPC   GL135497  32.982  42.342   9.178
 2498POPC   GL235498  32.628  42.282   9.143
 2498POPC   C1A35499  33.029  42.498   8.724
 2498POPC   D2A35500  32.870  42.661   8.305
 2498POPC   C3A35501  33.142  42.683   7.932
 2498POPC   C4A35502  33.144  42.638   7.482
 2498POPC   C1B35503  32.773  42.050   8.765
 2498POPC   C2B35504  32.942  42.148   8.329
 2498POPC   C3B35505  32.842  42.278   7.889
 2498POPC   C4B35506  32.874  42.181   7.436
 2499POPC   NC335507  37.852   5.279   9.561
 2499POPC   PO435508  38.169   4.778   9.556
 2499POPC   GL135509  37.816   4.892   9.191
 2499POPC   GL235510  37.598   5.220   9.143
 2499POPC   C1A35511  37.642   4.942   8.739
 2499POPC   D2A35512  37.702   5.024   8.336
 2499POPC   C3A35513  37.469   4.877   7.991
 2499POPC   C4A35514  37.657   4.773   7.595
 2499POPC   C1B35515  37.300   5.310   8.815
 2499POPC   C2B35516  37.198   5.168   8.409
 2499POPC   C3B35517  37.217   5.311   7.979
 2499POPC   C4B35518  37.394   5.209   7.564
 2500POPC   NC335519  18.915  28.171   9.458
 2500POPC   PO435520  19.398  28.600   9.534
 2500POPC   GL135521  19.161  28.548   9.160
 2500POPC   GL235522  19.170  28.204   9.024
 2500POPC   C1A35523  19.114  28.657   8.723
 2500POPC   D2A35524  19.149  28.332   8.408
 2500POPC   C3A35525  19.182  28.498   8.000
 2500POPC   C4A35526  18.880  28.478   7.681
 2500POPC   C1B35527  18.931  27.977   8.718
 2500POPC   C2B35528  18.897  27.856   8.323
 2500POPC   C3B35529  19.128  28.000   7.954
 2500POPC   C4B35530  19.038  28.024   7.485
 2501POPC   NC335531  21.264   8.334   9.652
 2501POPC   PO435532  21.794   7.891   9.412
 2501POPC   GL135533  21.486   8.203   9.207
 2501POPC   GL235534  21.134   8.097   9.190
 2501POPC   C1A35535  21.327   8.370   8.808
 2501POPC   D2A35536  21.150   8.262   8.392
 2501POPC   C3A35537  21.387   8.293   7.977
 2501POPC   C4A35538  21.579   8.579   7.665
 2501POPC   C1B35539  21.355   7.846   8.862
 2501POPC   C2B35540  21.382   7.787   8.437
 2501POPC   C3B35541  21.200   7.832   8.042
 2501POPC   C4B35542  21.341   7.931   7.623
 2502POPC   NC335543  30.155  16.621   9.505
 2502POPC   PO435544  29.558  16.364   9.440
 2502POPC   GL135545  29.838  16.507   9.108
 2502POPC   GL235546  29.906  16.867   9.137
 2502POPC   C1A35547  29.791  16.683   8.698
 2502POPC   D2A35548  29.935  16.607   8.306
 2502POPC   C3A35549  29.707  16.719   7.988
 2502POPC   C4A35550  29.893  16.835   7.625
 2502POPC   C1B35551  30.220  16.993   8.818
 2502POPC   C2B35552  30.359  16.870   8.425
 2502POPC   C3B35553  30.205  16.967   8.030
 2502POPC   C4B35554  30.399  16.905   7.660
 2503POPC   NC335555   7.741   7.126   9.871
 2503POPC   PO435556   8.228   7.203   9.431
 2503POPC   GL135557   8.193   7.412   9.095
 2503POPC   GL235558   8.277   7.752   9.158
 2503POPC   C1A35559   8.197   7.319   8.702
 2503POPC   D2A35560   8.054   7.557   8.429
 2503POPC   C3A35561   7.841   7.335   8.154
 2503POPC   C4A35562   7.973   7.266   7.753
 2503POPC   C1B35563   8.566   7.659   8.798
 2503POPC   C2B35564   8.505   7.760   8.398
 2503POPC   C3B35565   8.323   7.595   8.005
 2503POPC   C4B35566   8.539   7.709   7.678
 2504POPC   NC335567  30.052   4.887   9.498
 2504POPC   PO435568  29.597   5.317   9.778
 2504POPC   GL135569  29.787   5.335   9.353
 2504POPC   GL235570  29.658   5.037   9.188
 2504POPC   C1A35571  30.031   5.358   8.932
 2504POPC   D2A35572  29.984   5.451   8.452
 2504POPC   C3A35573  30.073   5.267   8.037
 2504POPC   C4A35574  30.015   5.461   7.628
 2504POPC   C1B35575  29.685   4.796   8.790
 2504POPC   C2B35576  29.645   4.968   8.366
 2504POPC   C3B35577  29.710   4.926   7.925
 2504POPC   C4B35578  29.806   5.008   7.491
 2505POPC   NC335579  29.485  26.562   9.566
 2505POPC   PO435580  30.066  26.411   9.470
 2505POPC   GL135581  29.978  26.273   9.058
 2505POPC   GL235582  29.621  26.221   9.059
 2505POPC   C1A35583  29.931  26.245   8.605
 2505POPC   D2A35584  29.715  26.240   8.207
 2505POPC   C3A35585  30.003  26.259   7.882
 2505POPC   C4A35586  30.167  25.963   7.570
 2505POPC   C1B35587  29.753  25.825   8.802
 2505POPC   C2B35588  29.902  25.774   8.340
 2505POPC   C3B35589  29.774  25.792   7.874
 2505POPC   C4B35590  29.772  25.645   7.415
 2506POPC   NC335591  35.609   2.541   9.589
 2506POPC   PO435592  35.242   3.106   9.516
 2506POPC   GL135593  35.412   2.854   9.156
 2506POPC   GL235594  35.464   2.485   9.115
 2506POPC   C1A35595  35.324   2.732   8.709
 2506POPC   D2A35596  35.465   2.426   8.419
 2506POPC   C3A35597  35.460   2.614   8.038
 2506POPC   C4A35598  35.477   2.770   7.643
 2506POPC   C1B35599  35.635   2.166   8.852
 2506POPC   C2B35600  35.878   2.107   8.459
 2506POPC   C3B35601  35.658   2.085   8.077
 2506POPC   C4B35602  35.545   2.106   7.639
 2507POPC   NC335603  33.567  12.376   9.570
 2507POPC   PO435604  33.704  11.672   9.528
 2507POPC   GL135605  33.738  11.862   9.154
 2507POPC   GL235606  33.535  12.174   9.094
 2507POPC   C1A35607  33.610  11.776   8.740
 2507POPC   D2A35608  33.822  11.888   8.377
 2507POPC   C3A35609  33.612  11.843   8.007
 2507POPC   C4A35610  33.880  11.771   7.669
 2507POPC   C1B35611  33.675  12.340   8.694
 2507POPC   C2B35612  33.652  12.350   8.237
 2507POPC   C3B35613  33.795  12.284   7.806
 2507POPC   C4B35614  33.558  12.322   7.367
 2508POPC   NC335615  21.252  11.085   9.292
 2508POPC   PO435616  21.754  10.542   9.541
 2508POPC   GL135617  21.571  10.462   9.112
 2508POPC   GL235618  21.454  10.773   8.944
 2508POPC   C1A35619  21.225  10.319   8.802
 2508POPC   D2A35620  21.010  10.114   8.430
 2508POPC   C3A35621  21.085  10.200   8.014
 2508POPC   C4A35622  21.338  10.513   7.871
 2508POPC   C1B35623  21.397  10.695   8.483
 2508POPC   C2B35624  21.722  10.704   8.163
 2508POPC   C3B35625  21.619  10.919   7.755
 2508POPC   C4B35626  21.229  11.031   7.576
 2509POPC   NC335627  39.656   2.576   9.773
 2509POPC   PO435628  39.369   3.029   9.353
 2509POPC   GL135629  39.037   2.991   9.103
 2509POPC   GL235630  39.075   2.652   9.055
 2509POPC   C1A35631  39.049   3.021   8.672
 2509POPC   D2A35632  39.386   2.927   8.362
 2509POPC   C3A35633  39.344   3.016   7.942
 2509POPC   C4A35634  39.299   2.968   7.496
 2509POPC   C1B35635  39.329   2.567   8.689
 2509POPC   C2B35636  39.252   2.374   8.300
 2509POPC   C3B35637  39.159   2.532   7.882
 2509POPC   C4B35638  39.337   2.462   7.486
 2510POPC   NC335639   0.701  25.039   9.439
 2510POPC   PO435640   0.199  25.509   9.626
 2510POPC   GL135641   0.242  25.254   9.181
 2510POPC   GL235642   0.542  25.140   8.979
 2510POPC   C1A35643   0.117  24.944   8.823
 2510POPC   D2A35644   0.394  24.967   8.502
 2510POPC   C3A35645   0.281  25.244   8.221
 2510POPC   C4A35646   0.357  25.208   7.814
 2510POPC   C1B35647   0.376  25.466   8.721
 2510POPC   C2B35648   0.550  25.661   8.394
 2510POPC   C3B35649   0.685  25.507   8.046
 2510POPC   C4B35650   0.630  25.619   7.646
 2511POPC   NC335651  12.684  41.580   9.432
 2511POPC   PO435652  12.707  42.276   9.467
 2511POPC   GL135653  12.617  41.943   9.082
 2511POPC   GL235654  12.934  41.732   9.009
 2511POPC   C1A35655  12.506  41.531   8.784
 2511POPC   D2A35656  12.661  41.332   8.376
 2511POPC   C3A35657  12.768  41.645   8.024
 2511POPC   C4A35658  12.955  41.887   7.662
 2511POPC   C1B35659  12.991  41.297   8.839
 2511POPC   C2B35660  13.142  41.131   8.426
 2511POPC   C3B35661  13.007  41.196   8.010
 2511POPC   C4B35662  12.563  41.175   7.876
 2512POPC   NC335663   5.784  42.724   9.599
 2512POPC   PO435664   5.887  42.019   9.582
 2512POPC   GL135665   5.831  42.236   9.183
 2512POPC   GL235666   5.902  42.625   9.121
 2512POPC   C1A35667   5.829  42.060   8.782
 2512POPC   D2A35668   5.508  42.064   8.460
 2512POPC   C3A35669   5.708  42.274   8.104
 2512POPC   C4A35670   5.908  42.027   7.793
 2512POPC   C1B35671   6.142  42.481   8.786
 2512POPC   C2B35672   6.135  42.263   8.405
 2512POPC   C3B35673   6.220  42.414   7.978
 2512POPC   C4B35674   6.061  42.445   7.550
 2513POPC   NC335675   5.241  28.561   9.788
 2513POPC   PO435676   5.407  28.083   9.528
 2513POPC   GL135677   5.218  28.192   9.089
 2513POPC   GL235678   5.178  28.544   8.967
 2513POPC   C1A35679   5.034  28.168   8.644
 2513POPC   D2A35680   4.867  28.283   8.216
 2513POPC   C3A35681   4.975  28.071   7.808
 2513POPC   C4A35682   5.308  28.169   7.483
 2513POPC   C1B35683   4.935  28.668   8.583
 2513POPC   C2B35684   4.925  28.800   8.131
 2513POPC   C3B35685   5.069  28.575   7.792
 2513POPC   C4B35686   4.874  28.443   7.404
 2514POPC   NC335687  11.808  27.954   9.540
 2514POPC   PO435688  12.216  28.552   9.534
 2514POPC   GL135689  12.320  28.479   9.149
 2514POPC   GL235690  12.093  28.194   9.164
 2514POPC   C1A35691  12.247  28.447   8.723
 2514POPC   D2A35692  12.082  28.282   8.368
 2514POPC   C3A35693  12.279  28.463   8.043
 2514POPC   C4A35694  12.053  28.707   7.771
 2514POPC   C1B35695  12.009  27.994   8.796
 2514POPC   C2B35696  12.278  27.810   8.470
 2514POPC   C3B35697  12.198  27.894   8.054
 2514POPC   C4B35698  12.299  28.087   7.699
 2515POPC   NC335699   3.906  36.270   9.419
 2515POPC   PO435700   4.557  36.379   9.235
 2515POPC   GL135701   4.249  36.376   8.969
 2515POPC   GL235702   4.010  36.640   9.052
 2515POPC   C1A35703   4.339  36.405   8.524
 2515POPC   D2A35704   4.657  36.190   8.263
 2515POPC   C3A35705   4.643  36.151   7.799
 2515POPC   C4A35706   4.364  35.987   7.470
 2515POPC   C1B35707   3.845  36.395   8.681
 2515POPC   C2B35708   3.930  36.192   8.263
 2515POPC   C3B35709   4.165  36.332   7.882
 2515POPC   C4B35710   4.042  36.726   7.650
 2516POPC   NC335711  44.172   3.828   9.998
 2516POPC   PO435712  43.956   4.114   9.421
 2516POPC   GL135713  43.921   4.330   9.068
 2516POPC   GL235714  44.238   4.551   9.002
 2516POPC   C1A35715  43.706   4.242   8.695
 2516POPC   D2A35716  43.796   3.897   8.408
 2516POPC   C3A35717  43.765   4.064   7.997
 2516POPC   C4A35718  43.962   4.370   7.730
 2516POPC   C1B35719  44.026   4.646   8.623
 2516POPC   C2B35720  44.011   4.591   8.193
 2516POPC   C3B35721  44.106   4.847   7.812
 2516POPC   C4B35722  44.257   4.738   7.384
 2517POPC   NC335723  10.673  22.172   9.465
 2517POPC   PO435724  10.095  21.760   9.410
 2517POPC   GL135725  10.256  22.113   9.171
 2517POPC   GL235726  10.606  22.119   8.981
 2517POPC   C1A35727  10.163  22.113   8.742
 2517POPC   D2A35728  10.347  21.816   8.509
 2517POPC   C3A35729  10.318  21.928   8.100
 2517POPC   C4A35730  10.090  22.248   7.873
 2517POPC   C1B35731  10.631  22.277   8.562
 2517POPC   C2B35732  10.384  22.452   8.252
 2517POPC   C3B35733  10.585  22.327   7.888
 2517POPC   C4B35734  10.783  21.930   7.817
 2518POPC   NC335735  44.863  43.850   9.395
 2518POPC   PO435736  44.271  43.705   9.565
 2518POPC   GL135737  44.338  43.973   9.201
 2518POPC   GL235738  44.600  44.235   9.190
 2518POPC   C1A35739  44.475  43.836   8.787
 2518POPC   D2A35740  44.383  43.589   8.424
 2518POPC   C3A35741  44.375  43.808   8.035
 2518POPC   C4A35742  44.682  43.681   7.716
 2518POPC   C1B35743  44.792  44.247   8.792
 2518POPC   C2B35744  44.897  43.982   8.459
 2518POPC   C3B35745  44.821  44.066   8.044
 2518POPC   C4B35746  44.935  44.200   7.632
 2519POPC   NC335747  43.405  22.600   9.624
 2519POPC   PO435748  42.806  22.169   9.560
 2519POPC   GL135749  43.049  22.299   9.240
 2519POPC   GL235750  42.979  21.941   9.112
 2519POPC   C1A35751  43.261  22.274   8.858
 2519POPC   D2A35752  43.412  22.065   8.526
 2519POPC   C3A35753  43.212  22.062   8.134
 2519POPC   C4A35754  43.376  22.050   7.722
 2519POPC   C1B35755  42.867  21.919   8.665
 2519POPC   C2B35756  42.750  21.813   8.237
 2519POPC   C3B35757  42.786  22.007   7.843
 2519POPC   C4B35758  42.893  22.416   7.706
 2520POPC   NC335759  13.054   1.377   9.216
 2520POPC   PO435760  12.523   1.008   9.479
 2520POPC   GL135761  12.636   1.105   9.100
 2520POPC   GL235762  12.557   1.469   9.098
 2520POPC   C1A35763  12.813   1.056   8.717
 2520POPC   D2A35764  13.063   1.307   8.507
 2520POPC   C3A35765  13.025   1.220   8.093
 2520POPC   C4A35766  13.155   1.405   7.740
 2520POPC   C1B35767  12.630   1.514   8.686
 2520POPC   C2B35768  12.567   1.334   8.311
 2520POPC   C3B35769  12.582   1.527   7.929
 2520POPC   C4B35770  12.695   1.436   7.528
 2521POPC   NC335771  23.310   3.637   9.433
 2521POPC   PO435772  22.579   3.514   9.284
 2521POPC   GL135773  22.901   3.741   9.122
 2521POPC   GL235774  23.070   3.448   9.015
 2521POPC   C1A35775  22.995   3.877   8.701
 2521POPC   D2A35776  23.202   3.949   8.312
 2521POPC   C3A35777  22.980   3.674   8.038
 2521POPC   C4A35778  22.835   3.755   7.645
 2521POPC   C1B35779  22.802   3.250   8.692
 2521POPC   C2B35780  22.669   3.300   8.251
 2521POPC   C3B35781  22.857   3.177   7.861
 2521POPC   C4B35782  22.947   3.313   7.425
 2522POPC   NC335783  20.316  19.240   9.644
 2522POPC   PO435784  20.777  19.194   9.618
 2522POPC   GL135785  20.618  19.023   9.218
 2522POPC   GL235786  20.277  18.917   9.207
 2522POPC   C1A35787  20.643  19.046   8.742
 2522POPC   D2A35788  20.617  19.321   8.350
 2522POPC   C3A35789  20.602  19.112   7.927
 2522POPC   C4A35790  20.382  18.738   7.751
 2522POPC   C1B35791  20.135  18.991   8.747
 2522POPC   C2B35792  20.267  18.943   8.302
 2522POPC   C3B35793  20.096  19.135   7.910
 2522POPC   C4B35794  20.275  19.368   7.552
 2523POPC   NC335795  33.460  34.342   9.505
 2523POPC   PO435796  33.977  34.794   9.445
 2523POPC   GL135797  33.679  34.646   9.159
 2523POPC   GL235798  33.531  34.939   9.113
 2523POPC   C1A35799  33.735  34.400   8.753
 2523POPC   D2A35800  33.890  34.553   8.341
 2523POPC   C3A35801  34.044  34.292   7.998
 2523POPC   C4A35802  33.615  34.295   7.799
 2523POPC   C1B35803  33.756  34.918   8.731
 2523POPC   C2B35804  33.730  35.166   8.376
 2523POPC   C3B35805  33.603  35.033   8.014
 2523POPC   C4B35806  33.856  34.736   7.853
 2524POPC   NC335807  37.355  17.888  10.039
 2524POPC   PO435808  37.417  17.436   9.547
 2524POPC   GL135809  37.637  17.476   9.171
 2524POPC   GL235810  37.806  17.179   9.126
 2524POPC   C1A35811  37.564  17.388   8.734
 2524POPC   D2A35812  37.642  17.612   8.372
 2524POPC   C3A35813  37.391  17.592   8.053
 2524POPC   C4A35814  37.597  17.627   7.656
 2524POPC   C1B35815  37.972  17.028   8.742
 2524POPC   C2B35816  37.776  17.061   8.351
 2524POPC   C3B35817  37.816  17.263   7.964
 2524POPC   C4B35818  37.797  17.158   7.514
 2525POPC   NC335819  28.212   5.459   9.769
 2525POPC   PO435820  28.448   6.052   9.468
 2525POPC   GL135821  28.299   5.985   9.101
 2525POPC   GL235822  28.242   5.656   9.089
 2525POPC   C1A35823  28.256   6.150   8.710
 2525POPC   D2A35824  28.138   5.876   8.377
 2525POPC   C3A35825  28.075   6.079   7.998
 2525POPC   C4A35826  28.370   6.214   7.720
 2525POPC   C1B35827  28.480   5.658   8.722
 2525POPC   C2B35828  28.603   5.662   8.322
 2525POPC   C3B35829  28.414   5.675   7.935
 2525POPC   C4B35830  28.634   5.418   7.607
 2526POPC   NC335831  21.151  36.845   9.640
 2526POPC   PO435832  21.594  36.427   9.498
 2526POPC   GL135833  21.436  36.745   9.197
 2526POPC   GL235834  21.141  36.997   9.170
 2526POPC   C1A35835  21.496  36.717   8.762
 2526POPC   D2A35836  21.579  36.973   8.428
 2526POPC   C3A35837  21.475  36.875   8.030
 2526POPC   C4A35838  21.827  37.082   7.784
 2526POPC   C1B35839  20.992  36.723   8.848
 2526POPC   C2B35840  21.102  36.768   8.417
 2526POPC   C3B35841  20.904  36.879   8.014
 2526POPC   C4B35842  21.070  36.898   7.610
 2527POPC   NC335843  14.529  24.341   9.319
 2527POPC   PO435844  14.855  24.818   9.438
 2527POPC   GL135845  14.663  24.799   9.067
 2527POPC   GL235846  14.294  24.788   9.101
 2527POPC   C1A35847  14.593  24.584   8.670
 2527POPC   D2A35848  14.743  24.313   8.333
 2527POPC   C3A35849  14.634  24.522   7.946
 2527POPC   C4A35850  14.312  24.538   7.600
 2527POPC   C1B35851  14.095  24.474   8.812
 2527POPC   C2B35852  13.880  24.392   8.425
 2527POPC   C3B35853  13.972  24.351   7.957
 2527POPC   C4B35854  13.829  24.317   7.507
 2528POPC   NC335855  27.992  26.760   9.568
 2528POPC   PO435856  27.436  26.928   9.532
 2528POPC   GL135857  27.660  26.886   9.149
 2528POPC   GL235858  27.920  27.088   9.173
 2528POPC   C1A35859  27.542  27.052   8.713
 2528POPC   D2A35860  27.357  26.812   8.371
 2528POPC   C3A35861  27.510  26.806   7.933
 2528POPC   C4A35862  27.447  26.497   7.598
 2528POPC   C1B35863  28.040  26.912   8.771
 2528POPC   C2B35864  27.892  26.813   8.362
 2528POPC   C3B35865  28.020  26.933   7.961
 2528POPC   C4B35866  27.915  26.696   7.596
 2529POPC   NC335867  42.405  17.804   9.464
 2529POPC   PO435868  41.939  17.239   9.475
 2529POPC   GL135869  42.167  17.475   9.139
 2529POPC   GL235870  42.008  17.778   9.068
 2529POPC   C1A35871  42.385  17.336   8.739
 2529POPC   D2A35872  42.475  17.246   8.236
 2529POPC   C3A35873  42.273  17.502   7.853
 2529POPC   C4A35874  42.068  17.449   7.408
 2529POPC   C1B35875  42.344  17.860   8.788
 2529POPC   C2B35876  42.343  17.711   8.377
 2529POPC   C3B35877  42.613  17.831   8.064
 2529POPC   C4B35878  42.423  18.024   7.714
 2530POPC   NC335879  39.532   2.598   9.285
 2530POPC   PO435880  40.040   2.943   9.609
 2530POPC   GL135881  40.085   2.820   9.180
 2530POPC   GL235882  39.795   2.968   9.066
 2530POPC   C1A35883  40.187   2.999   8.728
 2530POPC   D2A35884  40.354   3.046   8.290
 2530POPC   C3A35885  40.114   2.793   7.951
 2530POPC   C4A35886  39.791   2.994   7.698
 2530POPC   C1B35887  39.862   2.625   8.757
 2530POPC   C2B35888  39.869   2.725   8.383
 2530POPC   C3B35889  39.646   2.597   8.043
 2530POPC   C4B35890  39.805   2.478   7.682
 2531POPC   NC335891   3.118  21.457   9.918
 2531POPC   PO435892   2.511  21.401   9.612
 2531POPC   GL135893   2.733  21.319   9.128
 2531POPC   GL235894   2.789  21.614   8.934
 2531POPC   C1A35895   2.928  21.221   8.693
 2531POPC   D2A35896   2.901  21.554   8.352
 2531POPC   C3A35897   3.072  21.463   7.964
 2531POPC   C4A35898   2.984  21.454   7.547
 2531POPC   C1B35899   2.473  21.483   8.637
 2531POPC   C2B35900   2.402  21.760   8.282
 2531POPC   C3B35901   2.602  21.641   7.881
 2531POPC   C4B35902   2.502  21.552   7.423
 2532POPC   NC335903  10.892  38.714   9.549
 2532POPC   PO435904  10.206  38.627   9.698
 2532POPC   GL135905  10.495  38.455   9.345
 2532POPC   GL235906  10.515  38.801   9.209
 2532POPC   C1A35907  10.689  38.347   8.912
 2532POPC   D2A35908  10.600  38.113   8.509
 2532POPC   C3A35909  10.657  38.261   8.100
 2532POPC   C4A35910  10.756  38.145   7.679
 2532POPC   C1B35911  10.774  38.872   8.845
 2532POPC   C2B35912  10.641  38.665   8.459
 2532POPC   C3B35913  10.423  38.709   8.046
 2532POPC   C4B35914  10.727  38.667   7.788
 2533POPC   NC335915  10.306   7.236   9.641
 2533POPC   PO435916  10.787   7.732   9.686
 2533POPC   GL135917  10.513   7.607   9.323
 2533POPC   GL235918  10.625   7.284   9.208
 2533POPC   C1A35919  10.512   7.675   8.865
 2533POPC   D2A35920  10.674   7.584   8.504
 2533POPC   C3A35921  10.551   7.721   8.117
 2533POPC   C4A35922  10.509   7.462   7.776
 2533POPC   C1B35923  10.483   7.155   8.787
 2533POPC   C2B35924  10.495   7.123   8.341
 2533POPC   C3B35925  10.193   7.106   7.997
 2533POPC   C4B35926  10.195   7.111   7.538
 2534POPC   NC335927  43.125  23.241   9.481
 2534POPC   PO435928  42.899  23.772   9.795
 2534POPC   GL135929  42.954  23.663   9.286
 2534POPC   GL235930  43.319  23.511   9.128
 2534POPC   C1A35931  42.984  23.656   8.812
 2534POPC   D2A35932  42.943  23.963   8.520
 2534POPC   C3A35933  43.020  23.884   8.107
 2534POPC   C4A35934  43.050  23.545   7.834
 2534POPC   C1B35935  43.396  23.259   8.776
 2534POPC   C2B35936  43.248  23.131   8.335
 2534POPC   C3B35937  43.409  23.187   7.914
 2534POPC   C4B35938  43.510  23.460   7.596
 2535POPC   NC335939  32.054  17.488   9.637
 2535POPC   PO435940  32.553  17.944   9.602
 2535POPC   GL135941  32.264  17.735   9.253
 2535POPC   GL235942  32.262  17.348   9.194
 2535POPC   C1A35943  32.403  17.663   8.816
 2535POPC   D2A35944  32.483  17.389   8.502
 2535POPC   C3A35945  32.356  17.567   8.131
 2535POPC   C4A35946  32.378  17.367   7.757
 2535POPC   C1B35947  32.024  17.329   8.805
 2535POPC   C2B35948  31.854  17.407   8.407
 2535POPC   C3B35949  31.929  17.259   8.007
 2535POPC   C4B35950  31.889  17.489   7.659
 2536POPC   NC335951  26.106  19.431   9.583
 2536POPC   PO435952  26.268  18.730   9.550
 2536POPC   GL135953  26.148  18.846   9.145
 2536POPC   GL235954  26.079  19.187   9.142
 2536POPC   C1A35955  26.200  19.003   8.703
 2536POPC   D2A35956  25.960  18.977   8.421
 2536POPC   C3A35957  26.136  19.044   8.044
 2536POPC   C4A35958  26.359  19.198   7.697
 2536POPC   C1B35959  25.809  19.333   8.770
 2536POPC   C2B35960  25.631  19.338   8.329
 2536POPC   C3B35961  25.799  19.411   7.903
 2536POPC   C4B35962  25.892  19.569   7.474
 2537POPC   NC335963   3.531  24.218   9.148
 2537POPC   PO435964   3.616  23.805   9.520
 2537POPC   GL135965   3.448  23.659   9.139
 2537POPC   GL235966   3.689  23.410   9.125
 2537POPC   C1A35967   3.334  23.500   8.719
 2537POPC   D2A35968   3.477  23.314   8.326
 2537POPC   C3A35969   3.481  23.558   7.938
 2537POPC   C4A35970   3.411  23.994   7.748
 2537POPC   C1B35971   3.846  23.485   8.691
 2537POPC   C2B35972   3.974  23.380   8.267
 2537POPC   C3B35973   4.004  23.470   7.828
 2537POPC   C4B35974   3.743  23.621   7.483
 2538POPC   NC335975  42.914  24.262   9.765
 2538POPC   PO435976  43.361  23.944   9.378
 2538POPC   GL135977  43.455  24.217   9.034
 2538POPC   GL235978  43.215  24.497   9.030
 2538POPC   C1A35979  43.330  24.291   8.590
 2538POPC   D2A35980  42.947  24.444   8.341
 2538POPC   C3A35981  42.959  24.342   7.906
 2538POPC   C4A35982  43.280  24.458   7.665
 2538POPC   C1B35983  42.841  24.690   8.793
 2538POPC   C2B35984  42.695  24.911   8.381
 2538POPC   C3B35985  42.765  24.804   7.932
 2538POPC   C4B35986  42.848  24.687   7.466
 2539POPC   NC335987  25.866   5.693   9.578
 2539POPC   PO435988  26.467   5.735   9.861
 2539POPC   GL135989  26.358   5.704   9.348
 2539POPC   GL235990  26.045   5.617   9.133
 2539POPC   C1A35991  26.440   5.750   8.874
 2539POPC   D2A35992  26.379   5.984   8.477
 2539POPC   C3A35993  26.212   5.798   8.099
 2539POPC   C4A35994  26.451   5.629   7.747
 2539POPC   C1B35995  25.921   5.870   8.751
 2539POPC   C2B35996  25.701   5.873   8.348
 2539POPC   C3B35997  25.752   5.652   7.934
 2539POPC   C4B35998  26.010   5.827   7.575
 2540POPC   NC335999  12.275   4.745   9.531
 2540POPC   PO436000  11.810   5.235   9.627
 2540POPC   GL136001  12.055   5.136   9.238
 2540POPC   GL236002  11.971   4.790   9.130
 2540POPC   C1A36003  12.178   5.259   8.809
 2540POPC   D2A36004  12.315   5.449   8.420
 2540POPC   C3A36005  12.191   5.347   7.982
 2540POPC   C4A36006  11.963   5.270   7.577
 2540POPC   C1B36007  12.151   4.765   8.705
 2540POPC   C2B36008  12.193   4.849   8.244
 2540POPC   C3B36009  12.148   4.851   7.810
 2540POPC   C4B36010  11.981   4.558   7.531
 2541POPC   NC336011  33.253   2.092   9.675
 2541POPC   PO436012  32.853   2.517   9.467
 2541POPC   GL136013  32.908   2.275   9.031
 2541POPC   GL236014  33.161   2.079   9.154
 2541POPC   C1A36015  32.821   1.866   8.730
 2541POPC   D2A36016  33.054   1.582   8.454
 2541POPC   C3A36017  32.995   1.636   8.023
 2541POPC   C4A36018  32.895   1.985   7.800
 2541POPC   C1B36019  33.328   1.915   8.776
 2541POPC   C2B36020  33.538   2.060   8.453
 2541POPC   C3B36021  33.328   2.101   8.097
 2541POPC   C4B36022  33.374   1.964   7.727
 2542POPC   NC336023   0.279  41.032   9.536
 2542POPC   PO436024   0.750  40.622   9.577
 2542POPC   GL136025   0.626  40.860   9.203
 2542POPC   GL236026   0.879  40.911   9.030
 2542POPC   C1A36027   0.397  40.967   8.798
 2542POPC   D2A36028   0.343  40.707   8.386
 2542POPC   C3A36029   0.351  40.848   7.931
 2542POPC   C4A36030   0.125  40.879   7.498
 2542POPC   C1B36031   0.780  40.670   8.677
 2542POPC   C2B36032   0.824  40.859   8.285
 2542POPC   C3B36033   0.856  40.707   7.883
 2542POPC   C4B36034   0.959  40.819   7.454
 2543POPC   NC336035  21.628   1.025   9.410
 2543POPC   PO436036  21.112   1.457   9.580
 2543POPC   GL136037  21.157   1.190   9.168
 2543POPC   GL236038  21.370   1.413   8.937
 2543POPC   C1A36039  21.162   1.029   8.700
 2543POPC   D2A36040  21.410   1.341   8.416
 2543POPC   C3A36041  21.239   1.378   7.996
 2543POPC   C4A36042  21.190   1.026   7.710
 2543POPC   C1B36043  21.656   1.045   8.773
 2543POPC   C2B36044  21.791   0.933   8.416
 2543POPC   C3B36045  21.592   1.021   8.061
 2543POPC   C4B36046  21.700   1.270   7.744
 2544POPC   NC336047  41.694   4.248   9.537
 2544POPC   PO436048  41.258   4.754   9.435
 2544POPC   GL136049  41.441   4.477   9.158
 2544POPC   GL236050  41.290   4.163   9.153
 2544POPC   C1A36051  41.516   4.573   8.760
 2544POPC   D2A36052  41.493   4.335   8.409
 2544POPC   C3A36053  41.358   4.425   7.987
 2544POPC   C4A36054  41.414   4.596   7.592
 2544POPC   C1B36055  41.640   4.050   8.873
 2544POPC   C2B36056  41.655   3.835   8.470
 2544POPC   C3B36057  41.675   4.026   8.049
 2544POPC   C4B36058  41.572   4.114   7.626
 2545POPC   NC336059  34.732  31.857   9.784
 2545POPC   PO436060  34.268  31.499   9.420
 2545POPC   GL136061  34.580  31.752   9.185
 2545POPC   GL236062  34.329  31.990   9.182
 2545POPC   C1A36063  34.789  31.688   8.740
 2545POPC   D2A36064  34.711  31.715   8.250
 2545POPC   C3A36065  34.571  31.499   7.850
 2545POPC   C4A36066  34.521  31.316   7.418
 2545POPC   C1B36067  34.350  31.931   8.721
 2545POPC   C2B36068  34.185  31.683   8.378
 2545POPC   C3B36069  34.136  31.797   7.952
 2545POPC   C4B36070  34.248  31.729   7.501
 2546POPC   NC336071  12.701  24.573   9.513
 2546POPC   PO436072  13.342  24.237   9.481
 2546POPC   GL136073  12.996  24.251   9.164
 2546POPC   GL236074  12.983  24.619   9.102
 2546POPC   C1A36075  12.762  24.302   8.742
 2546POPC   D2A36076  12.939  24.469   8.322
 2546POPC   C3A36077  12.725  24.403   7.926
 2546POPC   C4A36078  12.526  24.154   7.577
 2546POPC   C1B36079  12.950  24.790   8.716
 2546POPC   C2B36080  12.915  24.988   8.316
 2546POPC   C3B36081  13.163  24.899   7.974
 2546POPC   C4B36082  13.151  24.906   7.520
 2547POPC   NC336083   5.328  10.330   9.457
 2547POPC   PO436084   4.816  10.686   9.617
 2547POPC   GL136085   5.052  10.666   9.203
 2547POPC   GL236086   5.418  10.808   9.284
 2547POPC   C1A36087   5.141  10.321   8.838
 2547POPC   D2A36088   5.317  10.159   8.423
 2547POPC   C3A36089   5.124  10.331   8.027
 2547POPC   C4A36090   5.251  10.286   7.593
 2547POPC   C1B36091   5.362  10.810   8.828
 2547POPC   C2B36092   5.148  10.683   8.445
 2547POPC   C3B36093   5.272  10.823   8.029
 2547POPC   C4B36094   5.461  10.731   7.662
 2548POPC   NC336095  36.590  27.044   9.916
 2548POPC   PO436096  37.088  26.854   9.500
 2548POPC   GL136097  36.937  26.638   9.121
 2548POPC   GL236098  37.127  26.372   9.228
 2548POPC   C1A36099  36.804  26.622   8.672
 2548POPC   D2A36100  36.901  26.948   8.348
 2548POPC   C3A36101  36.786  26.971   7.918
 2548POPC   C4A36102  36.722  26.690   7.563
 2548POPC   C1B36103  37.266  26.424   8.805
 2548POPC   C2B36104  37.306  26.636   8.438
 2548POPC   C3B36105  37.102  26.584   8.050
 2548POPC   C4B36106  37.233  26.647   7.651
 2549POPC   NC336107  17.510  12.518   9.852
 2549POPC   PO436108  17.330  12.080   9.417
 2549POPC   GL136109  17.450  12.082   9.045
 2549POPC   GL236110  17.708  12.297   9.120
 2549POPC   C1A36111  17.244  12.120   8.667
 2549POPC   D2A36112  17.208  12.408   8.348
 2549POPC   C3A36113  17.307  12.197   8.028
 2549POPC   C4A36114  17.378  12.055   7.647
 2549POPC   C1B36115  17.861  12.174   8.770
 2549POPC   C2B36116  17.712  12.060   8.409
 2549POPC   C3B36117  17.831  12.239   8.037
 2549POPC   C4B36118  17.865  12.168   7.643
 2550POPC   NC336119   3.569  42.017   9.471
 2550POPC   PO436120   3.742  42.728   9.379
 2550POPC   GL136121   3.492  42.416   9.074
 2550POPC   GL236122   3.310  42.072   9.067
 2550POPC   C1A36123   3.673  42.108   8.733
 2550POPC   D2A36124   3.472  41.918   8.357
 2550POPC   C3A36125   3.716  41.986   7.987
 2550POPC   C4A36126   3.863  42.400   7.856
 2550POPC   C1B36127   3.163  42.204   8.695
 2550POPC   C2B36128   2.971  42.213   8.317
 2550POPC   C3B36129   3.134  42.043   7.977
 2550POPC   C4B36130   3.368  42.188   7.654
 2551POPC   NC336131   3.446  22.428   9.643
 2551POPC   PO436132   3.301  21.777   9.642
 2551POPC   GL136133   3.485  22.052   9.256
 2551POPC   GL236134   3.420  22.409   9.133
 2551POPC   C1A36135   3.536  22.027   8.797
 2551POPC   D2A36136   3.747  22.128   8.391
 2551POPC   C3A36137   3.543  22.117   7.952
 2551POPC   C4A36138   3.627  22.246   7.514
 2551POPC   C1B36139   3.547  22.527   8.700
 2551POPC   C2B36140   3.361  22.476   8.261
 2551POPC   C3B36141   3.459  22.615   7.826
 2551POPC   C4B36142   3.463  22.744   7.400
 2552POPC   NC336143  35.766  33.995   9.312
 2552POPC   PO436144  36.138  33.590   9.747
 2552POPC   GL136145  36.295  33.862   9.245
 2552POPC   GL236146  36.549  33.608   9.142
 2552POPC   C1A36147  36.123  34.040   8.816
 2552POPC   D2A36148  36.149  34.010   8.398
 2552POPC   C3A36149  35.932  33.670   8.256
 2552POPC   C4A36150  35.824  33.788   7.857
 2552POPC   C1B36151  36.344  33.580   8.729
 2552POPC   C2B36152  36.399  33.413   8.317
 2552POPC   C3B36153  36.308  33.594   7.914
 2552POPC   C4B36154  36.210  33.545   7.475
 2553POPC   NC336155  39.344  33.148   9.457
 2553POPC   PO436156  38.859  32.821   9.779
 2553POPC   GL136157  39.028  32.759   9.255
 2553POPC   GL236158  39.329  32.784   9.105
 2553POPC   C1A36159  39.002  32.646   8.749
 2553POPC   D2A36160  38.887  32.857   8.322
 2553POPC   C3A36161  38.931  32.824   7.855
 2553POPC   C4A36162  39.048  33.182   7.602
 2553POPC   C1B36163  39.553  32.828   8.723
 2553POPC   C2B36164  39.583  32.840   8.315
 2553POPC   C3B36165  39.366  33.047   8.019
 2553POPC   C4B36166  39.439  32.887   7.611
 2554POPC   NC336167  23.203  34.970   9.603
 2554POPC   PO436168  22.794  35.441   9.503
 2554POPC   GL136169  23.027  35.239   9.174
 2554POPC   GL236170  22.792  35.269   8.939
 2554POPC   C1A36171  23.249  35.291   8.733
 2554POPC   D2A36172  23.035  35.248   8.307
 2554POPC   C3A36173  23.231  35.266   7.883
 2554POPC   C4A36174  23.135  35.572   7.535
 2554POPC   C1B36175  22.544  35.311   8.563
 2554POPC   C2B36176  22.501  35.583   8.219
 2554POPC   C3B36177  22.706  35.609   7.814
 2554POPC   C4B36178  22.631  35.350   7.453
 2555POPC   NC336179   1.449  43.550   9.237
 2555POPC   PO436180   1.059  43.949   9.573
 2555POPC   GL136181   0.983  43.827   9.152
 2555POPC   GL236182   0.768  43.533   9.145
 2555POPC   C1A36183   1.026  44.044   8.754
 2555POPC   D2A36184   0.939  44.178   8.333
 2555POPC   C3A36185   1.211  44.127   7.985
 2555POPC   C4A36186   1.464  44.036   7.629
 2555POPC   C1B36187   1.030  43.527   8.739
 2555POPC   C2B36188   1.253  43.717   8.402
 2555POPC   C3B36189   1.172  43.613   7.993
 2555POPC   C4B36190   1.457  43.446   7.726
 2556POPC   NC336191  15.993   7.726   9.300
 2556POPC   PO436192  16.134   8.461   9.327
 2556POPC   GL136193  15.945   8.383   8.958
 2556POPC   GL236194  15.747   8.115   9.056
 2556POPC   C1A36195  16.103   8.405   8.540
 2556POPC   D2A36196  16.379   8.162   8.266
 2556POPC   C3A36197  16.215   8.214   7.861
 2556POPC   C4A36198  15.831   8.441   7.830
 2556POPC   C1B36199  15.864   7.941   8.646
 2556POPC   C2B36200  15.832   8.106   8.221
 2556POPC   C3B36201  15.798   7.906   7.817
 2556POPC   C4B36202  16.008   7.947   7.429
 2557POPC   NC336203  22.079  43.374   9.244
 2557POPC   PO436204  22.389  42.781   9.448
 2557POPC   GL136205  22.478  42.956   9.087
 2557POPC   GL236206  22.546  43.292   9.095
 2557POPC   C1A36207  22.317  42.980   8.696
 2557POPC   D2A36208  21.952  43.016   8.448
 2557POPC   C3A36209  22.165  42.969   8.074
 2557POPC   C4A36210  22.153  42.995   7.655
 2557POPC   C1B36211  22.376  43.488   8.703
 2557POPC   C2B36212  22.463  43.357   8.318
 2557POPC   C3B36213  22.345  43.419   7.917
 2557POPC   C4B36214  22.224  43.506   7.529
 2558POPC   NC336215  34.046   2.894   9.500
 2558POPC   PO436216  33.542   2.415   9.544
 2558POPC   GL136217  33.697   2.655   9.192
 2558POPC   GL236218  34.037   2.526   9.146
 2558POPC   C1A36219  33.586   2.850   8.809
 2558POPC   D2A36220  33.711   2.879   8.385
 2558POPC   C3A36221  33.627   2.510   8.173
 2558POPC   C4A36222  33.707   2.320   7.797
 2558POPC   C1B36223  34.119   2.839   8.816
 2558POPC   C2B36224  34.211   3.078   8.433
 2558POPC   C3B36225  34.031   3.076   8.032
 2558POPC   C4B36226  33.764   2.825   7.765
 2559POPC   NC336227  24.263  29.145   9.609
 2559POPC   PO436228  24.635  29.686   9.436
 2559POPC   GL136229  24.619  29.271   9.196
 2559POPC   GL236230  24.457  28.922   9.208
 2559POPC   C1A36231  24.405  29.229   8.797
 2559POPC   D2A36232  24.286  29.461   8.449
 2559POPC   C3A36233  24.353  29.232   8.063
 2559POPC   C4A36234  24.719  29.175   7.797
 2559POPC   C1B36235  24.615  28.760   8.847
 2559POPC   C2B36236  24.433  28.773   8.449
 2559POPC   C3B36237  24.526  28.736   8.020
 2559POPC   C4B36238  24.312  28.906   7.648
 2560POPC   NC336239  33.231   2.769   9.584
 2560POPC   PO436240  32.753   3.227   9.404
 2560POPC   GL136241  32.817   2.877   9.095
 2560POPC   GL236242  33.173   2.716   9.091
 2560POPC   C1A36243  32.855   2.686   8.684
 2560POPC   D2A36244  33.225   2.740   8.415
 2560POPC   C3A36245  33.279   2.985   8.053
 2560POPC   C4A36246  32.942   2.885   7.805
 2560POPC   C1B36247  33.312   2.423   8.794
 2560POPC   C2B36248  33.038   2.252   8.486
 2560POPC   C3B36249  32.921   2.436   8.093
 2560POPC   C4B36250  33.246   2.496   7.774
 2561POPC   NC336251   8.807  20.444   9.504
 2561POPC   PO436252   9.084  21.052   9.576
 2561POPC   GL136253   8.942  20.843   9.216
 2561POPC   GL236254   9.133  20.550   9.105
 2561POPC   C1A36255   8.845  20.804   8.786
 2561POPC   D2A36256   9.099  20.635   8.450
 2561POPC   C3A36257   8.978  20.614   8.037
 2561POPC   C4A36258   9.078  20.212   7.868
 2561POPC   C1B36259   9.031  20.258   8.759
 2561POPC   C2B36260   8.820  20.180   8.346
 2561POPC   C3B36261   8.563  20.334   7.981
 2561POPC   C4B36262   8.677  20.387   7.604
 2562POPC   NC336263  36.677  34.680   9.470
 2562POPC   PO436264  37.239  34.417   9.450
 2562POPC   GL136265  37.168  34.808   9.188
 2562POPC   GL236266  36.909  34.669   9.036
 2562POPC   C1A36267  37.148  34.997   8.746
 2562POPC   D2A36268  36.962  34.826   8.391
 2562POPC   C3A36269  36.915  34.774   7.979
 2562POPC   C4A36270  37.118  34.756   7.616
 2562POPC   C1B36271  36.890  34.432   8.726
 2562POPC   C2B36272  36.762  34.362   8.331
 2562POPC   C3B36273  36.997  34.263   7.986
 2562POPC   C4B36274  36.824  34.363   7.626
 2563POPC   NC336275  13.213  19.884   9.533
 2563POPC   PO436276  12.533  19.664   9.505
 2563POPC   GL136277  12.737  19.907   9.141
 2563POPC   GL236278  13.066  19.762   9.054
 2563POPC   C1A36279  12.743  19.994   8.670
 2563POPC   D2A36280  12.943  19.866   8.264
 2563POPC   C3A36281  12.816  19.967   7.828
 2563POPC   C4A36282  13.028  20.255   7.525
 2563POPC   C1B36283  12.805  19.489   8.788
 2563POPC   C2B36284  12.580  19.510   8.383
 2563POPC   C3B36285  12.482  19.535   7.936
 2563POPC   C4B36286  12.696  19.504   7.568
 2564POPC   NC336287  18.340   3.260   9.664
 2564POPC   PO436288  18.725   3.644   9.265
 2564POPC   GL136289  18.369   3.353   9.142
 2564POPC   GL236290  18.030   3.334   9.078
 2564POPC   C1A36291  18.398   3.296   8.706
 2564POPC   D2A36292  18.537   3.595   8.385
 2564POPC   C3A36293  18.373   3.512   7.985
 2564POPC   C4A36294  18.366   3.435   7.534
 2564POPC   C1B36295  17.888   3.426   8.691
 2564POPC   C2B36296  17.926   3.713   8.355
 2564POPC   C3B36297  18.027   3.880   7.976
 2564POPC   C4B36298  17.909   3.481   7.749
 2565POPC   NC336299  26.344  30.670   9.820
 2565POPC   PO436300  26.892  30.772   9.507
 2565POPC   GL136301  26.819  30.750   9.106
 2565POPC   GL236302  26.473  30.840   9.150
 2565POPC   C1A36303  26.957  30.823   8.679
 2565POPC   D2A36304  27.100  30.656   8.281
 2565POPC   C3A36305  26.882  30.711   7.842
 2565POPC   C4A36306  27.045  31.012   7.496
 2565POPC   C1B36307  26.537  30.503   8.786
 2565POPC   C2B36308  26.693  30.369   8.381
 2565POPC   C3B36309  26.500  30.353   7.982
 2565POPC   C4B36310  26.445  30.498   7.558
 2566POPC   NC336311   3.826  32.233   9.484
 2566POPC   PO436312   3.261  32.550   9.717
 2566POPC   GL136313   3.420  32.489   9.241
 2566POPC   GL236314   3.758  32.571   9.092
 2566POPC   C1A36315   3.438  32.221   8.815
 2566POPC   D2A36316   3.334  32.008   8.377
 2566POPC   C3A36317   3.453  32.116   7.942
 2566POPC   C4A36318   3.302  32.554   7.760
 2566POPC   C1B36319   3.702  32.620   8.631
 2566POPC   C2B36320   3.542  32.528   8.222
 2566POPC   C3B36321   3.811  32.464   7.831
 2566POPC   C4B36322   3.920  32.688   7.419
 2567POPC   NC336323   0.613  29.100   9.419
 2567POPC   PO436324   0.211  29.577   9.526
 2567POPC   GL136325   0.311  29.394   9.124
 2567POPC   GL236326   0.637  29.520   9.119
 2567POPC   C1A36327   0.239  29.077   8.797
 2567POPC   D2A36328   0.070  29.095   8.388
 2567POPC   C3A36329   0.256  28.983   8.001
 2567POPC   C4A36330   0.148  29.232   7.624
 2567POPC   C1B36331   0.726  29.231   8.781
 2567POPC   C2B36332   0.570  29.198   8.378
 2567POPC   C3B36333   0.455  29.459   8.041
 2567POPC   C4B36334   0.640  29.282   7.698
 2568POPC   NC336335  28.609  15.105   9.298
 2568POPC   PO436336  28.110  15.488   9.474
 2568POPC   GL136337  28.184  15.343   9.092
 2568POPC   GL236338  28.106  14.985   9.186
 2568POPC   C1A36339  28.270  15.416   8.652
 2568POPC   D2A36340  28.083  15.290   8.263
 2568POPC   C3A36341  28.344  15.235   7.888
 2568POPC   C4A36342  28.208  15.312   7.463
 2568POPC   C1B36343  28.322  14.920   8.758
 2568POPC   C2B36344  28.460  14.956   8.316
 2568POPC   C3B36345  28.551  14.757   7.913
 2568POPC   C4B36346  28.639  14.556   7.473
 2569POPC   NC336347   9.291  43.412   9.795
 2569POPC   PO436348   8.999  43.904   9.455
 2569POPC   GL136349   8.980  43.771   9.087
 2569POPC   GL236350   8.884  44.106   8.987
 2569POPC   C1A36351   9.232  43.831   8.735
 2569POPC   D2A36352   9.438  43.892   8.380
 2569POPC   C3A36353   9.130  43.923   8.091
 2569POPC   C4A36354   9.193  43.737   7.728
 2569POPC   C1B36355   8.700  43.832   8.657
 2569POPC   C2B36356   8.715  43.553   8.286
 2569POPC   C3B36357   8.669  43.675   7.859
 2569POPC   C4B36358   8.815  44.073   7.688
 2570POPC   NC336359  31.196  44.092   9.309
 2570POPC   PO436360  31.160  44.698   9.539
 2570POPC   GL136361  31.257  44.624   9.143
 2570POPC   GL236362  30.974  44.829   9.046
 2570POPC   C1A36363  31.458  44.613   8.757
 2570POPC   D2A36364  31.458  44.921   8.408
 2570POPC   C3A36365  31.495  44.762   8.005
 2570POPC   C4A36366  31.734  44.499   7.764
 2570POPC   C1B36367  31.008  44.756   8.623
 2570POPC   C2B36368  31.192  44.477   8.303
 2570POPC   C3B36369  31.223  44.311   7.877
 2570POPC   C4B36370  30.939  44.340   7.535
 2571POPC   NC336371  20.431   8.776   9.617
 2571POPC   PO436372  20.708   9.350   9.483
 2571POPC   GL136373  20.425   9.139   9.190
 2571POPC   GL236374  20.636   8.819   9.159
 2571POPC   C1A36375  20.294   9.361   8.781
 2571POPC   D2A36376  20.339   9.169   8.346
 2571POPC   C3A36377  20.376   9.372   7.957
 2571POPC   C4A36378  20.424   9.189   7.554
 2571POPC   C1B36379  20.587   8.921   8.731
 2571POPC   C2B36380  20.862   9.089   8.416
 2571POPC   C3B36381  20.749   9.029   7.997
 2571POPC   C4B36382  20.727   8.697   7.748
 2572POPC   NC336383  16.183   4.463   9.475
 2572POPC   PO436384  15.494   4.698   9.395
 2572POPC   GL136385  15.802   4.403   9.147
 2572POPC   GL236386  15.782   4.584   8.896
 2572POPC   C1A36387  16.091   4.199   8.804
 2572POPC   D2A36388  16.022   4.509   8.444
 2572POPC   C3A36389  16.199   4.496   8.049
 2572POPC   C4A36390  16.355   4.148   7.889
 2572POPC   C1B36391  15.595   4.192   8.723
 2572POPC   C2B36392  15.657   3.948   8.338
 2572POPC   C3B36393  15.857   4.034   7.946
 2572POPC   C4B36394  15.922   4.366   7.628
 2573POPC   NC336395  11.122  32.677   9.492
 2573POPC   PO436396  11.556  33.188   9.727
 2573POPC   GL136397  11.496  33.100   9.271
 2573POPC   GL236398  11.702  33.289   9.071
 2573POPC   C1A36399  11.293  32.905   8.872
 2573POPC   D2A36400  11.002  32.843   8.496
 2573POPC   C3A36401  11.183  32.889   8.077
 2573POPC   C4A36402  11.245  32.656   7.702
 2573POPC   C1B36403  11.713  33.121   8.675
 2573POPC   C2B36404  11.622  33.233   8.260
 2573POPC   C3B36405  11.602  33.073   7.842
 2573POPC   C4B36406  11.493  32.981   7.391
 2574POPC   NC336407  19.314   7.069   9.223
 2574POPC   PO436408  18.795   6.760   9.433
 2574POPC   GL136409  19.066   6.606   9.100
 2574POPC   GL236410  19.286   6.298   9.100
 2574POPC   C1A36411  19.171   6.692   8.709
 2574POPC   D2A36412  19.253   7.039   8.467
 2574POPC   C3A36413  19.254   6.887   8.070
 2574POPC   C4A36414  19.105   6.638   7.757
 2574POPC   C1B36415  19.429   6.239   8.743
 2574POPC   C2B36416  19.339   6.398   8.334
 2574POPC   C3B36417  19.180   6.178   7.984
 2574POPC   C4B36418  19.339   6.220   7.597
 2575POPC   NC336419  14.623  30.800   9.497
 2575POPC   PO436420  15.291  30.670   9.622
 2575POPC   GL136421  15.127  30.733   9.257
 2575POPC   GL236422  15.383  30.992   9.155
 2575POPC   C1A36423  15.097  30.662   8.822
 2575POPC   D2A36424  15.249  30.846   8.441
 2575POPC   C3A36425  15.137  30.638   8.059
 2575POPC   C4A36426  14.866  30.766   7.674
 2575POPC   C1B36427  15.653  30.912   8.761
 2575POPC   C2B36428  15.731  30.768   8.315
 2575POPC   C3B36429  15.540  30.945   7.970
 2575POPC   C4B36430  15.365  30.818   7.609
 2576POPC   NC336431  30.582  17.182   9.493
 2576POPC   PO436432  30.810  17.793   9.332
 2576POPC   GL136433  30.761  17.407   9.087
 2576POPC   GL236434  31.056  17.168   9.067
 2576POPC   C1A36435  30.705  17.252   8.682
 2576POPC   D2A36436  30.872  17.124   8.289
 2576POPC   C3A36437  30.600  17.283   7.962
 2576POPC   C4A36438  30.524  17.665   7.756
 2576POPC   C1B36439  31.142  17.576   8.814
 2576POPC   C2B36440  31.006  17.704   8.422
 2576POPC   C3B36441  31.031  17.559   8.014
 2576POPC   C4B36442  31.002  17.582   7.585
 2577POPC   NC336443   2.871  24.553   9.823
 2577POPC   PO436444   2.603  24.141   9.589
 2577POPC   GL136445   2.745  24.333   9.153
 2577POPC   GL236446   3.077  24.484   9.057
 2577POPC   C1A36447   2.631  24.388   8.693
 2577POPC   D2A36448   2.340  24.549   8.362
 2577POPC   C3A36449   2.518  24.422   7.992
 2577POPC   C4A36450   2.960  24.268   7.987
 2577POPC   C1B36451   2.943  24.789   8.725
 2577POPC   C2B36452   2.841  24.727   8.266
 2577POPC   C3B36453   2.882  24.734   7.790
 2577POPC   C4B36454   3.023  24.531   7.372
 2578POPC   NC336455  44.658  17.962   9.532
 2578POPC   PO436456  44.379  18.677   9.406
 2578POPC   GL136457  44.316  18.358   9.128
 2578POPC   GL236458  44.646  18.270   9.134
 2578POPC   C1A36459  44.390  18.379   8.699
 2578POPC   D2A36460  44.665  18.554   8.431
 2578POPC   C3A36461  44.538  18.433   8.033
 2578POPC   C4A36462  44.602  18.587   7.624
 2578POPC   C1B36463  44.844  18.184   8.763
 2578POPC   C2B36464  44.775  18.019   8.358
 2578POPC   C3B36465  44.909  18.091   7.958
 2578POPC   C4B36466  44.815  18.111   7.519
 2579POPC   NC336467  16.011   0.850   9.482
 2579POPC   PO436468  15.752   0.264   9.554
 2579POPC   GL136469  15.931   0.460   9.157
 2579POPC   GL236470  16.298   0.596   9.141
 2579POPC   C1A36471  15.763   0.639   8.743
 2579POPC   D2A36472  15.579   0.561   8.311
 2579POPC   C3A36473  15.838   0.734   7.945
 2579POPC   C4A36474  16.198   0.743   7.634
 2579POPC   C1B36475  16.248   0.409   8.733
 2579POPC   C2B36476  16.159   0.498   8.296
 2579POPC   C3B36477  16.141   0.296   7.888
 2579POPC   C4B36478  15.901  44.965   7.679
 2580POPC   NC336479  36.777  11.476   9.559
 2580POPC   PO436480  37.238  10.975   9.729
 2580POPC   GL136481  37.016  11.073   9.311
 2580POPC   GL236482  36.981  11.414   9.103
 2580POPC   C1A36483  36.815  10.970   8.909
 2580POPC   D2A36484  36.881  11.248   8.551
 2580POPC   C3A36485  36.991  11.242   8.127
 2580POPC   C4A36486  36.812  11.091   7.752
 2580POPC   C1B36487  37.164  11.623   8.707
 2580POPC   C2B36488  36.873  11.725   8.329
 2580POPC   C3B36489  36.712  11.609   7.922
 2580POPC   C4B36490  36.942  11.531   7.542
 2581POPC   NC336491   3.692  43.167   9.549
 2581POPC   PO436492   3.040  43.152   9.531
 2581POPC   GL136493   3.311  43.363   9.237
 2581POPC   GL236494   3.434  43.053   9.113
 2581POPC   C1A36495   3.506  43.492   8.843
 2581POPC   D2A36496   3.507  43.578   8.379
 2581POPC   C3A36497   3.429  43.194   8.100
 2581POPC   C4A36498   3.448  43.139   7.626
 2581POPC   C1B36499   3.283  43.042   8.686
 2581POPC   C2B36500   3.230  42.663   8.462
 2581POPC   C3B36501   3.437  42.413   8.175
 2581POPC   C4B36502   3.452  42.689   7.849
 2582POPC   NC336503  32.055  32.135   9.536
 2582POPC   PO436504  32.670  32.180   9.383
 2582POPC   GL136505  32.318  32.231   9.115
 2582POPC   GL236506  32.138  31.903   9.105
 2582POPC   C1A36507  32.117  32.244   8.706
 2582POPC   D2A36508  32.117  32.501   8.324
 2582POPC   C3A36509  31.877  32.525   7.939
 2582POPC   C4A36510  31.957  32.666   7.531
 2582POPC   C1B36511  32.203  31.718   8.706
 2582POPC   C2B36512  32.023  31.751   8.293
 2582POPC   C3B36513  32.141  32.085   8.022
 2582POPC   C4B36514  32.382  32.405   7.788
 2583POPC   NC336515   4.816   4.285   9.448
 2583POPC   PO436516   5.078   4.852   9.604
 2583POPC   GL136517   5.274   4.593   9.276
 2583POPC   GL236518   5.368   4.243   9.296
 2583POPC   C1A36519   5.252   4.587   8.834
 2583POPC   D2A36520   4.952   4.460   8.546
 2583POPC   C3A36521   4.982   4.421   8.107
 2583POPC   C4A36522   5.258   4.551   7.806
 2583POPC   C1B36523   5.436   4.102   8.853
 2583POPC   C2B36524   5.241   4.049   8.438
 2583POPC   C3B36525   5.364   4.051   8.003
 2583POPC   C4B36526   5.247   4.031   7.578
 2584POPC   NC336527   8.136   5.320   9.412
 2584POPC   PO436528   8.439   4.662   9.434
 2584POPC   GL136529   8.255   4.891   9.112
 2584POPC   GL236530   8.351   5.214   8.981
 2584POPC   C1A36531   8.198   4.776   8.694
 2584POPC   D2A36532   8.116   4.966   8.314
 2584POPC   C3A36533   8.323   4.927   7.943
 2584POPC   C4A36534   8.167   4.886   7.526
 2584POPC   C1B36535   8.533   5.482   8.707
 2584POPC   C2B36536   8.426   5.385   8.317
 2584POPC   C3B36537   8.526   5.461   7.949
 2584POPC   C4B36538   8.352   5.327   7.589
 2585POPC   NC336539   7.501   5.422   9.448
 2585POPC   PO436540   7.270   5.877   9.771
 2585POPC   GL136541   7.353   5.908   9.305
 2585POPC   GL236542   7.033   6.077   9.264
 2585POPC   C1A36543   7.541   5.833   8.852
 2585POPC   D2A36544   7.708   5.930   8.391
 2585POPC   C3A36545   7.644   5.684   8.020
 2585POPC   C4A36546   7.434   5.636   7.630
 2585POPC   C1B36547   7.028   5.791   8.914
 2585POPC   C2B36548   6.957   5.819   8.474
 2585POPC   C3B36549   7.128   5.810   8.057
 2585POPC   C4B36550   6.928   5.600   7.747
 2586POPC   NC336551  41.158  20.325   9.501
 2586POPC   PO436552  41.493  19.663   9.475
 2586POPC   GL136553  41.627  19.747   9.102
 2586POPC   GL236554  41.387  19.546   8.946
 2586POPC   C1A36555  41.587  19.964   8.730
 2586POPC   D2A36556  41.417  19.836   8.357
 2586POPC   C3A36557  41.637  20.013   8.039
 2586POPC   C4A36558  41.818  19.951   7.627
 2586POPC   C1B36559  41.744  19.457   8.690
 2586POPC   C2B36560  41.678  19.374   8.302
 2586POPC   C3B36561  41.789  19.532   7.952
 2586POPC   C4B36562  41.914  19.303   7.651
 2587POPC   NC336563   5.577  17.962   9.431
 2587POPC   PO436564   6.058  18.427   9.441
 2587POPC   GL136565   5.959  18.167   9.130
 2587POPC   GL236566   5.630  18.332   9.067
 2587POPC   C1A36567   5.907  18.137   8.702
 2587POPC   D2A36568   5.924  18.349   8.324
 2587POPC   C3A36569   5.881  18.102   7.983
 2587POPC   C4A36570   5.675  18.133   7.594
 2587POPC   C1B36571   5.506  18.683   8.784
 2587POPC   C2B36572   5.567  18.786   8.350
 2587POPC   C3B36573   5.554  18.491   8.000
 2587POPC   C4B36574   5.565  18.643   7.613
 2588POPC   NC336575  20.404  22.634   9.606
 2588POPC   PO436576  20.450  23.221   9.449
 2588POPC   GL136577  20.612  22.955   9.103
 2588POPC   GL236578  20.491  22.604   9.082
 2588POPC   C1A36579  20.676  22.882   8.650
 2588POPC   D2A36580  20.596  22.701   8.243
 2588POPC   C3A36581  20.706  22.933   7.879
 2588POPC   C4A36582  20.646  23.222   7.540
 2588POPC   C1B36583  20.253  22.565   8.675
 2588POPC   C2B36584  20.132  22.460   8.208
 2588POPC   C3B36585  20.299  22.634   7.821
 2588POPC   C4B36586  20.483  22.751   7.458
 2589POPC   NC336587   9.515  15.477   9.648
 2589POPC   PO436588   9.719  14.951   9.665
 2589POPC   GL136589   9.877  14.965   9.244
 2589POPC   GL236590   9.779  15.299   9.227
 2589POPC   C1A36591   9.723  15.017   8.815
 2589POPC   D2A36592   9.764  15.304   8.500
 2589POPC   C3A36593   9.777  15.107   8.110
 2589POPC   C4A36594  10.010  15.220   7.735
 2589POPC   C1B36595   9.420  15.447   8.929
 2589POPC   C2B36596   9.313  15.523   8.470
 2589POPC   C3B36597   9.493  15.534   8.069
 2589POPC   C4B36598   9.501  15.258   7.708
 2590POPC   NC336599  39.512  11.031   9.352
 2590POPC   PO436600  38.907  11.373   9.542
 2590POPC   GL136601  39.049  11.216   9.135
 2590POPC   GL236602  39.123  10.910   9.022
 2590POPC   C1A36603  39.203  11.330   8.729
 2590POPC   D2A36604  39.171  11.264   8.328
 2590POPC   C3A36605  39.411  11.489   8.070
 2590POPC   C4A36606  39.150  11.528   7.706
 2590POPC   C1B36607  39.349  10.851   8.646
 2590POPC   C2B36608  39.654  11.054   8.422
 2590POPC   C3B36609  39.705  11.030   8.015
 2590POPC   C4B36610  39.489  11.147   7.676
 2591POPC   NC336611  34.211   0.614   9.530
 2591POPC   PO436612  33.671   0.334   9.661
 2591POPC   GL136613  33.760   0.444   9.243
 2591POPC   GL236614  33.830   0.816   9.180
 2591POPC   C1A36615  33.839   0.432   8.818
 2591POPC   D2A36616  34.139   0.631   8.539
 2591POPC   C3A36617  34.061   0.632   8.120
 2591POPC   C4A36618  33.842   0.334   7.861
 2591POPC   C1B36619  33.577   0.849   8.800
 2591POPC   C2B36620  33.616   0.632   8.398
 2591POPC   C3B36621  33.546   0.767   7.996
 2591POPC   C4B36622  33.567   0.676   7.569
 2592POPC   NC336623  28.983   8.397   9.747
 2592POPC   PO436624  29.441   7.942   9.448
 2592POPC   GL136625  29.336   8.171   9.152
 2592POPC   GL236626  29.068   8.327   9.236
 2592POPC   C1A36627  29.215   8.097   8.781
 2592POPC   D2A36628  29.343   8.446   8.566
 2592POPC   C3A36629  29.320   8.430   8.130
 2592POPC   C4A36630  29.217   8.256   7.739
 2592POPC   C1B36631  28.878   8.439   8.811
 2592POPC   C2B36632  28.884   8.290   8.384
 2592POPC   C3B36633  28.829   8.476   7.945
 2592POPC   C4B36634  28.789   8.477   7.447
 2593POPC   NC336635  10.720   3.568   9.475
 2593POPC   PO436636  10.282   3.171   9.636
 2593POPC   GL136637  10.326   3.412   9.158
 2593POPC   GL236638  10.608   3.650   9.017
 2593POPC   C1A36639  10.370   3.459   8.647
 2593POPC   D2A36640  10.194   3.584   8.273
 2593POPC   C3A36641  10.380   3.350   7.985
 2593POPC   C4A36642  10.647   3.549   7.717
 2593POPC   C1B36643  10.626   3.920   8.698
 2593POPC   C2B36644  10.712   3.735   8.288
 2593POPC   C3B36645  10.970   3.864   7.950
 2593POPC   C4B36646  10.980   3.945   7.519
 2594POPC   NC336647   7.790  10.265   9.426
 2594POPC   PO436648   7.238  10.594   9.706
 2594POPC   GL136649   7.321  10.470   9.233
 2594POPC   GL236650   7.004  10.377   9.080
 2594POPC   C1A36651   7.472  10.542   8.775
 2594POPC   D2A36652   7.343  10.646   8.353
 2594POPC   C3A36653   7.531  10.493   7.985
 2594POPC   C4A36654   7.502  10.833   7.736
 2594POPC   C1B36655   7.033  10.317   8.623
 2594POPC   C2B36656   7.303  10.119   8.281
 2594POPC   C3B36657   7.207  10.127   7.844
 2594POPC   C4B36658   7.104  10.503   7.655
 2595POPC   NC336659  37.645  19.501   9.946
 2595POPC   PO436660  37.450  20.008   9.563
 2595POPC   GL136661  37.699  19.905   9.182
 2595POPC   GL236662  37.841  20.169   9.049
 2595POPC   C1A36663  37.881  19.611   8.826
 2595POPC   D2A36664  37.952  19.490   8.404
 2595POPC   C3A36665  37.810  19.838   8.149
 2595POPC   C4A36666  37.914  20.139   7.796
 2595POPC   C1B36667  37.755  20.055   8.628
 2595POPC   C2B36668  37.438  20.131   8.340
 2595POPC   C3B36669  37.365  19.977   7.929
 2595POPC   C4B36670  37.498  20.031   7.511
 2596POPC   NC336671  43.617   7.700   9.571
 2596POPC   PO436672  43.036   7.493   9.762
 2596POPC   GL136673  43.162   7.663   9.323
 2596POPC   GL236674  43.358   7.450   9.207
 2596POPC   C1A36675  43.307   7.762   8.836
 2596POPC   D2A36676  43.437   7.782   8.421
 2596POPC   C3A36677  43.104   7.824   8.130
 2596POPC   C4A36678  43.312   7.794   7.745
 2596POPC   C1B36679  42.985   7.382   8.924
 2596POPC   C2B36680  43.044   7.405   8.498
 2596POPC   C3B36681  43.309   7.371   8.142
 2596POPC   C4B36682  42.974   7.424   7.804
 2597POPC   NC336683  15.354  33.388   9.347
 2597POPC   PO436684  14.941  32.788   9.380
 2597POPC   GL136685  15.131  32.986   9.134
 2597POPC   GL236686  14.895  33.249   9.174
 2597POPC   C1A36687  15.139  32.984   8.709
 2597POPC   D2A36688  15.160  32.698   8.392
 2597POPC   C3A36689  15.193  32.839   8.002
 2597POPC   C4A36690  14.896  32.822   7.695
 2597POPC   C1B36691  14.819  33.368   8.775
 2597POPC   C2B36692  15.012  33.469   8.402
 2597POPC   C3B36693  14.941  33.287   8.033
 2597POPC   C4B36694  15.055  33.323   7.653
 2598POPC   NC336695  10.553  37.890   9.641
 2598POPC   PO436696  10.985  37.390   9.680
 2598POPC   GL136697  10.652  37.564   9.264
 2598POPC   GL236698  10.553  37.908   9.125
 2598POPC   C1A36699  10.563  37.452   8.796
 2598POPC   D2A36700  10.280  37.331   8.402
 2598POPC   C3A36701  10.521  37.353   8.023
 2598POPC   C4A36702  10.794  37.632   7.820
 2598POPC   C1B36703  10.217  38.078   8.834
 2598POPC   C2B36704  10.092  37.919   8.402
 2598POPC   C3B36705  10.345  37.819   8.016
 2598POPC   C4B36706  10.398  37.794   7.547
 2599POPC   NC336707  21.118  28.394   9.523
 2599POPC   PO436708  21.726  28.638   9.421
 2599POPC   GL136709  21.450  28.573   9.143
 2599POPC   GL236710  21.234  28.828   9.136
 2599POPC   C1A36711  21.507  28.495   8.732
 2599POPC   D2A36712  21.384  28.246   8.418
 2599POPC   C3A36713  21.397  28.439   8.021
 2599POPC   C4A36714  21.242  28.143   7.750
 2599POPC   C1B36715  21.012  28.670   8.817
 2599POPC   C2B36716  21.156  28.704   8.418
 2599POPC   C3B36717  20.946  28.741   8.070
 2599POPC   C4B36718  20.965  28.574   7.702
 2600POPC   NC336719  20.220  38.408   9.567
 2600POPC   PO436720  20.891  38.025   9.596
 2600POPC   GL136721  20.828  38.235   9.169
 2600POPC   GL236722  20.556  38.483   9.166
 2600POPC   C1A36723  20.967  38.458   8.765
 2600POPC   D2A36724  20.823  38.432   8.319
 2600POPC   C3A36725  21.032  38.432   7.860
 2600POPC   C4A36726  21.039  38.244   7.408
 2600POPC   C1B36727  20.485  38.300   8.763
 2600POPC   C2B36728  20.213  38.302   8.388
 2600POPC   C3B36729  20.445  38.309   8.021
 2600POPC   C4B36730  20.600  38.704   7.924
 2601POPC   NC336731  36.510  15.469   9.409
 2601POPC   PO436732  36.999  15.128   9.151
 2601POPC   GL136733  36.735  15.393   8.956
 2601POPC   GL236734  36.481  15.135   8.998
 2601POPC   C1A36735  36.750  15.425   8.532
 2601POPC   D2A36736  36.968  15.195   8.239
 2601POPC   C3A36737  36.944  15.275   7.824
 2601POPC   C4A36738  37.106  15.070   7.470
 2601POPC   C1B36739  36.685  14.916   8.643
 2601POPC   C2B36740  36.547  14.916   8.247
 2601POPC   C3B36741  36.782  14.774   7.891
 2601POPC   C4B36742  36.636  14.788   7.472
 2602POPC   NC336743  38.824  25.540   9.279
 2602POPC   PO436744  39.402  25.348   9.516
 2602POPC   GL136745  39.206  25.243   9.105
 2602POPC   GL236746  39.346  24.960   8.915
 2602POPC   C1A36747  39.019  25.282   8.655
 2602POPC   D2A36748  39.199  25.515   8.303
 2602POPC   C3A36749  39.273  25.335   7.939
 2602POPC   C4A36750  39.177  25.021   7.704
 2602POPC   C1B36751  39.525  25.400   8.780
 2602POPC   C2B36752  39.608  25.689   8.504
 2602POPC   C3B36753  39.630  25.689   8.083
 2602POPC   C4B36754  39.777  25.482   7.757
 2603POPC   NC336755  10.791  24.561   9.798
 2603POPC   PO436756  10.161  24.265   9.625
 2603POPC   GL136757  10.277  24.252   9.210
 2603POPC   GL236758  10.103  24.566   9.176
 2603POPC   C1A36759  10.660  24.228   8.913
 2603POPC   D2A36760  10.590  24.242   8.445
 2603POPC   C3A36761  10.857  24.109   8.150
 2603POPC   C4A36762  10.740  24.358   7.835
 2603POPC   C1B36763  10.278  24.521   8.776
 2603POPC   C2B36764  10.624  24.743   8.559
 2603POPC   C3B36765  10.541  24.767   8.122
 2603POPC   C4B36766  10.354  24.672   7.722
 2604POPC   NC336767  10.295  32.536   9.444
 2604POPC   PO436768  10.951  32.242   9.419
 2604POPC   GL136769  10.552  32.212   9.160
 2604POPC   GL236770  10.711  31.940   8.994
 2604POPC   C1A36771  10.329  32.294   8.771
 2604POPC   D2A36772  10.145  32.219   8.374
 2604POPC   C3A36773  10.313  32.372   8.009
 2604POPC   C4A36774  10.474  32.282   7.630
 2604POPC   C1B36775  10.819  32.344   8.772
 2604POPC   C2B36776  10.673  32.434   8.383
 2604POPC   C3B36777  10.804  32.172   8.061
 2604POPC   C4B36778  10.984  32.215   7.686
 2605POPC   NC336779  43.573   4.443   9.485
 2605POPC   PO436780  42.948   4.312   9.605
 2605POPC   GL136781  43.026   4.395   9.162
 2605POPC   GL236782  43.373   4.467   9.024
 2605POPC   C1A36783  43.039   4.125   8.786
 2605POPC   D2A36784  43.290   4.144   8.389
 2605POPC   C3A36785  43.169   4.017   7.971
 2605POPC   C4A36786  42.976   4.196   7.605
 2605POPC   C1B36787  43.103   4.614   8.699
 2605POPC   C2B36788  43.184   4.705   8.315
 2605POPC   C3B36789  43.048   4.587   7.944
 2605POPC   C4B36790  43.193   4.749   7.571
 2606POPC   NC336791  35.487  22.961   9.705
 2606POPC   PO436792  35.837  22.384   9.589
 2606POPC   GL136793  35.675  22.737   9.247
 2606POPC   GL236794  35.474  23.093   9.222
 2606POPC   C1A36795  35.720  22.938   8.799
 2606POPC   D2A36796  35.742  23.014   8.344
 2606POPC   C3A36797  35.605  22.739   8.018
 2606POPC   C4A36798  35.539  22.791   7.570
 2606POPC   C1B36799  35.251  22.801   8.931
 2606POPC   C2B36800  35.285  22.809   8.465
 2606POPC   C3B36801  35.139  22.921   8.048
 2606POPC   C4B36802  35.074  22.546   7.811
 2607POPC   NC336803  28.788   1.503   9.460
 2607POPC   PO436804  28.452   0.900   9.385
 2607POPC   GL136805  28.413   1.212   9.100
 2607POPC   GL236806  28.726   1.112   8.987
 2607POPC   C1A36807  28.114   1.349   8.770
 2607POPC   D2A36808  28.112   1.597   8.382
 2607POPC   C3A36809  28.269   1.401   7.982
 2607POPC   C4A36810  28.566   1.587   7.658
 2607POPC   C1B36811  28.586   1.191   8.603
 2607POPC   C2B36812  28.289   1.002   8.368
 2607POPC   C3B36813  28.542   0.817   8.100
 2607POPC   C4B36814  28.560   1.046   7.743
 2608POPC   NC336815  36.636  26.036   9.805
 2608POPC   PO436816  37.082  25.870   9.323
 2608POPC   GL136817  36.939  25.941   8.968
 2608POPC   GL236818  36.675  26.205   9.012
 2608POPC   C1A36819  37.055  25.809   8.588
 2608POPC   D2A36820  37.059  26.166   8.359
 2608POPC   C3A36821  37.047  25.990   7.983
 2608POPC   C4A36822  36.843  26.254   7.757
 2608POPC   C1B36823  36.615  26.064   8.596
 2608POPC   C2B36824  36.541  26.132   8.171
 2608POPC   C3B36825  36.534  25.846   7.835
 2608POPC   C4B36826  36.406  25.769   7.413
 2609POPC   NC336827  32.276  25.758   9.540
 2609POPC   PO436828  32.450  26.269   9.521
 2609POPC   GL136829  32.328  26.250   9.115
 2609POPC   GL236830  32.588  26.441   9.015
 2609POPC   C1A36831  32.108  26.328   8.714
 2609POPC   D2A36832  32.150  26.104   8.331
 2609POPC   C3A36833  32.174  26.301   7.923
 2609POPC   C4A36834  32.190  26.069   7.536
 2609POPC   C1B36835  32.592  26.246   8.619
 2609POPC   C2B36836  32.645  26.156   8.178
 2609POPC   C3B36837  32.668  26.142   7.731
 2609POPC   C4B36838  32.841  26.191   7.287
 2610POPC   NC336839   3.461  39.664   9.598
 2610POPC   PO436840   3.875  40.150   9.443
 2610POPC   GL136841   3.522  40.015   9.204
 2610POPC   GL236842   3.519  39.694   9.099
 2610POPC   C1A36843   3.357  40.108   8.812
 2610POPC   D2A36844   3.571  40.194   8.432
 2610POPC   C3A36845   3.463  39.983   8.071
 2610POPC   C4A36846   3.569  40.111   7.677
 2610POPC   C1B36847   3.735  39.774   8.730
 2610POPC   C2B36848   3.839  39.685   8.309
 2610POPC   C3B36849   3.862  39.729   7.840
 2610POPC   C4B36850   3.813  39.747   7.369
 2611POPC   NC336851  37.251  14.800   9.348
 2611POPC   PO436852  36.877  14.333   9.616
 2611POPC   GL136853  36.768  14.285   9.168
 2611POPC   GL236854  36.883  14.614   9.035
 2611POPC   C1A36855  36.513  14.390   8.790
 2611POPC   D2A36856  36.684  14.440   8.375
 2611POPC   C3A36857  36.588  14.159   8.064
 2611POPC   C4A36858  36.668  14.308   7.651
 2611POPC   C1B36859  37.025  14.295   8.718
 2611POPC   C2B36860  37.245  14.371   8.330
 2611POPC   C3B36861  37.114  14.377   7.899
 2611POPC   C4B36862  37.101  14.526   7.445
 2612POPC   NC336863  19.428  26.400   9.476
 2612POPC   PO436864  20.031  26.591   9.489
 2612POPC   GL136865  19.959  26.846   9.169
 2612POPC   GL236866  19.594  26.842   9.128
 2612POPC   C1A36867  19.935  26.996   8.769
 2612POPC   D2A36868  20.062  26.779   8.445
 2612POPC   C3A36869  19.783  26.758   8.178
 2612POPC   C4A36870  19.848  26.781   7.775
 2612POPC   C1B36871  19.587  26.647   8.706
 2612POPC   C2B36872  19.304  26.707   8.361
 2612POPC   C3B36873  19.361  26.574   7.928
 2612POPC   C4B36874  19.407  26.821   7.572
 2613POPC   NC336875  40.504  28.910   9.754
 2613POPC   PO436876  40.733  28.385   9.407
 2613POPC   GL136877  40.909  28.259   9.052
 2613POPC   GL236878  40.662  28.492   8.900
 2613POPC   C1A36879  41.085  28.276   8.662
 2613POPC   D2A36880  40.799  28.387   8.361
 2613POPC   C3A36881  40.966  28.437   7.983
 2613POPC   C4A36882  41.036  28.198   7.650
 2613POPC   C1B36883  40.574  28.076   8.712
 2613POPC   C2B36884  40.408  28.007   8.298
 2613POPC   C3B36885  40.586  28.110   7.879
 2613POPC   C4B36886  40.587  28.094   7.377
 2614POPC   NC336887  44.176  25.124   9.400
 2614POPC   PO436888  43.682  25.536   9.442
 2614POPC   GL136889  43.871  25.351   9.036
 2614POPC   GL236890  43.990  24.986   8.969
 2614POPC   C1A36891  43.637  25.150   8.662
 2614POPC   D2A36892  43.746  25.115   8.280
 2614POPC   C3A36893  44.014  25.436   8.155
 2614POPC   C4A36894  43.992  25.484   7.739
 2614POPC   C1B36895  44.147  25.171   8.603
 2614POPC   C2B36896  44.254  24.973   8.218
 2614POPC   C3B36897  43.986  24.976   7.839
 2614POPC   C4B36898  44.096  25.053   7.385
 2615POPC   NC336899  35.474   3.528   9.492
 2615POPC   PO436900  34.933   4.035   9.517
 2615POPC   GL136901  35.070   3.692   9.207
 2615POPC   GL236902  35.096   3.313   9.083
 2615POPC   C1A36903  35.359   3.709   8.854
 2615POPC   D2A36904  35.550   3.882   8.499
 2615POPC   C3A36905  35.328   3.747   8.121
 2615POPC   C4A36906  35.577   3.642   7.762
 2615POPC   C1B36907  35.496   3.228   8.811
 2615POPC   C2B36908  35.599   3.378   8.380
 2615POPC   C3B36909  35.492   3.174   8.003
 2615POPC   C4B36910  35.151   3.185   7.742
 2616POPC   NC336911  27.181  43.421   9.452
 2616POPC   PO436912  27.688  43.184   9.610
 2616POPC   GL136913  27.616  43.021   9.215
 2616POPC   GL236914  27.870  43.252   9.112
 2616POPC   C1A36915  27.480  43.102   8.782
 2616POPC   D2A36916  27.261  43.132   8.383
 2616POPC   C3A36917  27.473  42.967   8.031
 2616POPC   C4A36918  27.468  43.274   7.751
 2616POPC   C1B36919  27.894  43.410   8.708
 2616POPC   C2B36920  27.789  43.233   8.334
 2616POPC   C3B36921  27.945  43.279   7.919
 2616POPC   C4B36922  27.885  43.656   7.631
 2617POPC   NC336923  43.571  26.270   9.352
 2617POPC   PO436924  42.959  26.225   9.500
 2617POPC   GL136925  43.053  25.944   9.127
 2617POPC   GL236926  42.931  25.584   9.057
 2617POPC   C1A36927  43.299  26.073   8.744
 2617POPC   D2A36928  43.589  26.130   8.394
 2617POPC   C3A36929  43.430  26.330   8.006
 2617POPC   C4A36930  43.120  26.133   7.684
 2617POPC   C1B36931  42.929  25.739   8.622
 2617POPC   C2B36932  42.973  25.776   8.159
 2617POPC   C3B36933  43.025  25.643   7.706
 2617POPC   C4B36934  43.012  25.730   7.249
 2618POPC   NC336935  14.383  37.529   9.493
 2618POPC   PO436936  14.889  37.274   9.280
 2618POPC   GL136937  14.626  37.598   9.050
 2618POPC   GL236938  14.247  37.623   9.029
 2618POPC   C1A36939  14.502  37.735   8.613
 2618POPC   D2A36940  14.344  37.790   8.222
 2618POPC   C3A36941  14.586  37.923   7.923
 2618POPC   C4A36942  14.669  37.742   7.544
 2618POPC   C1B36943  13.980  37.407   8.770
 2618POPC   C2B36944  14.016  37.328   8.341
 2618POPC   C3B36945  14.041  37.504   7.906
 2618POPC   C4B36946  14.003  37.529   7.446
 2619POPC   NC336947  32.430  36.397   9.438
 2619POPC   PO436948  32.009  35.973   9.448
 2619POPC   GL136949  32.214  36.052   9.085
 2619POPC   GL236950  32.554  35.998   9.128
 2619POPC   C1A36951  32.089  36.212   8.689
 2619POPC   D2A36952  31.833  36.242   8.337
 2619POPC   C3A36953  32.072  36.230   7.969
 2619POPC   C4A36954  32.307  36.079   7.646
 2619POPC   C1B36955  32.560  36.001   8.683
 2619POPC   C2B36956  32.517  36.090   8.267
 2619POPC   C3B36957  32.742  35.984   7.898
 2619POPC   C4B36958  32.713  35.850   7.460
 2620POPC   NC336959   9.180  18.992   9.519
 2620POPC   PO436960   8.781  19.459   9.727
 2620POPC   GL136961   8.958  19.540   9.244
 2620POPC   GL236962   9.299  19.406   9.207
 2620POPC   C1A36963   8.853  19.421   8.799
 2620POPC   D2A36964   8.898  19.162   8.446
 2620POPC   C3A36965   8.959  19.355   8.049
 2620POPC   C4A36966   8.807  19.053   7.814
 2620POPC   C1B36967   9.318  19.167   8.821
 2620POPC   C2B36968   9.343  18.846   8.489
 2620POPC   C3B36969   9.250  18.941   8.075
 2620POPC   C4B36970   9.157  18.718   7.712
 2621POPC   NC336971   6.901   1.855   9.493
 2621POPC   PO436972   6.216   2.111   9.664
 2621POPC   GL136973   6.390   2.033   9.171
 2621POPC   GL236974   6.750   2.097   9.084
 2621POPC   C1A36975   6.537   1.821   8.742
 2621POPC   D2A36976   6.554   1.985   8.322
 2621POPC   C3A36977   6.545   1.692   7.952
 2621POPC   C4A36978   6.416   1.855   7.577
 2621POPC   C1B36979   7.014   2.119   8.693
 2621POPC   C2B36980   7.046   1.961   8.257
 2621POPC   C3B36981   6.834   2.111   7.899
 2621POPC   C4B36982   6.882   2.035   7.447
 2622POPC   NC336983   4.814  18.411   9.652
 2622POPC   PO436984   5.185  17.984   9.643
 2622POPC   GL136985   5.150  18.272   9.260
 2622POPC   GL236986   4.896  18.527   9.159
 2622POPC   C1A36987   5.193  18.266   8.800
 2622POPC   D2A36988   5.221  18.414   8.390
 2622POPC   C3A36989   5.160  18.140   8.038
 2622POPC   C4A36990   5.155  18.325   7.637
 2622POPC   C1B36991   4.719  18.489   8.794
 2622POPC   C2B36992   4.768  18.610   8.394
 2622POPC   C3B36993   4.754  18.417   8.012
 2622POPC   C4B36994   4.493  18.426   7.674
 2623POPC   NC336995  19.689   3.054   9.634
 2623POPC   PO436996  19.781   3.765   9.487
 2623POPC   GL136997  20.058   3.634   9.111
 2623POPC   GL236998  19.893   3.373   8.919
 2623POPC   C1A36999  20.222   3.631   8.648
 2623POPC   D2A37000  20.071   3.885   8.311
 2623POPC   C3A37001  20.010   3.658   7.959
 2623POPC   C4A37002  20.064   3.227   7.793
 2623POPC   C1B37003  19.714   3.705   8.693
 2623POPC   C2B37004  19.394   3.651   8.431
 2623POPC   C3B37005  19.494   3.554   8.019
 2623POPC   C4B37006  19.674   3.537   7.593
 2624POPC   NC337007   6.150  44.363   9.478
 2624POPC   PO437008   6.779  44.778   9.416
 2624POPC   GL137009   6.517  44.563   9.158
 2624POPC   GL237010   6.434  44.888   8.990
 2624POPC   C1A37011   6.405  44.378   8.755
 2624POPC   D2A37012   6.290  44.575   8.345
 2624POPC   C3A37013   6.439  44.406   7.964
 2624POPC   C4A37014   6.816  44.189   7.911
 2624POPC   C1B37015   6.807  44.705   8.738
 2624POPC   C2B37016   6.819  44.528   8.324
 2624POPC   C3B37017   6.881  44.734   7.928
 2624POPC   C4B37018   6.561   0.015   7.794
 2625POPC   NC337019   8.521   8.634   9.406
 2625POPC   PO437020   8.069   9.075   9.602
 2625POPC   GL137021   8.152   9.103   9.147
 2625POPC   GL237022   8.481   9.126   9.229
 2625POPC   C1A37023   8.097   9.048   8.674
 2625POPC   D2A37024   8.403   8.912   8.343
 2625POPC   C3A37025   8.279   8.977   7.927
 2625POPC   C4A37026   7.874   8.891   7.817
 2625POPC   C1B37027   8.568   9.042   8.813
 2625POPC   C2B37028   8.709   9.302   8.460
 2625POPC   C3B37029   8.601   9.399   8.023
 2625POPC   C4B37030   8.485   9.322   7.583
 2626POPC   NC337031  14.276  19.372   9.860
 2626POPC   PO437032  14.435  19.954   9.501
 2626POPC   GL137033  14.634  19.818   9.174
 2626POPC   GL237034  14.701  20.168   9.099
 2626POPC   C1A37035  14.623  19.712   8.743
 2626POPC   D2A37036  14.471  19.836   8.330
 2626POPC   C3A37037  14.113  19.673   8.073
 2626POPC   C4A37038  14.073  19.377   7.713
 2626POPC   C1B37039  14.568  20.272   8.688
 2626POPC   C2B37040  14.638  20.322   8.243
 2626POPC   C3B37041  14.536  20.054   7.876
 2626POPC   C4B37042  14.525  19.629   7.774
 2627POPC   NC337043  22.611  14.160   9.666
 2627POPC   PO437044  22.541  13.510   9.854
 2627POPC   GL137045  22.511  13.550   9.369
 2627POPC   GL237046  22.672  13.845   9.243
 2627POPC   C1A37047  22.552  13.431   8.882
 2627POPC   D2A37048  22.725  13.590   8.441
 2627POPC   C3A37049  22.703  13.445   7.984
 2627POPC   C4A37050  22.556  13.074   7.739
 2627POPC   C1B37051  22.987  13.708   8.914
 2627POPC   C2B37052  23.235  13.586   8.532
 2627POPC   C3B37053  23.218  13.517   8.077
 2627POPC   C4B37054  23.231  13.350   7.650
 2628POPC   NC337055  13.662  12.973   9.525
 2628POPC   PO437056  13.387  12.351   9.706
 2628POPC   GL137057  13.390  12.607   9.297
 2628POPC   GL237058  13.694  12.598   9.144
 2628POPC   C1A37059  13.418  12.942   8.903
 2628POPC   D2A37060  13.359  12.901   8.440
 2628POPC   C3A37061  13.462  13.243   8.139
 2628POPC   C4A37062  13.789  13.255   7.805
 2628POPC   C1B37063  13.300  12.465   8.828
 2628POPC   C2B37064  13.332  12.331   8.433
 2628POPC   C3B37065  13.621  12.543   8.146
 2628POPC   C4B37066  13.497  12.833   7.804
 2629POPC   NC337067  20.519  28.723   9.594
 2629POPC   PO437068  20.774  28.081   9.536
 2629POPC   GL137069  20.705  28.406   9.214
 2629POPC   GL237070  20.351  28.419   9.213
 2629POPC   C1A37071  20.688  28.263   8.787
 2629POPC   D2A37072  20.862  28.280   8.376
 2629POPC   C3A37073  20.603  28.363   8.037
 2629POPC   C4A37074  20.727  28.135   7.713
 2629POPC   C1B37075  20.391  28.661   8.845
 2629POPC   C2B37076  20.572  28.691   8.467
 2629POPC   C3B37077  20.402  28.841   8.124
 2629POPC   C4B37078  20.492  28.792   7.725
 2630POPC   NC337079  12.623  11.628   9.458
 2630POPC   PO437080  12.666  10.944   9.468
 2630POPC   GL137081  12.886  11.028   9.107
 2630POPC   GL237082  12.943  11.353   9.164
 2630POPC   C1A37083  12.639  11.245   8.761
 2630POPC   D2A37084  12.579  11.574   8.438
 2630POPC   C3A37085  12.646  11.327   8.031
 2630POPC   C4A37086  12.857  11.377   7.631
 2630POPC   C1B37087  13.068  11.539   8.784
 2630POPC   C2B37088  13.021  11.324   8.405
 2630POPC   C3B37089  13.168  11.358   8.021
 2630POPC   C4B37090  13.353  11.231   7.641
 2631POPC   NC337091  11.632  26.117   9.467
 2631POPC   PO437092  11.968  26.580   9.757
 2631POPC   GL137093  11.963  26.358   9.206
 2631POPC   GL237094  11.601  26.320   9.007
 2631POPC   C1A37095  12.026  26.069   8.853
 2631POPC   D2A37096  12.208  26.175   8.457
 2631POPC   C3A37097  11.985  26.035   8.097
 2631POPC   C4A37098  11.999  25.801   7.762
 2631POPC   C1B37099  11.809  26.520   8.693
 2631POPC   C2B37100  11.859  26.503   8.283
 2631POPC   C3B37101  11.619  26.417   7.992
 2631POPC   C4B37102  11.877  26.324   7.664
 2632POPC   NC337103  18.398  44.835   9.800
 2632POPC   PO437104  17.932  44.473   9.525
 2632POPC   GL137105  18.311  44.630   9.275
 2632POPC   GL237106  18.478  44.954   9.303
 2632POPC   C1A37107  18.446  44.541   8.844
 2632POPC   D2A37108  18.294  44.629   8.408
 2632POPC   C3A37109  18.292  44.431   7.969
 2632POPC   C4A37110  18.249  44.722   7.594
 2632POPC   C1B37111  18.489   0.079   8.876
 2632POPC   C2B37112  18.455   0.138   8.430
 2632POPC   C3B37113  18.459  44.937   8.021
 2632POPC   C4B37114  18.657   0.023   7.631
 2633POPC   NC337115  15.727  19.668   9.559
 2633POPC   PO437116  15.709  20.295   9.631
 2633POPC   GL137117  15.641  20.130   9.228
 2633POPC   GL237118  15.978  19.989   9.219
 2633POPC   C1A37119  15.611  19.805   8.906
 2633POPC   D2A37120  15.817  19.511   8.614
 2633POPC   C3A37121  15.811  19.577   8.157
 2633POPC   C4A37122  16.101  19.711   7.847
 2633POPC   C1B37123  16.367  20.172   9.021
 2633POPC   C2B37124  16.430  20.220   8.569
 2633POPC   C3B37125  16.380  20.082   8.135
 2633POPC   C4B37126  16.624  19.770   7.867
 2634POPC   NC337127  13.982  35.331   9.390
 2634POPC   PO437128  13.346  35.534   9.535
 2634POPC   GL137129  13.535  35.540   9.124
 2634POPC   GL237130  13.651  35.235   9.027
 2634POPC   C1A37131  13.731  35.577   8.684
 2634POPC   D2A37132  13.857  35.714   8.261
 2634POPC   C3A37133  13.726  35.540   7.905
 2634POPC   C4A37134  13.819  35.124   7.822
 2634POPC   C1B37135  13.387  35.183   8.671
 2634POPC   C2B37136  13.578  35.150   8.301
 2634POPC   C3B37137  13.336  35.203   7.992
 2634POPC   C4B37138  13.071  34.954   7.826
 2635POPC   NC337139  19.542  27.235   9.562
 2635POPC   PO437140  19.916  27.802   9.574
 2635POPC   GL137141  19.855  27.678   9.153
 2635POPC   GL237142  19.812  27.334   9.156
 2635POPC   C1A37143  19.997  27.530   8.739
 2635POPC   D2A37144  19.935  27.727   8.379
 2635POPC   C3A37145  19.996  27.514   8.005
 2635POPC   C4A37146  19.845  27.779   7.646
 2635POPC   C1B37147  19.535  27.287   8.804
 2635POPC   C2B37148  19.704  27.253   8.383
 2635POPC   C3B37149  19.529  27.163   7.996
 2635POPC   C4B37150  19.682  27.266   7.635
 2636POPC   NC337151  12.658  25.719   9.429
 2636POPC   PO437152  12.903  25.121   9.640
 2636POPC   GL137153  13.055  25.380   9.269
 2636POPC   GL237154  12.836  25.171   9.043
 2636POPC   C1A37155  12.991  25.623   8.852
 2636POPC   D2A37156  12.696  25.402   8.568
 2636POPC   C3A37157  12.716  25.440   8.130
 2636POPC   C4A37158  12.938  25.289   7.765
 2636POPC   C1B37159  12.481  24.967   8.787
 2636POPC   C2B37160  12.481  24.723   8.367
 2636POPC   C3B37161  12.549  24.949   7.941
 2636POPC   C4B37162  12.642  25.003   7.471
 2637POPC   NC337163   4.756   9.345   9.475
 2637POPC   PO437164   5.063   9.975   9.575
 2637POPC   GL137165   5.098   9.678   9.220
 2637POPC   GL237166   5.424   9.484   9.153
 2637POPC   C1A37167   5.145   9.784   8.785
 2637POPC   D2A37168   4.909   9.812   8.396
 2637POPC   C3A37169   5.120   9.826   8.017
 2637POPC   C4A37170   4.980   9.833   7.585
 2637POPC   C1B37171   5.386   9.308   8.777
 2637POPC   C2B37172   5.330   9.494   8.395
 2637POPC   C3B37173   5.456   9.384   8.020
 2637POPC   C4B37174   5.430   9.609   7.674
 2638POPC   NC337175  14.232  28.232   9.592
 2638POPC   PO437176  14.823  28.137   9.269
 2638POPC   GL137177  14.485  28.421   9.169
 2638POPC   GL237178  14.132  28.270   9.106
 2638POPC   C1A37179  14.339  28.600   8.788
 2638POPC   D2A37180  14.289  28.429   8.386
 2638POPC   C3A37181  14.546  28.610   8.077
 2638POPC   C4A37182  14.799  28.655   7.711
 2638POPC   C1B37183  14.198  28.043   8.718
 2638POPC   C2B37184  14.095  27.967   8.270
 2638POPC   C3B37185  14.271  28.129   7.888
 2638POPC   C4B37186  14.135  28.012   7.469
 2639POPC   NC337187   7.393  29.028   9.577
 2639POPC   PO437188   7.431  29.639   9.563
 2639POPC   GL137189   7.268  29.404   9.179
 2639POPC   GL237190   7.169  29.037   9.112
 2639POPC   C1A37191   7.240  29.321   8.709
 2639POPC   D2A37192   7.036  29.248   8.323
 2639POPC   C3A37193   7.296  29.291   7.946
 2639POPC   C4A37194   7.599  29.216   7.601
 2639POPC   C1B37195   7.231  28.813   8.706
 2639POPC   C2B37196   7.430  28.924   8.328
 2639POPC   C3B37197   7.335  28.777   7.916
 2639POPC   C4B37198   7.078  28.469   7.693
 2640POPC   NC337199  22.503  32.724   9.443
 2640POPC   PO437200  22.172  33.387   9.337
 2640POPC   GL137201  22.238  33.017   9.117
 2640POPC   GL237202  21.908  32.877   9.082
 2640POPC   C1A37203  22.337  32.945   8.718
 2640POPC   D2A37204  22.361  32.704   8.350
 2640POPC   C3A37205  22.471  32.842   7.955
 2640POPC   C4A37206  22.424  33.236   7.761
 2640POPC   C1B37207  21.895  33.216   8.755
 2640POPC   C2B37208  22.067  33.278   8.337
 2640POPC   C3B37209  22.001  33.039   7.947
 2640POPC   C4B37210  22.055  32.565   7.904
 2641POPC   NC337211   7.562  42.777   9.488
 2641POPC   PO437212   7.022  43.169   9.442
 2641POPC   GL137213   7.280  43.146   9.031
 2641POPC   GL237214   7.644  43.113   9.086
 2641POPC   C1A37215   7.416  43.165   8.566
 2641POPC   D2A37216   7.409  43.010   8.136
 2641POPC   C3A37217   7.159  43.294   7.889
 2641POPC   C4A37218   6.897  43.423   7.518
 2641POPC   C1B37219   7.897  43.223   8.743
 2641POPC   C2B37220   7.880  43.342   8.329
 2641POPC   C3B37221   7.656  43.416   7.948
 2641POPC   C4B37222   7.584  43.119   7.630
 2642POPC   NC337223  32.620  32.618   9.492
 2642POPC   PO437224  33.251  32.262   9.595
 2642POPC   GL137225  33.073  32.512   9.228
 2642POPC   GL237226  33.035  32.251   9.057
 2642POPC   C1A37227  33.163  32.608   8.751
 2642POPC   D2A37228  32.996  32.398   8.381
 2642POPC   C3A37229  33.156  32.422   7.969
 2642POPC   C4A37230  32.889  32.443   7.570
 2642POPC   C1B37231  32.686  32.359   8.777
 2642POPC   C2B37232  32.538  32.093   8.469
 2642POPC   C3B37233  32.676  32.124   8.080
 2642POPC   C4B37234  32.919  31.986   7.784
 2643POPC   NC337235  38.516  11.117   9.447
 2643POPC   PO437236  38.762  11.647   9.106
 2643POPC   GL137237  38.564  11.343   8.980
 2643POPC   GL237238  38.242  11.337   9.096
 2643POPC   C1A37239  38.720  11.059   8.727
 2643POPC   D2A37240  38.805  10.918   8.366
 2643POPC   C3A37241  38.703  11.135   7.999
 2643POPC   C4A37242  38.486  10.894   7.680
 2643POPC   C1B37243  38.178  11.190   8.689
 2643POPC   C2B37244  38.304  11.082   8.307
 2643POPC   C3B37245  38.176  11.198   7.929
 2643POPC   C4B37246  37.847  11.168   7.672
 2644POPC   NC337247  25.764  25.351   9.379
 2644POPC   PO437248  26.210  25.011   9.421
 2644POPC   GL137249  26.138  25.241   9.051
 2644POPC   GL237250  26.252  25.568   9.196
 2644POPC   C1A37251  25.823  25.232   8.674
 2644POPC   D2A37252  25.660  25.299   8.214
 2644POPC   C3A37253  25.824  25.072   7.815
 2644POPC   C4A37254  26.005  24.829   7.436
 2644POPC   C1B37255  26.132  25.640   8.759
 2644POPC   C2B37256  26.139  25.462   8.338
 2644POPC   C3B37257  26.035  25.523   7.904
 2644POPC   C4B37258  26.025  25.781   7.546
 2645POPC   NC337259   7.617  30.774   9.525
 2645POPC   PO437260   7.141  30.371   9.227
 2645POPC   GL137261   7.416  30.704   9.049
 2645POPC   GL237262   7.387  31.040   9.151
 2645POPC   C1A37263   7.457  30.773   8.613
 2645POPC   D2A37264   7.378  30.459   8.353
 2645POPC   C3A37265   7.208  30.538   7.983
 2645POPC   C4A37266   7.393  30.689   7.640
 2645POPC   C1B37267   7.761  31.089   8.846
 2645POPC   C2B37268   7.865  31.033   8.426
 2645POPC   C3B37269   7.631  30.853   8.104
 2645POPC   C4B37270   7.570  31.131   7.778
 2646POPC   NC337271  36.323  10.141   9.797
 2646POPC   PO437272  35.885  10.129   9.291
 2646POPC   GL137273  36.136   9.703   9.078
 2646POPC   GL237274  36.020   9.356   9.011
 2646POPC   C1A37275  36.409   9.678   8.673
 2646POPC   D2A37276  36.303   9.692   8.186
 2646POPC   C3A37277  36.294   9.853   7.727
 2646POPC   C4A37278  36.298   9.618   7.298
 2646POPC   C1B37279  36.008   9.376   8.588
 2646POPC   C2B37280  35.679   9.522   8.351
 2646POPC   C3B37281  35.717   9.739   7.961
 2646POPC   C4B37282  35.828   9.648   7.527
 2647POPC   NC337283   9.581  41.130   9.607
 2647POPC   PO437284   9.825  40.566   9.742
 2647POPC   GL137285   9.683  40.699   9.311
 2647POPC   GL237286   9.866  40.959   9.213
 2647POPC   C1A37287   9.612  40.629   8.850
 2647POPC   D2A37288   9.810  40.639   8.421
 2647POPC   C3A37289   9.552  40.576   8.036
 2647POPC   C4A37290   9.543  40.385   7.584
 2647POPC   C1B37291  10.000  41.138   8.844
 2647POPC   C2B37292   9.974  41.159   8.425
 2647POPC   C3B37293   9.970  40.978   8.036
 2647POPC   C4B37294   9.722  40.898   7.677
 2648POPC   NC337295  11.627  18.682   9.565
 2648POPC   PO437296  11.684  18.020   9.553
 2648POPC   GL137297  11.833  18.184   9.153
 2648POPC   GL237298  11.955  18.532   9.157
 2648POPC   C1A37299  11.900  18.264   8.717
 2648POPC   D2A37300  12.217  18.254   8.379
 2648POPC   C3A37301  12.041  18.277   7.934
 2648POPC   C4A37302  12.024  18.346   7.471
 2648POPC   C1B37303  12.219  18.712   8.796
 2648POPC   C2B37304  12.454  18.717   8.432
 2648POPC   C3B37305  12.481  18.522   8.037
 2648POPC   C4B37306  12.344  18.690   7.680
 2649POPC   NC337307  43.349  41.122   9.447
 2649POPC   PO437308  42.864  41.573   9.639
 2649POPC   GL137309  43.127  41.554   9.195
 2649POPC   GL237310  43.159  41.263   8.995
 2649POPC   C1A37311  43.288  41.647   8.747
 2649POPC   D2A37312  43.187  41.857   8.402
 2649POPC   C3A37313  43.259  41.668   7.988
 2649POPC   C4A37314  43.214  41.840   7.589
 2649POPC   C1B37315  42.887  41.337   8.644
 2649POPC   C2B37316  42.834  41.533   8.249
 2649POPC   C3B37317  42.844  41.327   7.848
 2649POPC   C4B37318  42.799  41.353   7.379
 2650POPC   NC337319  34.196  11.599   9.556
 2650POPC   PO437320  34.706  11.133   9.501
 2650POPC   GL137321  34.416  11.226   9.212
 2650POPC   GL237322  34.539  11.542   9.137
 2650POPC   C1A37323  34.459  11.209   8.771
 2650POPC   D2A37324  34.724  11.219   8.416
 2650POPC   C3A37325  34.437  11.292   8.117
 2650POPC   C4A37326  34.350  11.446   7.756
 2650POPC   C1B37327  34.778  11.637   8.757
 2650POPC   C2B37328  34.726  11.728   8.308
 2650POPC   C3B37329  34.894  11.491   7.972
 2650POPC   C4B37330  34.806  11.543   7.556
 2651POPC   NC337331  33.994  13.843   9.420
 2651POPC   PO437332  34.413  13.247   9.483
 2651POPC   GL137333  34.028  13.313   9.188
 2651POPC   GL237334  33.686  13.403   9.222
 2651POPC   C1A37335  33.931  13.378   8.772
 2651POPC   D2A37336  33.983  13.730   8.561
 2651POPC   C3A37337  33.998  13.741   8.123
 2651POPC   C4A37338  34.262  13.609   7.784
 2651POPC   C1B37339  33.546  13.706   8.868
 2651POPC   C2B37340  33.476  13.618   8.419
 2651POPC   C3B37341  33.497  13.761   7.958
 2651POPC   C4B37342  33.794  13.591   7.641
 2652POPC   NC337343  17.613  22.589   9.802
 2652POPC   PO437344  17.630  21.950   9.594
 2652POPC   GL137345  17.552  22.109   9.190
 2652POPC   GL237346  17.535  22.446   9.302
 2652POPC   C1A37347  17.644  22.095   8.753
 2652POPC   D2A37348  17.831  21.872   8.385
 2652POPC   C3A37349  17.683  22.080   8.006
 2652POPC   C4A37350  17.344  21.948   7.754
 2652POPC   C1B37351  17.303  22.541   8.940
 2652POPC   C2B37352  17.171  22.422   8.536
 2652POPC   C3B37353  17.102  22.416   8.085
 2652POPC   C4B37354  17.423  22.452   7.749
 2653POPC   NC337355  40.502   8.906   9.581
 2653POPC   PO437356  41.150   8.843   9.500
 2653POPC   GL137357  40.843   8.995   9.164
 2653POPC   GL237358  40.476   9.159   9.065
 2653POPC   C1A37359  40.716   8.779   8.791
 2653POPC   D2A37360  40.552   8.761   8.386
 2653POPC   C3A37361  40.860   8.677   8.072
 2653POPC   C4A37362  40.903   8.795   7.651
 2653POPC   C1B37363  40.762   9.281   8.731
 2653POPC   C2B37364  40.925   9.129   8.339
 2653POPC   C3B37365  40.651   9.127   7.983
 2653POPC   C4B37366  40.734   9.299   7.592
 2654POPC   NC337367  44.245  30.777   9.466
 2654POPC   PO437368  44.886  31.041   9.503
 2654POPC   GL137369  44.663  30.908   9.188
 2654POPC   GL237370  44.742  30.562   9.194
 2654POPC   C1A37371  44.494  30.776   8.804
 2654POPC   D2A37372  44.353  30.711   8.409
 2654POPC   C3A37373  44.555  30.788   8.043
 2654POPC   C4A37374  44.400  31.070   7.763
 2654POPC   C1B37375  44.692  30.311   8.816
 2654POPC   C2B37376  44.649  30.240   8.377
 2654POPC   C3B37377  44.962  30.286   8.087
 2654POPC   C4B37378  44.835  30.468   7.732
 2655POPC   NC337379  10.129   6.449   9.462
 2655POPC   PO437380   9.596   6.832   9.645
 2655POPC   GL137381   9.814   6.797   9.236
 2655POPC   GL237382   9.805   6.488   9.054
 2655POPC   C1A37383  10.032   6.864   8.820
 2655POPC   D2A37384   9.965   6.580   8.486
 2655POPC   C3A37385   9.842   6.724   8.077
 2655POPC   C4A37386   9.748   6.861   7.655
 2655POPC   C1B37387   9.964   6.181   8.823
 2655POPC   C2B37388  10.078   6.074   8.462
 2655POPC   C3B37389  10.084   6.265   8.064
 2655POPC   C4B37390   9.841   6.361   7.702
 2656POPC   NC337391  29.704  15.093   9.249
 2656POPC   PO437392  29.030  15.014   9.475
 2656POPC   GL137393  29.192  15.309   9.164
 2656POPC   GL237394  28.903  15.501   9.054
 2656POPC   C1A37395  29.280  15.314   8.743
 2656POPC   D2A37396  29.315  14.925   8.522
 2656POPC   C3A37397  29.448  14.962   8.107
 2656POPC   C4A37398  29.358  15.174   7.709
 2656POPC   C1B37399  28.782  15.238   8.660
 2656POPC   C2B37400  28.947  15.169   8.228
 2656POPC   C3B37401  28.847  15.295   7.797
 2656POPC   C4B37402  28.644  15.061   7.460
 2657POPC   NC337403   5.598  37.944   9.623
 2657POPC   PO437404   5.933  37.353   9.606
 2657POPC   GL137405   5.766  37.466   9.204
 2657POPC   GL237406   5.759  37.838   9.155
 2657POPC   C1A37407   5.850  37.535   8.769
 2657POPC   D2A37408   5.686  37.703   8.403
 2657POPC   C3A37409   5.978  37.526   8.119
 2657POPC   C4A37410   5.886  37.550   7.721
 2657POPC   C1B37411   6.007  38.025   8.809
 2657POPC   C2B37412   6.142  37.953   8.384
 2657POPC   C3B37413   5.895  38.031   8.014
 2657POPC   C4B37414   5.882  38.101   7.582
 2658POPC   NC337415  36.888  32.514   9.496
 2658POPC   PO437416  36.927  31.818   9.474
 2658POPC   GL137417  36.927  32.107   9.151
 2658POPC   GL237418  37.218  32.348   9.092
 2658POPC   C1A37419  36.938  32.105   8.736
 2658POPC   D2A37420  36.818  32.375   8.424
 2658POPC   C3A37421  36.879  32.161   8.034
 2658POPC   C4A37422  36.922  32.396   7.720
 2658POPC   C1B37423  37.274  32.546   8.684
 2658POPC   C2B37424  37.297  32.320   8.297
 2658POPC   C3B37425  37.378  32.238   7.877
 2658POPC   C4B37426  37.283  32.248   7.414
 2659POPC   NC337427   3.876  18.717   9.493
 2659POPC   PO437428   3.505  18.217   9.596
 2659POPC   GL137429   3.663  18.281   9.206
 2659POPC   GL237430   3.492  18.583   9.136
 2659POPC   C1A37431   3.819  18.123   8.821
 2659POPC   D2A37432   3.830  18.313   8.427
 2659POPC   C3A37433   3.545  18.213   8.101
 2659POPC   C4A37434   3.711  18.135   7.718
 2659POPC   C1B37435   3.433  18.474   8.727
 2659POPC   C2B37436   3.488  18.679   8.316
 2659POPC   C3B37437   3.700  18.639   7.902
 2659POPC   C4B37438   3.623  18.559   7.459
 2660POPC   NC337439  36.889   4.609   9.592
 2660POPC   PO437440  37.484   4.982   9.573
 2660POPC   GL137441  37.143   4.970   9.235
 2660POPC   GL237442  36.912   5.258   9.121
 2660POPC   C1A37443  36.988   4.874   8.812
 2660POPC   D2A37444  36.716   4.808   8.458
 2660POPC   C3A37445  36.923   4.859   8.059
 2660POPC   C4A37446  36.681   4.710   7.721
 2660POPC   C1B37447  36.647   5.274   8.707
 2660POPC   C2B37448  36.738   5.297   8.236
 2660POPC   C3B37449  36.762   5.249   7.763
 2660POPC   C4B37450  36.510   5.342   7.403
 2661POPC   NC337451   4.110  40.548   9.320
 2661POPC   PO437452   4.479  40.063   9.663
 2661POPC   GL137453   4.501  39.936   9.249
 2661POPC   GL237454   4.580  39.570   9.248
 2661POPC   C1A37455   4.247  39.887   8.873
 2661POPC   D2A37456   4.079  40.117   8.519
 2661POPC   C3A37457   4.186  40.014   8.100
 2661POPC   C4A37458   4.064  40.213   7.705
 2661POPC   C1B37459   4.744  39.744   8.855
 2661POPC   C2B37460   4.549  39.841   8.455
 2661POPC   C3B37461   4.630  39.737   8.016
 2661POPC   C4B37462   4.346  39.774   7.671
 2662POPC   NC337463  14.257   7.923   9.411
 2662POPC   PO437464  14.527   8.480   9.661
 2662POPC   GL137465  14.486   8.386   9.230
 2662POPC   GL237466  14.665   8.096   9.123
 2662POPC   C1A37467  14.529   8.552   8.836
 2662POPC   D2A37468  14.666   8.614   8.437
 2662POPC   C3A37469  14.470   8.374   8.137
 2662POPC   C4A37470  14.365   8.416   7.708
 2662POPC   C1B37471  14.470   7.902   8.787
 2662POPC   C2B37472  14.395   7.795   8.370
 2662POPC   C3B37473  14.551   7.822   7.977
 2662POPC   C4B37474  14.266   7.909   7.675
 2663POPC   NC337475  31.452   5.683   9.539
 2663POPC   PO437476  31.688   6.338   9.475
 2663POPC   GL137477  31.409   6.103   9.192
 2663POPC   GL237478  31.637   5.856   9.110
 2663POPC   C1A37479  31.213   5.848   8.819
 2663POPC   D2A37480  31.274   5.628   8.396
 2663POPC   C3A37481  31.135   5.821   7.988
 2663POPC   C4A37482  31.298   5.946   7.572
 2663POPC   C1B37483  31.698   5.956   8.710
 2663POPC   C2B37484  31.800   5.785   8.317
 2663POPC   C3B37485  31.721   5.807   7.871
 2663POPC   C4B37486  31.799   5.732   7.430
 2664POPC   NC337487  31.303  31.659   9.440
 2664POPC   PO437488  31.711  31.171   9.211
 2664POPC   GL137489  31.446  31.437   9.030
 2664POPC   GL237490  31.705  31.676   8.940
 2664POPC   C1A37491  31.243  31.709   8.733
 2664POPC   D2A37492  31.516  31.855   8.412
 2664POPC   C3A37493  31.559  31.550   8.094
 2664POPC   C4A37494  31.436  31.558   7.697
 2664POPC   C1B37495  31.672  31.390   8.582
 2664POPC   C2B37496  31.822  31.122   8.268
 2664POPC   C3B37497  32.032  31.332   7.969
 2664POPC   C4B37498  31.977  31.686   7.737
 2665POPC   NC337499  24.943  32.212   9.479
 2665POPC   PO437500  25.564  31.891   9.603
 2665POPC   GL137501  25.386  32.034   9.239
 2665POPC   GL237502  25.417  32.369   9.136
 2665POPC   C1A37503  25.230  31.986   8.835
 2665POPC   D2A37504  25.287  31.983   8.405
 2665POPC   C3A37505  25.122  32.315   8.153
 2665POPC   C4A37506  24.937  32.152   7.806
 2665POPC   C1B37507  25.284  32.504   8.759
 2665POPC   C2B37508  25.527  32.441   8.428
 2665POPC   C3B37509  25.637  32.203   8.097
 2665POPC   C4B37510  25.447  32.384   7.764
 2666POPC   NC337511  36.409  16.523   9.477
 2666POPC   PO437512  35.920  17.048   9.437
 2666POPC   GL137513  36.182  16.854   9.148
 2666POPC   GL237514  35.969  16.591   9.118
 2666POPC   C1A37515  36.372  16.643   8.789
 2666POPC   D2A37516  36.312  16.768   8.382
 2666POPC   C3A37517  36.316  16.488   8.049
 2666POPC   C4A37518  36.327  16.719   7.676
 2666POPC   C1B37519  35.858  16.798   8.719
 2666POPC   C2B37520  35.823  16.827   8.263
 2666POPC   C3B37521  35.845  16.645   7.853
 2666POPC   C4B37522  35.964  16.321   7.602
 2667POPC   NC337523  12.173  35.431   9.439
 2667POPC   PO437524  11.625  35.072   9.547
 2667POPC   GL137525  11.759  35.282   9.133
 2667POPC   GL237526  11.836  35.677   9.118
 2667POPC   C1A37527  11.917  35.376   8.693
 2667POPC   D2A37528  12.189  35.226   8.334
 2667POPC   C3A37529  12.008  35.126   7.922
 2667POPC   C4A37530  12.112  34.986   7.475
 2667POPC   C1B37531  12.251  35.768   8.847
 2667POPC   C2B37532  12.467  35.702   8.430
 2667POPC   C3B37533  12.322  35.609   8.027
 2667POPC   C4B37534  11.958  35.606   7.774
 2668POPC   NC337535  12.475  19.212   9.592
 2668POPC   PO437536  12.979  18.764   9.525
 2668POPC   GL137537  12.824  19.053   9.231
 2668POPC   GL237538  13.124  19.262   9.222
 2668POPC   C1A37539  12.690  18.977   8.820
 2668POPC   D2A37540  12.843  19.085   8.445
 2668POPC   C3A37541  12.834  18.858   8.095
 2668POPC   C4A37542  12.717  19.039   7.747
 2668POPC   C1B37543  13.295  19.307   8.806
 2668POPC   C2B37544  13.191  19.443   8.410
 2668POPC   C3B37545  12.977  19.403   8.022
 2668POPC   C4B37546  13.187  19.287   7.652
 2669POPC   NC337547  38.910  28.655   9.609
 2669POPC   PO437548  39.184  28.038   9.523
 2669POPC   GL137549  39.235  28.231   9.117
 2669POPC   GL237550  39.194  28.604   9.118
 2669POPC   C1A37551  39.336  28.355   8.681
 2669POPC   D2A37552  39.254  28.372   8.258
 2669POPC   C3A37553  39.023  28.100   7.983
 2669POPC   C4A37554  39.193  28.147   7.546
 2669POPC   C1B37555  38.941  28.685   8.703
 2669POPC   C2B37556  38.960  28.786   8.239
 2669POPC   C3B37557  39.082  28.573   7.807
 2669POPC   C4B37558  38.992  28.635   7.336
 2670POPC   NC337559   7.552  14.951   9.472
 2670POPC   PO437560   7.323  15.554   9.711
 2670POPC   GL137561   7.212  15.499   9.254
 2670POPC   GL237562   7.330  15.180   9.074
 2670POPC   C1A37563   7.162  15.542   8.780
 2670POPC   D2A37564   6.962  15.457   8.373
 2670POPC   C3A37565   7.254  15.260   8.107
 2670POPC   C4A37566   7.521  15.592   7.967
 2670POPC   C1B37567   7.522  15.122   8.665
 2670POPC   C2B37568   7.785  15.230   8.295
 2670POPC   C3B37569   7.702  15.112   7.877
 2670POPC   C4B37570   7.445  14.809   7.647
 2671POPC   NC337571   0.885  42.505   9.459
 2671POPC   PO437572   0.268  42.193   9.566
 2671POPC   GL137573   0.538  42.210   9.211
 2671POPC   GL237574   0.496  42.532   9.072
 2671POPC   C1A37575   0.620  42.090   8.778
 2671POPC   D2A37576   0.515  42.278   8.352
 2671POPC   C3A37577   0.611  42.102   7.926
 2671POPC   C4A37578   0.609  42.101   7.430
 2671POPC   C1B37579   0.705  42.699   8.689
 2671POPC   C2B37580   0.782  42.705   8.226
 2671POPC   C3B37581   0.578  42.609   7.813
 2671POPC   C4B37582   0.652  42.617   7.364
 2672POPC   NC337583  12.710   8.655   9.429
 2672POPC   PO437584  13.038   8.035   9.490
 2672POPC   GL137585  12.953   8.313   9.124
 2672POPC   GL237586  13.148   8.381   8.819
 2672POPC   C1A37587  12.621   8.369   8.821
 2672POPC   D2A37588  12.500   8.162   8.432
 2672POPC   C3A37589  12.746   8.373   8.144
 2672POPC   C4A37590  12.571   8.450   7.763
 2672POPC   C1B37591  12.955   8.019   8.609
 2672POPC   C2B37592  12.869   7.836   8.165
 2672POPC   C3B37593  12.897   8.065   7.743
 2672POPC   C4B37594  13.168   8.287   7.405
 2673POPC   NC337595  35.039  20.553   9.707
 2673POPC   PO437596  35.640  20.623   9.349
 2673POPC   GL137597  35.625  20.679   8.958
 2673POPC   GL237598  35.432  20.961   8.933
 2673POPC   C1A37599  35.502  20.624   8.545
 2673POPC   D2A37600  35.356  20.321   8.263
 2673POPC   C3A37601  35.319  20.442   7.858
 2673POPC   C4A37602  35.594  20.730   7.720
 2673POPC   C1B37603  35.074  20.862   8.673
 2673POPC   C2B37604  35.061  20.732   8.285
 2673POPC   C3B37605  35.190  20.934   7.967
 2673POPC   C4B37606  35.105  20.853   7.578
 2674POPC   NC337607   7.648  17.474   9.475
 2674POPC   PO437608   8.345  17.620   9.477
 2674POPC   GL137609   8.120  17.479   9.155
 2674POPC   GL237610   7.845  17.689   9.048
 2674POPC   C1A37611   8.125  17.287   8.734
 2674POPC   D2A37612   8.140  17.442   8.312
 2674POPC   C3A37613   7.875  17.253   7.994
 2674POPC   C4A37614   7.844  17.336   7.569
 2674POPC   C1B37615   8.239  17.800   8.805
 2674POPC   C2B37616   8.515  17.806   8.452
 2674POPC   C3B37617   8.600  17.640   8.054
 2674POPC   C4B37618   8.275  17.510   7.799
 2675POPC   NC337619  17.752  20.845   9.371
 2675POPC   PO437620  17.392  20.330   9.632
 2675POPC   GL137621  17.523  20.405   9.202
 2675POPC   GL237622  17.350  20.719   9.065
 2675POPC   C1A37623  17.416  20.309   8.768
 2675POPC   D2A37624  17.256  20.571   8.455
 2675POPC   C3A37625  17.413  20.408   8.084
 2675POPC   C4A37626  17.521  20.504   7.661
 2675POPC   C1B37627  17.515  21.060   8.793
 2675POPC   C2B37628  17.638  21.165   8.376
 2675POPC   C3B37629  17.438  20.919   8.080
 2675POPC   C4B37630  17.221  20.899   7.709
 2676POPC   NC337631  32.747  30.064   9.866
 2676POPC   PO437632  33.044  29.456   9.701
 2676POPC   GL137633  32.947  29.809   9.364
 2676POPC   GL237634  32.731  30.097   9.306
 2676POPC   C1A37635  33.080  29.864   8.895
 2676POPC   D2A37636  33.216  30.148   8.533
 2676POPC   C3A37637  33.173  30.025   8.094
 2676POPC   C4A37638  33.274  29.723   7.780
 2676POPC   C1B37639  32.674  30.178   8.847
 2676POPC   C2B37640  32.749  29.935   8.435
 2676POPC   C3B37641  32.840  29.644   8.070
 2676POPC   C4B37642  32.826  29.913   7.694
 2677POPC   NC337643   2.405  33.379   9.486
 2677POPC   PO437644   2.684  33.984   9.613
 2677POPC   GL137645   2.809  33.657   9.276
 2677POPC   GL237646   3.156  33.564   9.179
 2677POPC   C1A37647   2.750  33.703   8.827
 2677POPC   D2A37648   2.864  33.669   8.393
 2677POPC   C3A37649   2.746  33.944   8.042
 2677POPC   C4A37650   2.522  33.711   7.769
 2677POPC   C1B37651   3.098  33.307   8.787
 2677POPC   C2B37652   2.879  33.167   8.403
 2677POPC   C3B37653   2.839  33.347   7.987
 2677POPC   C4B37654   3.139  33.678   7.907
 2678POPC   NC337655  37.090   9.869   9.426
 2678POPC   PO437656  36.450   9.453   9.460
 2678POPC   GL137657  36.673   9.710   9.146
 2678POPC   GL237658  36.763   9.450   9.026
 2678POPC   C1A37659  36.925   9.765   8.702
 2678POPC   D2A37660  36.829   9.880   8.288
 2678POPC   C3A37661  37.127   9.936   7.937
 2678POPC   C4A37662  36.821   9.769   7.631
 2678POPC   C1B37663  36.945   9.225   8.725
 2678POPC   C2B37664  37.087   9.368   8.377
 2678POPC   C3B37665  36.943   9.459   8.027
 2678POPC   C4B37666  37.050   9.308   7.685
 2679POPC   NC337667  24.116  25.601   9.579
 2679POPC   PO437668  24.512  26.077   9.461
 2679POPC   GL137669  24.532  26.024   9.062
 2679POPC   GL237670  24.187  25.985   9.050
 2679POPC   C1A37671  24.784  25.948   8.709
 2679POPC   D2A37672  24.853  25.757   8.285
 2679POPC   C3A37673  24.687  25.927   7.873
 2679POPC   C4A37674  24.416  26.190   7.597
 2679POPC   C1B37675  24.301  25.832   8.656
 2679POPC   C2B37676  24.334  25.563   8.341
 2679POPC   C3B37677  24.133  25.531   7.945
 2679POPC   C4B37678  24.325  25.693   7.600
 2680POPC   NC337679   6.775  43.567   9.540
 2680POPC   PO437680   6.297  43.951   9.316
 2680POPC   GL137681   6.696  44.013   9.119
 2680POPC   GL237682   6.774  43.675   9.065
 2680POPC   C1A37683   6.772  43.970   8.668
 2680POPC   D2A37684   6.537  44.099   8.358
 2680POPC   C3A37685   6.384  43.889   8.057
 2680POPC   C4A37686   6.456  43.999   7.605
 2680POPC   C1B37687   7.011  43.486   8.744
 2680POPC   C2B37688   7.121  43.584   8.325
 2680POPC   C3B37689   6.832  43.673   7.960
 2680POPC   C4B37690   6.434  43.518   7.730
 2681POPC   NC337691  41.653  44.911   9.497
 2681POPC   PO437692  42.087  44.424   9.240
 2681POPC   GL137693  41.669  44.579   9.104
 2681POPC   GL237694  41.271  44.544   9.105
 2681POPC   C1A37695  41.571  44.561   8.685
 2681POPC   D2A37696  41.271  44.419   8.421
 2681POPC   C3A37697  41.494  44.479   8.050
 2681POPC   C4A37698  41.845  44.658   7.795
 2681POPC   C1B37699  41.145  44.824   8.719
 2681POPC   C2B37700  41.306  44.939   8.295
 2681POPC   C3B37701  41.164  44.825   7.865
 2681POPC   C4B37702  41.229  44.907   7.398
 2682POPC   NC337703  14.284  13.281   9.541
 2682POPC   PO437704  14.812  13.655   9.497
 2682POPC   GL137705  14.483  13.581   9.165
 2682POPC   GL237706  14.095  13.628   9.203
 2682POPC   C1A37707  14.559  13.479   8.737
 2682POPC   D2A37708  14.709  13.267   8.343
 2682POPC   C3A37709  14.682  13.502   7.957
 2682POPC   C4A37710  14.601  13.910   7.735
 2682POPC   C1B37711  14.059  13.326   8.903
 2682POPC   C2B37712  14.161  13.276   8.504
 2682POPC   C3B37713  14.217  13.287   8.079
 2682POPC   C4B37714  14.246  13.461   7.679
 2683POPC   NC337715  11.972  33.203   9.529
 2683POPC   PO437716  12.389  32.602   9.402
 2683POPC   GL137717  12.268  32.984   9.199
 2683POPC   GL237718  11.958  32.846   9.155
 2683POPC   C1A37719  12.163  33.247   8.851
 2683POPC   D2A37720  12.106  33.346   8.409
 2683POPC   C3A37721  12.273  33.241   8.022
 2683POPC   C4A37722  12.063  33.089   7.612
 2683POPC   C1B37723  12.211  32.721   8.779
 2683POPC   C2B37724  12.083  32.825   8.396
 2683POPC   C3B37725  12.106  32.767   7.984
 2683POPC   C4B37726  12.456  32.720   7.692
 2684POPC   NC337727  43.903  43.993   9.634
 2684POPC   PO437728  43.303  43.713   9.663
 2684POPC   GL137729  43.529  43.883   9.269
 2684POPC   GL237730  43.871  43.682   9.208
 2684POPC   C1A37731  43.791  44.118   8.940
 2684POPC   D2A37732  44.003  43.942   8.568
 2684POPC   C3A37733  43.857  44.143   8.205
 2684POPC   C4A37734  43.945  44.184   7.789
 2684POPC   C1B37735  43.621  43.633   8.819
 2684POPC   C2B37736  43.575  43.716   8.377
 2684POPC   C3B37737  43.878  43.664   8.054
 2684POPC   C4B37738  43.728  43.739   7.692
 2685POPC   NC337739  16.457  26.368   9.578
 2685POPC   PO437740  17.034  25.977   9.470
 2685POPC   GL137741  16.763  26.164   9.208
 2685POPC   GL237742  16.467  25.946   9.189
 2685POPC   C1A37743  16.815  26.319   8.790
 2685POPC   D2A37744  17.068  26.308   8.424
 2685POPC   C3A37745  16.817  26.224   8.061
 2685POPC   C4A37746  16.806  26.389   7.657
 2685POPC   C1B37747  16.785  25.804   8.852
 2685POPC   C2B37748  16.999  25.754   8.446
 2685POPC   C3B37749  16.834  25.721   8.014
 2685POPC   C4B37750  16.674  25.891   7.611
 2686POPC   NC337751  28.459  34.535   5.544
 2686POPC   PO437752  28.005  34.914   5.497
 2686POPC   GL137753  28.163  34.710   5.915
 2686POPC   GL237754  28.169  34.355   5.920
 2686POPC   C1A37755  28.236  34.666   6.349
 2686POPC   D2A37756  28.118  34.815   6.743
 2686POPC   C3A37757  28.332  34.596   6.989
 2686POPC   C4A37758  28.585  34.678   7.301
 2686POPC   C1B37759  28.354  34.166   6.278
 2686POPC   C2B37760  28.487  34.212   6.711
 2686POPC   C3B37761  28.574  34.181   7.179
 2686POPC   C4B37762  28.440  34.321   7.612
 2687POPC   NC337763  32.833  32.501   5.351
 2687POPC   PO437764  33.475  32.251   5.361
 2687POPC   GL137765  33.186  32.461   5.713
 2687POPC   GL237766  32.939  32.203   5.789
 2687POPC   C1A37767  32.997  32.573   6.137
 2687POPC   D2A37768  32.743  32.622   6.514
 2687POPC   C3A37769  32.891  32.357   6.865
 2687POPC   C4A37770  33.244  32.219   7.116
 2687POPC   C1B37771  32.793  31.898   6.114
 2687POPC   C2B37772  32.910  31.900   6.553
 2687POPC   C3B37773  32.625  31.919   6.912
 2687POPC   C4B37774  32.830  31.991   7.294
 2688POPC   NC337775  21.751  12.608   5.402
 2688POPC   PO437776  22.317  12.367   5.195
 2688POPC   GL137777  22.158  12.202   5.661
 2688POPC   GL237778  22.151  11.845   5.786
 2688POPC   C1A37779  22.056  12.151   6.167
 2688POPC   D2A37780  22.302  12.068   6.537
 2688POPC   C3A37781  22.179  12.160   6.953
 2688POPC   C4A37782  21.777  12.373   7.111
 2688POPC   C1B37783  22.248  11.666   6.231
 2688POPC   C2B37784  22.137  11.617   6.711
 2688POPC   C3B37785  22.064  11.693   7.160
 2688POPC   C4B37786  22.263  11.689   7.580
 2689POPC   NC337787  30.970  36.078   5.246
 2689POPC   PO437788  31.624  36.009   5.414
 2689POPC   GL137789  31.454  35.952   5.814
 2689POPC   GL237790  31.729  36.111   5.958
 2689POPC   C1A37791  31.271  36.107   6.238
 2689POPC   D2A37792  31.068  36.201   6.655
 2689POPC   C3A37793  31.370  36.245   7.003
 2689POPC   C4A37794  31.401  36.010   7.381
 2689POPC   C1B37795  31.675  35.795   6.241
 2689POPC   C2B37796  31.569  35.943   6.631
 2689POPC   C3B37797  31.758  35.899   7.011
 2689POPC   C4B37798  31.674  35.553   7.197
 2690POPC   NC337799  15.254  12.996   5.275
 2690POPC   PO437800  15.581  12.473   5.469
 2690POPC   GL137801  15.255  12.714   5.775
 2690POPC   GL237802  15.044  13.055   5.786
 2690POPC   C1A37803  15.316  12.924   6.208
 2690POPC   D2A37804  15.573  13.000   6.584
 2690POPC   C3A37805  15.393  12.861   6.979
 2690POPC   C4A37806  15.477  12.693   7.370
 2690POPC   C1B37807  14.800  13.002   6.225
 2690POPC   C2B37808  14.835  12.838   6.701
 2690POPC   C3B37809  14.951  13.078   7.107
 2690POPC   C4B37810  15.090  12.960   7.546
 2691POPC   NC337811  17.150  24.618   5.231
 2691POPC   PO437812  16.529  24.279   5.393
 2691POPC   GL137813  16.665  24.421   5.839
 2691POPC   GL237814  16.909  24.726   5.805
 2691POPC   C1A37815  16.614  24.421   6.311
 2691POPC   D2A37816  16.907  24.367   6.659
 2691POPC   C3A37817  16.726  24.156   7.010
 2691POPC   C4A37818  16.682  24.309   7.433
 2691POPC   C1B37819  16.993  24.781   6.278
 2691POPC   C2B37820  16.769  24.860   6.670
 2691POPC   C3B37821  16.799  24.693   7.074
 2691POPC   C4B37822  17.142  24.406   7.157
 2692POPC   NC337823  23.440   8.493   5.448
 2692POPC   PO437824  23.162   7.948   5.133
 2692POPC   GL137825  23.362   7.997   5.571
 2692POPC   GL237826  23.723   8.062   5.638
 2692POPC   C1A37827  23.372   8.100   6.016
 2692POPC   D2A37828  23.435   7.794   6.360
 2692POPC   C3A37829  23.571   7.818   6.802
 2692POPC   C4A37830  23.533   8.066   7.178
 2692POPC   C1B37831  23.854   8.061   6.082
 2692POPC   C2B37832  23.684   8.220   6.464
 2692POPC   C3B37833  23.817   8.339   6.849
 2692POPC   C4B37834  23.924   8.383   7.287
 2693POPC   NC337835  43.179  12.995   5.414
 2693POPC   PO437836  42.898  12.521   5.769
 2693POPC   GL137837  42.982  12.911   5.931
 2693POPC   GL237838  43.342  12.853   5.891
 2693POPC   C1A37839  42.936  12.988   6.385
 2693POPC   D2A37840  42.721  12.805   6.735
 2693POPC   C3A37841  42.874  12.991   7.128
 2693POPC   C4A37842  43.235  13.189   7.325
 2693POPC   C1B37843  43.261  12.588   6.291
 2693POPC   C2B37844  43.214  12.669   6.750
 2693POPC   C3B37845  43.496  12.510   7.069
 2693POPC   C4B37846  43.690  12.360   7.435
 2694POPC   NC337847  37.310  39.191   5.321
 2694POPC   PO437848  36.732  39.083   5.373
 2694POPC   GL137849  36.983  39.115   5.774
 2694POPC   GL237850  37.227  39.384   5.815
 2694POPC   C1A37851  36.943  39.168   6.255
 2694POPC   D2A37852  36.920  39.414   6.663
 2694POPC   C3A37853  36.846  39.176   7.053
 2694POPC   C4A37854  36.577  39.218   7.450
 2694POPC   C1B37855  37.358  39.464   6.252
 2694POPC   C2B37856  37.384  39.621   6.681
 2694POPC   C3B37857  37.239  39.523   7.084
 2694POPC   C4B37858  37.032  39.406   7.453
 2695POPC   NC337859  15.413  31.989   5.343
 2695POPC   PO437860  14.899  32.410   5.509
 2695POPC   GL137861  15.033  32.023   5.714
 2695POPC   GL237862  15.360  32.152   5.843
 2695POPC   C1A37863  14.975  32.014   6.159
 2695POPC   D2A37864  14.855  32.330   6.448
 2695POPC   C3A37865  15.068  32.283   6.834
 2695POPC   C4A37866  14.996  32.070   7.223
 2695POPC   C1B37867  15.415  32.399   6.234
 2695POPC   C2B37868  15.555  32.418   6.681
 2695POPC   C3B37869  15.445  32.512   7.110
 2695POPC   C4B37870  15.032  32.595   7.242
 2696POPC   NC337871  28.544  28.789   5.022
 2696POPC   PO437872  28.261  28.192   5.338
 2696POPC   GL137873  28.161  28.359   5.782
 2696POPC   GL237874  28.465  28.435   5.900
 2696POPC   C1A37875  28.028  28.357   6.260
 2696POPC   D2A37876  28.202  28.273   6.718
 2696POPC   C3A37877  28.104  28.513   7.121
 2696POPC   C4A37878  27.983  28.437   7.579
 2696POPC   C1B37879  28.518  28.260   6.288
 2696POPC   C2B37880  28.717  28.470   6.621
 2696POPC   C3B37881  28.593  28.403   7.020
 2696POPC   C4B37882  28.730  28.198   7.327
 2697POPC   NC337883  11.343  14.709   5.666
 2697POPC   PO437884  11.937  14.680   5.450
 2697POPC   GL137885  11.872  14.491   5.806
 2697POPC   GL237886  11.945  14.160   5.720
 2697POPC   C1A37887  11.712  14.466   6.214
 2697POPC   D2A37888  11.812  14.220   6.552
 2697POPC   C3A37889  11.864  14.464   6.897
 2697POPC   C4A37890  11.889  14.347   7.299
 2697POPC   C1B37891  12.065  14.103   6.133
 2697POPC   C2B37892  12.331  14.194   6.465
 2697POPC   C3B37893  12.260  14.143   6.897
 2697POPC   C4B37894  12.375  14.216   7.334
 2698POPC   NC337895  20.047  30.900   5.211
 2698POPC   PO437896  19.627  30.496   5.585
 2698POPC   GL137897  19.926  30.565   5.841
 2698POPC   GL237898  19.903  30.903   5.737
 2698POPC   C1A37899  19.904  30.425   6.248
 2698POPC   D2A37900  19.981  30.604   6.613
 2698POPC   C3A37901  19.625  30.607   6.864
 2698POPC   C4A37902  19.880  30.444   7.163
 2698POPC   C1B37903  20.013  30.956   6.181
 2698POPC   C2B37904  19.938  31.107   6.616
 2698POPC   C3B37905  19.974  30.971   7.049
 2698POPC   C4B37906  20.091  31.228   7.392
 2699POPC   NC337907   3.983  37.929   5.563
 2699POPC   PO437908   4.493  37.549   5.315
 2699POPC   GL137909   4.374  37.581   5.764
 2699POPC   GL237910   4.437  37.954   5.812
 2699POPC   C1A37911   4.416  37.397   6.203
 2699POPC   D2A37912   4.367  37.569   6.617
 2699POPC   C3A37913   4.096  37.422   6.961
 2699POPC   C4A37914   4.079  37.567   7.390
 2699POPC   C1B37915   4.239  37.890   6.213
 2699POPC   C2B37916   4.284  38.088   6.616
 2699POPC   C3B37917   4.283  37.903   6.988
 2699POPC   C4B37918   4.306  38.001   7.360
 2700POPC   NC337919  37.158  19.114   5.288
 2700POPC   PO437920  36.479  19.214   5.290
 2700POPC   GL137921  36.760  19.312   5.649
 2700POPC   GL237922  36.964  19.025   5.795
 2700POPC   C1A37923  36.692  19.327   6.113
 2700POPC   D2A37924  36.879  19.103   6.462
 2700POPC   C3A37925  36.880  19.313   6.875
 2700POPC   C4A37926  36.945  19.041   7.203
 2700POPC   C1B37927  37.298  18.830   6.073
 2700POPC   C2B37928  37.454  18.743   6.481
 2700POPC   C3B37929  37.262  18.740   6.892
 2700POPC   C4B37930  37.435  18.811   7.294
 2701POPC   NC337931  11.586  15.802   5.527
 2701POPC   PO437932  11.888  16.393   5.591
 2701POPC   GL137933  11.981  16.131   5.925
 2701POPC   GL237934  11.738  15.883   6.017
 2701POPC   C1A37935  12.161  16.169   6.294
 2701POPC   D2A37936  12.016  16.019   6.671
 2701POPC   C3A37937  12.219  16.225   6.950
 2701POPC   C4A37938  11.987  16.372   7.191
 2701POPC   C1B37939  12.049  15.668   6.296
 2701POPC   C2B37940  12.277  15.569   6.704
 2701POPC   C3B37941  12.210  15.731   7.122
 2701POPC   C4B37942  12.112  15.642   7.563
 2702POPC   NC337943  38.687  25.021   5.403
 2702POPC   PO437944  38.799  25.722   5.567
 2702POPC   GL137945  38.601  25.331   5.794
 2702POPC   GL237946  38.627  25.538   6.026
 2702POPC   C1A37947  38.578  25.041   6.217
 2702POPC   D2A37948  38.381  25.063   6.672
 2702POPC   C3A37949  38.476  24.962   7.159
 2702POPC   C4A37950  38.670  25.053   7.576
 2702POPC   C1B37951  38.292  25.470   6.276
 2702POPC   C2B37952  38.373  25.580   6.695
 2702POPC   C3B37953  38.603  25.471   7.064
 2702POPC   C4B37954  38.307  25.396   7.384
 2703POPC   NC337955  10.097  26.226   5.460
 2703POPC   PO437956   9.604  25.806   5.305
 2703POPC   GL137957   9.650  25.927   5.767
 2703POPC   GL237958   9.727  26.271   5.851
 2703POPC   C1A37959   9.872  25.921   6.193
 2703POPC   D2A37960  10.041  25.799   6.620
 2703POPC   C3A37961   9.843  25.903   7.036
 2703POPC   C4A37962   9.436  25.903   7.242
 2703POPC   C1B37963   9.877  26.438   6.236
 2703POPC   C2B37964   9.759  26.247   6.607
 2703POPC   C3B37965   9.535  26.316   6.957
 2703POPC   C4B37966   9.581  26.366   7.374
 2704POPC   NC337967  26.274   1.812   5.435
 2704POPC   PO437968  26.186   2.404   5.204
 2704POPC   GL137969  26.067   2.264   5.678
 2704POPC   GL237970  25.799   2.002   5.731
 2704POPC   C1A37971  26.189   2.101   6.133
 2704POPC   D2A37972  26.310   2.378   6.485
 2704POPC   C3A37973  26.226   2.245   6.907
 2704POPC   C4A37974  26.067   2.019   7.246
 2704POPC   C1B37975  25.708   1.943   6.186
 2704POPC   C2B37976  25.907   1.920   6.617
 2704POPC   C3B37977  25.727   1.706   6.974
 2704POPC   C4B37978  25.836   1.598   7.377
 2705POPC   NC337979  37.302  29.150   5.088
 2705POPC   PO437980  36.639  29.066   5.328
 2705POPC   GL137981  36.910  29.090   5.688
 2705POPC   GL237982  37.069  29.411   5.619
 2705POPC   C1A37983  36.974  28.910   6.122
 2705POPC   D2A37984  36.892  28.724   6.533
 2705POPC   C3A37985  37.032  28.958   6.911
 2705POPC   C4A37986  36.732  29.076   7.264
 2705POPC   C1B37987  37.008  29.416   6.080
 2705POPC   C2B37988  37.103  29.306   6.515
 2705POPC   C3B37989  36.833  29.413   6.862
 2705POPC   C4B37990  36.842  29.606   7.255
 2706POPC   NC337991   9.053   7.079   5.462
 2706POPC   PO437992   9.231   7.772   5.294
 2706POPC   GL137993   9.160   7.623   5.774
 2706POPC   GL237994   8.805   7.599   5.879
 2706POPC   C1A37995   9.107   7.433   6.241
 2706POPC   D2A37996   8.981   7.577   6.663
 2706POPC   C3A37997   9.169   7.405   7.047
 2706POPC   C4A37998   9.363   7.202   7.419
 2706POPC   C1B37999   8.651   7.759   6.309
 2706POPC   C2B38000   8.544   7.856   6.767
 2706POPC   C3B38001   8.690   7.577   7.126
 2706POPC   C4B38002   8.913   7.408   7.510
 2707POPC   NC338003   3.728  33.476   4.941
 2707POPC   PO438004   3.299  33.995   5.212
 2707POPC   GL138005   3.438  33.826   5.648
 2707POPC   GL238006   3.377  34.089   5.861
 2707POPC   C1A38007   3.761  33.820   6.030
 2707POPC   D2A38008   3.942  33.708   6.438
 2707POPC   C3A38009   3.673  33.737   6.831
 2707POPC   C4A38010   3.706  33.943   7.242
 2707POPC   C1B38011   3.287  33.832   6.216
 2707POPC   C2B38012   3.203  33.935   6.629
 2707POPC   C3B38013   3.092  34.026   7.051
 2707POPC   C4B38014   3.231  33.934   7.467
 2708POPC   NC338015  15.662   7.126   5.623
 2708POPC   PO438016  16.044   6.788   5.198
 2708POPC   GL138017  15.915   6.670   5.628
 2708POPC   GL238018  16.208   6.736   5.823
 2708POPC   C1A38019  15.844   6.416   6.014
 2708POPC   D2A38020  16.057   6.487   6.408
 2708POPC   C3A38021  15.903   6.496   6.823
 2708POPC   C4A38022  16.055   6.330   7.202
 2708POPC   C1B38023  15.945   6.930   6.159
 2708POPC   C2B38024  15.753   7.105   6.530
 2708POPC   C3B38025  15.708   7.202   6.972
 2708POPC   C4B38026  15.922   6.880   7.205
 2709POPC   NC338027  40.653  25.898   5.146
 2709POPC   PO438028  40.998  26.478   5.264
 2709POPC   GL138029  40.759  26.257   5.563
 2709POPC   GL238030  40.847  25.886   5.644
 2709POPC   C1A38031  40.832  26.241   6.010
 2709POPC   D2A38032  40.791  26.102   6.402
 2709POPC   C3A38033  40.809  26.369   6.726
 2709POPC   C4A38034  40.840  26.151   7.103
 2709POPC   C1B38035  41.073  25.773   6.086
 2709POPC   C2B38036  41.036  25.693   6.581
 2709POPC   C3B38037  40.862  25.631   7.038
 2709POPC   C4B38038  41.019  25.518   7.473
 2710POPC   NC338039  35.859   4.712   5.342
 2710POPC   PO438040  36.268   5.367   5.413
 2710POPC   GL138041  36.210   5.247   5.830
 2710POPC   GL238042  36.244   4.861   5.763
 2710POPC   C1A38043  36.364   5.351   6.264
 2710POPC   D2A38044  36.058   5.309   6.611
 2710POPC   C3A38045  36.221   5.198   7.013
 2710POPC   C4A38046  35.951   5.166   7.390
 2710POPC   C1B38047  36.125   4.922   6.214
 2710POPC   C2B38048  36.329   4.882   6.596
 2710POPC   C3B38049  36.302   4.671   6.972
 2710POPC   C4B38050  36.336   4.838   7.386
 2711POPC   NC338051   7.502  35.759   5.361
 2711POPC   PO438052   7.167  36.344   5.377
 2711POPC   GL138053   7.388  36.060   5.759
 2711POPC   GL238054   7.738  35.819   5.805
 2711POPC   C1A38055   7.160  35.958   6.165
 2711POPC   D2A38056   6.908  36.021   6.551
 2711POPC   C3A38057   7.102  36.130   6.927
 2711POPC   C4A38058   7.301  36.070   7.311
 2711POPC   C1B38059   7.696  35.973   6.201
 2711POPC   C2B38060   7.479  36.068   6.566
 2711POPC   C3B38061   7.637  36.163   6.938
 2711POPC   C4B38062   7.853  35.917   7.215
 2712POPC   NC338063  16.024  29.170   5.323
 2712POPC   PO438064  16.450  28.696   5.455
 2712POPC   GL138065  16.185  28.974   5.747
 2712POPC   GL238066  16.169  29.363   5.772
 2712POPC   C1A38067  15.970  28.959   6.120
 2712POPC   D2A38068  16.093  29.169   6.483
 2712POPC   C3A38069  16.215  28.951   6.848
 2712POPC   C4A38070  16.134  29.139   7.233
 2712POPC   C1B38071  15.851  29.460   6.094
 2712POPC   C2B38072  15.611  29.424   6.480
 2712POPC   C3B38073  15.727  29.215   6.865
 2712POPC   C4B38074  15.464  29.372   7.146
 2713POPC   NC338075   7.564  15.295   5.425
 2713POPC   PO438076   7.498  14.660   5.636
 2713POPC   GL138077   7.308  15.001   5.848
 2713POPC   GL238078   7.511  15.320   5.935
 2713POPC   C1A38079   7.326  14.996   6.288
 2713POPC   D2A38080   7.714  15.066   6.537
 2713POPC   C3A38081   7.596  14.864   6.902
 2713POPC   C4A38082   7.507  14.555   7.196
 2713POPC   C1B38083   7.263  15.493   6.323
 2713POPC   C2B38084   7.300  15.280   6.740
 2713POPC   C3B38085   7.223  15.153   7.158
 2713POPC   C4B38086   7.348  15.313   7.569
 2714POPC   NC338087  26.849   4.870   5.441
 2714POPC   PO438088  27.132   5.478   5.485
 2714POPC   GL138089  26.970   5.246   5.796
 2714POPC   GL238090  26.614   5.183   5.767
 2714POPC   C1A38091  26.907   5.279   6.206
 2714POPC   D2A38092  26.909   5.049   6.551
 2714POPC   C3A38093  26.890   5.325   6.886
 2714POPC   C4A38094  26.968   5.212   7.274
 2714POPC   C1B38095  26.561   4.902   6.134
 2714POPC   C2B38096  26.514   4.706   6.533
 2714POPC   C3B38097  26.623   4.860   6.944
 2714POPC   C4B38098  26.302   5.026   7.181
 2715POPC   NC338099  22.303   9.961   5.447
 2715POPC   PO438100  22.304  10.602   5.482
 2715POPC   GL138101  22.140  10.348   5.841
 2715POPC   GL238102  21.915  10.070   5.834
 2715POPC   C1A38103  22.061  10.384   6.291
 2715POPC   D2A38104  22.179  10.507   6.715
 2715POPC   C3A38105  21.969  10.507   7.100
 2715POPC   C4A38106  21.970  10.819   7.403
 2715POPC   C1B38107  22.253   9.945   6.157
 2715POPC   C2B38108  22.435  10.082   6.586
 2715POPC   C3B38109  22.444  10.229   7.057
 2715POPC   C4B38110  22.225  10.236   7.473
 2716POPC   NC338111  31.603   5.663   5.391
 2716POPC   PO438112  31.613   6.343   5.564
 2716POPC   GL138113  31.747   6.003   5.751
 2716POPC   GL238114  31.402   5.934   5.799
 2716POPC   C1A38115  31.734   5.821   6.159
 2716POPC   D2A38116  31.466   5.908   6.506
 2716POPC   C3A38117  31.699   5.948   6.879
 2716POPC   C4A38118  31.601   6.199   7.195
 2716POPC   C1B38119  31.105   5.958   6.128
 2716POPC   C2B38120  31.059   6.242   6.481
 2716POPC   C3B38121  31.169   6.128   6.894
 2716POPC   C4B38122  30.993   6.221   7.280
 2717POPC   NC338123  14.346  33.691   5.441
 2717POPC   PO438124  14.975  33.807   5.574
 2717POPC   GL138125  14.665  33.565   5.882
 2717POPC   GL238126  14.295  33.588   5.954
 2717POPC   C1A38127  14.648  33.543   6.343
 2717POPC   D2A38128  14.601  33.845   6.676
 2717POPC   C3A38129  14.468  33.702   7.071
 2717POPC   C4A38130  14.633  33.538   7.444
 2717POPC   C1B38131  14.240  33.906   6.309
 2717POPC   C2B38132  14.085  33.879   6.736
 2717POPC   C3B38133  14.148  34.073   7.139
 2717POPC   C4B38134  14.217  33.877   7.558
 2718POPC   NC338135  36.385  15.117   5.288
 2718POPC   PO438136  35.720  15.154   5.404
 2718POPC   GL138137  36.049  15.069   5.681
 2718POPC   GL238138  36.174  15.395   5.769
 2718POPC   C1A38139  36.040  15.008   6.129
 2718POPC   D2A38140  35.783  14.949   6.499
 2718POPC   C3A38141  35.995  14.899   6.874
 2718POPC   C4A38142  36.251  15.031   7.198
 2718POPC   C1B38143  36.037  15.536   6.210
 2718POPC   C2B38144  36.051  15.426   6.668
 2718POPC   C3B38145  36.284  15.524   7.057
 2718POPC   C4B38146  36.210  15.508   7.528
 2719POPC   NC338147   4.904  37.383   5.193
 2719POPC   PO438148   5.473  37.738   5.378
 2719POPC   GL138149   5.232  37.646   5.756
 2719POPC   GL238150   4.879  37.691   5.734
 2719POPC   C1A38151   5.086  37.427   6.139
 2719POPC   D2A38152   4.839  37.410   6.542
 2719POPC   C3A38153   5.018  37.434   6.988
 2719POPC   C4A38154   5.197  37.689   7.345
 2719POPC   C1B38155   4.750  37.804   6.199
 2719POPC   C2B38156   4.770  37.952   6.660
 2719POPC   C3B38157   4.787  37.929   7.131
 2719POPC   C4B38158   4.709  37.787   7.580
 2720POPC   NC338159  38.416   7.639   5.194
 2720POPC   PO438160  38.332   7.079   5.454
 2720POPC   GL138161  38.183   7.416   5.680
 2720POPC   GL238162  38.105   7.179   5.949
 2720POPC   C1A38163  38.285   7.653   6.064
 2720POPC   D2A38164  38.550   7.682   6.463
 2720POPC   C3A38165  38.442   7.718   6.922
 2720POPC   C4A38166  38.772   7.838   7.231
 2720POPC   C1B38167  38.442   7.187   6.259
 2720POPC   C2B38168  38.422   7.229   6.705
 2720POPC   C3B38169  38.324   7.220   7.141
 2720POPC   C4B38170  38.571   7.148   7.522
 2721POPC   NC338171  13.018  22.426   5.398
 2721POPC   PO438172  12.536  22.041   5.408
 2721POPC   GL138173  12.646  22.329   5.740
 2721POPC   GL238174  12.956  22.127   5.810
 2721POPC   C1A38175  12.778  22.467   6.144
 2721POPC   D2A38176  12.920  22.309   6.540
 2721POPC   C3A38177  12.707  22.247   6.932
 2721POPC   C4A38178  12.674  22.089   7.377
 2721POPC   C1B38179  13.209  22.007   6.160
 2721POPC   C2B38180  13.399  22.149   6.535
 2721POPC   C3B38181  13.184  22.040   6.918
 2721POPC   C4B38182  13.181  22.172   7.316
 2722POPC   NC338183  18.924  12.162   5.444
 2722POPC   PO438184  18.605  11.603   5.474
 2722POPC   GL138185  18.838  11.790   5.839
 2722POPC   GL238186  19.198  11.870   5.790
 2722POPC   C1A38187  19.074  11.662   6.233
 2722POPC   D2A38188  19.393  11.891   6.471
 2722POPC   C3A38189  19.280  11.870   6.897
 2722POPC   C4A38190  18.913  11.925   7.140
 2722POPC   C1B38191  19.095  12.155   6.148
 2722POPC   C2B38192  19.123  12.331   6.574
 2722POPC   C3B38193  19.169  12.354   7.001
 2722POPC   C4B38194  19.003  12.428   7.390
 2723POPC   NC338195  42.966  29.369   5.565
 2723POPC   PO438196  43.195  30.017   5.387
 2723POPC   GL138197  42.977  29.849   5.744
 2723POPC   GL238198  43.261  29.669   5.837
 2723POPC   C1A38199  42.914  29.714   6.202
 2723POPC   D2A38200  43.097  29.874   6.600
 2723POPC   C3A38201  42.969  29.783   6.998
 2723POPC   C4A38202  43.099  29.953   7.380
 2723POPC   C1B38203  43.446  29.743   6.233
 2723POPC   C2B38204  43.603  29.641   6.669
 2723POPC   C3B38205  43.489  29.739   7.099
 2723POPC   C4B38206  43.526  29.723   7.581
 2724POPC   NC338207   6.383  38.648   5.605
 2724POPC   PO438208   6.942  38.780   5.173
 2724POPC   GL138209   6.938  38.653   5.666
 2724POPC   GL238210   6.877  38.959   5.901
 2724POPC   C1A38211   6.763  38.507   6.115
 2724POPC   D2A38212   6.926  38.633   6.545
 2724POPC   C3A38213   6.785  38.463   6.958
 2724POPC   C4A38214   6.378  38.293   7.159
 2724POPC   C1B38215   6.598  38.965   6.316
 2724POPC   C2B38216   6.417  38.754   6.718
 2724POPC   C3B38217   6.340  38.805   7.201
 2724POPC   C4B38218   6.403  38.906   7.660
 2725POPC   NC338219  16.154  36.571   5.558
 2725POPC   PO438220  15.841  35.968   5.411
 2725POPC   GL138221  15.886  36.190   5.805
 2725POPC   GL238222  16.232  36.102   5.775
 2725POPC   C1A38223  16.085  36.267   6.236
 2725POPC   D2A38224  16.040  36.063   6.630
 2725POPC   C3A38225  16.049  36.300   6.992
 2725POPC   C4A38226  15.719  36.461   7.267
 2725POPC   C1B38227  16.197  35.784   6.090
 2725POPC   C2B38228  16.329  35.669   6.515
 2725POPC   C3B38229  16.192  35.663   6.930
 2725POPC   C4B38230  15.961  35.875   7.246
 2726POPC   NC338231  42.202   0.878   5.489
 2726POPC   PO438232  42.550   1.478   5.361
 2726POPC   GL138233  42.467   1.332   5.807
 2726POPC   GL238234  42.107   1.267   5.803
 2726POPC   C1A38235  42.638   1.423   6.268
 2726POPC   D2A38236  42.682   1.510   6.727
 2726POPC   C3A38237  42.534   1.252   7.071
 2726POPC   C4A38238  42.713   1.400   7.453
 2726POPC   C1B38239  42.246   1.090   6.213
 2726POPC   C2B38240  42.231   1.316   6.617
 2726POPC   C3B38241  42.032   1.285   7.028
 2726POPC   C4B38242  41.732   1.511   7.280
 2727POPC   NC338243  19.615   8.080   5.381
 2727POPC   PO438244  20.165   7.859   5.222
 2727POPC   GL138245  20.089   8.115   5.666
 2727POPC   GL238246  19.946   8.411   5.626
 2727POPC   C1A38247  20.002   8.045   6.118
 2727POPC   D2A38248  20.214   7.816   6.460
 2727POPC   C3A38249  20.177   8.104   6.795
 2727POPC   C4A38250  19.837   8.056   7.111
 2727POPC   C1B38251  19.919   8.546   6.054
 2727POPC   C2B38252  20.029   8.523   6.476
 2727POPC   C3B38253  19.919   8.557   6.900
 2727POPC   C4B38254  20.187   8.409   7.202
 2728POPC   NC338255   8.429   0.370   5.597
 2728POPC   PO438256   7.846   0.097   5.383
 2728POPC   GL138257   7.938   0.253   5.811
 2728POPC   GL238258   8.165   0.527   6.014
 2728POPC   C1A38259   7.927   0.134   6.228
 2728POPC   D2A38260   8.118   0.314   6.570
 2728POPC   C3A38261   7.992   0.187   6.966
 2728POPC   C4A38262   8.193   0.184   7.390
 2728POPC   C1B38263   8.536   0.425   6.285
 2728POPC   C2B38264   8.573   0.467   6.734
 2728POPC   C3B38265   8.439   0.524   7.126
 2728POPC   C4B38266   8.603   0.546   7.551
 2729POPC   NC338267   9.691  35.341   5.433
 2729POPC   PO438268   9.464  34.816   5.166
 2729POPC   GL138269   9.625  34.838   5.674
 2729POPC   GL238270   9.914  35.059   5.796
 2729POPC   C1A38271   9.501  35.070   6.116
 2729POPC   D2A38272   9.651  35.209   6.518
 2729POPC   C3A38273   9.395  35.302   6.874
 2729POPC   C4A38274   9.531  35.315   7.267
 2729POPC   C1B38275   9.939  35.437   6.104
 2729POPC   C2B38276   9.969  35.636   6.541
 2729POPC   C3B38277   9.914  35.510   6.976
 2729POPC   C4B38278   9.914  35.668   7.421
 2730POPC   NC338279  40.080  11.540   5.413
 2730POPC   PO438280  39.512  11.153   5.457
 2730POPC   GL138281  39.912  11.182   5.789
 2730POPC   GL238282  40.253  11.402   5.879
 2730POPC   C1A38283  40.026  11.166   6.247
 2730POPC   D2A38284  40.056  11.424   6.619
 2730POPC   C3A38285  39.680  11.537   6.838
 2730POPC   C4A38286  39.687  11.372   7.234
 2730POPC   C1B38287  40.538  11.426   6.240
 2730POPC   C2B38288  40.562  11.515   6.679
 2730POPC   C3B38289  40.447  11.354   7.081
 2730POPC   C4B38290  40.155  11.508   7.379
 2731POPC   NC338291   0.462  17.358   5.668
 2731POPC   PO438292   0.258  17.939   5.336
 2731POPC   GL138293   0.150  17.791   5.752
 2731POPC   GL238294   0.362  18.032   5.922
 2731POPC   C1A38295   0.197  17.621   6.199
 2731POPC   D2A38296   0.466  17.442   6.507
 2731POPC   C3A38297   0.287  17.431   6.910
 2731POPC   C4A38298   0.339  17.352   7.339
 2731POPC   C1B38299   0.599  17.921   6.306
 2731POPC   C2B38300   0.648  17.891   6.757
 2731POPC   C3B38301   0.479  17.867   7.176
 2731POPC   C4B38302   0.383  18.136   7.541
 2732POPC   NC338303  24.963  15.073   5.481
 2732POPC   PO438304  24.579  15.585   5.389
 2732POPC   GL138305  24.485  15.285   5.717
 2732POPC   GL238306  24.303  14.994   5.715
 2732POPC   C1A38307  24.638  15.159   6.120
 2732POPC   D2A38308  24.458  15.154   6.545
 2732POPC   C3A38309  24.624  15.054   6.936
 2732POPC   C4A38310  24.537  15.353   7.242
 2732POPC   C1B38311  24.196  14.913   6.163
 2732POPC   C2B38312  23.997  14.916   6.590
 2732POPC   C3B38313  24.098  15.107   6.972
 2732POPC   C4B38314  24.212  14.969   7.348
 2733POPC   NC338315   4.048   0.310   5.500
 2733POPC   PO438316   4.753   0.169   5.500
 2733POPC   GL138317   4.433   0.188   5.845
 2733POPC   GL238318   4.281   0.526   5.909
 2733POPC   C1A38319   4.079   0.034   6.132
 2733POPC   D2A38320   3.926   0.083   6.557
 2733POPC   C3A38321   4.241   0.324   6.809
 2733POPC   C4A38322   4.238   0.336   7.228
 2733POPC   C1B38323   4.373   0.428   6.329
 2733POPC   C2B38324   4.683   0.577   6.642
 2733POPC   C3B38325   4.520   0.713   7.026
 2733POPC   C4B38326   4.055   0.804   7.097
 2734POPC   NC338327   6.437  32.318   5.026
 2734POPC   PO438328   6.851  32.477   5.577
 2734POPC   GL138329   6.583  32.524   5.917
 2734POPC   GL238330   6.219  32.648   5.833
 2734POPC   C1A38331   6.528  32.177   6.195
 2734POPC   D2A38332   6.524  31.932   6.548
 2734POPC   C3A38333   6.790  32.140   6.861
 2734POPC   C4A38334   6.744  32.329   7.280
 2734POPC   C1B38335   6.202  32.557   6.253
 2734POPC   C2B38336   6.437  32.655   6.587
 2734POPC   C3B38337   6.360  32.455   6.959
 2734POPC   C4B38338   6.299  32.564   7.386
 2735POPC   NC338339  26.889   8.327   5.406
 2735POPC   PO438340  26.576   7.809   5.438
 2735POPC   GL138341  26.904   7.974   5.758
 2735POPC   GL238342  26.663   8.189   5.879
 2735POPC   C1A38343  27.029   8.026   6.203
 2735POPC   D2A38344  27.230   8.287   6.520
 2735POPC   C3A38345  27.063   8.302   6.932
 2735POPC   C4A38346  27.019   7.902   7.112
 2735POPC   C1B38347  26.529   7.983   6.279
 2735POPC   C2B38348  26.712   7.970   6.694
 2735POPC   C3B38349  26.501   7.914   7.092
 2735POPC   C4B38350  26.311   8.220   7.364
 2736POPC   NC338351  38.698   3.130   5.308
 2736POPC   PO438352  38.404   2.535   5.447
 2736POPC   GL138353  38.470   2.923   5.724
 2736POPC   GL238354  38.226   3.209   5.727
 2736POPC   C1A38355  38.642   2.913   6.140
 2736POPC   D2A38356  38.759   2.740   6.548
 2736POPC   C3A38357  38.536   2.745   6.956
 2736POPC   C4A38358  38.466   2.943   7.343
 2736POPC   C1B38359  38.139   2.967   6.111
 2736POPC   C2B38360  38.278   2.971   6.556
 2736POPC   C3B38361  38.111   3.043   6.998
 2736POPC   C4B38362  38.063   3.288   7.378
 2737POPC   NC338363  28.296  32.586   5.461
 2737POPC   PO438364  28.496  33.257   5.214
 2737POPC   GL138365  28.263  33.066   5.650
 2737POPC   GL238366  28.501  32.850   5.831
 2737POPC   C1A38367  28.271  33.170   6.128
 2737POPC   D2A38368  28.437  33.284   6.536
 2737POPC   C3A38369  28.237  33.262   6.935
 2737POPC   C4A38370  28.228  33.399   7.360
 2737POPC   C1B38371  28.206  32.673   6.143
 2737POPC   C2B38372  28.348  32.764   6.544
 2737POPC   C3B38373  28.266  32.758   6.974
 2737POPC   C4B38374  28.126  32.916   7.346
 2738POPC   NC338375  16.047  34.055   5.511
 2738POPC   PO438376  15.768  33.380   5.632
 2738POPC   GL138377  15.985  33.680   5.911
 2738POPC   GL238378  15.854  34.027   5.975
 2738POPC   C1A38379  16.112  33.700   6.355
 2738POPC   D2A38380  16.248  33.650   6.786
 2738POPC   C3A38381  15.996  33.679   7.156
 2738POPC   C4A38382  15.970  33.343   7.494
 2738POPC   C1B38383  15.704  34.000   6.387
 2738POPC   C2B38384  15.972  34.068   6.739
 2738POPC   C3B38385  15.754  34.156   7.060
 2738POPC   C4B38386  15.483  33.837   7.146
 2739POPC   NC338387  31.868   6.686   5.388
 2739POPC   PO438388  32.586   6.440   5.355
 2739POPC   GL138389  32.282   6.521   5.682
 2739POPC   GL238390  32.299   6.875   5.751
 2739POPC   C1A38391  32.141   6.509   6.149
 2739POPC   D2A38392  32.196   6.679   6.609
 2739POPC   C3A38393  32.123   6.442   7.027
 2739POPC   C4A38394  32.249   6.551   7.476
 2739POPC   C1B38395  32.554   6.825   6.150
 2739POPC   C2B38396  32.721   6.787   6.584
 2739POPC   C3B38397  32.549   6.741   6.998
 2739POPC   C4B38398  32.157   6.950   7.124
 2740POPC   NC338399  18.534   3.030   5.497
 2740POPC   PO438400  17.997   2.762   5.326
 2740POPC   GL138401  18.135   2.600   5.759
 2740POPC   GL238402  18.461   2.440   5.878
 2740POPC   C1A38403  18.037   2.588   6.224
 2740POPC   D2A38404  17.985   2.773   6.662
 2740POPC   C3A38405  18.243   2.727   7.038
 2740POPC   C4A38406  18.066   2.705   7.450
 2740POPC   C1B38407  18.571   2.648   6.307
 2740POPC   C2B38408  18.700   2.544   6.761
 2740POPC   C3B38409  18.734   2.621   7.217
 2740POPC   C4B38410  18.578   2.967   7.463
 2741POPC   NC338411  25.374  34.472   5.252
 2741POPC   PO438412  24.822  34.897   5.209
 2741POPC   GL138413  24.839  34.589   5.636
 2741POPC   GL238414  25.031  34.236   5.706
 2741POPC   C1A38415  25.059  34.598   6.074
 2741POPC   D2A38416  25.454  34.621   6.361
 2741POPC   C3A38417  25.380  34.677   6.813
 2741POPC   C4A38418  25.479  34.775   7.260
 2741POPC   C1B38419  25.321  34.167   6.136
 2741POPC   C2B38420  25.439  34.177   6.622
 2741POPC   C3B38421  25.424  34.267   7.105
 2741POPC   C4B38422  25.721  34.318   7.433
 2742POPC   NC338423  22.745  31.396   5.168
 2742POPC   PO438424  23.118  30.938   5.431
 2742POPC   GL138425  23.154  31.339   5.690
 2742POPC   GL238426  22.822  31.543   5.696
 2742POPC   C1A38427  23.188  31.539   6.110
 2742POPC   D2A38428  23.035  31.462   6.544
 2742POPC   C3A38429  23.165  31.254   6.925
 2742POPC   C4A38430  23.285  31.460   7.317
 2742POPC   C1B38431  22.653  31.623   6.143
 2742POPC   C2B38432  22.529  31.551   6.598
 2742POPC   C3B38433  22.797  31.609   7.010
 2742POPC   C4B38434  22.795  31.528   7.496
 2743POPC   NC338435  15.154  26.916   5.042
 2743POPC   PO438436  15.286  26.339   5.321
 2743POPC   GL138437  15.098  26.562   5.735
 2743POPC   GL238438  15.128  26.898   5.702
 2743POPC   C1A38439  15.304  26.813   6.173
 2743POPC   D2A38440  15.445  26.966   6.621
 2743POPC   C3A38441  15.311  26.883   7.056
 2743POPC   C4A38442  15.115  26.579   7.336
 2743POPC   C1B38443  14.812  26.809   6.060
 2743POPC   C2B38444  14.919  26.642   6.493
 2743POPC   C3B38445  14.810  26.786   6.922
 2743POPC   C4B38446  14.865  27.136   7.159
 2744POPC   NC338447   9.870  22.237   5.441
 2744POPC   PO438448   9.710  21.598   5.248
 2744POPC   GL138449   9.788  21.761   5.734
 2744POPC   GL238450   9.911  22.087   5.911
 2744POPC   C1A38451   9.529  21.896   6.148
 2744POPC   D2A38452   9.740  21.947   6.546
 2744POPC   C3A38453   9.706  22.103   6.916
 2744POPC   C4A38454   9.521  21.954   7.247
 2744POPC   C1B38455   9.988  22.308   6.314
 2744POPC   C2B38456   9.731  22.537   6.624
 2744POPC   C3B38457   9.654  22.574   7.057
 2744POPC   C4B38458   9.896  22.318   7.358
 2745POPC   NC338459  27.780  30.783   5.424
 2745POPC   PO438460  27.150  30.907   5.422
 2745POPC   GL138461  27.420  30.652   5.786
 2745POPC   GL238462  27.786  30.595   5.900
 2745POPC   C1A38463  27.469  30.551   6.273
 2745POPC   D2A38464  27.657  30.644   6.679
 2745POPC   C3A38465  27.319  30.709   6.951
 2745POPC   C4A38466  27.373  30.337   7.170
 2745POPC   C1B38467  28.002  30.732   6.285
 2745POPC   C2B38468  28.084  30.945   6.675
 2745POPC   C3B38469  28.068  30.801   7.081
 2745POPC   C4B38470  27.686  30.756   7.291
 2746POPC   NC338471   4.753  39.257   5.450
 2746POPC   PO438472   5.458  39.281   5.428
 2746POPC   GL138473   5.161  39.307   5.816
 2746POPC   GL238474   4.838  39.468   5.890
 2746POPC   C1A38475   5.271  39.244   6.266
 2746POPC   D2A38476   5.489  39.279   6.674
 2746POPC   C3A38477   5.239  39.082   6.987
 2746POPC   C4A38478   5.184  39.128   7.428
 2746POPC   C1B38479   4.755  39.203   6.232
 2746POPC   C2B38480   4.782  38.980   6.620
 2746POPC   C3B38481   4.737  39.279   6.952
 2746POPC   C4B38482   4.667  39.221   7.354
 2747POPC   NC338483  23.285   5.190   5.546
 2747POPC   PO438484  23.939   5.016   5.369
 2747POPC   GL138485  23.716   4.974   5.751
 2747POPC   GL238486  23.749   5.316   5.769
 2747POPC   C1A38487  23.632   5.053   6.211
 2747POPC   D2A38488  23.792   4.935   6.625
 2747POPC   C3A38489  23.545   5.116   6.985
 2747POPC   C4A38490  23.515   4.902   7.400
 2747POPC   C1B38491  23.977   5.436   6.124
 2747POPC   C2B38492  23.825   5.433   6.548
 2747POPC   C3B38493  24.002   5.380   6.957
 2747POPC   C4B38494  24.095   5.563   7.356
 2748POPC   NC338495  16.100  25.614   5.557
 2748POPC   PO438496  15.908  26.268   5.503
 2748POPC   GL138497  15.812  26.179   5.882
 2748POPC   GL238498  15.751  25.835   5.868
 2748POPC   C1A38499  15.879  26.247   6.291
 2748POPC   D2A38500  15.786  26.022   6.640
 2748POPC   C3A38501  15.987  26.303   6.899
 2748POPC   C4A38502  15.916  26.226   7.292
 2748POPC   C1B38503  16.119  25.826   6.168
 2748POPC   C2B38504  16.287  26.002   6.564
 2748POPC   C3B38505  16.173  25.828   6.976
 2748POPC   C4B38506  16.229  25.812   7.406
 2749POPC   NC338507  35.837  21.963   5.393
 2749POPC   PO438508  35.399  21.281   5.339
 2749POPC   GL138509  35.390  21.330   5.750
 2749POPC   GL238510  35.531  21.662   5.722
 2749POPC   C1A38511  35.286  21.270   6.178
 2749POPC   D2A38512  35.392  21.530   6.512
 2749POPC   C3A38513  35.438  21.281   6.860
 2749POPC   C4A38514  35.241  21.478   7.164
 2749POPC   C1B38515  35.687  21.735   6.128
 2749POPC   C2B38516  35.768  21.917   6.518
 2749POPC   C3B38517  35.749  21.724   6.913
 2749POPC   C4B38518  35.766  21.468   7.255
 2750POPC   NC338519  18.839  29.250   5.373
 2750POPC   PO438520  19.526  28.952   5.220
 2750POPC   GL138521  19.284  29.064   5.660
 2750POPC   GL238522  18.939  29.041   5.834
 2750POPC   C1A38523  19.339  29.244   6.097
 2750POPC   D2A38524  19.431  29.083   6.533
 2750POPC   C3A38525  19.094  29.163   6.855
 2750POPC   C4A38526  18.990  29.203   7.300
 2750POPC   C1B38527  19.154  28.760   6.135
 2750POPC   C2B38528  19.042  28.722   6.569
 2750POPC   C3B38529  18.967  28.688   7.016
 2750POPC   C4B38530  18.703  28.806   7.358
 2751POPC   NC338531  43.310  23.770   4.977
 2751POPC   PO438532  43.618  23.314   5.504
 2751POPC   GL138533  43.203  23.492   5.805
 2751POPC   GL238534  42.817  23.495   5.674
 2751POPC   C1A38535  43.017  23.849   6.080
 2751POPC   D2A38536  42.954  23.733   6.533
 2751POPC   C3A38537  43.181  23.884   6.917
 2751POPC   C4A38538  43.141  23.682   7.321
 2751POPC   C1B38539  42.811  23.385   6.125
 2751POPC   C2B38540  42.604  23.349   6.549
 2751POPC   C3B38541  42.823  23.399   6.984
 2751POPC   C4B38542  42.699  23.480   7.444
 2752POPC   NC338543   7.030  21.475   5.197
 2752POPC   PO438544   6.371  21.405   5.344
 2752POPC   GL138545   6.655  21.314   5.687
 2752POPC   GL238546   6.466  21.527   5.908
 2752POPC   C1A38547   6.918  21.431   6.088
 2752POPC   D2A38548   7.115  21.645   6.443
 2752POPC   C3A38549   6.858  21.620   6.792
 2752POPC   C4A38550   6.918  21.689   7.216
 2752POPC   C1B38551   6.459  21.099   6.128
 2752POPC   C2B38552   6.465  20.883   6.549
 2752POPC   C3B38553   6.373  21.006   6.996
 2752POPC   C4B38554   6.668  21.195   7.291
 2753POPC   NC338555   3.206  42.968   5.491
 2753POPC   PO438556   2.669  43.422   5.501
 2753POPC   GL138557   2.851  43.199   5.795
 2753POPC   GL238558   3.153  43.362   5.828
 2753POPC   C1A38559   2.685  42.970   6.112
 2753POPC   D2A38560   2.524  43.024   6.497
 2753POPC   C3A38561   2.726  43.079   6.874
 2753POPC   C4A38562   2.621  43.086   7.268
 2753POPC   C1B38563   3.311  43.443   6.192
 2753POPC   C2B38564   3.012  43.379   6.488
 2753POPC   C3B38565   3.079  43.475   6.909
 2753POPC   C4B38566   3.082  43.305   7.306
 2754POPC   NC338567  14.996  31.213   5.319
 2754POPC   PO438568  15.639  31.444   5.149
 2754POPC   GL138569  15.359  31.538   5.574
 2754POPC   GL238570  15.159  31.327   5.772
 2754POPC   C1A38571  15.342  31.655   6.088
 2754POPC   D2A38572  15.421  31.929   6.473
 2754POPC   C3A38573  15.262  31.781   6.880
 2754POPC   C4A38574  15.338  31.612   7.285
 2754POPC   C1B38575  15.139  31.162   6.179
 2754POPC   C2B38576  15.203  31.369   6.574
 2754POPC   C3B38577  15.265  31.177   6.981
 2754POPC   C4B38578  15.041  31.147   7.356
 2755POPC   NC338579  31.835  14.554   5.332
 2755POPC   PO438580  31.316  14.136   5.519
 2755POPC   GL138581  31.546  14.419   5.761
 2755POPC   GL238582  31.822  14.232   5.782
 2755POPC   C1A38583  31.388  14.485   6.171
 2755POPC   D2A38584  31.197  14.292   6.500
 2755POPC   C3A38585  31.349  14.503   6.859
 2755POPC   C4A38586  31.211  14.488   7.283
 2755POPC   C1B38587  31.867  14.338   6.202
 2755POPC   C2B38588  31.698  14.212   6.571
 2755POPC   C3B38589  31.783  14.256   6.992
 2755POPC   C4B38590  31.710  14.573   7.226
 2756POPC   NC338591   1.286  18.844   5.217
 2756POPC   PO438592   0.883  19.340   5.416
 2756POPC   GL138593   1.198  19.324   5.737
 2756POPC   GL238594   1.113  18.991   5.828
 2756POPC   C1A38595   1.224  19.324   6.200
 2756POPC   D2A38596   1.189  19.046   6.566
 2756POPC   C3A38597   1.229  19.205   7.019
 2756POPC   C4A38598   1.397  19.268   7.488
 2756POPC   C1B38599   1.429  18.769   6.085
 2756POPC   C2B38600   1.477  18.624   6.526
 2756POPC   C3B38601   1.277  18.698   6.946
 2756POPC   C4B38602   1.424  18.780   7.365
 2757POPC   NC338603  38.104   0.323   5.439
 2757POPC   PO438604  37.517   0.501   5.720
 2757POPC   GL138605  37.791   0.309   5.928
 2757POPC   GL238606  38.085   0.586   5.893
 2757POPC   C1A38607  37.616   0.152   6.339
 2757POPC   D2A38608  37.325   0.244   6.680
 2757POPC   C3A38609  37.571   0.429   6.989
 2757POPC   C4A38610  37.707   0.259   7.305
 2757POPC   C1B38611  38.139   0.826   6.299
 2757POPC   C2B38612  37.956   0.825   6.729
 2757POPC   C3B38613  38.021   0.686   7.158
 2757POPC   C4B38614  37.943   0.596   7.598
 2758POPC   NC338615  20.779  12.927   5.395
 2758POPC   PO438616  20.346  12.417   5.420
 2758POPC   GL138617  20.564  12.699   5.807
 2758POPC   GL238618  20.855  12.562   6.000
 2758POPC   C1A38619  20.609  12.963   6.230
 2758POPC   D2A38620  20.476  12.944   6.694
 2758POPC   C3A38621  20.710  12.734   7.044
 2758POPC   C4A38622  20.925  12.624   7.415
 2758POPC   C1B38623  20.575  12.457   6.291
 2758POPC   C2B38624  20.459  12.432   6.685
 2758POPC   C3B38625  20.239  12.524   7.039
 2758POPC   C4B38626  20.463  12.437   7.414
 2759POPC   NC338627  39.773  14.776   5.539
 2759POPC   PO438628  40.195  15.246   5.408
 2759POPC   GL138629  40.231  15.282   5.847
 2759POPC   GL238630  40.117  15.614   5.850
 2759POPC   C1A38631  40.097  15.127   6.224
 2759POPC   D2A38632  40.026  14.886   6.585
 2759POPC   C3A38633  40.100  15.084   6.959
 2759POPC   C4A38634  40.073  15.393   7.270
 2759POPC   C1B38635  39.784  15.573   6.173
 2759POPC   C2B38636  39.674  15.279   6.498
 2759POPC   C3B38637  39.666  15.421   6.891
 2759POPC   C4B38638  39.593  15.597   7.269
 2760POPC   NC338639   1.284   9.409   5.398
 2760POPC   PO438640   1.402  10.007   5.341
 2760POPC   GL138641   1.281   9.773   5.764
 2760POPC   GL238642   0.971   9.571   5.794
 2760POPC   C1A38643   1.325   9.731   6.244
 2760POPC   D2A38644   1.526   9.630   6.680
 2760POPC   C3A38645   1.419   9.857   7.071
 2760POPC   C4A38646   1.098  10.003   7.421
 2760POPC   C1B38647   0.981   9.353   6.200
 2760POPC   C2B38648   1.019   9.508   6.650
 2760POPC   C3B38649   0.998   9.567   7.122
 2760POPC   C4B38650   0.856   9.561   7.596
 2761POPC   NC338651  42.026   1.624   5.384
 2761POPC   PO438652  42.496   2.133   5.591
 2761POPC   GL138653  42.262   1.814   5.786
 2761POPC   GL238654  41.944   1.947   5.821
 2761POPC   C1A38655  42.180   1.633   6.171
 2761POPC   D2A38656  42.309   1.809   6.549
 2761POPC   C3A38657  42.106   1.794   6.940
 2761POPC   C4A38658  42.369   2.064   7.184
 2761POPC   C1B38659  42.148   2.158   6.206
 2761POPC   C2B38660  41.966   2.191   6.644
 2761POPC   C3B38661  41.953   2.327   7.065
 2761POPC   C4B38662  42.196   2.550   7.383
 2762POPC   NC338663  34.501   0.679   5.628
 2762POPC   PO438664  34.827   0.103   5.641
 2762POPC   GL138665  34.518   0.230   5.874
 2762POPC   GL238666  34.230   0.064   5.731
 2762POPC   C1A38667  34.604   0.457   6.255
 2762POPC   D2A38668  34.879   0.320   6.602
 2762POPC   C3A38669  34.796   0.408   7.050
 2762POPC   C4A38670  34.653   0.609   7.410
 2762POPC   C1B38671  34.177   0.107   6.204
 2762POPC   C2B38672  34.316   0.296   6.630
 2762POPC   C3B38673  34.281   0.335   7.066
 2762POPC   C4B38674  34.457   0.137   7.440
 2763POPC   NC338675  15.821  21.091   5.518
 2763POPC   PO438676  16.400  21.146   5.646
 2763POPC   GL138677  16.067  21.395   5.881
 2763POPC   GL238678  15.768  21.645   5.792
 2763POPC   C1A38679  16.068  21.323   6.317
 2763POPC   D2A38680  16.210  21.498   6.715
 2763POPC   C3A38681  16.114  21.302   7.105
 2763POPC   C4A38682  15.819  21.116   7.404
 2763POPC   C1B38683  15.898  21.786   6.223
 2763POPC   C2B38684  15.701  21.591   6.565
 2763POPC   C3B38685  15.635  21.416   6.940
 2763POPC   C4B38686  15.745  21.629   7.287
 2764POPC   NC338687   6.048   8.385   5.477
 2764POPC   PO438688   5.505   7.885   5.462
 2764POPC   GL138689   5.739   8.049   5.792
 2764POPC   GL238690   5.669   8.416   5.841
 2764POPC   C1A38691   5.604   8.099   6.231
 2764POPC   D2A38692   5.711   8.466   6.487
 2764POPC   C3A38693   5.824   8.289   6.869
 2764POPC   C4A38694   5.670   8.152   7.269
 2764POPC   C1B38695   6.059   8.300   6.125
 2764POPC   C2B38696   6.229   8.484   6.487
 2764POPC   C3B38697   6.284   8.500   6.933
 2764POPC   C4B38698   6.028   8.529   7.288
 2765POPC   NC338699  18.322  44.923   5.660
 2765POPC   PO438700  18.639  44.359   5.410
 2765POPC   GL138701  18.441  44.419   5.801
 2765POPC   GL238702  18.086  44.450   5.769
 2765POPC   C1A38703  18.505  44.579   6.223
 2765POPC   D2A38704  18.496  44.636   6.676
 2765POPC   C3A38705  18.805  44.849   6.901
 2765POPC   C4A38706  18.631  44.678   7.262
 2765POPC   C1B38707  18.110  44.254   6.209
 2765POPC   C2B38708  18.114  44.274   6.696
 2765POPC   C3B38709  18.103  44.553   7.110
 2765POPC   C4B38710  17.778  44.781   7.399
 2766POPC   NC338711  39.595   6.109   5.106
 2766POPC   PO438712  40.070   6.449   5.407
 2766POPC   GL138713  39.836   6.483   5.785
 2766POPC   GL238714  39.780   6.830   5.824
 2766POPC   C1A38715  39.922   6.578   6.238
 2766POPC   D2A38716  39.804   6.403   6.631
 2766POPC   C3A38717  39.918   6.596   7.015
 2766POPC   C4A38718  40.134   6.527   7.416
 2766POPC   C1B38719  39.578   6.969   6.179
 2766POPC   C2B38720  39.772   7.000   6.553
 2766POPC   C3B38721  39.645   7.062   6.956
 2766POPC   C4B38722  39.851   6.946   7.372
 2767POPC   NC338723   8.904  35.592   5.229
 2767POPC   PO438724   9.233  35.124   5.551
 2767POPC   GL138725   8.842  35.182   5.850
 2767POPC   GL238726   8.677  35.575   5.844
 2767POPC   C1A38727   8.652  35.252   6.255
 2767POPC   D2A38728   8.676  34.982   6.607
 2767POPC   C3A38729   8.898  35.131   6.966
 2767POPC   C4A38730   8.805  35.236   7.418
 2767POPC   C1B38731   8.862  35.725   6.275
 2767POPC   C2B38732   8.819  35.580   6.722
 2767POPC   C3B38733   8.992  35.627   7.156
 2767POPC   C4B38734   8.965  35.678   7.632
 2768POPC   NC338735  10.717  37.520   5.445
 2768POPC   PO438736  10.232  38.054   5.612
 2768POPC   GL138737  10.406  37.718   5.847
 2768POPC   GL238738  10.320  37.933   6.151
 2768POPC   C1A38739  10.597  37.500   6.199
 2768POPC   D2A38740  10.568  37.718   6.605
 2768POPC   C3A38741  10.636  37.476   6.997
 2768POPC   C4A38742  10.596  37.336   7.434
 2768POPC   C1B38743  10.778  38.025   6.217
 2768POPC   C2B38744  11.061  37.948   6.543
 2768POPC   C3B38745  10.940  37.910   6.905
 2768POPC   C4B38746  10.597  38.004   7.138
 2769POPC   NC338747  41.811  10.993   5.191
 2769POPC   PO438748  41.316  11.296   5.153
 2769POPC   GL138749  41.349  11.308   5.652
 2769POPC   GL238750  41.702  11.173   5.693
 2769POPC   C1A38751  41.365  11.407   6.131
 2769POPC   D2A38752  41.570  11.517   6.565
 2769POPC   C3A38753  41.382  11.345   6.948
 2769POPC   C4A38754  41.383  11.453   7.378
 2769POPC   C1B38755  41.865  11.296   6.104
 2769POPC   C2B38756  41.901  11.137   6.513
 2769POPC   C3B38757  41.883  11.099   6.951
 2769POPC   C4B38758  41.865  11.181   7.387
 2770POPC   NC338759  34.751   6.884   5.453
 2770POPC   PO438760  34.299   6.399   5.542
 2770POPC   GL138761  34.465   6.608   5.881
 2770POPC   GL238762  34.517   6.944   5.913
 2770POPC   C1A38763  34.642   6.422   6.223
 2770POPC   D2A38764  34.827   6.278   6.574
 2770POPC   C3A38765  34.604   6.272   6.943
 2770POPC   C4A38766  34.475   6.515   7.284
 2770POPC   C1B38767  34.696   6.907   6.305
 2770POPC   C2B38768  34.632   6.767   6.723
 2770POPC   C3B38769  34.590   6.995   7.116
 2770POPC   C4B38770  34.713   6.896   7.561
 2771POPC   NC338771  11.596  13.923   5.389
 2771POPC   PO438772  11.090  13.587   5.358
 2771POPC   GL138773  11.212  13.731   5.748
 2771POPC   GL238774  11.541  13.635   5.813
 2771POPC   C1A38775  11.188  13.640   6.193
 2771POPC   D2A38776  11.023  13.762   6.601
 2771POPC   C3A38777  11.215  13.742   7.012
 2771POPC   C4A38778  11.194  13.505   7.414
 2771POPC   C1B38779  11.681  13.767   6.214
 2771POPC   C2B38780  11.566  13.639   6.650
 2771POPC   C3B38781  11.662  13.472   7.110
 2771POPC   C4B38782  11.665  13.495   7.593
 2772POPC   NC338783   9.087  29.782   5.406
 2772POPC   PO438784   8.449  29.532   5.574
 2772POPC   GL138785   8.808  29.746   5.824
 2772POPC   GL238786   8.941  30.097   5.803
 2772POPC   C1A38787   9.212  29.669   6.049
 2772POPC   D2A38788   9.323  29.731   6.471
 2772POPC   C3A38789   9.008  29.790   6.791
 2772POPC   C4A38790   8.995  29.832   7.239
 2772POPC   C1B38791   8.878  30.004   6.268
 2772POPC   C2B38792   8.691  30.170   6.641
 2772POPC   C3B38793   8.926  30.266   7.019
 2772POPC   C4B38794   9.132  30.268   7.467
 2773POPC   NC338795  33.420  14.546   5.473
 2773POPC   PO438796  32.807  14.162   5.485
 2773POPC   GL138797  33.003  14.408   5.737
 2773POPC   GL238798  32.744  14.476   5.944
 2773POPC   C1A38799  33.241  14.383   6.121
 2773POPC   D2A38800  33.259  14.210   6.562
 2773POPC   C3A38801  33.059  14.400   6.937
 2773POPC   C4A38802  32.681  14.621   7.090
 2773POPC   C1B38803  32.841  14.088   6.205
 2773POPC   C2B38804  32.704  14.117   6.613
 2773POPC   C3B38805  32.765  13.986   6.990
 2773POPC   C4B38806  32.987  13.995   7.359
 2774POPC   NC338807  36.096   7.750   5.328
 2774POPC   PO438808  36.315   8.377   5.170
 2774POPC   GL138809  36.191   8.387   5.639
 2774POPC   GL238810  36.120   8.051   5.798
 2774POPC   C1A38811  36.177   8.463   6.111
 2774POPC   D2A38812  36.148   8.247   6.517
 2774POPC   C3A38813  36.368   8.456   6.841
 2774POPC   C4A38814  36.123   8.445   7.194
 2774POPC   C1B38815  36.018   7.828   6.208
 2774POPC   C2B38816  35.878   7.631   6.602
 2774POPC   C3B38817  35.769   7.865   6.935
 2774POPC   C4B38818  35.904   7.997   7.331
 2775POPC   NC338819  18.009  10.681   5.595
 2775POPC   PO438820  17.433  10.993   5.446
 2775POPC   GL138821  17.467  11.275   5.781
 2775POPC   GL238822  17.825  11.381   5.773
 2775POPC   C1A38823  17.262  11.406   6.173
 2775POPC   D2A38824  17.461  11.361   6.586
 2775POPC   C3A38825  17.672  11.357   6.981
 2775POPC   C4A38826  17.423  11.273   7.327
 2775POPC   C1B38827  17.754  11.165   6.184
 2775POPC   C2B38828  17.948  11.166   6.587
 2775POPC   C3B38829  17.962  10.905   6.956
 2775POPC   C4B38830  17.922  11.081   7.364
 2776POPC   NC338831   2.439   6.510   5.280
 2776POPC   PO438832   3.067   6.658   5.378
 2776POPC   GL138833   2.893   6.562   5.787
 2776POPC   GL238834   2.559   6.393   5.777
 2776POPC   C1A38835   2.906   6.783   6.192
 2776POPC   D2A38836   2.836   6.941   6.626
 2776POPC   C3A38837   3.109   6.811   6.987
 2776POPC   C4A38838   2.922   6.684   7.400
 2776POPC   C1B38839   2.442   6.548   6.166
 2776POPC   C2B38840   2.645   6.450   6.551
 2776POPC   C3B38841   2.641   6.559   6.984
 2776POPC   C4B38842   2.344   6.412   7.285
 2777POPC   NC338843  41.730   3.911   5.310
 2777POPC   PO438844  41.344   4.519   5.475
 2777POPC   GL138845  41.567   4.614   5.883
 2777POPC   GL238846  41.665   4.305   6.052
 2777POPC   C1A38847  41.695   4.760   6.292
 2777POPC   D2A38848  41.613   4.420   6.569
 2777POPC   C3A38849  41.456   4.415   6.972
 2777POPC   C4A38850  41.795   4.380   7.259
 2777POPC   C1B38851  41.397   4.019   6.326
 2777POPC   C2B38852  41.541   3.920   6.745
 2777POPC   C3B38853  41.250   3.956   7.043
 2777POPC   C4B38854  41.144   4.223   7.372
 2778POPC   NC338855  39.950  15.647   5.343
 2778POPC   PO438856  39.801  16.294   5.220
 2778POPC   GL138857  39.862  16.104   5.667
 2778POPC   GL238858  39.636  15.819   5.745
 2778POPC   C1A38859  40.100  16.060   6.086
 2778POPC   D2A38860  40.392  16.232   6.420
 2778POPC   C3A38861  40.304  16.132   6.879
 2778POPC   C4A38862  39.986  15.866   7.077
 2778POPC   C1B38863  39.586  16.099   6.128
 2778POPC   C2B38864  39.577  16.273   6.559
 2778POPC   C3B38865  39.531  16.118   6.976
 2778POPC   C4B38866  39.677  16.084   7.409
 2779POPC   NC338867  43.594  41.687   5.411
 2779POPC   PO438868  44.253  41.627   5.449
 2779POPC   GL138869  44.149  41.875   5.839
 2779POPC   GL238870  43.856  41.671   5.881
 2779POPC   C1A38871  43.959  41.900   6.320
 2779POPC   D2A38872  44.028  41.551   6.622
 2779POPC   C3A38873  44.227  41.415   7.028
 2779POPC   C4A38874  44.118  41.329   7.481
 2779POPC   C1B38875  43.675  41.419   6.227
 2779POPC   C2B38876  43.532  41.465   6.673
 2779POPC   C3B38877  43.740  41.673   7.048
 2779POPC   C4B38878  43.677  41.587   7.496
 2780POPC   NC338879   3.568  17.952   5.486
 2780POPC   PO438880   3.592  18.585   5.361
 2780POPC   GL138881   3.623  18.388   5.773
 2780POPC   GL238882   3.342  18.177   5.888
 2780POPC   C1A38883   3.558  18.533   6.206
 2780POPC   D2A38884   3.719  18.288   6.535
 2780POPC   C3A38885   3.674  18.402   6.945
 2780POPC   C4A38886   3.647  18.087   7.223
 2780POPC   C1B38887   3.241  18.159   6.332
 2780POPC   C2B38888   3.202  18.337   6.749
 2780POPC   C3B38889   3.208  18.357   7.221
 2780POPC   C4B38890   3.228  18.017   7.556
 2781POPC   NC338891  38.816  19.102   5.330
 2781POPC   PO438892  39.530  18.960   5.257
 2781POPC   GL138893  39.412  18.934   5.761
 2781POPC   GL238894  39.021  18.882   5.796
 2781POPC   C1A38895  39.350  19.076   6.209
 2781POPC   D2A38896  39.360  19.401   6.571
 2781POPC   C3A38897  39.253  19.250   6.989
 2781POPC   C4A38898  39.413  18.936   7.260
 2781POPC   C1B38899  38.841  19.140   6.173
 2781POPC   C2B38900  38.821  19.357   6.588
 2781POPC   C3B38901  38.709  19.290   7.012
 2781POPC   C4B38902  38.895  18.940   7.270
 2782POPC   NC338903  20.175   5.585   5.468
 2782POPC   PO438904  19.835   6.199   5.458
 2782POPC   GL138905  19.804   5.864   5.790
 2782POPC   GL238906  19.478   5.698   5.879
 2782POPC   C1A38907  19.970   5.949   6.213
 2782POPC   D2A38908  19.999   6.249   6.553
 2782POPC   C3A38909  20.025   6.038   6.904
 2782POPC   C4A38910  19.938   5.816   7.241
 2782POPC   C1B38911  19.671   5.515   6.221
 2782POPC   C2B38912  19.778   5.640   6.620
 2782POPC   C3B38913  19.659   5.460   7.000
 2782POPC   C4B38914  19.975   5.323   7.245
 2783POPC   NC338915  37.305  20.165   5.429
 2783POPC   PO438916  37.954  20.015   5.174
 2783POPC   GL138917  37.739  19.894   5.548
 2783POPC   GL238918  37.758  20.237   5.670
 2783POPC   C1A38919  37.707  19.619   5.938
 2783POPC   D2A38920  37.537  19.656   6.381
 2783POPC   C3A38921  37.709  19.574   6.812
 2783POPC   C4A38922  37.706  19.618   7.275
 2783POPC   C1B38923  37.559  20.087   6.072
 2783POPC   C2B38924  37.521  20.138   6.535
 2783POPC   C3B38925  37.510  20.096   6.984
 2783POPC   C4B38926  37.786  20.348   7.237
 2784POPC   NC338927  31.052   0.752   5.124
 2784POPC   PO438928  31.708   0.596   5.505
 2784POPC   GL138929  31.479   0.743   5.877
 2784POPC   GL238930  31.101   0.723   5.966
 2784POPC   C1A38931  31.448   0.547   6.303
 2784POPC   D2A38932  31.398   0.532   6.754
 2784POPC   C3A38933  31.663   0.226   6.906
 2784POPC   C4A38934  31.599  44.996   7.241
 2784POPC   C1B38935  31.021   0.790   6.441
 2784POPC   C2B38936  31.164   0.991   6.813
 2784POPC   C3B38937  31.378   0.892   7.183
 2784POPC   C4B38938  31.337   0.444   7.278
 2785POPC   NC338939  41.430  44.870   5.433
 2785POPC   PO438940  41.639  44.282   5.204
 2785POPC   GL138941  41.679  44.579   5.746
 2785POPC   GL238942  41.320  44.638   5.882
 2785POPC   C1A38943  41.682  44.524   6.247
 2785POPC   D2A38944  41.701  44.545   6.736
 2785POPC   C3A38945  41.419  44.528   7.091
 2785POPC   C4A38946  41.370  44.454   7.561
 2785POPC   C1B38947  41.452  44.977   6.167
 2785POPC   C2B38948  41.635   0.061   6.582
 2785POPC   C3B38949  41.572   0.061   7.026
 2785POPC   C4B38950  41.745   0.016   7.442
 2786POPC   NC338951  31.041   5.263   5.397
 2786POPC   PO438952  30.378   5.479   5.267
 2786POPC   GL138953  30.468   5.251   5.711
 2786POPC   GL238954  30.815   5.175   5.841
 2786POPC   C1A38955  30.473   4.916   6.062
 2786POPC   D2A38956  30.574   5.027   6.497
 2786POPC   C3A38957  30.638   5.309   6.833
 2786POPC   C4A38958  30.680   5.122   7.236
 2786POPC   C1B38959  30.979   4.961   6.203
 2786POPC   C2B38960  31.157   5.121   6.580
 2786POPC   C3B38961  31.124   5.237   6.996
 2786POPC   C4B38962  31.155   4.928   7.265
 2787POPC   NC338963   5.642   7.492   5.668
 2787POPC   PO438964   6.127   7.103   5.449
 2787POPC   GL138965   6.093   7.236   5.848
 2787POPC   GL238966   5.798   7.045   5.930
 2787POPC   C1A38967   6.227   7.523   6.196
 2787POPC   D2A38968   6.454   7.551   6.600
 2787POPC   C3A38969   6.176   7.570   6.961
 2787POPC   C4A38970   6.005   7.177   7.095
 2787POPC   C1B38971   5.621   6.845   6.301
 2787POPC   C2B38972   5.610   6.855   6.764
 2787POPC   C3B38973   5.505   7.235   6.964
 2787POPC   C4B38974   5.519   7.671   7.123
 2788POPC   NC338975   4.089  39.652   5.258
 2788POPC   PO438976   4.757  39.757   5.468
 2788POPC   GL138977   4.354  39.881   5.663
 2788POPC   GL238978   4.206  39.585   5.782
 2788POPC   C1A38979   4.139  40.064   6.040
 2788POPC   D2A38980   4.337  40.142   6.467
 2788POPC   C3A38981   4.127  40.194   6.859
 2788POPC   C4A38982   4.217  40.032   7.252
 2788POPC   C1B38983   4.472  39.683   6.159
 2788POPC   C2B38984   4.632  39.739   6.571
 2788POPC   C3B38985   4.621  39.982   6.922
 2788POPC   C4B38986   4.631  39.732   7.262
 2789POPC   NC338987  39.837  28.727   5.307
 2789POPC   PO438988  40.326  29.168   5.508
 2789POPC   GL138989  40.076  29.188   5.870
 2789POPC   GL238990  39.774  28.994   5.760
 2789POPC   C1A38991  40.199  29.178   6.330
 2789POPC   D2A38992  40.267  29.001   6.755
 2789POPC   C3A38993  40.095  29.300   7.038
 2789POPC   C4A38994  40.161  29.328   7.479
 2789POPC   C1B38995  39.903  28.786   6.159
 2789POPC   C2B38996  39.790  28.931   6.572
 2789POPC   C3B38997  39.665  29.000   6.975
 2789POPC   C4B38998  39.859  28.933   7.342
 2790POPC   NC338999  11.159  39.933   4.989
 2790POPC   PO439000  11.161  40.489   5.305
 2790POPC   GL139001  11.207  40.144   5.619
 2790POPC   GL239002  10.854  40.193   5.737
 2790POPC   C1A39003  11.337  39.836   5.974
 2790POPC   D2A39004  11.431  39.897   6.442
 2790POPC   C3A39005  11.507  39.613   6.795
 2790POPC   C4A39006  11.567  39.677   7.254
 2790POPC   C1B39007  10.972  40.139   6.170
 2790POPC   C2B39008  10.877  39.913   6.532
 2790POPC   C3B39009  11.100  39.879   6.916
 2790POPC   C4B39010  11.100  39.952   7.344
 2791POPC   NC339011   4.235  36.361   5.399
 2791POPC   PO439012   4.441  35.733   5.360
 2791POPC   GL139013   4.240  35.890   5.765
 2791POPC   GL239014   4.431  36.200   5.850
 2791POPC   C1A39015   4.198  35.873   6.247
 2791POPC   D2A39016   4.475  36.049   6.603
 2791POPC   C3A39017   4.404  36.236   7.016
 2791POPC   C4A39018   4.463  36.506   7.413
 2791POPC   C1B39019   4.072  36.332   6.068
 2791POPC   C2B39020   4.004  36.291   6.515
 2791POPC   C3B39021   3.901  36.326   6.946
 2791POPC   C4B39022   4.012  36.328   7.360
 2792POPC   NC339023  38.162  24.641   5.365
 2792POPC   PO439024  37.651  24.273   5.378
 2792POPC   GL139025  37.682  24.461   5.796
 2792POPC   GL239026  37.858  24.765   5.756
 2792POPC   C1A39027  37.649  24.355   6.245
 2792POPC   D2A39028  37.464  24.448   6.647
 2792POPC   C3A39029  37.726  24.387   7.015
 2792POPC   C4A39030  37.914  24.600   7.393
 2792POPC   C1B39031  38.023  24.928   6.164
 2792POPC   C2B39032  37.969  24.729   6.536
 2792POPC   C3B39033  38.095  24.718   6.927
 2792POPC   C4B39034  37.953  25.070   7.164
 2793POPC   NC339035  20.360  19.119   5.371
 2793POPC   PO439036  20.803  19.001   5.412
 2793POPC   GL139037  20.604  18.934   5.815
 2793POPC   GL239038  20.263  19.057   5.891
 2793POPC   C1A39039  20.624  19.040   6.267
 2793POPC   D2A39040  20.318  19.037   6.597
 2793POPC   C3A39041  20.404  19.207   7.029
 2793POPC   C4A39042  20.623  19.026   7.392
 2793POPC   C1B39043  20.293  18.658   6.142
 2793POPC   C2B39044  20.339  18.524   6.588
 2793POPC   C3B39045  20.328  18.701   7.025
 2793POPC   C4B39046  20.093  18.925   7.358
 2794POPC   NC339047   6.180  41.528   5.306
 2794POPC   PO439048   5.643  41.787   5.504
 2794POPC   GL139049   5.873  41.565   5.827
 2794POPC   GL239050   6.139  41.313   5.781
 2794POPC   C1A39051   5.787  41.627   6.275
 2794POPC   D2A39052   5.559  41.659   6.671
 2794POPC   C3A39053   5.722  41.527   7.054
 2794POPC   C4A39054   6.043  41.213   7.218
 2794POPC   C1B39055   6.263  41.504   6.198
 2794POPC   C2B39056   6.083  41.494   6.665
 2794POPC   C3B39057   6.220  41.665   7.051
 2794POPC   C4B39058   6.109  41.986   7.323
 2795POPC   NC339059  15.165   9.305   5.157
 2795POPC   PO439060  15.442   9.864   5.097
 2795POPC   GL139061  15.343   9.897   5.618
 2795POPC   GL239062  14.966   9.904   5.748
 2795POPC   C1A39063  15.311   9.753   6.076
 2795POPC   D2A39064  15.250   9.842   6.529
 2795POPC   C3A39065  15.037  10.214   6.717
 2795POPC   C4A39066  14.956  10.168   7.173
 2795POPC   C1B39067  14.845   9.925   6.228
 2795POPC   C2B39068  14.757   9.782   6.674
 2795POPC   C3B39069  14.880   9.659   7.108
 2795POPC   C4B39070  14.983   9.446   7.516
 2796POPC   NC339071  12.519   9.236   5.459
 2796POPC   PO439072  12.926   9.823   5.413
 2796POPC   GL139073  12.778   9.591   5.781
 2796POPC   GL239074  12.398   9.616   5.799
 2796POPC   C1A39075  12.849   9.728   6.206
 2796POPC   D2A39076  13.132   9.850   6.530
 2796POPC   C3A39077  12.978   9.640   6.868
 2796POPC   C4A39078  12.741   9.656   7.208
 2796POPC   C1B39079  12.442   9.996   6.042
 2796POPC   C2B39080  12.602  10.153   6.460
 2796POPC   C3B39081  12.563  10.004   6.886
 2796POPC   C4B39082  12.316   9.973   7.284
 2797POPC   NC339083  40.328   2.853   5.454
 2797POPC   PO439084  40.941   2.552   5.438
 2797POPC   GL139085  40.825   2.690   5.846
 2797POPC   GL239086  40.470   2.789   5.952
 2797POPC   C1A39087  40.836   2.650   6.260
 2797POPC   D2A39088  40.658   2.750   6.602
 2797POPC   C3A39089  40.904   2.566   6.885
 2797POPC   C4A39090  40.912   2.683   7.260
 2797POPC   C1B39091  40.510   3.171   6.270
 2797POPC   C2B39092  40.446   3.194   6.734
 2797POPC   C3B39093  40.498   2.901   7.080
 2797POPC   C4B39094  40.603   3.008   7.538
 2798POPC   NC339095  18.906   2.147   5.397
 2798POPC   PO439096  19.382   1.682   5.341
 2798POPC   GL139097  19.327   1.921   5.764
 2798POPC   GL239098  18.969   1.931   5.845
 2798POPC   C1A39099  19.296   2.114   6.196
 2798POPC   D2A39100  19.052   2.164   6.592
 2798POPC   C3A39101  19.264   2.101   6.980
 2798POPC   C4A39102  19.274   2.009   7.413
 2798POPC   C1B39103  18.852   1.774   6.234
 2798POPC   C2B39104  18.678   1.798   6.626
 2798POPC   C3B39105  18.812   1.869   7.052
 2798POPC   C4B39106  18.776   1.523   7.313
 2799POPC   NC339107  13.461  20.874   5.387
 2799POPC   PO439108  14.104  20.683   5.208
 2799POPC   GL139109  13.918  20.714   5.652
 2799POPC   GL239110  13.599  20.497   5.703
 2799POPC   C1A39111  13.898  20.626   6.116
 2799POPC   D2A39112  13.601  20.572   6.491
 2799POPC   C3A39113  13.725  20.620   6.934
 2799POPC   C4A39114  13.784  20.392   7.286
 2799POPC   C1B39115  13.409  20.782   6.026
 2799POPC   C2B39116  13.220  20.920   6.425
 2799POPC   C3B39117  13.253  20.791   6.870
 2799POPC   C4B39118  13.301  20.339   7.050
 2800POPC   NC339119  15.067  37.910   5.517
 2800POPC   PO439120  15.705  37.636   5.538
 2800POPC   GL139121  15.389  37.456   5.869
 2800POPC   GL239122  15.033  37.583   5.922
 2800POPC   C1A39123  15.335  37.472   6.332
 2800POPC   D2A39124  15.164  37.630   6.707
 2800POPC   C3A39125  15.416  37.655   7.048
 2800POPC   C4A39126  15.462  38.063   7.209
 2800POPC   C1B39127  14.866  37.798   6.310
 2800POPC   C2B39128  14.719  37.884   6.759
 2800POPC   C3B39129  14.954  37.928   7.173
 2800POPC   C4B39130  15.173  37.639   7.487
 2801POPC   NC339131  35.219   6.162   5.496
 2801POPC   PO439132  35.773   5.823   5.398
 2801POPC   GL139133  35.531   5.804   5.766
 2801POPC   GL239134  35.637   6.145   5.823
 2801POPC   C1A39135  35.496   5.832   6.229
 2801POPC   D2A39136  35.647   5.647   6.639
 2801POPC   C3A39137  35.486   5.800   7.029
 2801POPC   C4A39138  35.144   5.630   7.308
 2801POPC   C1B39139  35.522   6.372   6.172
 2801POPC   C2B39140  35.334   6.222   6.558
 2801POPC   C3B39141  35.352   6.280   6.977
 2801POPC   C4B39142  35.507   6.177   7.373
 2802POPC   NC339143   7.257  42.561   5.279
 2802POPC   PO439144   7.824  42.166   5.274
 2802POPC   GL139145   7.552  42.320   5.653
 2802POPC   GL239146   7.267  42.085   5.705
 2802POPC   C1A39147   7.466  42.531   6.092
 2802POPC   D2A39148   7.495  42.351   6.525
 2802POPC   C3A39149   7.404  42.528   6.922
 2802POPC   C4A39150   7.474  42.730   7.301
 2802POPC   C1B39151   7.507  42.011   6.121
 2802POPC   C2B39152   7.555  41.837   6.568
 2802POPC   C3B39153   7.503  42.025   6.973
 2802POPC   C4B39154   7.457  42.238   7.382
 2803POPC   NC339155  23.600  31.672   5.451
 2803POPC   PO439156  23.509  32.297   5.321
 2803POPC   GL139157  23.704  32.323   5.741
 2803POPC   GL239158  23.887  32.003   5.750
 2803POPC   C1A39159  23.560  32.433   6.168
 2803POPC   D2A39160  23.714  32.625   6.525
 2803POPC   C3A39161  23.571  32.346   6.821
 2803POPC   C4A39162  23.530  32.406   7.240
 2803POPC   C1B39163  23.508  31.949   6.039
 2803POPC   C2B39164  23.376  31.932   6.477
 2803POPC   C3B39165  23.385  31.760   6.908
 2803POPC   C4B39166  23.605  31.858   7.326
 2804POPC   NC339167  28.376  35.959   5.270
 2804POPC   PO439168  28.195  36.580   5.363
 2804POPC   GL139169  28.351  36.268   5.733
 2804POPC   GL239170  28.508  35.913   5.757
 2804POPC   C1A39171  28.452  36.178   6.215
 2804POPC   D2A39172  28.478  36.184   6.695
 2804POPC   C3A39173  28.174  36.392   6.983
 2804POPC   C4A39174  28.111  36.356   7.445
 2804POPC   C1B39175  28.753  35.771   6.114
 2804POPC   C2B39176  28.638  35.675   6.548
 2804POPC   C3B39177  28.746  35.783   6.960
 2804POPC   C4B39178  28.441  36.007   7.189
 2805POPC   NC339179   8.718   6.284   5.367
 2805POPC   PO439180   9.302   6.691   5.303
 2805POPC   GL139181   9.081   6.479   5.673
 2805POPC   GL239182   8.798   6.699   5.790
 2805POPC   C1A39183   8.956   6.347   6.116
 2805POPC   D2A39184   8.906   6.541   6.518
 2805POPC   C3A39185   9.141   6.353   6.852
 2805POPC   C4A39186   9.006   6.348   7.278
 2805POPC   C1B39187   8.842   6.949   6.204
 2805POPC   C2B39188   8.951   7.048   6.672
 2805POPC   C3B39189   8.936   6.943   7.147
 2805POPC   C4B39190   8.743   6.909   7.569
 2806POPC   NC339191  39.931  23.985   5.664
 2806POPC   PO439192  39.285  23.830   5.278
 2806POPC   GL139193  39.254  23.713   5.846
 2806POPC   GL239194  39.241  23.377   5.971
 2806POPC   C1A39195  39.157  23.819   6.254
 2806POPC   D2A39196  39.438  23.801   6.578
 2806POPC   C3A39197  39.265  23.934   6.951
 2806POPC   C4A39198  39.067  23.712   7.272
 2806POPC   C1B39199  39.158  23.268   6.376
 2806POPC   C2B39200  39.393  23.192   6.715
 2806POPC   C3B39201  39.441  23.392   7.114
 2806POPC   C4B39202  39.401  23.383   7.565
 2807POPC   NC339203  27.038  18.652   5.050
 2807POPC   PO439204  26.879  18.040   5.190
 2807POPC   GL139205  26.876  18.238   5.660
 2807POPC   GL239206  27.186  18.226   5.831
 2807POPC   C1A39207  26.864  18.497   6.104
 2807POPC   D2A39208  26.862  18.684   6.525
 2807POPC   C3A39209  26.707  18.362   6.782
 2807POPC   C4A39210  26.629  18.317   7.193
 2807POPC   C1B39211  26.934  17.990   6.151
 2807POPC   C2B39212  26.812  17.887   6.584
 2807POPC   C3B39213  26.873  17.887   7.031
 2807POPC   C4B39214  26.832  17.955   7.491
 2808POPC   NC339215  14.346   5.025   5.288
 2808POPC   PO439216  14.343   5.642   5.497
 2808POPC   GL139217  14.279   5.239   5.775
 2808POPC   GL239218  14.178   4.858   5.736
 2808POPC   C1A39219  14.349   5.187   6.226
 2808POPC   D2A39220  14.311   5.093   6.667
 2808POPC   C3A39221  14.600   5.286   6.973
 2808POPC   C4A39222  14.829   5.070   7.300
 2808POPC   C1B39223  14.287   4.699   6.141
 2808POPC   C2B39224  14.385   4.588   6.578
 2808POPC   C3B39225  14.489   4.767   7.024
 2808POPC   C4B39226  14.224   5.089   7.247
 2809POPC   NC339227  16.543  25.413   5.240
 2809POPC   PO439228  17.125  25.078   5.315
 2809POPC   GL139229  16.918  25.272   5.713
 2809POPC   GL239230  16.574  25.462   5.771
 2809POPC   C1A39231  16.848  25.275   6.186
 2809POPC   D2A39232  17.066  25.278   6.581
 2809POPC   C3A39233  16.882  25.281   6.966
 2809POPC   C4A39234  17.058  25.109   7.300
 2809POPC   C1B39235  16.319  25.318   6.155
 2809POPC   C2B39236  16.390  25.186   6.588
 2809POPC   C3B39237  16.366  25.333   7.032
 2809POPC   C4B39238  16.581  25.359   7.419
 2810POPC   NC339239   8.523  15.379   5.346
 2810POPC   PO439240   7.935  15.097   5.194
 2810POPC   GL139241   7.972  15.069   5.708
 2810POPC   GL239242   8.277  15.303   5.823
 2810POPC   C1A39243   8.095  14.945   6.190
 2810POPC   D2A39244   8.366  14.961   6.630
 2810POPC   C3A39245   8.074  15.041   6.992
 2810POPC   C4A39246   7.735  15.107   7.313
 2810POPC   C1B39247   8.547  15.165   6.201
 2810POPC   C2B39248   8.730  15.335   6.588
 2810POPC   C3B39249   8.602  15.511   7.001
 2810POPC   C4B39250   8.467  15.406   7.419
 2811POPC   NC339251  27.076  27.055   5.092
 2811POPC   PO439252  26.752  27.086   5.680
 2811POPC   GL139253  27.008  26.952   5.996
 2811POPC   GL239254  27.149  26.670   5.906
 2811POPC   C1A39255  27.050  26.838   6.442
 2811POPC   D2A39256  26.966  26.809   6.857
 2811POPC   C3A39257  26.652  26.913   7.194
 2811POPC   C4A39258  26.654  26.947   7.656
 2811POPC   C1B39259  27.211  26.390   6.263
 2811POPC   C2B39260  27.025  26.304   6.651
 2811POPC   C3B39261  27.188  26.410   7.042
 2811POPC   C4B39262  27.094  26.724   7.333
 2812POPC   NC339263  21.461   4.113   5.372
 2812POPC   PO439264  20.928   4.569   5.303
 2812POPC   GL139265  21.146   4.384   5.644
 2812POPC   GL239266  21.272   4.634   5.845
 2812POPC   C1A39267  21.439   4.163   6.000
 2812POPC   D2A39268  21.430   4.181   6.455
 2812POPC   C3A39269  21.617   4.492   6.736
 2812POPC   C4A39270  21.672   4.328   7.168
 2812POPC   C1B39271  20.986   4.327   6.106
 2812POPC   C2B39272  20.918   4.276   6.539
 2812POPC   C3B39273  21.173   4.297   6.909
 2812POPC   C4B39274  21.211   4.608   7.278
 2813POPC   NC339275  23.198  17.841   5.435
 2813POPC   PO439276  22.702  18.115   5.561
 2813POPC   GL139277  23.079  18.207   5.832
 2813POPC   GL239278  23.373  18.006   5.891
 2813POPC   C1A39279  23.147  18.272   6.295
 2813POPC   D2A39280  23.121  18.017   6.679
 2813POPC   C3A39281  22.996  18.119   7.108
 2813POPC   C4A39282  22.623  17.909   7.305
 2813POPC   C1B39283  23.400  17.781   6.272
 2813POPC   C2B39284  23.594  17.847   6.661
 2813POPC   C3B39285  23.418  17.774   7.025
 2813POPC   C4B39286  23.314  17.871   7.432
 2814POPC   NC339287  19.316  26.688   5.300
 2814POPC   PO439288  19.192  27.339   5.265
 2814POPC   GL139289  18.985  26.975   5.558
 2814POPC   GL239290  19.290  27.030   5.700
 2814POPC   C1A39291  19.002  26.719   5.984
 2814POPC   D2A39292  19.015  26.899   6.425
 2814POPC   C3A39293  18.922  26.722   6.857
 2814POPC   C4A39294  18.984  26.896   7.282
 2814POPC   C1B39295  19.406  27.049   6.112
 2814POPC   C2B39296  19.462  27.164   6.524
 2814POPC   C3B39297  19.176  27.187   6.859
 2814POPC   C4B39298  19.408  27.184   7.215
 2815POPC   NC339299  29.355  13.815   5.450
 2815POPC   PO439300  29.262  13.255   5.544
 2815POPC   GL139301  29.529  13.538   5.845
 2815POPC   GL239302  29.525  13.937   5.899
 2815POPC   C1A39303  29.431  13.654   6.290
 2815POPC   D2A39304  29.248  13.661   6.731
 2815POPC   C3A39305  29.406  13.481   7.129
 2815POPC   C4A39306  29.244  13.318   7.565
 2815POPC   C1B39307  29.125  14.033   6.168
 2815POPC   C2B39308  29.046  14.128   6.623
 2815POPC   C3B39309  28.981  13.956   7.081
 2815POPC   C4B39310  29.162  13.819   7.482
 2816POPC   NC339311   3.417  19.894   5.407
 2816POPC   PO439312   3.751  19.502   5.722
 2816POPC   GL139313   3.575  19.875   5.899
 2816POPC   GL239314   3.193  19.980   5.869
 2816POPC   C1A39315   3.474  19.843   6.308
 2816POPC   D2A39316   3.326  19.692   6.696
 2816POPC   C3A39317   3.514  19.798   7.059
 2816POPC   C4A39318   3.727  19.509   7.317
 2816POPC   C1B39319   3.225  20.301   6.217
 2816POPC   C2B39320   3.414  20.209   6.636
 2816POPC   C3B39321   3.221  20.267   6.990
 2816POPC   C4B39322   3.273  20.125   7.375
 2817POPC   NC339323  34.516  15.475   5.550
 2817POPC   PO439324  34.724  14.918   5.388
 2817POPC   GL139325  34.652  15.041   5.784
 2817POPC   GL239326  34.319  14.918   5.827
 2817POPC   C1A39327  34.666  15.357   6.160
 2817POPC   D2A39328  34.862  15.438   6.537
 2817POPC   C3A39329  34.700  15.367   6.961
 2817POPC   C4A39330  34.735  15.098   7.326
 2817POPC   C1B39331  34.585  14.862   6.238
 2817POPC   C2B39332  34.651  14.953   6.645
 2817POPC   C3B39333  34.491  14.794   7.009
 2817POPC   C4B39334  34.286  14.840   7.412
 2818POPC   NC339335  17.326   1.251   5.581
 2818POPC   PO439336  17.848   1.628   5.764
 2818POPC   GL139337  17.649   1.402   6.039
 2818POPC   GL239338  17.585   1.069   6.018
 2818POPC   C1A39339  17.729   1.312   6.452
 2818POPC   D2A39340  17.658   1.447   6.838
 2818POPC   C3A39341  17.670   1.088   7.022
 2818POPC   C4A39342  17.687   0.955   7.409
 2818POPC   C1B39343  17.227   1.192   6.256
 2818POPC   C2B39344  17.178   1.294   6.679
 2818POPC   C3B39345  17.202   1.232   7.088
 2818POPC   C4B39346  17.187   0.944   7.387
 2819POPC   NC339347   1.607   4.312   5.543
 2819POPC   PO439348   2.304   4.296   5.438
 2819POPC   GL139349   2.064   4.311   5.801
 2819POPC   GL239350   2.283   4.577   5.861
 2819POPC   C1A39351   1.925   4.141   6.223
 2819POPC   D2A39352   2.157   4.052   6.637
 2819POPC   C3A39353   2.002   4.151   7.041
 2819POPC   C4A39354   1.653   4.354   7.242
 2819POPC   C1B39355   1.956   4.670   6.155
 2819POPC   C2B39356   1.942   4.757   6.600
 2819POPC   C3B39357   1.910   4.707   7.026
 2819POPC   C4B39358   2.093   4.565   7.435
 2820POPC   NC339359  17.280  10.573   5.343
 2820POPC   PO439360  17.836  10.275   5.426
 2820POPC   GL139361  17.566  10.441   5.784
 2820POPC   GL239362  17.271  10.702   5.833
 2820POPC   C1A39363  17.551  10.551   6.228
 2820POPC   D2A39364  17.554  10.827   6.575
 2820POPC   C3A39365  17.513  10.599   6.946
 2820POPC   C4A39366  17.451  10.763   7.329
 2820POPC   C1B39367  17.098  10.347   6.090
 2820POPC   C2B39368  17.135  10.402   6.562
 2820POPC   C3B39369  17.022  10.370   7.025
 2820POPC   C4B39370  17.114  10.409   7.516
 2821POPC   NC339371  26.466  17.964   5.496
 2821POPC   PO439372  25.920  18.309   5.280
 2821POPC   GL139373  25.946  18.100   5.687
 2821POPC   GL239374  26.083  18.393   5.831
 2821POPC   C1A39375  26.035  17.973   6.149
 2821POPC   D2A39376  26.348  18.110   6.486
 2821POPC   C3A39377  26.220  18.197   6.905
 2821POPC   C4A39378  26.162  18.571   7.140
 2821POPC   C1B39379  25.906  18.684   6.145
 2821POPC   C2B39380  25.684  18.781   6.501
 2821POPC   C3B39381  25.724  18.765   6.932
 2821POPC   C4B39382  25.690  18.612   7.363
 2822POPC   NC339383  35.507  13.748   5.369
 2822POPC   PO439384  35.289  13.081   5.396
 2822POPC   GL139385  35.238  13.392   5.784
 2822POPC   GL239386  35.148  13.773   5.749
 2822POPC   C1A39387  35.102  13.485   6.223
 2822POPC   D2A39388  35.399  13.596   6.586
 2822POPC   C3A39389  35.193  13.651   6.977
 2822POPC   C4A39390  34.961  13.321   7.132
 2822POPC   C1B39391  35.435  13.823   6.110
 2822POPC   C2B39392  35.476  14.077   6.457
 2822POPC   C3B39393  35.628  14.046   6.854
 2822POPC   C4B39394  35.473  13.995   7.249
 2823POPC   NC339395  32.373  13.083   5.555
 2823POPC   PO439396  32.232  12.403   5.490
 2823POPC   GL139397  32.126  12.693   5.833
 2823POPC   GL239398  31.876  12.952   5.787
 2823POPC   C1A39399  32.129  12.802   6.273
 2823POPC   D2A39400  32.222  12.554   6.657
 2823POPC   C3A39401  32.180  12.612   7.092
 2823POPC   C4A39402  32.372  12.855   7.419
 2823POPC   C1B39403  31.926  13.270   6.110
 2823POPC   C2B39404  31.867  13.171   6.549
 2823POPC   C3B39405  32.145  13.101   6.895
 2823POPC   C4B39406  31.910  13.056   7.241
 2824POPC   NC339407  27.014   6.604   5.579
 2824POPC   PO439408  26.381   6.834   5.507
 2824POPC   GL139409  26.577   6.579   5.855
 2824POPC   GL239410  26.877   6.745   6.041
 2824POPC   C1A39411  26.569   6.454   6.302
 2824POPC   D2A39412  26.836   6.655   6.623
 2824POPC   C3A39413  26.784   6.401   6.994
 2824POPC   C4A39414  26.561   6.443   7.365
 2824POPC   C1B39415  27.196   7.004   6.267
 2824POPC   C2B39416  27.199   7.152   6.653
 2824POPC   C3B39417  27.254   6.823   6.949
 2824POPC   C4B39418  27.038   6.708   7.319
 2825POPC   NC339419   7.598  40.304   5.557
 2825POPC   PO439420   7.127  39.774   5.433
 2825POPC   GL139421   7.286  39.865   5.857
 2825POPC   GL239422   7.173  40.191   5.923
 2825POPC   C1A39423   7.326  39.900   6.336
 2825POPC   D2A39424   7.175  40.276   6.620
 2825POPC   C3A39425   7.394  40.248   7.023
 2825POPC   C4A39426   7.507  39.800   6.990
 2825POPC   C1B39427   7.517  40.349   6.209
 2825POPC   C2B39428   7.712  40.280   6.600
 2825POPC   C3B39429   7.920  40.127   6.952
 2825POPC   C4B39430   7.802  40.004   7.330
 2826POPC   NC339431  36.745  14.681   5.213
 2826POPC   PO439432  37.110  14.156   5.240
 2826POPC   GL139433  37.080  14.482   5.614
 2826POPC   GL239434  36.762  14.500   5.788
 2826POPC   C1A39435  37.182  14.655   6.067
 2826POPC   D2A39436  37.054  14.700   6.518
 2826POPC   C3A39437  37.244  14.448   6.871
 2826POPC   C4A39438  37.309  14.031   7.083
 2826POPC   C1B39439  36.752  14.353   6.234
 2826POPC   C2B39440  36.790  14.273   6.685
 2826POPC   C3B39441  36.764  14.263   7.128
 2826POPC   C4B39442  36.494  13.944   7.317
 2827POPC   NC339443   1.110  40.436   5.494
 2827POPC   PO439444   1.564  39.901   5.523
 2827POPC   GL139445   1.422  40.220   5.844
 2827POPC   GL239446   1.645  40.499   5.779
 2827POPC   C1A39447   1.252  40.305   6.302
 2827POPC   D2A39448   1.311  40.032   6.687
 2827POPC   C3A39449   1.176  40.041   7.145
 2827POPC   C4A39450   1.116  39.831   7.570
 2827POPC   C1B39451   1.749  40.336   6.203
 2827POPC   C2B39452   1.626  40.438   6.646
 2827POPC   C3B39453   1.652  40.202   7.026
 2827POPC   C4B39454   1.560  40.086   7.474
 2828POPC   NC339455  16.176   3.836   5.447
 2828POPC   PO439456  15.711   4.266   5.276
 2828POPC   GL139457  15.837   4.100   5.745
 2828POPC   GL239458  15.575   4.261   5.890
 2828POPC   C1A39459  16.101   4.298   6.154
 2828POPC   D2A39460  16.305   4.568   6.520
 2828POPC   C3A39461  16.190   4.494   6.954
 2828POPC   C4A39462  15.937   4.130   7.170
 2828POPC   C1B39463  15.638   4.436   6.268
 2828POPC   C2B39464  15.826   4.417   6.611
 2828POPC   C3B39465  15.686   4.522   6.978
 2828POPC   C4B39466  15.418   4.297   7.223
 2829POPC   NC339467   4.918  16.731   5.147
 2829POPC   PO439468   4.307  16.803   5.457
 2829POPC   GL139469   4.419  16.815   5.913
 2829POPC   GL239470   4.688  16.555   5.892
 2829POPC   C1A39471   4.457  16.986   6.357
 2829POPC   D2A39472   4.200  17.042   6.730
 2829POPC   C3A39473   4.373  16.841   7.079
 2829POPC   C4A39474   4.220  16.954   7.470
 2829POPC   C1B39475   4.854  16.624   6.307
 2829POPC   C2B39476   4.763  16.677   6.758
 2829POPC   C3B39477   4.580  16.371   7.071
 2829POPC   C4B39478   4.168  16.436   7.327
 2830POPC   NC339479  18.258  12.442   5.477
 2830POPC   PO439480  17.916  11.908   5.407
 2830POPC   GL139481  18.231  11.927   5.760
 2830POPC   GL239482  18.523  12.190   5.829
 2830POPC   C1A39483  18.104  12.026   6.183
 2830POPC   D2A39484  18.185  12.235   6.574
 2830POPC   C3A39485  17.843  12.252   6.810
 2830POPC   C4A39486  18.033  12.086   7.173
 2830POPC   C1B39487  18.613  12.050   6.258
 2830POPC   C2B39488  18.691  12.087   6.699
 2830POPC   C3B39489  18.547  12.265   7.075
 2830POPC   C4B39490  18.603  12.671   7.224
 2831POPC   NC339491  13.291  33.817   5.280
 2831POPC   PO439492  13.977  33.964   5.360
 2831POPC   GL139493  13.872  33.684   5.671
 2831POPC   GL239494  13.523  33.643   5.722
 2831POPC   C1A39495  13.816  33.721   6.115
 2831POPC   D2A39496  13.647  33.987   6.438
 2831POPC   C3A39497  13.597  33.874   6.859
 2831POPC   C4A39498  13.659  34.009   7.257
 2831POPC   C1B39499  13.364  33.493   6.118
 2831POPC   C2B39500  13.291  33.612   6.534
 2831POPC   C3B39501  13.270  33.481   6.943
 2831POPC   C4B39502  13.424  33.557   7.310
 2832POPC   NC339503  11.782   8.990   5.400
 2832POPC   PO439504  12.466   8.793   5.283
 2832POPC   GL139505  12.210   8.883   5.703
 2832POPC   GL239506  12.385   9.112   5.946
 2832POPC   C1A39507  11.876   8.925   6.045
 2832POPC   D2A39508  11.796   9.139   6.453
 2832POPC   C3A39509  12.008   9.076   6.860
 2832POPC   C4A39510  11.763   9.058   7.225
 2832POPC   C1B39511  12.286   8.815   6.292
 2832POPC   C2B39512  12.476   8.697   6.666
 2832POPC   C3B39513  12.381   8.740   7.066
 2832POPC   C4B39514  12.249   8.976   7.418
 2833POPC   NC339515  43.250  26.590   5.488
 2833POPC   PO439516  43.770  26.927   5.183
 2833POPC   GL139517  43.806  26.824   5.678
 2833POPC   GL239518  43.551  26.648   5.885
 2833POPC   C1A39519  43.909  26.944   6.152
 2833POPC   D2A39520  43.936  26.787   6.606
 2833POPC   C3A39521  43.834  26.935   7.037
 2833POPC   C4A39522  44.084  27.132   7.344
 2833POPC   C1B39523  43.474  26.663   6.333
 2833POPC   C2B39524  43.432  26.753   6.774
 2833POPC   C3B39525  43.514  26.524   7.148
 2833POPC   C4B39526  43.780  26.647   7.518
 2834POPC   NC339527  11.602  29.731   5.070
 2834POPC   PO439528  12.133  30.125   5.435
 2834POPC   GL139529  12.254  30.051   5.865
 2834POPC   GL239530  12.624  30.038   5.793
 2834POPC   C1A39531  12.049  29.831   6.232
 2834POPC   D2A39532  12.022  29.719   6.629
 2834POPC   C3A39533  11.945  30.134   6.802
 2834POPC   C4A39534  11.848  30.164   7.240
 2834POPC   C1B39535  12.547  29.699   6.097
 2834POPC   C2B39536  12.474  29.536   6.471
 2834POPC   C3B39537  12.438  29.559   6.887
 2834POPC   C4B39538  12.176  29.809   7.122
 2835POPC   NC339539  38.292   5.115   5.229
 2835POPC   PO439540  38.924   4.915   5.443
 2835POPC   GL139541  38.641   4.944   5.791
 2835POPC   GL239542  38.285   5.041   5.753
 2835POPC   C1A39543  38.591   5.160   6.191
 2835POPC   D2A39544  38.514   4.941   6.587
 2835POPC   C3A39545  38.738   5.036   6.977
 2835POPC   C4A39546  38.656   4.825   7.373
 2835POPC   C1B39547  38.075   5.185   6.148
 2835POPC   C2B39548  38.107   5.272   6.589
 2835POPC   C3B39549  38.241   5.149   6.997
 2835POPC   C4B39550  38.430   5.282   7.361
 2836POPC   NC339551  19.087   3.681   5.410
 2836POPC   PO439552  18.983   2.951   5.392
 2836POPC   GL139553  19.097   3.283   5.759
 2836POPC   GL239554  18.834   3.542   5.966
 2836POPC   C1A39555  19.276   3.434   6.163
 2836POPC   D2A39556  19.026   3.621   6.480
 2836POPC   C3A39557  19.044   3.489   6.889
 2836POPC   C4A39558  19.326   3.459   7.231
 2836POPC   C1B39559  19.119   3.903   6.048
 2836POPC   C2B39560  19.305   4.069   6.428
 2836POPC   C3B39561  19.304   3.918   6.853
 2836POPC   C4B39562  19.024   3.958   7.216
 2837POPC   NC339563  32.963  29.197   5.373
 2837POPC   PO439564  33.474  28.908   5.414
 2837POPC   GL139565  33.312  29.168   5.782
 2837POPC   GL239566  32.947  29.260   5.868
 2837POPC   C1A39567  33.239  29.081   6.237
 2837POPC   D2A39568  33.027  29.297   6.583
 2837POPC   C3A39569  33.185  29.193   7.009
 2837POPC   C4A39570  33.252  28.833   7.258
 2837POPC   C1B39571  32.738  29.058   6.203
 2837POPC   C2B39572  32.526  29.139   6.575
 2837POPC   C3B39573  32.672  29.242   6.977
 2837POPC   C4B39574  32.808  29.106   7.391
 2838POPC   NC339575  37.328  42.866   5.405
 2838POPC   PO439576  37.590  42.170   5.529
 2838POPC   GL139577  37.885  42.164   5.922
 2838POPC   GL239578  37.793  42.505   5.980
 2838POPC   C1A39579  38.014  42.322   6.379
 2838POPC   D2A39580  37.708  42.578   6.623
 2838POPC   C3A39581  37.741  42.565   7.054
 2838POPC   C4A39582  37.874  42.243   7.288
 2838POPC   C1B39583  37.515  42.260   6.263
 2838POPC   C2B39584  37.293  42.251   6.681
 2838POPC   C3B39585  37.380  42.160   7.113
 2838POPC   C4B39586  37.175  42.308   7.509
 2839POPC   NC339587  41.659  31.619   5.235
 2839POPC   PO439588  41.247  31.304   5.696
 2839POPC   GL139589  41.620  31.545   5.742
 2839POPC   GL239590  41.748  31.266   5.879
 2839POPC   C1A39591  41.635  31.666   6.158
 2839POPC   D2A39592  41.433  31.400   6.507
 2839POPC   C3A39593  41.370  31.544   6.937
 2839POPC   C4A39594  41.612  31.543   7.259
 2839POPC   C1B39595  41.679  31.035   6.240
 2839POPC   C2B39596  41.798  31.074   6.638
 2839POPC   C3B39597  41.584  31.096   6.992
 2839POPC   C4B39598  41.863  31.001   7.252
 2840POPC   NC339599  15.356  28.508   5.640
 2840POPC   PO439600  14.892  28.092   5.393
 2840POPC   GL139601  14.975  28.097   5.852
 2840POPC   GL239602  15.287  28.064   5.916
 2840POPC   C1A39603  15.048  28.356   6.223
 2840POPC   D2A39604  15.165  28.445   6.632
 2840POPC   C3A39605  14.876  28.310   6.931
 2840POPC   C4A39606  14.908  28.603   7.222
 2840POPC   C1B39607  15.499  28.136   6.335
 2840POPC   C2B39608  15.614  28.240   6.762
 2840POPC   C3B39609  15.371  28.303   7.158
 2840POPC   C4B39610  15.530  28.176   7.629
 2841POPC   NC339611  22.083  13.549   5.350
 2841POPC   PO439612  21.476  13.838   5.501
 2841POPC   GL139613  21.875  13.821   5.742
 2841POPC   GL239614  21.968  13.488   5.855
 2841POPC   C1A39615  22.151  13.856   6.144
 2841POPC   D2A39616  22.327  13.965   6.582
 2841POPC   C3A39617  22.375  13.771   6.983
 2841POPC   C4A39618  22.116  13.869   7.307
 2841POPC   C1B39619  21.960  13.420   6.331
 2841POPC   C2B39620  21.981  13.544   6.765
 2841POPC   C3B39621  21.995  13.381   7.213
 2841POPC   C4B39622  21.849  13.540   7.634
 2842POPC   NC339623  22.643  39.288   5.461
 2842POPC   PO439624  23.271  39.264   5.563
 2842POPC   GL139625  22.907  39.217   5.884
 2842POPC   GL239626  22.698  39.516   5.934
 2842POPC   C1A39627  22.554  39.092   6.191
 2842POPC   D2A39628  22.554  38.945   6.640
 2842POPC   C3A39629  22.589  39.208   7.015
 2842POPC   C4A39630  22.906  39.366   7.271
 2842POPC   C1B39631  22.862  39.441   6.410
 2842POPC   C2B39632  23.091  39.241   6.800
 2842POPC   C3B39633  23.391  39.382   7.173
 2842POPC   C4B39634  23.387  39.322   7.641
 2843POPC   NC339635  42.992   5.598   5.669
 2843POPC   PO439636  43.210   6.191   5.591
 2843POPC   GL139637  43.285   5.919   5.938
 2843POPC   GL239638  43.506   5.622   5.786
 2843POPC   C1A39639  42.982   5.787   6.289
 2843POPC   D2A39640  42.973   5.627   6.697
 2843POPC   C3A39641  43.017   5.950   6.978
 2843POPC   C4A39642  43.179   6.253   7.220
 2843POPC   C1B39643  43.445   5.528   6.227
 2843POPC   C2B39644  43.445   5.761   6.591
 2843POPC   C3B39645  43.385   5.619   7.002
 2843POPC   C4B39646  43.611   5.461   7.309
 2844POPC   NC339647   6.770  15.525   5.434
 2844POPC   PO439648   6.965  14.880   5.303
 2844POPC   GL139649   6.815  15.073   5.680
 2844POPC   GL239650   6.481  15.031   5.808
 2844POPC   C1A39651   6.886  15.243   6.080
 2844POPC   D2A39652   6.854  15.186   6.526
 2844POPC   C3A39653   6.858  15.472   6.897
 2844POPC   C4A39654   6.796  15.405   7.348
 2844POPC   C1B39655   6.399  15.100   6.242
 2844POPC   C2B39656   6.457  14.909   6.646
 2844POPC   C3B39657   6.600  15.048   7.039
 2844POPC   C4B39658   6.390  15.104   7.425
 2845POPC   NC339659  35.622  35.058   5.415
 2845POPC   PO439660  35.060  35.541   5.385
 2845POPC   GL139661  35.292  35.500   5.814
 2845POPC   GL239662  35.661  35.465   5.844
 2845POPC   C1A39663  35.214  35.215   6.218
 2845POPC   D2A39664  35.014  35.301   6.657
 2845POPC   C3A39665  35.222  35.316   7.057
 2845POPC   C4A39666  35.652  35.162   7.101
 2845POPC   C1B39667  35.532  35.603   6.275
 2845POPC   C2B39668  35.524  35.568   6.729
 2845POPC   C3B39669  35.859  35.616   7.025
 2845POPC   C4B39670  36.107  35.696   7.378
 2846POPC   NC339671   4.171   6.943   5.409
 2846POPC   PO439672   4.624   6.428   5.487
 2846POPC   GL139673   4.494   6.651   5.813
 2846POPC   GL239674   4.168   6.578   5.802
 2846POPC   C1A39675   4.618   6.603   6.248
 2846POPC   D2A39676   4.627   6.819   6.651
 2846POPC   C3A39677   4.409   6.754   7.056
 2846POPC   C4A39678   4.505   6.490   7.426
 2846POPC   C1B39679   4.198   6.842   6.170
 2846POPC   C2B39680   4.109   6.949   6.572
 2846POPC   C3B39681   3.921   6.813   6.944
 2846POPC   C4B39682   3.989   6.543   7.314
 2847POPC   NC339683  29.207  15.792   5.493
 2847POPC   PO439684  28.804  16.348   5.391
 2847POPC   GL139685  29.035  16.211   5.787
 2847POPC   GL239686  28.934  15.876   5.935
 2847POPC   C1A39687  29.294  16.134   6.166
 2847POPC   D2A39688  29.114  15.922   6.545
 2847POPC   C3A39689  28.893  16.173   6.875
 2847POPC   C4A39690  28.931  16.386   7.286
 2847POPC   C1B39691  28.854  15.537   6.263
 2847POPC   C2B39692  28.910  15.449   6.713
 2847POPC   C3B39693  29.061  15.727   7.036
 2847POPC   C4B39694  28.925  15.849   7.455
 2848POPC   NC339695  36.291  42.759   5.501
 2848POPC   PO439696  36.334  43.417   5.335
 2848POPC   GL139697  36.291  43.372   5.759
 2848POPC   GL239698  36.510  43.108   5.841
 2848POPC   C1A39699  36.077  43.263   6.140
 2848POPC   D2A39700  36.069  42.916   6.450
 2848POPC   C3A39701  36.102  42.997   6.911
 2848POPC   C4A39702  36.043  43.352   7.187
 2848POPC   C1B39703  36.565  43.311   6.247
 2848POPC   C2B39704  36.429  43.356   6.700
 2848POPC   C3B39705  36.524  43.216   7.139
 2848POPC   C4B39706  36.307  43.028   7.470
 2849POPC   NC339707  27.547   0.185   5.442
 2849POPC   PO439708  27.488   0.855   5.469
 2849POPC   GL139709  27.497   0.565   5.800
 2849POPC   GL239710  27.806   0.611   5.920
 2849POPC   C1A39711  27.326   0.367   6.186
 2849POPC   D2A39712  27.231   0.396   6.615
 2849POPC   C3A39713  27.524   0.609   6.851
 2849POPC   C4A39714  27.655   0.516   7.246
 2849POPC   C1B39715  27.770   0.157   6.089
 2849POPC   C2B39716  27.614   0.017   6.495
 2849POPC   C3B39717  27.768   0.163   6.900
 2849POPC   C4B39718  27.768   0.037   7.354
 2850POPC   NC339719  23.054   4.218   5.408
 2850POPC   PO439720  22.529   4.615   5.416
 2850POPC   GL139721  22.791   4.477   5.769
 2850POPC   GL239722  22.863   4.125   5.862
 2850POPC   C1A39723  22.712   4.525   6.200
 2850POPC   D2A39724  22.476   4.438   6.556
 2850POPC   C3A39725  22.706   4.578   6.901
 2850POPC   C4A39726  22.711   4.522   7.304
 2850POPC   C1B39727  23.163   4.300   6.144
 2850POPC   C2B39728  23.040   4.316   6.570
 2850POPC   C3B39729  23.162   4.323   6.990
 2850POPC   C4B39730  22.990   4.093   7.306
 2851POPC   NC339731   1.484  24.190   5.637
 2851POPC   PO439732   2.105  24.038   5.406
 2851POPC   GL139733   1.938  24.049   5.818
 2851POPC   GL239734   1.787  23.732   5.926
 2851POPC   C1A39735   2.115  24.112   6.231
 2851POPC   D2A39736   2.258  23.804   6.513
 2851POPC   C3A39737   2.294  23.820   6.952
 2851POPC   C4A39738   2.285  23.450   7.266
 2851POPC   C1B39739   1.615  23.990   6.242
 2851POPC   C2B39740   1.803  24.030   6.646
 2851POPC   C3B39741   1.779  23.781   6.978
 2851POPC   C4B39742   1.961  23.853   7.348
 2852POPC   NC339743  11.617   1.007   5.703
 2852POPC   PO439744  12.221   0.897   5.417
 2852POPC   GL139745  12.222   1.117   5.819
 2852POPC   GL239746  11.940   1.369   5.858
 2852POPC   C1A39747  12.209   1.252   6.265
 2852POPC   D2A39748  11.931   1.079   6.595
 2852POPC   C3A39749  12.144   1.115   6.948
 2852POPC   C4A39750  12.288   1.214   7.345
 2852POPC   C1B39751  11.673   1.377   6.250
 2852POPC   C2B39752  11.801   1.573   6.645
 2852POPC   C3B39753  11.963   1.573   7.053
 2852POPC   C4B39754  11.786   1.244   7.317
 2853POPC   NC339755  32.192  17.864   5.077
 2853POPC   PO439756  32.609  17.361   5.209
 2853POPC   GL139757  32.320  17.489   5.602
 2853POPC   GL239758  32.021  17.261   5.687
 2853POPC   C1A39759  32.163  17.683   6.024
 2853POPC   D2A39760  32.028  17.533   6.471
 2853POPC   C3A39761  32.177  17.718   6.859
 2853POPC   C4A39762  32.114  17.622   7.238
 2853POPC   C1B39763  32.149  17.163   6.095
 2853POPC   C2B39764  32.255  17.063   6.499
 2853POPC   C3B39765  32.153  17.183   6.907
 2853POPC   C4B39766  32.316  17.158   7.309
 2854POPC   NC339767  11.694  41.199   5.535
 2854POPC   PO439768  12.151  40.593   5.399
 2854POPC   GL139769  11.918  40.764   5.724
 2854POPC   GL239770  12.158  41.021   5.811
 2854POPC   C1A39771  11.731  40.791   6.137
 2854POPC   D2A39772  11.827  40.893   6.578
 2854POPC   C3A39773  11.745  40.606   6.935
 2854POPC   C4A39774  12.045  40.531   7.261
 2854POPC   C1B39775  11.987  41.224   6.190
 2854POPC   C2B39776  12.084  41.333   6.626
 2854POPC   C3B39777  12.028  41.169   7.053
 2854POPC   C4B39778  12.253  41.154   7.469
 2855POPC   NC339779   6.914   9.071   5.476
 2855POPC   PO439780   6.481   8.594   5.470
 2855POPC   GL139781   6.442   8.803   5.839
 2855POPC   GL239782   6.797   8.840   5.905
 2855POPC   C1A39783   6.418   8.914   6.268
 2855POPC   D2A39784   6.567   8.846   6.654
 2855POPC   C3A39785   6.368   8.985   7.033
 2855POPC   C4A39786   6.457   8.745   7.408
 2855POPC   C1B39787   6.698   9.280   6.077
 2855POPC   C2B39788   6.774   9.313   6.536
 2855POPC   C3B39789   6.863   9.118   6.968
 2855POPC   C4B39790   6.816   9.128   7.427
 2856POPC   NC339791  31.664   4.063   5.223
 2856POPC   PO439792  31.118   4.287   5.467
 2856POPC   GL139793  31.343   4.136   5.841
 2856POPC   GL239794  31.723   4.064   5.766
 2856POPC   C1A39795  31.459   4.341   6.242
 2856POPC   D2A39796  31.572   4.549   6.633
 2856POPC   C3A39797  31.314   4.449   7.035
 2856POPC   C4A39798  31.232   4.100   7.358
 2856POPC   C1B39799  31.949   4.309   6.090
 2856POPC   C2B39800  31.916   4.179   6.491
 2856POPC   C3B39801  31.955   4.332   6.906
 2856POPC   C4B39802  31.718   4.175   7.238
 2857POPC   NC339803   0.497  19.457   5.199
 2857POPC   PO439804   0.514  20.073   5.454
 2857POPC   GL139805   0.456  19.856   5.818
 2857POPC   GL239806   0.748  19.860   5.983
 2857POPC   C1A39807   0.276  20.062   6.193
 2857POPC   D2A39808   0.276  20.258   6.602
 2857POPC   C3A39809   0.424  19.967   6.886
 2857POPC   C4A39810   0.167  19.946   7.241
 2857POPC   C1B39811   0.805  19.601   6.341
 2857POPC   C2B39812   0.802  19.354   6.724
 2857POPC   C3B39813   0.638  19.527   7.089
 2857POPC   C4B39814   0.624  19.846   7.407
 2858POPC   NC339815  24.999  29.655   5.399
 2858POPC   PO439816  25.383  30.168   5.500
 2858POPC   GL139817  25.256  30.117   5.908
 2858POPC   GL239818  24.968  29.965   5.812
 2858POPC   C1A39819  25.084  30.064   6.322
 2858POPC   D2A39820  25.097  30.164   6.731
 2858POPC   C3A39821  25.291  29.926   7.036
 2858POPC   C4A39822  24.981  30.105   7.253
 2858POPC   C1B39823  25.009  29.616   6.113
 2858POPC   C2B39824  24.827  29.588   6.538
 2858POPC   C3B39825  24.896  29.568   6.987
 2858POPC   C4B39826  24.911  29.574   7.430
 2859POPC   NC339827  44.667  41.503   5.317
 2859POPC   PO439828   0.148  41.078   5.388
 2859POPC   GL139829  44.904  41.315   5.762
 2859POPC   GL239830  44.597  41.531   5.819
 2859POPC   C1A39831  44.872  41.438   6.233
 2859POPC   D2A39832  44.960  41.744   6.592
 2859POPC   C3A39833  44.785  41.626   7.002
 2859POPC   C4A39834  44.703  41.207   7.172
 2859POPC   C1B39835  44.373  41.608   6.205
 2859POPC   C2B39836  44.452  41.840   6.576
 2859POPC   C3B39837  44.299  41.910   6.998
 2859POPC   C4B39838  44.440  41.720   7.386
 2860POPC   NC339839  26.151   2.740   4.907
 2860POPC   PO439840  26.270   3.042   5.497
 2860POPC   GL139841  26.046   2.876   5.790
 2860POPC   GL239842  25.794   3.130   5.818
 2860POPC   C1A39843  26.010   2.577   6.104
 2860POPC   D2A39844  25.797   2.403   6.459
 2860POPC   C3A39845  25.881   2.623   6.835
 2860POPC   C4A39846  25.964   2.517   7.282
 2860POPC   C1B39847  25.954   3.108   6.235
 2860POPC   C2B39848  25.778   3.077   6.617
 2860POPC   C3B39849  25.880   3.088   7.041
 2860POPC   C4B39850  25.535   3.310   7.259
 2861POPC   NC339851  12.272  30.629   5.310
 2861POPC   PO439852  11.731  31.030   5.496
 2861POPC   GL139853  11.905  30.793   5.836
 2861POPC   GL239854  11.858  30.420   5.896
 2861POPC   C1A39855  12.014  30.801   6.269
 2861POPC   D2A39856  11.827  30.666   6.643
 2861POPC   C3A39857  11.998  30.702   7.042
 2861POPC   C4A39858  12.360  30.745   7.362
 2861POPC   C1B39859  12.079  30.315   6.314
 2861POPC   C2B39860  12.306  30.509   6.664
 2861POPC   C3B39861  12.313  30.321   7.097
 2861POPC   C4B39862  12.266  30.272   7.557
 2862POPC   NC339863  16.254  10.480   5.664
 2862POPC   PO439864  16.837  10.435   5.318
 2862POPC   GL139865  16.753  10.610   5.754
 2862POPC   GL239866  16.526  10.911   5.745
 2862POPC   C1A39867  16.622  10.507   6.216
 2862POPC   D2A39868  16.565  10.294   6.635
 2862POPC   C3A39869  16.487  10.486   7.014
 2862POPC   C4A39870  16.773  10.716   7.305
 2862POPC   C1B39871  16.570  11.028   6.178
 2862POPC   C2B39872  16.460  10.854   6.574
 2862POPC   C3B39873  16.533  10.999   6.971
 2862POPC   C4B39874  16.273  10.827   7.310
 2863POPC   NC339875  11.592  27.567   5.168
 2863POPC   PO439876  12.260  27.350   5.350
 2863POPC   GL139877  12.122  27.532   5.743
 2863POPC   GL239878  11.862  27.740   5.696
 2863POPC   C1A39879  12.164  27.506   6.192
 2863POPC   D2A39880  11.897  27.389   6.531
 2863POPC   C3A39881  12.000  27.528   6.965
 2863POPC   C4A39882  12.334  27.479   7.288
 2863POPC   C1B39883  11.842  27.901   6.137
 2863POPC   C2B39884  11.679  27.875   6.539
 2863POPC   C3B39885  11.787  27.997   6.927
 2863POPC   C4B39886  12.087  27.926   7.272
 2864POPC   NC339887   1.059  41.266   5.156
 2864POPC   PO439888   1.553  40.884   5.382
 2864POPC   GL139889   1.328  40.917   5.800
 2864POPC   GL239890   1.149  40.658   5.946
 2864POPC   C1A39891   1.117  41.062   6.233
 2864POPC   D2A39892   1.124  40.983   6.654
 2864POPC   C3A39893   1.151  40.546   6.808
 2864POPC   C4A39894   0.878  40.436   7.149
 2864POPC   C1B39895   1.528  40.777   6.237
 2864POPC   C2B39896   1.632  40.950   6.648
 2864POPC   C3B39897   1.445  40.893   7.050
 2864POPC   C4B39898   1.382  40.553   7.286
 2865POPC   NC339899  34.943  25.643   5.409
 2865POPC   PO439900  35.586  25.870   5.366
 2865POPC   GL139901  35.405  25.844   5.794
 2865POPC   GL239902  35.147  26.121   5.880
 2865POPC   C1A39903  35.575  25.998   6.191
 2865POPC   D2A39904  35.599  26.108   6.632
 2865POPC   C3A39905  35.405  25.909   7.010
 2865POPC   C4A39906  35.507  26.166   7.359
 2865POPC   C1B39907  35.148  26.241   6.341
 2865POPC   C2B39908  35.147  26.292   6.801
 2865POPC   C3B39909  35.049  26.374   7.240
 2865POPC   C4B39910  34.880  26.559   7.648
 2866POPC   NC339911  24.234   5.465   5.397
 2866POPC   PO439912  24.729   4.925   5.382
 2866POPC   GL139913  24.593   5.144   5.747
 2866POPC   GL239914  24.237   5.136   5.796
 2866POPC   C1A39915  24.590   5.132   6.199
 2866POPC   D2A39916  24.824   4.886   6.521
 2866POPC   C3A39917  24.755   4.998   6.965
 2866POPC   C4A39918  24.485   5.281   7.215
 2866POPC   C1B39919  24.123   4.898   6.170
 2866POPC   C2B39920  24.310   4.879   6.592
 2866POPC   C3B39921  24.244   4.829   7.030
 2866POPC   C4B39922  23.985   5.028   7.325
 2867POPC   NC339923  28.138  15.061   5.562
 2867POPC   PO439924  28.702  14.853   5.457
 2867POPC   GL139925  28.576  15.028   5.852
 2867POPC   GL239926  28.594  15.356   5.863
 2867POPC   C1A39927  28.529  15.093   6.323
 2867POPC   D2A39928  28.190  15.063   6.643
 2867POPC   C3A39929  28.271  14.940   7.102
 2867POPC   C4A39930  28.199  14.811   7.554
 2867POPC   C1B39931  28.293  15.512   6.155
 2867POPC   C2B39932  28.427  15.552   6.567
 2867POPC   C3B39933  28.314  15.440   6.958
 2867POPC   C4B39934  28.604  15.533   7.238
 2868POPC   NC339935   6.985  32.033   5.497
 2868POPC   PO439936   7.503  32.379   5.302
 2868POPC   GL139937   7.380  32.322   5.748
 2868POPC   GL239938   7.456  32.645   5.903
 2868POPC   C1A39939   7.518  32.207   6.201
 2868POPC   D2A39940   7.450  32.301   6.650
 2868POPC   C3A39941   7.658  32.078   6.986
 2868POPC   C4A39942   7.620  32.424   7.258
 2868POPC   C1B39943   7.198  32.779   6.260
 2868POPC   C2B39944   6.991  32.645   6.623
 2868POPC   C3B39945   7.145  32.523   7.014
 2868POPC   C4B39946   7.200  32.106   7.190
 2869POPC   NC339947   5.202   0.067   5.385
 2869POPC   PO439948   4.958  44.352   5.297
 2869POPC   GL139949   5.137  44.389   5.704
 2869POPC   GL239950   5.167  44.753   5.778
 2869POPC   C1A39951   5.022  44.395   6.154
 2869POPC   D2A39952   5.315  44.509   6.469
 2869POPC   C3A39953   5.207  44.699   6.851
 2869POPC   C4A39954   5.353  44.551   7.223
 2869POPC   C1B39955   5.190  44.925   6.182
 2869POPC   C2B39956   4.856  44.820   6.486
 2869POPC   C3B39957   4.707  44.830   6.925
 2869POPC   C4B39958   4.918  44.826   7.340
 2870POPC   NC339959   0.917  27.440   5.409
 2870POPC   PO439960   0.203  27.570   5.328
 2870POPC   GL139961   0.497  27.667   5.651
 2870POPC   GL239962   0.613  28.011   5.623
 2870POPC   C1A39963   0.609  27.430   6.030
 2870POPC   D2A39964   0.450  27.351   6.444
 2870POPC   C3A39965   0.683  27.325   6.827
 2870POPC   C4A39966   0.490  27.409   7.217
 2870POPC   C1B39967   0.609  27.949   6.068
 2870POPC   C2B39968   0.451  27.950   6.501
 2870POPC   C3B39969   0.576  27.825   6.910
 2870POPC   C4B39970   0.692  27.958   7.304
 2871POPC   NC339971  39.537  32.907   5.477
 2871POPC   PO439972  39.050  33.225   5.802
 2871POPC   GL139973  39.303  32.919   5.951
 2871POPC   GL239974  39.489  33.168   6.094
 2871POPC   C1A39975  39.431  32.709   6.325
 2871POPC   D2A39976  39.461  32.932   6.704
 2871POPC   C3A39977  39.374  32.673   7.054
 2871POPC   C4A39978  39.051  32.770   7.310
 2871POPC   C1B39979  39.722  33.537   6.202
 2871POPC   C2B39980  39.819  33.589   6.624
 2871POPC   C3B39981  39.776  33.260   6.917
 2871POPC   C4B39982  39.414  33.164   7.189
 2872POPC   NC339983  18.004  20.001   5.104
 2872POPC   PO439984  17.344  20.061   5.469
 2872POPC   GL139985  17.432  19.919   5.908
 2872POPC   GL239986  17.681  19.649   5.907
 2872POPC   C1A39987  17.716  20.068   6.243
 2872POPC   D2A39988  17.868  19.948   6.644
 2872POPC   C3A39989  17.581  19.973   7.003
 2872POPC   C4A39990  17.537  20.020   7.474
 2872POPC   C1B39991  17.647  19.558   6.364
 2872POPC   C2B39992  17.634  19.492   6.817
 2872POPC   C3B39993  17.634  19.545   7.293
 2872POPC   C4B39994  17.417  19.595   7.726
 2873POPC   NC339995   9.863  37.287   5.648
 2873POPC   PO439996   9.623  36.702   5.355
 2873POPC   GL139997   9.637  36.844   5.772
 2873POPC   GL239998   9.933  36.661   5.795
 2873POPC   C1A39999   9.764  36.993   6.212
 2873POPC   D2A40000   9.933  37.082   6.635
 2873POPC   C3A40001   9.670  37.345   6.904
 2873POPC   C4A40002   9.480  37.254   7.290
 2873POPC   C1B40003  10.016  36.547   6.217
 2873POPC   C2B40004  10.145  36.424   6.629
 2873POPC   C3B40005   9.998  36.502   7.022
 2873POPC   C4B40006   9.764  36.869   7.108
 2874POPC   NC340007  16.839  21.063   5.489
 2874POPC   PO440008  16.731  20.392   5.413
 2874POPC   GL140009  16.576  20.661   5.761
 2874POPC   GL240010  16.350  20.448   5.987
 2874POPC   C1A40011  16.804  20.665   6.117
 2874POPC   D2A40012  17.039  20.590   6.481
 2874POPC   C3A40013  17.005  20.814   6.869
 2874POPC   C4A40014  16.864  20.666   7.304
 2874POPC   C1B40015  16.463  20.447   6.445
 2874POPC   C2B40016  16.541  20.503   6.902
 2874POPC   C3B40017  16.675  20.209   7.249
 2874POPC   C4B40018  16.599  20.248   7.705
 2875POPC   NC340019  20.106  26.172   5.201
 2875POPC   PO440020  20.560  26.296   5.743
 2875POPC   GL140021  20.257  26.000   5.979
 2875POPC   GL240022  20.196  25.672   5.830
 2875POPC   C1A40023  20.191  26.054   6.414
 2875POPC   D2A40024  20.412  26.346   6.697
 2875POPC   C3A40025  20.733  26.209   6.976
 2875POPC   C4A40026  20.612  26.225   7.383
 2875POPC   C1B40027  20.361  25.591   6.288
 2875POPC   C2B40028  20.445  25.770   6.751
 2875POPC   C3B40029  20.432  25.780   7.217
 2875POPC   C4B40030  20.563  25.579   7.622
 2876POPC   NC340031  17.850   2.310   5.379
 2876POPC   PO440032  18.475   1.963   5.356
 2876POPC   GL140033  18.362   1.897   5.810
 2876POPC   GL240034  18.058   2.093   5.855
 2876POPC   C1A40035  18.317   1.665   6.226
 2876POPC   D2A40036  18.083   1.671   6.640
 2876POPC   C3A40037  18.313   1.835   6.977
 2876POPC   C4A40038  18.412   2.241   7.168
 2876POPC   C1B40039  18.028   2.081   6.315
 2876POPC   C2B40040  18.123   2.259   6.729
 2876POPC   C3B40041  17.918   2.308   7.136
 2876POPC   C4B40042  18.043   2.218   7.598
 2877POPC   NC340043  35.469  24.793   5.424
 2877POPC   PO440044  35.322  24.147   5.427
 2877POPC   GL140045  35.415  24.449   5.795
 2877POPC   GL240046  35.205  24.791   5.856
 2877POPC   C1A40047  35.576  24.497   6.220
 2877POPC   D2A40048  35.447  24.303   6.614
 2877POPC   C3A40049  35.401  24.479   7.030
 2877POPC   C4A40050  35.304  24.254   7.418
 2877POPC   C1B40051  35.075  24.549   6.198
 2877POPC   C2B40052  35.090  24.686   6.609
 2877POPC   C3B40053  34.783  24.593   6.872
 2877POPC   C4B40054  34.922  24.577   7.278
 2878POPC   NC340055  13.925  41.824   5.495
 2878POPC   PO440056  13.363  41.724   5.305
 2878POPC   GL140057  13.527  41.526   5.716
 2878POPC   GL240058  13.298  41.260   5.827
 2878POPC   C1A40059  13.713  41.685   6.133
 2878POPC   D2A40060  13.727  41.895   6.556
 2878POPC   C3A40061  13.651  41.715   6.984
 2878POPC   C4A40062  13.321  41.800   7.288
 2878POPC   C1B40063  13.631  41.191   6.167
 2878POPC   C2B40064  13.707  41.376   6.589
 2878POPC   C3B40065  13.699  41.194   7.012
 2878POPC   C4B40066  13.892  41.001   7.395
 2879POPC   NC340067  18.306  28.720   5.550
 2879POPC   PO440068  18.376  29.383   5.418
 2879POPC   GL140069  18.298  29.167   5.814
 2879POPC   GL240070  17.975  29.046   5.904
 2879POPC   C1A40071  18.425  28.943   6.197
 2879POPC   D2A40072  18.689  29.081   6.537
 2879POPC   C3A40073  18.591  29.117   6.974
 2879POPC   C4A40074  18.475  29.346   7.357
 2879POPC   C1B40075  17.926  29.076   6.332
 2879POPC   C2B40076  18.170  29.084   6.688
 2879POPC   C3B40077  18.104  29.071   7.131
 2879POPC   C4B40078  17.987  29.074   7.554
 2880POPC   NC340079  13.484  20.063   5.429
 2880POPC   PO440080  14.127  19.952   5.573
 2880POPC   GL140081  13.829  19.702   5.792
 2880POPC   GL240082  13.460  19.605   5.721
 2880POPC   C1A40083  13.900  19.869   6.189
 2880POPC   D2A40084  13.736  20.029   6.521
 2880POPC   C3A40085  13.752  19.742   6.842
 2880POPC   C4A40086  13.586  19.908   7.213
 2880POPC   C1B40087  13.476  19.594   6.206
 2880POPC   C2B40088  13.394  19.378   6.615
 2880POPC   C3B40089  13.315  19.480   7.094
 2880POPC   C4B40090  13.172  19.757   7.483
 2881POPC   NC340091  42.274  43.241   5.464
 2881POPC   PO440092  41.936  42.659   5.448
 2881POPC   GL140093  42.056  42.926   5.824
 2881POPC   GL240094  42.427  42.921   5.900
 2881POPC   C1A40095  42.098  42.855   6.278
 2881POPC   D2A40096  41.932  42.698   6.641
 2881POPC   C3A40097  42.058  42.844   7.029
 2881POPC   C4A40098  42.498  42.765   7.188
 2881POPC   C1B40099  42.575  42.715   6.326
 2881POPC   C2B40100  42.463  42.951   6.701
 2881POPC   C3B40101  42.363  43.258   7.040
 2881POPC   C4B40102  42.493  43.396   7.457
 2882POPC   NC340103  42.121  41.489   5.124
 2882POPC   PO440104  42.559  41.262   5.621
 2882POPC   GL140105  42.500  41.627   5.891
 2882POPC   GL240106  42.150  41.733   5.971
 2882POPC   C1A40107  42.498  41.748   6.331
 2882POPC   D2A40108  42.302  41.625   6.706
 2882POPC   C3A40109  42.383  41.312   7.015
 2882POPC   C4A40110  42.382  41.635   7.308
 2882POPC   C1B40111  42.183  41.376   6.248
 2882POPC   C2B40112  41.954  41.275   6.550
 2882POPC   C3B40113  41.875  41.449   6.917
 2882POPC   C4B40114  41.937  41.372   7.312
 2883POPC   NC340115  33.544  22.754   5.309
 2883POPC   PO440116  34.139  22.799   5.520
 2883POPC   GL140117  33.967  22.911   5.902
 2883POPC   GL240118  33.612  22.898   5.810
 2883POPC   C1A40119  33.911  22.802   6.357
 2883POPC   D2A40120  33.876  22.542   6.737
 2883POPC   C3A40121  33.839  22.801   7.055
 2883POPC   C4A40122  33.872  23.236   7.098
 2883POPC   C1B40123  33.428  22.926   6.245
 2883POPC   C2B40124  33.477  22.913   6.721
 2883POPC   C3B40125  33.400  23.016   7.190
 2883POPC   C4B40126  33.559  23.276   7.559
 2884POPC   NC340127  44.352  42.068   5.363
 2884POPC   PO440128  43.747  42.095   5.610
 2884POPC   GL140129  43.879  42.341   5.928
 2884POPC   GL240130  44.184  42.519   5.852
 2884POPC   C1A40131  43.713  42.406   6.321
 2884POPC   D2A40132  43.513  42.255   6.676
 2884POPC   C3A40133  43.840  42.208   6.955
 2884POPC   C4A40134  43.914  42.518   7.264
 2884POPC   C1B40135  44.315  42.227   6.186
 2884POPC   C2B40136  44.237  42.294   6.619
 2884POPC   C3B40137  44.346  42.404   7.046
 2884POPC   C4B40138  44.281  42.206   7.459
 2885POPC   NC340139  20.878  44.173   5.388
 2885POPC   PO440140  20.485  43.674   5.223
 2885POPC   GL140141  20.635  43.779   5.659
 2885POPC   GL240142  20.638  44.120   5.820
 2885POPC   C1A40143  20.625  43.619   6.088
 2885POPC   D2A40144  20.505  43.778   6.486
 2885POPC   C3A40145  20.687  43.720   6.876
 2885POPC   C4A40146  20.511  43.742   7.258
 2885POPC   C1B40147  20.726  44.180   6.262
 2885POPC   C2B40148  20.706  44.215   6.721
 2885POPC   C3B40149  20.647  44.219   7.158
 2885POPC   C4B40150  20.861  44.108   7.526
 2886POPC   NC340151  23.272   9.479   5.448
 2886POPC   PO440152  22.667   9.685   5.318
 2886POPC   GL140153  22.567   9.682   5.804
 2886POPC   GL240154  22.922   9.730   5.875
 2886POPC   C1A40155  22.611   9.613   6.306
 2886POPC   D2A40156  22.814   9.750   6.720
 2886POPC   C3A40157  22.597   9.737   7.107
 2886POPC   C4A40158  22.445   9.632   7.524
 2886POPC   C1B40159  23.103   9.826   6.281
 2886POPC   C2B40160  23.313   9.640   6.651
 2886POPC   C3B40161  23.277   9.886   7.021
 2886POPC   C4B40162  22.942  10.166   7.152
 2887POPC   NC340163   1.981  40.641   5.378
 2887POPC   PO440164   2.479  41.134   5.510
 2887POPC   GL140165   2.212  40.861   5.784
 2887POPC   GL240166   1.858  40.975   5.804
 2887POPC   C1A40167   2.126  40.664   6.185
 2887POPC   D2A40168   2.400  40.530   6.564
 2887POPC   C3A40169   2.060  40.664   6.801
 2887POPC   C4A40170   1.872  40.634   7.169
 2887POPC   C1B40171   1.890  41.144   6.230
 2887POPC   C2B40172   2.010  41.293   6.653
 2887POPC   C3B40173   1.900  41.130   7.070
 2887POPC   C4B40174   1.743  40.952   7.524
 2888POPC   NC340175  16.098  11.499   5.304
 2888POPC   PO440176  15.450  11.489   5.355
 2888POPC   GL140177  15.776  11.462   5.699
 2888POPC   GL240178  16.028  11.166   5.675
 2888POPC   C1A40179  15.765  11.528   6.141
 2888POPC   D2A40180  15.915  11.673   6.529
 2888POPC   C3A40181  16.044  11.524   6.923
 2888POPC   C4A40182  15.911  11.591   7.332
 2888POPC   C1B40183  16.070  11.007   6.064
 2888POPC   C2B40184  15.975  11.122   6.475
 2888POPC   C3B40185  16.042  11.026   6.886
 2888POPC   C4B40186  15.847  11.085   7.264
 2889POPC   NC340187  13.331  16.115   5.541
 2889POPC   PO440188  13.991  15.749   5.564
 2889POPC   GL140189  13.718  15.943   5.828
 2889POPC   GL240190  13.739  16.307   5.859
 2889POPC   C1A40191  13.475  16.000   6.187
 2889POPC   D2A40192  13.671  15.875   6.560
 2889POPC   C3A40193  13.539  16.090   6.926
 2889POPC   C4A40194  13.630  15.857   7.252
 2889POPC   C1B40195  13.876  16.323   6.308
 2889POPC   C2B40196  13.908  16.435   6.769
 2889POPC   C3B40197  13.995  16.198   7.179
 2889POPC   C4B40198  13.834  16.233   7.648
 2890POPC   NC340199  17.045  11.235   5.480
 2890POPC   PO440200  16.385  11.137   5.303
 2890POPC   GL140201  16.533  11.422   5.633
 2890POPC   GL240202  16.277  11.627   5.782
 2890POPC   C1A40203  16.753  11.496   6.041
 2890POPC   D2A40204  16.835  11.582   6.471
 2890POPC   C3A40205  16.963  11.261   6.787
 2890POPC   C4A40206  16.901  11.246   7.262
 2890POPC   C1B40207  16.272  11.466   6.198
 2890POPC   C2B40208  16.409  11.364   6.600
 2890POPC   C3B40209  16.570  11.520   6.979
 2890POPC   C4B40210  16.344  11.338   7.300
 2891POPC   NC340211  24.962  44.423   5.412
 2891POPC   PO440212  25.495  44.775   5.083
 2891POPC   GL140213  25.406  44.693   5.572
 2891POPC   GL240214  25.077  44.831   5.686
 2891POPC   C1A40215  25.525  44.555   6.019
 2891POPC   D2A40216  25.334  44.496   6.462
 2891POPC   C3A40217  25.454  44.460   6.936
 2891POPC   C4A40218  25.234  44.417   7.347
 2891POPC   C1B40219  25.049  44.772   6.106
 2891POPC   C2B40220  25.026  44.880   6.513
 2891POPC   C3B40221  25.050  44.785   6.944
 2891POPC   C4B40222  25.173  44.934   7.344
 2892POPC   NC340223  32.702   8.626   5.430
 2892POPC   PO440224  32.093   8.989   5.407
 2892POPC   GL140225  32.346   9.036   5.739
 2892POPC   GL240226  32.395   8.690   5.818
 2892POPC   C1A40227  32.269   9.297   6.089
 2892POPC   D2A40228  32.025   9.190   6.461
 2892POPC   C3A40229  32.139   9.007   6.853
 2892POPC   C4A40230  32.259   9.205   7.229
 2892POPC   C1B40231  32.103   8.811   6.127
 2892POPC   C2B40232  31.988   8.624   6.510
 2892POPC   C3B40233  31.941   8.507   6.928
 2892POPC   C4B40234  31.996   8.746   7.313
 2893POPC   NC340235  38.220  28.615   5.425
 2893POPC   PO440236  38.706  28.162   5.351
 2893POPC   GL140237  38.602  28.405   5.737
 2893POPC   GL240238  38.244  28.351   5.869
 2893POPC   C1A40239  38.637  28.381   6.182
 2893POPC   D2A40240  38.441  28.450   6.563
 2893POPC   C3A40241  38.707  28.515   6.889
 2893POPC   C4A40242  38.485  28.288   7.161
 2893POPC   C1B40243  38.056  28.270   6.275
 2893POPC   C2B40244  38.047  28.053   6.691
 2893POPC   C3B40245  38.027  28.085   7.168
 2893POPC   C4B40246  37.897  28.070   7.612
 2894POPC   NC340247   8.421  13.026   5.481
 2894POPC   PO440248   7.856  12.549   5.486
 2894POPC   GL140249   7.772  12.778   5.892
 2894POPC   GL240250   8.020  13.066   5.897
 2894POPC   C1A40251   7.961  12.567   6.235
 2894POPC   D2A40252   8.287  12.602   6.541
 2894POPC   C3A40253   8.114  12.721   6.935
 2894POPC   C4A40254   7.983  12.424   7.193
 2894POPC   C1B40255   8.398  13.138   6.189
 2894POPC   C2B40256   8.465  13.078   6.645
 2894POPC   C3B40257   8.475  13.029   7.084
 2894POPC   C4B40258   8.588  12.721   7.368
 2895POPC   NC340259   8.636  18.326   5.286
 2895POPC   PO440260   9.212  18.635   5.336
 2895POPC   GL140261   8.999  18.371   5.664
 2895POPC   GL240262   8.910  17.995   5.605
 2895POPC   C1A40263   9.065  18.439   6.117
 2895POPC   D2A40264   8.941  18.595   6.522
 2895POPC   C3A40265   9.002  18.315   6.878
 2895POPC   C4A40266   8.967  18.469   7.301
 2895POPC   C1B40267   8.794  17.964   6.089
 2895POPC   C2B40268   8.677  17.726   6.503
 2895POPC   C3B40269   8.789  17.824   6.922
 2895POPC   C4B40270   9.015  17.968   7.277
 2896POPC   NC340271  12.957  36.447   5.382
 2896POPC   PO440272  12.475  35.911   5.433
 2896POPC   GL140273  12.717  36.086   5.830
 2896POPC   GL240274  12.848  36.428   5.949
 2896POPC   C1A40275  12.857  35.925   6.220
 2896POPC   D2A40276  12.999  36.081   6.619
 2896POPC   C3A40277  12.846  35.943   7.014
 2896POPC   C4A40278  12.532  36.160   7.258
 2896POPC   C1B40279  13.172  36.704   6.199
 2896POPC   C2B40280  13.223  36.585   6.625
 2896POPC   C3B40281  12.954  36.452   6.948
 2896POPC   C4B40282  12.997  36.364   7.354
 2897POPC   NC340283  31.655  19.083   5.391
 2897POPC   PO440284  31.555  18.477   5.405
 2897POPC   GL140285  31.519  18.778   5.794
 2897POPC   GL240286  31.316  19.092   5.775
 2897POPC   C1A40287  31.598  18.944   6.206
 2897POPC   D2A40288  31.454  18.803   6.608
 2897POPC   C3A40289  31.503  19.095   6.952
 2897POPC   C4A40290  31.554  19.357   7.354
 2897POPC   C1B40291  31.283  19.362   6.132
 2897POPC   C2B40292  31.348  19.436   6.581
 2897POPC   C3B40293  31.143  19.449   7.007
 2897POPC   C4B40294  31.125  19.643   7.407
 2898POPC   NC340295  12.005   5.658   5.020
 2898POPC   PO440296  12.187   5.998   5.595
 2898POPC   GL140297  11.930   5.927   5.911
 2898POPC   GL240298  11.930   5.592   5.829
 2898POPC   C1A40299  11.950   5.997   6.347
 2898POPC   D2A40300  12.070   6.264   6.669
 2898POPC   C3A40301  11.860   6.110   7.008
 2898POPC   C4A40302  12.015   5.735   7.205
 2898POPC   C1B40303  12.291   5.677   6.164
 2898POPC   C2B40304  12.241   5.636   6.611
 2898POPC   C3B40305  12.490   5.566   6.963
 2898POPC   C4B40306  12.405   5.413   7.376
 2899POPC   NC340307  29.925  28.748   5.510
 2899POPC   PO440308  30.311  28.158   5.505
 2899POPC   GL140309  29.999  28.336   5.832
 2899POPC   GL240310  29.662  28.500   5.898
 2899POPC   C1A40311  30.011  28.436   6.286
 2899POPC   D2A40312  29.756  28.442   6.707
 2899POPC   C3A40313  29.928  28.259   7.120
 2899POPC   C4A40314  29.913  27.837   7.332
 2899POPC   C1B40315  29.675  28.830   6.240
 2899POPC   C2B40316  29.699  28.956   6.682
 2899POPC   C3B40317  29.839  28.796   7.076
 2899POPC   C4B40318  29.594  28.564   7.343
 2900POPC   NC340319  11.561  39.069   5.028
 2900POPC   PO440320  11.088  39.495   5.219
 2900POPC   GL140321  11.134  39.310   5.679
 2900POPC   GL240322  11.366  39.083   5.851
 2900POPC   C1A40323  10.992  39.253   6.124
 2900POPC   D2A40324  11.138  39.478   6.467
 2900POPC   C3A40325  11.079  39.303   6.851
 2900POPC   C4A40326  11.096  39.438   7.262
 2900POPC   C1B40327  11.536  39.242   6.240
 2900POPC   C2B40328  11.563  39.122   6.673
 2900POPC   C3B40329  11.520  39.178   7.111
 2900POPC   C4B40330  11.831  39.255   7.415
 2901POPC   NC340331  39.553   6.041   5.627
 2901POPC   PO440332  39.941   5.603   5.236
 2901POPC   GL140333  40.035   5.840   5.639
 2901POPC   GL240334  39.821   5.573   5.751
 2901POPC   C1A40335  40.013   6.050   6.101
 2901POPC   D2A40336  40.149   5.973   6.561
 2901POPC   C3A40337  39.996   6.070   7.014
 2901POPC   C4A40338  40.213   6.030   7.423
 2901POPC   C1B40339  40.064   5.531   6.105
 2901POPC   C2B40340  39.859   5.569   6.499
 2901POPC   C3B40341  40.049   5.542   6.889
 2901POPC   C4B40342  39.827   5.550   7.264
 2902POPC   NC340343   9.238  15.389   5.431
 2902POPC   PO440344   9.843  15.140   5.188
 2902POPC   GL140345   9.700  15.197   5.612
 2902POPC   GL240346   9.502  14.910   5.656
 2902POPC   C1A40347   9.650  15.288   6.068
 2902POPC   D2A40348   9.813  15.139   6.474
 2902POPC   C3A40349   9.807  15.410   6.835
 2902POPC   C4A40350   9.794  15.312   7.272
 2902POPC   C1B40351   9.489  14.802   6.083
 2902POPC   C2B40352   9.388  14.822   6.519
 2902POPC   C3B40353   9.534  14.995   6.916
 2902POPC   C4B40354   9.554  14.874   7.342
 2903POPC   NC340355   8.194  20.938   5.409
 2903POPC   PO440356   8.388  20.280   5.386
 2903POPC   GL140357   8.250  20.506   5.755
 2903POPC   GL240358   8.455  20.274   5.921
 2903POPC   C1A40359   8.128  20.640   6.197
 2903POPC   D2A40360   7.934  20.596   6.635
 2903POPC   C3A40361   8.121  20.719   7.021
 2903POPC   C4A40362   7.936  20.948   7.363
 2903POPC   C1B40363   8.574  20.421   6.314
 2903POPC   C2B40364   8.491  20.437   6.724
 2903POPC   C3B40365   8.593  20.306   7.092
 2903POPC   C4B40366   8.598  20.675   7.219
 2904POPC   NC340367   3.262  22.356   5.523
 2904POPC   PO440368   3.869  22.056   5.424
 2904POPC   GL140369   3.680  22.101   5.846
 2904POPC   GL240370   3.361  21.984   5.889
 2904POPC   C1A40371   3.542  22.253   6.269
 2904POPC   D2A40372   3.319  22.257   6.659
 2904POPC   C3A40373   3.586  22.365   7.025
 2904POPC   C4A40374   3.930  22.579   7.264
 2904POPC   C1B40375   3.211  21.778   6.275
 2904POPC   C2B40376   3.246  21.742   6.720
 2904POPC   C3B40377   3.235  22.001   7.102
 2904POPC   C4B40378   3.294  21.870   7.567
 2905POPC   NC340379   2.717  40.314   5.499
 2905POPC   PO440380   2.923  39.717   5.666
 2905POPC   GL140381   2.676  39.965   5.882
 2905POPC   GL240382   2.410  39.881   5.679
 2905POPC   C1A40383   2.762  40.181   6.257
 2905POPC   D2A40384   2.675  39.992   6.641
 2905POPC   C3A40385   2.665  40.145   7.051
 2905POPC   C4A40386   2.818  39.899   7.359
 2905POPC   C1B40387   2.287  39.679   6.075
 2905POPC   C2B40388   2.270  39.715   6.528
 2905POPC   C3B40389   2.418  39.681   6.962
 2905POPC   C4B40390   2.336  39.807   7.362
 2906POPC   NC340391   8.501   9.530   5.567
 2906POPC   PO440392   7.940   9.507   5.116
 2906POPC   GL140393   7.969   9.538   5.597
 2906POPC   GL240394   8.019   9.886   5.780
 2906POPC   C1A40395   8.027   9.477   6.069
 2906POPC   D2A40396   7.816   9.730   6.423
 2906POPC   C3A40397   7.978   9.754   6.880
 2906POPC   C4A40398   7.900  10.007   7.276
 2906POPC   C1B40399   8.262   9.898   6.215
 2906POPC   C2B40400   8.502   9.917   6.621
 2906POPC   C3B40401   8.401  10.012   7.073
 2906POPC   C4B40402   8.429   9.831   7.498
 2907POPC   NC340403   0.203   8.305   5.477
 2907POPC   PO440404   0.602   7.911   5.107
 2907POPC   GL140405   0.598   8.066   5.662
 2907POPC   GL240406   0.306   7.971   5.918
 2907POPC   C1A40407   0.529   8.392   6.076
 2907POPC   D2A40408   0.205   8.238   6.359
 2907POPC   C3A40409   0.239   8.185   6.789
 2907POPC   C4A40410   0.274   8.002   7.193
 2907POPC   C1B40411   0.715   7.954   6.179
 2907POPC   C2B40412   0.741   8.194   6.579
 2907POPC   C3B40413   0.735   8.009   6.971
 2907POPC   C4B40414   0.768   8.143   7.419
 2908POPC   NC340415  15.021  14.591   5.300
 2908POPC   PO440416  15.665  14.353   5.438
 2908POPC   GL140417  15.416  14.424   5.822
 2908POPC   GL240418  15.391  14.073   5.910
 2908POPC   C1A40419  15.215  14.551   6.244
 2908POPC   D2A40420  14.917  14.620   6.639
 2908POPC   C3A40421  15.188  14.715   7.001
 2908POPC   C4A40422  15.181  14.559   7.428
 2908POPC   C1B40423  15.487  14.025   6.348
 2908POPC   C2B40424  15.242  14.240   6.648
 2908POPC   C3B40425  15.135  14.194   7.045
 2908POPC   C4B40426  15.521  14.278   7.216
 2909POPC   NC340427   3.746  20.823   5.574
 2909POPC   PO440428   3.274  20.337   5.449
 2909POPC   GL140429   3.528  20.393   5.810
 2909POPC   GL240430   3.340  20.677   5.860
 2909POPC   C1A40431   3.740  20.317   6.232
 2909POPC   D2A40432   3.893  20.480   6.644
 2909POPC   C3A40433   3.728  20.292   7.032
 2909POPC   C4A40434   3.629  20.494   7.421
 2909POPC   C1B40435   3.561  20.810   6.217
 2909POPC   C2B40436   3.400  20.689   6.581
 2909POPC   C3B40437   3.454  20.731   7.007
 2909POPC   C4B40438   3.333  21.040   7.290
 2910POPC   NC340439  21.554  37.222   5.559
 2910POPC   PO440440  21.106  36.738   5.419
 2910POPC   GL140441  21.180  36.959   5.783
 2910POPC   GL240442  21.109  36.652   5.923
 2910POPC   C1A40443  21.392  37.000   6.200
 2910POPC   D2A40444  21.406  36.845   6.643
 2910POPC   C3A40445  21.522  37.108   6.990
 2910POPC   C4A40446  21.514  36.979   7.414
 2910POPC   C1B40447  21.174  36.527   6.327
 2910POPC   C2B40448  20.981  36.604   6.731
 2910POPC   C3B40449  21.076  36.848   7.055
 2910POPC   C4B40450  21.246  36.544   7.272
 2911POPC   NC340451   4.969   6.108   5.527
 2911POPC   PO440452   5.358   5.601   5.266
 2911POPC   GL140453   5.332   5.823   5.733
 2911POPC   GL240454   4.980   5.803   5.922
 2911POPC   C1A40455   5.381   5.851   6.222
 2911POPC   D2A40456   5.132   5.932   6.626
 2911POPC   C3A40457   5.282   5.946   7.055
 2911POPC   C4A40458   5.108   5.684   7.360
 2911POPC   C1B40459   4.740   5.733   6.322
 2911POPC   C2B40460   4.556   5.843   6.721
 2911POPC   C3B40461   4.749   5.977   7.104
 2911POPC   C4B40462   4.692   6.029   7.575
 2912POPC   NC340463  19.289  28.597   5.409
 2912POPC   PO440464  19.221  28.001   5.270
 2912POPC   GL140465  19.275  28.244   5.761
 2912POPC   GL240466  18.968  28.316   5.832
 2912POPC   C1A40467  19.203  28.229   6.267
 2912POPC   D2A40468  18.910  28.250   6.640
 2912POPC   C3A40469  19.149  28.198   7.008
 2912POPC   C4A40470  19.281  28.455   7.362
 2912POPC   C1B40471  18.730  28.473   6.187
 2912POPC   C2B40472  18.455  28.540   6.536
 2912POPC   C3B40473  18.452  28.597   6.965
 2912POPC   C4B40474  18.659  28.294   7.250
 2913POPC   NC340475  28.173  33.518   5.439
 2913POPC   PO440476  28.577  34.092   5.441
 2913POPC   GL140477  28.334  33.887   5.765
 2913POPC   GL240478  27.983  33.937   5.670
 2913POPC   C1A40479  28.376  33.665   6.153
 2913POPC   D2A40480  28.613  33.759   6.519
 2913POPC   C3A40481  28.482  33.703   6.940
 2913POPC   C4A40482  28.653  33.653   7.341
 2913POPC   C1B40483  27.943  33.913   6.118
 2913POPC   C2B40484  28.104  33.851   6.566
 2913POPC   C3B40485  28.074  34.011   6.976
 2913POPC   C4B40486  28.204  33.910   7.375
 2914POPC   NC340487  19.630   3.974   5.112
 2914POPC   PO440488  19.959   4.476   5.291
 2914POPC   GL140489  19.835   4.180   5.610
 2914POPC   GL240490  20.124   4.066   5.789
 2914POPC   C1A40491  19.637   4.227   6.031
 2914POPC   D2A40492  19.815   4.143   6.425
 2914POPC   C3A40493  19.653   4.286   6.790
 2914POPC   C4A40494  19.600   4.565   7.102
 2914POPC   C1B40495  20.127   4.439   6.064
 2914POPC   C2B40496  20.234   4.406   6.508
 2914POPC   C3B40497  20.127   4.506   6.909
 2914POPC   C4B40498  20.322   4.440   7.300
 2915POPC   NC340499  23.044   3.336   5.319
 2915POPC   PO440500  22.636   3.914   5.437
 2915POPC   GL140501  22.696   3.643   5.778
 2915POPC   GL240502  23.044   3.580   5.786
 2915POPC   C1A40503  22.625   3.534   6.201
 2915POPC   D2A40504  22.775   3.233   6.474
 2915POPC   C3A40505  22.804   3.338   6.907
 2915POPC   C4A40506  22.676   3.667   7.177
 2915POPC   C1B40507  23.076   3.792   6.188
 2915POPC   C2B40508  23.088   3.641   6.594
 2915POPC   C3B40509  23.212   3.780   6.973
 2915POPC   C4B40510  23.285   3.685   7.382
 2916POPC   NC340511  36.427   1.772   5.561
 2916POPC   PO440512  37.008   1.398   5.501
 2916POPC   GL140513  37.070   1.121   5.883
 2916POPC   GL240514  37.283   0.864   5.980
 2916POPC   C1A40515  36.907   1.072   6.316
 2916POPC   D2A40516  36.585   1.384   6.492
 2916POPC   C3A40517  36.595   1.525   6.939
 2916POPC   C4A40518  36.710   1.392   7.342
 2916POPC   C1B40519  37.434   1.144   6.283
 2916POPC   C2B40520  37.274   1.248   6.668
 2916POPC   C3B40521  37.069   1.208   7.035
 2916POPC   C4B40522  37.146   1.601   7.272
 2917POPC   NC340523  15.782  14.979   5.436
 2917POPC   PO440524  15.944  15.658   5.480
 2917POPC   GL140525  16.026  15.275   5.778
 2917POPC   GL240526  16.248  15.467   5.971
 2917POPC   C1A40527  15.822  14.956   6.146
 2917POPC   D2A40528  15.578  14.809   6.568
 2917POPC   C3A40529  15.718  14.990   6.960
 2917POPC   C4A40530  15.942  15.218   7.314
 2917POPC   C1B40531  15.818  15.468   6.199
 2917POPC   C2B40532  15.594  15.340   6.590
 2917POPC   C3B40533  15.649  15.515   7.019
 2917POPC   C4B40534  15.510  15.589   7.434
 2918POPC   NC340535  18.471  29.851   5.468
 2918POPC   PO440536  17.906  30.214   5.121
 2918POPC   GL140537  17.985  30.042   5.565
 2918POPC   GL240538  17.956  29.653   5.620
 2918POPC   C1A40539  18.019  30.011   6.007
 2918POPC   D2A40540  18.291  30.006   6.377
 2918POPC   C3A40541  18.101  30.042   6.774
 2918POPC   C4A40542  18.295  30.012   7.174
 2918POPC   C1B40543  17.881  29.528   6.066
 2918POPC   C2B40544  17.993  29.575   6.514
 2918POPC   C3B40545  18.201  29.549   6.936
 2918POPC   C4B40546  18.009  29.617   7.344
 2919POPC   NC340547  17.073  34.371   5.587
 2919POPC   PO440548  17.764  34.300   5.537
 2919POPC   GL140549  17.613  34.428   5.909
 2919POPC   GL240550  17.415  34.695   5.799
 2919POPC   C1A40551  17.316  34.361   6.245
 2919POPC   D2A40552  17.296  34.547   6.665
 2919POPC   C3A40553  17.687  34.520   6.914
 2919POPC   C4A40554  17.787  34.325   7.325
 2919POPC   C1B40555  17.451  34.859   6.235
 2919POPC   C2B40556  17.529  35.027   6.651
 2919POPC   C3B40557  17.327  34.920   7.028
 2919POPC   C4B40558  17.499  34.735   7.338
 2920POPC   NC340559   4.701  44.685   5.531
 2920POPC   PO440560   4.075  44.767   5.513
 2920POPC   GL140561   4.070  44.533   5.885
 2920POPC   GL240562   4.310  44.265   5.791
 2920POPC   C1A40563   3.925  44.559   6.327
 2920POPC   D2A40564   3.890  44.548   6.771
 2920POPC   C3A40565   4.145  44.857   6.973
 2920POPC   C4A40566   4.409  44.886   7.344
 2920POPC   C1B40567   4.489  44.358   6.203
 2920POPC   C2B40568   4.393  44.581   6.586
 2920POPC   C3B40569   4.375  44.414   7.003
 2920POPC   C4B40570   4.044  44.449   7.298
 2921POPC   NC340571  27.869  44.078   5.583
 2921POPC   PO440572  27.664  43.359   5.515
 2921POPC   GL140573  27.525  43.693   5.814
 2921POPC   GL240574  27.355  44.016   5.689
 2921POPC   C1A40575  27.582  43.709   6.283
 2921POPC   D2A40576  27.428  43.737   6.725
 2921POPC   C3A40577  27.699  43.800   7.073
 2921POPC   C4A40578  27.681  44.093   7.388
 2921POPC   C1B40579  27.279  44.083   6.114
 2921POPC   C2B40580  27.476  44.263   6.480
 2921POPC   C3B40581  27.425  44.232   6.919
 2921POPC   C4B40582  27.188  44.017   7.212
 2922POPC   NC340583  12.133  33.253   5.435
 2922POPC   PO440584  11.750  32.742   5.672
 2922POPC   GL140585  12.026  33.005   5.882
 2922POPC   GL240586  11.927  33.361   5.895
 2922POPC   C1A40587  12.330  32.788   6.128
 2922POPC   D2A40588  12.220  32.605   6.514
 2922POPC   C3A40589  12.133  32.929   6.838
 2922POPC   C4A40590  11.891  33.162   7.138
 2922POPC   C1B40591  12.300  33.314   6.188
 2922POPC   C2B40592  12.444  33.334   6.599
 2922POPC   C3B40593  12.303  33.428   6.992
 2922POPC   C4B40594  11.991  33.663   7.204
 2923POPC   NC340595  13.823  18.692   5.376
 2923POPC   PO440596  13.518  18.058   5.278
 2923POPC   GL140597  13.736  18.203   5.730
 2923POPC   GL240598  13.615  18.554   5.835
 2923POPC   C1A40599  13.601  18.169   6.190
 2923POPC   D2A40600  13.647  18.345   6.614
 2923POPC   C3A40601  13.751  18.077   6.987
 2923POPC   C4A40602  13.828  18.225   7.409
 2923POPC   C1B40603  13.326  18.595   6.204
 2923POPC   C2B40604  13.130  18.338   6.533
 2923POPC   C3B40605  13.258  18.236   6.955
 2923POPC   C4B40606  13.365  18.466   7.336
 2924POPC   NC340607  13.291   8.776   5.575
 2924POPC   PO440608  13.729   9.230   5.446
 2924POPC   GL140609  13.664   9.057   5.872
 2924POPC   GL240610  13.721   8.674   5.839
 2924POPC   C1A40611  13.787   9.240   6.303
 2924POPC   D2A40612  13.822   9.238   6.760
 2924POPC   C3A40613  13.400   9.082   6.932
 2924POPC   C4A40614  13.287   8.782   7.297
 2924POPC   C1B40615  13.881   8.751   6.247
 2924POPC   C2B40616  13.696   8.747   6.655
 2924POPC   C3B40617  13.787   8.836   7.101
 2924POPC   C4B40618  14.029   8.702   7.435
 2925POPC   NC340619  37.686  19.659   5.057
 2925POPC   PO440620  37.616  19.065   5.261
 2925POPC   GL140621  37.532  19.137   5.714
 2925POPC   GL240622  37.304  19.403   5.700
 2925POPC   C1A40623  37.700  19.152   6.172
 2925POPC   D2A40624  37.930  19.187   6.548
 2925POPC   C3A40625  37.747  18.979   6.889
 2925POPC   C4A40626  37.829  19.127   7.305
 2925POPC   C1B40627  37.226  19.327   6.134
 2925POPC   C2B40628  37.357  19.234   6.594
 2925POPC   C3B40629  37.371  19.269   7.048
 2925POPC   C4B40630  37.331  19.283   7.494
 2926POPC   NC340631  24.004  43.417   5.420
 2926POPC   PO440632  24.540  43.159   5.482
 2926POPC   GL140633  24.374  43.028   5.848
 2926POPC   GL240634  24.628  42.884   6.035
 2926POPC   C1A40635  24.303  43.269   6.232
 2926POPC   D2A40636  24.159  43.376   6.638
 2926POPC   C3A40637  24.373  43.245   7.003
 2926POPC   C4A40638  24.155  42.953   7.236
 2926POPC   C1B40639  24.518  42.893   6.490
 2926POPC   C2B40640  24.810  43.053   6.801
 2926POPC   C3B40641  24.939  43.032   7.247
 2926POPC   C4B40642  24.938  43.032   7.738
 2927POPC   NC340643  35.178  20.033   5.566
 2927POPC   PO440644  35.505  19.539   5.551
 2927POPC   GL140645  35.236  19.593   5.884
 2927POPC   GL240646  35.433  19.884   5.985
 2927POPC   C1A40647  35.167  19.659   6.333
 2927POPC   D2A40648  35.369  19.876   6.674
 2927POPC   C3A40649  35.198  19.895   7.069
 2927POPC   C4A40650  35.031  19.524   7.273
 2927POPC   C1B40651  35.691  19.668   6.318
 2927POPC   C2B40652  35.656  19.345   6.641
 2927POPC   C3B40653  35.516  19.487   7.041
 2927POPC   C4B40654  35.669  19.860   7.246
 2928POPC   NC340655  35.661   9.852   5.455
 2928POPC   PO440656  36.240  10.040   5.190
 2928POPC   GL140657  36.160   9.768   5.606
 2928POPC   GL240658  35.916   9.434   5.634
 2928POPC   C1A40659  36.240   9.708   6.080
 2928POPC   D2A40660  36.359   9.664   6.556
 2928POPC   C3A40661  36.215   9.982   6.881
 2928POPC   C4A40662  36.009  10.064   7.306
 2928POPC   C1B40663  35.919   9.328   6.075
 2928POPC   C2B40664  35.847   9.594   6.449
 2928POPC   C3B40665  35.852   9.617   6.894
 2928POPC   C4B40666  35.913   9.292   7.167
 2929POPC   NC340667   2.963  20.755   5.508
 2929POPC   PO440668   2.366  20.405   5.704
 2929POPC   GL140669   2.749  20.464   5.946
 2929POPC   GL240670   2.685  20.818   5.938
 2929POPC   C1A40671   2.738  20.484   6.414
 2929POPC   D2A40672   2.471  20.763   6.689
 2929POPC   C3A40673   2.469  20.665   7.128
 2929POPC   C4A40674   2.559  20.624   7.567
 2929POPC   C1B40675   3.041  20.841   6.218
 2929POPC   C2B40676   2.980  20.961   6.641
 2929POPC   C3B40677   2.951  20.693   6.990
 2929POPC   C4B40678   3.114  20.604   7.431
 2930POPC   NC340679  17.683  33.880   5.331
 2930POPC   PO440680  17.081  34.023   5.284
 2930POPC   GL140681  17.366  33.984   5.720
 2930POPC   GL240682  17.529  33.646   5.754
 2930POPC   C1A40683  17.259  33.845   6.158
 2930POPC   D2A40684  17.103  34.005   6.559
 2930POPC   C3A40685  17.362  34.069   6.917
 2930POPC   C4A40686  17.526  33.812   7.225
 2930POPC   C1B40687  17.758  33.908   6.075
 2930POPC   C2B40688  17.938  33.875   6.478
 2930POPC   C3B40689  17.887  34.011   6.904
 2930POPC   C4B40690  18.034  33.895   7.332
 2931POPC   NC340691   1.781  19.483   5.427
 2931POPC   PO440692   1.744  18.846   5.294
 2931POPC   GL140693   1.690  19.032   5.727
 2931POPC   GL240694   2.027  19.133   5.738
 2931POPC   C1A40695   1.726  19.142   6.212
 2931POPC   D2A40696   1.880  18.961   6.591
 2931POPC   C3A40697   1.709  19.020   7.003
 2931POPC   C4A40698   1.867  19.025   7.458
 2931POPC   C1B40699   2.231  19.170   6.121
 2931POPC   C2B40700   2.109  19.408   6.451
 2931POPC   C3B40701   2.069  19.372   6.865
 2931POPC   C4B40702   2.231  19.313   7.248
 2932POPC   NC340703  31.617  41.326   5.569
 2932POPC   PO440704  31.074  41.275   5.553
 2932POPC   GL140705  31.304  41.467   5.944
 2932POPC   GL240706  31.441  41.776   5.845
 2932POPC   C1A40707  31.222  41.751   6.319
 2932POPC   D2A40708  31.135  41.997   6.689
 2932POPC   C3A40709  31.314  41.829   7.092
 2932POPC   C4A40710  31.482  41.390   7.165
 2932POPC   C1B40711  31.711  41.788   6.232
 2932POPC   C2B40712  31.628  41.716   6.691
 2932POPC   C3B40713  31.831  41.758   7.112
 2932POPC   C4B40714  31.824  41.981   7.507
 2933POPC   NC340715  40.403  13.165   5.522
 2933POPC   PO440716  40.613  13.788   5.318
 2933POPC   GL140717  40.848  13.611   5.709
 2933POPC   GL240718  40.870  13.246   5.785
 2933POPC   C1A40719  40.690  13.613   6.159
 2933POPC   D2A40720  40.641  13.797   6.576
 2933POPC   C3A40721  40.641  13.560   6.955
 2933POPC   C4A40722  40.812  13.593   7.374
 2933POPC   C1B40723  41.111  13.325   6.174
 2933POPC   C2B40724  40.970  13.385   6.602
 2933POPC   C3B40725  41.147  13.448   7.032
 2933POPC   C4B40726  41.066  13.179   7.443
 2934POPC   NC340727  41.643  39.488   5.141
 2934POPC   PO440728  41.149  39.054   5.224
 2934POPC   GL140729  41.250  39.139   5.709
 2934POPC   GL240730  41.456  39.435   5.714
 2934POPC   C1A40731  41.252  39.131   6.203
 2934POPC   D2A40732  41.144  39.060   6.698
 2934POPC   C3A40733  41.338  39.206   7.092
 2934POPC   C4A40734  41.367  39.292   7.538
 2934POPC   C1B40735  41.608  39.477   6.158
 2934POPC   C2B40736  41.504  39.465   6.634
 2934POPC   C3B40737  41.780  39.425   7.037
 2934POPC   C4B40738  41.842  39.160   7.419
 2935POPC   NC340739  44.951   3.937   5.463
 2935POPC   PO440740  44.563   4.490   5.440
 2935POPC   GL140741  44.616   4.210   5.753
 2935POPC   GL240742  44.904   4.330   5.874
 2935POPC   C1A40743  44.493   4.304   6.172
 2935POPC   D2A40744  44.583   4.456   6.559
 2935POPC   C3A40745  44.366   4.344   6.917
 2935POPC   C4A40746  44.594   4.378   7.291
 2935POPC   C1B40747   0.019   4.225   6.314
 2935POPC   C2B40748   0.226   4.228   6.711
 2935POPC   C3B40749   0.075   4.425   7.124
 2935POPC   C4B40750   0.120   4.530   7.591
 2936POPC   NC340751  27.234  29.157   5.475
 2936POPC   PO440752  26.600  28.914   5.307
 2936POPC   GL140753  26.676  29.201   5.703
 2936POPC   GL240754  26.982  29.253   5.906
 2936POPC   C1A40755  26.525  29.319   6.142
 2936POPC   D2A40756  26.707  29.606   6.489
 2936POPC   C3A40757  26.907  29.375   6.867
 2936POPC   C4A40758  26.796  29.053   7.197
 2936POPC   C1B40759  27.160  28.940   6.187
 2936POPC   C2B40760  27.053  28.780   6.596
 2936POPC   C3B40761  27.236  28.803   6.989
 2936POPC   C4B40762  27.343  29.088   7.327
 2937POPC   NC340763  38.865  39.371   5.401
 2937POPC   PO440764  39.415  38.990   5.360
 2937POPC   GL140765  39.224  39.100   5.718
 2937POPC   GL240766  39.192  39.447   5.814
 2937POPC   C1A40767  39.179  39.058   6.172
 2937POPC   D2A40768  39.143  39.260   6.584
 2937POPC   C3A40769  39.073  38.968   6.910
 2937POPC   C4A40770  39.203  38.899   7.313
 2937POPC   C1B40771  38.886  39.483   6.161
 2937POPC   C2B40772  38.665  39.442   6.550
 2937POPC   C3B40773  38.691  39.599   6.943
 2937POPC   C4B40774  39.022  39.423   7.136
 2938POPC   NC340775  29.754  10.006   5.443
 2938POPC   PO440776  30.163   9.450   5.347
 2938POPC   GL140777  30.154   9.656   5.798
 2938POPC   GL240778  29.980   9.938   5.899
 2938POPC   C1A40779  30.110   9.669   6.308
 2938POPC   D2A40780  29.896   9.892   6.675
 2938POPC   C3A40781  29.763   9.682   7.027
 2938POPC   C4A40782  30.092   9.510   7.213
 2938POPC   C1B40783  30.112  10.182   6.273
 2938POPC   C2B40784  30.296  10.189   6.680
 2938POPC   C3B40785  30.166  10.096   7.102
 2938POPC   C4B40786  29.797  10.103   7.366
 2939POPC   NC340787  29.687  38.378   5.405
 2939POPC   PO440788  29.066  38.547   5.367
 2939POPC   GL140789  29.172  38.536   5.781
 2939POPC   GL240790  29.477  38.680   5.848
 2939POPC   C1A40791  29.222  38.278   6.158
 2939POPC   D2A40792  29.363  38.216   6.593
 2939POPC   C3A40793  29.163  38.388   6.946
 2939POPC   C4A40794  29.092  38.714   7.206
 2939POPC   C1B40795  29.317  38.776   6.259
 2939POPC   C2B40796  29.292  38.823   6.702
 2939POPC   C3B40797  29.571  38.691   7.020
 2939POPC   C4B40798  29.491  38.406   7.377
 2940POPC   NC340799   3.463   1.916   5.416
 2940POPC   PO440800   4.055   1.579   5.642
 2940POPC   GL140801   3.727   1.836   5.844
 2940POPC   GL240802   3.749   2.208   5.726
 2940POPC   C1A40803   3.529   1.780   6.261
 2940POPC   D2A40804   3.735   1.993   6.625
 2940POPC   C3A40805   3.605   1.961   7.057
 2940POPC   C4A40806   3.638   1.947   7.516
 2940POPC   C1B40807   3.600   2.279   6.150
 2940POPC   C2B40808   3.500   2.462   6.543
 2940POPC   C3B40809   3.770   2.492   6.890
 2940POPC   C4B40810   3.774   2.526   7.324
 2941POPC   NC340811  38.921  14.898   5.686
 2941POPC   PO440812  38.601  15.392   5.420
 2941POPC   GL140813  38.514  15.170   5.805
 2941POPC   GL240814  38.285  14.920   5.727
 2941POPC   C1A40815  38.606  15.269   6.251
 2941POPC   D2A40816  38.303  15.526   6.489
 2941POPC   C3A40817  38.321  15.570   6.945
 2941POPC   C4A40818  38.608  15.622   7.322
 2941POPC   C1B40819  38.189  14.966   6.166
 2941POPC   C2B40820  38.354  14.815   6.559
 2941POPC   C3B40821  38.425  15.070   6.918
 2941POPC   C4B40822  38.331  15.191   7.368
 2942POPC   NC340823  44.505  16.179   4.995
 2942POPC   PO440824  44.420  15.597   5.418
 2942POPC   GL140825  44.455  15.813   5.871
 2942POPC   GL240826  44.729  15.791   6.112
 2942POPC   C1A40827  44.279  15.773   6.301
 2942POPC   D2A40828  44.588  15.728   6.631
 2942POPC   C3A40829  44.433  15.803   7.042
 2942POPC   C4A40830  44.465  15.879   7.498
 2942POPC   C1B40831  44.548  16.183   6.318
 2942POPC   C2B40832  44.463  16.245   6.748
 2942POPC   C3B40833  44.631  16.262   7.161
 2942POPC   C4B40834  44.516  16.413   7.566
 2943POPC   NC340835  28.679  38.309   5.334
 2943POPC   PO440836  28.109  38.262   5.362
 2943POPC   GL140837  28.361  38.341   5.753
 2943POPC   GL240838  28.068  38.453   5.925
 2943POPC   C1A40839  28.728  38.480   6.060
 2943POPC   D2A40840  28.903  38.541   6.515
 2943POPC   C3A40841  28.680  38.586   6.952
 2943POPC   C4A40842  28.636  38.727   7.431
 2943POPC   C1B40843  28.289  38.528   6.334
 2943POPC   C2B40844  28.241  38.400   6.773
 2943POPC   C3B40845  28.262  38.482   7.232
 2943POPC   C4B40846  28.116  38.838   7.500
 2944POPC   NC340847  16.958   8.319   5.493
 2944POPC   PO440848  16.489   7.877   5.413
 2944POPC   GL140849  16.699   8.038   5.832
 2944POPC   GL240850  16.733   8.405   5.964
 2944POPC   C1A40851  16.866   8.041   6.277
 2944POPC   D2A40852  17.043   8.261   6.647
 2944POPC   C3A40853  16.978   8.027   7.013
 2944POPC   C4A40854  16.882   7.866   7.380
 2944POPC   C1B40855  16.405   8.601   6.266
 2944POPC   C2B40856  16.340   8.487   6.710
 2944POPC   C3B40857  16.665   8.430   7.030
 2944POPC   C4B40858  17.095   8.545   7.178
 2945POPC   NC340859  16.669  34.241   5.228
 2945POPC   PO440860  16.915  34.826   5.491
 2945POPC   GL140861  16.665  34.629   5.799
 2945POPC   GL240862  16.947  34.698   6.006
 2945POPC   C1A40863  16.535  34.520   6.231
 2945POPC   D2A40864  16.805  34.439   6.569
 2945POPC   C3A40865  16.595  34.294   6.937
 2945POPC   C4A40866  16.566  34.508   7.311
 2945POPC   C1B40867  16.980  35.081   6.231
 2945POPC   C2B40868  16.994  35.010   6.660
 2945POPC   C3B40869  16.851  34.765   6.972
 2945POPC   C4B40870  17.087  34.445   7.142
 2946POPC   NC340871   4.260  21.242   5.450
 2946POPC   PO440872   4.232  20.619   5.510
 2946POPC   GL140873   4.325  20.627   5.921
 2946POPC   GL240874   4.498  20.956   5.875
 2946POPC   C1A40875   4.292  20.338   6.301
 2946POPC   D2A40876   4.333  20.178   6.736
 2946POPC   C3A40877   4.195  20.453   7.085
 2946POPC   C4A40878   3.954  20.855   7.057
 2946POPC   C1B40879   4.647  20.736   6.290
 2946POPC   C2B40880   4.416  20.688   6.671
 2946POPC   C3B40881   4.492  20.856   7.056
 2946POPC   C4B40882   4.898  20.889   7.126
 2947POPC   NC340883   8.437  41.938   5.381
 2947POPC   PO440884   7.999  41.409   5.470
 2947POPC   GL140885   8.239  41.610   5.793
 2947POPC   GL240886   8.595  41.603   5.735
 2947POPC   C1A40887   8.310  41.547   6.236
 2947POPC   D2A40888   8.038  41.597   6.572
 2947POPC   C3A40889   8.169  41.463   6.983
 2947POPC   C4A40890   8.270  41.522   7.399
 2947POPC   C1B40891   8.696  41.829   6.122
 2947POPC   C2B40892   8.492  41.993   6.511
 2947POPC   C3B40893   8.509  41.887   6.950
 2947POPC   C4B40894   8.409  42.017   7.354
 2948POPC   NC340895  10.381  35.700   5.415
 2948POPC   PO440896  10.573  36.389   5.350
 2948POPC   GL140897  10.505  36.121   5.691
 2948POPC   GL240898  10.279  36.290   5.859
 2948POPC   C1A40899  10.615  35.984   6.108
 2948POPC   D2A40900  10.877  36.175   6.421
 2948POPC   C3A40901  10.833  36.106   6.870
 2948POPC   C4A40902  10.615  35.944   7.204
 2948POPC   C1B40903  10.524  36.501   6.229
 2948POPC   C2B40904  10.631  36.545   6.696
 2948POPC   C3B40905  10.507  36.435   7.135
 2948POPC   C4B40906  10.424  36.436   7.615
 2949POPC   NC340907  12.370   8.245   5.359
 2949POPC   PO440908  11.629   8.454   5.488
 2949POPC   GL140909  11.962   8.390   5.823
 2949POPC   GL240910  11.993   8.043   5.874
 2949POPC   C1A40911  12.187   8.298   6.274
 2949POPC   D2A40912  12.421   8.185   6.674
 2949POPC   C3A40913  12.234   8.222   7.073
 2949POPC   C4A40914  12.195   8.478   7.454
 2949POPC   C1B40915  11.770   7.988   6.256
 2949POPC   C2B40916  11.867   8.107   6.712
 2949POPC   C3B40917  11.791   7.962   7.154
 2949POPC   C4B40918  11.799   7.796   7.617
 2950POPC   NC340919  30.816   1.308   5.541
 2950POPC   PO440920  30.303   0.970   5.579
 2950POPC   GL140921  30.627   1.032   5.936
 2950POPC   GL240922  30.717   1.380   6.018
 2950POPC   C1A40923  30.568   1.014   6.394
 2950POPC   D2A40924  30.555   0.691   6.729
 2950POPC   C3A40925  30.467   0.955   7.066
 2950POPC   C4A40926  30.363   1.363   7.110
 2950POPC   C1B40927  30.959   1.353   6.373
 2950POPC   C2B40928  30.811   1.342   6.823
 2950POPC   C3B40929  30.884   1.176   7.265
 2950POPC   C4B40930  30.909   1.397   7.676
 2951POPC   NC340931  30.486  16.770   5.504
 2951POPC   PO440932  30.929  16.234   5.340
 2951POPC   GL140933  30.903  16.563   5.692
 2951POPC   GL240934  30.867  16.925   5.821
 2951POPC   C1A40935  30.731  16.551   6.133
 2951POPC   D2A40936  30.851  16.685   6.532
 2951POPC   C3A40937  30.663  16.551   6.935
 2951POPC   C4A40938  30.779  16.773   7.316
 2951POPC   C1B40939  30.747  17.087   6.214
 2951POPC   C2B40940  30.529  17.123   6.606
 2951POPC   C3B40941  30.668  17.170   7.010
 2951POPC   C4B40942  30.645  17.262   7.441
 2952POPC   NC340943  44.897  23.358   5.478
 2952POPC   PO440944  44.439  23.864   5.428
 2952POPC   GL140945  44.592  23.684   5.752
 2952POPC   GL240946  44.932  23.797   5.750
 2952POPC   C1A40947  44.479  23.646   6.150
 2952POPC   D2A40948  44.675  23.468   6.528
 2952POPC   C3A40949  44.480  23.596   6.924
 2952POPC   C4A40950  44.665  23.706   7.341
 2952POPC   C1B40951  44.976  23.754   6.190
 2952POPC   C2B40952   0.090  23.880   6.609
 2952POPC   C3B40953   0.008  23.627   6.944
 2952POPC   C4B40954   0.158  23.585   7.335
 2953POPC   NC340955   6.195  39.859   5.333
 2953POPC   PO440956   5.539  40.185   5.320
 2953POPC   GL140957   5.853  40.115   5.663
 2953POPC   GL240958   6.002  40.386   5.830
 2953POPC   C1A40959   5.816  40.009   6.122
 2953POPC   D2A40960   5.557  39.718   6.380
 2953POPC   C3A40961   5.621  39.756   6.824
 2953POPC   C4A40962   5.820  39.844   7.198
 2953POPC   C1B40963   6.234  40.411   6.214
 2953POPC   C2B40964   6.027  40.433   6.592
 2953POPC   C3B40965   5.771  40.259   6.891
 2953POPC   C4B40966   5.869  40.334   7.300
 2954POPC   NC340967   3.078  43.641   5.403
 2954POPC   PO440968   2.600  44.113   5.267
 2954POPC   GL140969   2.746  43.934   5.686
 2954POPC   GL240970   2.475  43.739   5.871
 2954POPC   C1A40971   2.947  43.789   6.083
 2954POPC   D2A40972   3.057  43.888   6.519
 2954POPC   C3A40973   2.899  43.969   6.912
 2954POPC   C4A40974   3.043  44.294   7.210
 2954POPC   C1B40975   2.562  43.465   6.213
 2954POPC   C2B40976   2.556  43.515   6.658
 2954POPC   C3B40977   2.586  43.553   7.076
 2954POPC   C4B40978   2.528  43.913   7.267
 2955POPC   NC340979   7.708  43.278   5.575
 2955POPC   PO440980   8.295  43.231   5.381
 2955POPC   GL140981   8.206  43.223   5.804
 2955POPC   GL240982   8.063  43.568   5.814
 2955POPC   C1A40983   8.296  42.968   6.200
 2955POPC   D2A40984   8.361  43.074   6.641
 2955POPC   C3A40985   8.055  42.841   6.913
 2955POPC   C4A40986   7.967  42.851   7.376
 2955POPC   C1B40987   8.116  43.444   6.251
 2955POPC   C2B40988   7.887  43.231   6.559
 2955POPC   C3B40989   8.026  43.343   6.963
 2955POPC   C4B40990   7.771  43.446   7.270
 2956POPC   NC340991  36.792  29.825   5.145
 2956POPC   PO440992  36.513  29.865   5.782
 2956POPC   GL140993  36.994  29.876   5.848
 2956POPC   GL240994  37.241  30.178   5.821
 2956POPC   C1A40995  37.188  29.866   6.229
 2956POPC   D2A40996  36.914  29.835   6.551
 2956POPC   C3A40997  37.137  29.822   6.894
 2956POPC   C4A40998  37.115  30.034   7.301
 2956POPC   C1B40999  36.979  30.323   6.144
 2956POPC   C2B41000  37.092  30.376   6.544
 2956POPC   C3B41001  36.881  30.281   6.906
 2956POPC   C4B41002  36.666  30.254   7.281
 2957POPC   NC341003   1.713   7.192   5.366
 2957POPC   PO441004   1.015   7.379   5.377
 2957POPC   GL141005   1.035   7.354   5.793
 2957POPC   GL241006   1.388   7.443   5.917
 2957POPC   C1A41007   0.929   7.462   6.187
 2957POPC   D2A41008   0.776   7.296   6.570
 2957POPC   C3A41009   0.991   7.396   6.947
 2957POPC   C4A41010   1.019   7.300   7.362
 2957POPC   C1B41011   1.410   7.418   6.378
 2957POPC   C2B41012   1.497   7.420   6.793
 2957POPC   C3B41013   1.471   7.465   7.218
 2957POPC   C4B41014   1.447   7.061   7.491
 2958POPC   NC341015  35.703  23.822   5.383
 2958POPC   PO441016  36.175  23.426   5.683
 2958POPC   GL141017  36.142  23.826   5.841
 2958POPC   GL241018  35.845  24.033   5.815
 2958POPC   C1A41019  36.270  23.864   6.242
 2958POPC   D2A41020  36.211  23.578   6.563
 2958POPC   C3A41021  35.949  23.620   6.930
 2958POPC   C4A41022  36.071  23.673   7.295
 2958POPC   C1B41023  35.767  23.839   6.207
 2958POPC   C2B41024  35.837  23.982   6.609
 2958POPC   C3B41025  35.587  23.993   7.022
 2958POPC   C4B41026  35.595  23.805   7.436
 2959POPC   NC341027  30.258   5.019   5.319
 2959POPC   PO441028  29.577   4.886   5.391
 2959POPC   GL141029  29.669   5.168   5.718
 2959POPC   GL241030  29.996   5.023   5.798
 2959POPC   C1A41031  29.594   5.314   6.148
 2959POPC   D2A41032  29.622   5.023   6.519
 2959POPC   C3A41033  29.781   5.064   6.932
 2959POPC   C4A41034  29.704   5.414   7.199
 2959POPC   C1B41035  30.046   5.096   6.246
 2959POPC   C2B41036  30.105   4.806   6.592
 2959POPC   C3B41037  30.353   4.860   6.932
 2959POPC   C4B41038  30.191   5.232   7.161
 2960POPC   NC341039   3.663  31.899   5.457
 2960POPC   PO441040   3.433  32.421   5.181
 2960POPC   GL141041   3.402  32.322   5.655
 2960POPC   GL241042   3.252  32.002   5.786
 2960POPC   C1A41043   3.473  32.377   6.111
 2960POPC   D2A41044   3.431  32.374   6.586
 2960POPC   C3A41045   3.747  32.485   6.946
 2960POPC   C4A41046   3.523  32.397   7.332
 2960POPC   C1B41047   3.352  31.837   6.200
 2960POPC   C2B41048   3.567  31.848   6.614
 2960POPC   C3B41049   3.746  31.990   7.046
 2960POPC   C4B41050   3.784  32.029   7.531
 2961POPC   NC341051  12.531  40.856   5.471
 2961POPC   PO441052  13.131  40.773   5.487
 2961POPC   GL141053  12.894  40.920   5.858
 2961POPC   GL241054  12.779  41.250   5.947
 2961POPC   C1A41055  12.832  40.812   6.310
 2961POPC   D2A41056  12.944  40.969   6.741
 2961POPC   C3A41057  12.955  40.708   7.099
 2961POPC   C4A41058  13.306  40.737   7.357
 2961POPC   C1B41059  12.486  41.185   6.315
 2961POPC   C2B41060  12.443  41.020   6.769
 2961POPC   C3B41061  12.663  41.127   7.166
 2961POPC   C4B41062  12.889  40.965   7.546
 2962POPC   NC341063   9.036   3.090   5.385
 2962POPC   PO441064   9.544   2.720   5.449
 2962POPC   GL141065   9.294   2.807   5.833
 2962POPC   GL241066   8.917   2.789   5.815
 2962POPC   C1A41067   9.207   2.688   6.278
 2962POPC   D2A41068   9.422   2.643   6.660
 2962POPC   C3A41069   9.114   2.755   6.943
 2962POPC   C4A41070   8.702   2.764   7.100
 2962POPC   C1B41071   8.715   2.854   6.218
 2962POPC   C2B41072   8.787   3.033   6.622
 2962POPC   C3B41073   8.623   3.236   6.977
 2962POPC   C4B41074   8.747   3.212   7.407
 2963POPC   NC341075  10.959  12.391   4.962
 2963POPC   PO441076  11.216  11.869   5.313
 2963POPC   GL141077  11.279  11.921   5.778
 2963POPC   GL241078  11.246  12.308   5.856
 2963POPC   C1A41079  11.430  11.738   6.155
 2963POPC   D2A41080  11.258  11.781   6.581
 2963POPC   C3A41081  11.390  11.877   7.009
 2963POPC   C4A41082  11.262  11.643   7.357
 2963POPC   C1B41083  11.270  12.223   6.299
 2963POPC   C2B41084  11.416  12.304   6.714
 2963POPC   C3B41085  11.439  12.378   7.139
 2963POPC   C4B41086  11.114  12.450   7.412
 2964POPC   NC341087  37.912  37.041   5.408
 2964POPC   PO441088  37.493  36.475   5.467
 2964POPC   GL141089  37.810  36.640   5.781
 2964POPC   GL241090  37.657  36.937   5.822
 2964POPC   C1A41091  37.870  36.740   6.257
 2964POPC   D2A41092  37.540  36.642   6.593
 2964POPC   C3A41093  37.508  36.838   7.001
 2964POPC   C4A41094  37.910  36.863   7.230
 2964POPC   C1B41095  37.671  37.214   6.138
 2964POPC   C2B41096  37.563  37.162   6.543
 2964POPC   C3B41097  37.532  37.377   6.907
 2964POPC   C4B41098  37.619  37.288   7.300
 2965POPC   NC341099  17.731  26.225   5.654
 2965POPC   PO441100  18.268  26.087   5.313
 2965POPC   GL141101  18.205  26.017   5.750
 2965POPC   GL241102  18.194  26.360   5.866
 2965POPC   C1A41103  18.156  26.004   6.217
 2965POPC   D2A41104  18.382  26.241   6.536
 2965POPC   C3A41105  18.313  26.185   6.953
 2965POPC   C4A41106  18.422  25.888   7.217
 2965POPC   C1B41107  18.061  26.544   6.283
 2965POPC   C2B41108  17.944  26.487   6.745
 2965POPC   C3B41109  17.810  26.087   6.908
 2965POPC   C4B41110  17.922  25.910   7.284
 2966POPC   NC341111  18.080  43.112   5.390
 2966POPC   PO441112  18.372  42.664   5.617
 2966POPC   GL141113  18.316  43.069   5.861
 2966POPC   GL241114  17.971  43.168   5.908
 2966POPC   C1A41115  18.307  43.321   6.271
 2966POPC   D2A41116  18.143  43.313   6.721
 2966POPC   C3A41117  18.387  43.270   7.120
 2966POPC   C4A41118  18.390  43.031   7.527
 2966POPC   C1B41119  17.949  42.963   6.343
 2966POPC   C2B41120  17.984  42.831   6.807
 2966POPC   C3B41121  17.947  43.009   7.247
 2966POPC   C4B41122  17.918  42.991   7.733
 2967POPC   NC341123  33.990  11.722   5.351
 2967POPC   PO441124  33.902  11.074   5.437
 2967POPC   GL141125  33.730  11.406   5.713
 2967POPC   GL241126  33.982  11.636   5.849
 2967POPC   C1A41127  33.557  11.473   6.133
 2967POPC   D2A41128  33.415  11.324   6.529
 2967POPC   C3A41129  33.663  11.457   6.900
 2967POPC   C4A41130  33.585  11.447   7.346
 2967POPC   C1B41131  34.130  11.538   6.241
 2967POPC   C2B41132  34.106  11.331   6.612
 2967POPC   C3B41133  34.283  11.318   6.988
 2967POPC   C4B41134  34.098  11.507   7.292
 2968POPC   NC341135  41.229   7.273   5.348
 2968POPC   PO441136  41.836   7.627   5.388
 2968POPC   GL141137  41.760   7.440   5.759
 2968POPC   GL241138  41.437   7.587   5.839
 2968POPC   C1A41139  41.823   7.228   6.170
 2968POPC   D2A41140  41.545   7.187   6.560
 2968POPC   C3A41141  41.571   7.357   6.976
 2968POPC   C4A41142  41.526   7.159   7.401
 2968POPC   C1B41143  41.759   7.730   6.169
 2968POPC   C2B41144  41.966   7.581   6.532
 2968POPC   C3B41145  42.005   7.647   6.940
 2968POPC   C4B41146  41.721   7.726   7.282
 2969POPC   NC341147  22.276  25.190   5.312
 2969POPC   PO441148  21.729  25.298   5.174
 2969POPC   GL141149  21.832  25.301   5.635
 2969POPC   GL241150  22.083  25.546   5.747
 2969POPC   C1A41151  21.886  25.224   6.113
 2969POPC   D2A41152  21.879  25.421   6.560
 2969POPC   C3A41153  22.052  25.353   7.018
 2969POPC   C4A41154  22.179  25.648   7.367
 2969POPC   C1B41155  22.273  25.566   6.204
 2969POPC   C2B41156  22.365  25.557   6.670
 2969POPC   C3B41157  22.580  25.439   7.072
 2969POPC   C4B41158  22.601  25.396   7.548
 2970POPC   NC341159   8.567  37.193   5.437
 2970POPC   PO441160   8.078  36.707   5.571
 2970POPC   GL141161   8.073  37.075   5.832
 2970POPC   GL241162   8.416  37.148   5.928
 2970POPC   C1A41163   8.069  37.187   6.285
 2970POPC   D2A41164   8.160  36.923   6.657
 2970POPC   C3A41165   8.230  37.138   7.039
 2970POPC   C4A41166   8.623  37.299   7.202
 2970POPC   C1B41167   8.339  36.726   6.193
 2970POPC   C2B41168   8.470  36.522   6.619
 2970POPC   C3B41169   8.433  36.652   7.088
 2970POPC   C4B41170   8.052  36.676   7.340
 2971POPC   NC341171  16.693  30.714   5.416
 2971POPC   PO441172  17.123  31.177   5.692
 2971POPC   GL141173  16.833  30.867   5.885
 2971POPC   GL241174  16.902  30.486   5.828
 2971POPC   C1A41175  16.571  30.687   6.218
 2971POPC   D2A41176  16.581  30.492   6.633
 2971POPC   C3A41177  16.814  30.719   6.939
 2971POPC   C4A41178  16.739  30.739   7.337
 2971POPC   C1B41179  16.934  30.316   6.262
 2971POPC   C2B41180  17.080  30.350   6.706
 2971POPC   C3B41181  16.941  30.289   7.171
 2971POPC   C4B41182  16.872  30.377   7.646
 2972POPC   NC341183  33.954   2.439   5.407
 2972POPC   PO441184  33.917   3.061   5.576
 2972POPC   GL141185  33.647   2.787   5.784
 2972POPC   GL241186  33.887   2.548   5.888
 2972POPC   C1A41187  33.549   2.659   6.218
 2972POPC   D2A41188  33.770   2.570   6.576
 2972POPC   C3A41189  33.585   2.720   6.947
 2972POPC   C4A41190  33.560   2.577   7.362
 2972POPC   C1B41191  34.042   2.837   6.210
 2972POPC   C2B41192  34.266   2.732   6.590
 2972POPC   C3B41193  34.113   2.559   6.973
 2972POPC   C4B41194  33.982   2.883   7.277
 2973POPC   NC341195  38.104  19.113   5.463
 2973POPC   PO441196  38.559  18.758   5.134
 2973POPC   GL141197  38.502  18.769   5.635
 2973POPC   GL241198  38.534  19.102   5.776
 2973POPC   C1A41199  38.437  18.773   6.149
 2973POPC   D2A41200  38.433  19.017   6.544
 2973POPC   C3A41201  38.250  18.930   6.942
 2973POPC   C4A41202  38.418  18.767   7.312
 2973POPC   C1B41203  38.340  19.335   6.132
 2973POPC   C2B41204  38.319  19.527   6.556
 2973POPC   C3B41205  38.187  19.463   6.990
 2973POPC   C4B41206  38.319  19.270   7.357
 2974POPC   NC341207   7.093  14.474   5.491
 2974POPC   PO441208   7.684  14.186   5.271
 2974POPC   GL141209   7.575  14.163   5.749
 2974POPC   GL241210   7.214  14.135   5.889
 2974POPC   C1A41211   7.622  14.112   6.208
 2974POPC   D2A41212   7.297  14.039   6.528
 2974POPC   C3A41213   7.208  14.242   6.907
 2974POPC   C4A41214   7.376  14.064   7.282
 2974POPC   C1B41215   7.175  14.462   6.242
 2974POPC   C2B41216   7.108  14.733   6.668
 2974POPC   C3B41217   7.005  14.677   7.116
 2974POPC   C4B41218   7.090  14.444   7.520
 2975POPC   NC341219  37.327  44.030   5.599
 2975POPC   PO441220  36.826  44.079   5.077
 2975POPC   GL141221  36.739  44.054   5.564
 2975POPC   GL241222  36.691  43.693   5.644
 2975POPC   C1A41223  36.840  44.159   6.034
 2975POPC   D2A41224  37.138  44.044   6.385
 2975POPC   C3A41225  36.958  44.061   6.818
 2975POPC   C4A41226  36.980  43.989   7.255
 2975POPC   C1B41227  36.908  43.660   6.061
 2975POPC   C2B41228  36.799  43.675   6.522
 2975POPC   C3B41229  36.827  43.578   6.987
 2975POPC   C4B41230  36.807  43.534   7.466
 2976POPC   NC341231   7.647   4.062   5.403
 2976POPC   PO441232   7.256   4.482   5.180
 2976POPC   GL141233   7.338   4.423   5.667
 2976POPC   GL241234   7.700   4.407   5.802
 2976POPC   C1A41235   7.299   4.317   6.142
 2976POPC   D2A41236   7.333   4.464   6.590
 2976POPC   C3A41237   7.308   4.226   6.972
 2976POPC   C4A41238   7.349   4.300   7.465
 2976POPC   C1B41239   7.811   4.186   6.212
 2976POPC   C2B41240   7.774   4.196   6.688
 2976POPC   C3B41241   7.767   4.156   7.137
 2976POPC   C4B41242   8.000   4.031   7.453
 2977POPC   NC341243   7.125  41.139   5.277
 2977POPC   PO441244   7.256  40.610   5.640
 2977POPC   GL141245   7.273  41.054   5.783
 2977POPC   GL241246   7.632  41.171   5.787
 2977POPC   C1A41247   7.280  41.150   6.224
 2977POPC   D2A41248   7.344  40.751   6.488
 2977POPC   C3A41249   7.342  40.768   6.910
 2977POPC   C4A41250   7.560  41.044   7.179
 2977POPC   C1B41251   7.660  40.828   6.097
 2977POPC   C2B41252   7.877  40.744   6.496
 2977POPC   C3B41253   7.894  40.683   6.939
 2977POPC   C4B41254   7.775  40.515   7.320
 2978POPC   NC341255  15.783   2.362   5.491
 2978POPC   PO441256  16.153   1.788   5.332
 2978POPC   GL141257  15.970   1.825   5.800
 2978POPC   GL241258  15.872   2.124   5.922
 2978POPC   C1A41259  15.950   1.816   6.312
 2978POPC   D2A41260  16.052   2.109   6.656
 2978POPC   C3A41261  16.018   2.014   7.110
 2978POPC   C4A41262  16.183   1.966   7.539
 2978POPC   C1B41263  15.605   2.361   6.173
 2978POPC   C2B41264  15.701   2.480   6.606
 2978POPC   C3B41265  15.575   2.266   6.982
 2978POPC   C4B41266  15.337   2.315   7.338
 2979POPC   NC341267  32.068   8.531   5.344
 2979POPC   PO441268  32.633   8.150   5.472
 2979POPC   GL141269  32.414   8.131   5.890
 2979POPC   GL241270  32.091   8.320   6.029
 2979POPC   C1A41271  32.306   7.929   6.295
 2979POPC   D2A41272  32.265   7.769   6.726
 2979POPC   C3A41273  32.165   8.059   7.078
 2979POPC   C4A41274  32.253   8.000   7.526
 2979POPC   C1B41275  32.432   8.437   6.281
 2979POPC   C2B41276  32.393   8.309   6.668
 2979POPC   C3B41277  32.435   8.590   6.978
 2979POPC   C4B41278  32.378   8.447   7.359
 2980POPC   NC341279  35.515   7.050   5.135
 2980POPC   PO441280  35.164   6.615   5.427
 2980POPC   GL141281  35.272   6.805   5.796
 2980POPC   GL241282  34.973   6.675   5.916
 2980POPC   C1A41283  35.527   6.926   6.170
 2980POPC   D2A41284  35.609   6.722   6.575
 2980POPC   C3A41285  35.474   6.924   6.956
 2980POPC   C4A41286  35.433   6.669   7.268
 2980POPC   C1B41287  35.122   6.638   6.323
 2980POPC   C2B41288  35.114   6.658   6.748
 2980POPC   C3B41289  34.952   6.620   7.159
 2980POPC   C4B41290  35.093   6.471   7.586
 2981POPC   NC341291  38.754  37.800   5.577
 2981POPC   PO441292  38.250  37.352   5.330
 2981POPC   GL141293  38.140  37.407   5.781
 2981POPC   GL241294  38.262  37.805   5.830
 2981POPC   C1A41295  38.157  37.371   6.271
 2981POPC   D2A41296  38.333  37.727   6.542
 2981POPC   C3A41297  38.542  37.702   6.954
 2981POPC   C4A41298  38.400  37.715   7.375
 2981POPC   C1B41299  38.562  38.037   6.170
 2981POPC   C2B41300  38.816  37.972   6.559
 2981POPC   C3B41301  38.939  38.023   7.006
 2981POPC   C4B41302  38.926  37.873   7.427
 2982POPC   NC341303   5.940   9.268   5.365
 2982POPC   PO441304   5.619   8.667   5.379
 2982POPC   GL141305   5.843   8.895   5.714
 2982POPC   GL241306   5.715   9.254   5.834
 2982POPC   C1A41307   5.933   8.785   6.134
 2982POPC   D2A41308   5.992   8.941   6.546
 2982POPC   C3A41309   5.843   8.808   6.905
 2982POPC   C4A41310   5.886   9.028   7.273
 2982POPC   C1B41311   6.088   9.269   6.104
 2982POPC   C2B41312   6.261   9.360   6.534
 2982POPC   C3B41313   6.069   9.390   6.933
 2982POPC   C4B41314   6.125   9.614   7.317
 2983POPC   NC341315  28.795  31.142   5.388
 2983POPC   PO441316  28.237  30.843   5.391
 2983POPC   GL141317  28.262  30.747   5.804
 2983POPC   GL241318  28.332  31.052   5.999
 2983POPC   C1A41319  28.454  30.538   6.123
 2983POPC   D2A41320  28.521  30.767   6.487
 2983POPC   C3A41321  28.427  30.503   6.846
 2983POPC   C4A41322  28.397  30.415   7.297
 2983POPC   C1B41323  28.678  31.268   6.223
 2983POPC   C2B41324  28.812  31.248   6.658
 2983POPC   C3B41325  28.525  31.027   6.937
 2983POPC   C4B41326  28.473  30.942   7.375
 2984POPC   NC341327   2.600  19.319   5.465
 2984POPC   PO441328   2.988  18.916   5.606
 2984POPC   GL141329   2.718  19.016   5.897
 2984POPC   GL241330   2.448  18.842   5.789
 2984POPC   C1A41331   2.744  19.179   6.304
 2984POPC   D2A41332   3.057  19.234   6.629
 2984POPC   C3A41333   2.927  19.315   7.060
 2984POPC   C4A41334   2.684  19.302   7.468
 2984POPC   C1B41335   2.478  18.734   6.240
 2984POPC   C2B41336   2.417  18.950   6.653
 2984POPC   C3B41337   2.552  18.950   7.099
 2984POPC   C4B41338   2.370  18.899   7.533
 2985POPC   NC341339   0.648  33.936   5.157
 2985POPC   PO441340   0.098  33.778   5.474
 2985POPC   GL141341   0.301  33.733   5.882
 2985POPC   GL241342   0.591  33.507   5.857
 2985POPC   C1A41343   0.219  33.913   6.298
 2985POPC   D2A41344   0.508  34.051   6.624
 2985POPC   C3A41345   0.378  33.972   7.063
 2985POPC   C4A41346   0.066  34.021   7.425
 2985POPC   C1B41347   0.613  33.573   6.335
 2985POPC   C2B41348   0.291  33.589   6.702
 2985POPC   C3B41349   0.032  33.604   7.098
 2985POPC   C4B41350   0.148  33.517   7.551
 2986POPC   NC341351  38.834  15.795   5.419
 2986POPC   PO441352  38.141  15.897   5.351
 2986POPC   GL141353  38.428  15.964   5.699
 2986POPC   GL241354  38.444  15.669   5.841
 2986POPC   C1A41355  38.435  16.173   6.086
 2986POPC   D2A41356  38.438  16.017   6.503
 2986POPC   C3A41357  38.120  16.071   6.822
 2986POPC   C4A41358  38.217  15.958   7.254
 2986POPC   C1B41359  38.759  15.776   6.132
 2986POPC   C2B41360  38.844  15.718   6.569
 2986POPC   C3B41361  38.711  15.948   6.942
 2986POPC   C4B41362  38.681  16.149   7.333
 2987POPC   NC341363   4.887   3.535   5.481
 2987POPC   PO441364   5.484   3.282   5.623
 2987POPC   GL141365   5.227   3.546   5.890
 2987POPC   GL241366   4.948   3.303   5.916
 2987POPC   C1A41367   5.208   3.824   6.277
 2987POPC   D2A41368   4.917   3.866   6.645
 2987POPC   C3A41369   5.027   3.871   7.076
 2987POPC   C4A41370   5.410   3.717   7.225
 2987POPC   C1B41371   5.012   3.335   6.335
 2987POPC   C2B41372   5.278   3.454   6.654
 2987POPC   C3B41373   5.071   3.353   7.002
 2987POPC   C4B41374   4.663   3.396   7.166
 2988POPC   NC341375  38.953  26.997   5.473
 2988POPC   PO441376  38.377  27.219   5.304
 2988POPC   GL141377  38.458  27.016   5.786
 2988POPC   GL241378  38.729  26.751   5.859
 2988POPC   C1A41379  38.287  26.755   6.135
 2988POPC   D2A41380  38.499  26.491   6.465
 2988POPC   C3A41381  38.385  26.553   6.910
 2988POPC   C4A41382  38.422  26.878   7.289
 2988POPC   C1B41383  38.741  26.957   6.259
 2988POPC   C2B41384  38.652  26.939   6.706
 2988POPC   C3B41385  38.858  26.726   7.072
 2988POPC   C4B41386  38.811  26.671   7.538
 2989POPC   NC341387   7.450   5.324   5.402
 2989POPC   PO441388   6.906   4.910   5.508
 2989POPC   GL141389   7.290   4.938   5.785
 2989POPC   GL241390   7.462   5.263   5.902
 2989POPC   C1A41391   7.382   4.840   6.231
 2989POPC   D2A41392   7.496   4.989   6.680
 2989POPC   C3A41393   7.373   4.742   7.060
 2989POPC   C4A41394   7.254   4.806   7.494
 2989POPC   C1B41395   7.345   5.338   6.335
 2989POPC   C2B41396   7.412   5.598   6.706
 2989POPC   C3B41397   7.530   5.518   7.137
 2989POPC   C4B41398   7.864   5.230   7.285
 2990POPC   NC341399  37.958   6.845   5.595
 2990POPC   PO441400  38.475   6.470   5.257
 2990POPC   GL141401  38.472   6.603   5.663
 2990POPC   GL241402  38.488   6.265   5.779
 2990POPC   C1A41403  38.473   6.683   6.108
 2990POPC   D2A41404  38.483   6.507   6.524
 2990POPC   C3A41405  38.527   6.762   6.902
 2990POPC   C4A41406  38.407   6.716   7.321
 2990POPC   C1B41407  38.737   6.213   6.149
 2990POPC   C2B41408  38.965   6.410   6.487
 2990POPC   C3B41409  38.920   6.430   6.937
 2990POPC   C4B41410  38.845   6.305   7.397
 2991POPC   NC341411   9.696   7.741   5.126
 2991POPC   PO441412   9.794   7.251   5.578
 2991POPC   GL141413   9.730   7.544   5.912
 2991POPC   GL241414   9.958   7.815   5.964
 2991POPC   C1A41415   9.569   7.697   6.306
 2991POPC   D2A41416   9.460   7.743   6.764
 2991POPC   C3A41417   9.695   7.485   7.078
 2991POPC   C4A41418   9.791   7.060   7.195
 2991POPC   C1B41419  10.102   7.577   6.310
 2991POPC   C2B41420  10.019   7.336   6.674
 2991POPC   C3B41421  10.215   7.301   7.046
 2991POPC   C4B41422  10.223   7.585   7.365
 2992POPC   NC341423   6.277   7.550   5.392
 2992POPC   PO441424   6.858   7.240   5.254
 2992POPC   GL141425   6.596   7.254   5.660
 2992POPC   GL241426   6.554   7.591   5.812
 2992POPC   C1A41427   6.539   7.114   6.103
 2992POPC   D2A41428   6.640   7.000   6.553
 2992POPC   C3A41429   6.800   7.285   6.904
 2992POPC   C4A41430   6.512   7.346   7.257
 2992POPC   C1B41431   6.775   7.589   6.186
 2992POPC   C2B41432   6.871   7.843   6.566
 2992POPC   C3B41433   6.650   7.881   6.968
 2992POPC   C4B41434   6.739   7.774   7.389
 2993POPC   NC341435  31.807  33.950   5.589
 2993POPC   PO441436  31.605  33.282   5.718
 2993POPC   GL141437  31.349  33.492   6.014
 2993POPC   GL241438  31.301  33.832   5.920
 2993POPC   C1A41439  31.484  33.517   6.457
 2993POPC   D2A41440  31.785  33.639   6.771
 2993POPC   C3A41441  31.671  33.962   7.086
 2993POPC   C4A41442  31.685  33.989   7.576
 2993POPC   C1B41443  31.326  33.990   6.350
 2993POPC   C2B41444  31.261  33.886   6.786
 2993POPC   C3B41445  31.205  34.158   7.113
 2993POPC   C4B41446  31.209  34.138   7.520
 2994POPC   NC341447  28.099  25.885   5.590
 2994POPC   PO441448  28.609  25.571   5.778
 2994POPC   GL141449  28.405  25.964   5.997
 2994POPC   GL241450  28.341  26.338   5.938
 2994POPC   C1A41451  28.103  26.117   6.313
 2994POPC   D2A41452  28.047  26.301   6.724
 2994POPC   C3A41453  28.222  26.023   7.007
 2994POPC   C4A41454  28.307  25.946   7.422
 2994POPC   C1B41455  28.300  26.585   6.345
 2994POPC   C2B41456  28.432  26.632   6.802
 2994POPC   C3B41457  28.652  26.364   7.124
 2994POPC   C4B41458  28.805  26.467   7.533
 2995POPC   NC341459   1.632  20.453   5.232
 2995POPC   PO441460   1.029  20.614   5.173
 2995POPC   GL141461   1.078  20.632   5.655
 2995POPC   GL241462   1.413  20.566   5.687
 2995POPC   C1A41463   1.120  20.796   6.102
 2995POPC   D2A41464   0.910  20.660   6.478
 2995POPC   C3A41465   1.057  20.810   6.884
 2995POPC   C4A41466   0.975  20.636   7.255
 2995POPC   C1B41467   1.412  20.367   6.117
 2995POPC   C2B41468   1.410  20.528   6.535
 2995POPC   C3B41469   1.367  20.431   6.969
 2995POPC   C4B41470   1.542  20.694   7.279
 2996POPC   NC341471  35.522  44.282   5.218
 2996POPC   PO441472  35.362  43.634   5.241
 2996POPC   GL141473  35.434  43.835   5.628
 2996POPC   GL241474  35.142  43.980   5.778
 2996POPC   C1A41475  35.499  43.724   6.071
 2996POPC   D2A41476  35.568  43.837   6.515
 2996POPC   C3A41477  35.499  43.525   6.841
 2996POPC   C4A41478  35.586  43.530   7.271
 2996POPC   C1B41479  35.057  43.934   6.200
 2996POPC   C2B41480  35.098  43.647   6.522
 2996POPC   C3B41481  34.978  43.573   6.957
 2996POPC   C4B41482  35.113  43.582   7.393
 2997POPC   NC341483  39.841  10.813   5.426
 2997POPC   PO441484  40.258  10.323   5.507
 2997POPC   GL141485  40.145  10.492   5.889
 2997POPC   GL241486  39.808  10.597   5.889
 2997POPC   C1A41487  40.197  10.667   6.317
 2997POPC   D2A41488  40.363  11.004   6.625
 2997POPC   C3A41489  40.040  10.981   6.951
 2997POPC   C4A41490  39.998  10.567   7.177
 2997POPC   C1B41491  39.811  10.291   6.252
 2997POPC   C2B41492  39.951  10.331   6.683
 2997POPC   C3B41493  39.754  10.130   7.046
 2997POPC   C4B41494  39.542  10.387   7.366
 2998POPC   NC341495  26.235  29.189   5.449
 2998POPC   PO441496  25.845  28.690   5.470
 2998POPC   GL141497  25.923  28.971   5.842
 2998POPC   GL241498  25.808  29.325   5.749
 2998POPC   C1A41499  26.111  28.938   6.279
 2998POPC   D2A41500  26.087  28.820   6.732
 2998POPC   C3A41501  26.269  29.002   7.069
 2998POPC   C4A41502  26.363  29.381   7.079
 2998POPC   C1B41503  25.935  29.439   6.157
 2998POPC   C2B41504  25.839  29.599   6.564
 2998POPC   C3B41505  25.878  29.387   6.951
 2998POPC   C4B41506  25.750  29.005   7.119
 2999POPC   NC341507  34.911  13.001   5.664
 2999POPC   PO441508  34.516  12.623   5.265
 2999POPC   GL141509  34.427  12.734   5.699
 2999POPC   GL241510  34.392  13.088   5.688
 2999POPC   C1A41511  34.528  12.824   6.146
 2999POPC   D2A41512  34.518  12.706   6.567
 2999POPC   C3A41513  34.743  12.933   6.860
 2999POPC   C4A41514  34.803  12.852   7.287
 2999POPC   C1B41515  34.166  13.173   6.065
 2999POPC   C2B41516  34.131  13.015   6.443
 2999POPC   C3B41517  34.154  13.030   6.831
 2999POPC   C4B41518  34.351  13.064   7.186
 3000POPC   NC341519  13.483  32.304   5.454
 3000POPC   PO441520  14.070  31.857   5.593
 3000POPC   GL141521  13.786  32.105   5.841
 3000POPC   GL241522  13.461  31.980   5.850
 3000POPC   C1A41523  13.931  32.413   6.186
 3000POPC   D2A41524  13.958  32.439   6.661
 3000POPC   C3A41525  13.743  32.101   6.905
 3000POPC   C4A41526  13.735  32.129   7.365
 3000POPC   C1B41527  13.421  32.411   6.093
 3000POPC   C2B41528  13.470  32.608   6.522
 3000POPC   C3B41529  13.482  32.536   6.994
 3000POPC   C4B41530  13.294  32.346   7.368
 3001POPC   NC341531  31.955  11.996   5.474
 3001POPC   PO441532  32.609  11.658   5.550
 3001POPC   GL141533  32.434  11.907   5.906
 3001POPC   GL241534  32.118  12.145   5.925
 3001POPC   C1A41535  32.496  12.221   6.232
 3001POPC   D2A41536  32.296  12.059   6.589
 3001POPC   C3A41537  32.400  12.128   7.002
 3001POPC   C4A41538  32.663  11.876   7.273
 3001POPC   C1B41539  31.980  11.753   6.122
 3001POPC   C2B41540  31.998  11.658   6.558
 3001POPC   C3B41541  31.924  11.872   6.965
 3001POPC   C4B41542  31.781  12.260   7.183
 3002POPC   NC341543  13.875  44.759   5.195
 3002POPC   PO441544  13.517  44.279   5.425
 3002POPC   GL141545  13.590  44.666   5.734
 3002POPC   GL241546  13.931  44.851   5.717
 3002POPC   C1A41547  13.427  44.856   6.162
 3002POPC   D2A41548  13.341  44.681   6.578
 3002POPC   C3A41549  13.441  44.850   6.991
 3002POPC   C4A41550  13.374  44.704   7.427
 3002POPC   C1B41551  13.911  44.753   6.163
 3002POPC   C2B41552  13.809  44.896   6.565
 3002POPC   C3B41553  13.939  44.760   6.956
 3002POPC   C4B41554  13.849  44.806   7.344
 3003POPC   NC341555  18.665  24.041   5.458
 3003POPC   PO441556  18.050  23.739   5.261
 3003POPC   GL141557  18.201  23.676   5.795
 3003POPC   GL241558  18.530  23.725   5.866
 3003POPC   C1A41559  18.034  23.541   6.260
 3003POPC   D2A41560  18.143  23.481   6.734
 3003POPC   C3A41561  17.861  23.696   7.030
 3003POPC   C4A41562  17.925  24.068   7.228
 3003POPC   C1B41563  18.547  23.919   6.273
 3003POPC   C2B41564  18.552  23.916   6.730
 3003POPC   C3B41565  18.430  24.184   7.069
 3003POPC   C4B41566  18.332  24.152   7.516
 3004POPC   NC341567  32.836  16.950   5.204
 3004POPC   PO441568  32.478  16.473   5.556
 3004POPC   GL141569  32.860  16.601   5.767
 3004POPC   GL241570  32.981  16.946   5.732
 3004POPC   C1A41571  33.075  16.683   6.166
 3004POPC   D2A41572  33.226  16.888   6.573
 3004POPC   C3A41573  33.165  16.686   6.982
 3004POPC   C4A41574  32.995  16.708   7.420
 3004POPC   C1B41575  33.031  17.170   6.169
 3004POPC   C2B41576  32.761  17.091   6.586
 3004POPC   C3B41577  32.758  17.015   7.068
 3004POPC   C4B41578  32.784  17.140   7.533
 3005POPC   NC341579  28.949   9.570   5.040
 3005POPC   PO441580  29.462   9.486   5.407
 3005POPC   GL141581  29.490   9.721   5.812
 3005POPC   GL241582  29.506  10.127   5.869
 3005POPC   C1A41583  29.284   9.547   6.202
 3005POPC   D2A41584  29.072   9.387   6.587
 3005POPC   C3A41585  29.068   9.590   6.993
 3005POPC   C4A41586  29.323   9.530   7.325
 3005POPC   C1B41587  29.615   9.929   6.266
 3005POPC   C2B41588  29.394   9.832   6.679
 3005POPC   C3B41589  29.355  10.013   7.124
 3005POPC   C4B41590  29.352   9.968   7.604
 3006POPC   NC341591  36.264  24.648   5.343
 3006POPC   PO441592  36.168  23.993   5.352
 3006POPC   GL141593  36.252  24.331   5.732
 3006POPC   GL241594  35.956  24.539   5.795
 3006POPC   C1A41595  36.381  24.657   6.074
 3006POPC   D2A41596  36.143  24.804   6.476
 3006POPC   C3A41597  35.974  24.592   6.872
 3006POPC   C4A41598  36.237  24.616   7.267
 3006POPC   C1B41599  36.044  24.312   6.221
 3006POPC   C2B41600  36.279  24.232   6.629
 3006POPC   C3B41601  36.082  24.124   7.042
 3006POPC   C4B41602  35.814  24.329   7.345
 3007POPC   NC341603   9.889  40.293   5.510
 3007POPC   PO441604   9.413  39.750   5.396
 3007POPC   GL141605   9.650  39.879   5.744
 3007POPC   GL241606   9.630  40.218   5.929
 3007POPC   C1A41607   9.676  39.777   6.167
 3007POPC   D2A41608   9.852  39.907   6.589
 3007POPC   C3A41609   9.683  39.813   6.990
 3007POPC   C4A41610   9.346  40.042   7.201
 3007POPC   C1B41611  10.002  40.247   6.227
 3007POPC   C2B41612  10.028  40.406   6.687
 3007POPC   C3B41613   9.803  40.340   7.096
 3007POPC   C4B41614   9.894  40.029   7.408
 3008POPC   NC341615  17.154   2.098   5.488
 3008POPC   PO441616  17.739   1.863   5.196
 3008POPC   GL141617  17.585   2.014   5.673
 3008POPC   GL241618  17.345   1.739   5.795
 3008POPC   C1A41619  17.543   2.082   6.126
 3008POPC   D2A41620  17.594   1.828   6.499
 3008POPC   C3A41621  17.550   2.000   6.914
 3008POPC   C4A41622  17.265   2.157   7.252
 3008POPC   C1B41623  17.167   1.713   6.221
 3008POPC   C2B41624  16.951   1.739   6.624
 3008POPC   C3B41625  17.113   1.732   7.026
 3008POPC   C4B41626  17.467   1.631   7.269
 3009POPC   NC341627   5.918  17.369   5.496
 3009POPC   PO441628   5.652  17.862   5.427
 3009POPC   GL141629   5.848  17.771   5.822
 3009POPC   GL241630   5.554  17.586   5.874
 3009POPC   C1A41631   5.964  17.597   6.243
 3009POPC   D2A41632   6.028  17.307   6.568
 3009POPC   C3A41633   6.025  17.553   6.944
 3009POPC   C4A41634   5.888  17.925   7.168
 3009POPC   C1B41635   5.531  17.845   6.247
 3009POPC   C2B41636   5.635  17.778   6.684
 3009POPC   C3B41637   5.420  17.790   7.053
 3009POPC   C4B41638   5.461  17.426   7.289
 3010POPC   NC341639   0.165  33.332   5.539
 3010POPC   PO441640   0.680  33.021   5.179
 3010POPC   GL141641   0.621  33.002   5.672
 3010POPC   GL241642   0.637  32.668   5.893
 3010POPC   C1A41643   0.564  33.086   6.144
 3010POPC   D2A41644   0.769  32.948   6.538
 3010POPC   C3A41645   0.597  33.212   6.871
 3010POPC   C4A41646   0.229  33.138   7.149
 3010POPC   C1B41647   0.376  32.623   6.320
 3010POPC   C2B41648   0.349  32.759   6.788
 3010POPC   C3B41649   0.646  32.807   7.163
 3010POPC   C4B41650   0.672  32.630   7.588
 3011POPC   NC341651  40.318  20.078   5.587
 3011POPC   PO441652  39.664  19.925   5.477
 3011POPC   GL141653  39.916  19.799   5.829
 3011POPC   GL241654  40.116  19.509   5.697
 3011POPC   C1A41655  40.019  19.981   6.262
 3011POPC   D2A41656  39.756  20.096   6.642
 3011POPC   C3A41657  39.619  19.757   6.950
 3011POPC   C4A41658  39.940  19.658   7.256
 3011POPC   C1B41659  40.242  19.513   6.140
 3011POPC   C2B41660  40.169  19.404   6.602
 3011POPC   C3B41661  40.326  19.375   7.053
 3011POPC   C4B41662  40.182  19.267   7.484
 3012POPC   NC341663  42.787  25.218   5.390
 3012POPC   PO441664  42.102  25.168   5.401
 3012POPC   GL141665  42.350  25.051   5.776
 3012POPC   GL241666  42.666  25.180   5.887
 3012POPC   C1A41667  42.297  25.238   6.215
 3012POPC   D2A41668  42.451  25.506   6.526
 3012POPC   C3A41669  42.344  25.284   6.876
 3012POPC   C4A41670  42.012  25.320   7.149
 3012POPC   C1B41671  42.571  24.806   6.174
 3012POPC   C2B41672  42.422  24.669   6.575
 3012POPC   C3B41673  42.597  24.771   6.992
 3012POPC   C4B41674  42.451  25.042   7.304
 3013POPC   NC341675  37.188  15.621   5.607
 3013POPC   PO441676  36.870  15.127   5.231
 3013POPC   GL141677  36.768  15.022   5.647
 3013POPC   GL241678  36.702  15.381   5.729
 3013POPC   C1A41679  36.741  14.934   6.103
 3013POPC   D2A41680  36.784  15.209   6.469
 3013POPC   C3A41681  37.053  15.120   6.813
 3013POPC   C4A41682  36.906  14.787   7.049
 3013POPC   C1B41683  36.749  15.620   6.137
 3013POPC   C2B41684  36.582  15.673   6.583
 3013POPC   C3B41685  36.787  15.539   6.975
 3013POPC   C4B41686  36.660  15.296   7.344
 3014POPC   NC341687   6.525   5.114   5.286
 3014POPC   PO441688   6.402   4.521   5.425
 3014POPC   GL141689   6.443   4.847   5.761
 3014POPC   GL241690   6.582   5.232   5.773
 3014POPC   C1A41691   6.634   4.947   6.172
 3014POPC   D2A41692   6.905   5.037   6.486
 3014POPC   C3A41693   6.632   4.993   6.845
 3014POPC   C4A41694   6.794   4.943   7.221
 3014POPC   C1B41695   6.859   5.417   6.117
 3014POPC   C2B41696   6.935   5.553   6.549
 3014POPC   C3B41697   7.089   5.263   6.920
 3014POPC   C4B41698   7.128   5.294   7.388
 3015POPC   NC341699  40.243  36.990   5.491
 3015POPC   PO441700  39.614  36.855   5.266
 3015POPC   GL141701  39.814  36.914   5.741
 3015POPC   GL241702  40.070  36.756   5.911
 3015POPC   C1A41703  39.727  37.055   6.195
 3015POPC   D2A41704  39.800  36.989   6.676
 3015POPC   C3A41705  40.139  37.121   6.991
 3015POPC   C4A41706  40.384  37.233   7.401
 3015POPC   C1B41707  39.958  36.627   6.329
 3015POPC   C2B41708  40.219  36.687   6.683
 3015POPC   C3B41709  40.288  36.589   7.085
 3015POPC   C4B41710  40.045  36.400   7.395
 3016POPC   NC341711  39.082  29.400   5.361
 3016POPC   PO441712  39.393  28.841   5.357
 3016POPC   GL141713  39.276  29.138   5.754
 3016POPC   GL241714  39.444  29.454   5.791
 3016POPC   C1A41715  39.140  29.267   6.195
 3016POPC   D2A41716  39.338  29.209   6.612
 3016POPC   C3A41717  39.175  29.137   7.050
 3016POPC   C4A41718  39.365  29.001   7.444
 3016POPC   C1B41719  39.662  29.273   6.177
 3016POPC   C2B41720  39.797  29.444   6.578
 3016POPC   C3B41721  39.579  29.508   6.958
 3016POPC   C4B41722  39.651  29.429   7.335
 3017POPC   NC341723  13.058  43.365   5.373
 3017POPC   PO441724  12.533  42.977   5.288
 3017POPC   GL141725  12.616  43.285   5.693
 3017POPC   GL241726  12.969  43.295   5.867
 3017POPC   C1A41727  12.601  43.465   6.161
 3017POPC   D2A41728  12.890  43.379   6.532
 3017POPC   C3A41729  12.870  43.245   6.966
 3017POPC   C4A41730  12.906  43.373   7.388
 3017POPC   C1B41731  12.969  42.989   6.217
 3017POPC   C2B41732  13.203  42.977   6.635
 3017POPC   C3B41733  13.214  42.856   7.081
 3017POPC   C4B41734  12.967  42.601   7.403
 3018POPC   NC341735  10.571   2.319   5.420
 3018POPC   PO441736  10.595   3.060   5.424
 3018POPC   GL141737  10.451   2.756   5.750
 3018POPC   GL241738  10.781   2.568   5.833
 3018POPC   C1A41739  10.264   2.929   6.144
 3018POPC   D2A41740  10.435   3.078   6.531
 3018POPC   C3A41741  10.179   3.093   6.913
 3018POPC   C4A41742  10.245   2.874   7.279
 3018POPC   C1B41743  10.802   2.913   6.110
 3018POPC   C2B41744  10.924   2.868   6.529
 3018POPC   C3B41745  10.737   2.771   6.905
 3018POPC   C4B41746  10.687   2.629   7.297
 3019POPC   NC341747  39.648  30.549   5.595
 3019POPC   PO441748  39.040  30.684   5.419
 3019POPC   GL141749  38.949  30.513   5.837
 3019POPC   GL241750  39.303  30.547   5.952
 3019POPC   C1A41751  38.975  30.612   6.310
 3019POPC   D2A41752  39.388  30.727   6.466
 3019POPC   C3A41753  39.429  31.013   6.801
 3019POPC   C4A41754  39.206  30.991   7.210
 3019POPC   C1B41755  39.319  30.239   6.290
 3019POPC   C2B41756  39.112  30.241   6.688
 3019POPC   C3B41757  39.267  30.554   6.939
 3019POPC   C4B41758  39.482  30.560   7.335
 3020POPC   NC341759   4.030  18.821   5.308
 3020POPC   PO441760   4.618  19.118   5.251
 3020POPC   GL141761   4.556  19.057   5.724
 3020POPC   GL241762   4.228  19.026   5.836
 3020POPC   C1A41763   4.644  19.012   6.164
 3020POPC   D2A41764   4.354  18.982   6.524
 3020POPC   C3A41765   4.486  19.034   6.949
 3020POPC   C4A41766   4.459  18.816   7.329
 3020POPC   C1B41767   4.267  19.380   6.162
 3020POPC   C2B41768   4.069  19.458   6.562
 3020POPC   C3B41769   3.985  19.212   6.894
 3020POPC   C4B41770   4.052  19.120   7.310
 3021POPC   NC341771  41.559  27.433   5.403
 3021POPC   PO441772  41.787  28.088   5.380
 3021POPC   GL141773  41.727  27.831   5.729
 3021POPC   GL241774  41.981  27.906   5.938
 3021POPC   C1A41775  41.621  27.532   6.082
 3021POPC   D2A41776  41.472  27.609   6.515
 3021POPC   C3A41777  41.585  27.341   6.880
 3021POPC   C4A41778  41.362  27.414   7.259
 3021POPC   C1B41779  41.891  27.882   6.360
 3021POPC   C2B41780  41.742  28.055   6.715
 3021POPC   C3B41781  41.573  27.843   7.035
 3021POPC   C4B41782  41.719  27.770   7.419
 3022POPC   NC341783   7.623   9.190   5.304
 3022POPC   PO441784   7.210   8.691   5.479
 3022POPC   GL141785   7.335   9.031   5.766
 3022POPC   GL241786   7.706   9.107   5.811
 3022POPC   C1A41787   7.156   9.113   6.190
 3022POPC   D2A41788   7.271   9.193   6.621
 3022POPC   C3A41789   7.268   8.827   6.864
 3022POPC   C4A41790   7.246   8.874   7.272
 3022POPC   C1B41791   7.633   9.237   6.247
 3022POPC   C2B41792   7.770   9.286   6.677
 3022POPC   C3B41793   7.714   9.081   7.044
 3022POPC   C4B41794   7.649   9.164   7.467
 3023POPC   NC341795  41.732  13.242   5.118
 3023POPC   PO441796  41.552  12.680   5.434
 3023POPC   GL141797  41.640  12.748   5.864
 3023POPC   GL241798  41.887  12.512   5.877
 3023POPC   C1A41799  41.527  12.996   6.245
 3023POPC   D2A41800  41.267  12.976   6.603
 3023POPC   C3A41801  41.485  13.091   6.971
 3023POPC   C4A41802  41.519  12.983   7.393
 3023POPC   C1B41803  41.940  12.694   6.292
 3023POPC   C2B41804  41.693  12.714   6.673
 3023POPC   C3B41805  41.855  12.754   7.079
 3023POPC   C4B41806  42.029  12.417   7.219
 3024POPC   NC341807  27.845  35.321   5.629
 3024POPC   PO441808  27.244  35.177   5.382
 3024POPC   GL141809  27.363  35.027   5.798
 3024POPC   GL241810  27.707  34.914   5.902
 3024POPC   C1A41811  27.485  35.211   6.231
 3024POPC   D2A41812  27.429  35.497   6.571
 3024POPC   C3A41813  27.347  35.356   6.986
 3024POPC   C4A41814  27.285  35.242   7.402
 3024POPC   C1B41815  27.986  35.097   6.245
 3024POPC   C2B41816  27.883  35.266   6.678
 3024POPC   C3B41817  27.832  35.307   7.142
 3024POPC   C4B41818  27.738  34.976   7.446
 3025POPC   NC341819  11.374  25.991   5.175
 3025POPC   PO441820  11.093  26.457   5.548
 3025POPC   GL141821  11.394  26.183   5.783
 3025POPC   GL241822  11.418  25.816   5.662
 3025POPC   C1A41823  11.322  26.136   6.240
 3025POPC   D2A41824  10.961  26.176   6.536
 3025POPC   C3A41825  11.008  25.964   6.927
 3025POPC   C4A41826  11.378  25.956   7.188
 3025POPC   C1B41827  11.273  25.641   6.047
 3025POPC   C2B41828  11.439  25.670   6.432
 3025POPC   C3B41829  11.322  25.566   6.843
 3025POPC   C4B41830  11.151  25.497   7.236
 3026POPC   NC341831  27.833   3.755   4.945
 3026POPC   PO441832  27.525   3.397   5.365
 3026POPC   GL141833  27.558   3.454   5.776
 3026POPC   GL241834  27.719   3.763   5.794
 3026POPC   C1A41835  27.285   3.518   6.118
 3026POPC   D2A41836  27.390   3.404   6.502
 3026POPC   C3A41837  27.509   3.648   6.798
 3026POPC   C4A41838  27.574   3.357   7.129
 3026POPC   C1B41839  27.721   3.847   6.250
 3026POPC   C2B41840  28.012   3.815   6.590
 3026POPC   C3B41841  27.971   3.722   7.030
 3026POPC   C4B41842  27.632   3.830   7.258
 3027POPC   NC341843  33.910  10.004   5.492
 3027POPC   PO441844  33.550   9.455   5.596
 3027POPC   GL141845  33.570   9.831   5.836
 3027POPC   GL241846  33.533   9.623   6.120
 3027POPC   C1A41847  33.808  10.054   6.161
 3027POPC   D2A41848  33.894   9.839   6.531
 3027POPC   C3A41849  34.021  10.012   6.926
 3027POPC   C4A41850  33.925   9.821   7.332
 3027POPC   C1B41851  33.964   9.469   6.142
 3027POPC   C2B41852  34.025   9.311   6.537
 3027POPC   C3B41853  33.944   9.488   6.939
 3027POPC   C4B41854  33.577   9.475   7.198
 3028POPC   NC341855   4.677  40.973   5.359
 3028POPC   PO441856   4.356  41.603   5.278
 3028POPC   GL141857   4.222  41.604   5.745
 3028POPC   GL241858   4.067  41.911   5.866
 3028POPC   C1A41859   4.319  41.639   6.229
 3028POPC   D2A41860   4.556  41.792   6.597
 3028POPC   C3A41861   4.605  41.598   7.008
 3028POPC   C4A41862   4.318  41.342   7.248
 3028POPC   C1B41863   3.958  41.992   6.296
 3028POPC   C2B41864   4.013  41.757   6.706
 3028POPC   C3B41865   4.145  41.795   7.147
 3028POPC   C4B41866   4.123  41.667   7.614
 3029POPC   NC341867  22.431  32.788   5.423
 3029POPC   PO441868  21.706  32.875   5.475
 3029POPC   GL141869  21.992  32.928   5.807
 3029POPC   GL241870  22.249  33.181   5.796
 3029POPC   C1A41871  22.025  32.935   6.246
 3029POPC   D2A41872  22.256  32.944   6.630
 3029POPC   C3A41873  22.035  32.894   7.036
 3029POPC   C4A41874  22.179  32.816   7.482
 3029POPC   C1B41875  22.132  33.436   6.188
 3029POPC   C2B41876  21.983  33.373   6.632
 3029POPC   C3B41877  22.162  33.395   7.040
 3029POPC   C4B41878  22.012  33.275   7.451
 3030POPC   NC341879  14.962   2.620   5.676
 3030POPC   PO441880  14.542   2.943   5.177
 3030POPC   GL141881  14.661   2.998   5.641
 3030POPC   GL241882  14.461   2.719   5.808
 3030POPC   C1A41883  14.737   2.928   6.193
 3030POPC   D2A41884  14.706   2.673   6.620
 3030POPC   C3A41885  14.572   2.799   7.078
 3030POPC   C4A41886  14.235   3.056   7.219
 3030POPC   C1B41887  14.283   2.680   6.267
 3030POPC   C2B41888  14.196   2.794   6.722
 3030POPC   C3B41889  14.038   2.601   7.119
 3030POPC   C4B41890  14.068   2.734   7.567
 3031POPC   NC341891   6.856   1.751   5.475
 3031POPC   PO441892   6.754   1.111   5.460
 3031POPC   GL141893   6.562   1.112   5.842
 3031POPC   GL241894   6.527   1.478   5.876
 3031POPC   C1A41895   6.649   0.877   6.209
 3031POPC   D2A41896   6.407   0.785   6.569
 3031POPC   C3A41897   6.412   1.026   6.925
 3031POPC   C4A41898   6.422   0.797   7.330
 3031POPC   C1B41899   6.410   1.657   6.279
 3031POPC   C2B41900   6.531   1.537   6.722
 3031POPC   C3B41901   6.427   1.551   7.160
 3031POPC   C4B41902   6.368   1.349   7.552
 3032POPC   NC341903   8.454  38.813   5.490
 3032POPC   PO441904   7.865  38.461   5.390
 3032POPC   GL141905   7.986  38.376   5.812
 3032POPC   GL241906   8.342  38.424   5.831
 3032POPC   C1A41907   8.080  38.250   6.252
 3032POPC   D2A41908   7.974  38.496   6.616
 3032POPC   C3A41909   8.035  38.357   7.046
 3032POPC   C4A41910   8.182  38.033   7.330
 3032POPC   C1B41911   8.399  38.634   6.224
 3032POPC   C2B41912   8.485  38.474   6.639
 3032POPC   C3B41913   8.376  38.714   6.975
 3032POPC   C4B41914   8.413  38.693   7.397
 3033POPC   NC341915   7.685   9.902   5.165
 3033POPC   PO441916   7.184   9.456   5.399
 3033POPC   GL141917   7.458   9.562   5.732
 3033POPC   GL241918   7.514   9.926   5.717
 3033POPC   C1A41919   7.342   9.680   6.164
 3033POPC   D2A41920   7.128   9.698   6.564
 3033POPC   C3A41921   7.462   9.690   6.822
 3033POPC   C4A41922   7.541   9.589   7.218
 3033POPC   C1B41923   7.334  10.212   6.052
 3033POPC   C2B41924   7.287  10.202   6.516
 3033POPC   C3B41925   7.162  10.085   6.952
 3033POPC   C4B41926   7.380  10.071   7.358
 3034POPC   NC341927  15.825   9.706   5.345
 3034POPC   PO441928  16.367  10.139   5.361
 3034POPC   GL141929  16.125   9.938   5.762
 3034POPC   GL241930  15.796   9.740   5.853
 3034POPC   C1A41931  16.192   9.655   6.166
 3034POPC   D2A41932  16.029   9.474   6.587
 3034POPC   C3A41933  16.092   9.656   7.027
 3034POPC   C4A41934  16.365   9.632   7.395
 3034POPC   C1B41935  15.739   9.817   6.319
 3034POPC   C2B41936  15.682   9.789   6.768
 3034POPC   C3B41937  15.432   9.655   7.093
 3034POPC   C4B41938  15.577   9.542   7.510
 3035POPC   NC341939  39.740  23.837   5.179
 3035POPC   PO441940  40.126  23.330   5.451
 3035POPC   GL141941  40.070  23.429   5.865
 3035POPC   GL241942  39.725  23.482   5.838
 3035POPC   C1A41943  40.079  23.665   6.260
 3035POPC   D2A41944  39.920  24.031   6.497
 3035POPC   C3A41945  39.801  23.938   6.915
 3035POPC   C4A41946  40.102  23.958   7.213
 3035POPC   C1B41947  39.705  23.291   6.273
 3035POPC   C2B41948  39.816  23.464   6.683
 3035POPC   C3B41949  39.939  23.486   7.091
 3035POPC   C4B41950  39.903  23.572   7.525
 3036POPC   NC341951  39.587   3.517   5.553
 3036POPC   PO441952  40.135   3.218   5.160
 3036POPC   GL141953  40.143   3.428   5.597
 3036POPC   GL241954  40.386   3.676   5.680
 3036POPC   C1A41955  40.014   3.452   6.081
 3036POPC   D2A41956  39.867   3.293   6.526
 3036POPC   C3A41957  39.919   3.541   6.929
 3036POPC   C4A41958  39.891   3.695   7.363
 3036POPC   C1B41959  40.460   3.709   6.137
 3036POPC   C2B41960  40.267   3.632   6.552
 3036POPC   C3B41961  40.408   3.628   7.012
 3036POPC   C4B41962  40.375   3.648   7.498
 3037POPC   NC341963  30.235  30.732   5.494
 3037POPC   PO441964  30.907  30.566   5.460
 3037POPC   GL141965  30.922  30.707   5.887
 3037POPC   GL241966  30.606  30.740   5.880
 3037POPC   C1A41967  30.817  30.855   6.330
 3037POPC   D2A41968  30.909  30.630   6.681
 3037POPC   C3A41969  30.771  30.749   7.039
 3037POPC   C4A41970  30.709  30.805   7.454
 3037POPC   C1B41971  30.422  30.574   6.215
 3037POPC   C2B41972  30.438  30.409   6.636
 3037POPC   C3B41973  30.336  30.509   7.051
 3037POPC   C4B41974  30.424  30.345   7.411
 3038POPC   NC341975   0.296  29.993   5.396
 3038POPC   PO441976   0.825  29.843   5.719
 3038POPC   GL141977   0.416  29.990   5.877
 3038POPC   GL241978   0.080  29.800   5.825
 3038POPC   C1A41979   0.416  29.958   6.254
 3038POPC   D2A41980   0.695  29.821   6.512
 3038POPC   C3A41981   0.759  30.078   6.851
 3038POPC   C4A41982   0.842  29.863   7.211
 3038POPC   C1B41983   0.051  29.613   6.234
 3038POPC   C2B41984   0.180  29.789   6.661
 3038POPC   C3B41985   0.313  29.901   7.067
 3038POPC   C4B41986   0.434  29.664   7.440
 3039POPC   NC341987  13.867  35.282   5.411
 3039POPC   PO441988  13.424  35.778   5.651
 3039POPC   GL141989  13.652  35.432   5.842
 3039POPC   GL241990  13.482  35.122   5.758
 3039POPC   C1A41991  13.824  35.242   6.196
 3039POPC   D2A41992  13.617  35.317   6.592
 3039POPC   C3A41993  13.792  35.235   6.972
 3039POPC   C4A41994  13.656  35.398   7.397
 3039POPC   C1B41995  13.316  35.099   6.193
 3039POPC   C2B41996  13.162  35.089   6.628
 3039POPC   C3B41997  13.291  35.247   7.048
 3039POPC   C4B41998  13.373  34.983   7.402
 3040POPC   NC341999  19.574  27.873   5.593
 3040POPC   PO442000  20.066  27.500   5.294
 3040POPC   GL142001  19.938  27.554   5.737
 3040POPC   GL242002  19.576  27.440   5.830
 3040POPC   C1A42003  19.984  27.781   6.130
 3040POPC   D2A42004  20.145  27.703   6.540
 3040POPC   C3A42005  19.837  27.483   6.774
 3040POPC   C4A42006  19.763  27.538   7.209
 3040POPC   C1B42007  19.519  27.604   6.258
 3040POPC   C2B42008  19.639  27.964   6.510
 3040POPC   C3B42009  19.779  27.996   6.925
 3040POPC   C4B42010  19.538  28.007   7.289
 3041POPC   NC342011  42.552  35.753   5.181
 3041POPC   PO442012  42.277  36.203   5.380
 3041POPC   GL142013  42.226  36.095   5.851
 3041POPC   GL242014  42.467  35.873   6.031
 3041POPC   C1A42015  42.129  36.176   6.323
 3041POPC   D2A42016  42.060  36.355   6.773
 3041POPC   C3A42017  42.200  36.092   7.121
 3041POPC   C4A42018  42.095  35.791   7.434
 3041POPC   C1B42019  42.634  36.119   6.415
 3041POPC   C2B42020  42.576  36.374   6.823
 3041POPC   C3B42021  42.674  36.216   7.238
 3041POPC   C4B42022  42.614  35.802   7.411
 3042POPC   NC342023  36.562  32.288   5.390
 3042POPC   PO442024  37.190  32.092   5.295
 3042POPC   GL142025  37.046  32.122   5.720
 3042POPC   GL242026  36.932  32.460   5.711
 3042POPC   C1A42027  37.089  32.090   6.191
 3042POPC   D2A42028  36.827  32.133   6.576
 3042POPC   C3A42029  37.012  32.228   6.967
 3042POPC   C4A42030  36.791  32.075   7.335
 3042POPC   C1B42031  37.069  32.594   6.110
 3042POPC   C2B42032  37.055  32.604   6.549
 3042POPC   C3B42033  36.703  32.634   6.822
 3042POPC   C4B42034  36.751  32.569   7.255
 3043POPC   NC342035  27.292   6.280   5.119
 3043POPC   PO442036  27.812   5.961   5.425
 3043POPC   GL142037  27.615   5.877   5.864
 3043POPC   GL242038  27.389   5.568   5.923
 3043POPC   C1A42039  27.596   5.830   6.331
 3043POPC   D2A42040  27.848   5.686   6.660
 3043POPC   C3A42041  27.758   5.956   6.968
 3043POPC   C4A42042  27.534   5.918   7.317
 3043POPC   C1B42043  27.112   5.746   6.205
 3043POPC   C2B42044  27.190   5.676   6.640
 3043POPC   C3B42045  27.401   5.528   6.988
 3043POPC   C4B42046  27.386   5.450   7.421
 3044POPC   NC342047  11.164  11.363   5.311
 3044POPC   PO442048  11.785  11.187   5.138
 3044POPC   GL142049  11.597  11.381   5.610
 3044POPC   GL242050  11.248  11.379   5.800
 3044POPC   C1A42051  11.642  11.259   6.089
 3044POPC   D2A42052  11.543  11.087   6.496
 3044POPC   C3A42053  11.348  11.320   6.840
 3044POPC   C4A42054  11.573  11.262   7.224
 3044POPC   C1B42055  11.119  11.337   6.235
 3044POPC   C2B42056  10.876  11.434   6.582
 3044POPC   C3B42057  10.816  11.234   6.938
 3044POPC   C4B42058  11.084  11.144   7.279
 3045POPC   NC342059   6.111  19.813   5.343
 3045POPC   PO442060   5.475  19.623   5.168
 3045POPC   GL142061   5.640  19.739   5.636
 3045POPC   GL242062   5.882  20.032   5.752
 3045POPC   C1A42063   5.660  19.698   6.111
 3045POPC   D2A42064   5.982  19.548   6.415
 3045POPC   C3A42065   5.927  19.610   6.894
 3045POPC   C4A42066   5.700  19.871   7.215
 3045POPC   C1B42067   6.040  20.038   6.187
 3045POPC   C2B42068   5.930  20.050   6.595
 3045POPC   C3B42069   6.181  20.073   6.977
 3045POPC   C4B42070   6.166  20.046   7.388
 3046POPC   NC342071  39.501   9.707   5.031
 3046POPC   PO442072  39.022   9.607   5.460
 3046POPC   GL142073  39.367   9.777   5.711
 3046POPC   GL242074  39.102   9.880   5.909
 3046POPC   C1A42075  39.552   9.787   6.157
 3046POPC   D2A42076  39.464   9.546   6.561
 3046POPC   C3A42077  39.430   9.699   6.998
 3046POPC   C4A42078  39.286   9.467   7.409
 3046POPC   C1B42079  39.161  10.089   6.284
 3046POPC   C2B42080  39.444  10.103   6.614
 3046POPC   C3B42081  39.246  10.206   6.986
 3046POPC   C4B42082  39.012   9.937   7.206
 3047POPC   NC342083   6.626  33.282   5.215
 3047POPC   PO442084   6.393  32.676   5.300
 3047POPC   GL142085   6.556  32.995   5.677
 3047POPC   GL242086   6.343  33.323   5.673
 3047POPC   C1A42087   6.684  32.953   6.176
 3047POPC   D2A42088   6.753  33.111   6.618
 3047POPC   C3A42089   6.702  32.819   7.006
 3047POPC   C4A42090   6.742  32.816   7.436
 3047POPC   C1B42091   6.243  33.177   6.072
 3047POPC   C2B42092   6.208  33.133   6.502
 3047POPC   C3B42093   6.334  33.141   6.931
 3047POPC   C4B42094   6.290  33.078   7.395
 3048POPC   NC342095   7.438   0.146   5.611
 3048POPC   PO442096   7.176  44.522   5.437
 3048POPC   GL142097   7.487  44.636   5.761
 3048POPC   GL242098   7.814  44.438   5.700
 3048POPC   C1A42099   7.417  44.789   6.208
 3048POPC   D2A42100   7.323  44.593   6.636
 3048POPC   C3A42101   7.337  44.818   7.037
 3048POPC   C4A42102   7.506  44.467   7.242
 3048POPC   C1B42103   7.911  44.649   6.054
 3048POPC   C2B42104   7.794  44.532   6.448
 3048POPC   C3B42105   7.788  44.702   6.869
 3048POPC   C4B42106   7.881  44.792   7.296
 3049POPC   NC342107  20.508   0.310   5.624
 3049POPC   PO442108  20.532   0.960   5.686
 3049POPC   GL142109  20.513   0.679   6.007
 3049POPC   GL242110  20.220   0.479   6.013
 3049POPC   C1A42111  20.495   0.641   6.435
 3049POPC   D2A42112  20.774   0.817   6.733
 3049POPC   C3A42113  20.793   0.502   7.055
 3049POPC   C4A42114  20.744   0.498   7.491
 3049POPC   C1B42115  20.373   0.104   6.231
 3049POPC   C2B42116  20.579   0.106   6.634
 3049POPC   C3B42117  20.355   0.024   6.988
 3049POPC   C4B42118  20.261   0.318   7.296
 3050POPC   NC342119  31.291  17.363   5.464
 3050POPC   PO442120  31.896  17.598   5.332
 3050POPC   GL142121  31.677  17.649   5.733
 3050POPC   GL242122  31.338  17.651   5.906
 3050POPC   C1A42123  31.710  17.423   6.114
 3050POPC   D2A42124  31.484  17.530   6.484
 3050POPC   C3A42125  31.719  17.491   6.882
 3050POPC   C4A42126  31.556  17.545   7.261
 3050POPC   C1B42127  31.222  17.247   6.115
 3050POPC   C2B42128  31.187  17.096   6.500
 3050POPC   C3B42129  31.270  17.261   6.889
 3050POPC   C4B42130  31.112  17.209   7.265
 3051POPC   NC342131  30.082   3.775   5.279
 3051POPC   PO442132  29.745   3.195   5.412
 3051POPC   GL142133  29.993   3.341   5.754
 3051POPC   GL242134  29.878   3.678   5.742
 3051POPC   C1A42135  30.187   3.241   6.167
 3051POPC   D2A42136  30.246   3.473   6.567
 3051POPC   C3A42137  29.941   3.552   6.862
 3051POPC   C4A42138  29.721   3.557   7.221
 3051POPC   C1B42139  30.005   3.720   6.167
 3051POPC   C2B42140  29.790   3.901   6.530
 3051POPC   C3B42141  29.737   4.038   6.958
 3051POPC   C4B42142  30.086   3.905   7.207
 3052POPC   NC342143  41.390   4.101   5.661
 3052POPC   PO442144  40.666   4.115   5.492
 3052POPC   GL142145  40.904   4.159   5.832
 3052POPC   GL242146  40.986   4.519   5.843
 3052POPC   C1A42147  40.772   4.144   6.233
 3052POPC   D2A42148  40.418   4.122   6.503
 3052POPC   C3A42149  40.627   4.122   6.893
 3052POPC   C4A42150  40.666   4.335   7.285
 3052POPC   C1B42151  41.194   4.471   6.221
 3052POPC   C2B42152  41.056   4.335   6.630
 3052POPC   C3B42153  40.839   4.638   6.895
 3052POPC   C4B42154  41.012   4.752   7.290
 3053POPC   NC342155  24.770   0.841   5.429
 3053POPC   PO442156  24.432   1.470   5.358
 3053POPC   GL142157  24.368   1.122   5.680
 3053POPC   GL242158  24.679   1.168   5.868
 3053POPC   C1A42159  24.350   0.860   6.095
 3053POPC   D2A42160  24.397   1.117   6.476
 3053POPC   C3A42161  24.296   1.056   6.882
 3053POPC   C4A42162  24.542   1.123   7.222
 3053POPC   C1B42163  24.788   1.388   6.287
 3053POPC   C2B42164  24.815   1.300   6.759
 3053POPC   C3B42165  24.847   1.522   7.176
 3053POPC   C4B42166  24.628   1.524   7.595
 3054POPC   NC342167  22.696   7.934   5.081
 3054POPC   PO442168  22.975   8.385   5.528
 3054POPC   GL142169  22.873   8.198   5.975
 3054POPC   GL242170  22.635   7.885   5.999
 3054POPC   C1A42171  23.057   8.126   6.406
 3054POPC   D2A42172  23.273   8.237   6.771
 3054POPC   C3A42173  23.040   8.307   7.137
 3054POPC   C4A42174  23.056   8.148   7.539
 3054POPC   C1B42175  22.564   8.093   6.374
 3054POPC   C2B42176  22.676   8.166   6.760
 3054POPC   C3B42177  22.423   8.371   7.027
 3054POPC   C4B42178  22.595   8.387   7.390
 3055POPC   NC342179   4.492  38.737   5.273
 3055POPC   PO442180   3.963  38.399   5.497
 3055POPC   GL142181   4.217  38.476   5.849
 3055POPC   GL242182   4.573  38.457   5.758
 3055POPC   C1A42183   4.083  38.390   6.275
 3055POPC   D2A42184   3.831  38.372   6.671
 3055POPC   C3A42185   4.001  38.338   7.106
 3055POPC   C4A42186   4.174  38.441   7.556
 3055POPC   C1B42187   4.566  38.283   6.200
 3055POPC   C2B42188   4.611  38.475   6.608
 3055POPC   C3B42189   4.494  38.393   7.012
 3055POPC   C4B42190   4.654  38.348   7.404
 3056POPC   NC342191  41.396   2.425   5.347
 3056POPC   PO442192  41.617   1.835   5.415
 3056POPC   GL142193  41.433   2.001   5.784
 3056POPC   GL242194  41.601   2.357   5.808
 3056POPC   C1A42195  41.468   1.761   6.180
 3056POPC   D2A42196  41.786   1.737   6.500
 3056POPC   C3A42197  41.580   1.790   6.882
 3056POPC   C4A42198  41.578   2.041   7.248
 3056POPC   C1B42199  41.653   2.231   6.221
 3056POPC   C2B42200  41.431   2.212   6.604
 3056POPC   C3B42201  41.429   2.474   6.978
 3056POPC   C4B42202  41.345   2.480   7.417
 3057POPC   NC342203  30.221   2.975   5.433
 3057POPC   PO442204  29.871   2.411   5.271
 3057POPC   GL142205  29.894   2.667   5.671
 3057POPC   GL242206  30.195   2.469   5.753
 3057POPC   C1A42207  29.788   2.920   6.087
 3057POPC   D2A42208  29.816   3.176   6.526
 3057POPC   C3A42209  29.801   3.085   7.000
 3057POPC   C4A42210  29.774   2.729   7.277
 3057POPC   C1B42211  30.249   2.684   6.124
 3057POPC   C2B42212  30.029   2.702   6.513
 3057POPC   C3B42213  30.175   2.752   6.918
 3057POPC   C4B42214  30.294   2.645   7.314
 3058POPC   NC342215  41.785  12.246   5.426
 3058POPC   PO442216  41.140  12.008   5.502
 3058POPC   GL142217  41.422  11.874   5.786
 3058POPC   GL242218  41.448  12.244   5.849
 3058POPC   C1A42219  41.570  11.885   6.214
 3058POPC   D2A42220  41.306  12.023   6.570
 3058POPC   C3A42221  41.424  11.845   6.952
 3058POPC   C4A42222  41.799  11.609   7.070
 3058POPC   C1B42223  41.550  12.386   6.268
 3058POPC   C2B42224  41.778  12.223   6.641
 3058POPC   C3B42225  41.575  12.326   7.022
 3058POPC   C4B42226  41.678  12.057   7.347
 3059POPC   NC342227   5.636  15.183   5.570
 3059POPC   PO442228   6.327  15.308   5.401
 3059POPC   GL142229   6.075  15.380   5.808
 3059POPC   GL242230   5.981  15.035   5.912
 3059POPC   C1A42231   5.981  15.412   6.279
 3059POPC   D2A42232   5.673  15.539   6.631
 3059POPC   C3A42233   5.881  15.557   7.010
 3059POPC   C4A42234   6.007  15.453   7.441
 3059POPC   C1B42235   5.946  14.901   6.340
 3059POPC   C2B42236   6.011  15.133   6.713
 3059POPC   C3B42237   5.984  15.018   7.123
 3059POPC   C4B42238   5.622  14.737   7.286
 3060POPC   NC342239  21.116   6.821   5.354
 3060POPC   PO442240  21.491   6.120   5.363
 3060POPC   GL142241  21.370   6.364   5.709
 3060POPC   GL242242  21.450   6.699   5.765
 3060POPC   C1A42243  21.202   6.400   6.128
 3060POPC   D2A42244  21.116   6.627   6.521
 3060POPC   C3A42245  21.327   6.532   6.888
 3060POPC   C4A42246  21.329   6.667   7.288
 3060POPC   C1B42247  21.722   6.950   6.066
 3060POPC   C2B42248  21.672   7.127   6.482
 3060POPC   C3B42249  21.590   7.000   6.907
 3060POPC   C4B42250  21.637   7.179   7.320
 3061POPC   NC342251  19.088  33.210   5.243
 3061POPC   PO442252  19.133  32.574   5.549
 3061POPC   GL142253  19.145  32.990   5.725
 3061POPC   GL242254  18.862  33.223   5.728
 3061POPC   C1A42255  19.178  33.222   6.124
 3061POPC   D2A42256  19.050  33.098   6.538
 3061POPC   C3A42257  19.270  33.258   6.902
 3061POPC   C4A42258  19.241  33.138   7.323
 3061POPC   C1B42259  18.637  33.182   6.164
 3061POPC   C2B42260  18.549  33.059   6.621
 3061POPC   C3B42261  18.796  33.056   7.047
 3061POPC   C4B42262  18.711  33.211   7.514
 3062POPC   NC342263  12.136  15.098   5.415
 3062POPC   PO442264  12.030  15.724   5.607
 3062POPC   GL142265  12.213  15.351   5.909
 3062POPC   GL242266  12.173  14.957   5.886
 3062POPC   C1A42267  12.146  15.174   6.358
 3062POPC   D2A42268  11.846  15.314   6.699
 3062POPC   C3A42269  12.086  15.232   7.060
 3062POPC   C4A42270  12.390  15.254   7.332
 3062POPC   C1B42271  12.210  14.639   6.182
 3062POPC   C2B42272  12.291  14.682   6.602
 3062POPC   C3B42273  12.303  14.683   7.022
 3062POPC   C4B42274  12.116  14.798   7.334
 3063POPC   NC342275  31.427   9.807   5.033
 3063POPC   PO442276  31.691   9.610   5.587
 3063POPC   GL142277  31.377   9.690   5.860
 3063POPC   GL242278  31.243  10.018   5.849
 3063POPC   C1A42279  31.420   9.786   6.280
 3063POPC   D2A42280  31.331   9.510   6.613
 3063POPC   C3A42281  31.447   9.701   6.993
 3063POPC   C4A42282  31.386   9.465   7.332
 3063POPC   C1B42283  30.984  10.067   6.182
 3063POPC   C2B42284  31.057   9.936   6.599
 3063POPC   C3B42285  30.972  10.087   6.974
 3063POPC   C4B42286  31.073   9.899   7.314
 3064POPC   NC342287  22.537  27.009   5.108
 3064POPC   PO442288  22.229  26.507   5.397
 3064POPC   GL142289  22.145  26.679   5.820
 3064POPC   GL242290  22.013  27.006   5.817
 3064POPC   C1A42291  22.203  26.700   6.277
 3064POPC   D2A42292  22.271  26.436   6.651
 3064POPC   C3A42293  22.152  26.482   7.076
 3064POPC   C4A42294  22.201  26.505   7.527
 3064POPC   C1B42295  21.900  27.229   6.197
 3064POPC   C2B42296  22.071  27.159   6.564
 3064POPC   C3B42297  22.176  26.986   6.931
 3064POPC   C4B42298  22.202  26.991   7.348
 3065POPC   NC342299  24.356  41.967   5.276
 3065POPC   PO442300  24.504  41.390   5.410
 3065POPC   GL142301  24.473  41.610   5.797
 3065POPC   GL242302  24.709  41.845   5.682
 3065POPC   C1A42303  24.362  41.590   6.260
 3065POPC   D2A42304  24.197  41.716   6.693
 3065POPC   C3A42305  24.365  41.533   7.092
 3065POPC   C4A42306  24.330  41.400   7.540
 3065POPC   C1B42307  24.798  41.904   6.129
 3065POPC   C2B42308  24.610  41.960   6.521
 3065POPC   C3B42309  24.700  41.904   6.950
 3065POPC   C4B42310  24.700  42.237   7.242
 3066POPC   NC342311  19.888  14.517   5.389
 3066POPC   PO442312  19.789  13.916   5.332
 3066POPC   GL142313  19.865  14.190   5.789
 3066POPC   GL242314  20.012  14.514   5.911
 3066POPC   C1A42315  19.853  14.150   6.284
 3066POPC   D2A42316  19.997  14.269   6.721
 3066POPC   C3A42317  19.676  14.209   7.024
 3066POPC   C4A42318  19.486  13.850   7.224
 3066POPC   C1B42319  19.716  14.651   6.244
 3066POPC   C2B42320  19.673  14.672   6.706
 3066POPC   C3B42321  19.893  14.669   7.114
 3066POPC   C4B42322  19.946  14.662   7.596
 3067POPC   NC342323  14.178   9.265   5.370
 3067POPC   PO442324  14.792   8.911   5.538
 3067POPC   GL142325  14.469   9.115   5.761
 3067POPC   GL242326  14.159   8.938   5.753
 3067POPC   C1A42327  14.298   9.203   6.172
 3067POPC   D2A42328  14.614   9.327   6.483
 3067POPC   C3A42329  14.643   9.143   6.867
 3067POPC   C4A42330  14.263   9.003   7.077
 3067POPC   C1B42331  14.374   8.706   6.089
 3067POPC   C2B42332  14.327   8.815   6.532
 3067POPC   C3B42333  14.557   8.639   6.840
 3067POPC   C4B42334  14.491   8.546   7.223
 3068POPC   NC342335  35.322   9.057   4.953
 3068POPC   PO442336  35.555   8.720   5.518
 3068POPC   GL142337  35.527   9.092   5.793
 3068POPC   GL242338  35.229   9.029   5.884
 3068POPC   C1A42339  35.463   9.244   6.263
 3068POPC   D2A42340  35.600   9.187   6.689
 3068POPC   C3A42341  35.339   9.154   7.048
 3068POPC   C4A42342  35.541   9.162   7.472
 3068POPC   C1B42343  35.331   8.715   6.186
 3068POPC   C2B42344  35.255   8.796   6.618
 3068POPC   C3B42345  35.241   8.643   7.030
 3068POPC   C4B42346  35.291   8.740   7.453
 3069POPC   NC342347  32.597   2.842   5.402
 3069POPC   PO442348  32.044   3.128   5.661
 3069POPC   GL142349  32.371   2.957   5.888
 3069POPC   GL242350  32.353   2.634   5.925
 3069POPC   C1A42351  32.305   2.912   6.340
 3069POPC   D2A42352  32.150   2.998   6.720
 3069POPC   C3A42353  32.313   2.834   7.040
 3069POPC   C4A42354  32.003   2.854   7.311
 3069POPC   C1B42355  32.076   2.442   6.243
 3069POPC   C2B42356  32.165   2.494   6.667
 3069POPC   C3B42357  32.013   2.400   7.073
 3069POPC   C4B42358  32.290   2.418   7.409
 3070POPC   NC342359  14.422  29.723   5.308
 3070POPC   PO442360  14.069  30.332   5.331
 3070POPC   GL142361  14.162  30.145   5.754
 3070POPC   GL242362  14.447  29.893   5.777
 3070POPC   C1A42363  14.375  30.202   6.160
 3070POPC   D2A42364  14.388  29.990   6.528
 3070POPC   C3A42365  14.445  30.229   6.885
 3070POPC   C4A42366  14.416  30.063   7.296
 3070POPC   C1B42367  14.416  29.507   6.039
 3070POPC   C2B42368  14.382  29.462   6.510
 3070POPC   C3B42369  14.425  29.670   6.933
 3070POPC   C4B42370  14.432  29.522   7.343
 3071POPC   NC342371  19.153  24.933   5.206
 3071POPC   PO442372  18.942  25.571   5.301
 3071POPC   GL142373  19.004  25.281   5.605
 3071POPC   GL242374  19.345  25.301   5.540
 3071POPC   C1A42375  18.864  25.185   6.052
 3071POPC   D2A42376  18.829  25.351   6.478
 3071POPC   C3A42377  19.040  25.310   6.891
 3071POPC   C4A42378  18.944  25.006   7.202
 3071POPC   C1B42379  19.338  25.395   6.004
 3071POPC   C2B42380  19.364  25.490   6.449
 3071POPC   C3B42381  19.538  25.402   6.872
 3071POPC   C4B42382  19.489  25.024   7.134
 3072POPC   NC342383  44.846  32.132   5.364
 3072POPC   PO442384  44.308  32.381   5.439
 3072POPC   GL142385  44.494  32.101   5.769
 3072POPC   GL242386  44.818  31.999   5.880
 3072POPC   C1A42387  44.357  32.052   6.177
 3072POPC   D2A42388  44.366  32.299   6.528
 3072POPC   C3A42389  44.658  32.124   6.778
 3072POPC   C4A42390  44.614  32.135   7.222
 3072POPC   C1B42391  44.799  32.338   6.206
 3072POPC   C2B42392  44.846  32.592   6.596
 3072POPC   C3B42393  44.916  32.479   7.022
 3072POPC   C4B42394   0.087  31.987   7.070
 3073POPC   NC342395  41.835  17.954   5.626
 3073POPC   PO442396  41.432  18.391   5.356
 3073POPC   GL142397  41.401  18.249   5.765
 3073POPC   GL242398  41.065  18.103   5.789
 3073POPC   C1A42399  41.589  18.264   6.163
 3073POPC   D2A42400  41.542  18.149   6.563
 3073POPC   C3A42401  41.684  18.398   6.882
 3073POPC   C4A42402  41.997  18.238   7.164
 3073POPC   C1B42403  41.065  18.392   6.146
 3073POPC   C2B42404  40.931  18.329   6.560
 3073POPC   C3B42405  41.137  18.163   6.883
 3073POPC   C4B42406  41.295  18.347   7.215
 3074POPC   NC342407   9.676  23.119   5.434
 3074POPC   PO442408  10.200  22.589   5.434
 3074POPC   GL142409   9.828  22.741   5.724
 3074POPC   GL242410   9.726  22.561   5.983
 3074POPC   C1A42411   9.584  23.028   6.073
 3074POPC   D2A42412   9.711  23.026   6.505
 3074POPC   C3A42413   9.643  23.065   6.925
 3074POPC   C4A42414   9.520  23.297   7.254
 3074POPC   C1B42415  10.064  22.797   6.182
 3074POPC   C2B42416  10.221  22.891   6.589
 3074POPC   C3B42417  10.112  22.812   7.044
 3074POPC   C4B42418   9.824  22.891   7.404
 3075POPC   NC342419  42.475  10.669   5.158
 3075POPC   PO442420  42.699  10.291   5.624
 3075POPC   GL142421  42.386  10.661   5.775
 3075POPC   GL242422  42.570  10.847   5.989
 3075POPC   C1A42423  42.101  10.778   6.190
 3075POPC   D2A42424  42.168  10.732   6.693
 3075POPC   C3A42425  42.004  10.598   7.119
 3075POPC   C4A42426  41.928  10.132   7.185
 3075POPC   C1B42427  42.590  10.808   6.423
 3075POPC   C2B42428  42.677  10.718   6.808
 3075POPC   C3B42429  42.479  10.426   7.035
 3075POPC   C4B42430  42.598  10.488   7.412
 3076POPC   NC342431  39.521  13.616   5.476
 3076POPC   PO442432  39.319  13.129   5.144
 3076POPC   GL142433  39.283  13.261   5.719
 3076POPC   GL242434  39.341  13.586   5.965
 3076POPC   C1A42435  39.373  13.140   6.171
 3076POPC   D2A42436  39.264  13.410   6.541
 3076POPC   C3A42437  39.306  13.304   6.988
 3076POPC   C4A42438  39.273  13.611   7.296
 3076POPC   C1B42439  39.250  13.873   6.330
 3076POPC   C2B42440  39.273  13.858   6.815
 3076POPC   C3B42441  39.009  14.062   7.135
 3076POPC   C4B42442  38.994  14.083   7.593
 3077POPC   NC342443  22.457  40.185   5.512
 3077POPC   PO442444  22.169  40.718   5.389
 3077POPC   GL142445  22.056  40.955   5.795
 3077POPC   GL242446  22.310  40.806   5.975
 3077POPC   C1A42447  22.124  41.254   6.180
 3077POPC   D2A42448  22.161  41.423   6.660
 3077POPC   C3A42449  22.255  41.130   7.010
 3077POPC   C4A42450  22.351  40.753   7.277
 3077POPC   C1B42451  22.241  40.700   6.425
 3077POPC   C2B42452  22.072  40.663   6.851
 3077POPC   C3B42453  22.012  40.368   7.215
 3077POPC   C4B42454  22.224  40.223   7.631
 3078POPC   NC342455  40.908  22.572   5.292
 3078POPC   PO442456  40.808  21.901   5.274
 3078POPC   GL142457  40.676  22.178   5.637
 3078POPC   GL242458  40.709  21.920   5.879
 3078POPC   C1A42459  40.487  22.331   6.070
 3078POPC   D2A42460  40.728  22.360   6.494
 3078POPC   C3A42461  40.636  22.231   6.915
 3078POPC   C4A42462  40.635  22.527   7.244
 3078POPC   C1B42463  40.997  22.241   6.092
 3078POPC   C2B42464  41.255  22.321   6.481
 3078POPC   C3B42465  41.204  22.134   6.895
 3078POPC   C4B42466  41.008  22.186   7.299
 3079POPC   NC342467  29.304  34.794   5.540
 3079POPC   PO442468  29.326  35.423   5.507
 3079POPC   GL142469  29.049  35.412   5.880
 3079POPC   GL242470  29.050  35.080   5.883
 3079POPC   C1A42471  28.909  35.319   6.310
 3079POPC   D2A42472  29.132  35.544   6.624
 3079POPC   C3A42473  29.108  35.409   7.060
 3079POPC   C4A42474  28.955  35.466   7.484
 3079POPC   C1B42475  29.388  35.205   6.200
 3079POPC   C2B42476  29.643  35.017   6.541
 3079POPC   C3B42477  29.613  35.214   6.979
 3079POPC   C4B42478  29.409  35.215   7.453
 3080POPC   NC342479  42.737   9.438   5.314
 3080POPC   PO442480  42.105   9.096   5.337
 3080POPC   GL142481  42.236   8.935   5.750
 3080POPC   GL242482  42.550   9.051   5.857
 3080POPC   C1A42483  42.169   8.954   6.194
 3080POPC   D2A42484  42.348   9.062   6.567
 3080POPC   C3A42485  42.124   8.920   6.903
 3080POPC   C4A42486  42.160   9.031   7.313
 3080POPC   C1B42487  42.685   8.798   6.209
 3080POPC   C2B42488  42.788   8.808   6.636
 3080POPC   C3B42489  42.627   8.973   7.041
 3080POPC   C4B42490  42.617   8.907   7.486
 3081POPC   NC342491  33.901  20.439   5.429
 3081POPC   PO442492  33.759  21.094   5.531
 3081POPC   GL142493  33.966  20.878   5.845
 3081POPC   GL242494  33.812  20.534   5.924
 3081POPC   C1A42495  34.062  20.783   6.268
 3081POPC   D2A42496  33.981  20.510   6.600
 3081POPC   C3A42497  33.992  20.728   6.980
 3081POPC   C4A42498  33.903  20.928   7.342
 3081POPC   C1B42499  33.609  20.269   6.274
 3081POPC   C2B42500  33.601  20.013   6.662
 3081POPC   C3B42501  33.472  20.152   7.088
 3081POPC   C4B42502  33.622  20.504   7.352
 3082POPC   NC342503  22.508   1.753   5.159
 3082POPC   PO442504  22.181   1.203   5.451
 3082POPC   GL142505  22.370   1.245   5.862
 3082POPC   GL242506  22.229   1.522   6.020
 3082POPC   C1A42507  22.541   1.290   6.317
 3082POPC   D2A42508  22.268   1.271   6.669
 3082POPC   C3A42509  22.463   1.425   7.027
 3082POPC   C4A42510  22.503   1.289   7.463
 3082POPC   C1B42511  21.903   1.433   6.305
 3082POPC   C2B42512  21.814   1.550   6.715
 3082POPC   C3B42513  21.946   1.375   7.115
 3082POPC   C4B42514  22.052   1.540   7.525
 3083POPC   NC342515  41.828   8.765   5.485
 3083POPC   PO442516  41.362   9.128   5.298
 3083POPC   GL142517  41.446   8.990   5.713
 3083POPC   GL242518  41.388   8.614   5.718
 3083POPC   C1A42519  41.350   9.097   6.137
 3083POPC   D2A42520  41.557   9.112   6.538
 3083POPC   C3A42521  41.438   9.216   6.978
 3083POPC   C4A42522  41.726   9.286   7.301
 3083POPC   C1B42523  41.673   8.707   6.098
 3083POPC   C2B42524  41.848   8.687   6.495
 3083POPC   C3B42525  41.650   8.720   6.849
 3083POPC   C4B42526  41.722   8.767   7.228
 3084POPC   NC342527  38.031  20.479   5.178
 3084POPC   PO442528  37.456  20.718   5.332
 3084POPC   GL142529  37.538  20.724   5.744
 3084POPC   GL242530  37.883  20.769   5.696
 3084POPC   C1A42531  37.463  20.569   6.148
 3084POPC   D2A42532  37.238  20.552   6.498
 3084POPC   C3A42533  37.509  20.602   6.838
 3084POPC   C4A42534  37.635  20.849   7.185
 3084POPC   C1B42535  37.968  20.497   6.053
 3084POPC   C2B42536  37.896  20.535   6.488
 3084POPC   C3B42537  38.017  20.669   6.904
 3084POPC   C4B42538  38.126  20.800   7.322
 3085POPC   NC342539   6.888  33.756   5.025
 3085POPC   PO442540   6.549  34.188   5.433
 3085POPC   GL142541   6.562  33.861   5.782
 3085POPC   GL242542   6.799  33.583   5.658
 3085POPC   C1A42543   6.467  33.957   6.225
 3085POPC   D2A42544   6.297  34.205   6.571
 3085POPC   C3A42545   6.426  34.019   6.947
 3085POPC   C4A42546   6.773  33.927   7.215
 3085POPC   C1B42547   6.656  33.485   6.104
 3085POPC   C2B42548   6.793  33.655   6.520
 3085POPC   C3B42549   6.860  33.516   6.935
 3085POPC   C4B42550   6.723  33.307   7.279
 3086POPC   NC342551  39.540   7.636   5.276
 3086POPC   PO442552  39.309   7.019   5.273
 3086POPC   GL142553  39.313   7.027   5.719
 3086POPC   GL242554  39.557   7.316   5.778
 3086POPC   C1A42555  39.148   7.220   6.123
 3086POPC   D2A42556  39.269   7.227   6.559
 3086POPC   C3A42557  38.909   7.419   6.820
 3086POPC   C4A42558  38.963   7.336   7.265
 3086POPC   C1B42559  39.467   7.635   6.113
 3086POPC   C2B42560  39.242   7.722   6.514
 3086POPC   C3B42561  39.365   7.607   6.915
 3086POPC   C4B42562  39.262   7.745   7.283
 3087POPC   NC342563   9.459  18.083   5.376
 3087POPC   PO442564  10.037  18.513   5.299
 3087POPC   GL142565   9.998  18.518   5.719
 3087POPC   GL242566   9.748  18.279   5.766
 3087POPC   C1A42567  10.158  18.494   6.136
 3087POPC   D2A42568   9.978  18.595   6.534
 3087POPC   C3A42569   9.809  18.304   6.817
 3087POPC   C4A42570   9.897  18.478   7.188
 3087POPC   C1B42571   9.625  18.552   6.117
 3087POPC   C2B42572   9.456  18.608   6.542
 3087POPC   C3B42573   9.384  18.631   6.975
 3087POPC   C4B42574   9.435  18.263   7.193
 3088POPC   NC342575  10.505  16.897   5.430
 3088POPC   PO442576  10.208  16.274   5.487
 3088POPC   GL142577  10.432  16.532   5.830
 3088POPC   GL242578  10.660  16.822   5.912
 3088POPC   C1A42579  10.308  16.649   6.230
 3088POPC   D2A42580  10.234  16.807   6.620
 3088POPC   C3A42581  10.255  16.564   7.008
 3088POPC   C4A42582  10.517  16.700   7.337
 3088POPC   C1B42583  10.774  16.867   6.354
 3088POPC   C2B42584  10.842  16.827   6.825
 3088POPC   C3B42585  10.861  17.055   7.221
 3088POPC   C4B42586  10.865  17.037   7.689
 3089POPC   NC342587  32.657   6.938   5.375
 3089POPC   PO442588  33.291   6.740   5.569
 3089POPC   GL142589  32.933   6.736   5.807
 3089POPC   GL242590  32.870   7.079   5.827
 3089POPC   C1A42591  32.966   6.514   6.200
 3089POPC   D2A42592  33.121   6.275   6.557
 3089POPC   C3A42593  32.981   6.436   6.945
 3089POPC   C4A42594  33.097   6.441   7.379
 3089POPC   C1B42595  33.078   7.033   6.257
 3089POPC   C2B42596  33.227   6.816   6.666
 3089POPC   C3B42597  33.319   6.828   7.141
 3089POPC   C4B42598  33.225   6.914   7.608
 3090POPC   NC342599  34.864   2.212   5.310
 3090POPC   PO442600  34.583   1.551   5.534
 3090POPC   GL142601  34.714   1.771   5.881
 3090POPC   GL242602  34.615   2.061   5.720
 3090POPC   C1A42603  34.475   1.956   6.213
 3090POPC   D2A42604  34.195   2.196   6.476
 3090POPC   C3A42605  34.437   2.153   6.820
 3090POPC   C4A42606  34.418   2.199   7.232
 3090POPC   C1B42607  34.864   2.263   6.013
 3090POPC   C2B42608  34.848   2.195   6.466
 3090POPC   C3B42609  35.047   2.162   6.835
 3090POPC   C4B42610  34.903   2.303   7.213
 3091POPC   NC342611   8.003  10.406   5.506
 3091POPC   PO442612   8.468   9.985   5.565
 3091POPC   GL142613   8.322  10.290   5.912
 3091POPC   GL242614   8.216  10.611   5.918
 3091POPC   C1A42615   8.303  10.385   6.376
 3091POPC   D2A42616   8.156  10.650   6.684
 3091POPC   C3A42617   8.105  10.468   7.086
 3091POPC   C4A42618   8.270  10.326   7.469
 3091POPC   C1B42619   7.948  10.830   6.219
 3091POPC   C2B42620   7.977  11.137   6.539
 3091POPC   C3B42621   7.892  11.007   6.942
 3091POPC   C4B42622   7.685  11.014   7.317
 3092POPC   NC342623  27.354  14.715   5.255
 3092POPC   PO442624  27.061  14.259   5.230
 3092POPC   GL142625  27.378  14.392   5.636
 3092POPC   GL242626  27.198  14.402   5.936
 3092POPC   C1A42627  27.630  14.663   5.996
 3092POPC   D2A42628  27.789  14.651   6.429
 3092POPC   C3A42629  27.841  14.731   6.882
 3092POPC   C4A42630  27.927  14.503   7.249
 3092POPC   C1B42631  27.261  14.624   6.341
 3092POPC   C2B42632  27.342  14.760   6.771
 3092POPC   C3B42633  27.400  14.719   7.239
 3092POPC   C4B42634  27.209  14.621   7.671
 3093POPC   NC342635  40.231  25.643   5.639
 3093POPC   PO442636  40.166  25.020   5.305
 3093POPC   GL142637  40.125  25.104   5.775
 3093POPC   GL242638  39.860  25.364   5.887
 3093POPC   C1A42639  39.970  25.004   6.224
 3093POPC   D2A42640  39.740  25.267   6.563
 3093POPC   C3A42641  39.914  25.318   6.958
 3093POPC   C4A42642  40.092  25.334   7.373
 3093POPC   C1B42643  40.034  25.578   6.298
 3093POPC   C2B42644  40.310  25.703   6.693
 3093POPC   C3B42645  40.332  25.755   7.184
 3093POPC   C4B42646  40.187  25.802   7.655
 3094POPC   NC342647  41.066  30.896   5.611
 3094POPC   PO442648  40.444  30.822   5.345
 3094POPC   GL142649  40.550  30.798   5.841
 3094POPC   GL242650  40.908  30.726   6.058
 3094POPC   C1A42651  40.479  30.630   6.285
 3094POPC   D2A42652  40.850  30.574   6.571
 3094POPC   C3A42653  40.661  30.500   6.955
 3094POPC   C4A42654  40.528  30.425   7.370
 3094POPC   C1B42655  40.781  31.059   6.402
 3094POPC   C2B42656  41.002  31.259   6.736
 3094POPC   C3B42657  41.093  31.136   7.148
 3094POPC   C4B42658  40.858  30.810   7.324
 3095POPC   NC342659  36.732   4.391   5.334
 3095POPC   PO442660  37.391   4.252   5.387
 3095POPC   GL142661  37.104   4.339   5.787
 3095POPC   GL242662  36.763   4.240   5.820
 3095POPC   C1A42663  36.962   4.475   6.250
 3095POPC   D2A42664  36.826   4.697   6.670
 3095POPC   C3A42665  37.013   4.518   7.017
 3095POPC   C4A42666  37.010   4.088   7.135
 3095POPC   C1B42667  36.471   4.515   6.081
 3095POPC   C2B42668  36.387   4.391   6.488
 3095POPC   C3B42669  36.607   4.264   6.867
 3095POPC   C4B42670  36.614   4.401   7.303
 3096POPC   NC342671  12.985   5.712   5.245
 3096POPC   PO442672  12.406   5.840   5.135
 3096POPC   GL142673  12.686   5.934   5.582
 3096POPC   GL242674  13.028   6.076   5.630
 3096POPC   C1A42675  12.783   5.748   6.033
 3096POPC   D2A42676  12.739   5.815   6.525
 3096POPC   C3A42677  13.015   5.768   6.936
 3096POPC   C4A42678  12.930   5.410   7.234
 3096POPC   C1B42679  13.071   6.161   6.086
 3096POPC   C2B42680  13.003   6.278   6.516
 3096POPC   C3B42681  12.904   6.297   6.959
 3096POPC   C4B42682  13.191   6.195   7.240
 3097POPC   NC342683   8.738   1.876   5.683
 3097POPC   PO442684   9.201   1.828   5.281
 3097POPC   GL142685   9.229   1.786   5.771
 3097POPC   GL242686   9.145   2.159   5.854
 3097POPC   C1A42687   9.040   1.831   6.235
 3097POPC   D2A42688   8.729   1.952   6.568
 3097POPC   C3A42689   8.911   1.754   6.924
 3097POPC   C4A42690   9.121   1.739   7.323
 3097POPC   C1B42691   8.850   2.333   6.180
 3097POPC   C2B42692   8.794   2.507   6.604
 3097POPC   C3B42693   8.866   2.283   6.993
 3097POPC   C4B42694   9.123   2.242   7.388
 3098POPC   NC342695  10.482  11.723   5.533
 3098POPC   PO442696  10.322  12.315   5.300
 3098POPC   GL142697  10.448  12.223   5.726
 3098POPC   GL242698  10.789  12.095   5.737
 3098POPC   C1A42699  10.403  12.078   6.154
 3098POPC   D2A42700  10.416  12.335   6.528
 3098POPC   C3A42701  10.345  12.093   6.891
 3098POPC   C4A42702  10.489  12.001   7.281
 3098POPC   C1B42703  10.901  11.870   6.127
 3098POPC   C2B42704  10.752  11.934   6.545
 3098POPC   C3B42705  10.874  11.872   6.971
 3098POPC   C4B42706  10.780  11.573   7.304
 3099POPC   NC342707  21.516  31.426   5.336
 3099POPC   PO442708  21.003  31.287   5.811
 3099POPC   GL142709  21.439  31.489   5.870
 3099POPC   GL242710  21.776  31.349   5.781
 3099POPC   C1A42711  21.503  31.575   6.305
 3099POPC   D2A42712  21.221  31.453   6.654
 3099POPC   C3A42713  21.361  31.579   7.028
 3099POPC   C4A42714  21.370  31.510   7.480
 3099POPC   C1B42715  21.784  31.168   6.208
 3099POPC   C2B42716  21.708  31.273   6.665
 3099POPC   C3B42717  21.713  31.222   7.099
 3099POPC   C4B42718  21.891  31.418   7.437
 3100POPC   NC342719  16.859  27.434   5.400
 3100POPC   PO442720  16.258  27.715   5.504
 3100POPC   GL142721  16.608  27.562   5.858
 3100POPC   GL242722  17.001  27.456   5.876
 3100POPC   C1A42723  16.823  27.741   6.267
 3100POPC   D2A42724  17.165  27.561   6.548
 3100POPC   C3A42725  17.012  27.495   6.969
 3100POPC   C4A42726  16.556  27.563   7.096
 3100POPC   C1B42727  16.778  27.235   6.212
 3100POPC   C2B42728  16.684  27.353   6.619
 3100POPC   C3B42729  16.686  27.088   6.995
 3100POPC   C4B42730  16.774  27.226   7.423
 3101POPC   NC342731  36.492  28.610   5.291
 3101POPC   PO442732  37.002  28.102   5.367
 3101POPC   GL142733  36.773  28.174   5.766
 3101POPC   GL242734  36.523  27.968   5.881
 3101POPC   C1A42735  36.869  28.166   6.229
 3101POPC   D2A42736  37.170  28.067   6.570
 3101POPC   C3A42737  37.105  28.399   6.855
 3101POPC   C4A42738  36.715  28.599   7.042
 3101POPC   C1B42739  36.375  28.055   6.259
 3101POPC   C2B42740  36.517  28.183   6.644
 3101POPC   C3B42741  36.636  28.099   7.030
 3101POPC   C4B42742  36.963  28.234   7.299
 3102POPC   NC342743   2.392  41.587   5.448
 3102POPC   PO442744   1.690  41.749   5.483
 3102POPC   GL142745   1.877  41.519   5.850
 3102POPC   GL242746   2.220  41.368   5.895
 3102POPC   C1A42747   1.938  41.651   6.268
 3102POPC   D2A42748   1.851  41.866   6.631
 3102POPC   C3A42749   1.810  41.622   6.975
 3102POPC   C4A42750   1.748  41.773   7.353
 3102POPC   C1B42751   2.441  41.618   6.205
 3102POPC   C2B42752   2.361  41.718   6.617
 3102POPC   C3B42753   2.371  41.485   6.963
 3102POPC   C4B42754   2.180  41.480   7.324
 3103POPC   NC342755  11.548  37.567   5.503
 3103POPC   PO442756  11.015  37.930   5.303
 3103POPC   GL142757  11.185  37.853   5.736
 3103POPC   GL242758  11.529  38.035   5.746
 3103POPC   C1A42759  11.128  37.636   6.152
 3103POPC   D2A42760  10.986  37.419   6.543
 3103POPC   C3A42761  11.185  37.469   6.944
 3103POPC   C4A42762  10.983  37.645   7.345
 3103POPC   C1B42763  11.607  37.816   6.150
 3103POPC   C2B42764  11.531  37.580   6.522
 3103POPC   C3B42765  11.633  37.733   6.918
 3103POPC   C4B42766  11.466  37.772   7.303
 3104POPC   NC342767  43.955  23.076   5.297
 3104POPC   PO442768  44.098  22.438   5.532
 3104POPC   GL142769  43.875  22.801   5.728
 3104POPC   GL242770  44.050  23.098   5.807
 3104POPC   C1A42771  43.736  22.810   6.154
 3104POPC   D2A42772  43.984  22.693   6.513
 3104POPC   C3A42773  43.825  22.791   6.918
 3104POPC   C4A42774  44.054  22.865   7.301
 3104POPC   C1B42775  43.851  23.311   6.157
 3104POPC   C2B42776  43.822  23.181   6.587
 3104POPC   C3B42777  44.047  23.246   6.973
 3104POPC   C4B42778  43.960  23.403   7.375
 3105POPC   NC342779   0.066  26.318   5.475
 3105POPC   PO442780   0.430  25.689   5.424
 3105POPC   GL142781   0.540  26.041   5.716
 3105POPC   GL242782   0.252  25.948   5.912
 3105POPC   C1A42783   0.588  26.222   6.164
 3105POPC   D2A42784   0.389  25.988   6.495
 3105POPC   C3A42785   0.340  26.202   6.866
 3105POPC   C4A42786   0.660  26.327   7.151
 3105POPC   C1B42787   0.087  25.638   6.224
 3105POPC   C2B42788   0.284  25.462   6.575
 3105POPC   C3B42789   0.320  25.686   6.947
 3105POPC   C4B42790   0.422  25.903   7.281
 3106POPC   NC342791  24.098  29.766   5.575
 3106POPC   PO442792  24.634  30.131   5.378
 3106POPC   GL142793  24.469  30.077   5.773
 3106POPC   GL242794  24.176  30.219   5.863
 3106POPC   C1A42795  24.600  29.980   6.178
 3106POPC   D2A42796  24.422  29.895   6.562
 3106POPC   C3A42797  24.628  30.000   6.874
 3106POPC   C4A42798  24.536  29.846   7.242
 3106POPC   C1B42799  24.228  30.308   6.292
 3106POPC   C2B42800  24.077  30.329   6.694
 3106POPC   C3B42801  24.202  30.234   7.116
 3106POPC   C4B42802  23.865  30.077   7.342
 3107POPC   NC342803  20.077  24.657   4.942
 3107POPC   PO442804  19.949  24.172   5.461
 3107POPC   GL142805  19.914  24.508   5.789
 3107POPC   GL242806  19.590  24.533   5.897
 3107POPC   C1A42807  19.960  24.505   6.248
 3107POPC   D2A42808  19.849  24.289   6.642
 3107POPC   C3A42809  19.784  24.580   7.004
 3107POPC   C4A42810  19.802  24.506   7.420
 3107POPC   C1B42811  19.436  24.485   6.318
 3107POPC   C2B42812  19.379  24.388   6.743
 3107POPC   C3B42813  19.530  24.158   7.113
 3107POPC   C4B42814  19.716  23.965   7.488
 3108POPC   NC342815   0.959   7.849   5.375
 3108POPC   PO442816   1.444   8.273   5.507
 3108POPC   GL142817   1.080   8.221   5.783
 3108POPC   GL242818   1.075   7.867   5.849
 3108POPC   C1A42819   1.058   8.353   6.220
 3108POPC   D2A42820   1.300   8.219   6.621
 3108POPC   C3A42821   1.112   8.323   7.046
 3108POPC   C4A42822   1.256   8.348   7.458
 3108POPC   C1B42823   1.244   7.875   6.218
 3108POPC   C2B42824   1.053   7.767   6.588
 3108POPC   C3B42825   1.229   7.841   6.961
 3108POPC   C4B42826   1.116   7.804   7.346
 3109POPC   NC342827  36.856  32.959   5.543
 3109POPC   PO442828  36.550  33.528   5.742
 3109POPC   GL142829  36.586  33.123   5.944
 3109POPC   GL242830  36.987  33.132   5.986
 3109POPC   C1A42831  36.700  32.899   6.319
 3109POPC   D2A42832  36.929  33.119   6.607
 3109POPC   C3A42833  36.654  33.149   6.917
 3109POPC   C4A42834  36.814  33.088   7.283
 3109POPC   C1B42835  37.319  33.014   6.259
 3109POPC   C2B42836  37.417  32.962   6.684
 3109POPC   C3B42837  37.160  32.825   7.020
 3109POPC   C4B42838  37.174  32.749   7.471
 3110POPC   NC342839  43.279  44.783   5.187
 3110POPC   PO442840  42.659  44.788   5.076
 3110POPC   GL142841  42.915  44.723   5.575
 3110POPC   GL242842  42.935  44.409   5.770
 3110POPC   C1A42843  42.904  44.807   6.078
 3110POPC   D2A42844  43.163  44.784   6.481
 3110POPC   C3A42845  43.069  44.633   6.922
 3110POPC   C4A42846  43.269  44.775   7.325
 3110POPC   C1B42847  43.232  44.375   6.159
 3110POPC   C2B42848  43.491  44.390   6.579
 3110POPC   C3B42849  43.503  44.399   7.068
 3110POPC   C4B42850  43.583  44.452   7.563
 3111POPC   NC342851   2.944   8.887   5.401
 3111POPC   PO442852   2.506   9.382   5.262
 3111POPC   GL142853   2.798   9.288   5.643
 3111POPC   GL242854   2.645   8.984   5.813
 3111POPC   C1A42855   2.915   9.242   6.147
 3111POPC   D2A42856   2.724   9.035   6.545
 3111POPC   C3A42857   2.769   9.224   6.987
 3111POPC   C4A42858   3.116   9.196   7.292
 3111POPC   C1B42859   2.887   8.703   6.111
 3111POPC   C2B42860   3.091   8.628   6.526
 3111POPC   C3B42861   2.938   8.746   6.916
 3111POPC   C4B42862   2.583   8.811   7.202
 3112POPC   NC342863   1.498  26.655   5.415
 3112POPC   PO442864   2.049  27.086   5.364
 3112POPC   GL142865   1.902  26.893   5.743
 3112POPC   GL242866   1.581  27.010   5.846
 3112POPC   C1A42867   1.943  26.898   6.219
 3112POPC   D2A42868   1.980  27.072   6.659
 3112POPC   C3A42869   2.112  26.998   7.119
 3112POPC   C4A42870   2.271  26.700   7.457
 3112POPC   C1B42871   1.419  26.858   6.259
 3112POPC   C2B42872   1.396  26.722   6.683
 3112POPC   C3B42873   1.616  26.883   7.038
 3112POPC   C4B42874   1.769  26.789   7.463
 3113POPC   NC342875  12.806  11.881   5.348
 3113POPC   PO442876  12.961  12.445   5.557
 3113POPC   GL142877  12.962  12.093   5.834
 3113POPC   GL242878  12.622  11.964   5.820
 3113POPC   C1A42879  12.861  12.159   6.266
 3113POPC   D2A42880  12.682  12.469   6.542
 3113POPC   C3A42881  12.868  12.343   6.922
 3113POPC   C4A42882  13.018  12.051   7.221
 3113POPC   C1B42883  12.574  11.732   6.211
 3113POPC   C2B42884  12.715  11.797   6.614
 3113POPC   C3B42885  12.665  11.735   7.024
 3113POPC   C4B42886  12.628  11.819   7.451
 3114POPC   NC342887  42.112  36.614   5.437
 3114POPC   PO442888  41.587  36.861   5.077
 3114POPC   GL142889  41.480  36.947   5.569
 3114POPC   GL242890  41.129  36.859   5.748
 3114POPC   C1A42891  41.558  36.902   6.042
 3114POPC   D2A42892  41.530  37.077   6.491
 3114POPC   C3A42893  41.637  36.840   6.882
 3114POPC   C4A42894  41.728  36.971   7.294
 3114POPC   C1B42895  41.063  36.950   6.243
 3114POPC   C2B42896  41.116  36.876   6.731
 3114POPC   C3B42897  41.220  37.082   7.128
 3114POPC   C4B42898  41.292  37.434   7.425
 3115POPC   NC342899  41.189  41.010   5.617
 3115POPC   PO442900  40.622  40.891   5.386
 3115POPC   GL142901  40.712  40.803   5.792
 3115POPC   GL242902  41.004  40.588   5.826
 3115POPC   C1A42903  40.571  40.887   6.201
 3115POPC   D2A42904  40.448  41.003   6.615
 3115POPC   C3A42905  40.616  40.816   6.978
 3115POPC   C4A42906  40.778  41.048   7.324
 3115POPC   C1B42907  41.081  40.845   6.222
 3115POPC   C2B42908  40.991  41.023   6.627
 3115POPC   C3B42909  41.133  40.823   7.007
 3115POPC   C4B42910  41.106  40.646   7.393
 3116POPC   NC342911  38.059  15.379   5.526
 3116POPC   PO442912  37.913  14.667   5.466
 3116POPC   GL142913  37.772  15.035   5.795
 3116POPC   GL242914  37.393  15.099   5.862
 3116POPC   C1A42915  37.780  15.285   6.234
 3116POPC   D2A42916  37.978  15.146   6.620
 3116POPC   C3A42917  37.916  15.213   7.048
 3116POPC   C4A42918  37.964  15.521   7.357
 3116POPC   C1B42919  37.286  15.117   6.319
 3116POPC   C2B42920  37.498  15.340   6.673
 3116POPC   C3B42921  37.427  15.313   7.120
 3116POPC   C4B42922  37.449  14.871   7.166
 3117POPC   NC342923  34.947  23.877   5.454
 3117POPC   PO442924  35.411  23.398   5.322
 3117POPC   GL142925  35.372  23.575   5.760
 3117POPC   GL242926  35.354  23.910   5.866
 3117POPC   C1A42927  35.372  23.536   6.224
 3117POPC   D2A42928  35.382  23.761   6.610
 3117POPC   C3A42929  35.423  23.505   6.997
 3117POPC   C4A42930  35.251  23.422   7.433
 3117POPC   C1B42931  35.061  23.940   6.192
 3117POPC   C2B42932  34.962  24.166   6.551
 3117POPC   C3B42933  34.997  24.146   6.977
 3117POPC   C4B42934  35.102  23.835   7.207
 3118POPC   NC342935  40.720  17.305   5.285
 3118POPC   PO442936  40.730  16.650   5.324
 3118POPC   GL142937  40.747  16.835   5.764
 3118POPC   GL242938  40.763  16.511   5.946
 3118POPC   C1A42939  40.820  17.011   6.193
 3118POPC   D2A42940  40.894  16.796   6.599
 3118POPC   C3A42941  40.747  16.952   7.004
 3118POPC   C4A42942  40.737  16.839   7.479
 3118POPC   C1B42943  41.208  16.459   6.065
 3118POPC   C2B42944  41.390  16.708   6.414
 3118POPC   C3B42945  41.307  16.605   6.845
 3118POPC   C4B42946  40.961  16.493   7.112
 3119POPC   NC342947  33.437  12.312   5.674
 3119POPC   PO442948  34.000  12.227   5.330
 3119POPC   GL142949  33.918  12.120   5.739
 3119POPC   GL242950  34.221  12.278   5.809
 3119POPC   C1A42951  33.695  11.961   6.151
 3119POPC   D2A42952  33.501  11.878   6.551
 3119POPC   C3A42953  33.667  12.158   6.876
 3119POPC   C4A42954  33.759  11.889   7.189
 3119POPC   C1B42955  34.173  12.064   6.206
 3119POPC   C2B42956  34.041  11.916   6.609
 3119POPC   C3B42957  34.203  12.051   7.013
 3119POPC   C4B42958  34.061  12.247   7.389
 3120POPC   NC342959  42.625   5.336   5.056
 3120POPC   PO442960  42.248   4.881   5.409
 3120POPC   GL142961  42.066   4.936   5.859
 3120POPC   GL242962  42.166   5.272   5.836
 3120POPC   C1A42963  42.150   5.058   6.315
 3120POPC   D2A42964  42.528   4.951   6.558
 3120POPC   C3A42965  42.464   4.856   7.024
 3120POPC   C4A42966  42.051   4.854   7.178
 3120POPC   C1B42967  42.546   5.327   6.099
 3120POPC   C2B42968  42.538   5.479   6.513
 3120POPC   C3B42969  42.284   5.318   6.826
 3120POPC   C4B42970  42.311   5.302   7.259
 3121POPC   NC342971  42.136  22.800   5.400
 3121POPC   PO442972  42.763  23.053   5.312
 3121POPC   GL142973  42.523  23.052   5.691
 3121POPC   GL242974  42.531  22.712   5.707
 3121POPC   C1A42975  42.666  22.917   6.139
 3121POPC   D2A42976  42.521  22.814   6.510
 3121POPC   C3A42977  42.546  22.974   6.900
 3121POPC   C4A42978  42.317  22.892   7.234
 3121POPC   C1B42979  42.176  22.796   6.052
 3121POPC   C2B42980  42.021  22.771   6.510
 3121POPC   C3B42981  42.122  22.573   6.888
 3121POPC   C4B42982  41.903  22.611   7.294
 3122POPC   NC342983  43.724  43.927   5.451
 3122POPC   PO442984  44.292  44.243   5.632
 3122POPC   GL142985  43.935  44.135   5.853
 3122POPC   GL242986  44.047  43.804   5.887
 3122POPC   C1A42987  43.611  43.992   6.155
 3122POPC   D2A42988  43.772  43.808   6.525
 3122POPC   C3A42989  43.633  43.934   6.908
 3122POPC   C4A42990  43.773  44.047   7.307
 3122POPC   C1B42991  44.252  43.646   6.269
 3122POPC   C2B42992  44.252  43.686   6.705
 3122POPC   C3B42993  44.163  43.854   7.071
 3122POPC   C4B42994  44.198  43.831   7.539
 3123POPC   NC342995  30.721   8.831   5.595
 3123POPC   PO442996  30.545   8.263   5.255
 3123POPC   GL142997  30.573   8.243   5.707
 3123POPC   GL242998  30.870   8.376   5.801
 3123POPC   C1A42999  30.608   8.114   6.166
 3123POPC   D2A43000  30.803   7.833   6.465
 3123POPC   C3A43001  30.715   7.991   6.862
 3123POPC   C4A43002  30.824   8.099   7.261
 3123POPC   C1B43003  30.882   8.548   6.232
 3123POPC   C2B43004  30.677   8.466   6.633
 3123POPC   C3B43005  30.827   8.590   7.038
 3123POPC   C4B43006  30.659   8.526   7.446
 3124POPC   NC343007  21.660  44.250   5.330
 3124POPC   PO443008  21.186  43.810   5.483
 3124POPC   GL143009  21.425  44.001   5.777
 3124POPC   GL243010  21.139  44.179   5.863
 3124POPC   C1A43011  21.533  44.068   6.237
 3124POPC   D2A43012  21.763  43.833   6.589
 3124POPC   C3A43013  21.600  43.898   7.024
 3124POPC   C4A43014  21.367  43.982   7.470
 3124POPC   C1B43015  21.085  43.838   6.155
 3124POPC   C2B43016  21.127  43.968   6.577
 3124POPC   C3B43017  21.094  44.004   7.021
 3124POPC   C4B43018  21.008  43.676   7.299
 3125POPC   NC343019   9.243  40.171   5.312
 3125POPC   PO443020   8.681  39.937   5.310
 3125POPC   GL143021   8.908  40.143   5.702
 3125POPC   GL243022   9.176  39.961   5.909
 3125POPC   C1A43023   8.804  40.185   6.172
 3125POPC   D2A43024   8.769  39.901   6.544
 3125POPC   C3A43025   8.877  40.109   6.917
 3125POPC   C4A43026   8.749  40.359   7.246
 3125POPC   C1B43027   9.276  39.994   6.397
 3125POPC   C2B43028   9.224  39.730   6.771
 3125POPC   C3B43029   8.846  39.589   6.995
 3125POPC   C4B43030   8.769  39.847   7.350
 3126POPC   NC343031  35.442  15.431   5.180
 3126POPC   PO443032  35.116  14.983   4.989
 3126POPC   GL143033  35.141  15.177   5.511
 3126POPC   GL243034  35.373  15.412   5.687
 3126POPC   C1A43035  35.102  15.123   6.000
 3126POPC   D2A43036  35.123  14.967   6.432
 3126POPC   C3A43037  35.134  15.135   6.849
 3126POPC   C4A43038  35.159  15.368   7.228
 3126POPC   C1B43039  35.589  15.296   6.082
 3126POPC   C2B43040  35.498  15.382   6.513
 3126POPC   C3B43041  35.612  15.258   6.916
 3126POPC   C4B43042  35.832  15.390   7.222
 3127POPC   NC343043   7.312   2.576   5.364
 3127POPC   PO443044   7.853   3.018   5.461
 3127POPC   GL143045   7.478   2.886   5.737
 3127POPC   GL243046   7.587   2.525   5.783
 3127POPC   C1A43047   7.255   2.725   6.142
 3127POPC   D2A43048   7.443   2.774   6.573
 3127POPC   C3A43049   7.350   2.713   7.015
 3127POPC   C4A43050   7.382   2.923   7.427
 3127POPC   C1B43051   7.772   2.736   6.137
 3127POPC   C2B43052   7.911   2.546   6.496
 3127POPC   C3B43053   7.794   2.464   6.888
 3127POPC   C4B43054   7.816   2.739   7.236
 3128POPC   NC343055   0.670  43.571   5.435
 3128POPC   PO443056   0.167  43.993   5.518
 3128POPC   GL143057   0.295  43.709   5.858
 3128POPC   GL243058   0.653  43.788   5.889
 3128POPC   C1A43059   0.344  43.822   6.304
 3128POPC   D2A43060   0.414  44.070   6.674
 3128POPC   C3A43061   0.303  43.770   6.994
 3128POPC   C4A43062   0.026  43.664   7.339
 3128POPC   C1B43063   0.712  43.485   6.202
 3128POPC   C2B43064   0.619  43.353   6.635
 3128POPC   C3B43065   0.799  43.553   7.012
 3128POPC   C4B43066   0.746  44.002   7.097
 3129POPC   NC343067   7.607  33.450   5.316
 3129POPC   PO443068   7.214  33.969   5.294
 3129POPC   GL143069   7.347  33.806   5.721
 3129POPC   GL243070   7.643  33.599   5.803
 3129POPC   C1A43071   7.250  33.920   6.174
 3129POPC   D2A43072   7.306  34.191   6.529
 3129POPC   C3A43073   7.197  33.926   6.869
 3129POPC   C4A43074   7.287  33.991   7.279
 3129POPC   C1B43075   7.628  33.587   6.232
 3129POPC   C2B43076   7.631  33.808   6.589
 3129POPC   C3B43077   7.659  33.731   6.997
 3129POPC   C4B43078   7.420  33.433   7.232
 3130POPC   NC343079  20.631  29.485   5.388
 3130POPC   PO443080  20.522  28.865   5.205
 3130POPC   GL143081  20.511  29.052   5.633
 3130POPC   GL243082  20.890  29.118   5.696
 3130POPC   C1A43083  20.520  29.123   6.079
 3130POPC   D2A43084  20.383  29.134   6.503
 3130POPC   C3A43085  20.615  29.250   6.874
 3130POPC   C4A43086  20.551  29.078   7.299
 3130POPC   C1B43087  21.038  29.134   6.117
 3130POPC   C2B43088  20.883  28.987   6.480
 3130POPC   C3B43089  21.050  28.960   6.857
 3130POPC   C4B43090  21.008  28.794   7.250
 3131POPC   NC343091  29.530   2.746   5.271
 3131POPC   PO443092  28.917   2.927   5.339
 3131POPC   GL143093  28.960   2.753   5.734
 3131POPC   GL243094  28.782   3.008   5.919
 3131POPC   C1A43095  29.309   2.686   6.027
 3131POPC   D2A43096  29.375   2.941   6.400
 3131POPC   C3A43097  29.494   2.749   6.788
 3131POPC   C4A43098  29.268   2.711   7.167
 3131POPC   C1B43099  28.884   2.785   6.306
 3131POPC   C2B43100  28.973   2.863   6.772
 3131POPC   C3B43101  28.858   3.001   7.213
 3131POPC   C4B43102  28.671   3.077   7.645
 3132POPC   NC343103  38.864  41.114   5.355
 3132POPC   PO443104  39.388  40.689   5.167
 3132POPC   GL143105  39.161  40.744   5.613
 3132POPC   GL243106  39.117  41.080   5.796
 3132POPC   C1A43107  39.295  40.642   6.073
 3132POPC   D2A43108  39.573  40.754   6.449
 3132POPC   C3A43109  39.506  40.631   6.905
 3132POPC   C4A43110  39.285  40.716   7.330
 3132POPC   C1B43111  39.239  41.123   6.231
 3132POPC   C2B43112  39.137  40.927   6.620
 3132POPC   C3B43113  38.957  40.957   7.003
 3132POPC   C4B43114  39.019  41.249   7.352
 3133POPC   NC343115  42.463  18.643   5.270
 3133POPC   PO443116  42.180  18.027   5.332
 3133POPC   GL143117  42.300  18.173   5.767
 3133POPC   GL243118  42.372  18.529   5.761
 3133POPC   C1A43119  42.106  18.180   6.204
 3133POPC   D2A43120  42.058  18.109   6.651
 3133POPC   C3A43121  42.442  18.160   6.901
 3133POPC   C4A43122  42.475  18.346   7.298
 3133POPC   C1B43123  41.971  18.621   5.977
 3133POPC   C2B43124  41.888  18.608   6.447
 3133POPC   C3B43125  42.161  18.616   6.849
 3133POPC   C4B43126  42.256  18.832   7.252
 3134POPC   NC343127   7.984  42.577   5.438
 3134POPC   PO443128   8.589  42.375   5.364
 3134POPC   GL143129   8.342  42.295   5.756
 3134POPC   GL243130   8.046  42.091   5.723
 3134POPC   C1A43131   8.226  42.427   6.185
 3134POPC   D2A43132   8.442  42.564   6.568
 3134POPC   C3A43133   8.290  42.366   6.924
 3134POPC   C4A43134   7.868  42.405   7.113
 3134POPC   C1B43135   8.015  41.951   6.147
 3134POPC   C2B43136   7.985  42.131   6.557
 3134POPC   C3B43137   8.004  41.942   6.937
 3134POPC   C4B43138   7.888  41.932   7.320
 3135POPC   NC343139  41.084  19.460   5.605
 3135POPC   PO443140  41.638  19.890   5.404
 3135POPC   GL143141  41.387  19.857   5.750
 3135POPC   GL243142  41.640  19.624   5.834
 3135POPC   C1A43143  41.361  19.777   6.212
 3135POPC   D2A43144  41.561  19.825   6.581
 3135POPC   C3A43145  41.323  19.757   6.954
 3135POPC   C4A43146  41.380  20.008   7.311
 3135POPC   C1B43147  41.879  19.613   6.211
 3135POPC   C2B43148  42.036  19.615   6.643
 3135POPC   C3B43149  41.840  19.818   7.011
 3135POPC   C4B43150  41.647  19.585   7.322
 3136POPC   NC343151  41.411   7.861   5.391
 3136POPC   PO443152  42.008   8.361   5.355
 3136POPC   GL143153  41.830   8.320   5.782
 3136POPC   GL243154  41.557   8.098   5.825
 3136POPC   C1A43155  41.772   8.232   6.267
 3136POPC   D2A43156  41.804   8.057   6.697
 3136POPC   C3A43157  41.614   8.266   7.078
 3136POPC   C4A43158  41.702   8.357   7.528
 3136POPC   C1B43159  41.314   7.964   6.212
 3136POPC   C2B43160  41.442   7.710   6.576
 3136POPC   C3B43161  41.342   7.852   6.976
 3136POPC   C4B43162  41.319   8.031   7.429
 3137POPC   NC343163  14.265  21.067   5.433
 3137POPC   PO443164  14.448  21.768   5.449
 3137POPC   GL143165  14.435  21.410   5.776
 3137POPC   GL243166  14.120  21.175   5.905
 3137POPC   C1A43167  14.512  21.307   6.207
 3137POPC   D2A43168  14.316  21.244   6.617
 3137POPC   C3A43169  14.595  21.158   6.969
 3137POPC   C4A43170  14.738  21.350   7.348
 3137POPC   C1B43171  14.035  21.525   6.209
 3137POPC   C2B43172  13.877  21.545   6.649
 3137POPC   C3B43173  13.944  21.561   7.095
 3137POPC   C4B43174  14.218  21.268   7.355
 3138POPC   NC343175  21.510  34.298   5.353
 3138POPC   PO443176  21.288  35.000   5.356
 3138POPC   GL143177  21.267  34.677   5.682
 3138POPC   GL243178  21.608  34.652   5.721
 3138POPC   C1A43179  21.340  34.716   6.158
 3138POPC   D2A43180  21.482  34.695   6.593
 3138POPC   C3A43181  21.222  34.519   6.943
 3138POPC   C4A43182  21.533  34.547   7.321
 3138POPC   C1B43183  21.455  34.272   5.987
 3138POPC   C2B43184  21.434  34.205   6.451
 3138POPC   C3B43185  21.626  34.230   6.887
 3138POPC   C4B43186  21.355  34.088   7.261
 3139POPC   NC343187  17.452  30.980   4.926
 3139POPC   PO443188  17.597  30.615   5.464
 3139POPC   GL143189  17.645  30.644   5.874
 3139POPC   GL243190  17.337  30.764   5.927
 3139POPC   C1A43191  17.718  30.878   6.269
 3139POPC   D2A43192  17.554  30.809   6.672
 3139POPC   C3A43193  17.803  30.926   7.040
 3139POPC   C4A43194  17.738  30.686   7.417
 3139POPC   C1B43195  17.123  30.812   6.325
 3139POPC   C2B43196  17.096  31.068   6.692
 3139POPC   C3B43197  17.279  30.988   7.083
 3139POPC   C4B43198  17.357  30.561   7.094
 3140POPC   NC343199  32.006  32.206   5.345
 3140POPC   PO443200  32.638  32.068   5.411
 3140POPC   GL143201  32.417  32.253   5.726
 3140POPC   GL243202  32.081  32.361   5.839
 3140POPC   C1A43203  32.537  32.335   6.126
 3140POPC   D2A43204  32.498  32.170   6.488
 3140POPC   C3A43205  32.391  32.375   6.833
 3140POPC   C4A43206  32.445  32.315   7.275
 3140POPC   C1B43207  32.037  32.339   6.299
 3140POPC   C2B43208  32.030  32.054   6.657
 3140POPC   C3B43209  31.971  32.192   7.085
 3140POPC   C4B43210  32.024  32.156   7.529
 3141POPC   NC343211   0.991  28.312   5.253
 3141POPC   PO443212   1.513  28.599   5.549
 3141POPC   GL143213   1.090  28.591   5.686
 3141POPC   GL243214   1.017  28.270   5.770
 3141POPC   C1A43215   1.034  28.696   6.120
 3141POPC   D2A43216   1.358  28.647   6.472
 3141POPC   C3A43217   1.274  28.421   6.857
 3141POPC   C4A43218   1.180  28.409   7.303
 3141POPC   C1B43219   1.085  28.181   6.200
 3141POPC   C2B43220   0.950  28.074   6.609
 3141POPC   C3B43221   1.094  27.988   7.026
 3141POPC   C4B43222   1.157  27.936   7.510
 3142POPC   NC343223  40.204  16.454   5.387
 3142POPC   PO443224  39.653  16.880   5.513
 3142POPC   GL143225  39.910  16.623   5.807
 3142POPC   GL243226  40.263  16.656   5.860
 3142POPC   C1A43227  39.915  16.503   6.250
 3142POPC   D2A43228  40.045  16.534   6.679
 3142POPC   C3A43229  39.902  16.475   7.099
 3142POPC   C4A43230  39.779  16.859   7.313
 3142POPC   C1B43231  40.379  16.755   6.279
 3142POPC   C2B43232  40.248  16.995   6.623
 3142POPC   C3B43233  40.240  16.878   7.037
 3142POPC   C4B43234  40.428  16.533   7.210
 3143POPC   NC343235  11.230   9.623   5.231
 3143POPC   PO443236  11.577  10.217   5.264
 3143POPC   GL143237  11.423   9.922   5.620
 3143POPC   GL243238  11.579  10.110   5.847
 3143POPC   C1A43239  11.334   9.726   6.074
 3143POPC   D2A43240  11.045   9.834   6.473
 3143POPC   C3A43241  10.942   9.754   6.937
 3143POPC   C4A43242  11.197   9.514   7.252
 3143POPC   C1B43243  11.315  10.198   6.219
 3143POPC   C2B43244  11.526  10.051   6.548
 3143POPC   C3B43245  11.433   9.842   6.908
 3143POPC   C4B43246  11.450   9.985   7.337
 3144POPC   NC343247  30.155  12.467   5.343
 3144POPC   PO443248  29.659  12.112   5.612
 3144POPC   GL143249  30.008  12.040   5.881
 3144POPC   GL243250  30.178  12.375   5.859
 3144POPC   C1A43251  29.906  11.842   6.290
 3144POPC   D2A43252  30.077  11.794   6.715
 3144POPC   C3A43253  29.817  11.974   7.099
 3144POPC   C4A43254  29.608  12.284   7.415
 3144POPC   C1B43255  30.118  12.302   6.332
 3144POPC   C2B43256  30.069  12.319   6.796
 3144POPC   C3B43257  30.055  12.439   7.231
 3144POPC   C4B43258  30.313  12.456   7.613
 3145POPC   NC343259  23.437  31.197   5.236
 3145POPC   PO443260  23.988  31.429   5.453
 3145POPC   GL143261  23.689  31.264   5.730
 3145POPC   GL243262  23.768  31.528   5.945
 3145POPC   C1A43263  23.507  31.126   6.127
 3145POPC   D2A43264  23.565  31.431   6.480
 3145POPC   C3A43265  23.675  31.241   6.879
 3145POPC   C4A43266  23.794  31.351   7.289
 3145POPC   C1B43267  23.953  31.804   6.274
 3145POPC   C2B43268  23.862  31.875   6.728
 3145POPC   C3B43269  24.084  31.733   7.117
 3145POPC   C4B43270  24.035  31.701   7.600
 3146POPC   NC343271   0.367  21.585   5.521
 3146POPC   PO443272   0.765  21.035   5.554
 3146POPC   GL143273   0.659  21.368   5.859
 3146POPC   GL243274   0.833  21.703   5.776
 3146POPC   C1A43275   0.300  21.420   6.193
 3146POPC   D2A43276   0.069  21.323   6.583
 3146POPC   C3A43277   0.318  21.392   6.909
 3146POPC   C4A43278   0.266  21.634   7.258
 3146POPC   C1B43279   0.685  21.773   6.180
 3146POPC   C2B43280   0.696  21.596   6.573
 3146POPC   C3B43281   0.679  21.753   6.983
 3146POPC   C4B43282   0.526  22.078   7.240
 3147POPC   NC343283  35.745  34.278   5.459
 3147POPC   PO443284  35.295  34.744   5.624
 3147POPC   GL143285  35.152  34.474   5.944
 3147POPC   GL243286  35.179  34.116   5.832
 3147POPC   C1A43287  35.259  34.622   6.372
 3147POPC   D2A43288  35.414  34.969   6.654
 3147POPC   C3A43289  35.314  34.794   7.040
 3147POPC   C4A43290  35.531  34.476   7.191
 3147POPC   C1B43291  35.372  34.118   6.258
 3147POPC   C2B43292  35.445  34.220   6.706
 3147POPC   C3B43293  35.210  34.099   7.058
 3147POPC   C4B43294  34.982  34.420   7.217
 3148POPC   NC343295  16.230  15.831   5.165
 3148POPC   PO443296  16.846  15.950   5.356
 3148POPC   GL143297  16.599  15.822   5.737
 3148POPC   GL243298  16.618  16.141   5.896
 3148POPC   C1A43299  16.612  15.733   6.217
 3148POPC   D2A43300  16.892  15.742   6.615
 3148POPC   C3A43301  16.728  15.882   7.025
 3148POPC   C4A43302  16.651  15.703   7.455
 3148POPC   C1B43303  16.982  16.082   6.208
 3148POPC   C2B43304  17.145  16.190   6.643
 3148POPC   C3B43305  17.222  16.099   7.091
 3148POPC   C4B43306  16.918  16.140   7.422
 3149POPC   NC343307   5.822  18.950   5.441
 3149POPC   PO443308   6.333  18.663   5.708
 3149POPC   GL143309   6.008  18.868   5.936
 3149POPC   GL243310   5.827  19.191   5.891
 3149POPC   C1A43311   6.071  19.031   6.344
 3149POPC   D2A43312   6.037  18.876   6.758
 3149POPC   C3A43313   6.159  19.128   7.077
 3149POPC   C4A43314   6.310  18.801   7.295
 3149POPC   C1B43315   5.578  19.193   6.245
 3149POPC   C2B43316   5.686  19.217   6.655
 3149POPC   C3B43317   5.628  19.073   7.038
 3149POPC   C4B43318   5.393  19.205   7.361
 3150POPC   NC343319  35.808  26.302   5.295
 3150POPC   PO443320  36.181  25.727   5.333
 3150POPC   GL143321  36.200  26.017   5.715
 3150POPC   GL243322  35.970  26.308   5.806
 3150POPC   C1A43323  36.094  25.979   6.185
 3150POPC   D2A43324  36.057  25.839   6.619
 3150POPC   C3A43325  35.924  25.913   7.042
 3150POPC   C4A43326  36.149  26.199   7.251
 3150POPC   C1B43327  35.899  26.437   6.270
 3150POPC   C2B43328  36.023  26.375   6.713
 3150POPC   C3B43329  35.770  26.481   7.083
 3150POPC   C4B43330  35.859  26.490   7.553
 3151POPC   NC343331  11.047  28.429   5.342
 3151POPC   PO443332  11.645  28.692   5.528
 3151POPC   GL143333  11.403  28.441   5.858
 3151POPC   GL243334  11.106  28.193   5.802
 3151POPC   C1A43335  11.596  28.343   6.281
 3151POPC   D2A43336  11.474  28.375   6.745
 3151POPC   C3A43337  11.624  28.444   7.183
 3151POPC   C4A43338  11.552  28.682   7.600
 3151POPC   C1B43339  11.105  28.418   6.250
 3151POPC   C2B43340  10.955  28.421   6.669
 3151POPC   C3B43341  11.059  28.310   7.098
 3151POPC   C4B43342  11.284  28.222   7.511
 3152POPC   NC343343  30.419  17.645   5.217
 3152POPC   PO443344  30.839  17.052   5.343
 3152POPC   GL143345  30.565  17.300   5.635
 3152POPC   GL243346  30.868  17.458   5.774
 3152POPC   C1A43347  30.453  17.476   6.069
 3152POPC   D2A43348  30.458  17.701   6.465
 3152POPC   C3A43349  30.363  17.552   6.848
 3152POPC   C4A43350  30.433  17.667   7.257
 3152POPC   C1B43351  30.915  17.632   6.210
 3152POPC   C2B43352  30.884  17.488   6.640
 3152POPC   C3B43353  30.924  17.651   7.050
 3152POPC   C4B43354  31.114  18.063   7.027
 3153POPC   NC343355   9.409  31.262   5.380
 3153POPC   PO443356   8.920  31.787   5.387
 3153POPC   GL143357   8.939  31.482   5.729
 3153POPC   GL243358   8.981  31.131   5.626
 3153POPC   C1A43359   8.755  31.587   6.131
 3153POPC   D2A43360   8.872  31.727   6.521
 3153POPC   C3A43361   9.079  31.430   6.782
 3153POPC   C4A43362   8.928  31.500   7.170
 3153POPC   C1B43363   8.792  31.082   6.030
 3153POPC   C2B43364   8.684  31.193   6.472
 3153POPC   C3B43365   8.698  31.110   6.909
 3153POPC   C4B43366   8.706  31.015   7.337
 3154POPC   NC343367  31.394   8.202   5.350
 3154POPC   PO443368  32.030   8.137   5.574
 3154POPC   GL143369  31.646   8.117   5.818
 3154POPC   GL243370  31.376   8.349   5.844
 3154POPC   C1A43371  31.632   8.220   6.270
 3154POPC   D2A43372  31.891   8.102   6.595
 3154POPC   C3A43373  31.665   7.994   6.956
 3154POPC   C4A43374  31.669   8.283   7.302
 3154POPC   C1B43375  31.153   8.081   6.143
 3154POPC   C2B43376  31.118   8.210   6.577
 3154POPC   C3B43377  31.238   8.292   6.987
 3154POPC   C4B43378  31.179   8.448   7.399
 3155POPC   NC343379  33.667  19.732   5.445
 3155POPC   PO443380  34.230  20.097   5.539
 3155POPC   GL143381  34.010  19.789   5.843
 3155POPC   GL243382  33.781  20.023   5.868
 3155POPC   C1A43383  33.834  19.705   6.291
 3155POPC   D2A43384  33.685  19.489   6.678
 3155POPC   C3A43385  33.782  19.727   7.075
 3155POPC   C4A43386  33.591  19.864   7.506
 3155POPC   C1B43387  34.095  20.135   6.228
 3155POPC   C2B43388  34.133  20.029   6.689
 3155POPC   C3B43389  33.974  20.207   7.089
 3155POPC   C4B43390  33.970  20.174   7.563
 3156POPC   NC343391  21.557  36.433   5.394
 3156POPC   PO443392  21.164  35.902   5.427
 3156POPC   GL143393  21.444  35.909   5.778
 3156POPC   GL243394  21.383  36.240   5.832
 3156POPC   C1A43395  21.671  36.057   6.190
 3156POPC   D2A43396  21.441  36.157   6.559
 3156POPC   C3A43397  21.545  36.214   6.960
 3156POPC   C4A43398  21.562  36.145   7.373
 3156POPC   C1B43399  21.124  36.052   6.158
 3156POPC   C2B43400  20.922  36.126   6.526
 3156POPC   C3B43401  21.042  36.114   6.936
 3156POPC   C4B43402  21.273  35.811   7.121
 3157POPC   NC343403  27.427   7.485   5.347
 3157POPC   PO443404  27.832   7.687   5.742
 3157POPC   GL143405  27.649   7.336   5.921
 3157POPC   GL243406  27.329   7.198   5.806
 3157POPC   C1A43407  27.613   7.381   6.361
 3157POPC   D2A43408  27.993   7.406   6.616
 3157POPC   C3A43409  28.048   7.481   7.058
 3157POPC   C4A43410  27.731   7.661   7.291
 3157POPC   C1B43411  27.210   7.563   6.092
 3157POPC   C2B43412  27.260   7.718   6.546
 3157POPC   C3B43413  27.481   7.529   6.854
 3157POPC   C4B43414  27.267   7.429   7.204
 3158POPC   NC343415  13.645  43.811   5.418
 3158POPC   PO443416  14.373  43.867   5.485
 3158POPC   GL143417  13.951  43.813   5.823
 3158POPC   GL243418  13.704  44.111   5.862
 3158POPC   C1A43419  13.614  43.756   6.199
 3158POPC   D2A43420  13.356  43.961   6.536
 3158POPC   C3A43421  13.525  43.892   6.925
 3158POPC   C4A43422  13.512  43.824   7.323
 3158POPC   C1B43423  13.583  44.340   6.262
 3158POPC   C2B43424  13.690  44.357   6.739
 3158POPC   C3B43425  13.672  44.326   7.220
 3158POPC   C4B43426  13.761  44.420   7.682
 3159POPC   NC343427  20.026  30.280   5.423
 3159POPC   PO443428  19.562  29.800   5.436
 3159POPC   GL143429  19.709  30.030   5.816
 3159POPC   GL243430  20.059  30.058   5.874
 3159POPC   C1A43431  19.743  29.946   6.279
 3159POPC   D2A43432  19.900  30.068   6.725
 3159POPC   C3A43433  19.585  29.939   7.083
 3159POPC   C4A43434  19.565  29.872   7.579
 3159POPC   C1B43435  20.235  29.988   6.269
 3159POPC   C2B43436  20.151  29.638   6.557
 3159POPC   C3B43437  19.993  29.623   6.978
 3159POPC   C4B43438  20.046  29.972   7.261
 3160POPC   NC343439  42.358   8.693   5.311
 3160POPC   PO443440  42.665   8.108   5.355
 3160POPC   GL143441  42.396   8.291   5.687
 3160POPC   GL243442  42.592   8.545   5.774
 3160POPC   C1A43443  42.199   8.463   6.091
 3160POPC   D2A43444  42.334   8.543   6.538
 3160POPC   C3A43445  42.080   8.428   6.921
 3160POPC   C4A43446  42.067   8.091   7.212
 3160POPC   C1B43447  42.665   8.281   6.171
 3160POPC   C2B43448  42.783   8.296   6.605
 3160POPC   C3B43449  42.600   8.436   7.001
 3160POPC   C4B43450  42.693   8.400   7.430
 3161POPC   NC343451  38.776  12.528   5.533
 3161POPC   PO443452  38.359  13.082   5.463
 3161POPC   GL143453  38.443  12.795   5.826
 3161POPC   GL243454  38.680  12.621   6.020
 3161POPC   C1A43455  38.221  12.716   6.206
 3161POPC   D2A43456  38.322  12.937   6.570
 3161POPC   C3A43457  38.507  12.674   6.886
 3161POPC   C4A43458  38.479  12.826   7.297
 3161POPC   C1B43459  38.681  13.059   6.177
 3161POPC   C2B43460  38.809  13.176   6.584
 3161POPC   C3B43461  38.873  13.036   6.960
 3161POPC   C4B43462  38.834  13.193   7.337
 3162POPC   NC343463   2.568  34.235   5.488
 3162POPC   PO443464   3.176  34.547   5.257
 3162POPC   GL143465   3.015  34.392   5.721
 3162POPC   GL243466   2.725  34.335   5.942
 3162POPC   C1A43467   3.103  34.310   6.242
 3162POPC   D2A43468   2.867  34.311   6.667
 3162POPC   C3A43469   2.875  34.491   7.129
 3162POPC   C4A43470   3.058  34.515   7.575
 3162POPC   C1B43471   2.613  34.575   6.299
 3162POPC   C2B43472   2.584  34.857   6.663
 3162POPC   C3B43473   2.494  34.847   7.099
 3162POPC   C4B43474   2.752  34.902   7.467
 3163POPC   NC343475  10.451  24.627   5.430
 3163POPC   PO443476  10.578  23.964   5.410
 3163POPC   GL143477  10.474  24.223   5.787
 3163POPC   GL243478  10.245  24.487   5.867
 3163POPC   C1A43479  10.439  24.120   6.213
 3163POPC   D2A43480  10.655  24.231   6.603
 3163POPC   C3A43481  10.345  24.287   6.952
 3163POPC   C4A43482  10.163  24.658   7.147
 3163POPC   C1B43483  10.503  24.621   6.190
 3163POPC   C2B43484  10.455  24.698   6.615
 3163POPC   C3B43485  10.726  24.638   6.965
 3163POPC   C4B43486  10.846  24.531   7.374
 3164POPC   NC343487  23.262  16.881   5.175
 3164POPC   PO443488  22.674  16.724   5.078
 3164POPC   GL143489  22.931  16.805   5.609
 3164POPC   GL243490  22.932  16.475   5.856
 3164POPC   C1A43491  23.078  16.883   6.105
 3164POPC   D2A43492  23.152  16.811   6.619
 3164POPC   C3A43493  22.942  16.990   7.036
 3164POPC   C4A43494  23.051  17.046   7.504
 3164POPC   C1B43495  23.011  16.366   6.329
 3164POPC   C2B43496  23.134  16.140   6.747
 3164POPC   C3B43497  23.049  16.098   7.211
 3164POPC   C4B43498  22.788  16.169   7.570
 3165POPC   NC343499  33.510   8.204   5.527
 3165POPC   PO443500  34.067   8.627   5.379
 3165POPC   GL143501  34.040   8.288   5.726
 3165POPC   GL243502  33.880   7.928   5.761
 3165POPC   C1A43503  34.076   8.165   6.172
 3165POPC   D2A43504  33.833   8.302   6.517
 3165POPC   C3A43505  33.978   8.116   6.887
 3165POPC   C4A43506  33.705   8.168   7.242
 3165POPC   C1B43507  33.627   7.895   6.161
 3165POPC   C2B43508  33.703   7.781   6.593
 3165POPC   C3B43509  33.690   7.695   7.049
 3165POPC   C4B43510  33.620   7.760   7.545
 3166POPC   NC343511  38.391  38.605   5.374
 3166POPC   PO443512  37.988  38.141   5.510
 3166POPC   GL143513  38.306  38.347   5.834
 3166POPC   GL243514  38.511  38.654   5.850
 3166POPC   C1A43515  38.335  38.472   6.313
 3166POPC   D2A43516  38.475  38.290   6.738
 3166POPC   C3A43517  38.453  38.204   7.206
 3166POPC   C4A43518  38.119  38.176   7.539
 3166POPC   C1B43519  38.190  38.892   6.058
 3166POPC   C2B43520  37.932  38.813   6.448
 3166POPC   C3B43521  38.045  38.928   6.892
 3166POPC   C4B43522  38.299  38.753   7.225
 3167POPC   NC343523  44.660  20.913   5.436
 3167POPC   PO443524  44.572  20.271   5.725
 3167POPC   GL143525  44.716  20.606   5.957
 3167POPC   GL243526  44.594  20.934   5.946
 3167POPC   C1A43527  44.541  20.631   6.380
 3167POPC   D2A43528  44.405  20.267   6.644
 3167POPC   C3A43529  44.571  20.340   7.065
 3167POPC   C4A43530   0.034  20.429   7.120
 3167POPC   C1B43531  44.938  20.956   6.256
 3167POPC   C2B43532  44.866  20.852   6.726
 3167POPC   C3B43533  44.675  20.832   7.131
 3167POPC   C4B43534  44.270  20.951   7.305
 3168POPC   NC343535  22.052  34.978   5.612
 3168POPC   PO443536  22.002  34.395   5.365
 3168POPC   GL143537  22.064  34.435   5.772
 3168POPC   GL243538  22.332  34.231   5.781
 3168POPC   C1A43539  21.869  34.630   6.157
 3168POPC   D2A43540  22.052  34.630   6.538
 3168POPC   C3A43541  21.901  34.664   6.940
 3168POPC   C4A43542  22.116  34.324   7.087
 3168POPC   C1B43543  22.391  34.471   6.164
 3168POPC   C2B43544  22.584  34.672   6.520
 3168POPC   C3B43545  22.513  34.632   6.934
 3168POPC   C4B43546  22.288  34.876   7.230
 3169POPC   NC343547  35.784  43.453   5.385
 3169POPC   PO443548  35.795  42.767   5.488
 3169POPC   GL143549  35.677  43.161   5.812
 3169POPC   GL243550  35.333  43.323   5.804
 3169POPC   C1A43551  35.595  43.279   6.299
 3169POPC   D2A43552  35.623  43.016   6.672
 3169POPC   C3A43553  35.608  43.054   7.124
 3169POPC   C4A43554  35.441  43.150   7.571
 3169POPC   C1B43555  35.106  43.171   6.231
 3169POPC   C2B43556  35.143  43.166   6.700
 3169POPC   C3B43557  35.100  43.109   7.155
 3169POPC   C4B43558  34.934  43.110   7.593
 3170POPC   NC343559  29.383   0.291   5.054
 3170POPC   PO443560  28.951   0.428   5.503
 3170POPC   GL143561  29.135   0.596   5.883
 3170POPC   GL243562  29.301   0.911   5.781
 3170POPC   C1A43563  29.288   0.353   6.255
 3170POPC   D2A43564  29.199   0.172   6.669
 3170POPC   C3A43565  29.245   0.431   7.035
 3170POPC   C4A43566  29.092   0.350   7.442
 3170POPC   C1B43567  29.271   0.888   6.266
 3170POPC   C2B43568  29.065   0.684   6.601
 3170POPC   C3B43569  28.951   0.843   6.996
 3170POPC   C4B43570  29.155   0.871   7.368
 3171POPC   NC343571   7.760   0.542   5.254
 3171POPC   PO443572   7.120   0.516   5.524
 3171POPC   GL143573   7.300   0.571   5.882
 3171POPC   GL243574   7.604   0.656   5.749
 3171POPC   C1A43575   7.359   0.325   6.279
 3171POPC   D2A43576   7.585   0.095   6.597
 3171POPC   C3A43577   7.459   0.291   6.926
 3171POPC   C4A43578   7.206   0.295   7.259
 3171POPC   C1B43579   7.711   0.692   6.194
 3171POPC   C2B43580   7.784   0.681   6.647
 3171POPC   C3B43581   7.780   0.626   7.108
 3171POPC   C4B43582   7.702   0.281   7.393
 3172POPC   NC343583  19.406  36.838   5.443
 3172POPC   PO443584  18.819  36.564   5.297
 3172POPC   GL143585  18.818  36.731   5.713
 3172POPC   GL243586  19.097  36.561   5.803
 3172POPC   C1A43587  18.867  36.922   6.108
 3172POPC   D2A43588  18.912  37.084   6.500
 3172POPC   C3A43589  18.954  36.885   6.894
 3172POPC   C4A43590  18.980  37.222   7.095
 3172POPC   C1B43591  19.372  36.802   6.096
 3172POPC   C2B43592  19.328  36.808   6.527
 3172POPC   C3B43593  19.465  36.967   6.910
 3172POPC   C4B43594  19.306  36.827   7.276
 3173POPC   NC343595  26.526  17.795   4.999
 3173POPC   PO443596  25.975  17.654   5.375
 3173POPC   GL143597  25.946  17.596   5.795
 3173POPC   GL243598  26.264  17.573   5.797
 3173POPC   C1A43599  25.885  17.404   6.196
 3173POPC   D2A43600  25.626  17.457   6.570
 3173POPC   C3A43601  25.841  17.683   6.929
 3173POPC   C4A43602  26.090  17.486   7.262
 3173POPC   C1B43603  26.368  17.264   6.100
 3173POPC   C2B43604  26.315  17.119   6.543
 3173POPC   C3B43605  26.385  17.162   6.987
 3173POPC   C4B43606  26.431  17.105   7.455
 3174POPC   NC343607   4.348  29.549   5.700
 3174POPC   PO443608   4.645  30.060   5.386
 3174POPC   GL143609   4.489  30.092   5.839
 3174POPC   GL243610   4.178  29.941   5.955
 3174POPC   C1A43611   4.542  30.017   6.309
 3174POPC   D2A43612   4.251  29.967   6.661
 3174POPC   C3A43613   4.402  29.780   7.056
 3174POPC   C4A43614   4.221  29.802   7.452
 3174POPC   C1B43615   4.243  29.598   6.315
 3174POPC   C2B43616   4.293  29.417   6.723
 3174POPC   C3B43617   4.046  29.409   7.129
 3174POPC   C4B43618   3.684  29.320   7.382
 3175POPC   NC343619  36.760  44.525   5.297
 3175POPC   PO443620  37.405  44.497   5.596
 3175POPC   GL143621  37.075  44.756   5.788
 3175POPC   GL243622  36.746  44.607   5.816
 3175POPC   C1A43623  37.074   0.032   6.157
 3175POPC   D2A43624  36.837   0.102   6.548
 3175POPC   C3A43625  36.998  44.878   6.916
 3175POPC   C4A43626  37.008  44.489   7.142
 3175POPC   C1B43627  36.759  44.632   6.277
 3175POPC   C2B43628  36.697  44.492   6.706
 3175POPC   C3B43629  36.523  44.349   7.107
 3175POPC   C4B43630  36.713  44.333   7.530
 3176POPC   NC343631  18.021  34.796   5.535
 3176POPC   PO443632  18.444  34.456   5.142
 3176POPC   GL143633  18.270  34.376   5.675
 3176POPC   GL243634  18.292  34.684   5.948
 3176POPC   C1A43635  18.071  34.315   6.160
 3176POPC   D2A43636  18.137  34.591   6.562
 3176POPC   C3A43637  18.211  34.395   6.969
 3176POPC   C4A43638  18.315  34.385   7.406
 3176POPC   C1B43639  18.560  34.791   6.297
 3176POPC   C2B43640  18.628  34.808   6.765
 3176POPC   C3B43641  18.552  34.789   7.231
 3176POPC   C4B43642  18.643  34.740   7.682
 3177POPC   NC343643  11.052   2.938   5.353
 3177POPC   PO443644  11.727   2.920   5.121
 3177POPC   GL143645  11.509   2.808   5.540
 3177POPC   GL243646  11.397   3.095   5.741
 3177POPC   C1A43647  11.319   2.632   5.973
 3177POPC   D2A43648  11.329   2.436   6.400
 3177POPC   C3A43649  11.558   2.562   6.781
 3177POPC   C4A43650  11.260   2.663   7.114
 3177POPC   C1B43651  11.277   3.088   6.194
 3177POPC   C2B43652  11.395   3.057   6.631
 3177POPC   C3B43653  11.280   3.182   7.062
 3177POPC   C4B43654  11.524   3.006   7.407
 3178POPC   NC343655  41.123  30.092   5.413
 3178POPC   PO443656  40.619  29.804   5.296
 3178POPC   GL143657  40.603  29.909   5.728
 3178POPC   GL243658  40.922  29.976   5.862
 3178POPC   C1A43659  40.547  29.828   6.165
 3178POPC   D2A43660  40.650  30.118   6.497
 3178POPC   C3A43661  40.518  29.994   6.907
 3178POPC   C4A43662  40.656  29.921   7.298
 3178POPC   C1B43663  41.099  30.209   6.202
 3178POPC   C2B43664  41.231  30.167   6.626
 3178POPC   C3B43665  41.020  30.143   7.012
 3178POPC   C4B43666  41.032  30.350   7.424
 3179POPC   NC343667  13.238   0.590   5.340
 3179POPC   PO443668  13.707   0.166   5.385
 3179POPC   GL143669  13.632   0.381   5.771
 3179POPC   GL243670  13.347   0.653   5.827
 3179POPC   C1A43671  13.793   0.263   6.173
 3179POPC   D2A43672  13.958   0.436   6.550
 3179POPC   C3A43673  13.739   0.269   6.914
 3179POPC   C4A43674  13.603   0.241   7.330
 3179POPC   C1B43675  13.277   0.356   6.138
 3179POPC   C2B43676  13.412   0.260   6.524
 3179POPC   C3B43677  13.224   0.407   6.882
 3179POPC   C4B43678  13.114   0.200   7.221
 3180POPC   NC343679  24.000  17.657   5.448
 3180POPC   PO443680  23.428  17.335   5.318
 3180POPC   GL143681  23.641  17.323   5.764
 3180POPC   GL243682  23.723  17.619   5.894
 3180POPC   C1A43683  23.659  17.113   6.175
 3180POPC   D2A43684  23.628  17.353   6.553
 3180POPC   C3A43685  23.711  17.322   7.005
 3180POPC   C4A43686  23.386  17.369   7.314
 3180POPC   C1B43687  23.921  17.784   6.271
 3180POPC   C2B43688  24.052  17.624   6.682
 3180POPC   C3B43689  23.922  17.819   7.081
 3180POPC   C4B43690  23.819  17.941   7.505
 3181POPC   NC343691  21.696   3.329   5.441
 3181POPC   PO443692  21.208   3.717   5.384
 3181POPC   GL143693  21.432   3.638   5.770
 3181POPC   GL243694  21.436   3.275   5.877
 3181POPC   C1A43695  21.478   3.698   6.221
 3181POPC   D2A43696  21.723   3.765   6.607
 3181POPC   C3A43697  21.458   3.832   6.959
 3181POPC   C4A43698  21.285   3.543   7.304
 3181POPC   C1B43699  21.762   3.283   6.195
 3181POPC   C2B43700  21.906   3.256   6.594
 3181POPC   C3B43701  21.665   3.351   6.924
 3181POPC   C4B43702  21.867   3.398   7.302
 3182POPC   NC343703   6.028  12.386   5.395
 3182POPC   PO443704   5.548  12.859   5.373
 3182POPC   GL143705   5.709  12.888   5.820
 3182POPC   GL243706   6.050  12.778   5.866
 3182POPC   C1A43707   5.712  12.796   6.280
 3182POPC   D2A43708   5.551  12.601   6.662
 3182POPC   C3A43709   5.741  12.743   7.039
 3182POPC   C4A43710   5.459  12.760   7.345
 3182POPC   C1B43711   6.237  12.867   6.256
 3182POPC   C2B43712   6.146  13.186   6.524
 3182POPC   C3B43713   6.097  13.151   6.946
 3182POPC   C4B43714   6.250  12.836   7.227
 3183POPC   NC343715  33.547   3.346   5.511
 3183POPC   PO443716  34.226   3.478   5.260
 3183POPC   GL143717  33.949   3.551   5.743
 3183POPC   GL243718  33.721   3.269   5.993
 3183POPC   C1A43719  33.789   3.741   6.161
 3183POPC   D2A43720  33.708   3.604   6.595
 3183POPC   C3A43721  33.629   3.775   6.985
 3183POPC   C4A43722  33.871   3.522   7.283
 3183POPC   C1B43723  33.659   3.108   6.450
 3183POPC   C2B43724  33.645   3.215   6.921
 3183POPC   C3B43725  33.539   3.112   7.362
 3183POPC   C4B43726  33.618   3.322   7.787
 3184POPC   NC343727   1.007   2.641   5.511
 3184POPC   PO443728   1.708   2.961   5.418
 3184POPC   GL143729   1.392   2.969   5.759
 3184POPC   GL243730   1.453   2.626   5.859
 3184POPC   C1A43731   1.136   2.981   6.170
 3184POPC   D2A43732   0.950   3.039   6.612
 3184POPC   C3A43733   0.967   2.703   6.938
 3184POPC   C4A43734   1.068   2.735   7.389
 3184POPC   C1B43735   1.634   2.835   6.225
 3184POPC   C2B43736   1.394   2.813   6.616
 3184POPC   C3B43737   1.409   2.937   7.050
 3184POPC   C4B43738   1.692   2.844   7.379
 3185POPC   NC343739  38.892  27.750   5.460
 3185POPC   PO443740  39.250  27.234   5.203
 3185POPC   GL143741  39.347  27.334   5.659
 3185POPC   GL243742  39.348  27.691   5.747
 3185POPC   C1A43743  39.416  27.353   6.122
 3185POPC   D2A43744  39.037  27.382   6.398
 3185POPC   C3A43745  39.016  27.677   6.765
 3185POPC   C4A43746  38.959  27.458   7.157
 3185POPC   C1B43747  39.249  27.883   6.166
 3185POPC   C2B43748  39.437  28.044   6.551
 3185POPC   C3B43749  39.594  28.058   6.967
 3185POPC   C4B43750  39.359  27.783   7.244
 3186POPC   NC343751  41.887  16.094   5.359
 3186POPC   PO443752  41.221  15.919   5.333
 3186POPC   GL143753  41.496  15.941   5.711
 3186POPC   GL243754  41.672  16.247   5.828
 3186POPC   C1A43755  41.340  15.911   6.123
 3186POPC   D2A43756  41.313  16.185   6.485
 3186POPC   C3A43757  41.344  16.083   6.918
 3186POPC   C4A43758  41.210  16.076   7.340
 3186POPC   C1B43759  41.801  16.065   6.228
 3186POPC   C2B43760  41.649  15.789   6.542
 3186POPC   C3B43761  41.816  15.842   6.925
 3186POPC   C4B43762  41.710  16.000   7.283
 3187POPC   NC343763  33.635  27.780   5.603
 3187POPC   PO443764  34.236  27.445   5.391
 3187POPC   GL143765  34.083  27.550   5.836
 3187POPC   GL243766  33.886  27.829   6.030
 3187POPC   C1A43767  33.990  27.398   6.272
 3187POPC   D2A43768  34.249  27.369   6.623
 3187POPC   C3A43769  34.026  27.583   6.914
 3187POPC   C4A43770  33.702  27.314   7.090
 3187POPC   C1B43771  33.565  27.719   6.358
 3187POPC   C2B43772  33.478  27.680   6.819
 3187POPC   C3B43773  33.473  27.706   7.298
 3187POPC   C4B43774  33.360  27.836   7.748
 3188POPC   NC343775  29.157  14.793   5.494
 3188POPC   PO443776  29.483  14.252   5.503
 3188POPC   GL143777  29.252  14.412   5.848
 3188POPC   GL243778  29.453  14.663   5.936
 3188POPC   C1A43779  29.115  14.559   6.292
 3188POPC   D2A43780  29.373  14.564   6.677
 3188POPC   C3A43781  29.148  14.432   7.024
 3188POPC   C4A43782  29.120  14.367   7.457
 3188POPC   C1B43783  29.540  14.290   6.272
 3188POPC   C2B43784  29.556  14.055   6.665
 3188POPC   C3B43785  29.491  14.002   7.140
 3188POPC   C4B43786  29.542  14.140   7.611
 3189POPC   NC343787  44.001  31.080   5.313
 3189POPC   PO443788  43.644  31.634   5.483
 3189POPC   GL143789  43.719  31.477   5.901
 3189POPC   GL243790  43.897  31.223   5.810
 3189POPC   C1A43791  44.032  31.436   6.269
 3189POPC   D2A43792  44.223  31.420   6.679
 3189POPC   C3A43793  43.968  31.569   7.006
 3189POPC   C4A43794  43.536  31.692   6.960
 3189POPC   C1B43795  43.728  31.036   6.199
 3189POPC   C2B43796  43.855  31.054   6.666
 3189POPC   C3B43797  43.682  31.164   7.088
 3189POPC   C4B43798  43.617  31.079   7.525
 3190POPC   NC343799  34.419   3.773   5.556
 3190POPC   PO443800  34.974   3.315   5.479
 3190POPC   GL143801  34.763   3.500   5.842
 3190POPC   GL243802  34.413   3.363   5.847
 3190POPC   C1A43803  34.619   3.585   6.297
 3190POPC   D2A43804  34.712   3.774   6.730
 3190POPC   C3A43805  34.733   3.563   7.171
 3190POPC   C4A43806  34.813   3.618   7.662
 3190POPC   C1B43807  34.156   3.397   6.229
 3190POPC   C2B43808  34.186   3.767   6.532
 3190POPC   C3B43809  34.251   3.683   6.971
 3190POPC   C4B43810  34.316   3.272   7.212
 3191POPC   NC343811  11.289  18.715   5.218
 3191POPC   PO443812  11.475  18.083   5.443
 3191POPC   GL143813  11.303  18.095   5.849
 3191POPC   GL243814  11.551  17.935   5.964
 3191POPC   C1A43815  11.074  18.301   6.191
 3191POPC   D2A43816  11.193  18.541   6.563
 3191POPC   C3A43817  11.051  18.341   6.929
 3191POPC   C4A43818  11.175  18.293   7.348
 3191POPC   C1B43819  11.495  18.068   6.372
 3191POPC   C2B43820  11.246  17.924   6.678
 3191POPC   C3B43821  11.317  17.907   7.086
 3191POPC   C4B43822  11.647  18.005   7.364
 3192POPC   NC343823  11.414  40.616   4.943
 3192POPC   PO443824  11.293  41.102   5.328
 3192POPC   GL143825  11.283  40.972   5.799
 3192POPC   GL243826  11.172  40.619   5.830
 3192POPC   C1A43827  11.061  40.945   6.225
 3192POPC   D2A43828  11.316  40.826   6.592
 3192POPC   C3A43829  11.493  41.047   6.941
 3192POPC   C4A43830  11.341  40.790   7.253
 3192POPC   C1B43831  11.341  40.480   6.204
 3192POPC   C2B43832  11.212  40.318   6.592
 3192POPC   C3B43833  11.181  40.391   6.981
 3192POPC   C4B43834  11.489  40.266   7.228
 3193POPC   NC343835  35.099  19.304   5.459
 3193POPC   PO443836  35.734  19.042   5.279
 3193POPC   GL143837  35.468  19.034   5.735
 3193POPC   GL243838  35.147  18.850   5.773
 3193POPC   C1A43839  35.335  19.172   6.191
 3193POPC   D2A43840  35.132  19.243   6.632
 3193POPC   C3A43841  35.297  19.004   6.998
 3193POPC   C4A43842  35.264  19.086   7.448
 3193POPC   C1B43843  35.442  18.658   6.118
 3193POPC   C2B43844  35.611  18.520   6.559
 3193POPC   C3B43845  35.664  18.586   7.026
 3193POPC   C4B43846  35.588  18.712   7.449
 3194POPC   NC343847   1.538   0.751   5.342
 3194POPC   PO443848   0.856   0.564   5.274
 3194POPC   GL143849   1.124   0.471   5.655
 3194POPC   GL243850   0.840   0.442   5.826
 3194POPC   C1A43851   1.187   0.180   6.066
 3194POPC   D2A43852   1.449   0.315   6.431
 3194POPC   C3A43853   1.346   0.205   6.853
 3194POPC   C4A43854   1.293   0.395   7.239
 3194POPC   C1B43855   0.957   0.603   6.242
 3194POPC   C2B43856   0.836   0.780   6.618
 3194POPC   C3B43857   1.195   0.716   6.857
 3194POPC   C4B43858   1.213   0.889   7.259
 3195POPC   NC343859   9.248  36.368   5.379
 3195POPC   PO443860   9.492  35.752   5.515
 3195POPC   GL143861   9.645  36.186   5.668
 3195POPC   GL243862   9.832  36.045   5.933
 3195POPC   C1A43863   9.534  36.427   6.064
 3195POPC   D2A43864   9.678  36.243   6.482
 3195POPC   C3A43865   9.514  36.369   6.899
 3195POPC   C4A43866   9.656  36.178   7.269
 3195POPC   C1B43867  10.131  36.035   6.262
 3195POPC   C2B43868  10.408  35.982   6.590
 3195POPC   C3B43869  10.159  35.982   6.952
 3195POPC   C4B43870  10.147  36.126   7.338
 3196POPC   NC343871  44.339  13.684   5.371
 3196POPC   PO443872  43.826  13.896   5.158
 3196POPC   GL143873  43.778  13.730   5.624
 3196POPC   GL243874  44.007  13.461   5.712
 3196POPC   C1A43875  43.516  13.659   6.060
 3196POPC   D2A43876  43.390  13.627   6.554
 3196POPC   C3A43877  43.711  13.591   6.936
 3196POPC   C4A43878  43.891  13.863   7.286
 3196POPC   C1B43879  44.276  13.510   6.084
 3196POPC   C2B43880  44.287  13.678   6.532
 3196POPC   C3B43881  44.227  13.624   6.976
 3196POPC   C4B43882  44.140  13.370   7.346
 3197POPC   NC343883  35.223  12.155   5.516
 3197POPC   PO443884  35.835  12.047   5.284
 3197POPC   GL143885  35.692  12.038   5.756
 3197POPC   GL243886  35.514  12.351   5.904
 3197POPC   C1A43887  35.488  11.907   6.181
 3197POPC   D2A43888  35.438  12.134   6.617
 3197POPC   C3A43889  35.505  11.959   7.059
 3197POPC   C4A43890  35.485  11.879   7.539
 3197POPC   C1B43891  35.121  12.266   6.174
 3197POPC   C2B43892  34.986  12.369   6.582
 3197POPC   C3B43893  34.997  12.043   6.942
 3197POPC   C4B43894  35.001  11.985   7.415
 3198POPC   NC343895  42.699  13.825   5.432
 3198POPC   PO443896  42.091  13.372   5.379
 3198POPC   GL143897  42.296  13.527   5.756
 3198POPC   GL243898  42.637  13.403   5.756
 3198POPC   C1A43899  42.346  13.643   6.211
 3198POPC   D2A43900  42.088  13.633   6.594
 3198POPC   C3A43901  42.148  13.788   7.024
 3198POPC   C4A43902  42.171  13.610   7.427
 3198POPC   C1B43903  42.543  13.171   6.126
 3198POPC   C2B43904  42.384  13.132   6.556
 3198POPC   C3B43905  42.493  13.319   6.958
 3198POPC   C4B43906  42.454  13.181   7.387
 3199POPC   NC343907   3.439  24.094   5.618
 3199POPC   PO443908   3.769  23.604   5.470
 3199POPC   GL143909   3.585  23.386   5.843
 3199POPC   GL243910   3.319  23.618   5.884
 3199POPC   C1A43911   3.581  23.234   6.289
 3199POPC   D2A43912   3.477  23.360   6.721
 3199POPC   C3A43913   3.168  23.488   7.023
 3199POPC   C4A43914   3.232  23.614   7.462
 3199POPC   C1B43915   3.345  23.688   6.326
 3199POPC   C2B43916   3.166  23.872   6.691
 3199POPC   C3B43917   3.136  24.010   7.131
 3199POPC   C4B43918   2.930  24.030   7.536
 3200POPC   NC343919   7.786   1.805   5.386
 3200POPC   PO443920   7.139   2.151   5.480
 3200POPC   GL143921   7.410   1.984   5.826
 3200POPC   GL243922   7.782   2.045   5.879
 3200POPC   C1A43923   7.516   1.752   6.223
 3200POPC   D2A43924   7.624   1.634   6.651
 3200POPC   C3A43925   7.578   1.889   7.016
 3200POPC   C4A43926   7.330   1.842   7.368
 3200POPC   C1B43927   7.550   2.275   6.229
 3200POPC   C2B43928   7.394   2.258   6.645
 3200POPC   C3B43929   7.196   2.229   7.042
 3200POPC   C4B43930   7.513   2.330   7.325
 3201POPC   NC343931   9.461   5.654   5.591
 3201POPC   PO443932   8.838   5.814   5.352
 3201POPC   GL143933   8.952   5.957   5.751
 3201POPC   GL243934   9.296   6.026   5.909
 3201POPC   C1A43935   8.798   5.835   6.141
 3201POPC   D2A43936   8.683   6.086   6.488
 3201POPC   C3A43937   8.619   5.865   6.841
 3201POPC   C4A43938   8.717   5.931   7.227
 3201POPC   C1B43939   9.274   5.673   6.216
 3201POPC   C2B43940   9.006   5.624   6.571
 3201POPC   C3B43941   9.131   5.834   6.922
 3201POPC   C4B43942   9.196   5.702   7.293
 3202POPC   NC343943   3.537   7.997   5.611
 3202POPC   PO443944   3.887   8.650   5.517
 3202POPC   GL143945   3.662   8.435   5.831
 3202POPC   GL243946   3.784   8.147   6.015
 3202POPC   C1A43947   3.385   8.375   6.193
 3202POPC   D2A43948   3.336   8.104   6.558
 3202POPC   C3A43949   3.249   8.319   6.942
 3202POPC   C4A43950   3.366   8.714   7.194
 3202POPC   C1B43951   3.831   8.172   6.426
 3202POPC   C2B43952   3.759   7.913   6.760
 3202POPC   C3B43953   3.686   8.103   7.099
 3202POPC   C4B43954   3.670   8.377   7.409
 3203POPC   NC343955  42.257  44.650   4.915
 3203POPC   PO443956  42.473  44.471   5.557
 3203POPC   GL143957  42.425  44.687   5.894
 3203POPC   GL243958  42.120  44.800   5.786
 3203POPC   C1A43959  42.476  44.581   6.298
 3203POPC   D2A43960  42.628  44.745   6.672
 3203POPC   C3A43961  42.448  44.541   7.006
 3203POPC   C4A43962  42.270  44.584   7.419
 3203POPC   C1B43963  41.990  44.930   6.191
 3203POPC   C2B43964  42.113  44.800   6.603
 3203POPC   C3B43965  42.057  44.873   7.030
 3203POPC   C4B43966  42.132   0.260   7.204
 3204POPC   NC343967  32.341   9.416   5.382
 3204POPC   PO443968  31.864   9.930   5.156
 3204POPC   GL143969  32.065   9.905   5.678
 3204POPC   GL243970  31.810  10.006   5.944
 3204POPC   C1A43971  32.347   9.854   6.058
 3204POPC   D2A43972  32.316   9.632   6.483
 3204POPC   C3A43973  32.501   9.726   6.861
 3204POPC   C4A43974  32.437   9.705   7.276
 3204POPC   C1B43975  31.898   9.653   6.199
 3204POPC   C2B43976  31.819   9.620   6.629
 3204POPC   C3B43977  32.010   9.606   7.006
 3204POPC   C4B43978  31.944   9.589   7.448
 3205POPC   NC343979  31.387  20.155   5.454
 3205POPC   PO443980  31.412  19.477   5.368
 3205POPC   GL143981  31.683  19.468   5.740
 3205POPC   GL243982  31.555  19.787   5.831
 3205POPC   C1A43983  31.779  19.482   6.196
 3205POPC   D2A43984  31.728  19.780   6.555
 3205POPC   C3A43985  31.620  19.680   6.972
 3205POPC   C4A43986  31.830  19.792   7.361
 3205POPC   C1B43987  31.336  19.861   6.239
 3205POPC   C2B43988  31.281  19.958   6.698
 3205POPC   C3B43989  31.312  20.072   7.143
 3205POPC   C4B43990  31.000  20.150   7.471
 3206POPC   NC343991  11.328  36.730   5.468
 3206POPC   PO443992  11.126  37.330   5.567
 3206POPC   GL143993  11.510  37.145   5.779
 3206POPC   GL243994  11.295  36.916   5.949
 3206POPC   C1A43995  11.653  37.128   6.221
 3206POPC   D2A43996  11.328  37.020   6.517
 3206POPC   C3A43997  11.405  36.950   6.936
 3206POPC   C4A43998  11.616  37.221   7.226
 3206POPC   C1B43999  11.152  36.588   6.205
 3206POPC   C2B44000  11.179  36.514   6.641
 3206POPC   C3B44001  11.030  36.549   7.025
 3206POPC   C4B44002  11.252  36.637   7.331
 3207POPC   NC344003  38.979  26.189   5.513
 3207POPC   PO444004  39.634  25.841   5.514
 3207POPC   GL144005  39.406  26.099   5.815
 3207POPC   GL244006  39.150  25.881   5.902
 3207POPC   C1A44007  39.171  26.274   6.202
 3207POPC   D2A44008  39.091  26.180   6.634
 3207POPC   C3A44009  39.438  26.127   6.893
 3207POPC   C4A44010  39.423  26.020   7.283
 3207POPC   C1B44011  39.003  25.760   6.290
 3207POPC   C2B44012  38.953  25.643   6.702
 3207POPC   C3B44013  38.977  25.866   7.070
 3207POPC   C4B44014  38.798  25.815   7.459
 3208POPC   NC344015  20.283  28.556   5.506
 3208POPC   PO444016  20.837  28.127   5.405
 3208POPC   GL144017  20.640  28.277   5.752
 3208POPC   GL244018  20.759  28.612   5.635
 3208POPC   C1A44019  20.763  28.191   6.177
 3208POPC   D2A44020  20.549  28.089   6.538
 3208POPC   C3A44021  20.728  28.225   6.891
 3208POPC   C4A44022  20.618  28.013   7.240
 3208POPC   C1B44023  20.757  28.680   6.071
 3208POPC   C2B44024  20.513  28.616   6.465
 3208POPC   C3B44025  20.588  28.719   6.914
 3208POPC   C4B44026  20.603  28.502   7.332
 3209POPC   NC344027  16.227  30.083   5.315
 3209POPC   PO444028  15.787  29.562   5.416
 3209POPC   GL144029  15.783  29.856   5.764
 3209POPC   GL244030  16.140  29.932   5.796
 3209POPC   C1A44031  15.869  29.948   6.221
 3209POPC   D2A44032  16.048  29.689   6.547
 3209POPC   C3A44033  15.857  29.716   6.942
 3209POPC   C4A44034  15.812  30.094   7.111
 3209POPC   C1B44035  16.370  30.142   6.142
 3209POPC   C2B44036  16.175  30.191   6.553
 3209POPC   C3B44037  16.310  30.053   6.950
 3209POPC   C4B44038  16.453  30.297   7.297
 3210POPC   NC344039  35.735  31.730   5.317
 3210POPC   PO444040  35.273  32.255   5.273
 3210POPC   GL144041  35.231  32.369   5.705
 3210POPC   GL244042  35.576  32.341   5.806
 3210POPC   C1A44043  35.223  32.602   6.134
 3210POPC   D2A44044  35.280  32.431   6.544
 3210POPC   C3A44045  35.267  32.638   6.916
 3210POPC   C4A44046  35.273  32.356   7.217
 3210POPC   C1B44047  35.307  32.090   6.104
 3210POPC   C2B44048  35.285  31.901   6.482
 3210POPC   C3B44049  35.368  31.973   6.892
 3210POPC   C4B44050  35.298  31.839   7.319
 3211POPC   NC344051   5.911  33.899   5.183
 3211POPC   PO444052   5.567  34.191   5.623
 3211POPC   GL144053   5.742  33.869   5.854
 3211POPC   GL244054   6.075  33.770   5.823
 3211POPC   C1A44055   5.569  33.785   6.228
 3211POPC   D2A44056   5.523  33.654   6.636
 3211POPC   C3A44057   5.855  33.833   6.890
 3211POPC   C4A44058   5.841  33.749   7.309
 3211POPC   C1B44059   6.063  33.626   6.269
 3211POPC   C2B44060   6.283  33.605   6.693
 3211POPC   C3B44061   6.292  33.571   7.183
 3211POPC   C4B44062   6.128  33.548   7.656
 3212POPC   NC344063  38.716  22.362   4.954
 3212POPC   PO444064  38.520  22.252   5.569
 3212POPC   GL144065  38.580  22.042   5.906
 3212POPC   GL244066  38.274  22.017   5.969
 3212POPC   C1A44067  38.622  22.066   6.341
 3212POPC   D2A44068  38.591  21.819   6.670
 3212POPC   C3A44069  38.709  22.080   6.957
 3212POPC   C4A44070  38.592  22.293   7.283
 3212POPC   C1B44071  38.128  21.879   6.344
 3212POPC   C2B44072  38.128  22.035   6.737
 3212POPC   C3B44073  38.114  22.214   7.105
 3212POPC   C4B44074  38.119  22.120   7.546
 3213POPC   NC344075   9.175  44.966   5.510
 3213POPC   PO444076   9.016   0.602   5.333
 3213POPC   GL144077   8.919   0.610   5.758
 3213POPC   GL244078   9.034   0.292   5.874
 3213POPC   C1A44079   9.065   0.695   6.177
 3213POPC   D2A44080   9.032   0.398   6.525
 3213POPC   C3A44081   9.014   0.567   6.948
 3213POPC   C4A44082   9.140   0.351   7.302
 3213POPC   C1B44083   8.859   0.019   6.192
 3213POPC   C2B44084   8.676  44.998   6.582
 3213POPC   C3B44085   8.871   0.062   6.933
 3213POPC   C4B44086   8.700   0.085   7.314
 3214POPC   NC344087  12.849  10.953   5.487
 3214POPC   PO444088  13.167  11.590   5.325
 3214POPC   GL144089  12.865  11.480   5.660
 3214POPC   GL244090  13.133  11.332   5.789
 3214POPC   C1A44091  12.709  11.271   6.052
 3214POPC   D2A44092  12.832  11.313   6.491
 3214POPC   C3A44093  12.604  11.139   6.850
 3214POPC   C4A44094  12.552  11.308   7.250
 3214POPC   C1B44095  13.089  11.640   6.118
 3214POPC   C2B44096  13.303  11.553   6.486
 3214POPC   C3B44097  13.109  11.527   6.880
 3214POPC   C4B44098  13.050  11.199   7.170
 3215POPC   NC344099  23.433  15.108   5.416
 3215POPC   PO444100  22.828  14.969   5.463
 3215POPC   GL144101  23.132  15.070   5.827
 3215POPC   GL244102  23.360  15.393   5.853
 3215POPC   C1A44103  23.159  15.173   6.272
 3215POPC   D2A44104  23.071  15.405   6.669
 3215POPC   C3A44105  23.033  15.155   7.070
 3215POPC   C4A44106  22.817  15.105   7.481
 3215POPC   C1B44107  23.512  15.568   6.269
 3215POPC   C2B44108  23.505  15.698   6.699
 3215POPC   C3B44109  23.240  15.634   7.094
 3215POPC   C4B44110  23.284  15.361   7.477
 3216POPC   NC344111   8.288  34.173   5.363
 3216POPC   PO444112   8.105  33.508   5.275
 3216POPC   GL144113   8.103  33.770   5.653
 3216POPC   GL244114   7.848  34.042   5.614
 3216POPC   C1A44115   8.114  33.785   6.109
 3216POPC   D2A44116   8.267  34.017   6.462
 3216POPC   C3A44117   8.373  33.798   6.835
 3216POPC   C4A44118   8.138  33.833   7.179
 3216POPC   C1B44119   7.721  34.103   6.047
 3216POPC   C2B44120   7.822  34.254   6.457
 3216POPC   C3B44121   7.947  34.166   6.845
 3216POPC   C4B44122   7.774  34.177   7.229
 3217POPC   NC344123  13.190  25.601   4.988
 3217POPC   PO444124  13.619  25.187   5.230
 3217POPC   GL144125  13.665  25.294   5.716
 3217POPC   GL244126  13.896  25.602   5.821
 3217POPC   C1A44127  13.657  24.983   6.099
 3217POPC   D2A44128  13.605  24.814   6.540
 3217POPC   C3A44129  13.748  25.117   6.852
 3217POPC   C4A44130  14.036  25.232   7.174
 3217POPC   C1B44131  13.668  25.489   6.221
 3217POPC   C2B44132  13.477  25.538   6.641
 3217POPC   C3B44133  13.603  25.576   7.063
 3217POPC   C4B44134  13.742  25.668   7.493
 3218POPC   NC344135  11.415   4.011   5.463
 3218POPC   PO444136  11.139   3.400   5.393
 3218POPC   GL144137  11.221   3.606   5.732
 3218POPC   GL244138  11.568   3.586   5.800
 3218POPC   C1A44139  11.150   3.602   6.164
 3218POPC   D2A44140  10.967   3.398   6.514
 3218POPC   C3A44141  11.041   3.688   6.828
 3218POPC   C4A44142  11.281   3.713   7.190
 3218POPC   C1B44143  11.645   3.420   6.285
 3218POPC   C2B44144  11.574   3.525   6.768
 3218POPC   C3B44145  11.705   3.434   7.233
 3218POPC   C4B44146  11.701   3.354   7.730
 3219POPC   NC344147  14.024  15.176   5.164
 3219POPC   PO444148  14.566  14.724   5.177
 3219POPC   GL144149  14.514  14.869   5.679
 3219POPC   GL244150  14.654  15.173   5.809
 3219POPC   C1A44151  14.316  15.004   6.148
 3219POPC   D2A44152  14.127  15.273   6.494
 3219POPC   C3A44153  14.278  15.248   6.938
 3219POPC   C4A44154  14.361  15.376   7.357
 3219POPC   C1B44155  14.640  15.392   6.215
 3219POPC   C2B44156  14.514  15.583   6.595
 3219POPC   C3B44157  14.720  15.539   6.960
 3219POPC   C4B44158  14.878  15.481   7.342
 3220POPC   NC344159  10.973  41.700   5.541
 3220POPC   PO444160  11.722  41.675   5.534
 3220POPC   GL144161  11.426  41.473   5.843
 3220POPC   GL244162  11.161  41.580   6.002
 3220POPC   C1A44163  11.460  41.232   6.250
 3220POPC   D2A44164  11.190  41.322   6.624
 3220POPC   C3A44165  11.295  41.500   7.021
 3220POPC   C4A44166  11.403  41.293   7.417
 3220POPC   C1B44167  10.860  41.530   6.300
 3220POPC   C2B44168  10.797  41.656   6.688
 3220POPC   C3B44169  10.779  41.429   7.064
 3220POPC   C4B44170  10.955  41.533   7.459
 3221POPC   NC344171  12.172  41.840   5.462
 3221POPC   PO444172  12.540  41.319   5.503
 3221POPC   GL144173  12.225  41.526   5.846
 3221POPC   GL244174  11.993  41.876   5.918
 3221POPC   C1A44175  12.252  41.659   6.275
 3221POPC   D2A44176  12.279  41.821   6.681
 3221POPC   C3A44177  12.360  41.552   7.022
 3221POPC   C4A44178  12.150  41.623   7.375
 3221POPC   C1B44179  11.723  41.656   6.209
 3221POPC   C2B44180  11.636  41.537   6.616
 3221POPC   C3B44181  11.836  41.645   6.960
 3221POPC   C4B44182  11.661  41.727   7.317
 3222POPC   NC344183  40.434  27.296   5.641
 3222POPC   PO444184  40.272  27.945   5.535
 3222POPC   GL144185  39.970  27.701   5.806
 3222POPC   GL244186  39.977  27.340   5.868
 3222POPC   C1A44187  39.783  27.805   6.200
 3222POPC   D2A44188  39.956  27.943   6.603
 3222POPC   C3A44189  40.006  27.636   6.962
 3222POPC   C4A44190  40.319  27.656   7.322
 3222POPC   C1B44191  40.230  27.267   6.266
 3222POPC   C2B44192  40.128  27.162   6.655
 3222POPC   C3B44193  40.356  27.247   6.991
 3222POPC   C4B44194  40.062  27.212   7.271
 3223POPC   NC344195  24.533  19.231   5.456
 3223POPC   PO444196  24.359  18.626   5.600
 3223POPC   GL144197  24.663  18.780   5.901
 3223POPC   GL244198  24.800  19.112   5.913
 3223POPC   C1A44199  24.677  18.865   6.336
 3223POPC   D2A44200  24.752  19.101   6.713
 3223POPC   C3A44201  24.552  18.906   7.054
 3223POPC   C4A44202  24.144  19.081   7.232
 3223POPC   C1B44203  24.466  19.323   6.223
 3223POPC   C2B44204  24.299  19.412   6.678
 3223POPC   C3B44205  24.515  19.417   7.096
 3223POPC   C4B44206  24.949  19.251   7.198
 3224POPC   NC344207  29.013  18.155   5.511
 3224POPC   PO444208  29.002  18.790   5.663
 3224POPC   GL144209  29.321  18.480   5.819
 3224POPC   GL244210  29.332  18.075   5.893
 3224POPC   C1A44211  29.248  18.401   6.259
 3224POPC   D2A44212  29.456  18.182   6.549
 3224POPC   C3A44213  29.203  18.264   6.900
 3224POPC   C4A44214  29.190  18.357   7.324
 3224POPC   C1B44215  28.878  18.089   6.128
 3224POPC   C2B44216  28.701  18.011   6.530
 3224POPC   C3B44217  28.690  18.119   6.946
 3224POPC   C4B44218  28.660  18.388   7.297
 3225POPC   NC344219  39.343  18.578   5.421
 3225POPC   PO444220  38.798  18.317   5.481
 3225POPC   GL144221  39.074  18.362   5.786
 3225POPC   GL244222  39.045  18.092   5.981
 3225POPC   C1A44223  39.241  18.554   6.142
 3225POPC   D2A44224  39.316  18.330   6.529
 3225POPC   C3A44225  39.300  18.566   6.904
 3225POPC   C4A44226  39.567  18.458   7.213
 3225POPC   C1B44227  38.816  18.305   6.363
 3225POPC   C2B44228  38.875  18.255   6.833
 3225POPC   C3B44229  39.148  18.143   7.202
 3225POPC   C4B44230  39.007  17.957   7.593
 3226POPC   NC344231   2.739   9.783   5.405
 3226POPC   PO444232   2.363   9.423   5.844
 3226POPC   GL144233   2.712   9.702   5.909
 3226POPC   GL244234   2.545   9.952   5.979
 3226POPC   C1A44235   3.000   9.750   6.252
 3226POPC   D2A44236   2.927   9.520   6.624
 3226POPC   C3A44237   2.985   9.679   7.077
 3226POPC   C4A44238   2.907   9.633   7.526
 3226POPC   C1B44239   2.502   9.743   6.400
 3226POPC   C2B44240   2.530   9.762   6.849
 3226POPC   C3B44241   2.375   9.659   7.235
 3226POPC   C4B44242   2.145   9.984   7.459
 3227POPC   NC344243  41.401  13.120   5.576
 3227POPC   PO444244  40.762  12.816   5.500
 3227POPC   GL144245  40.707  12.744   5.885
 3227POPC   GL244246  40.362  12.652   5.900
 3227POPC   C1A44247  40.902  12.842   6.264
 3227POPC   D2A44248  40.702  12.897   6.656
 3227POPC   C3A44249  40.933  12.989   6.986
 3227POPC   C4A44250  41.182  12.698   7.157
 3227POPC   C1B44251  40.539  12.453   6.278
 3227POPC   C2B44252  40.484  12.404   6.702
 3227POPC   C3B44253  40.650  12.560   7.058
 3227POPC   C4B44254  40.745  12.315   7.370
 3228POPC   NC344255   2.777  23.017   5.158
 3228POPC   PO444256   2.406  22.592   5.528
 3228POPC   GL144257   2.794  22.633   5.764
 3228POPC   GL244258   2.926  22.970   5.774
 3228POPC   C1A44259   2.790  22.739   6.212
 3228POPC   D2A44260   2.536  22.903   6.581
 3228POPC   C3A44261   2.626  22.781   7.014
 3228POPC   C4A44262   2.533  22.986   7.408
 3228POPC   C1B44263   3.103  23.162   6.158
 3228POPC   C2B44264   2.957  23.402   6.538
 3228POPC   C3B44265   2.700  23.303   6.931
 3228POPC   C4B44266   2.785  23.425   7.364
 3229POPC   NC344267  16.016  19.531   5.513
 3229POPC   PO444268  15.955  18.894   5.307
 3229POPC   GL144269  15.912  18.900   5.750
 3229POPC   GL244270  15.857  19.227   5.877
 3229POPC   C1A44271  16.083  18.892   6.196
 3229POPC   D2A44272  15.994  19.111   6.568
 3229POPC   C3A44273  15.943  18.898   6.940
 3229POPC   C4A44274  15.894  18.882   7.377
 3229POPC   C1B44275  15.753  19.522   6.194
 3229POPC   C2B44276  15.742  19.590   6.608
 3229POPC   C3B44277  15.794  19.401   6.995
 3229POPC   C4B44278  15.948  19.573   7.374
 3230POPC   NC344279   4.101   1.970   5.403
 3230POPC   PO444280   4.684   1.684   5.208
 3230POPC   GL144281   4.568   1.814   5.678
 3230POPC   GL244282   4.379   2.130   5.801
 3230POPC   C1A44283   4.587   1.759   6.145
 3230POPC   D2A44284   4.647   1.997   6.537
 3230POPC   C3A44285   4.560   1.746   6.885
 3230POPC   C4A44286   4.404   1.711   7.267
 3230POPC   C1B44287   4.105   2.111   6.166
 3230POPC   C2B44288   4.191   2.233   6.598
 3230POPC   C3B44289   4.150   2.128   7.005
 3230POPC   C4B44290   4.197   2.269   7.392
 3231POPC   NC344291  33.978  43.595   5.337
 3231POPC   PO444292  33.467  43.948   5.323
 3231POPC   GL144293  33.679  44.035   5.746
 3231POPC   GL244294  34.046  44.088   5.750
 3231POPC   C1A44295  33.620  44.121   6.198
 3231POPC   D2A44296  33.878  44.169   6.568
 3231POPC   C3A44297  33.543  44.149   6.864
 3231POPC   C4A44298  33.392  43.861   7.133
 3231POPC   C1B44299  34.034  43.835   6.130
 3231POPC   C2B44300  33.782  43.679   6.503
 3231POPC   C3B44301  33.896  43.787   6.938
 3231POPC   C4B44302  34.183  44.080   7.142
 3232POPC   NC344303  29.138   4.991   5.242
 3232POPC   PO444304  28.874   5.427   5.657
 3232POPC   GL144305  29.147   5.076   5.767
 3232POPC   GL244306  28.990   4.739   5.743
 3232POPC   C1A44307  29.353   4.849   6.116
 3232POPC   D2A44308  29.225   4.704   6.577
 3232POPC   C3A44309  29.283   5.012   6.899
 3232POPC   C4A44310  29.315   5.113   7.319
 3232POPC   C1B44311  28.860   4.785   6.209
 3232POPC   C2B44312  28.887   5.109   6.589
 3232POPC   C3B44313  28.833   5.171   7.076
 3232POPC   C4B44314  28.641   4.936   7.442
 3233POPC   NC344315  15.341  27.949   5.405
 3233POPC   PO444316  15.293  27.259   5.327
 3233POPC   GL144317  15.416  27.530   5.699
 3233POPC   GL244318  15.076  27.612   5.762
 3233POPC   C1A44319  15.416  27.659   6.158
 3233POPC   D2A44320  15.078  27.855   6.370
 3233POPC   C3A44321  15.200  27.922   6.791
 3233POPC   C4A44322  15.522  27.814   7.115
 3233POPC   C1B44323  15.108  27.265   6.061
 3233POPC   C2B44324  15.004  27.141   6.465
 3233POPC   C3B44325  15.179  27.384   6.816
 3233POPC   C4B44326  15.305  27.386   7.229
 3234POPC   NC344327  26.537  27.747   5.360
 3234POPC   PO444328  25.926  27.564   5.519
 3234POPC   GL144329  25.979  27.455   5.927
 3234POPC   GL244330  26.354  27.532   5.879
 3234POPC   C1A44331  25.976  27.709   6.325
 3234POPC   D2A44332  25.772  27.619   6.744
 3234POPC   C3A44333  26.039  27.845   7.049
 3234POPC   C4A44334  26.265  28.009   7.399
 3234POPC   C1B44335  26.308  27.333   6.283
 3234POPC   C2B44336  26.255  27.493   6.704
 3234POPC   C3B44337  26.067  27.344   7.075
 3234POPC   C4B44338  26.293  27.216   7.425
 3235POPC   NC344339   8.933  22.452   5.497
 3235POPC   PO444340   9.454  22.040   5.506
 3235POPC   GL144341   9.169  22.115   5.835
 3235POPC   GL244342   9.250  22.449   5.890
 3235POPC   C1A44343   8.876  22.197   6.184
 3235POPC   D2A44344   8.831  22.486   6.530
 3235POPC   C3A44345   8.731  22.295   6.944
 3235POPC   C4A44346   8.878  21.960   7.188
 3235POPC   C1B44347   9.361  22.360   6.313
 3235POPC   C2B44348   9.243  22.202   6.711
 3235POPC   C3B44349   9.209  22.361   7.111
 3235POPC   C4B44350   9.204  22.799   7.234
 3236POPC   NC344351  26.798  30.598   5.406
 3236POPC   PO444352  26.520  31.136   5.591
 3236POPC   GL144353  26.853  30.866   5.835
 3236POPC   GL244354  27.105  30.920   6.089
 3236POPC   C1A44355  27.024  30.420   6.018
 3236POPC   D2A44356  27.054  30.230   6.451
 3236POPC   C3A44357  26.870  30.452   6.838
 3236POPC   C4A44358  26.929  30.547   7.287
 3236POPC   C1B44359  26.681  30.692   6.266
 3236POPC   C2B44360  26.540  30.808   6.634
 3236POPC   C3B44361  26.810  30.980   6.954
 3236POPC   C4B44362  26.578  30.896   7.296
 3237POPC   NC344363  40.166  22.933   5.202
 3237POPC   PO444364  40.827  23.050   5.316
 3237POPC   GL144365  40.918  23.038   5.779
 3237POPC   GL244366  40.853  22.665   5.793
 3237POPC   C1A44367  40.984  23.203   6.257
 3237POPC   D2A44368  40.740  23.301   6.671
 3237POPC   C3A44369  40.759  23.007   7.049
 3237POPC   C4A44370  41.028  22.994   7.416
 3237POPC   C1B44371  40.680  22.793   6.189
 3237POPC   C2B44372  40.488  22.796   6.609
 3237POPC   C3B44373  40.222  22.578   6.896
 3237POPC   C4B44374  40.130  22.711   7.300
 3238POPC   NC344375  12.859   3.964   5.295
 3238POPC   PO444376  13.230   4.512   5.318
 3238POPC   GL144377  13.091   4.256   5.678
 3238POPC   GL244378  12.890   4.461   5.872
 3238POPC   C1A44379  13.102   4.078   6.138
 3238POPC   D2A44380  12.972   3.941   6.559
 3238POPC   C3A44381  13.016   4.196   6.944
 3238POPC   C4A44382  12.857   4.186   7.372
 3238POPC   C1B44383  12.584   4.423   6.173
 3238POPC   C2B44384  12.575   4.279   6.593
 3238POPC   C3B44385  12.524   4.428   7.010
 3238POPC   C4B44386  12.851   4.643   7.176
 3239POPC   NC344387  20.308   2.789   5.431
 3239POPC   PO444388  20.793   2.350   5.407
 3239POPC   GL144389  20.706   2.502   5.800
 3239POPC   GL244390  20.342   2.479   5.849
 3239POPC   C1A44391  20.904   2.548   6.206
 3239POPC   D2A44392  21.025   2.763   6.585
 3239POPC   C3A44393  20.943   2.579   6.966
 3239POPC   C4A44394  20.827   2.788   7.357
 3239POPC   C1B44395  20.464   2.820   6.148
 3239POPC   C2B44396  20.360   2.823   6.591
 3239POPC   C3B44397  20.517   2.943   6.992
 3239POPC   C4B44398  20.359   3.011   7.414
 3240POPC   NC344399  38.651  40.248   5.319
 3240POPC   PO444400  38.125  39.851   5.318
 3240POPC   GL144401  38.463  39.944   5.692
 3240POPC   GL244402  38.502  40.324   5.812
 3240POPC   C1A44403  38.564  39.899   6.154
 3240POPC   D2A44404  38.265  39.765   6.472
 3240POPC   C3A44405  38.140  39.910   6.862
 3240POPC   C4A44406  38.330  39.821   7.225
 3240POPC   C1B44407  38.461  40.393   6.262
 3240POPC   C2B44408  38.563  40.153   6.666
 3240POPC   C3B44409  38.437  40.303   7.085
 3240POPC   C4B44410  38.514  40.500   7.495
 3241POPC   NC344411   2.008  17.559   5.127
 3241POPC   PO444412   2.538  17.354   5.339
 3241POPC   GL144413   2.178  17.582   5.682
 3241POPC   GL244414   1.993  17.368   5.911
 3241POPC   C1A44415   1.977  17.842   6.083
 3241POPC   D2A44416   1.847  17.693   6.558
 3241POPC   C3A44417   2.092  17.721   6.996
 3241POPC   C4A44418   1.936  17.628   7.446
 3241POPC   C1B44419   2.273  17.493   6.296
 3241POPC   C2B44420   2.509  17.627   6.682
 3241POPC   C3B44421   2.594  17.596   7.149
 3241POPC   C4B44422   2.405  17.425   7.552
 3242POPC   NC344423  14.355  28.112   5.451
 3242POPC   PO444424  14.692  28.543   5.083
 3242POPC   GL144425  14.707  28.478   5.688
 3242POPC   GL244426  14.483  28.312   5.882
 3242POPC   C1A44427  14.614  28.583   6.257
 3242POPC   D2A44428  14.409  28.464   6.677
 3242POPC   C3A44429  14.382  28.648   7.117
 3242POPC   C4A44430  14.292  28.666   7.607
 3242POPC   C1B44431  14.614  28.058   6.239
 3242POPC   C2B44432  14.474  27.952   6.653
 3242POPC   C3B44433  14.481  28.016   7.093
 3242POPC   C4B44434  14.559  28.285   7.434
 3243POPC   NC344435  29.537  30.489   5.519
 3243POPC   PO444436  29.909  31.033   5.339
 3243POPC   GL144437  29.801  30.883   5.762
 3243POPC   GL244438  30.119  30.915   5.958
 3243POPC   C1A44439  29.795  30.612   6.149
 3243POPC   D2A44440  30.018  30.695   6.506
 3243POPC   C3A44441  29.883  30.461   6.842
 3243POPC   C4A44442  29.816  30.706   7.231
 3243POPC   C1B44443  30.366  31.092   6.294
 3243POPC   C2B44444  30.440  30.931   6.697
 3243POPC   C3B44445  30.254  31.010   7.100
 3243POPC   C4B44446  30.212  30.848   7.512
 3244POPC   NC344447  23.684  16.202   5.497
 3244POPC   PO444448  23.603  15.549   5.407
 3244POPC   GL144449  23.598  15.859   5.861
 3244POPC   GL244450  23.809  16.195   5.988
 3244POPC   C1A44451  23.425  16.068   6.273
 3244POPC   D2A44452  23.622  16.264   6.638
 3244POPC   C3A44453  23.551  16.051   7.053
 3244POPC   C4A44454  23.635  15.723   7.389
 3244POPC   C1B44455  23.913  15.900   6.310
 3244POPC   C2B44456  24.030  15.987   6.724
 3244POPC   C3B44457  24.026  16.197   7.104
 3244POPC   C4B44458  24.055  16.004   7.513
 3245POPC   NC344459  15.833   8.841   5.407
 3245POPC   PO444460  15.459   9.423   5.501
 3245POPC   GL144461  15.878   9.256   5.709
 3245POPC   GL244462  16.011   8.877   5.864
 3245POPC   C1A44463  15.875   9.269   6.152
 3245POPC   D2A44464  15.545   9.192   6.459
 3245POPC   C3A44465  15.572   8.968   6.845
 3245POPC   C4A44466  15.772   9.234   7.151
 3245POPC   C1B44467  15.815   8.776   6.251
 3245POPC   C2B44468  16.038   8.935   6.608
 3245POPC   C3B44469  16.261   9.168   6.920
 3245POPC   C4B44470  16.217   8.962   7.269
 3246POPC   NC344471   8.448  36.433   5.522
 3246POPC   PO444472   7.877  36.067   5.387
 3246POPC   GL144473   8.054  36.213   5.774
 3246POPC   GL244474   8.319  35.964   5.801
 3246POPC   C1A44475   8.151  36.224   6.223
 3246POPC   D2A44476   8.027  36.027   6.604
 3246POPC   C3A44477   8.147  36.261   6.948
 3246POPC   C4A44478   8.286  36.189   7.359
 3246POPC   C1B44479   8.353  35.739   6.202
 3246POPC   C2B44480   8.286  35.542   6.603
 3246POPC   C3B44481   8.303  35.776   6.996
 3246POPC   C4B44482   8.520  35.719   7.375
 3247POPC   NC344483  26.454  31.553   5.413
 3247POPC   PO444484  27.082  31.890   5.253
 3247POPC   GL144485  27.237  31.794   5.791
 3247POPC   GL244486  27.022  31.448   5.961
 3247POPC   C1A44487  27.104  31.822   6.265
 3247POPC   D2A44488  27.044  31.482   6.547
 3247POPC   C3A44489  26.795  31.616   6.869
 3247POPC   C4A44490  26.918  31.872   7.219
 3247POPC   C1B44491  26.735  31.209   6.242
 3247POPC   C2B44492  26.497  31.302   6.571
 3247POPC   C3B44493  26.395  31.275   6.986
 3247POPC   C4B44494  26.633  31.397   7.309
 3248POPC   NC344495  38.667  43.764   5.429
 3248POPC   PO444496  38.030  43.877   5.561
 3248POPC   GL144497  38.337  43.766   5.840
 3248POPC   GL244498  38.515  44.056   5.810
 3248POPC   C1A44499  38.336  43.719   6.276
 3248POPC   D2A44500  38.094  43.899   6.630
 3248POPC   C3A44501  38.246  44.040   7.026
 3248POPC   C4A44502  38.443  43.739   7.308
 3248POPC   C1B44503  38.814  44.189   6.081
 3248POPC   C2B44504  38.656  44.062   6.474
 3248POPC   C3B44505  38.713  43.912   6.872
 3248POPC   C4B44506  38.713  44.161   7.229
 3249POPC   NC344507  19.642   2.081   5.404
 3249POPC   PO444508  20.219   1.711   5.565
 3249POPC   GL144509  19.897   1.870   5.827
 3249POPC   GL244510  19.892   2.212   5.835
 3249POPC   C1A44511  19.763   1.922   6.249
 3249POPC   D2A44512  19.614   1.960   6.661
 3249POPC   C3A44513  19.739   1.765   7.087
 3249POPC   C4A44514  20.087   1.826   7.415
 3249POPC   C1B44515  19.999   2.399   6.249
 3249POPC   C2B44516  20.010   2.410   6.709
 3249POPC   C3B44517  19.779   2.266   7.075
 3249POPC   C4B44518  19.713   2.336   7.513
 3250POPC   NC344519  21.338  35.459   5.438
 3250POPC   PO444520  21.864  35.317   5.835
 3250POPC   GL144521  21.475  35.416   5.931
 3250POPC   GL244522  21.273  35.146   5.878
 3250POPC   C1A44523  21.404  35.654   6.263
 3250POPC   D2A44524  21.194  35.699   6.608
 3250POPC   C3A44525  21.407  35.409   6.858
 3250POPC   C4A44526  21.563  35.407   7.274
 3250POPC   C1B44527  21.273  35.177   6.357
 3250POPC   C2B44528  21.099  35.021   6.729
 3250POPC   C3B44529  21.304  34.981   7.135
 3250POPC   C4B44530  21.315  35.081   7.570
 3251POPC   NC344531  13.058  25.659   5.551
 3251POPC   PO444532  12.813  25.044   5.363
 3251POPC   GL144533  12.845  24.956   5.779
 3251POPC   GL244534  13.192  25.029   5.834
 3251POPC   C1A44535  12.769  24.873   6.224
 3251POPC   D2A44536  12.730  25.210   6.543
 3251POPC   C3A44537  12.620  25.180   6.976
 3251POPC   C4A44538  12.700  25.498   7.280
 3251POPC   C1B44539  13.214  25.180   6.287
 3251POPC   C2B44540  13.207  25.105   6.731
 3251POPC   C3B44541  13.119  25.237   7.128
 3251POPC   C4B44542  13.205  25.567   7.406
 3252POPC   NC344543   4.373  34.867   5.583
 3252POPC   PO444544   4.009  34.314   5.635
 3252POPC   GL144545   4.343  34.473   5.922
 3252POPC   GL244546   4.067  34.617   6.089
 3252POPC   C1A44547   4.466  34.836   6.253
 3252POPC   D2A44548   4.155  34.853   6.605
 3252POPC   C3A44549   4.358  34.633   6.963
 3252POPC   C4A44550   4.623  34.851   7.272
 3252POPC   C1B44551   4.134  34.233   6.351
 3252POPC   C2B44552   4.026  34.134   6.787
 3252POPC   C3B44553   3.902  34.441   7.148
 3252POPC   C4B44554   4.118  34.771   7.402
 3253POPC   NC344555  21.243  42.648   5.375
 3253POPC   PO444556  21.458  41.989   5.395
 3253POPC   GL144557  21.429  42.312   5.757
 3253POPC   GL244558  21.146  42.567   5.860
 3253POPC   C1A44559  21.553  42.450   6.183
 3253POPC   D2A44560  21.631  42.204   6.570
 3253POPC   C3A44561  21.799  42.397   6.912
 3253POPC   C4A44562  21.524  42.539   7.188
 3253POPC   C1B44563  21.155  42.787   6.270
 3253POPC   C2B44564  21.305  42.615   6.696
 3253POPC   C3B44565  21.035  42.526   7.088
 3253POPC   C4B44566  20.880  42.699   7.495
 3254POPC   NC344567  25.544   0.617   5.105
 3254POPC   PO444568  25.105   0.305   5.498
 3254POPC   GL144569  25.104   0.538   5.835
 3254POPC   GL244570  25.259   0.231   5.989
 3254POPC   C1A44571  25.024   0.571   6.286
 3254POPC   D2A44572  25.160   0.352   6.636
 3254POPC   C3A44573  25.157   0.599   6.979
 3254POPC   C4A44574  25.153   0.464   7.385
 3254POPC   C1B44575  25.486   0.001   6.294
 3254POPC   C2B44576  25.501  44.951   6.733
 3254POPC   C3B44577  25.512   0.230   7.073
 3254POPC   C4B44578  25.598   0.221   7.514
 3255POPC   NC344579  15.206  36.619   5.655
 3255POPC   PO444580  15.052  37.323   5.463
 3255POPC   GL144581  15.020  37.070   5.835
 3255POPC   GL244582  14.766  36.787   5.889
 3255POPC   C1A44583  14.927  37.146   6.257
 3255POPC   D2A44584  15.137  37.102   6.641
 3255POPC   C3A44585  14.954  36.996   6.982
 3255POPC   C4A44586  15.212  37.172   7.273
 3255POPC   C1B44587  15.020  36.617   6.271
 3255POPC   C2B44588  15.144  36.569   6.690
 3255POPC   C3B44589  15.254  36.626   7.135
 3255POPC   C4B44590  14.993  36.775   7.503
 3256POPC   NC344591  15.933  27.394   5.448
 3256POPC   PO444592  15.702  28.065   5.661
 3256POPC   GL144593  15.884  27.696   5.866
 3256POPC   GL244594  16.122  27.377   5.903
 3256POPC   C1A44595  15.938  27.719   6.274
 3256POPC   D2A44596  15.684  27.752   6.619
 3256POPC   C3A44597  15.994  27.847   6.886
 3256POPC   C4A44598  16.066  27.581   7.214
 3256POPC   C1B44599  16.277  27.329   6.302
 3256POPC   C2B44600  16.200  27.410   6.722
 3256POPC   C3B44601  16.183  27.124   7.023
 3256POPC   C4B44602  16.283  27.156   7.422
 3257POPC   NC344603  27.083  19.586   5.346
 3257POPC   PO444604  27.547  20.106   5.331
 3257POPC   GL144605  27.575  19.974   5.782
 3257POPC   GL244606  27.491  19.624   5.750
 3257POPC   C1A44607  27.755  20.045   6.196
 3257POPC   D2A44608  27.786  20.179   6.612
 3257POPC   C3A44609  27.650  19.888   6.904
 3257POPC   C4A44610  27.549  19.975   7.323
 3257POPC   C1B44611  27.371  19.649   6.191
 3257POPC   C2B44612  27.467  19.494   6.626
 3257POPC   C3B44613  27.651  19.333   7.011
 3257POPC   C4B44614  27.556  19.480   7.355
 3258POPC   NC344615  39.582  20.476   5.361
 3258POPC   PO444616  40.246  20.540   5.499
 3258POPC   GL144617  39.987  20.806   5.760
 3258POPC   GL244618  40.286  21.046   5.797
 3258POPC   C1A44619  39.711  20.729   6.167
 3258POPC   D2A44620  39.688  20.892   6.633
 3258POPC   C3A44621  39.617  20.643   7.043
 3258POPC   C4A44622  39.874  20.225   7.139
 3258POPC   C1B44623  40.296  20.772   6.158
 3258POPC   C2B44624  40.068  20.540   6.502
 3258POPC   C3B44625  40.097  20.650   6.941
 3258POPC   C4B44626  40.192  20.581   7.405
 3259POPC   NC344627   1.447  28.945   5.247
 3259POPC   PO444628   0.850  29.331   5.360
 3259POPC   GL144629   0.908  29.112   5.749
 3259POPC   GL244630   1.270  29.063   5.756
 3259POPC   C1A44631   0.951  29.201   6.190
 3259POPC   D2A44632   0.906  29.210   6.633
 3259POPC   C3A44633   1.222  29.247   6.911
 3259POPC   C4A44634   1.284  29.202   7.331
 3259POPC   C1B44635   1.443  29.088   6.192
 3259POPC   C2B44636   1.608  29.084   6.635
 3259POPC   C3B44637   1.488  28.840   7.034
 3259POPC   C4B44638   0.994  28.817   7.071
 3260POPC   NC344639  40.500  12.436   5.439
 3260POPC   PO444640  39.915  12.673   5.596
 3260POPC   GL144641  39.819  13.002   5.937
 3260POPC   GL244642  40.121  13.122   5.925
 3260POPC   C1A44643  39.911  13.125   6.380
 3260POPC   D2A44644  40.217  12.838   6.531
 3260POPC   C3A44645  40.173  12.728   6.947
 3260POPC   C4A44646  40.208  12.719   7.374
 3260POPC   C1B44647  40.479  13.122   6.173
 3260POPC   C2B44648  40.449  13.314   6.536
 3260POPC   C3B44649  40.209  13.263   6.890
 3260POPC   C4B44650  40.479  13.100   7.182
 3261POPC   NC344651  35.325  10.691   5.457
 3261POPC   PO444652  35.157   9.999   5.426
 3261POPC   GL144653  35.302  10.222   5.757
 3261POPC   GL244654  35.032  10.462   5.842
 3261POPC   C1A44655  35.425  10.367   6.183
 3261POPC   D2A44656  35.206  10.515   6.566
 3261POPC   C3A44657  35.427  10.711   6.950
 3261POPC   C4A44658  35.427  10.454   7.316
 3261POPC   C1B44659  35.174  10.823   6.111
 3261POPC   C2B44660  35.053  11.016   6.482
 3261POPC   C3B44661  34.949  10.854   6.850
 3261POPC   C4B44662  34.983  10.651   7.209
 3262POPC   NC344663  14.070  32.671   5.453
 3262POPC   PO444664  14.149  33.280   5.377
 3262POPC   GL144665  14.332  33.104   5.762
 3262POPC   GL244666  14.146  32.849   5.959
 3262POPC   C1A44667  14.681  32.980   6.049
 3262POPC   D2A44668  14.799  33.062   6.480
 3262POPC   C3A44669  14.686  32.811   6.865
 3262POPC   C4A44670  14.232  32.738   6.998
 3262POPC   C1B44671  14.275  33.175   6.287
 3262POPC   C2B44672  14.311  33.368   6.699
 3262POPC   C3B44673  14.311  33.227   7.124
 3262POPC   C4B44674  13.964  33.050   7.330
 3263POPC   NC344675  42.667   3.305   5.240
 3263POPC   PO444676  42.115   3.680   5.431
 3263POPC   GL144677  42.381   3.451   5.744
 3263POPC   GL244678  42.102   3.433   5.976
 3263POPC   C1A44679  42.557   3.472   6.193
 3263POPC   D2A44680  42.368   3.572   6.625
 3263POPC   C3A44681  42.411   3.536   7.096
 3263POPC   C4A44682  42.593   3.353   7.426
 3263POPC   C1B44683  42.217   3.852   6.217
 3263POPC   C2B44684  42.065   3.973   6.683
 3263POPC   C3B44685  42.162   3.965   7.172
 3263POPC   C4B44686  42.049   3.959   7.648
 3264POPC   NC344687  25.992   5.375   5.540
 3264POPC   PO444688  26.391   4.808   5.439
 3264POPC   GL144689  26.140   4.899   5.828
 3264POPC   GL244690  26.161   5.224   5.982
 3264POPC   C1A44691  26.032   4.824   6.292
 3264POPC   D2A44692  25.749   4.725   6.666
 3264POPC   C3A44693  25.821   5.002   7.031
 3264POPC   C4A44694  25.897   5.475   7.080
 3264POPC   C1B44695  25.840   5.319   6.230
 3264POPC   C2B44696  25.986   5.255   6.621
 3264POPC   C3B44697  26.370   5.396   6.829
 3264POPC   C4B44698  26.536   5.472   7.251
 3265POPC   NC344699   2.214  20.824   5.487
 3265POPC   PO444700   2.032  20.240   5.305
 3265POPC   GL144701   1.916  20.602   5.797
 3265POPC   GL244702   1.710  20.751   6.056
 3265POPC   C1A44703   2.180  20.820   6.187
 3265POPC   D2A44704   1.908  20.867   6.569
 3265POPC   C3A44705   1.990  20.803   7.015
 3265POPC   C4A44706   2.066  20.585   7.420
 3265POPC   C1B44707   1.909  20.409   6.330
 3265POPC   C2B44708   2.111  20.367   6.747
 3265POPC   C3B44709   1.836  20.289   7.073
 3265POPC   C4B44710   1.523  19.972   7.142
 3266POPC   NC344711  43.440  16.255   5.440
 3266POPC   PO444712  42.952  15.841   5.279
 3266POPC   GL144713  43.118  15.915   5.722
 3266POPC   GL244714  43.019  16.287   5.735
 3266POPC   C1A44715  43.250  15.773   6.189
 3266POPC   D2A44716  43.021  15.798   6.618
 3266POPC   C3A44717  43.135  15.693   7.081
 3266POPC   C4A44718  43.271  15.889   7.504
 3266POPC   C1B44719  43.041  16.248   6.196
 3266POPC   C2B44720  43.081  16.304   6.645
 3266POPC   C3B44721  43.155  16.200   7.078
 3266POPC   C4B44722  42.917  16.276   7.456
 3267POPC   NC344723  20.431   4.541   5.306
 3267POPC   PO444724  20.341   3.894   5.335
 3267POPC   GL144725  20.619   4.178   5.654
 3267POPC   GL244726  20.645   4.554   5.786
 3267POPC   C1A44727  20.526   4.128   6.125
 3267POPC   D2A44728  20.581   3.885   6.500
 3267POPC   C3A44729  20.528   4.159   6.871
 3267POPC   C4A44730  20.786   4.284   7.229
 3267POPC   C1B44731  20.614   4.631   6.276
 3267POPC   C2B44732  20.651   4.657   6.757
 3267POPC   C3B44733  20.734   4.790   7.187
 3267POPC   C4B44734  20.642   4.691   7.629
 3268POPC   NC344735  20.074   3.599   5.554
 3268POPC   PO444736  19.480   3.450   5.288
 3268POPC   GL144737  19.626   3.388   5.761
 3268POPC   GL244738  19.721   3.737   5.912
 3268POPC   C1A44739  19.768   3.364   6.240
 3268POPC   D2A44740  19.651   3.666   6.561
 3268POPC   C3A44741  19.775   3.544   6.994
 3268POPC   C4A44742  20.087   3.418   7.303
 3268POPC   C1B44743  20.102   3.767   6.226
 3268POPC   C2B44744  20.124   3.831   6.696
 3268POPC   C3B44745  20.008   4.020   7.071
 3268POPC   C4B44746  20.042   3.869   7.503
 3269POPC   NC344747  40.996  44.297   5.513
 3269POPC   PO444748  40.535  44.691   5.404
 3269POPC   GL144749  40.670  44.632   5.816
 3269POPC   GL244750  40.541  44.306   5.813
 3269POPC   C1A44751  40.939  44.802   6.181
 3269POPC   D2A44752  41.211  44.719   6.575
 3269POPC   C3A44753  40.948  44.754   6.969
 3269POPC   C4A44754  40.791   0.115   7.195
 3269POPC   C1B44755  40.618  44.396   6.278
 3269POPC   C2B44756  40.453  44.571   6.695
 3269POPC   C3B44757  40.543  44.429   7.124
 3269POPC   C4B44758  40.988  44.296   7.262
 3270POPC   NC344759   9.838  12.183   5.269
 3270POPC   PO444760  10.016  11.550   5.504
 3270POPC   GL144761   9.836  11.936   5.716
 3270POPC   GL244762   9.488  11.916   5.837
 3270POPC   C1A44763   9.918  12.245   6.056
 3270POPC   D2A44764   9.970  12.106   6.512
 3270POPC   C3A44765   9.899  12.365   6.877
 3270POPC   C4A44766   9.490  12.467   7.045
 3270POPC   C1B44767   9.534  11.978   6.251
 3270POPC   C2B44768   9.457  12.154   6.637
 3270POPC   C3B44769   9.651  11.919   6.940
 3270POPC   C4B44770   9.546  11.676   7.276
 3271POPC   NC344771   2.001  31.711   5.118
 3271POPC   PO444772   1.859  31.098   5.494
 3271POPC   GL144773   1.809  31.547   5.653
 3271POPC   GL244774   2.168  31.611   5.673
 3271POPC   C1A44775   1.769  31.776   6.076
 3271POPC   D2A44776   1.744  31.572   6.503
 3271POPC   C3A44777   1.896  31.684   6.931
 3271POPC   C4A44778   1.992  31.505   7.346
 3271POPC   C1B44779   2.180  31.457   6.111
 3271POPC   C2B44780   2.249  31.436   6.574
 3271POPC   C3B44781   2.205  31.223   6.967
 3271POPC   C4B44782   2.195  31.026   7.368
 3272POPC   NC344783  42.965  21.711   5.255
 3272POPC   PO444784  43.416  21.184   5.297
 3272POPC   GL144785  43.236  21.169   5.789
 3272POPC   GL244786  43.000  21.468   5.750
 3272POPC   C1A44787  43.095  21.146   6.290
 3272POPC   D2A44788  43.152  21.591   6.549
 3272POPC   C3A44789  43.180  21.727   7.004
 3272POPC   C4A44790  43.041  21.749   7.462
 3272POPC   C1B44791  42.808  21.544   6.161
 3272POPC   C2B44792  42.698  21.345   6.563
 3272POPC   C3B44793  42.969  21.265   6.893
 3272POPC   C4B44794  42.905  21.301   7.298
 3273POPC   NC344795   0.248   5.614   5.612
 3273POPC   PO444796   0.644   6.096   5.311
 3273POPC   GL144797   0.661   5.943   5.742
 3273POPC   GL244798   0.350   6.096   5.769
 3273POPC   C1A44799   0.539   5.854   6.199
 3273POPC   D2A44800   0.741   5.751   6.606
 3273POPC   C3A44801   0.468   5.896   6.902
 3273POPC   C4A44802   0.563   5.857   7.307
 3273POPC   C1B44803   0.118   6.202   6.099
 3273POPC   C2B44804   0.170   6.102   6.509
 3273POPC   C3B44805   0.146   6.336   6.857
 3273POPC   C4B44806   0.191   6.203   7.249
 3274POPC   NC344807  30.806  36.827   5.338
 3274POPC   PO444808  30.227  37.011   5.402
 3274POPC   GL144809  30.494  36.960   5.778
 3274POPC   GL244810  30.663  36.638   5.817
 3274POPC   C1A44811  30.645  36.920   6.223
 3274POPC   D2A44812  30.737  36.676   6.577
 3274POPC   C3A44813  30.586  36.889   6.927
 3274POPC   C4A44814  30.712  37.227   7.208
 3274POPC   C1B44815  30.961  36.504   6.145
 3274POPC   C2B44816  31.234  36.647   6.516
 3274POPC   C3B44817  31.068  36.658   6.970
 3274POPC   C4B44818  30.802  36.704   7.346
 3275POPC   NC344819  24.571  28.928   5.305
 3275POPC   PO444820  24.089  29.312   5.570
 3275POPC   GL144821  24.526  29.418   5.655
 3275POPC   GL244822  24.709  29.124   5.794
 3275POPC   C1A44823  24.522  29.488   6.107
 3275POPC   D2A44824  24.350  29.354   6.490
 3275POPC   C3A44825  24.380  29.483   6.918
 3275POPC   C4A44826  24.570  29.230   7.268
 3275POPC   C1B44827  24.548  28.955   6.209
 3275POPC   C2B44828  24.505  28.869   6.683
 3275POPC   C3B44829  24.781  28.779   7.041
 3275POPC   C4B44830  24.766  28.802   7.480
 3276POPC   NC344831   5.853   3.510   5.442
 3276POPC   PO444832   5.491   4.107   5.374
 3276POPC   GL144833   5.638   3.856   5.751
 3276POPC   GL244834   5.999   3.937   5.825
 3276POPC   C1A44835   5.671   3.645   6.164
 3276POPC   D2A44836   5.751   3.719   6.610
 3276POPC   C3A44837   5.701   3.403   6.951
 3276POPC   C4A44838   5.832   3.465   7.378
 3276POPC   C1B44839   6.167   3.758   6.239
 3276POPC   C2B44840   6.196   3.430   6.578
 3276POPC   C3B44841   6.190   3.545   7.016
 3276POPC   C4B44842   6.197   3.819   7.401
 3277POPC   NC344843  43.254  18.146   5.448
 3277POPC   PO444844  42.824  18.764   5.540
 3277POPC   GL144845  42.863  18.348   5.717
 3277POPC   GL244846  43.207  18.453   5.856
 3277POPC   C1A44847  42.956  18.098   6.104
 3277POPC   D2A44848  43.168  18.367   6.431
 3277POPC   C3A44849  42.961  18.242   6.811
 3277POPC   C4A44850  42.867  18.051   7.209
 3277POPC   C1B44851  43.473  18.117   6.065
 3277POPC   C2B44852  43.436  17.943   6.478
 3277POPC   C3B44853  43.474  18.223   6.857
 3277POPC   C4B44854  43.363  18.108   7.278
 3278POPC   NC344855  42.769   1.744   5.677
 3278POPC   PO444856  43.173   2.140   5.325
 3278POPC   GL144857  43.134   2.183   5.750
 3278POPC   GL244858  43.320   1.874   5.831
 3278POPC   C1A44859  42.896   2.201   6.143
 3278POPC   D2A44860  42.791   2.017   6.548
 3278POPC   C3A44861  43.103   2.096   6.869
 3278POPC   C4A44862  43.091   2.174   7.319
 3278POPC   C1B44863  43.237   1.583   6.191
 3278POPC   C2B44864  43.161   1.622   6.633
 3278POPC   C3B44865  43.030   1.639   7.088
 3278POPC   C4B44866  43.175   1.717   7.490
 3279POPC   NC344867   9.220  10.820   5.578
 3279POPC   PO444868   9.026  11.430   5.430
 3279POPC   GL144869   8.931  11.324   5.818
 3279POPC   GL244870   9.268  11.232   5.872
 3279POPC   C1A44871   8.917  11.132   6.247
 3279POPC   D2A44872   9.144  11.164   6.643
 3279POPC   C3A44873   8.893  11.084   6.999
 3279POPC   C4A44874   8.607  11.346   7.250
 3279POPC   C1B44875   9.261  11.546   6.180
 3279POPC   C2B44876   9.414  11.612   6.582
 3279POPC   C3B44877   9.166  11.669   6.898
 3279POPC   C4B44878   9.076  11.500   7.249
 3280POPC   NC344879  33.620  16.043   5.490
 3280POPC   PO444880  34.153  15.737   5.622
 3280POPC   GL144881  33.843  15.857   5.915
 3280POPC   GL244882  33.490  15.704   5.857
 3280POPC   C1A44883  33.876  16.157   6.237
 3280POPC   D2A44884  33.870  16.335   6.646
 3280POPC   C3A44885  33.502  16.306   6.855
 3280POPC   C4A44886  33.640  16.181   7.232
 3280POPC   C1B44887  33.577  15.577   6.265
 3280POPC   C2B44888  33.634  15.859   6.597
 3280POPC   C3B44889  33.944  15.877   6.902
 3280POPC   C4B44890  33.905  15.743   7.317
 3281POPC   NC344891  43.434  42.435   5.613
 3281POPC   PO444892  42.829  42.209   5.464
 3281POPC   GL144893  42.986  42.333   5.843
 3281POPC   GL244894  42.751  42.552   5.860
 3281POPC   C1A44895  43.163  42.274   6.274
 3281POPC   D2A44896  43.047  42.503   6.632
 3281POPC   C3A44897  43.064  42.303   7.020
 3281POPC   C4A44898  43.390  42.039   7.159
 3281POPC   C1B44899  43.065  42.744   6.182
 3281POPC   C2B44900  43.436  42.799   6.534
 3281POPC   C3B44901  43.426  42.668   7.019
 3281POPC   C4B44902  43.078  42.686   7.390
 3282POPC   NC344903  10.286  34.245   5.606
 3282POPC   PO444904  10.476  33.605   5.344
 3282POPC   GL144905  10.716  33.642   5.800
 3282POPC   GL244906  10.732  34.031   5.846
 3282POPC   C1A44907  10.686  33.730   6.277
 3282POPC   D2A44908  10.319  33.928   6.493
 3282POPC   C3A44909  10.348  33.874   6.930
 3282POPC   C4A44910  10.292  33.548   7.227
 3282POPC   C1B44911  10.690  34.241   6.258
 3282POPC   C2B44912  10.627  34.302   6.699
 3282POPC   C3B44913  10.710  34.174   7.129
 3282POPC   C4B44914  10.746  34.015   7.617
 3283POPC   NC344915  19.538   6.600   5.462
 3283POPC   PO444916  20.190   6.862   5.291
 3283POPC   GL144917  20.017   6.632   5.678
 3283POPC   GL244918  19.812   6.870   5.806
 3283POPC   C1A44919  19.871   6.500   6.134
 3283POPC   D2A44920  19.796   6.729   6.553
 3283POPC   C3A44921  19.748   6.526   6.938
 3283POPC   C4A44922  19.699   6.264   7.254
 3283POPC   C1B44923  19.498   6.899   6.155
 3283POPC   C2B44924  19.376   7.022   6.580
 3283POPC   C3B44925  19.516   6.980   7.028
 3283POPC   C4B44926  19.506   6.708   7.408
 3284POPC   NC344927   4.843  18.751   5.445
 3284POPC   PO444928   5.012  18.086   5.363
 3284POPC   GL144929   5.008  18.179   5.778
 3284POPC   GL244930   5.144  18.501   5.777
 3284POPC   C1A44931   5.203  18.231   6.196
 3284POPC   D2A44932   5.375  18.215   6.587
 3284POPC   C3A44933   5.031  18.212   6.858
 3284POPC   C4A44934   5.002  18.015   7.234
 3284POPC   C1B44935   4.810  18.539   6.085
 3284POPC   C2B44936   4.737  18.611   6.525
 3284POPC   C3B44937   4.589  18.497   6.932
 3284POPC   C4B44938   4.803  18.457   7.288
 3285POPC   NC344939  32.038  27.505   5.412
 3285POPC   PO444940  32.529  28.057   5.469
 3285POPC   GL144941  32.518  27.928   5.948
 3285POPC   GL244942  32.196  27.737   6.043
 3285POPC   C1A44943  32.578  27.689   6.354
 3285POPC   D2A44944  32.503  27.859   6.760
 3285POPC   C3A44945  32.302  27.620   7.051
 3285POPC   C4A44946  31.868  27.680   7.123
 3285POPC   C1B44947  32.091  27.617   6.495
 3285POPC   C2B44948  32.101  27.235   6.788
 3285POPC   C3B44949  32.024  27.211   7.232
 3285POPC   C4B44950  32.288  27.449   7.567
 3286POPC   NC344951  29.477  39.980   5.451
 3286POPC   PO444952  30.111  39.744   5.587
 3286POPC   GL144953  29.814  39.850   5.876
 3286POPC   GL244954  29.711  39.540   5.893
 3286POPC   C1A44955  29.691  40.016   6.301
 3286POPC   D2A44956  29.550  39.941   6.729
 3286POPC   C3A44957  29.837  40.118   7.000
 3286POPC   C4A44958  29.884  40.224   7.431
 3286POPC   C1B44959  29.828  39.530   6.324
 3286POPC   C2B44960  29.920  39.596   6.749
 3286POPC   C3B44961  29.904  39.630   7.161
 3286POPC   C4B44962  30.048  39.746   7.530
 3287POPC   NC344963   6.605  21.779   5.472
 3287POPC   PO444964   6.895  22.276   5.205
 3287POPC   GL144965   6.805  22.197   5.691
 3287POPC   GL244966   6.479  22.065   5.866
 3287POPC   C1A44967   6.856  22.290   6.136
 3287POPC   D2A44968   7.015  22.124   6.539
 3287POPC   C3A44969   6.889  22.120   6.951
 3287POPC   C4A44970   6.796  22.312   7.327
 3287POPC   C1B44971   6.632  21.844   6.277
 3287POPC   C2B44972   6.483  21.967   6.690
 3287POPC   C3B44973   6.420  22.356   6.952
 3287POPC   C4B44974   6.291  22.390   7.416
 3288POPC   NC344975  42.492  17.643   5.280
 3288POPC   PO444976  41.889  17.524   5.485
 3288POPC   GL144977  42.245  17.653   5.755
 3288POPC   GL244978  42.488  17.398   5.834
 3288POPC   C1A44979  42.435  17.785   6.172
 3288POPC   D2A44980  42.426  17.604   6.611
 3288POPC   C3A44981  42.192  17.724   6.990
 3288POPC   C4A44982  42.469  17.748   7.312
 3288POPC   C1B44983  42.173  17.342   6.214
 3288POPC   C2B44984  42.157  17.161   6.675
 3288POPC   C3B44985  42.401  17.233   7.084
 3288POPC   C4B44986  42.427  17.115   7.557
 3289POPC   NC344987  42.928   1.638   5.111
 3289POPC   PO444988  43.303   1.149   5.327
 3289POPC   GL144989  43.233   1.238   5.770
 3289POPC   GL244990  43.556   1.404   5.798
 3289POPC   C1A44991  43.039   1.095   6.186
 3289POPC   D2A44992  42.792   1.021   6.587
 3289POPC   C3A44993  43.009   1.125   6.983
 3289POPC   C4A44994  43.202   1.229   7.394
 3289POPC   C1B44995  43.558   1.146   6.176
 3289POPC   C2B44996  43.373   1.136   6.593
 3289POPC   C3B44997  43.467   1.387   6.956
 3289POPC   C4B44998  43.656   1.463   7.325
 3290POPC   NC344999  27.001  28.733   5.153
 3290POPC   PO445000  26.702  28.181   5.385
 3290POPC   GL145001  26.974  28.460   5.677
 3290POPC   GL245002  26.822  28.741   5.841
 3290POPC   C1A45003  27.059  28.423   6.157
 3290POPC   D2A45004  26.878  28.271   6.566
 3290POPC   C3A45005  27.083  28.303   6.995
 3290POPC   C4A45006  27.153  28.138   7.407
 3290POPC   C1B45007  26.638  28.731   6.299
 3290POPC   C2B45008  26.580  28.652   6.787
 3290POPC   C3B45009  26.532  28.606   7.256
 3290POPC   C4B45010  26.625  28.817   7.674
 3291POPC   NC345011  12.581  23.325   5.368
 3291POPC   PO445012  11.894  23.026   5.482
 3291POPC   GL145013  12.074  22.969   5.855
 3291POPC   GL245014  12.403  22.846   5.774
 3291POPC   C1A45015  12.043  23.046   6.284
 3291POPC   D2A45016  12.272  23.067   6.651
 3291POPC   C3A45017  12.069  22.787   6.894
 3291POPC   C4A45018  11.999  22.928   7.269
 3291POPC   C1B45019  12.534  22.918   6.187
 3291POPC   C2B45020  12.481  22.621   6.533
 3291POPC   C3B45021  12.572  22.734   6.937
 3291POPC   C4B45022  12.361  22.479   7.245
 3292POPC   NC345023  19.230   1.176   5.299
 3292POPC   PO445024  18.589   0.978   5.483
 3292POPC   GL145025  18.965   1.078   5.735
 3292POPC   GL245026  19.115   1.435   5.751
 3292POPC   C1A45027  19.227   1.097   6.112
 3292POPC   D2A45028  19.489   1.099   6.488
 3292POPC   C3A45029  19.201   1.166   6.826
 3292POPC   C4A45030  19.093   1.122   7.236
 3292POPC   C1B45031  19.329   1.590   6.173
 3292POPC   C2B45032  19.198   1.652   6.626
 3292POPC   C3B45033  19.252   1.596   7.086
 3292POPC   C4B45034  19.313   1.529   7.527
 3293POPC   NC345035  40.166  44.390   5.380
 3293POPC   PO445036  39.992   0.003   5.559
 3293POPC   GL145037  40.169  44.852   5.906
 3293POPC   GL245038  40.076  44.518   5.864
 3293POPC   C1A45039  39.977  44.764   6.308
 3293POPC   D2A45040  39.891  44.419   6.584
 3293POPC   C3A45041  40.006  44.515   7.007
 3293POPC   C4A45042  39.962  44.690   7.423
 3293POPC   C1B45043  40.158  44.201   6.173
 3293POPC   C2B45044  40.326  44.080   6.582
 3293POPC   C3B45045  40.166  44.022   6.990
 3293POPC   C4B45046  40.019  44.157   7.382
 3294POPC   NC345047  37.340  27.059   5.412
 3294POPC   PO445048  37.011  26.452   5.490
 3294POPC   GL145049  36.771  26.522   5.833
 3294POPC   GL245050  36.759  26.895   5.854
 3294POPC   C1A45051  36.842  26.595   6.283
 3294POPC   D2A45052  36.900  26.951   6.561
 3294POPC   C3A45053  37.162  26.839   6.893
 3294POPC   C4A45054  37.083  26.488   7.191
 3294POPC   C1B45055  36.535  27.092   6.209
 3294POPC   C2B45056  36.462  27.231   6.629
 3294POPC   C3B45057  36.624  27.023   7.013
 3294POPC   C4B45058  36.977  27.041   7.309
 3295POPC   NC345059  16.980  32.752   5.388
 3295POPC   PO445060  16.460  33.074   5.184
 3295POPC   GL145061  16.637  33.097   5.666
 3295POPC   GL245062  16.544  33.444   5.787
 3295POPC   C1A45063  16.679  33.033   6.148
 3295POPC   D2A45064  16.891  32.908   6.546
 3295POPC   C3A45065  16.690  32.868   6.942
 3295POPC   C4A45066  16.690  32.626   7.299
 3295POPC   C1B45067  16.589  33.550   6.241
 3295POPC   C2B45068  16.571  33.298   6.624
 3295POPC   C3B45069  16.588  33.354   7.075
 3295POPC   C4B45070  16.554  33.393   7.524
 3296POPC   NC345071  14.806  13.474   5.414
 3296POPC   PO445072  14.250  13.832   5.502
 3296POPC   GL145073  14.332  13.598   5.862
 3296POPC   GL245074  14.636  13.372   5.892
 3296POPC   C1A45075  14.151  13.771   6.232
 3296POPC   D2A45076  14.266  13.978   6.610
 3296POPC   C3A45077  14.179  13.764   6.989
 3296POPC   C4A45078  14.499  13.621   7.278
 3296POPC   C1B45079  14.649  13.566   6.313
 3296POPC   C2B45080  14.682  13.640   6.780
 3296POPC   C3B45081  14.995  13.684   7.123
 3296POPC   C4B45082  14.973  13.584   7.546
 3297POPC   NC345083  33.145  42.433   5.372
 3297POPC   PO445084  32.762  42.816   5.466
 3297POPC   GL145085  32.980  42.649   5.856
 3297POPC   GL245086  33.166  42.327   5.908
 3297POPC   C1A45087  33.011  42.603   6.327
 3297POPC   D2A45088  33.126  42.482   6.772
 3297POPC   C3A45089  32.799  42.576   7.109
 3297POPC   C4A45090  32.626  42.641   7.555
 3297POPC   C1B45091  33.404  42.266   6.328
 3297POPC   C2B45092  33.515  42.142   6.774
 3297POPC   C3B45093  33.347  42.230   7.216
 3297POPC   C4B45094  33.327  42.210   7.707
 3298POPC   NC345095   2.453  26.853   5.385
 3298POPC   PO445096   2.999  26.776   5.398
 3298POPC   GL145097   2.822  26.934   5.813
 3298POPC   GL245098   2.485  26.819   5.933
 3298POPC   C1A45099   2.789  27.071   6.284
 3298POPC   D2A45100   2.889  26.843   6.685
 3298POPC   C3A45101   2.587  26.846   7.006
 3298POPC   C4A45102   2.593  27.080   7.383
 3298POPC   C1B45103   2.827  26.573   6.193
 3298POPC   C2B45104   3.121  26.425   6.540
 3298POPC   C3B45105   3.184  26.497   6.999
 3298POPC   C4B45106   2.977  26.740   7.307
 3299POPC   NC345107  13.128  38.035   5.698
 3299POPC   PO445108  13.684  38.329   5.318
 3299POPC   GL145109  13.515  38.504   5.726
 3299POPC   GL245110  13.715  38.792   5.728
 3299POPC   C1A45111  13.346  38.416   6.169
 3299POPC   D2A45112  13.312  38.058   6.492
 3299POPC   C3A45113  13.486  38.150   6.904
 3299POPC   C4A45114  13.429  38.311   7.350
 3299POPC   C1B45115  13.861  38.562   6.110
 3299POPC   C2B45116  13.686  38.502   6.555
 3299POPC   C3B45117  13.736  38.581   7.006
 3299POPC   C4B45118  13.947  38.258   7.221
 3300POPC   NC345119  33.422  15.315   5.478
 3300POPC   PO445120  33.783  14.808   5.597
 3300POPC   GL145121  33.757  15.002   5.957
 3300POPC   GL245122  33.847  15.328   5.863
 3300POPC   C1A45123  33.723  15.084   6.384
 3300POPC   D2A45124  33.825  15.371   6.709
 3300POPC   C3A45125  33.699  15.190   7.096
 3300POPC   C4A45126  33.731  14.878   7.395
 3300POPC   C1B45127  34.164  15.265   6.198
 3300POPC   C2B45128  34.331  15.372   6.608
 3300POPC   C3B45129  34.217  15.246   7.060
 3300POPC   C4B45130  34.059  15.293   7.490
 3301POPC   NC345131   2.345  32.047   5.486
 3301POPC   PO445132   2.955  32.220   5.431
 3301POPC   GL145133   2.911  32.395   5.835
 3301POPC   GL245134   2.620  32.198   5.899
 3301POPC   C1A45135   3.013  32.222   6.263
 3301POPC   D2A45136   3.076  31.973   6.654
 3301POPC   C3A45137   3.159  32.231   7.022
 3301POPC   C4A45138   3.039  32.594   7.304
 3301POPC   C1B45139   2.587  32.503   6.226
 3301POPC   C2B45140   2.858  32.571   6.594
 3301POPC   C3B45141   2.685  32.256   6.833
 3301POPC   C4B45142   2.668  32.269   7.249
 3302POPC   NC345143  39.794  26.301   5.462
 3302POPC   PO445144  40.163  26.953   5.470
 3302POPC   GL145145  40.243  26.593   5.735
 3302POPC   GL245146  40.262  26.877   5.966
 3302POPC   C1A45147  40.106  26.456   6.170
 3302POPC   D2A45148  39.996  26.664   6.561
 3302POPC   C3A45149  39.865  26.446   6.942
 3302POPC   C4A45150  39.978  26.588   7.360
 3302POPC   C1B45151  39.826  26.968   6.181
 3302POPC   C2B45152  39.588  26.993   6.566
 3302POPC   C3B45153  39.733  26.940   7.006
 3302POPC   C4B45154  39.680  26.978   7.481
 3303POPC   NC345155  32.861  10.568   5.344
 3303POPC   PO445156  33.471  10.239   5.465
 3303POPC   GL145157  33.270  10.520   5.808
 3303POPC   GL245158  32.887  10.637   5.840
 3303POPC   C1A45159  33.116  10.429   6.235
 3303POPC   D2A45160  32.941  10.352   6.610
 3303POPC   C3A45161  33.211  10.316   6.937
 3303POPC   C4A45162  33.220  10.600   7.267
 3303POPC   C1B45163  32.697  10.758   6.243
 3303POPC   C2B45164  32.808  10.909   6.664
 3303POPC   C3B45165  32.775  10.626   7.017
 3303POPC   C4B45166  32.772  10.154   7.158
 3304POPC   NC345167  12.185  36.705   5.406
 3304POPC   PO445168  11.898  37.275   5.434
 3304POPC   GL145169  12.069  37.132   5.858
 3304POPC   GL245170  12.290  36.822   5.886
 3304POPC   C1A45171  12.144  36.977   6.338
 3304POPC   D2A45172  12.324  36.858   6.758
 3304POPC   C3A45173  12.158  36.998   7.182
 3304POPC   C4A45174  11.943  37.038   7.598
 3304POPC   C1B45175  11.859  36.677   6.018
 3304POPC   C2B45176  11.658  36.620   6.428
 3304POPC   C3B45177  11.657  36.496   6.872
 3304POPC   C4B45178  11.756  36.706   7.262
 3305POPC   NC345179   6.774  39.212   5.113
 3305POPC   PO445180   6.414  39.116   5.677
 3305POPC   GL145181   6.587  39.424   5.949
 3305POPC   GL245182   6.709  39.687   5.732
 3305POPC   C1A45183   6.556  39.479   6.404
 3305POPC   D2A45184   6.431  39.263   6.776
 3305POPC   C3A45185   6.746  39.038   7.005
 3305POPC   C4A45186   6.845  39.042   7.459
 3305POPC   C1B45187   6.832  39.852   6.148
 3305POPC   C2B45188   6.878  39.838   6.610
 3305POPC   C3B45189   6.584  39.754   6.945
 3305POPC   C4B45190   6.598  39.456   7.261
 3306POPC   NC345191  43.409  20.075   5.538
 3306POPC   PO445192  42.868  19.697   5.466
 3306POPC   GL145193  42.968  19.697   5.894
 3306POPC   GL245194  43.299  19.851   5.958
 3306POPC   C1A45195  42.962  19.915   6.317
 3306POPC   D2A45196  42.920  20.003   6.754
 3306POPC   C3A45197  42.946  19.633   6.980
 3306POPC   C4A45198  43.102  19.476   7.330
 3306POPC   C1B45199  43.590  19.929   6.288
 3306POPC   C2B45200  43.570  20.091   6.717
 3306POPC   C3B45201  43.349  19.989   7.101
 3306POPC   C4B45202  43.421  20.035   7.579
 3307POPC   NC345203   6.593   0.674   5.525
 3307POPC   PO445204   6.328   0.008   5.478
 3307POPC   GL145205   6.466   0.087   5.887
 3307POPC   GL245206   6.793   0.239   5.824
 3307POPC   C1A45207   6.485   0.368   6.254
 3307POPC   D2A45208   6.829   0.474   6.541
 3307POPC   C3A45209   6.773   0.647   6.966
 3307POPC   C4A45210   6.911   0.678   7.412
 3307POPC   C1B45211   6.915   0.054   6.220
 3307POPC   C2B45212   7.063   0.020   6.622
 3307POPC   C3B45213   6.845   0.138   6.964
 3307POPC   C4B45214   6.607   0.289   7.323
 3308POPC   NC345215   6.765   4.068   5.441
 3308POPC   PO445216   6.291   3.553   5.604
 3308POPC   GL145217   6.509   3.308   5.857
 3308POPC   GL245218   6.761   3.580   5.861
 3308POPC   C1A45219   6.460   3.072   6.242
 3308POPC   D2A45220   6.479   2.975   6.682
 3308POPC   C3A45221   6.656   3.302   6.975
 3308POPC   C4A45222   6.634   3.710   7.201
 3308POPC   C1B45223   6.638   3.558   6.290
 3308POPC   C2B45224   6.613   3.721   6.680
 3308POPC   C3B45225   7.013   3.687   6.895
 3308POPC   C4B45226   7.086   3.909   7.302
 3309POPC   NC345227  31.756  34.811   5.469
 3309POPC   PO445228  31.549  34.277   5.798
 3309POPC   GL145229  31.492  34.687   5.932
 3309POPC   GL245230  31.766  34.910   5.956
 3309POPC   C1A45231  31.528  34.662   6.378
 3309POPC   D2A45232  31.435  34.396   6.721
 3309POPC   C3A45233  31.413  34.684   7.062
 3309POPC   C4A45234  31.436  34.599   7.495
 3309POPC   C1B45235  32.014  34.764   6.298
 3309POPC   C2B45236  31.924  34.597   6.715
 3309POPC   C3B45237  31.849  34.446   7.121
 3309POPC   C4B45238  31.864  34.810   7.341
 3310POPC   NC345239  32.604  14.617   5.416
 3310POPC   PO445240  32.106  14.108   5.360
 3310POPC   GL145241  32.316  14.300   5.707
 3310POPC   GL245242  32.477  14.029   5.849
 3310POPC   C1A45243  32.244  14.661   6.028
 3310POPC   D2A45244  32.162  14.880   6.462
 3310POPC   C3A45245  32.110  14.671   6.898
 3310POPC   C4A45246  32.240  14.668   7.349
 3310POPC   C1B45247  32.351  14.203   6.241
 3310POPC   C2B45248  32.190  14.209   6.658
 3310POPC   C3B45249  32.248  14.031   7.067
 3310POPC   C4B45250  32.496  14.210   7.358
 3311POPC   NC345251  40.278  33.566   5.389
 3311POPC   PO445252  39.750  33.988   5.642
 3311POPC   GL145253  40.092  33.939   5.863
 3311POPC   GL245254  40.098  33.610   5.862
 3311POPC   C1A45255  40.061  33.935   6.307
 3311POPC   D2A45256  40.205  33.902   6.711
 3311POPC   C3A45257  39.946  33.987   7.066
 3311POPC   C4A45258  40.003  33.966   7.547
 3311POPC   C1B45259  40.257  33.467   6.254
 3311POPC   C2B45260  40.249  33.334   6.680
 3311POPC   C3B45261  40.184  33.509   7.099
 3311POPC   C4B45262  39.777  33.583   7.303
 3312POPC   NC345263  16.173  24.124   5.130
 3312POPC   PO445264  16.294  23.471   5.304
 3312POPC   GL145265  16.132  23.660   5.710
 3312POPC   GL245266  15.814  23.824   5.625
 3312POPC   C1A45267  16.076  23.532   6.174
 3312POPC   D2A45268  16.311  23.399   6.562
 3312POPC   C3A45269  16.075  23.379   6.956
 3312POPC   C4A45270  15.940  23.675   7.229
 3312POPC   C1B45271  15.849  23.982   6.072
 3312POPC   C2B45272  15.711  24.131   6.491
 3312POPC   C3B45273  15.841  24.108   6.921
 3312POPC   C4B45274  15.513  23.984   7.192
 3313POPC   NC345275  25.450   6.137   5.185
 3313POPC   PO445276  25.120   5.724   5.496
 3313POPC   GL145277  25.341   5.827   5.854
 3313POPC   GL245278  25.582   5.559   5.840
 3313POPC   C1A45279  25.202   5.979   6.261
 3313POPC   D2A45280  25.084   5.777   6.660
 3313POPC   C3A45281  24.999   5.973   7.103
 3313POPC   C4A45282  25.183   5.928   7.510
 3313POPC   C1B45283  25.371   5.505   6.255
 3313POPC   C2B45284  25.557   5.544   6.662
 3313POPC   C3B45285  25.424   5.710   7.065
 3313POPC   C4B45286  25.566   5.586   7.458
 3314POPC   NC345287  20.745  40.903   5.382
 3314POPC   PO445288  20.434  40.326   5.452
 3314POPC   GL145289  20.528  40.647   5.788
 3314POPC   GL245290  20.352  40.946   5.768
 3314POPC   C1A45291  20.808  40.764   6.145
 3314POPC   D2A45292  20.970  40.851   6.598
 3314POPC   C3A45293  20.848  40.662   7.023
 3314POPC   C4A45294  21.035  40.354   7.303
 3314POPC   C1B45295  20.335  40.919   6.244
 3314POPC   C2B45296  20.477  40.745   6.660
 3314POPC   C3B45297  20.359  40.810   7.112
 3314POPC   C4B45298  20.283  41.197   7.320
 3315POPC   NC345299   8.858  34.855   5.434
 3315POPC   PO445300   8.905  34.136   5.349
 3315POPC   GL145301   8.952  34.349   5.780
 3315POPC   GL245302   9.155  34.661   5.809
 3315POPC   C1A45303   9.096  34.331   6.223
 3315POPC   D2A45304   9.190  34.410   6.659
 3315POPC   C3A45305   8.874  34.604   6.937
 3315POPC   C4A45306   8.846  34.504   7.333
 3315POPC   C1B45307   8.996  34.834   6.193
 3315POPC   C2B45308   9.204  34.924   6.571
 3315POPC   C3B45309   9.331  34.798   6.976
 3315POPC   C4B45310   9.184  34.924   7.315
 3316POPC   NC345311  14.944  23.445   5.579
 3316POPC   PO445312  14.887  24.137   5.429
 3316POPC   GL145313  15.155  23.960   5.763
 3316POPC   GL245314  15.362  23.627   5.806
 3316POPC   C1A45315  15.040  23.794   6.176
 3316POPC   D2A45316  15.043  23.613   6.588
 3316POPC   C3A45317  15.051  23.876   6.936
 3316POPC   C4A45318  15.032  23.905   7.369
 3316POPC   C1B45319  15.526  23.628   6.242
 3316POPC   C2B45320  15.783  23.632   6.607
 3316POPC   C3B45321  15.538  23.543   6.951
 3316POPC   C4B45322  15.336  23.515   7.342
 3317POPC   NC345323  10.546  43.309   5.278
 3317POPC   PO445324  10.219  42.733   5.354
 3317POPC   GL145325  10.432  42.923   5.776
 3317POPC   GL245326  10.590  43.281   5.830
 3317POPC   C1A45327  10.528  42.983   6.250
 3317POPC   D2A45328  10.595  43.302   6.593
 3317POPC   C3A45329  10.498  43.182   7.009
 3317POPC   C4A45330  10.503  42.753   7.090
 3317POPC   C1B45331  10.926  43.309   6.186
 3317POPC   C2B45332  11.018  43.569   6.545
 3317POPC   C3B45333  11.080  43.394   6.930
 3317POPC   C4B45334  10.855  43.376   7.321
 3318POPC   NC345335   7.840  14.647   5.334
 3318POPC   PO445336   8.386  14.241   5.445
 3318POPC   GL145337   8.244  14.316   5.866
 3318POPC   GL245338   7.951  14.538   5.854
 3318POPC   C1A45339   8.105  14.337   6.305
 3318POPC   D2A45340   8.006  14.627   6.623
 3318POPC   C3A45341   8.136  14.513   6.985
 3318POPC   C4A45342   8.365  14.316   7.287
 3318POPC   C1B45343   7.685  14.635   6.228
 3318POPC   C2B45344   7.540  14.474   6.591
 3318POPC   C3B45345   7.710  14.177   6.860
 3318POPC   C4B45346   7.863  14.178   7.270
 3319POPC   NC345347  27.098  25.480   5.441
 3319POPC   PO445348  27.676  25.747   5.466
 3319POPC   GL145349  27.499  25.778   5.859
 3319POPC   GL245350  27.295  25.501   5.908
 3319POPC   C1A45351  27.679  25.545   6.242
 3319POPC   D2A45352  27.604  25.391   6.660
 3319POPC   C3A45353  27.860  25.434   7.018
 3319POPC   C4A45354  27.935  25.104   7.328
 3319POPC   C1B45355  27.202  25.748   6.275
 3319POPC   C2B45356  27.346  25.849   6.705
 3319POPC   C3B45357  27.353  25.583   7.104
 3319POPC   C4B45358  27.171  25.308   7.417
 3320POPC   NC345359  14.501  36.493   5.239
 3320POPC   PO445360  14.134  35.979   5.451
 3320POPC   GL145361  14.314  36.075   5.857
 3320POPC   GL245362  14.395  36.424   5.754
 3320POPC   C1A45363  14.457  35.888   6.293
 3320POPC   D2A45364  14.758  35.805   6.663
 3320POPC   C3A45365  14.567  36.005   7.027
 3320POPC   C4A45366  14.201  35.804   7.159
 3320POPC   C1B45367  14.566  36.394   6.173
 3320POPC   C2B45368  14.701  36.321   6.608
 3320POPC   C3B45369  14.750  36.517   7.027
 3320POPC   C4B45370  14.647  36.416   7.473
 3321POPC   NC345371   1.871  44.676   5.427
 3321POPC   PO445372   1.643   0.300   5.617
 3321POPC   GL145373   1.919  44.966   5.874
 3321POPC   GL245374   2.214  44.702   5.802
 3321POPC   C1A45375   1.985  44.777   6.298
 3321POPC   D2A45376   1.649  44.730   6.586
 3321POPC   C3A45377   1.731  44.686   6.992
 3321POPC   C4A45378   1.616  44.341   7.240
 3321POPC   C1B45379   2.339  44.413   6.140
 3321POPC   C2B45380   2.462  44.586   6.520
 3321POPC   C3B45381   2.225  44.734   6.851
 3321POPC   C4B45382   2.138  44.492   7.241
 3322POPC   NC345383  22.632  42.149   5.363
 3322POPC   PO445384  23.089  42.593   5.327
 3322POPC   GL145385  22.886  42.448   5.707
 3322POPC   GL245386  22.910  42.752   5.853
 3322POPC   C1A45387  22.920  42.251   6.148
 3322POPC   D2A45388  22.759  42.321   6.612
 3322POPC   C3A45389  22.824  42.133   7.044
 3322POPC   C4A45390  22.746  42.225   7.505
 3322POPC   C1B45391  22.802  42.733   6.282
 3322POPC   C2B45392  22.983  42.784   6.702
 3322POPC   C3B45393  22.934  42.621   7.122
 3322POPC   C4B45394  22.984  42.685   7.561
 3323POPC   NC345395  44.189  22.308   5.105
 3323POPC   PO445396  44.812  22.272   5.273
 3323POPC   GL145397  44.553  22.206   5.679
 3323POPC   GL245398  44.632  21.904   5.852
 3323POPC   C1A45399  44.660  22.325   6.139
 3323POPC   D2A45400  44.792  22.110   6.524
 3323POPC   C3A45401  44.574  22.167   6.922
 3323POPC   C4A45402  44.725  22.362   7.325
 3323POPC   C1B45403  44.366  21.915   6.238
 3323POPC   C2B45404  44.118  21.915   6.612
 3323POPC   C3B45405  44.209  21.811   7.039
 3323POPC   C4B45406  44.562  21.889   7.356
 3324POPC   NC345407  19.962  40.346   5.428
 3324POPC   PO445408  19.539  40.695   5.231
 3324POPC   GL145409  19.573  40.565   5.684
 3324POPC   GL245410  19.832  40.828   5.855
 3324POPC   C1A45411  19.450  40.657   6.139
 3324POPC   D2A45412  19.645  40.891   6.467
 3324POPC   C3A45413  19.578  40.937   6.884
 3324POPC   C4A45414  19.843  40.807   7.246
 3324POPC   C1B45415  19.905  41.205   6.181
 3324POPC   C2B45416  19.742  41.381   6.625
 3324POPC   C3B45417  19.829  41.314   7.111
 3324POPC   C4B45418  19.819  41.196   7.585
 3325POPC   NC345419  24.996  30.430   5.519
 3325POPC   PO445420  25.628  30.795   5.490
 3325POPC   GL145421  25.388  30.599   5.810
 3325POPC   GL245422  25.077  30.822   5.866
 3325POPC   C1A45423  25.288  30.523   6.266
 3325POPC   D2A45424  25.034  30.661   6.646
 3325POPC   C3A45425  25.190  30.573   7.079
 3325POPC   C4A45426  25.592  30.661   7.296
 3325POPC   C1B45427  25.453  30.988   6.115
 3325POPC   C2B45428  25.627  30.863   6.506
 3325POPC   C3B45429  25.591  31.010   6.921
 3325POPC   C4B45430  25.271  31.066   7.210
 3326POPC   NC345431  33.296  34.278   5.588
 3326POPC   PO445432  33.120  33.650   5.405
 3326POPC   GL145433  32.997  33.862   5.813
 3326POPC   GL245434  32.797  34.147   5.787
 3326POPC   C1A45435  33.010  33.879   6.282
 3326POPC   D2A45436  32.816  33.618   6.610
 3326POPC   C3A45437  32.967  33.705   7.023
 3326POPC   C4A45438  33.348  33.858   7.069
 3326POPC   C1B45439  32.918  34.358   6.167
 3326POPC   C2B45440  33.014  34.303   6.617
 3326POPC   C3B45441  32.965  34.211   7.066
 3326POPC   C4B45442  33.057  34.009   7.470
 3327POPC   NC345443  28.950  25.360   5.584
 3327POPC   PO445444  29.394  25.049   5.542
 3327POPC   GL145445  29.274  25.229   5.954
 3327POPC   GL245446  28.937  25.121   6.038
 3327POPC   C1A45447  29.251  25.377   6.392
 3327POPC   D2A45448  29.554  25.352   6.740
 3327POPC   C3A45449  29.376  25.333   7.183
 3327POPC   C4A45450  29.288  25.575   7.584
 3327POPC   C1B45451  29.200  24.871   6.331
 3327POPC   C2B45452  29.267  24.920   6.763
 3327POPC   C3B45453  29.034  24.943   7.137
 3327POPC   C4B45454  28.728  24.812   7.447
 3328POPC   NC345455  17.646   6.207   5.461
 3328POPC   PO445456  17.216   5.690   5.447
 3328POPC   GL145457  17.447   5.631   5.809
 3328POPC   GL245458  17.643   5.331   5.791
 3328POPC   C1A45459  17.422   5.811   6.215
 3328POPC   D2A45460  17.149   5.715   6.541
 3328POPC   C3A45461  17.349   5.777   6.914
 3328POPC   C4A45462  17.474   5.938   7.273
 3328POPC   C1B45463  17.769   5.414   6.183
 3328POPC   C2B45464  17.690   5.567   6.577
 3328POPC   C3B45465  17.698   5.387   6.964
 3328POPC   C4B45466  17.575   5.441   7.356
 3329POPC   NC345467  40.566  10.734   5.572
 3329POPC   PO445468  40.992  10.301   5.432
 3329POPC   GL145469  40.944  10.419   5.821
 3329POPC   GL245470  40.628  10.280   5.858
 3329POPC   C1A45471  41.161  10.559   6.174
 3329POPC   D2A45472  41.230  10.390   6.556
 3329POPC   C3A45473  41.003  10.394   6.903
 3329POPC   C4A45474  40.964  10.693   7.163
 3329POPC   C1B45475  40.669  10.457   6.292
 3329POPC   C2B45476  40.518  10.521   6.738
 3329POPC   C3B45477  40.468  10.729   7.153
 3329POPC   C4B45478  40.339  10.553   7.572
 3330POPC   NC345479  41.014   4.825   5.424
 3330POPC   PO445480  40.438   5.168   5.463
 3330POPC   GL145481  40.611   4.875   5.778
 3330POPC   GL245482  40.874   5.096   5.838
 3330POPC   C1A45483  40.779   4.811   6.236
 3330POPC   D2A45484  40.834   5.124   6.546
 3330POPC   C3A45485  40.500   5.080   6.828
 3330POPC   C4A45486  40.618   5.099   7.220
 3330POPC   C1B45487  40.552   5.303   6.144
 3330POPC   C2B45488  40.491   5.526   6.567
 3330POPC   C3B45489  40.766   5.500   6.950
 3330POPC   C4B45490  40.997   5.426   7.334
 3331POPC   NC345491   8.210   3.591   5.128
 3331POPC   PO445492   8.172   4.283   5.375
 3331POPC   GL145493   8.207   4.244   5.788
 3331POPC   GL245494   8.456   4.477   5.842
 3331POPC   C1A45495   8.328   4.179   6.216
 3331POPC   D2A45496   8.245   4.428   6.574
 3331POPC   C3A45497   8.246   4.151   6.905
 3331POPC   C4A45498   8.474   4.120   7.261
 3331POPC   C1B45499   8.594   4.657   6.220
 3331POPC   C2B45500   8.626   4.808   6.635
 3331POPC   C3B45501   8.562   4.576   6.988
 3331POPC   C4B45502   8.618   4.562   7.448
 3332POPC   NC345503  42.818  40.807   5.344
 3332POPC   PO445504  43.290  41.330   5.433
 3332POPC   GL145505  43.039  41.122   5.736
 3332POPC   GL245506  43.108  40.772   5.764
 3332POPC   C1A45507  42.924  41.100   6.177
 3332POPC   D2A45508  43.166  41.097   6.562
 3332POPC   C3A45509  42.950  41.104   6.953
 3332POPC   C4A45510  43.142  40.909   7.337
 3332POPC   C1B45511  42.960  40.588   6.138
 3332POPC   C2B45512  42.849  40.692   6.551
 3332POPC   C3B45513  42.951  40.592   6.975
 3332POPC   C4B45514  42.900  40.424   7.393
 3333POPC   NC345515  19.521  33.903   5.415
 3333POPC   PO445516  18.823  33.608   5.365
 3333POPC   GL145517  19.080  33.731   5.703
 3333POPC   GL245518  19.323  33.481   5.699
 3333POPC   C1A45519  19.012  33.951   6.123
 3333POPC   D2A45520  18.794  33.871   6.540
 3333POPC   C3A45521  18.992  33.890   6.959
 3333POPC   C4A45522  18.892  33.546   7.201
 3333POPC   C1B45523  19.581  33.557   6.058
 3333POPC   C2B45524  19.584  33.684   6.489
 3333POPC   C3B45525  19.601  33.657   6.925
 3333POPC   C4B45526  19.401  33.625   7.283
 3334POPC   NC345527   8.422   8.617   5.487
 3334POPC   PO445528   8.274   7.985   5.490
 3334POPC   GL145529   8.063   8.134   5.821
 3334POPC   GL245530   8.307   8.342   5.920
 3334POPC   C1A45531   7.972   7.979   6.227
 3334POPC   D2A45532   7.815   8.138   6.604
 3334POPC   C3A45533   8.105   8.134   6.900
 3334POPC   C4A45534   7.964   8.204   7.297
 3334POPC   C1B45535   8.424   8.232   6.343
 3334POPC   C2B45536   8.601   8.414   6.706
 3334POPC   C3B45537   8.635   8.265   7.083
 3334POPC   C4B45538   8.420   7.983   7.276
 3335POPC   NC345539  27.131  44.601   5.308
 3335POPC   PO445540  27.674  44.324   5.251
 3335POPC   GL145541  27.569  44.510   5.697
 3335POPC   GL245542  27.415  44.848   5.809
 3335POPC   C1A45543  27.745  44.598   6.133
 3335POPC   D2A45544  27.935  44.570   6.545
 3335POPC   C3A45545  27.702  44.667   6.883
 3335POPC   C4A45546  27.576  44.579   7.276
 3335POPC   C1B45547  27.256  44.708   6.238
 3335POPC   C2B45548  27.178  44.652   6.678
 3335POPC   C3B45549  27.282  44.970   6.966
 3335POPC   C4B45550  27.200   0.008   7.368
 3336POPC   NC345551   2.108   2.939   5.113
 3336POPC   PO445552   2.256   2.476   5.611
 3336POPC   GL145553   2.244   2.708   5.950
 3336POPC   GL245554   1.991   2.939   5.843
 3336POPC   C1A45555   2.147   2.733   6.372
 3336POPC   D2A45556   1.854   2.642   6.683
 3336POPC   C3A45557   2.015   2.534   7.063
 3336POPC   C4A45558   2.419   2.483   7.249
 3336POPC   C1B45559   2.182   3.199   6.156
 3336POPC   C2B45560   1.900   3.198   6.526
 3336POPC   C3B45561   1.900   3.085   6.952
 3336POPC   C4B45562   2.187   2.948   7.293
 3337POPC   NC345563  33.815  32.605   5.192
 3337POPC   PO445564  33.989  32.161   5.703
 3337POPC   GL145565  33.729  32.123   6.022
 3337POPC   GL245566  33.446  32.034   5.819
 3337POPC   C1A45567  33.936  32.188   6.423
 3337POPC   D2A45568  34.175  31.900   6.700
 3337POPC   C3A45569  34.069  31.991   7.104
 3337POPC   C4A45570  33.754  32.346   7.191
 3337POPC   C1B45571  33.242  32.138   6.194
 3337POPC   C2B45572  33.324  32.312   6.579
 3337POPC   C3B45573  33.619  32.050   6.805
 3337POPC   C4B45574  33.607  31.871   7.211
 3338POPC   NC345575  17.962   8.636   5.505
 3338POPC   PO445576  17.980   9.307   5.505
 3338POPC   GL145577  18.203   9.125   5.839
 3338POPC   GL245578  18.354   8.856   5.756
 3338POPC   C1A45579  18.136   8.872   6.219
 3338POPC   D2A45580  18.274   9.041   6.615
 3338POPC   C3A45581  18.074   8.911   7.005
 3338POPC   C4A45582  18.126   9.116   7.421
 3338POPC   C1B45583  18.616   8.983   6.125
 3338POPC   C2B45584  18.573   8.651   6.436
 3338POPC   C3B45585  18.498   8.614   6.888
 3338POPC   C4B45586  18.563   8.888   7.258
 3339POPC   NC345587  37.855  44.329   5.571
 3339POPC   PO445588  37.553  43.626   5.592
 3339POPC   GL145589  37.693  43.849   5.940
 3339POPC   GL245590  37.603  44.223   6.004
 3339POPC   C1A45591  37.656  43.863   6.351
 3339POPC   D2A45592  37.648  44.173   6.603
 3339POPC   C3A45593  37.725  43.998   6.983
 3339POPC   C4A45594  37.490  43.958   7.339
 3339POPC   C1B45595  38.037  44.175   6.181
 3339POPC   C2B45596  38.197  44.384   6.521
 3339POPC   C3B45597  37.980  44.455   6.889
 3339POPC   C4B45598  37.860  44.341   7.330
 3340POPC   NC345599   3.708  44.479   5.447
 3340POPC   PO445600   3.214  44.853   5.322
 3340POPC   GL145601   3.378  44.778   5.766
 3340POPC   GL245602   3.229  44.457   5.821
 3340POPC   C1A45603   3.535  44.878   6.226
 3340POPC   D2A45604   3.395  44.752   6.657
 3340POPC   C3A45605   3.602  44.906   7.032
 3340POPC   C4A45606   3.885  44.952   7.391
 3340POPC   C1B45607   3.385  44.398   6.259
 3340POPC   C2B45608   3.424  44.228   6.691
 3340POPC   C3B45609   3.552  44.355   7.113
 3340POPC   C4B45610   3.381  44.625   7.414
 3341POPC   NC345611  28.095  43.181   5.460
 3341POPC   PO445612  28.746  43.284   5.450
 3341POPC   GL145613  28.457  43.262   5.815
 3341POPC   GL245614  28.306  42.937   5.855
 3341POPC   C1A45615  28.304  43.298   6.239
 3341POPC   D2A45616  28.412  43.134   6.618
 3341POPC   C3A45617  28.241  43.358   7.007
 3341POPC   C4A45618  28.119  43.280   7.439
 3341POPC   C1B45619  28.480  42.784   6.234
 3341POPC   C2B45620  28.700  42.700   6.613
 3341POPC   C3B45621  28.580  42.870   7.003
 3341POPC   C4B45622  28.270  42.843   7.281
 3342POPC   NC345623  40.397   5.600   5.320
 3342POPC   PO445624  40.795   6.099   5.391
 3342POPC   GL145625  40.555   5.905   5.706
 3342POPC   GL245626  40.733   5.581   5.731
 3342POPC   C1A45627  40.497   5.845   6.159
 3342POPC   D2A45628  40.673   6.014   6.556
 3342POPC   C3A45629  40.484   5.918   6.951
 3342POPC   C4A45630  40.688   5.867   7.343
 3342POPC   C1B45631  41.032   5.504   6.107
 3342POPC   C2B45632  41.060   5.617   6.552
 3342POPC   C3B45633  41.038   5.931   6.921
 3342POPC   C4B45634  41.210   5.889   7.324
 3343POPC   NC345635  24.092  32.361   5.405
 3343POPC   PO445636  24.789  32.606   5.548
 3343POPC   GL145637  24.667  32.365   5.922
 3343POPC   GL245638  24.326  32.268   5.850
 3343POPC   C1A45639  24.496  32.100   6.288
 3343POPC   D2A45640  24.365  31.860   6.628
 3343POPC   C3A45641  24.482  32.041   6.983
 3343POPC   C4A45642  24.707  32.218   7.320
 3343POPC   C1B45643  24.065  32.381   6.196
 3343POPC   C2B45644  24.119  32.337   6.654
 3343POPC   C3B45645  24.000  32.234   7.082
 3343POPC   C4B45646  24.231  32.160   7.436
 3344POPC   NC345647   0.742  25.381   5.564
 3344POPC   PO445648   1.344  25.291   5.346
 3344POPC   GL145649   1.202  25.204   5.770
 3344POPC   GL245650   1.344  24.905   5.869
 3344POPC   C1A45651   1.135  25.324   6.204
 3344POPC   D2A45652   1.065  25.256   6.652
 3344POPC   C3A45653   1.213  25.328   7.085
 3344POPC   C4A45654   1.385  25.112   7.500
 3344POPC   C1B45655   1.493  24.903   6.277
 3344POPC   C2B45656   1.511  25.016   6.699
 3344POPC   C3B45657   1.424  24.872   7.056
 3344POPC   C4B45658   1.681  24.715   7.342
 3345POPC   NC345659  31.901  19.693   5.314
 3345POPC   PO445660  32.601  19.864   5.192
 3345POPC   GL145661  32.403  19.794   5.626
 3345POPC   GL245662  32.061  19.840   5.753
 3345POPC   C1A45663  32.388  19.619   6.060
 3345POPC   D2A45664  32.207  19.624   6.461
 3345POPC   C3A45665  32.439  19.788   6.790
 3345POPC   C4A45666  32.338  19.680   7.205
 3345POPC   C1B45667  31.944  19.973   6.136
 3345POPC   C2B45668  32.076  20.142   6.522
 3345POPC   C3B45669  32.011  20.009   6.926
 3345POPC   C4B45670  32.203  20.165   7.251
 3346POPC   NC345671  11.439  24.591   5.275
 3346POPC   PO445672  10.848  24.885   5.439
 3346POPC   GL145673  11.187  24.783   5.741
 3346POPC   GL245674  11.224  24.418   5.767
 3346POPC   C1A45675  11.276  24.721   6.204
 3346POPC   D2A45676  11.387  24.770   6.645
 3346POPC   C3A45677  11.243  24.626   7.046
 3346POPC   C4A45678  11.331  24.711   7.487
 3346POPC   C1B45679  10.991  24.265   6.169
 3346POPC   C2B45680  11.182  24.270   6.609
 3346POPC   C3B45681  11.583  24.292   6.873
 3346POPC   C4B45682  11.523  24.270   7.332
 3347POPC   NC345683  14.815  19.460   5.452
 3347POPC   PO445684  14.235  18.984   5.432
 3347POPC   GL145685  14.456  19.065   5.783
 3347POPC   GL245686  14.695  19.302   5.929
 3347POPC   C1A45687  14.481  18.927   6.191
 3347POPC   D2A45688  14.445  19.181   6.546
 3347POPC   C3A45689  14.232  18.975   6.860
 3347POPC   C4A45690  14.151  19.097   7.250
 3347POPC   C1B45691  14.743  19.557   6.335
 3347POPC   C2B45692  14.721  19.567   6.796
 3347POPC   C3B45693  14.644  19.211   7.093
 3347POPC   C4B45694  14.549  19.164   7.552
 3348POPC   NC345695   9.266   4.674   5.563
 3348POPC   PO445696   9.745   4.365   5.197
 3348POPC   GL145697   9.852   4.463   5.690
 3348POPC   GL245698   9.559   4.457   5.932
 3348POPC   C1A45699  10.003   4.336   6.150
 3348POPC   D2A45700   9.746   4.413   6.538
 3348POPC   C3A45701   9.921   4.513   6.957
 3348POPC   C4A45702   9.993   4.288   7.342
 3348POPC   C1B45703   9.344   4.174   6.217
 3348POPC   C2B45704   9.318   4.138   6.638
 3348POPC   C3B45705   9.431   4.380   6.984
 3348POPC   C4B45706   9.464   4.187   7.341
 3349POPC   NC345707  32.852  18.447   5.507
 3349POPC   PO445708  33.268  17.945   5.444
 3349POPC   GL145709  33.042  18.098   5.833
 3349POPC   GL245710  32.681  18.021   5.841
 3349POPC   C1A45711  33.065  18.396   6.223
 3349POPC   D2A45712  33.401  18.522   6.557
 3349POPC   C3A45713  33.244  18.603   7.012
 3349POPC   C4A45714  32.978  18.373   7.311
 3349POPC   C1B45715  32.715  18.005   6.291
 3349POPC   C2B45716  32.679  17.982   6.756
 3349POPC   C3B45717  32.507  18.033   7.182
 3349POPC   C4B45718  32.506  18.324   7.563
 3350POPC   NC345719   3.377   6.202   5.438
 3350POPC   PO445720   4.002   6.505   5.301
 3350POPC   GL145721   3.735   6.786   5.635
 3350POPC   GL245722   3.422   6.655   5.738
 3350POPC   C1A45723   3.701   6.799   6.142
 3350POPC   D2A45724   3.689   6.527   6.560
 3350POPC   C3A45725   3.531   6.506   7.002
 3350POPC   C4A45726   3.517   6.799   7.338
 3350POPC   C1B45727   3.320   6.451   6.132
 3350POPC   C2B45728   3.159   6.507   6.557
 3350POPC   C3B45729   3.071   6.282   6.924
 3350POPC   C4B45730   3.232   6.298   7.383
 3351POPC   NC345731  20.468  34.222   5.426
 3351POPC   PO445732  20.709  33.559   5.219
 3351POPC   GL145733  20.563  33.781   5.635
 3351POPC   GL245734  20.809  34.033   5.770
 3351POPC   C1A45735  20.444  33.714   6.086
 3351POPC   D2A45736  20.564  33.507   6.492
 3351POPC   C3A45737  20.514  33.783   6.864
 3351POPC   C4A45738  20.388  33.969   7.290
 3351POPC   C1B45739  20.967  34.121   6.201
 3351POPC   C2B45740  20.946  34.092   6.664
 3351POPC   C3B45741  20.871  34.090   7.102
 3351POPC   C4B45742  20.813  34.170   7.551
 3352POPC   NC345743  38.918   6.793   5.377
 3352POPC   PO445744  39.463   6.435   5.405
 3352POPC   GL145745  39.316   6.488   5.785
 3352POPC   GL245746  38.978   6.421   5.729
 3352POPC   C1A45747  39.423   6.485   6.227
 3352POPC   D2A45748  39.353   6.724   6.596
 3352POPC   C3A45749  39.405   6.597   7.017
 3352POPC   C4A45750  39.333   6.227   7.224
 3352POPC   C1B45751  38.983   6.732   6.085
 3352POPC   C2B45752  38.851   6.920   6.493
 3352POPC   C3B45753  39.021   6.939   6.920
 3352POPC   C4B45754  38.899   6.806   7.305
 3353POPC   NC345755  32.533   5.960   5.210
 3353POPC   PO445756  32.041   5.557   5.239
 3353POPC   GL145757  32.113   5.644   5.679
 3353POPC   GL245758  32.287   5.977   5.697
 3353POPC   C1A45759  32.137   5.495   6.138
 3353POPC   D2A45760  32.239   5.630   6.583
 3353POPC   C3A45761  32.054   5.571   7.002
 3353POPC   C4A45762  32.186   5.967   7.217
 3353POPC   C1B45763  32.548   6.222   6.006
 3353POPC   C2B45764  32.579   6.299   6.459
 3353POPC   C3B45765  32.557   6.126   6.876
 3353POPC   C4B45766  32.624   6.284   7.278
 3354POPC   NC345767  38.269  31.830   5.166
 3354POPC   PO445768  38.771  31.396   5.389
 3354POPC   GL145769  38.421  31.375   5.738
 3354POPC   GL245770  38.086  31.212   5.648
 3354POPC   C1A45771  38.392  31.574   6.170
 3354POPC   D2A45772  38.706  31.571   6.538
 3354POPC   C3A45773  38.698  31.732   6.989
 3354POPC   C4A45774  38.483  31.668   7.384
 3354POPC   C1B45775  38.069  31.150   6.129
 3354POPC   C2B45776  38.316  31.232   6.534
 3354POPC   C3B45777  38.249  31.421   6.934
 3354POPC   C4B45778  38.178  31.260   7.358
 3355POPC   NC345779  44.198  18.478   5.449
 3355POPC   PO445780  43.686  18.075   5.280
 3355POPC   GL145781  43.874  18.145   5.687
 3355POPC   GL245782  43.714  18.468   5.730
 3355POPC   C1A45783  43.989  18.293   6.120
 3355POPC   D2A45784  43.909  18.124   6.536
 3355POPC   C3A45785  43.998  18.334   6.923
 3355POPC   C4A45786  43.843  18.277   7.319
 3355POPC   C1B45787  43.589  18.618   6.171
 3355POPC   C2B45788  43.667  18.646   6.632
 3355POPC   C3B45789  43.617  18.673   7.107
 3355POPC   C4B45790  43.702  18.737   7.583
 3356POPC   NC345791   5.502   2.823   5.583
 3356POPC   PO445792   5.952   3.134   5.177
 3356POPC   GL145793   5.968   3.092   5.690
 3356POPC   GL245794   5.876   2.811   5.926
 3356POPC   C1A45795   6.001   3.259   6.117
 3356POPC   D2A45796   5.729   3.191   6.477
 3356POPC   C3A45797   5.911   2.940   6.821
 3356POPC   C4A45798   5.802   2.933   7.269
 3356POPC   C1B45799   5.745   2.505   6.224
 3356POPC   C2B45800   5.596   2.536   6.631
 3356POPC   C3B45801   5.815   2.429   6.982
 3356POPC   C4B45802   5.649   2.429   7.337
 3357POPC   NC345803  42.731  19.252   5.566
 3357POPC   PO445804  43.285  19.332   5.147
 3357POPC   GL145805  43.229  19.137   5.604
 3357POPC   GL245806  43.403  19.345   5.840
 3357POPC   C1A45807  43.182  18.950   6.071
 3357POPC   D2A45808  43.089  19.045   6.528
 3357POPC   C3A45809  43.167  18.724   6.832
 3357POPC   C4A45810  42.890  18.599   7.160
 3357POPC   C1B45811  43.249  19.452   6.246
 3357POPC   C2B45812  43.328  19.613   6.633
 3357POPC   C3B45813  43.345  19.277   6.933
 3357POPC   C4B45814  43.242  18.991   7.265
 3358POPC   NC345815  14.613  28.864   5.410
 3358POPC   PO445816  15.292  28.988   5.589
 3358POPC   GL145817  14.986  28.901   5.866
 3358POPC   GL245818  14.849  29.240   5.839
 3358POPC   C1A45819  15.071  28.860   6.293
 3358POPC   D2A45820  15.406  28.933   6.560
 3358POPC   C3A45821  15.360  28.834   7.001
 3358POPC   C4A45822  15.145  29.056   7.326
 3358POPC   C1B45823  15.063  29.378   6.258
 3358POPC   C2B45824  15.116  29.307   6.730
 3358POPC   C3B45825  14.928  29.481   7.106
 3358POPC   C4B45826  14.911  29.492   7.551
 3359POPC   NC345827  42.194  10.230   5.592
 3359POPC   PO445828  42.733   9.910   5.283
 3359POPC   GL145829  42.478   9.796   5.665
 3359POPC   GL245830  42.300   9.466   5.654
 3359POPC   C1A45831  42.251   9.761   6.115
 3359POPC   D2A45832  42.084   9.890   6.563
 3359POPC   C3A45833  42.344   9.911   6.940
 3359POPC   C4A45834  42.463  10.001   7.377
 3359POPC   C1B45835  41.954   9.362   5.979
 3359POPC   C2B45836  41.962   9.399   6.461
 3359POPC   C3B45837  42.155   9.422   6.900
 3359POPC   C4B45838  42.093   9.639   7.281
 3360POPC   NC345839  37.394  26.201   5.455
 3360POPC   PO445840  37.843  25.772   5.656
 3360POPC   GL145841  37.757  26.175   5.858
 3360POPC   GL245842  37.950  26.488   5.774
 3360POPC   C1A45843  37.590  26.163   6.282
 3360POPC   D2A45844  37.337  26.195   6.660
 3360POPC   C3A45845  37.512  26.028   7.032
 3360POPC   C4A45846  37.392  25.723   7.329
 3360POPC   C1B45847  37.791  26.625   6.196
 3360POPC   C2B45848  37.819  26.490   6.623
 3360POPC   C3B45849  37.567  26.530   6.996
 3360POPC   C4B45850  37.673  26.469   7.433
 3361POPC   NC345851  35.410  42.527   5.403
 3361POPC   PO445852  35.105  42.043   5.452
 3361POPC   GL145853  35.247  42.278   5.819
 3361POPC   GL245854  35.450  42.112   6.038
 3361POPC   C1A45855  35.343  42.625   6.115
 3361POPC   D2A45856  35.195  42.690   6.533
 3361POPC   C3A45857  35.430  42.599   6.896
 3361POPC   C4A45858  35.618  42.241   7.106
 3361POPC   C1B45859  35.139  42.186   6.346
 3361POPC   C2B45860  35.201  42.158   6.777
 3361POPC   C3B45861  35.113  42.241   7.215
 3361POPC   C4B45862  34.994  42.391   7.644
 3362POPC   NC345863  33.614  26.375   5.388
 3362POPC   PO445864  33.812  25.742   5.353
 3362POPC   GL145865  33.823  25.945   5.773
 3362POPC   GL245866  33.918  26.268   5.836
 3362POPC   C1A45867  33.917  25.958   6.241
 3362POPC   D2A45868  33.764  25.964   6.664
 3362POPC   C3A45869  33.901  25.835   7.091
 3362POPC   C4A45870  33.800  25.848   7.552
 3362POPC   C1B45871  33.969  26.520   6.200
 3362POPC   C2B45872  33.762  26.491   6.597
 3362POPC   C3B45873  33.798  26.329   7.020
 3362POPC   C4B45874  33.619  26.341   7.427
 3363POPC   NC345875   9.310  13.419   5.356
 3363POPC   PO445876   8.840  13.864   5.273
 3363POPC   GL145877   8.980  13.857   5.682
 3363POPC   GL245878   8.675  14.000   5.779
 3363POPC   C1A45879   9.062  13.873   6.141
 3363POPC   D2A45880   9.168  13.625   6.496
 3363POPC   C3A45881   9.161  13.721   6.932
 3363POPC   C4A45882   9.375  13.399   7.188
 3363POPC   C1B45883   8.628  14.136   6.196
 3363POPC   C2B45884   8.808  14.022   6.606
 3363POPC   C3B45885   8.683  13.967   7.042
 3363POPC   C4B45886   8.693  13.983   7.488
 3364POPC   NC345887   6.490   6.102   5.434
 3364POPC   PO445888   7.056   5.610   5.505
 3364POPC   GL145889   6.705   5.788   5.792
 3364POPC   GL245890   6.337   5.679   5.706
 3364POPC   C1A45891   6.676   5.969   6.246
 3364POPC   D2A45892   6.404   6.024   6.643
 3364POPC   C3A45893   6.635   5.981   7.036
 3364POPC   C4A45894   7.051   5.741   7.104
 3364POPC   C1B45895   6.357   5.559   6.134
 3364POPC   C2B45896   6.471   5.342   6.505
 3364POPC   C3B45897   6.618   5.478   6.926
 3364POPC   C4B45898   6.622   5.591   7.348
 3365POPC   NC345899  44.118   4.475   5.336
 3365POPC   PO445900  43.643   4.066   5.335
 3365POPC   GL145901  43.783   4.250   5.720
 3365POPC   GL245902  44.115   4.232   5.829
 3365POPC   C1A45903  43.742   4.139   6.175
 3365POPC   D2A45904  43.581   4.075   6.574
 3365POPC   C3A45905  43.786   4.328   6.848
 3365POPC   C4A45906  43.944   4.387   7.224
 3365POPC   C1B45907  44.189   3.888   6.165
 3365POPC   C2B45908  44.101   3.946   6.630
 3365POPC   C3B45909  44.189   3.903   7.089
 3365POPC   C4B45910  44.293   4.050   7.521
 3366POPC   NC345911  18.241  10.334   5.202
 3366POPC   PO445912  18.801  10.625   5.412
 3366POPC   GL145913  18.525  10.587   5.784
 3366POPC   GL245914  18.283  10.289   5.771
 3366POPC   C1A45915  18.436  10.465   6.243
 3366POPC   D2A45916  18.380  10.306   6.690
 3366POPC   C3A45917  18.354  10.557   7.079
 3366POPC   C4A45918  18.339  10.359   7.522
 3366POPC   C1B45919  17.970  10.268   6.145
 3366POPC   C2B45920  17.889  10.416   6.592
 3366POPC   C3B45921  17.927  10.304   7.031
 3366POPC   C4B45922  17.918  10.576   7.377
 3367POPC   NC345923  42.772  27.325   5.578
 3367POPC   PO445924  42.102  27.495   5.535
 3367POPC   GL145925  42.368  27.561   5.903
 3367POPC   GL245926  42.717  27.626   5.995
 3367POPC   C1A45927  42.368  27.734   6.331
 3367POPC   D2A45928  42.283  27.933   6.728
 3367POPC   C3A45929  42.056  27.691   7.021
 3367POPC   C4A45930  42.168  27.542   7.421
 3367POPC   C1B45931  42.611  27.284   6.288
 3367POPC   C2B45932  42.709  27.219   6.729
 3367POPC   C3B45933  42.497  27.173   7.116
 3367POPC   C4B45934  42.620  27.320   7.518
 3368POPC   NC345935  15.504  20.142   5.503
 3368POPC   PO445936  15.549  19.442   5.523
 3368POPC   GL145937  15.354  19.616   5.916
 3368POPC   GL245938  15.020  19.727   5.907
 3368POPC   C1A45939  15.251  19.682   6.390
 3368POPC   D2A45940  15.208  20.056   6.663
 3368POPC   C3A45941  15.156  19.890   7.066
 3368POPC   C4A45942  15.361  19.726   7.444
 3368POPC   C1B45943  14.883  20.044   6.247
 3368POPC   C2B45944  14.670  20.118   6.677
 3368POPC   C3B45945  14.630  19.951   7.112
 3368POPC   C4B45946  14.828  19.611   7.349
 3369POPC   NC345947  37.919  36.323   5.378
 3369POPC   PO445948  37.491  35.860   5.440
 3369POPC   GL145949  37.591  35.818   5.840
 3369POPC   GL245950  37.757  36.120   5.838
 3369POPC   C1A45951  37.408  35.831   6.237
 3369POPC   D2A45952  37.757  35.794   6.495
 3369POPC   C3A45953  37.582  35.728   6.843
 3369POPC   C4A45954  37.457  35.950   7.163
 3369POPC   C1B45955  37.690  36.261   6.259
 3369POPC   C2B45956  37.879  36.256   6.680
 3369POPC   C3B45957  37.827  36.340   7.124
 3369POPC   C4B45958  38.045  36.427   7.525
 3370POPC   NC345959  14.254   1.869   5.453
 3370POPC   PO445960  14.653   2.344   5.476
 3370POPC   GL145961  14.491   2.175   5.823
 3370POPC   GL245962  14.654   2.338   6.109
 3370POPC   C1A45963  14.561   1.808   6.072
 3370POPC   D2A45964  14.632   1.788   6.499
 3370POPC   C3A45965  14.335   1.825   6.818
 3370POPC   C4A45966  14.452   1.642   7.205
 3370POPC   C1B45967  14.251   2.165   6.277
 3370POPC   C2B45968  14.121   2.294   6.655
 3370POPC   C3B45969  14.431   2.321   6.964
 3370POPC   C4B45970  14.208   2.090   7.256
 3371POPC   NC345971  37.434  28.275   5.285
 3371POPC   PO445972  38.012  28.086   5.498
 3371POPC   GL145973  37.676  28.231   5.800
 3371POPC   GL245974  37.286  28.231   5.819
 3371POPC   C1A45975  37.568  28.090   6.216
 3371POPC   D2A45976  37.631  28.350   6.586
 3371POPC   C3A45977  37.561  28.176   6.983
 3371POPC   C4A45978  37.490  28.328   7.394
 3371POPC   C1B45979  37.261  28.496   6.241
 3371POPC   C2B45980  37.412  28.810   6.568
 3371POPC   C3B45981  37.463  28.716   7.025
 3371POPC   C4B45982  37.134  28.720   7.370
 3372POPC   NC345983   2.051  18.558   5.122
 3372POPC   PO445984   2.035  17.961   5.361
 3372POPC   GL145985   2.180  18.201   5.707
 3372POPC   GL245986   2.041  18.555   5.664
 3372POPC   C1A45987   2.290  18.260   6.121
 3372POPC   D2A45988   2.217  18.017   6.511
 3372POPC   C3A45989   1.922  18.170   6.843
 3372POPC   C4A45990   1.862  18.111   7.300
 3372POPC   C1B45991   1.973  18.688   6.110
 3372POPC   C2B45992   2.129  18.523   6.529
 3372POPC   C3B45993   2.256  18.543   6.952
 3372POPC   C4B45994   1.895  18.597   7.177
 3373POPC   NC345995  37.071  35.817   5.218
 3373POPC   PO445996  36.789  35.206   5.316
 3373POPC   GL145997  36.813  35.497   5.676
 3373POPC   GL245998  37.110  35.666   5.740
 3373POPC   C1A45999  36.729  35.563   6.109
 3373POPC   D2A46000  37.000  35.567   6.479
 3373POPC   C3A46001  36.783  35.353   6.802
 3373POPC   C4A46002  36.813  35.415   7.223
 3373POPC   C1B46003  37.218  35.339   6.039
 3373POPC   C2B46004  37.385  35.181   6.449
 3373POPC   C3B46005  37.276  35.309   6.862
 3373POPC   C4B46006  37.184  35.088   7.225
 3374POPC   NC346007  19.868  39.194   5.218
 3374POPC   PO446008  19.874  39.874   5.464
 3374POPC   GL146009  20.027  39.523   5.852
 3374POPC   GL246010  19.907  39.159   5.946
 3374POPC   C1A46011  20.052  39.394   6.366
 3374POPC   D2A46012  19.890  39.594   6.790
 3374POPC   C3A46013  19.827  39.370   7.223
 3374POPC   C4A46014  19.501  39.343   7.574
 3374POPC   C1B46015  19.934  38.852   6.316
 3374POPC   C2B46016  20.073  38.746   6.733
 3374POPC   C3B46017  19.971  38.855   7.170
 3374POPC   C4B46018  19.861  38.986   7.589
 3375POPC   NC346019   3.239  42.056   5.698
 3375POPC   PO446020   2.860  41.579   5.412
 3375POPC   GL146021   2.841  41.718   5.831
 3375POPC   GL246022   2.752  41.387   5.880
 3375POPC   C1A46023   2.961  41.722   6.289
 3375POPC   D2A46024   2.829  41.505   6.679
 3375POPC   C3A46025   2.839  41.727   7.045
 3375POPC   C4A46026   2.574  41.793   7.378
 3375POPC   C1B46027   2.782  41.226   6.254
 3375POPC   C2B46028   2.872  40.936   6.576
 3375POPC   C3B46029   2.975  41.096   6.976
 3375POPC   C4B46030   2.711  41.276   7.280
 3376POPC   NC346031  22.660  30.219   5.576
 3376POPC   PO446032  21.999  29.982   5.335
 3376POPC   GL146033  21.996  30.009   5.820
 3376POPC   GL246034  22.350  29.991   5.929
 3376POPC   C1A46035  22.018  29.748   6.249
 3376POPC   D2A46036  22.106  29.519   6.672
 3376POPC   C3A46037  22.116  29.813   7.042
 3376POPC   C4A46038  22.028  30.289   7.057
 3376POPC   C1B46039  22.317  30.228   6.317
 3376POPC   C2B46040  22.415  30.168   6.744
 3376POPC   C3B46041  22.496  30.118   7.189
 3376POPC   C4B46042  22.566  30.026   7.624
 3377POPC   NC346043  27.489  29.798   5.419
 3377POPC   PO446044  27.849  30.338   5.478
 3377POPC   GL146045  27.644  30.090   5.825
 3377POPC   GL246046  27.783  29.741   5.844
 3377POPC   C1A46047  27.498  30.034   6.262
 3377POPC   D2A46048  27.514  30.137   6.713
 3377POPC   C3A46049  27.415  29.835   7.052
 3377POPC   C4A46050  27.106  29.940   7.335
 3377POPC   C1B46051  27.869  29.690   6.272
 3377POPC   C2B46052  27.754  29.667   6.695
 3377POPC   C3B46053  27.928  29.834   7.071
 3377POPC   C4B46054  27.844  29.803   7.519
 3378POPC   NC346055  44.402   2.153   5.423
 3378POPC   PO446056  44.911   1.752   5.433
 3378POPC   GL146057  44.757   1.988   5.800
 3378POPC   GL246058   0.034   2.225   5.869
 3378POPC   C1A46059  44.529   2.002   6.221
 3378POPC   D2A46060  44.550   2.030   6.700
 3378POPC   C3A46061  44.456   1.744   7.009
 3378POPC   C4A46062  44.484   1.734   7.450
 3378POPC   C1B46063   0.050   1.948   6.244
 3378POPC   C2B46064   0.064   1.980   6.700
 3378POPC   C3B46065  44.920   1.980   7.129
 3378POPC   C4B46066   0.256   1.958   7.446
 3379POPC   NC346067  10.221  12.690   5.567
 3379POPC   PO446068  10.591  13.167   5.278
 3379POPC   GL146069  10.615  12.945   5.764
 3379POPC   GL246070  10.803  12.629   5.808
 3379POPC   C1A46071  10.445  12.821   6.226
 3379POPC   D2A46072  10.198  12.774   6.667
 3379POPC   C3A46073  10.342  12.992   7.052
 3379POPC   C4A46074  10.462  13.409   7.214
 3379POPC   C1B46075  10.808  12.402   6.193
 3379POPC   C2B46076  10.909  12.411   6.654
 3379POPC   C3B46077  10.717  12.427   7.092
 3379POPC   C4B46078  10.627  12.410   7.588
 3380POPC   NC346079   0.606   7.454   5.141
 3380POPC   PO446080   0.110   7.793   5.484
 3380POPC   GL146081   0.510   7.562   5.706
 3380POPC   GL246082   0.511   7.231   5.815
 3380POPC   C1A46083   0.436   7.532   6.199
 3380POPC   D2A46084   0.435   7.775   6.552
 3380POPC   C3A46085   0.463   7.580   6.893
 3380POPC   C4A46086   0.625   7.634   7.292
 3380POPC   C1B46087   0.200   7.080   6.154
 3380POPC   C2B46088   0.285   7.153   6.587
 3380POPC   C3B46089   0.068   7.150   6.974
 3380POPC   C4B46090   0.117   7.460   7.238
 3381POPC   NC346091  26.018  10.001   4.930
 3381POPC   PO446092  25.989   9.801   5.356
 3381POPC   GL146093  26.046   9.664   5.776
 3381POPC   GL246094  25.740   9.538   5.887
 3381POPC   C1A46095  26.231   9.664   6.218
 3381POPC   D2A46096  26.187   9.864   6.643
 3381POPC   C3A46097  26.401   9.753   7.053
 3381POPC   C4A46098  26.532   9.852   7.499
 3381POPC   C1B46099  25.727   9.670   6.331
 3381POPC   C2B46100  25.697   9.811   6.756
 3381POPC   C3B46101  25.882   9.682   7.119
 3381POPC   C4B46102  25.704   9.510   7.513
 3382POPC   NC346103  11.014  31.303   5.430
 3382POPC   PO446104  11.480  31.810   5.428
 3382POPC   GL146105  11.257  31.646   5.750
 3382POPC   GL246106  11.475  31.354   5.811
 3382POPC   C1A46107  11.215  31.584   6.179
 3382POPC   D2A46108  11.310  31.393   6.547
 3382POPC   C3A46109  11.386  31.574   6.929
 3382POPC   C4A46110  11.289  31.339   7.281
 3382POPC   C1B46111  11.624  31.119   6.180
 3382POPC   C2B46112  11.753  31.159   6.598
 3382POPC   C3B46113  11.683  31.125   7.018
 3382POPC   C4B46114  11.788  31.492   7.255
 3383POPC   NC346115  22.616  26.482   5.632
 3383POPC   PO446116  22.966  26.995   5.336
 3383POPC   GL146117  22.846  27.009   5.742
 3383POPC   GL246118  22.514  27.027   5.690
 3383POPC   C1A46119  22.891  26.894   6.186
 3383POPC   D2A46120  22.998  26.739   6.619
 3383POPC   C3A46121  23.042  26.962   7.040
 3383POPC   C4A46122  23.376  26.754   7.266
 3383POPC   C1B46123  22.433  27.149   6.144
 3383POPC   C2B46124  22.539  26.939   6.565
 3383POPC   C3B46125  22.600  26.714   6.954
 3383POPC   C4B46126  22.678  26.714   7.390
 3384POPC   NC346127  25.930  19.751   5.412
 3384POPC   PO446128  26.619  19.804   5.356
 3384POPC   GL146129  26.312  19.787   5.755
 3384POPC   GL246130  26.172  19.487   5.851
 3384POPC   C1A46131  25.988  19.836   6.145
 3384POPC   D2A46132  25.803  19.579   6.512
 3384POPC   C3A46133  25.745  19.835   6.916
 3384POPC   C4A46134  25.907  20.162   7.245
 3384POPC   C1B46135  26.406  19.558   6.244
 3384POPC   C2B46136  26.263  19.725   6.625
 3384POPC   C3B46137  26.215  19.796   7.065
 3384POPC   C4B46138  26.369  19.517   7.311
 3385POPC   NC346139   9.084  42.388   5.296
 3385POPC   PO446140   8.867  41.734   5.289
 3385POPC   GL146141   8.819  42.101   5.705
 3385POPC   GL246142   8.955  42.473   5.759
 3385POPC   C1A46143   8.724  42.327   6.166
 3385POPC   D2A46144   8.939  42.468   6.547
 3385POPC   C3A46145   8.828  42.300   6.948
 3385POPC   C4A46146   9.225  42.211   7.135
 3385POPC   C1B46147   9.102  42.715   6.110
 3385POPC   C2B46148   8.802  42.920   6.374
 3385POPC   C3B46149   8.803  42.908   6.833
 3385POPC   C4B46150   8.490  42.948   7.158
 3386POPC   NC346151   4.686  11.096   5.104
 3386POPC   PO446152   5.141  11.303   5.558
 3386POPC   GL146153   5.172  11.192   5.970
 3386POPC   GL246154   5.286  10.871   5.937
 3386POPC   C1A46155   4.947  11.125   6.346
 3386POPC   D2A46156   4.852  11.268   6.765
 3386POPC   C3A46157   5.117  11.410   7.101
 3386POPC   C4A46158   5.159  11.685   7.453
 3386POPC   C1B46159   5.352  10.822   6.367
 3386POPC   C2B46160   5.326  10.750   6.802
 3386POPC   C3B46161   5.259  10.923   7.211
 3386POPC   C4B46162   5.219  11.174   7.598
 3387POPC   NC346163  21.019  28.896   5.254
 3387POPC   PO446164  21.079  29.610   5.460
 3387POPC   GL146165  21.281  29.483   5.837
 3387POPC   GL246166  21.450  29.165   5.812
 3387POPC   C1A46167  21.490  29.468   6.260
 3387POPC   D2A46168  21.615  29.310   6.682
 3387POPC   C3A46169  21.341  29.465   7.007
 3387POPC   C4A46170  21.019  29.306   7.252
 3387POPC   C1B46171  21.615  28.982   6.230
 3387POPC   C2B46172  21.498  28.787   6.640
 3387POPC   C3B46173  21.495  28.866   7.082
 3387POPC   C4B46174  21.631  29.207   7.321
 3388POPC   NC346175   7.831  12.104   5.304
 3388POPC   PO446176   8.325  11.620   5.436
 3388POPC   GL146177   8.402  11.794   5.837
 3388POPC   GL246178   8.517  12.125   5.745
 3388POPC   C1A46179   8.129  11.985   6.178
 3388POPC   D2A46180   7.991  12.148   6.594
 3388POPC   C3A46181   8.104  11.949   6.985
 3388POPC   C4A46182   8.267  11.741   7.337
 3388POPC   C1B46183   8.628  12.136   6.167
 3388POPC   C2B46184   8.511  12.108   6.578
 3388POPC   C3B46185   8.472  12.334   6.944
 3388POPC   C4B46186   8.434  12.236   7.332
 3389POPC   NC346187  39.009  17.902   5.467
 3389POPC   PO446188  39.341  17.328   5.209
 3389POPC   GL146189  39.274  17.306   5.661
 3389POPC   GL246190  39.379  17.637   5.738
 3389POPC   C1A46191  39.456  17.227   6.073
 3389POPC   D2A46192  39.442  17.487   6.456
 3389POPC   C3A46193  39.322  17.289   6.841
 3389POPC   C4A46194  39.499  17.269   7.252
 3389POPC   C1B46195  39.048  17.571   6.064
 3389POPC   C2B46196  38.974  17.822   6.429
 3389POPC   C3B46197  39.112  17.784   6.841
 3389POPC   C4B46198  39.085  17.568   7.227
 3390POPC   NC346199  20.289   6.351   5.342
 3390POPC   PO446200  20.991   6.268   5.371
 3390POPC   GL146201  20.886   6.560   5.725
 3390POPC   GL246202  20.540   6.695   5.674
 3390POPC   C1A46203  20.775   6.689   6.137
 3390POPC   D2A46204  20.710   6.985   6.456
 3390POPC   C3A46205  20.749   6.770   6.853
 3390POPC   C4A46206  20.725   6.826   7.283
 3390POPC   C1B46207  20.293   6.814   6.066
 3390POPC   C2B46208  20.306   6.675   6.493
 3390POPC   C3B46209  20.239   6.705   6.929
 3390POPC   C4B46210  20.184   6.410   7.241
 3391POPC   NC346211  18.513   9.270   5.464
 3391POPC   PO446212  18.369   9.937   5.406
 3391POPC   GL146213  18.295   9.633   5.769
 3391POPC   GL246214  18.098   9.826   5.928
 3391POPC   C1A46215  18.296   9.424   6.218
 3391POPC   D2A46216  18.324   9.603   6.626
 3391POPC   C3A46217  18.238   9.507   7.061
 3391POPC   C4A46218  18.295   9.914   7.285
 3391POPC   C1B46219  17.901   9.753   6.303
 3391POPC   C2B46220  17.899   9.901   6.709
 3391POPC   C3B46221  17.814   9.805   7.120
 3391POPC   C4B46222  17.929   9.612   7.503
 3392POPC   NC346223   3.164  18.508   5.517
 3392POPC   PO446224   3.080  17.851   5.505
 3392POPC   GL146225   2.848  18.075   5.814
 3392POPC   GL246226   2.695  18.392   5.779
 3392POPC   C1A46227   2.733  18.029   6.222
 3392POPC   D2A46228   2.623  18.294   6.540
 3392POPC   C3A46229   2.502  18.081   6.940
 3392POPC   C4A46230   2.795  18.055   7.270
 3392POPC   C1B46231   2.938  18.529   6.152
 3392POPC   C2B46232   2.887  18.724   6.561
 3392POPC   C3B46233   2.773  18.513   6.963
 3392POPC   C4B46234   2.742  18.555   7.380
 3393POPC   NC346235   4.218   6.111   5.450
 3393POPC   PO446236   4.715   5.673   5.471
 3393POPC   GL146237   4.459   5.909   5.865
 3393POPC   GL246238   4.092   6.084   5.917
 3393POPC   C1A46239   4.415   6.132   6.289
 3393POPC   D2A46240   4.249   6.441   6.599
 3393POPC   C3A46241   4.301   6.246   7.004
 3393POPC   C4A46242   4.276   5.894   7.283
 3393POPC   C1B46243   3.884   6.168   6.280
 3393POPC   C2B46244   4.027   5.961   6.633
 3393POPC   C3B46245   3.883   5.764   6.980
 3393POPC   C4B46246   3.781   6.078   7.293
 3394POPC   NC346247  19.887  12.366   5.440
 3394POPC   PO446248  20.150  11.682   5.455
 3394POPC   GL146249  20.067  11.974   5.784
 3394POPC   GL246250  19.712  11.950   5.756
 3394POPC   C1A46251  19.903  11.875   6.238
 3394POPC   D2A46252  19.836  11.634   6.609
 3394POPC   C3A46253  19.798  11.854   7.003
 3394POPC   C4A46254  19.839  11.986   7.435
 3394POPC   C1B46255  19.591  12.239   6.113
 3394POPC   C2B46256  19.702  12.270   6.590
 3394POPC   C3B46257  19.693  12.349   7.055
 3394POPC   C4B46258  19.480  12.588   7.386
 3395POPC   NC346259   3.866  37.325   5.050
 3395POPC   PO446260   3.539  37.815   5.468
 3395POPC   GL146261   3.613  37.766   5.881
 3395POPC   GL246262   3.480  37.424   5.854
 3395POPC   C1A46263   3.746  37.972   6.273
 3395POPC   D2A46264   3.895  37.785   6.645
 3395POPC   C3A46265   3.755  37.830   7.071
 3395POPC   C4A46266   3.581  37.644   7.459
 3395POPC   C1B46267   3.623  37.475   6.304
 3395POPC   C2B46268   3.626  37.364   6.743
 3395POPC   C3B46269   3.297  37.486   7.035
 3395POPC   C4B46270   2.860  37.497   7.227
 3396POPC   NC346271  24.448  31.342   5.429
 3396POPC   PO446272  24.374  31.992   5.433
 3396POPC   GL146273  24.285  31.659   5.819
 3396POPC   GL246274  24.220  31.240   5.864
 3396POPC   C1A46275  24.422  31.536   6.239
 3396POPC   D2A46276  24.758  31.503   6.552
 3396POPC   C3A46277  24.606  31.521   6.942
 3396POPC   C4A46278  24.870  31.366   7.224
 3396POPC   C1B46279  24.020  31.201   6.244
 3396POPC   C2B46280  24.080  31.417   6.619
 3396POPC   C3B46281  24.194  31.237   6.983
 3396POPC   C4B46282  24.304  31.332   7.378
 3397POPC   NC346283  36.821  11.161   5.100
 3397POPC   PO446284  36.570  11.472   5.644
 3397POPC   GL146285  36.967  11.431   5.858
 3397POPC   GL246286  37.173  11.067   5.800
 3397POPC   C1A46287  37.019  11.504   6.282
 3397POPC   D2A46288  36.711  11.330   6.543
 3397POPC   C3A46289  36.821  11.430   6.973
 3397POPC   C4A46290  36.614  11.224   7.307
 3397POPC   C1B46291  36.972  10.984   6.215
 3397POPC   C2B46292  37.097  11.017   6.612
 3397POPC   C3B46293  36.911  10.939   6.981
 3397POPC   C4B46294  37.098  11.083   7.326
 3398POPC   NC346295  34.214  18.701   5.366
 3398POPC   PO446296  33.918  19.332   5.465
 3398POPC   GL146297  33.892  19.010   5.755
 3398POPC   GL246298  33.807  19.302   5.966
 3398POPC   C1A46299  33.743  18.815   6.140
 3398POPC   D2A46300  33.620  18.990   6.542
 3398POPC   C3A46301  33.699  18.799   6.909
 3398POPC   C4A46302  33.608  18.872   7.309
 3398POPC   C1B46303  34.023  19.233   6.327
 3398POPC   C2B46304  34.117  19.040   6.709
 3398POPC   C3B46305  33.938  19.228   7.065
 3398POPC   C4B46306  33.946  19.180   7.493
 3399POPC   NC346307  10.352   1.672   5.066
 3399POPC   PO446308  10.852   1.756   5.462
 3399POPC   GL146309  10.640   1.975   5.851
 3399POPC   GL246310  10.392   2.251   5.889
 3399POPC   C1A46311  10.460   2.003   6.311
 3399POPC   D2A46312  10.239   1.915   6.682
 3399POPC   C3A46313  10.554   2.002   6.947
 3399POPC   C4A46314  10.723   2.021   7.314
 3399POPC   C1B46315  10.513   2.503   6.294
 3399POPC   C2B46316  10.361   2.443   6.745
 3399POPC   C3B46317  10.266   2.356   7.205
 3399POPC   C4B46318  10.076   2.482   7.611
 3400POPC   NC346319  21.233   9.955   5.417
 3400POPC   PO446320  21.278   9.221   5.548
 3400POPC   GL146321  21.210   9.601   5.852
 3400POPC   GL246322  21.409   9.910   5.886
 3400POPC   C1A46323  21.287   9.654   6.306
 3400POPC   D2A46324  21.605   9.441   6.540
 3400POPC   C3A46325  21.706   9.621   6.908
 3400POPC   C4A46326  21.621   9.642   7.360
 3400POPC   C1B46327  21.112  10.105   6.218
 3400POPC   C2B46328  21.352  10.061   6.622
 3400POPC   C3B46329  21.323   9.957   7.066
 3400POPC   C4B46330  21.246  10.131   7.494
 3401POPC   NC346331   2.823   5.343   5.474
 3401POPC   PO446332   2.963   4.727   5.207
 3401POPC   GL146333   2.869   4.822   5.738
 3401POPC   GL246334   2.917   5.201   5.943
 3401POPC   C1A46335   2.890   4.776   6.201
 3401POPC   D2A46336   2.790   5.150   6.455
 3401POPC   C3A46337   2.952   5.134   6.861
 3401POPC   C4A46338   2.809   4.828   7.161
 3401POPC   C1B46339   2.535   5.486   6.148
 3401POPC   C2B46340   2.341   5.640   6.543
 3401POPC   C3B46341   2.397   5.546   6.981
 3401POPC   C4B46342   2.651   5.304   7.273
 3402POPC   NC346343  32.153  43.559   4.984
 3402POPC   PO446344  31.785  44.059   5.386
 3402POPC   GL146345  31.903  44.155   5.821
 3402POPC   GL246346  32.133  43.880   5.767
 3402POPC   C1A46347  32.172  44.122   6.219
 3402POPC   D2A46348  32.322  43.806   6.511
 3402POPC   C3A46349  32.459  43.944   6.933
 3402POPC   C4A46350  32.463  43.616   7.241
 3402POPC   C1B46351  31.854  43.744   6.127
 3402POPC   C2B46352  31.821  43.775   6.542
 3402POPC   C3B46353  32.034  43.651   6.921
 3402POPC   C4B46354  31.908  43.729   7.330
 3403POPC   NC346355  39.132  11.516   5.366
 3403POPC   PO446356  39.121  12.205   5.468
 3403POPC   GL146357  39.232  12.255   5.856
 3403POPC   GL246358  39.244  11.898   5.918
 3403POPC   C1A46359  39.060  12.272   6.238
 3403POPC   D2A46360  39.287  12.347   6.597
 3403POPC   C3A46361  39.422  12.022   6.863
 3403POPC   C4A46362  39.454  12.267   7.232
 3403POPC   C1B46363  39.333  11.825   6.360
 3403POPC   C2B46364  39.162  11.513   6.634
 3403POPC   C3B46365  38.997  11.609   7.024
 3403POPC   C4B46366  39.322  11.752   7.298
 3404POPC   NC346367  33.464  30.055   5.489
 3404POPC   PO446368  34.020  29.677   5.370
 3404POPC   GL146369  33.841  29.808   5.759
 3404POPC   GL246370  33.640  29.570   5.834
 3404POPC   C1A46371  33.831  29.864   6.220
 3404POPC   D2A46372  34.059  30.063   6.535
 3404POPC   C3A46373  33.924  29.861   6.857
 3404POPC   C4A46374  33.796  30.054   7.216
 3404POPC   C1B46375  33.457  29.526   6.199
 3404POPC   C2B46376  33.407  29.630   6.595
 3404POPC   C3B46377  33.559  29.533   6.963
 3404POPC   C4B46378  33.495  29.624   7.344
 3405POPC   NC346379  22.325  37.047   5.245
 3405POPC   PO446380  21.618  36.863   5.262
 3405POPC   GL146381  21.884  36.861   5.650
 3405POPC   GL246382  21.626  36.711   5.828
 3405POPC   C1A46383  21.912  37.039   6.115
 3405POPC   D2A46384  21.846  37.063   6.589
 3405POPC   C3A46385  22.133  36.937   6.932
 3405POPC   C4A46386  22.370  36.995   7.339
 3405POPC   C1B46387  21.691  36.569   6.250
 3405POPC   C2B46388  21.828  36.548   6.669
 3405POPC   C3B46389  21.724  36.661   7.080
 3405POPC   C4B46390  21.951  36.718   7.442
 3406POPC   NC346391  38.886  22.543   5.493
 3406POPC   PO446392  39.402  23.056   5.588
 3406POPC   GL146393  39.029  22.922   5.836
 3406POPC   GL246394  39.141  22.592   5.935
 3406POPC   C1A46395  38.859  22.851   6.275
 3406POPC   D2A46396  38.867  22.875   6.728
 3406POPC   C3A46397  38.939  23.281   6.931
 3406POPC   C4A46398  38.946  23.240   7.358
 3406POPC   C1B46399  39.394  22.793   6.285
 3406POPC   C2B46400  39.390  22.686   6.739
 3406POPC   C3B46401  39.280  22.886   7.129
 3406POPC   C4B46402  39.301  22.724   7.540
 3407POPC   NC346403  36.381  31.316   5.392
 3407POPC   PO446404  35.843  31.436   5.656
 3407POPC   GL146405  36.243  31.506   5.827
 3407POPC   GL246406  36.372  31.817   5.697
 3407POPC   C1A46407  36.409  31.407   6.197
 3407POPC   D2A46408  36.037  31.401   6.409
 3407POPC   C3A46409  36.105  31.355   6.815
 3407POPC   C4A46410  36.493  31.214   6.988
 3407POPC   C1B46411  36.244  31.910   6.139
 3407POPC   C2B46412  36.350  31.814   6.568
 3407POPC   C3B46413  36.218  31.832   7.009
 3407POPC   C4B46414  36.190  31.491   7.299
 3408POPC   NC346415  34.666  17.069   5.163
 3408POPC   PO446416  34.746  16.537   5.539
 3408POPC   GL146417  34.498  16.638   5.904
 3408POPC   GL246418  34.157  16.772   5.812
 3408POPC   C1A46419  34.621  16.648   6.329
 3408POPC   D2A46420  34.714  16.471   6.739
 3408POPC   C3A46421  35.047  16.663   6.922
 3408POPC   C4A46422  35.073  16.954   7.236
 3408POPC   C1B46423  34.077  16.675   6.255
 3408POPC   C2B46424  34.239  16.712   6.679
 3408POPC   C3B46425  34.296  16.758   7.129
 3408POPC   C4B46426  34.091  16.737   7.554
 3409POPC   NC346427  10.287  33.395   5.713
 3409POPC   PO446428  10.793  33.006   5.553
 3409POPC   GL146429  10.598  33.033   5.917
 3409POPC   GL246430  10.557  32.687   5.937
 3409POPC   C1A46431  10.686  33.227   6.316
 3409POPC   D2A46432  10.600  33.451   6.740
 3409POPC   C3A46433  10.689  33.202   7.129
 3409POPC   C4A46434  10.548  33.024   7.527
 3409POPC   C1B46435  10.861  32.726   6.278
 3409POPC   C2B46436  10.770  32.893   6.697
 3409POPC   C3B46437  10.534  32.732   7.048
 3409POPC   C4B46438  10.775  32.586   7.385
 3410POPC   NC346439  10.012  21.327   5.450
 3410POPC   PO446440   9.354  21.052   5.421
 3410POPC   GL146441   9.675  21.024   5.782
 3410POPC   GL246442   9.872  21.304   5.923
 3410POPC   C1A46443   9.647  21.011   6.240
 3410POPC   D2A46444   9.888  21.127   6.585
 3410POPC   C3A46445   9.600  21.239   6.890
 3410POPC   C4A46446   9.609  21.308   7.295
 3410POPC   C1B46447   9.984  21.638   6.197
 3410POPC   C2B46448  10.082  21.585   6.629
 3410POPC   C3B46449   9.888  21.644   7.026
 3410POPC   C4B46450   9.947  21.765   7.478
 3411POPC   NC346451   8.875  14.319   5.395
 3411POPC   PO446452   9.025  14.986   5.435
 3411POPC   GL146453   9.073  14.638   5.772
 3411POPC   GL246454   8.741  14.516   5.842
 3411POPC   C1A46455   9.107  14.418   6.214
 3411POPC   D2A46456   9.307  14.136   6.575
 3411POPC   C3A46457   9.114  14.256   6.975
 3411POPC   C4A46458   9.139  14.654   7.170
 3411POPC   C1B46459   8.513  14.636   6.198
 3411POPC   C2B46460   8.520  14.456   6.611
 3411POPC   C3B46461   8.659  14.638   6.983
 3411POPC   C4B46462   8.421  14.836   7.298
 3412POPC   NC346463  15.356  29.471   5.561
 3412POPC   PO446464  14.928  30.076   5.412
 3412POPC   GL146465  15.253  29.956   5.711
 3412POPC   GL246466  14.983  29.736   5.819
 3412POPC   C1A46467  15.386  29.785   6.129
 3412POPC   D2A46468  15.226  29.945   6.491
 3412POPC   C3A46469  15.348  29.753   6.849
 3412POPC   C4A46470  15.371  29.834   7.311
 3412POPC   C1B46471  14.785  29.829   6.199
 3412POPC   C2B46472  14.815  29.700   6.617
 3412POPC   C3B46473  14.886  29.972   6.951
 3412POPC   C4B46474  14.900  29.987   7.383
 3413POPC   NC346475  33.192   2.419   5.392
 3413POPC   PO446476  33.014   3.072   5.368
 3413POPC   GL146477  33.118   2.847   5.730
 3413POPC   GL246478  32.862   2.579   5.784
 3413POPC   C1A46479  33.220   3.022   6.143
 3413POPC   D2A46480  33.205   2.790   6.561
 3413POPC   C3A46481  33.095   2.931   6.968
 3413POPC   C4A46482  33.080   2.735   7.342
 3413POPC   C1B46483  32.777   2.785   6.206
 3413POPC   C2B46484  32.678   2.699   6.675
 3413POPC   C3B46485  32.701   2.468   7.107
 3413POPC   C4B46486  32.758   2.442   7.600
 3414POPC   NC346487  12.318  44.812   5.513
 3414POPC   PO446488  12.028  44.259   5.293
 3414POPC   GL146489  11.970  44.469   5.716
 3414POPC   GL246490  12.023  44.786   5.912
 3414POPC   C1A46491  11.809  44.442   6.162
 3414POPC   D2A46492  12.049  44.630   6.547
 3414POPC   C3A46493  12.040  44.443   6.981
 3414POPC   C4A46494  12.137  44.328   7.449
 3414POPC   C1B46495  11.977   0.060   6.259
 3414POPC   C2B46496  11.757   0.092   6.636
 3414POPC   C3B46497  11.742  44.870   7.007
 3414POPC   C4B46498  11.903  44.989   7.406
 3415POPC   NC346499  43.733  24.153   5.322
 3415POPC   PO446500  43.856  24.802   5.577
 3415POPC   GL146501  43.840  24.575   5.933
 3415POPC   GL246502  43.797  24.260   5.839
 3415POPC   C1A46503  43.875  24.575   6.385
 3415POPC   D2A46504  43.660  24.603   6.789
 3415POPC   C3A46505  43.999  24.656   7.088
 3415POPC   C4A46506  44.093  24.370   7.426
 3415POPC   C1B46507  43.580  24.192   6.217
 3415POPC   C2B46508  43.829  24.085   6.570
 3415POPC   C3B46509  43.839  24.185   7.004
 3415POPC   C4B46510  43.479  24.283   7.234
 3416POPC   NC346511  29.992  43.575   5.273
 3416POPC   PO446512  30.109  44.205   5.255
 3416POPC   GL146513  29.812  44.028   5.630
 3416POPC   GL246514  29.807  43.675   5.744
 3416POPC   C1A46515  29.669  44.028   6.099
 3416POPC   D2A46516  29.635  44.186   6.542
 3416POPC   C3A46517  29.872  43.924   6.848
 3416POPC   C4A46518  29.823  43.806   7.266
 3416POPC   C1B46519  30.099  43.731   6.148
 3416POPC   C2B46520  30.251  43.682   6.596
 3416POPC   C3B46521  30.158  43.438   7.008
 3416POPC   C4B46522  30.116  43.435   7.471
 3417POPC   NC346523   6.944  36.756   5.390
 3417POPC   PO446524   6.466  36.450   5.327
 3417POPC   GL146525   6.605  36.576   5.766
 3417POPC   GL246526   6.838  36.870   5.882
 3417POPC   C1A46527   6.434  36.735   6.179
 3417POPC   D2A46528   6.576  37.004   6.526
 3417POPC   C3A46529   6.403  36.962   6.934
 3417POPC   C4A46530   6.547  37.049   7.337
 3417POPC   C1B46531   7.148  36.840   6.237
 3417POPC   C2B46532   7.154  36.603   6.626
 3417POPC   C3B46533   6.911  36.867   6.922
 3417POPC   C4B46534   7.057  37.133   7.263
 3418POPC   NC346535  19.089  10.862   5.157
 3418POPC   PO446536  19.314  10.264   5.422
 3418POPC   GL146537  19.165  10.505   5.781
 3418POPC   GL246538  19.025  10.842   5.809
 3418POPC   C1A46539  19.176  10.523   6.235
 3418POPC   D2A46540  19.250  10.238   6.601
 3418POPC   C3A46541  19.098  10.421   6.995
 3418POPC   C4A46542  18.791  10.362   7.291
 3418POPC   C1B46543  18.758  10.856   6.205
 3418POPC   C2B46544  18.795  10.638   6.633
 3418POPC   C3B46545  18.773  10.833   7.073
 3418POPC   C4B46546  18.556  10.802   7.488
 3419POPC   NC346547  25.296  16.828   5.397
 3419POPC   PO446548  24.787  16.473   5.565
 3419POPC   GL146549  25.006  16.740   5.869
 3419POPC   GL246550  25.368  16.633   5.873
 3419POPC   C1A46551  24.973  16.934   6.300
 3419POPC   D2A46552  25.294  17.055   6.601
 3419POPC   C3A46553  25.416  16.890   6.996
 3419POPC   C4A46554  25.273  16.751   7.374
 3419POPC   C1B46555  25.228  16.494   6.307
 3419POPC   C2B46556  25.102  16.538   6.757
 3419POPC   C3B46557  25.216  16.301   7.160
 3419POPC   C4B46558  25.337  16.314   7.622
 3420POPC   NC346559  14.888  21.612   5.494
 3420POPC   PO446560  15.425  21.292   5.474
 3420POPC   GL146561  15.115  21.267   5.793
 3420POPC   GL246562  15.235  21.569   5.906
 3420POPC   C1A46563  15.017  21.249   6.237
 3420POPC   D2A46564  15.287  21.275   6.577
 3420POPC   C3A46565  15.146  21.148   6.958
 3420POPC   C4A46566  15.232  21.435   7.269
 3420POPC   C1B46567  14.899  21.809   6.140
 3420POPC   C2B46568  14.688  21.690   6.524
 3420POPC   C3B46569  14.874  21.600   6.923
 3420POPC   C4B46570  14.946  21.865   7.277
 3421POPC   NC346571  44.283  11.519   5.513
 3421POPC   PO446572  44.313  10.901   5.327
 3421POPC   GL146573  44.414  11.100   5.788
 3421POPC   GL246574  44.431  11.459   5.995
 3421POPC   C1A46575  44.689  11.079   6.191
 3421POPC   D2A46576  44.916  11.143   6.608
 3421POPC   C3A46577  44.689  11.145   7.023
 3421POPC   C4A46578  44.580  10.916   7.422
 3421POPC   C1B46579  44.764  11.586   6.332
 3421POPC   C2B46580  44.836  11.618   6.799
 3421POPC   C3B46581  44.533  11.613   7.172
 3421POPC   C4B46582  44.556  11.845   7.576
 3422POPC   NC346583   6.245  43.826   5.613
 3422POPC   PO446584   6.903  43.562   5.379
 3422POPC   GL146585   6.728  43.674   5.773
 3422POPC   GL246586   6.781  44.019   5.869
 3422POPC   C1A46587   6.729  43.605   6.222
 3422POPC   D2A46588   6.976  43.617   6.600
 3422POPC   C3A46589   6.845  43.468   6.995
 3422POPC   C4A46590   6.564  43.668   7.240
 3422POPC   C1B46591   6.603  44.154   6.291
 3422POPC   C2B46592   6.579  44.042   6.726
 3422POPC   C3B46593   6.636  44.161   7.149
 3422POPC   C4B46594   6.611  44.478   7.482
 3423POPC   NC346595  10.712   3.534   5.483
 3423POPC   PO446596  10.282   3.971   5.460
 3423POPC   GL146597  10.337   3.721   5.785
 3423POPC   GL246598  10.074   3.895   5.914
 3423POPC   C1A46599  10.604   3.568   6.150
 3423POPC   D2A46600  10.458   3.593   6.572
 3423POPC   C3A46601  10.624   3.369   6.919
 3423POPC   C4A46602  10.735   3.624   7.233
 3423POPC   C1B46603  10.087   3.526   6.182
 3423POPC   C2B46604   9.960   3.494   6.593
 3423POPC   C3B46605  10.144   3.607   6.992
 3423POPC   C4B46606  10.268   3.402   7.366
 3424POPC   NC346607  39.368   2.562   5.626
 3424POPC   PO446608  39.158   3.155   5.288
 3424POPC   GL146609  39.008   2.952   5.717
 3424POPC   GL246610  38.863   2.595   5.725
 3424POPC   C1A46611  39.151   2.870   6.180
 3424POPC   D2A46612  39.253   2.609   6.567
 3424POPC   C3A46613  39.517   2.843   6.860
 3424POPC   C4A46614  39.693   2.728   7.244
 3424POPC   C1B46615  38.947   2.423   6.141
 3424POPC   C2B46616  38.844   2.201   6.485
 3424POPC   C3B46617  38.846   2.354   6.878
 3424POPC   C4B46618  39.058   2.727   7.074
 3425POPC   NC346619  22.367   9.441   5.023
 3425POPC   PO446620  21.922   9.678   5.489
 3425POPC   GL146621  22.005   9.554   5.892
 3425POPC   GL246622  21.687   9.452   6.008
 3425POPC   C1A46623  22.096   9.489   6.326
 3425POPC   D2A46624  22.216   9.650   6.716
 3425POPC   C3A46625  22.175   9.427   7.088
 3425POPC   C4A46626  22.032   9.354   7.470
 3425POPC   C1B46627  21.753   9.861   6.271
 3425POPC   C2B46628  21.903  10.048   6.651
 3425POPC   C3B46629  22.008   9.976   7.081
 3425POPC   C4B46630  21.728  10.136   7.364
 3426POPC   NC346631   7.065  40.250   5.394
 3426POPC   PO446632   6.326  40.292   5.460
 3426POPC   GL146633   6.659  40.210   5.763
 3426POPC   GL246634   6.390  40.033   5.919
 3426POPC   C1A46635   6.755  40.358   6.206
 3426POPC   D2A46636   6.571  40.252   6.619
 3426POPC   C3A46637   6.841  40.190   7.029
 3426POPC   C4A46638   7.111  39.911   7.297
 3426POPC   C1B46639   6.287  39.901   6.325
 3426POPC   C2B46640   6.139  39.930   6.746
 3426POPC   C3B46641   6.287  40.239   7.039
 3426POPC   C4B46642   6.487  40.267   7.425
 3427POPC   NC346643  37.267  34.851   5.388
 3427POPC   PO446644  36.789  34.387   5.289
 3427POPC   GL146645  36.924  34.583   5.668
 3427POPC   GL246646  37.131  34.373   5.826
 3427POPC   C1A46647  37.054  34.835   6.041
 3427POPC   D2A46648  36.881  35.062   6.392
 3427POPC   C3A46649  36.972  34.872   6.811
 3427POPC   C4A46650  36.837  34.656   7.197
 3427POPC   C1B46651  37.012  34.376   6.288
 3427POPC   C2B46652  37.007  34.335   6.760
 3427POPC   C3B46653  36.941  34.128   7.182
 3427POPC   C4B46654  37.071  33.917   7.588
 3428POPC   NC346655  33.063  11.539   5.520
 3428POPC   PO446656  32.912  11.019   5.316
 3428POPC   GL146657  32.865  11.147   5.782
 3428POPC   GL246658  33.226  11.184   5.857
 3428POPC   C1A46659  32.867  11.238   6.250
 3428POPC   D2A46660  32.937  11.428   6.664
 3428POPC   C3A46661  32.816  11.412   7.089
 3428POPC   C4A46662  33.082  11.473   7.456
 3428POPC   C1B46663  33.276  10.914   6.217
 3428POPC   C2B46664  33.291  10.763   6.651
 3428POPC   C3B46665  33.180  11.041   7.025
 3428POPC   C4B46666  32.866  11.004   7.394
 3429POPC   NC346667  16.488   1.465   5.436
 3429POPC   PO446668  17.055   1.373   5.211
 3429POPC   GL146669  16.851   1.192   5.702
 3429POPC   GL246670  16.520   1.126   5.797
 3429POPC   C1A46671  16.752   1.377   6.178
 3429POPC   D2A46672  16.637   1.244   6.590
 3429POPC   C3A46673  16.715   1.415   7.004
 3429POPC   C4A46674  16.890   1.360   7.460
 3429POPC   C1B46675  16.336   0.989   6.198
 3429POPC   C2B46676  16.141   0.903   6.600
 3429POPC   C3B46677  16.313   1.098   6.963
 3429POPC   C4B46678  16.435   1.147   7.394
 3430POPC   NC346679  39.248  25.589   5.506
 3430POPC   PO446680  39.171  24.969   5.353
 3430POPC   GL146681  39.349  25.131   5.745
 3430POPC   GL246682  39.108  25.348   5.940
 3430POPC   C1A46683  39.467  25.074   6.174
 3430POPC   D2A46684  39.235  25.247   6.528
 3430POPC   C3A46685  39.356  25.151   6.974
 3430POPC   C4A46686  39.156  25.397   7.337
 3430POPC   C1B46687  39.470  25.577   6.146
 3430POPC   C2B46688  39.477  25.770   6.521
 3430POPC   C3B46689  39.433  25.631   6.921
 3430POPC   C4B46690  39.657  25.595   7.294
 3431POPC   NC346691  15.224  20.867   5.494
 3431POPC   PO446692  15.056  20.232   5.620
 3431POPC   GL146693  15.311  20.486   5.862
 3431POPC   GL246694  15.121  20.786   5.989
 3431POPC   C1A46695  15.442  20.508   6.274
 3431POPC   D2A46696  15.291  20.765   6.580
 3431POPC   C3A46697  15.265  20.542   6.927
 3431POPC   C4A46698  14.937  20.366   7.110
 3431POPC   C1B46699  15.486  21.035   6.158
 3431POPC   C2B46700  15.743  21.007   6.544
 3431POPC   C3B46701  15.650  20.907   6.964
 3431POPC   C4B46702  15.367  20.865   7.320
 3432POPC   NC346703  24.235  42.730   5.424
 3432POPC   PO446704  24.564  42.295   5.005
 3432POPC   GL146705  24.533  42.319   5.590
 3432POPC   GL246706  24.315  42.512   5.863
 3432POPC   C1A46707  24.323  42.052   6.014
 3432POPC   D2A46708  24.159  42.221   6.457
 3432POPC   C3A46709  24.274  42.175   6.921
 3432POPC   C4A46710  24.222  42.419   7.304
 3432POPC   C1B46711  24.597  42.413   6.237
 3432POPC   C2B46712  24.642  42.440   6.696
 3432POPC   C3B46713  24.550  42.695   7.038
 3432POPC   C4B46714  24.639  42.688   7.478
 3433POPC   NC346715  44.207  26.792   5.281
 3433POPC   PO446716  44.901  26.631   5.164
 3433POPC   GL146717  44.902  26.770   5.659
 3433POPC   GL246718  44.733  27.095   5.721
 3433POPC   C1A46719  44.918  26.685   6.135
 3433POPC   D2A46720  44.782  26.540   6.584
 3433POPC   C3A46721  44.955  26.677   6.986
 3433POPC   C4A46722  44.808  26.671   7.418
 3433POPC   C1B46723  44.509  27.148   6.145
 3433POPC   C2B46724  44.517  27.031   6.609
 3433POPC   C3B46725  44.520  26.968   7.075
 3433POPC   C4B46726  44.572  27.109   7.500
 3434POPC   NC346727  25.501   1.459   5.561
 3434POPC   PO446728  25.228   0.866   5.341
 3434POPC   GL146729  25.183   1.065   5.753
 3434POPC   GL246730  25.115   1.428   5.875
 3434POPC   C1A46731  25.176   1.045   6.195
 3434POPC   D2A46732  25.404   0.911   6.533
 3434POPC   C3A46733  25.348   1.076   6.929
 3434POPC   C4A46734  25.080   1.001   7.314
 3434POPC   C1B46735  25.491   1.450   6.174
 3434POPC   C2B46736  25.508   1.603   6.525
 3434POPC   C3B46737  25.231   1.596   6.824
 3434POPC   C4B46738  25.350   1.465   7.237
 3435POPC   NC346739  16.322  26.560   5.396
 3435POPC   PO446740  16.825  26.990   5.292
 3435POPC   GL146741  16.665  27.051   5.710
 3435POPC   GL246742  16.985  26.932   5.849
 3435POPC   C1A46743  16.415  26.887   6.075
 3435POPC   D2A46744  16.552  26.872   6.529
 3435POPC   C3A46745  16.402  26.666   6.918
 3435POPC   C4A46746  16.558  26.729   7.366
 3435POPC   C1B46747  17.134  26.679   6.207
 3435POPC   C2B46748  16.984  26.566   6.624
 3435POPC   C3B46749  16.908  26.542   7.057
 3435POPC   C4B46750  16.974  26.142   7.253
 3436POPC   NC346751  41.436  10.243   5.539
 3436POPC   PO446752  41.982  10.569   5.322
 3436POPC   GL146753  41.778  10.617   5.730
 3436POPC   GL246754  41.411  10.725   5.730
 3436POPC   C1A46755  41.679  10.438   6.144
 3436POPC   D2A46756  41.690  10.646   6.533
 3436POPC   C3A46757  41.626  10.408   6.870
 3436POPC   C4A46758  41.440  10.444   7.247
 3436POPC   C1B46759  41.520  10.924   6.124
 3436POPC   C2B46760  41.369  11.042   6.533
 3436POPC   C3B46761  41.399  10.855   6.957
 3436POPC   C4B46762  41.315  10.917   7.435
 3437POPC   NC346763  20.349   7.675   5.605
 3437POPC   PO446764  20.860   7.259   5.393
 3437POPC   GL146765  20.753   7.424   5.786
 3437POPC   GL246766  20.481   7.204   5.794
 3437POPC   C1A46767  20.897   7.403   6.209
 3437POPC   D2A46768  20.680   7.537   6.593
 3437POPC   C3A46769  20.892   7.527   6.928
 3437POPC   C4A46770  20.791   7.395   7.323
 3437POPC   C1B46771  20.383   7.358   6.212
 3437POPC   C2B46772  20.288   7.212   6.643
 3437POPC   C3B46773  20.434   7.171   7.051
 3437POPC   C4B46774  20.186   6.960   7.400
 3438POPC   NC346775   8.641  32.169   5.467
 3438POPC   PO446776   9.217  32.505   5.466
 3438POPC   GL146777   9.000  32.319   5.831
 3438POPC   GL246778   8.949  31.979   5.845
 3438POPC   C1A46779   8.926  32.192   6.284
 3438POPC   D2A46780   9.153  32.160   6.664
 3438POPC   C3A46781   9.016  32.278   7.096
 3438POPC   C4A46782   8.685  32.171   7.415
 3438POPC   C1B46783   9.256  31.799   6.143
 3438POPC   C2B46784   9.410  31.744   6.563
 3438POPC   C3B46785   9.355  31.866   7.022
 3438POPC   C4B46786   9.153  31.868   7.459
 3439POPC   NC346787   9.390  33.008   5.498
 3439POPC   PO446788  10.034  33.094   5.459
 3439POPC   GL146789   9.822  32.803   5.732
 3439POPC   GL246790  10.047  32.621   5.941
 3439POPC   C1A46791   9.641  32.871   6.155
 3439POPC   D2A46792   9.820  32.774   6.561
 3439POPC   C3A46793   9.723  32.884   6.995
 3439POPC   C4A46794   9.703  33.011   7.422
 3439POPC   C1B46795  10.164  32.953   6.182
 3439POPC   C2B46796  10.263  33.085   6.565
 3439POPC   C3B46797  10.065  33.312   6.844
 3439POPC   C4B46798  10.159  33.070   7.174
 3440POPC   NC346799   7.316  34.418   5.260
 3440POPC   PO446800   7.982  34.517   5.305
 3440POPC   GL146801   7.667  34.520   5.729
 3440POPC   GL246802   7.272  34.499   5.780
 3440POPC   C1A46803   7.503  34.550   6.206
 3440POPC   D2A46804   7.615  34.705   6.606
 3440POPC   C3A46805   7.472  34.490   6.971
 3440POPC   C4A46806   7.640  34.615   7.397
 3440POPC   C1B46807   7.061  34.776   6.129
 3440POPC   C2B46808   7.094  34.660   6.569
 3440POPC   C3B46809   7.116  34.862   6.960
 3440POPC   C4B46810   6.784  34.826   7.208
 3441POPC   NC346811   8.141  35.684   5.382
 3441POPC   PO446812   8.615  35.284   5.408
 3441POPC   GL146813   8.341  35.192   5.783
 3441POPC   GL246814   8.129  35.456   5.829
 3441POPC   C1A46815   8.175  35.073   6.188
 3441POPC   D2A46816   7.935  35.105   6.557
 3441POPC   C3A46817   8.235  35.064   6.839
 3441POPC   C4A46818   8.436  35.304   7.087
 3441POPC   C1B46819   7.905  35.504   6.201
 3441POPC   C2B46820   7.765  35.592   6.612
 3441POPC   C3B46821   7.916  35.442   7.005
 3441POPC   C4B46822   7.843  35.463   7.438
 3442POPC   NC346823   1.895  21.565   5.335
 3442POPC   PO446824   1.740  20.879   5.400
 3442POPC   GL146825   1.906  21.161   5.775
 3442POPC   GL246826   1.731  21.505   5.817
 3442POPC   C1A46827   2.047  21.330   6.227
 3442POPC   D2A46828   2.229  21.267   6.658
 3442POPC   C3A46829   1.977  21.318   7.043
 3442POPC   C4A46830   1.834  21.071   7.448
 3442POPC   C1B46831   1.672  21.712   6.235
 3442POPC   C2B46832   1.910  21.738   6.622
 3442POPC   C3B46833   1.954  21.873   7.040
 3442POPC   C4B46834   2.010  21.662   7.413
 3443POPC   NC346835  15.757   3.038   5.300
 3443POPC   PO446836  16.219   2.588   5.423
 3443POPC   GL146837  16.051   2.606   5.846
 3443POPC   GL246838  15.883   2.907   5.821
 3443POPC   C1A46839  16.097   2.480   6.275
 3443POPC   D2A46840  16.148   2.760   6.649
 3443POPC   C3A46841  16.041   2.515   7.010
 3443POPC   C4A46842  15.852   2.407   7.404
 3443POPC   C1B46843  15.719   2.859   6.252
 3443POPC   C2B46844  15.563   2.990   6.668
 3443POPC   C3B46845  15.593   2.766   7.077
 3443POPC   C4B46846  15.469   2.767   7.528
 3444POPC   NC346847  24.830  32.085   5.523
 3444POPC   PO446848  25.484  32.345   5.493
 3444POPC   GL146849  25.223  32.396   5.848
 3444POPC   GL246850  25.467  32.654   5.963
 3444POPC   C1A46851  25.214  32.249   6.272
 3444POPC   D2A46852  25.441  32.064   6.631
 3444POPC   C3A46853  25.263  32.281   6.952
 3444POPC   C4A46854  25.182  32.221   7.363
 3444POPC   C1B46855  25.148  32.774   6.224
 3444POPC   C2B46856  25.095  32.713   6.646
 3444POPC   C3B46857  25.383  32.779   6.973
 3444POPC   C4B46858  25.502  32.664   7.356
 3445POPC   NC346859  29.666   4.424   5.514
 3445POPC   PO446860  30.223   4.208   5.248
 3445POPC   GL146861  30.106   4.179   5.696
 3445POPC   GL246862  30.187   4.551   5.680
 3445POPC   C1A46863  29.797   4.178   6.092
 3445POPC   D2A46864  29.660   4.526   6.367
 3445POPC   C3A46865  29.678   4.550   6.800
 3445POPC   C4A46866  29.559   4.661   7.206
 3445POPC   C1B46867  30.097   4.583   6.124
 3445POPC   C2B46868  30.093   4.303   6.536
 3445POPC   C3B46869  30.119   4.385   6.997
 3445POPC   C4B46870  30.141   4.664   7.342
 3446POPC   NC346871  15.381  24.272   5.306
 3446POPC   PO446872  15.179  24.858   5.382
 3446POPC   GL146873  15.165  24.498   5.700
 3446POPC   GL246874  15.306  24.665   5.867
 3446POPC   C1A46875  15.181  24.295   6.165
 3446POPC   D2A46876  14.999  24.383   6.585
 3446POPC   C3A46877  15.255  24.368   6.962
 3446POPC   C4A46878  15.186  24.373   7.426
 3446POPC   C1B46879  15.030  24.806   6.194
 3446POPC   C2B46880  15.057  24.936   6.625
 3446POPC   C3B46881  14.963  24.785   7.047
 3446POPC   C4B46882  14.788  24.709   7.457
 3447POPC   NC346883  18.359  35.443   5.326
 3447POPC   PO446884  18.519  34.884   5.563
 3447POPC   GL146885  18.274  35.193   5.808
 3447POPC   GL246886  18.059  35.484   5.864
 3447POPC   C1A46887  18.285  35.264   6.255
 3447POPC   D2A46888  18.047  35.111   6.584
 3447POPC   C3A46889  18.228  35.091   6.979
 3447POPC   C4A46890  18.040  34.781   7.234
 3447POPC   C1B46891  17.997  35.764   6.179
 3447POPC   C2B46892  18.145  35.866   6.600
 3447POPC   C3B46893  18.133  35.890   7.057
 3447POPC   C4B46894  18.372  35.557   7.207
 3448POPC   NC346895  20.235  23.059   5.243
 3448POPC   PO446896  20.262  22.655   5.653
 3448POPC   GL146897  20.478  22.854   6.004
 3448POPC   GL246898  20.771  23.056   5.872
 3448POPC   C1A46899  20.415  22.793   6.469
 3448POPC   D2A46900  20.387  22.688   6.927
 3448POPC   C3A46901  20.252  23.047   7.095
 3448POPC   C4A46902  20.337  23.485   7.216
 3448POPC   C1B46903  20.868  23.013   6.334
 3448POPC   C2B46904  20.864  22.773   6.733
 3448POPC   C3B46905  20.835  22.915   7.151
 3448POPC   C4B46906  21.072  22.836   7.538
 3449POPC   NC346907  25.126  26.786   5.411
 3449POPC   PO446908  25.825  27.007   5.313
 3449POPC   GL146909  25.628  26.788   5.650
 3449POPC   GL246910  25.461  27.070   5.729
 3449POPC   C1A46911  25.362  26.670   6.022
 3449POPC   D2A46912  25.431  26.649   6.462
 3449POPC   C3A46913  25.150  26.786   6.777
 3449POPC   C4A46914  25.222  26.703   7.184
 3449POPC   C1B46915  25.656  27.065   6.177
 3449POPC   C2B46916  25.492  27.160   6.638
 3449POPC   C3B46917  25.423  27.180   7.099
 3449POPC   C4B46918  25.765  27.141   7.429
 3450POPC   NC346919  16.425  34.942   5.472
 3450POPC   PO446920  16.760  35.575   5.442
 3450POPC   GL146921  16.713  35.287   5.756
 3450POPC   GL246922  16.345  35.325   5.786
 3450POPC   C1A46923  16.656  35.491   6.149
 3450POPC   D2A46924  16.828  35.697   6.466
 3450POPC   C3A46925  16.700  35.480   6.826
 3450POPC   C4A46926  16.568  35.506   7.245
 3450POPC   C1B46927  16.482  35.008   6.113
 3450POPC   C2B46928  16.526  35.108   6.528
 3450POPC   C3B46929  16.437  35.060   6.995
 3450POPC   C4B46930  16.669  34.987   7.410
 3451POPC   NC346931   9.335  26.872   5.513
 3451POPC   PO446932   9.959  26.640   5.620
 3451POPC   GL146933   9.787  26.876   5.925
 3451POPC   GL246934   9.467  27.022   5.973
 3451POPC   C1A46935   9.861  27.147   6.278
 3451POPC   D2A46936   9.605  27.133   6.643
 3451POPC   C3A46937   9.761  26.766   6.802
 3451POPC   C4A46938   9.920  26.671   7.185
 3451POPC   C1B46939   9.459  26.714   6.324
 3451POPC   C2B46940   9.256  26.679   6.733
 3451POPC   C3B46941   9.376  26.760   7.153
 3451POPC   C4B46942   9.180  26.963   7.494
 3452POPC   NC346943  29.367   7.285   5.431
 3452POPC   PO446944  28.754   7.616   5.362
 3452POPC   GL146945  28.867   7.250   5.695
 3452POPC   GL246946  29.216   7.204   5.915
 3452POPC   C1A46947  28.767   7.266   6.155
 3452POPC   D2A46948  28.892   7.601   6.463
 3452POPC   C3A46949  29.023   7.402   6.845
 3452POPC   C4A46950  28.994   7.196   7.227
 3452POPC   C1B46951  29.536   7.014   6.243
 3452POPC   C2B46952  29.659   6.967   6.702
 3452POPC   C3B46953  29.510   7.240   7.030
 3452POPC   C4B46954  29.377   7.682   7.095
 3453POPC   NC346955  38.655   6.046   5.270
 3453POPC   PO446956  38.358   5.505   5.491
 3453POPC   GL146957  38.259   5.594   5.884
 3453POPC   GL246958  38.115   5.916   5.848
 3453POPC   C1A46959  38.355   5.624   6.306
 3453POPC   D2A46960  38.595   5.460   6.647
 3453POPC   C3A46961  38.463   5.649   7.011
 3453POPC   C4A46962  38.266   5.833   7.369
 3453POPC   C1B46963  38.218   6.119   6.252
 3453POPC   C2B46964  38.350   6.037   6.684
 3453POPC   C3B46965  38.425   6.249   7.092
 3453POPC   C4B46966  38.379   6.285   7.576
 3454POPC   NC346967  11.500  35.380   5.435
 3454POPC   PO446968  10.845  35.634   5.481
 3454POPC   GL146969  10.914  35.440   5.898
 3454POPC   GL246970  11.263  35.377   5.905
 3454POPC   C1A46971  11.012  35.152   6.276
 3454POPC   D2A46972  11.307  35.284   6.614
 3454POPC   C3A46973  11.206  35.226   7.026
 3454POPC   C4A46974  10.786  35.225   7.162
 3454POPC   C1B46975  11.491  35.620   6.241
 3454POPC   C2B46976  11.657  35.644   6.664
 3454POPC   C3B46977  11.569  35.627   7.096
 3454POPC   C4B46978  11.543  35.757   7.516
 3455POPC   NC346979   4.934   7.586   5.341
 3455POPC   PO446980   5.354   7.111   5.616
 3455POPC   GL146981   5.150   7.498   5.782
 3455POPC   GL246982   4.852   7.328   5.847
 3455POPC   C1A46983   5.124   7.702   6.160
 3455POPC   D2A46984   5.033   7.426   6.478
 3455POPC   C3A46985   5.054   7.529   6.917
 3455POPC   C4A46986   5.122   7.292   7.288
 3455POPC   C1B46987   4.662   7.130   6.219
 3455POPC   C2B46988   4.552   7.320   6.630
 3455POPC   C3B46989   4.677   7.189   7.063
 3455POPC   C4B46990   4.482   7.071   7.502
 3456POPC   NC346991  31.895   3.045   5.230
 3456POPC   PO446992  31.518   3.636   5.302
 3456POPC   GL146993  31.477   3.612   5.783
 3456POPC   GL246994  31.741   3.435   5.951
 3456POPC   C1A46995  31.562   3.833   6.231
 3456POPC   D2A46996  31.474   4.033   6.676
 3456POPC   C3A46997  31.420   3.737   7.028
 3456POPC   C4A46998  31.211   3.376   7.247
 3456POPC   C1B46999  31.929   3.320   6.345
 3456POPC   C2B47000  31.763   3.351   6.762
 3456POPC   C3B47001  31.745   3.290   7.210
 3456POPC   C4B47002  31.697   3.112   7.645
 3457POPC   NC347003  31.513  11.411   5.481
 3457POPC   PO447004  30.937  11.790   5.409
 3457POPC   GL147005  31.118  11.624   5.797
 3457POPC   GL247006  31.269  11.309   5.892
 3457POPC   C1A47007  31.370  11.676   6.207
 3457POPC   D2A47008  31.655  11.346   6.366
 3457POPC   C3A47009  31.724  11.320   6.808
 3457POPC   C4A47010  31.654  11.459   7.223
 3457POPC   C1B47011  31.198  11.168   6.256
 3457POPC   C2B47012  31.125  11.388   6.593
 3457POPC   C3B47013  31.242  11.284   6.957
 3457POPC   C4B47014  31.148  11.365   7.337
 3458POPC   NC347015   1.733  24.087   5.135
 3458POPC   PO447016   1.572  24.649   5.488
 3458POPC   GL147017   1.733  24.552   5.917
 3458POPC   GL247018   2.099  24.534   5.937
 3458POPC   C1A47019   1.765  24.470   6.368
 3458POPC   D2A47020   1.721  24.536   6.807
 3458POPC   C3A47021   1.670  24.242   7.158
 3458POPC   C4A47022   1.909  24.298   7.573
 3458POPC   C1B47023   2.243  24.636   6.355
 3458POPC   C2B47024   2.248  24.334   6.705
 3458POPC   C3B47025   2.168  24.336   7.137
 3458POPC   C4B47026   2.174  24.713   7.428
 3459POPC   NC347027  11.382  16.424   5.517
 3459POPC   PO447028  11.094  15.830   5.623
 3459POPC   GL147029  11.240  16.161   5.961
 3459POPC   GL247030  11.549  16.397   5.985
 3459POPC   C1A47031  11.095  16.107   6.410
 3459POPC   D2A47032  11.112  15.777   6.748
 3459POPC   C3A47033  11.113  16.004   7.133
 3459POPC   C4A47034  10.973  16.114   7.540
 3459POPC   C1B47035  11.622  16.244   6.364
 3459POPC   C2B47036  11.503  16.146   6.774
 3459POPC   C3B47037  11.694  15.944   7.099
 3459POPC   C4B47038  11.708  15.518   7.227
 3460POPC   NC347039  12.123  21.741   5.313
 3460POPC   PO447040  12.369  21.155   5.395
 3460POPC   GL147041  12.184  21.350   5.792
 3460POPC   GL247042  12.000  21.663   5.806
 3460POPC   C1A47043  12.303  21.477   6.223
 3460POPC   D2A47044  12.337  21.567   6.675
 3460POPC   C3A47045  12.279  21.207   6.964
 3460POPC   C4A47046  12.195  21.291   7.424
 3460POPC   C1B47047  11.782  21.482   6.145
 3460POPC   C2B47048  11.883  21.323   6.522
 3460POPC   C3B47049  11.807  21.398   6.925
 3460POPC   C4B47050  11.722  21.464   7.317
 3461POPC   NC347051  35.861  29.690   5.483
 3461POPC   PO447052  36.362  30.022   5.184
 3461POPC   GL147053  36.060  30.100   5.683
 3461POPC   GL247054  36.003  29.791   5.955
 3461POPC   C1A47055  36.109  30.237   6.179
 3461POPC   D2A47056  36.025  29.999   6.601
 3461POPC   C3A47057  36.273  29.965   7.008
 3461POPC   C4A47058  36.212  30.064   7.457
 3461POPC   C1B47059  35.832  29.593   6.357
 3461POPC   C2B47060  35.876  29.490   6.787
 3461POPC   C3B47061  35.903  29.638   7.188
 3461POPC   C4B47062  35.922  29.644   7.658
 3462POPC   NC347063   3.908  10.753   5.399
 3462POPC   PO447064   3.303  10.943   5.567
 3462POPC   GL147065   3.508  11.145   5.896
 3462POPC   GL247066   3.843  11.172   5.805
 3462POPC   C1A47067   3.409  11.253   6.317
 3462POPC   D2A47068   3.269  11.017   6.687
 3462POPC   C3A47069   3.418  11.183   7.097
 3462POPC   C4A47070   3.563  11.386   7.500
 3462POPC   C1B47071   3.914  11.131   6.273
 3462POPC   C2B47072   3.819  11.100   6.733
 3462POPC   C3B47073   3.932  11.210   7.173
 3462POPC   C4B47074   3.969  11.038   7.612
 3463POPC   NC347075  29.303  29.011   5.330
 3463POPC   PO447076  28.671  29.214   5.171
 3463POPC   GL147077  28.880  29.245   5.608
 3463POPC   GL247078  29.236  29.222   5.779
 3463POPC   C1A47079  28.789  29.167   6.061
 3463POPC   D2A47080  29.072  29.207   6.442
 3463POPC   C3A47081  28.924  29.124   6.869
 3463POPC   C4A47082  29.008  29.224   7.287
 3463POPC   C1B47083  29.395  29.494   6.117
 3463POPC   C2B47084  29.300  29.689   6.524
 3463POPC   C3B47085  29.287  29.517   6.945
 3463POPC   C4B47086  29.513  29.183   7.138
 3464POPC   NC347087   9.794  40.992   5.157
 3464POPC   PO447088   9.470  40.518   5.509
 3464POPC   GL147089   9.851  40.772   5.661
 3464POPC   GL247090   9.831  41.112   5.734
 3464POPC   C1A47091  10.002  40.796   6.099
 3464POPC   D2A47092   9.985  41.107   6.445
 3464POPC   C3A47093   9.803  41.037   6.846
 3464POPC   C4A47094   9.964  40.865   7.224
 3464POPC   C1B47095   9.591  41.169   6.125
 3464POPC   C2B47096   9.459  40.882   6.482
 3464POPC   C3B47097   9.215  40.999   6.857
 3464POPC   C4B47098   9.443  40.962   7.240
 3465POPC   NC347099   6.024  15.658   5.342
 3465POPC   PO447100   6.324  16.170   5.424
 3465POPC   GL147101   6.020  16.030   5.708
 3465POPC   GL247102   5.729  16.248   5.791
 3465POPC   C1A47103   6.110  15.863   6.078
 3465POPC   D2A47104   6.062  15.846   6.525
 3465POPC   C3A47105   6.163  16.013   6.904
 3465POPC   C4A47106   5.975  16.282   7.159
 3465POPC   C1B47107   5.847  16.266   6.232
 3465POPC   C2B47108   5.783  16.298   6.665
 3465POPC   C3B47109   5.593  16.548   6.976
 3465POPC   C4B47110   5.456  16.344   7.326
 3466POPC   NC347111  43.334  25.810   5.613
 3466POPC   PO447112  43.249  25.216   5.278
 3466POPC   GL147113  43.163  25.227   5.765
 3466POPC   GL247114  43.087  25.536   5.957
 3466POPC   C1A47115  43.039  25.070   6.214
 3466POPC   D2A47116  42.746  25.076   6.588
 3466POPC   C3A47117  42.841  25.260   7.011
 3466POPC   C4A47118  43.182  25.252   7.288
 3466POPC   C1B47119  43.382  25.461   6.329
 3466POPC   C2B47120  43.318  25.391   6.779
 3466POPC   C3B47121  43.557  25.546   7.106
 3466POPC   C4B47122  43.485  25.659   7.510
 3467POPC   NC347123   8.396  13.818   5.280
 3467POPC   PO447124   8.024  13.310   5.437
 3467POPC   GL147125   8.227  13.573   5.723
 3467POPC   GL247126   8.587  13.498   5.648
 3467POPC   C1A47127   8.129  13.857   6.085
 3467POPC   D2A47128   8.307  13.905   6.519
 3467POPC   C3A47129   8.161  13.943   6.937
 3467POPC   C4A47130   8.213  13.828   7.383
 3467POPC   C1B47131   8.594  13.616   6.090
 3467POPC   C2B47132   8.662  13.539   6.503
 3467POPC   C3B47133   8.462  13.532   6.888
 3467POPC   C4B47134   8.543  13.475   7.304
 3468POPC   NC347135   0.489  29.037   5.429
 3468POPC   PO447136  44.857  29.282   5.473
 3468POPC   GL147137   0.214  29.275   5.797
 3468POPC   GL247138   0.476  29.481   5.696
 3468POPC   C1A47139   0.476  28.971   6.086
 3468POPC   D2A47140   0.386  28.788   6.495
 3468POPC   C3A47141   0.521  28.967   6.886
 3468POPC   C4A47142   0.464  28.953   7.329
 3468POPC   C1B47143   0.530  29.474   6.141
 3468POPC   C2B47144   0.435  29.352   6.526
 3468POPC   C3B47145   0.570  29.497   6.914
 3468POPC   C4B47146   0.808  29.320   7.215
 3469POPC   NC347147  30.308  29.440   5.635
 3469POPC   PO447148  29.644  29.321   5.378
 3469POPC   GL147149  29.810  29.442   5.782
 3469POPC   GL247150  29.934  29.106   5.881
 3469POPC   C1A47151  29.972  29.470   6.225
 3469POPC   D2A47152  29.751  29.454   6.608
 3469POPC   C3A47153  29.997  29.300   6.967
 3469POPC   C4A47154  29.892  29.427   7.382
 3469POPC   C1B47155  30.175  28.972   6.259
 3469POPC   C2B47156  30.176  28.747   6.649
 3469POPC   C3B47157  30.348  28.733   7.042
 3469POPC   C4B47158  30.230  29.019   7.356
 3470POPC   NC347159   7.280  18.344   5.053
 3470POPC   PO447160   7.663  18.020   5.535
 3470POPC   GL147161   7.468  18.328   5.796
 3470POPC   GL247162   7.665  18.675   5.800
 3470POPC   C1A47163   7.370  18.143   6.200
 3470POPC   D2A47164   7.257  18.002   6.604
 3470POPC   C3A47165   7.181  18.318   6.906
 3470POPC   C4A47166   7.414  18.135   7.226
 3470POPC   C1B47167   7.668  18.551   6.232
 3470POPC   C2B47168   7.626  18.359   6.632
 3470POPC   C3B47169   7.646  18.543   7.045
 3470POPC   C4B47170   7.662  18.499   7.502
 3471POPC   NC347171  42.503  44.967   5.473
 3471POPC   PO447172  42.606   0.659   5.564
 3471POPC   GL147173  42.340   0.609   5.913
 3471POPC   GL247174  42.253   0.272   5.891
 3471POPC   C1A47175  42.244   0.564   6.341
 3471POPC   D2A47176  42.307   0.821   6.669
 3471POPC   C3A47177  42.532   0.688   6.996
 3471POPC   C4A47178  42.179   0.764   7.219
 3471POPC   C1B47179  42.467   0.106   6.286
 3471POPC   C2B47180  42.378   0.224   6.741
 3471POPC   C3B47181  42.585   0.063   7.123
 3471POPC   C4B47182  42.762  44.738   7.370
 3472POPC   NC347183  34.764   7.697   5.237
 3472POPC   PO447184  34.340   7.178   5.486
 3472POPC   GL147185  34.621   7.403   5.730
 3472POPC   GL247186  34.628   7.741   5.766
 3472POPC   C1A47187  34.539   7.404   6.184
 3472POPC   D2A47188  34.474   7.244   6.600
 3472POPC   C3A47189  34.641   7.500   6.890
 3472POPC   C4A47190  34.718   7.475   7.266
 3472POPC   C1B47191  34.943   7.700   6.110
 3472POPC   C2B47192  34.893   7.800   6.577
 3472POPC   C3B47193  34.515   7.993   6.813
 3472POPC   C4B47194  34.270   7.817   7.181
 3473POPC   NC347195  25.380  28.671   5.432
 3473POPC   PO447196  24.989  29.196   5.369
 3473POPC   GL147197  25.225  29.315   5.758
 3473POPC   GL247198  25.389  29.642   5.750
 3473POPC   C1A47199  25.446  29.250   6.178
 3473POPC   D2A47200  25.630  29.081   6.590
 3473POPC   C3A47201  25.290  28.921   6.889
 3473POPC   C4A47202  25.124  29.121   7.273
 3473POPC   C1B47203  25.498  29.757   6.184
 3473POPC   C2B47204  25.329  29.678   6.575
 3473POPC   C3B47205  25.380  29.425   6.922
 3473POPC   C4B47206  25.506  29.514   7.330
 3474POPC   NC347207  26.830  26.659   5.525
 3474POPC   PO447208  27.007  25.942   5.499
 3474POPC   GL147209  26.984  26.184   5.828
 3474POPC   GL247210  26.639  26.269   5.798
 3474POPC   C1A47211  26.816  26.070   6.230
 3474POPC   D2A47212  26.842  25.805   6.619
 3474POPC   C3A47213  26.975  25.936   7.027
 3474POPC   C4A47214  26.965  25.767   7.438
 3474POPC   C1B47215  26.700  26.570   6.167
 3474POPC   C2B47216  26.558  26.651   6.599
 3474POPC   C3B47217  26.651  26.427   7.016
 3474POPC   C4B47218  26.870  26.266   7.393
 3475POPC   NC347219  34.595  35.536   5.333
 3475POPC   PO447220  34.356  34.883   5.535
 3475POPC   GL147221  34.496  35.112   5.885
 3475POPC   GL247222  34.808  35.307   5.803
 3475POPC   C1A47223  34.695  35.114   6.281
 3475POPC   D2A47224  34.613  34.963   6.680
 3475POPC   C3A47225  34.544  35.295   7.006
 3475POPC   C4A47226  34.798  35.364   7.405
 3475POPC   C1B47227  34.867  35.593   6.183
 3475POPC   C2B47228  34.656  35.643   6.605
 3475POPC   C3B47229  34.850  35.724   7.028
 3475POPC   C4B47230  34.690  35.855   7.451
 3476POPC   NC347231  43.388  25.967   5.113
 3476POPC   PO447232  42.855  25.811   5.536
 3476POPC   GL147233  42.987  26.103   5.861
 3476POPC   GL247234  43.337  26.175   5.955
 3476POPC   C1A47235  43.023  26.420   6.215
 3476POPC   D2A47236  43.175  26.355   6.613
 3476POPC   C3A47237  42.959  26.103   6.871
 3476POPC   C4A47238  43.016  26.331   7.221
 3476POPC   C1B47239  43.176  25.933   6.319
 3476POPC   C2B47240  43.416  25.888   6.719
 3476POPC   C3B47241  43.415  26.030   7.149
 3476POPC   C4B47242  43.605  26.168   7.533
 3477POPC   NC347243  17.451  28.238   5.359
 3477POPC   PO447244  17.843  28.746   5.532
 3477POPC   GL147245  17.594  28.477   5.787
 3477POPC   GL247246  17.230  28.485   5.885
 3477POPC   C1A47247  17.629  28.301   6.171
 3477POPC   D2A47248  17.508  28.441   6.558
 3477POPC   C3A47249  17.661  28.247   6.917
 3477POPC   C4A47250  17.707  28.173   7.353
 3477POPC   C1B47251  17.125  28.165   6.182
 3477POPC   C2B47252  17.139  28.069   6.611
 3477POPC   C3B47253  17.152  28.375   6.924
 3477POPC   C4B47254  17.425  28.595   7.247
 3478POPC   NC347255  36.530  18.809   5.537
 3478POPC   PO447256  36.241  18.183   5.345
 3478POPC   GL147257  36.171  18.377   5.758
 3478POPC   GL247258  36.494  18.410   5.877
 3478POPC   C1A47259  35.962  18.396   6.188
 3478POPC   D2A47260  35.950  18.055   6.526
 3478POPC   C3A47261  35.833  18.121   6.973
 3478POPC   C4A47262  35.935  18.346   7.422
 3478POPC   C1B47263  36.446  18.365   6.320
 3478POPC   C2B47264  36.228  18.486   6.676
 3478POPC   C3B47265  36.287  18.332   7.060
 3478POPC   C4B47266  36.590  18.123   7.242
 3479POPC   NC347267  22.469  44.205   5.557
 3479POPC   PO447268  21.979  43.878   5.199
 3479POPC   GL147269  22.147  43.754   5.628
 3479POPC   GL247270  22.540  43.720   5.692
 3479POPC   C1A47271  21.959  43.836   6.058
 3479POPC   D2A47272  22.197  44.072   6.385
 3479POPC   C3A47273  22.171  44.000   6.823
 3479POPC   C4A47274  21.959  44.237   7.124
 3479POPC   C1B47275  22.424  43.648   6.096
 3479POPC   C2B47276  22.578  43.644   6.510
 3479POPC   C3B47277  22.671  43.449   6.897
 3479POPC   C4B47278  22.452  43.733   7.137
 3480POPC   NC347279   0.121   0.230   5.435
 3480POPC   PO447280   0.290   0.933   5.308
 3480POPC   GL147281   0.392   0.684   5.746
 3480POPC   GL247282   0.364   0.283   5.887
 3480POPC   C1A47283   0.452   0.634   6.223
 3480POPC   D2A47284   0.323   0.337   6.568
 3480POPC   C3A47285   0.433   0.428   6.999
 3480POPC   C4A47286   0.811   0.587   7.163
 3480POPC   C1B47287   0.688   0.154   6.239
 3480POPC   C2B47288   0.857   0.270   6.684
 3480POPC   C3B47289   0.884   0.072   7.116
 3480POPC   C4B47290   0.545  44.991   7.427
 3481POPC   NC347291   9.063   8.961   5.420
 3481POPC   PO447292   9.009   9.610   5.508
 3481POPC   GL147293   8.858   9.725   5.877
 3481POPC   GL247294   8.753  10.031   5.986
 3481POPC   C1A47295   8.641   9.553   6.225
 3481POPC   D2A47296   8.743   9.362   6.591
 3481POPC   C3A47297   8.650   9.557   6.984
 3481POPC   C4A47298   8.878   9.534   7.357
 3481POPC   C1B47299   9.014   9.911   6.316
 3481POPC   C2B47300   9.052   9.759   6.724
 3481POPC   C3B47301   8.911  10.030   7.037
 3481POPC   C4B47302   8.896  10.048   7.469
 3482POPC   NC347303   9.722  16.457   5.428
 3482POPC   PO447304  10.042  17.086   5.430
 3482POPC   GL147305  10.068  16.903   5.837
 3482POPC   GL247306   9.926  16.536   5.897
 3482POPC   C1A47307   9.872  16.930   6.242
 3482POPC   D2A47308   9.712  16.748   6.613
 3482POPC   C3A47309   9.896  16.942   6.977
 3482POPC   C4A47310  10.057  16.920   7.390
 3482POPC   C1B47311   9.516  16.498   6.137
 3482POPC   C2B47312   9.289  16.433   6.547
 3482POPC   C3B47313   9.409  16.545   6.977
 3482POPC   C4B47314   9.762  16.527   7.282
 3483POPC   NC347315   6.714  12.485   5.506
 3483POPC   PO447316   6.597  11.846   5.378
 3483POPC   GL147317   6.577  12.068   5.792
 3483POPC   GL247318   6.321  12.332   5.805
 3483POPC   C1A47319   6.704  11.955   6.225
 3483POPC   D2A47320   6.888  11.952   6.628
 3483POPC   C3A47321   6.658  12.049   6.992
 3483POPC   C4A47322   6.841  11.921   7.428
 3483POPC   C1B47323   6.510  12.421   6.175
 3483POPC   C2B47324   6.515  12.366   6.594
 3483POPC   C3B47325   6.206  12.476   6.878
 3483POPC   C4B47326   5.998  12.359   7.246
 3484POPC   NC347327  28.612   1.535   5.620
 3484POPC   PO447328  28.287   0.915   5.515
 3484POPC   GL147329  28.231   0.923   5.961
 3484POPC   GL247330  28.482   1.161   5.938
 3484POPC   C1A47331  28.254   1.093   6.416
 3484POPC   D2A47332  28.262   1.499   6.676
 3484POPC   C3A47333  28.443   1.530   7.096
 3484POPC   C4A47334  28.263   1.277   7.407
 3484POPC   C1B47335  28.727   0.921   6.196
 3484POPC   C2B47336  28.752   1.078   6.591
 3484POPC   C3B47337  28.473   1.048   6.915
 3484POPC   C4B47338  28.506   0.772   7.247
 3485POPC   NC347339   8.636   4.190   5.465
 3485POPC   PO447340   9.357   4.175   5.564
 3485POPC   GL147341   9.023   4.077   5.816
 3485POPC   GL247342   8.954   4.408   5.868
 3485POPC   C1A47343   8.836   4.105   6.252
 3485POPC   D2A47344   8.698   4.193   6.660
 3485POPC   C3A47345   8.945   4.239   7.027
 3485POPC   C4A47346   8.960   4.107   7.424
 3485POPC   C1B47347   9.108   4.626   6.226
 3485POPC   C2B47348   9.094   4.604   6.667
 3485POPC   C3B47349   9.027   4.752   7.084
 3485POPC   C4B47350   9.125   4.595   7.503
 3486POPC   NC347351  14.175   9.919   5.235
 3486POPC   PO447352  14.596   9.456   5.362
 3486POPC   GL147353  14.328   9.633   5.713
 3486POPC   GL247354  14.176   9.980   5.751
 3486POPC   C1A47355  14.392   9.698   6.161
 3486POPC   D2A47356  14.159   9.563   6.524
 3486POPC   C3A47357  14.365   9.565   6.928
 3486POPC   C4A47358  14.489   9.392   7.314
 3486POPC   C1B47359  14.104  10.123   6.174
 3486POPC   C2B47360  14.345  10.060   6.536
 3486POPC   C3B47361  14.424  10.106   6.952
 3486POPC   C4B47362  14.079  10.317   7.165
 3487POPC   NC347363  43.624   5.384   5.328
 3487POPC   PO447364  44.056   4.911   5.432
 3487POPC   GL147365  43.753   5.089   5.734
 3487POPC   GL247366  43.572   4.798   5.758
 3487POPC   C1A47367  43.872   5.276   6.119
 3487POPC   D2A47368  44.083   5.121   6.504
 3487POPC   C3A47369  43.981   5.273   6.932
 3487POPC   C4A47370  43.971   5.134   7.366
 3487POPC   C1B47371  43.847   4.638   6.078
 3487POPC   C2B47372  44.087   4.544   6.470
 3487POPC   C3B47373  44.109   4.769   6.878
 3487POPC   C4B47374  43.699   4.836   7.022
 3488POPC   NC347375   7.646  28.939   5.410
 3488POPC   PO447376   7.455  29.444   5.505
 3488POPC   GL147377   7.377  29.123   5.839
 3488POPC   GL247378   7.434  29.369   6.058
 3488POPC   C1A47379   7.318  28.976   6.321
 3488POPC   D2A47380   7.490  29.191   6.713
 3488POPC   C3A47381   7.355  29.032   7.149
 3488POPC   C4A47382   7.099  29.018   7.533
 3488POPC   C1B47383   7.731  29.554   6.362
 3488POPC   C2B47384   7.802  29.697   6.802
 3488POPC   C3B47385   7.570  29.496   7.142
 3488POPC   C4B47386   7.224  29.540   7.473
 3489POPC   NC347387   5.508   5.152   5.412
 3489POPC   PO447388   6.102   5.467   5.299
 3489POPC   GL147389   6.057   5.211   5.702
 3489POPC   GL247390   5.716   5.148   5.870
 3489POPC   C1A47391   6.151   5.078   6.130
 3489POPC   D2A47392   6.198   4.891   6.543
 3489POPC   C3A47393   6.128   5.172   6.879
 3489POPC   C4A47394   6.318   5.210   7.259
 3489POPC   C1B47395   5.679   4.889   6.247
 3489POPC   C2B47396   5.439   4.845   6.625
 3489POPC   C3B47397   5.568   4.814   7.043
 3489POPC   C4B47398   5.950   4.807   7.234
 3490POPC   NC347399  38.305  21.798   5.458
 3490POPC   PO447400  38.824  21.309   5.433
 3490POPC   GL147401  38.615  21.536   5.784
 3490POPC   GL247402  38.237  21.513   5.855
 3490POPC   C1A47403  38.554  21.577   6.222
 3490POPC   D2A47404  38.488  21.292   6.582
 3490POPC   C3A47405  38.586  21.455   7.012
 3490POPC   C4A47406  38.378  21.798   7.233
 3490POPC   C1B47407  38.075  21.383   6.249
 3490POPC   C2B47408  37.950  21.099   6.593
 3490POPC   C3B47409  37.984  21.204   7.021
 3490POPC   C4B47410  38.251  21.299   7.356
 3491POPC   NC347411   6.265  42.514   5.165
 3491POPC   PO447412   6.845  42.351   5.354
 3491POPC   GL147413   6.780  42.307   5.751
 3491POPC   GL247414   7.051  42.538   5.804
 3491POPC   C1A47415   6.582  42.448   6.112
 3491POPC   D2A47416   6.610  42.277   6.497
 3491POPC   C3A47417   6.596  42.492   6.882
 3491POPC   C4A47418   6.540  42.292   7.266
 3491POPC   C1B47419   7.045  42.227   6.189
 3491POPC   C2B47420   7.079  42.057   6.625
 3491POPC   C3B47421   7.021  42.185   7.059
 3491POPC   C4B47422   7.011  42.476   7.371
 3492POPC   NC347423  26.992  34.769   5.462
 3492POPC   PO447424  26.735  34.124   5.523
 3492POPC   GL147425  26.712  34.482   5.779
 3492POPC   GL247426  27.011  34.416   5.915
 3492POPC   C1A47427  26.651  34.684   6.173
 3492POPC   D2A47428  26.953  34.594   6.490
 3492POPC   C3A47429  26.915  34.530   6.929
 3492POPC   C4A47430  26.577  34.610   7.196
 3492POPC   C1B47431  27.245  34.234   6.277
 3492POPC   C2B47432  27.391  34.411   6.710
 3492POPC   C3B47433  27.288  34.267   7.172
 3492POPC   C4B47434  27.273  34.078   7.627
 3493POPC   NC347435  15.577   5.467   5.444
 3493POPC   PO447436  15.486   4.765   5.661
 3493POPC   GL147437  15.082   4.917   5.787
 3493POPC   GL247438  15.093   5.273   5.792
 3493POPC   C1A47439  14.773   4.875   6.138
 3493POPC   D2A47440  14.832   4.857   6.624
 3493POPC   C3A47441  15.095   5.192   6.848
 3493POPC   C4A47442  15.319   5.223   7.268
 3493POPC   C1B47443  15.216   5.187   6.233
 3493POPC   C2B47444  15.511   5.313   6.544
 3493POPC   C3B47445  15.515   5.525   6.910
 3493POPC   C4B47446  15.730   5.534   7.297
 3494POPC   NC347447   8.797  39.521   5.465
 3494POPC   PO447448   8.905  38.897   5.510
 3494POPC   GL147449   9.110  39.143   5.834
 3494POPC   GL247450   9.330  39.451   5.801
 3494POPC   C1A47451   8.838  39.154   6.176
 3494POPC   D2A47452   8.798  38.852   6.476
 3494POPC   C3A47453   8.746  39.041   6.839
 3494POPC   C4A47454   8.764  39.043   7.254
 3494POPC   C1B47455   9.192  39.528   6.225
 3494POPC   C2B47456   9.125  39.273   6.589
 3494POPC   C3B47457   9.199  39.226   7.026
 3494POPC   C4B47458   9.252  39.549   7.334
 3495POPC   NC347459   2.520   3.896   5.438
 3495POPC   PO447460   2.831   3.253   5.510
 3495POPC   GL147461   2.857   3.343   5.893
 3495POPC   GL247462   2.544   3.526   5.855
 3495POPC   C1A47463   2.997   3.313   6.312
 3495POPC   D2A47464   2.770   3.461   6.651
 3495POPC   C3A47465   2.917   3.496   7.038
 3495POPC   C4A47466   3.191   3.335   7.355
 3495POPC   C1B47467   2.775   3.757   6.183
 3495POPC   C2B47468   2.644   3.942   6.550
 3495POPC   C3B47469   2.500   3.839   6.982
 3495POPC   C4B47470   2.761   3.832   7.387
 3496POPC   NC347471  43.351  24.822   5.513
 3496POPC   PO447472  43.241  24.160   5.270
 3496POPC   GL147473  43.076  24.343   5.689
 3496POPC   GL247474  43.338  24.448   5.841
 3496POPC   C1A47475  42.969  24.453   6.168
 3496POPC   D2A47476  43.208  24.457   6.569
 3496POPC   C3A47477  42.983  24.409   6.976
 3496POPC   C4A47478  42.985  24.175   7.353
 3496POPC   C1B47479  43.429  24.733   6.170
 3496POPC   C2B47480  43.452  24.975   6.518
 3496POPC   C3B47481  43.187  24.898   6.862
 3496POPC   C4B47482  43.302  24.757   7.245
 3497POPC   NC347483  10.238  41.320   5.502
 3497POPC   PO447484  10.851  41.262   5.707
 3497POPC   GL147485  10.594  41.572   5.873
 3497POPC   GL247486  10.323  41.424   6.011
 3497POPC   C1A47487  10.499  41.879   6.206
 3497POPC   D2A47488  10.221  41.950   6.548
 3497POPC   C3A47489  10.366  41.745   6.925
 3497POPC   C4A47490  10.714  41.928   7.135
 3497POPC   C1B47491  10.364  41.458   6.472
 3497POPC   C2B47492  10.307  41.220   6.850
 3497POPC   C3B47493  10.466  41.054   7.241
 3497POPC   C4B47494  10.281  40.928   7.628
 3498POPC   NC347495  39.177  31.140   5.280
 3498POPC   PO447496  39.469  31.742   5.355
 3498POPC   GL147497  39.232  31.475   5.688
 3498POPC   GL247498  39.186  31.076   5.788
 3498POPC   C1A47499  39.180  31.494   6.153
 3498POPC   D2A47500  39.082  31.175   6.458
 3498POPC   C3A47501  39.004  31.323   6.884
 3498POPC   C4A47502  39.100  31.489   7.314
 3498POPC   C1B47503  39.533  31.101   6.113
 3498POPC   C2B47504  39.618  31.381   6.480
 3498POPC   C3B47505  39.539  31.498   6.938
 3498POPC   C4B47506  39.612  31.393   7.384
 3499POPC   NC347507   8.759   7.911   5.454
 3499POPC   PO447508   9.066   8.514   5.531
 3499POPC   GL147509   9.102   8.141   5.789
 3499POPC   GL247510   8.759   8.115   5.929
 3499POPC   C1A47511   9.137   7.948   6.213
 3499POPC   D2A47512   8.977   8.094   6.620
 3499POPC   C3A47513   9.059   7.946   7.021
 3499POPC   C4A47514   8.909   7.920   7.421
 3499POPC   C1B47515   8.943   8.427   6.236
 3499POPC   C2B47516   8.999   8.718   6.575
 3499POPC   C3B47517   9.174   8.543   6.932
 3499POPC   C4B47518   9.046   8.406   7.322
 3500POPC   NC347519  26.395   6.384   5.360
 3500POPC   PO447520  25.694   6.522   5.313
 3500POPC   GL147521  25.723   6.771   5.732
 3500POPC   GL247522  26.072   6.672   5.889
 3500POPC   C1A47523  25.716   6.753   6.225
 3500POPC   D2A47524  26.109   6.655   6.505
 3500POPC   C3A47525  26.084   6.486   6.936
 3500POPC   C4A47526  26.082   6.303   7.349
 3500POPC   C1B47527  26.380   6.944   6.169
 3500POPC   C2B47528  26.529   7.086   6.594
 3500POPC   C3B47529  26.458   6.851   6.993
 3500POPC   C4B47530  26.150   6.819   7.345
 3501POPC   NC347531  20.200  41.727   5.223
 3501POPC   PO447532  20.698  41.349   5.289
 3501POPC   GL147533  20.801  41.234   5.783
 3501POPC   GL247534  20.510  41.389   5.969
 3501POPC   C1A47535  20.879  41.257   6.278
 3501POPC   D2A47536  20.829  41.638   6.551
 3501POPC   C3A47537  20.841  41.603   6.995
 3501POPC   C4A47538  20.741  41.168   7.045
 3501POPC   C1B47539  20.362  41.400   6.419
 3501POPC   C2B47540  20.349  41.482   6.872
 3501POPC   C3B47541  20.168  41.682   7.235
 3501POPC   C4B47542  20.157  41.564   7.696
 3502POPC   NC347543  31.171   6.262   5.464
 3502POPC   PO447544  31.447   6.783   5.205
 3502POPC   GL147545  31.386   6.787   5.687
 3502POPC   GL247546  31.102   6.990   5.781
 3502POPC   C1A47547  31.370   6.608   6.155
 3502POPC   D2A47548  31.517   6.434   6.593
 3502POPC   C3A47549  31.667   6.728   6.919
 3502POPC   C4A47550  31.779   6.689   7.348
 3502POPC   C1B47551  31.039   7.007   6.247
 3502POPC   C2B47552  31.186   6.849   6.675
 3502POPC   C3B47553  31.195   6.776   7.175
 3502POPC   C4B47554  30.994   6.819   7.635
 3503POPC   NC347555  38.986  15.211   5.193
 3503POPC   PO447556  39.335  14.741   5.613
 3503POPC   GL147557  39.378  15.149   5.751
 3503POPC   GL247558  39.719  15.208   5.834
 3503POPC   C1A47559  39.268  15.207   6.177
 3503POPC   D2A47560  39.170  15.327   6.585
 3503POPC   C3A47561  39.218  15.132   6.976
 3503POPC   C4A47562  38.854  15.107   7.227
 3503POPC   C1B47563  39.647  14.864   6.174
 3503POPC   C2B47564  39.407  14.812   6.537
 3503POPC   C3B47565  39.627  14.815   6.885
 3503POPC   C4B47566  39.674  15.059   7.229
 3504POPC   NC347567  41.371   0.631   5.499
 3504POPC   PO447568  41.846   0.071   5.422
 3504POPC   GL147569  41.684   0.266   5.793
 3504POPC   GL247570  41.848   0.568   5.721
 3504POPC   C1A47571  41.394   0.485   6.112
 3504POPC   D2A47572  41.176   0.378   6.486
 3504POPC   C3A47573  41.367   0.524   6.860
 3504POPC   C4A47574  41.233   0.392   7.275
 3504POPC   C1B47575  41.839   0.774   6.100
 3504POPC   C2B47576  41.740   0.558   6.471
 3504POPC   C3B47577  41.897   0.508   6.846
 3504POPC   C4B47578  41.707   0.521   7.267
 3505POPC   NC347579  27.340  43.115   5.296
 3505POPC   PO447580  27.897  42.759   5.487
 3505POPC   GL147581  27.806  42.985   5.870
 3505POPC   GL247582  27.496  43.121   5.903
 3505POPC   C1A47583  27.970  42.937   6.282
 3505POPC   D2A47584  27.917  43.210   6.631
 3505POPC   C3A47585  27.845  43.052   7.046
 3505POPC   C4A47586  27.636  43.333   7.275
 3505POPC   C1B47587  27.512  43.192   6.323
 3505POPC   C2B47588  27.268  43.011   6.622
 3505POPC   C3B47589  27.187  42.838   6.985
 3505POPC   C4B47590  27.310  42.964   7.373
 3506POPC   NC347591  14.581  37.373   5.456
 3506POPC   PO447592  14.211  36.855   5.192
 3506POPC   GL147593  14.288  36.940   5.621
 3506POPC   GL247594  14.100  37.248   5.649
 3506POPC   C1A47595  14.225  36.810   6.072
 3506POPC   D2A47596  14.321  36.693   6.510
 3506POPC   C3A47597  14.445  36.960   6.864
 3506POPC   C4A47598  14.561  36.908   7.298
 3506POPC   C1B47599  14.024  37.284   6.083
 3506POPC   C2B47600  13.925  37.065   6.465
 3506POPC   C3B47601  13.978  37.201   6.867
 3506POPC   C4B47602  14.081  37.043   7.226
 3507POPC   NC347603  18.789  37.622   5.512
 3507POPC   PO447604  19.341  37.285   5.397
 3507POPC   GL147605  19.187  37.308   5.816
 3507POPC   GL247606  19.196  37.674   5.909
 3507POPC   C1A47607  19.328  37.290   6.255
 3507POPC   D2A47608  19.284  37.373   6.694
 3507POPC   C3A47609  19.288  37.764   6.896
 3507POPC   C4A47610  19.224  37.880   7.329
 3507POPC   C1B47611  19.121  37.752   6.373
 3507POPC   C2B47612  18.795  37.572   6.665
 3507POPC   C3B47613  18.653  37.655   7.092
 3507POPC   C4B47614  18.443  37.661   7.506
 3508POPC   NC347615  11.525  12.199   5.439
 3508POPC   PO447616  12.174  12.041   5.091
 3508POPC   GL147617  12.074  12.115   5.574
 3508POPC   GL247618  12.226  12.381   5.793
 3508POPC   C1A47619  11.894  12.048   6.010
 3508POPC   D2A47620  11.724  12.016   6.443
 3508POPC   C3A47621  11.877  12.132   6.862
 3508POPC   C4A47622  11.845  12.135   7.294
 3508POPC   C1B47623  12.356  12.210   6.174
 3508POPC   C2B47624  12.235  11.976   6.512
 3508POPC   C3B47625  12.390  12.130   6.867
 3508POPC   C4B47626  12.333  12.217   7.270
 3509POPC   NC347627  18.860  10.165   5.500
 3509POPC   PO447628  19.290   9.553   5.387
 3509POPC   GL147629  19.168   9.799   5.704
 3509POPC   GL247630  18.797   9.702   5.678
 3509POPC   C1A47631  19.286   9.920   6.116
 3509POPC   D2A47632  19.110   9.722   6.484
 3509POPC   C3A47633  19.319   9.756   6.862
 3509POPC   C4A47634  19.134   9.941   7.198
 3509POPC   C1B47635  18.779   9.514   6.090
 3509POPC   C2B47636  18.757   9.347   6.510
 3509POPC   C3B47637  18.780   9.562   6.928
 3509POPC   C4B47638  18.927   9.495   7.358
 3510POPC   NC347639  29.832  44.557   5.175
 3510POPC   PO447640  29.913   0.190   5.368
 3510POPC   GL147641  29.957  44.826   5.705
 3510POPC   GL247642  30.036  44.498   5.653
 3510POPC   C1A47643  29.806  44.567   6.099
 3510POPC   D2A47644  29.904  44.648   6.530
 3510POPC   C3A47645  29.876  44.791   6.968
 3510POPC   C4A47646  30.230  44.756   7.218
 3510POPC   C1B47647  30.169  44.217   5.989
 3510POPC   C2B47648  30.147  44.180   6.453
 3510POPC   C3B47649  30.114  44.358   6.894
 3510POPC   C4B47650  30.044  44.293   7.332
 3511POPC   NC347651  34.625  27.712   5.482
 3511POPC   PO447652  34.898  27.020   5.443
 3511POPC   GL147653  34.659  27.297   5.759
 3511POPC   GL247654  34.846  27.635   5.911
 3511POPC   C1A47655  34.487  27.402   6.161
 3511POPC   D2A47656  34.679  27.670   6.456
 3511POPC   C3A47657  34.542  27.721   6.849
 3511POPC   C4A47658  34.495  27.496   7.212
 3511POPC   C1B47659  34.867  28.031   6.130
 3511POPC   C2B47660  34.667  28.186   6.500
 3511POPC   C3B47661  34.834  28.167   6.898
 3511POPC   C4B47662  34.927  27.808   7.159
 3512POPC   NC347663  32.073   0.298   5.653
 3512POPC   PO447664  31.997  44.652   5.663
 3512POPC   GL147665  32.285  44.675   5.998
 3512POPC   GL247666  32.628  44.692   5.843
 3512POPC   C1A47667  32.183  44.580   6.434
 3512POPC   D2A47668  32.085  44.245   6.731
 3512POPC   C3A47669  32.261  44.451   7.062
 3512POPC   C4A47670  32.430  44.887   7.114
 3512POPC   C1B47671  32.694  44.594   6.305
 3512POPC   C2B47672  32.674  44.511   6.758
 3512POPC   C3B47673  32.748  44.521   7.229
 3512POPC   C4B47674  32.647  44.880   7.601
 3513POPC   NC347675   6.492  28.288   5.074
 3513POPC   PO447676   6.311  28.466   5.475
 3513POPC   GL147677   6.535  28.451   5.845
 3513POPC   GL247678   6.678  28.152   5.853
 3513POPC   C1A47679   6.697  28.491   6.263
 3513POPC   D2A47680   6.465  28.400   6.634
 3513POPC   C3A47681   6.630  28.321   7.045
 3513POPC   C4A47682   6.773  28.111   7.432
 3513POPC   C1B47683   6.415  28.052   6.249
 3513POPC   C2B47684   6.251  27.931   6.695
 3513POPC   C3B47685   6.401  27.874   7.136
 3513POPC   C4B47686   6.315  27.809   7.589
 3514POPC   NC347687   0.220   6.446   5.411
 3514POPC   PO447688   0.514   7.057   5.336
 3514POPC   GL147689   0.515   6.738   5.731
 3514POPC   GL247690   0.732   6.454   5.665
 3514POPC   C1A47691   0.659   6.850   6.175
 3514POPC   D2A47692   0.407   6.646   6.507
 3514POPC   C3A47693   0.418   6.792   6.933
 3514POPC   C4A47694   0.579   7.150   7.127
 3514POPC   C1B47695   0.632   6.348   6.112
 3514POPC   C2B47696   0.699   6.246   6.574
 3514POPC   C3B47697   0.649   6.363   7.022
 3514POPC   C4B47698   0.521   6.583   7.402
 3515POPC   NC347699  34.816  32.315   5.381
 3515POPC   PO447700  34.689  31.761   5.709
 3515POPC   GL147701  34.725  32.216   5.871
 3515POPC   GL247702  34.459  32.462   5.724
 3515POPC   C1A47703  34.842  32.289   6.301
 3515POPC   D2A47704  34.814  31.988   6.658
 3515POPC   C3A47705  34.836  32.127   7.073
 3515POPC   C4A47706  34.482  32.175   7.354
 3515POPC   C1B47707  34.348  32.464   6.175
 3515POPC   C2B47708  34.441  32.384   6.622
 3515POPC   C3B47709  34.230  32.443   7.003
 3515POPC   C4B47710  34.144  32.552   7.490
 3516POPC   NC347711  36.449   7.225   5.446
 3516POPC   PO447712  35.875   7.352   5.181
 3516POPC   GL147713  36.105   7.452   5.738
 3516POPC   GL247714  36.408   7.628   5.785
 3516POPC   C1A47715  35.935   7.318   6.185
 3516POPC   D2A47716  36.004   7.086   6.568
 3516POPC   C3A47717  35.889   7.199   6.964
 3516POPC   C4A47718  35.885   7.499   7.262
 3516POPC   C1B47719  36.453   7.352   6.109
 3516POPC   C2B47720  36.349   7.499   6.474
 3516POPC   C3B47721  36.300   7.484   6.910
 3516POPC   C4B47722  36.475   7.288   7.274
 3517POPC   NC347723  18.720  22.460   5.327
 3517POPC   PO447724  19.275  22.735   5.513
 3517POPC   GL147725  18.954  22.523   5.782
 3517POPC   GL247726  19.086  22.183   5.777
 3517POPC   C1A47727  18.835  22.428   6.235
 3517POPC   D2A47728  18.994  22.465   6.692
 3517POPC   C3A47729  18.882  22.284   7.097
 3517POPC   C4A47730  18.957  22.433   7.509
 3517POPC   C1B47731  19.354  22.405   6.125
 3517POPC   C2B47732  19.460  22.622   6.548
 3517POPC   C3B47733  19.414  22.465   7.020
 3517POPC   C4B47734  19.502  22.460   7.476
 3518POPC   NC347735  29.793   9.137   5.381
 3518POPC   PO447736  30.296   8.673   5.475
 3518POPC   GL147737  29.972   8.811   5.716
 3518POPC   GL247738  30.088   9.149   5.795
 3518POPC   C1A47739  29.926   8.840   6.150
 3518POPC   D2A47740  30.111   9.148   6.404
 3518POPC   C3A47741  30.033   9.156   6.839
 3518POPC   C4A47742  30.155   8.990   7.250
 3518POPC   C1B47743  29.775   9.371   6.062
 3518POPC   C2B47744  29.671   9.421   6.511
 3518POPC   C3B47745  29.484   9.258   6.877
 3518POPC   C4B47746  29.699   9.198   7.235
 3519POPC   NC347747  30.569  31.969   5.400
 3519POPC   PO447748  30.812  32.640   5.495
 3519POPC   GL147749  30.799  32.331   5.805
 3519POPC   GL247750  30.453  32.329   5.742
 3519POPC   C1A47751  30.936  32.201   6.225
 3519POPC   D2A47752  31.072  32.355   6.653
 3519POPC   C3A47753  30.974  32.291   7.109
 3519POPC   C4A47754  31.071  32.456   7.528
 3519POPC   C1B47755  30.443  32.053   6.089
 3519POPC   C2B47756  30.565  32.062   6.538
 3519POPC   C3B47757  30.444  32.099   6.952
 3519POPC   C4B47758  30.521  32.343   7.331
 3520POPC   NC347759  11.005  34.527   5.200
 3520POPC   PO447760  11.239  35.016   5.500
 3520POPC   GL147761  11.373  34.596   5.688
 3520POPC   GL247762  11.061  34.396   5.702
 3520POPC   C1A47763  11.544  34.520   6.123
 3520POPC   D2A47764  11.468  34.834   6.456
 3520POPC   C3A47765  11.418  34.760   6.903
 3520POPC   C4A47766  11.333  34.856   7.348
 3520POPC   C1B47767  11.048  34.590   6.108
 3520POPC   C2B47768  11.098  34.481   6.553
 3520POPC   C3B47769  11.279  34.271   6.928
 3520POPC   C4B47770  11.155  34.165   7.355
 3521POPC   NC347771  40.182  30.440   5.298
 3521POPC   PO447772  39.621  30.948   5.378
 3521POPC   GL147773  40.026  30.887   5.645
 3521POPC   GL247774  40.103  30.516   5.813
 3521POPC   C1A47775  40.072  30.924   6.094
 3521POPC   D2A47776  39.869  30.907   6.493
 3521POPC   C3A47777  40.229  30.848   6.708
 3521POPC   C4A47778  40.260  30.790   7.107
 3521POPC   C1B47779  39.788  30.509   6.199
 3521POPC   C2B47780  39.727  30.341   6.586
 3521POPC   C3B47781  39.786  30.604   6.919
 3521POPC   C4B47782  39.757  30.950   7.175
 3522POPC   NC347783  30.171  34.747   5.433
 3522POPC   PO447784  29.531  34.388   5.474
 3522POPC   GL147785  29.763  34.674   5.739
 3522POPC   GL247786  29.565  34.810   5.973
 3522POPC   C1A47787  30.033  34.669   6.109
 3522POPC   D2A47788  30.034  34.465   6.505
 3522POPC   C3A47789  29.998  34.633   6.926
 3522POPC   C4A47790  29.941  34.326   7.264
 3522POPC   C1B47791  29.570  34.535   6.295
 3522POPC   C2B47792  29.385  34.533   6.684
 3522POPC   C3B47793  29.510  34.492   7.070
 3522POPC   C4B47794  29.666  34.809   7.288
 3523POPC   NC347795  34.908  11.358   5.508
 3523POPC   PO447796  35.567  11.085   5.342
 3523POPC   GL147797  35.372  11.218   5.708
 3523POPC   GL247798  35.589  11.515   5.780
 3523POPC   C1A47799  35.253  11.348   6.124
 3523POPC   D2A47800  35.487  11.326   6.494
 3523POPC   C3A47801  35.299  11.248   6.903
 3523POPC   C4A47802  35.145  11.585   7.160
 3523POPC   C1B47803  35.782  11.170   6.060
 3523POPC   C2B47804  35.951  11.085   6.501
 3523POPC   C3B47805  35.827  11.296   6.878
 3523POPC   C4B47806  35.637  11.485   7.232
 3524POPC   NC347807  30.921  29.084   5.408
 3524POPC   PO447808  30.564  29.639   5.307
 3524POPC   GL147809  30.780  29.449   5.779
 3524POPC   GL247810  30.754  29.075   5.880
 3524POPC   C1A47811  30.534  29.371   6.224
 3524POPC   D2A47812  30.571  29.072   6.596
 3524POPC   C3A47813  30.634  29.198   7.040
 3524POPC   C4A47814  30.396  29.487   7.303
 3524POPC   C1B47815  30.980  29.125   6.265
 3524POPC   C2B47816  31.078  28.901   6.641
 3524POPC   C3B47817  30.931  28.765   7.067
 3524POPC   C4B47818  31.042  28.924   7.458
 3525POPC   NC347819   0.740  18.145   5.214
 3525POPC   PO447820   0.413  18.499   5.681
 3525POPC   GL147821   0.411  18.606   6.044
 3525POPC   GL247822   0.104  18.432   6.104
 3525POPC   C1A47823   0.540  18.416   6.371
 3525POPC   D2A47824   0.397  18.333   6.710
 3525POPC   C3A47825   0.351  18.632   6.952
 3525POPC   C4A47826   0.456  18.581   7.335
 3525POPC   C1B47827   0.099  18.089   6.365
 3525POPC   C2B47828   0.126  17.911   6.770
 3525POPC   C3B47829   0.116  18.205   7.117
 3525POPC   C4B47830  44.949  18.569   7.255
 3526POPC   NC347831  21.579  37.230   5.000
 3526POPC   PO447832  21.403  37.690   5.490
 3526POPC   GL147833  21.231  37.543   5.816
 3526POPC   GL247834  20.923  37.399   5.735
 3526POPC   C1A47835  21.316  37.714   6.232
 3526POPC   D2A47836  21.347  37.864   6.681
 3526POPC   C3A47837  21.383  37.782   7.137
 3526POPC   C4A47838  21.548  38.063   7.473
 3526POPC   C1B47839  20.990  37.326   6.181
 3526POPC   C2B47840  21.291  37.338   6.566
 3526POPC   C3B47841  21.105  37.377   6.951
 3526POPC   C4B47842  21.190  37.346   7.336
 3527POPC   NC347843  30.379  27.713   5.434
 3527POPC   PO447844  30.111  27.178   5.499
 3527POPC   GL147845  30.301  27.495   5.899
 3527POPC   GL247846  30.570  27.806   5.908
 3527POPC   C1A47847  30.436  27.647   6.365
 3527POPC   D2A47848  30.616  27.834   6.775
 3527POPC   C3A47849  30.405  27.725   7.189
 3527POPC   C4A47850  30.268  27.578   7.631
 3527POPC   C1B47851  30.887  27.934   6.293
 3527POPC   C2B47852  31.136  27.911   6.724
 3527POPC   C3B47853  31.033  27.677   7.136
 3527POPC   C4B47854  31.171  27.471   7.553
 3528POPC   NC347855  38.628  44.925   5.357
 3528POPC   PO447856  38.944  44.233   5.369
 3528POPC   GL147857  38.680  44.520   5.675
 3528POPC   GL247858  38.747  44.854   5.861
 3528POPC   C1A47859  38.433  44.514   6.072
 3528POPC   D2A47860  38.720  44.578   6.447
 3528POPC   C3A47861  38.599  44.432   6.824
 3528POPC   C4A47862  38.375  44.540   7.175
 3528POPC   C1B47863  38.483  44.972   6.282
 3528POPC   C2B47864  38.275  44.878   6.668
 3528POPC   C3B47865  38.623  44.937   6.913
 3528POPC   C4B47866  38.895  44.706   7.163
 3529POPC   NC347867   5.856   0.213   5.395
 3529POPC   PO447868   6.119   0.847   5.486
 3529POPC   GL147869   5.799   0.588   5.779
 3529POPC   GL247870   5.567   0.243   5.820
 3529POPC   C1A47871   5.979   0.317   6.107
 3529POPC   D2A47872   6.066   0.172   6.524
 3529POPC   C3A47873   6.319   0.365   6.855
 3529POPC   C4A47874   6.119   0.379   7.236
 3529POPC   C1B47875   5.478   0.438   6.252
 3529POPC   C2B47876   5.508   0.535   6.734
 3529POPC   C3B47877   5.616   0.277   7.096
 3529POPC   C4B47878   5.404   0.021   7.408
 3530POPC   NC347879  31.033  10.607   5.389
 3530POPC   PO447880  30.486  10.938   5.239
 3530POPC   GL147881  30.582  10.602   5.664
 3530POPC   GL247882  30.946  10.490   5.865
 3530POPC   C1A47883  30.544  10.449   6.148
 3530POPC   D2A47884  30.761  10.343   6.557
 3530POPC   C3A47885  30.622  10.465   6.975
 3530POPC   C4A47886  30.481  10.832   7.134
 3530POPC   C1B47887  31.034  10.668   6.275
 3530POPC   C2B47888  31.131  10.861   6.670
 3530POPC   C3B47889  31.004  10.838   7.102
 3530POPC   C4B47890  31.071  10.462   7.324
 3531POPC   NC347891  41.158  16.770   5.467
 3531POPC   PO447892  41.731  16.540   5.408
 3531POPC   GL147893  41.572  16.764   5.819
 3531POPC   GL247894  41.261  16.949   5.930
 3531POPC   C1A47895  41.730  17.049   6.148
 3531POPC   D2A47896  41.634  17.154   6.572
 3531POPC   C3A47897  41.772  16.834   6.894
 3531POPC   C4A47898  41.621  16.529   7.240
 3531POPC   C1B47899  41.258  17.284   6.230
 3531POPC   C2B47900  41.070  17.297   6.619
 3531POPC   C3B47901  41.276  17.131   6.956
 3531POPC   C4B47902  41.224  16.880   7.298
 3532POPC   NC347903  29.349  31.459   5.366
 3532POPC   PO447904  29.466  32.014   5.442
 3532POPC   GL147905  29.184  31.731   5.776
 3532POPC   GL247906  29.118  31.338   5.794
 3532POPC   C1A47907  28.999  31.663   6.181
 3532POPC   D2A47908  29.165  31.747   6.589
 3532POPC   C3A47909  28.986  31.616   6.989
 3532POPC   C4A47910  29.216  31.557   7.357
 3532POPC   C1B47911  29.401  31.123   6.074
 3532POPC   C2B47912  29.375  31.218   6.514
 3532POPC   C3B47913  29.295  31.173   6.956
 3532POPC   C4B47914  28.939  31.140   7.207
 3533POPC   NC347915  24.533   2.782   5.232
 3533POPC   PO447916  23.973   2.645   5.489
 3533POPC   GL147917  24.341   2.818   5.717
 3533POPC   GL247918  24.689   2.653   5.704
 3533POPC   C1A47919  24.481   2.776   6.158
 3533POPC   D2A47920  24.440   2.982   6.541
 3533POPC   C3A47921  24.285   2.823   6.915
 3533POPC   C4A47922  24.393   2.935   7.318
 3533POPC   C1B47923  24.867   2.432   6.069
 3533POPC   C2B47924  24.923   2.389   6.528
 3533POPC   C3B47925  24.753   2.562   6.923
 3533POPC   C4B47926  24.477   2.443   7.263
 3534POPC   NC347927  41.944  43.897   5.249
 3534POPC   PO447928  41.415  44.198   5.650
 3534POPC   GL147929  41.796  44.018   5.728
 3534POPC   GL247930  41.822  43.665   5.736
 3534POPC   C1A47931  41.878  44.037   6.138
 3534POPC   D2A47932  41.573  44.083   6.489
 3534POPC   C3A47933  41.617  43.935   6.916
 3534POPC   C4A47934  41.426  44.014   7.290
 3534POPC   C1B47935  41.717  43.562   6.184
 3534POPC   C2B47936  41.937  43.724   6.565
 3534POPC   C3B47937  42.079  43.690   7.002
 3534POPC   C4B47938  41.897  43.807   7.400
 3535POPC   NC347939  21.234   2.413   5.481
 3535POPC   PO447940  21.682   2.870   5.361
 3535POPC   GL147941  21.463   2.759   5.761
 3535POPC   GL247942  21.104   2.847   5.791
 3535POPC   C1A47943  21.392   2.713   6.201
 3535POPC   D2A47944  21.505   2.941   6.580
 3535POPC   C3A47945  21.521   2.682   6.929
 3535POPC   C4A47946  21.314   2.605   7.299
 3535POPC   C1B47947  21.044   3.111   6.183
 3535POPC   C2B47948  21.097   3.275   6.624
 3535POPC   C3B47949  21.178   3.076   7.040
 3535POPC   C4B47950  21.550   3.035   7.296
 3536POPC   NC347951  17.855  14.548   5.494
 3536POPC   PO447952  17.535  14.103   5.431
 3536POPC   GL147953  17.526  14.300   5.857
 3536POPC   GL247954  17.277  14.547   5.952
 3536POPC   C1A47955  17.538  14.204   6.319
 3536POPC   D2A47956  17.373  14.453   6.676
 3536POPC   C3A47957  17.573  14.524   7.076
 3536POPC   C4A47958  17.635  14.252   7.427
 3536POPC   C1B47959  17.045  14.344   6.280
 3536POPC   C2B47960  16.859  14.444   6.675
 3536POPC   C3B47961  17.055  14.536   7.093
 3536POPC   C4B47962  17.126  14.310   7.484
 3537POPC   NC347963  14.847  27.242   5.468
 3537POPC   PO447964  14.203  27.368   5.365
 3537POPC   GL147965  14.195  27.687   5.697
 3537POPC   GL247966  14.558  27.789   5.781
 3537POPC   C1A47967  14.195  27.731   6.144
 3537POPC   D2A47968  14.274  27.452   6.454
 3537POPC   C3A47969  14.177  27.569   6.859
 3537POPC   C4A47970  14.256  27.549   7.272
 3537POPC   C1B47971  14.696  27.559   6.140
 3537POPC   C2B47972  14.742  27.538   6.579
 3537POPC   C3B47973  14.692  27.571   6.981
 3537POPC   C4B47974  14.966  27.793   7.225
 3538POPC   NC347975  19.565   0.468   5.330
 3538POPC   PO447976  20.136   0.076   5.499
 3538POPC   GL147977  19.811   0.241   5.784
 3538POPC   GL247978  19.768   0.574   5.793
 3538POPC   C1A47979  19.825   0.279   6.250
 3538POPC   D2A47980  20.060   0.236   6.618
 3538POPC   C3A47981  19.797   0.329   6.962
 3538POPC   C4A47982  19.810   0.597   7.302
 3538POPC   C1B47983  19.546   0.696   6.134
 3538POPC   C2B47984  19.486   0.556   6.532
 3538POPC   C3B47985  19.449   0.723   6.898
 3538POPC   C4B47986  19.309   0.658   7.278
 3539POPC   NC347987  20.020   8.963   5.145
 3539POPC   PO447988  19.553   8.629   5.401
 3539POPC   GL147989  19.827   8.919   5.720
 3539POPC   GL247990  19.699   9.281   5.868
 3539POPC   C1A47991  20.059   9.059   6.121
 3539POPC   D2A47992  19.849   9.195   6.501
 3539POPC   C3A47993  19.946   9.085   6.908
 3539POPC   C4A47994  20.039   8.897   7.308
 3539POPC   C1B47995  19.566   8.928   6.167
 3539POPC   C2B47996  19.512   8.768   6.623
 3539POPC   C3B47997  19.518   8.857   7.083
 3539POPC   C4B47998  19.564   8.956   7.530
 3540POPC   NC347999   7.684  12.996   5.442
 3540POPC   PO448000   7.153  12.641   5.619
 3540POPC   GL148001   7.192  12.835   5.981
 3540POPC   GL248002   7.348  13.134   5.827
 3540POPC   C1A48003   7.418  12.652   6.345
 3540POPC   D2A48004   7.705  12.562   6.675
 3540POPC   C3A48005   7.548  12.692   7.035
 3540POPC   C4A48006   7.140  12.796   7.023
 3540POPC   C1B48007   7.517  13.151   6.231
 3540POPC   C2B48008   7.329  13.079   6.636
 3540POPC   C3B48009   7.430  13.227   7.045
 3540POPC   C4B48010   7.747  13.168   7.356
 3541POPC   NC348011  14.143  19.508   5.417
 3541POPC   PO448012  14.674  19.865   5.288
 3541POPC   GL148013  14.533  19.750   5.759
 3541POPC   GL248014  14.431  20.022   5.993
 3541POPC   C1A48015  14.284  19.541   6.119
 3541POPC   D2A48016  14.258  19.751   6.543
 3541POPC   C3A48017  14.212  19.502   6.907
 3541POPC   C4A48018  14.329  19.569   7.307
 3541POPC   C1B48019  14.268  20.288   6.345
 3541POPC   C2B48020  14.093  20.289   6.765
 3541POPC   C3B48021  14.110  20.014   7.142
 3541POPC   C4B48022  14.001  19.854   7.564
 3542POPC   NC348023  33.745  18.076   5.469
 3542POPC   PO448024  33.756  18.674   5.332
 3542POPC   GL148025  33.914  18.485   5.724
 3542POPC   GL248026  33.581  18.404   5.833
 3542POPC   C1A48027  34.009  18.354   6.146
 3542POPC   D2A48028  33.964  18.563   6.547
 3542POPC   C3A48029  33.897  18.334   6.928
 3542POPC   C4A48030  33.701  18.392   7.311
 3542POPC   C1B48031  33.475  18.087   6.135
 3542POPC   C2B48032  33.234  17.992   6.507
 3542POPC   C3B48033  33.374  18.127   6.891
 3542POPC   C4B48034  33.638  17.937   7.127
 3543POPC   NC348035   8.151  16.863   5.308
 3543POPC   PO448036   8.627  16.423   5.414
 3543POPC   GL148037   8.293  16.622   5.723
 3543POPC   GL248038   8.076  16.392   5.905
 3543POPC   C1A48039   8.138  16.813   6.142
 3543POPC   D2A48040   8.328  16.904   6.519
 3543POPC   C3A48041   8.312  16.963   6.952
 3543POPC   C4A48042   8.585  16.832   7.261
 3543POPC   C1B48043   8.461  16.410   6.144
 3543POPC   C2B48044   8.459  16.287   6.540
 3543POPC   C3B48045   8.337  16.474   6.869
 3543POPC   C4B48046   8.191  16.448   7.239
 3544POPC   NC348047  42.454  42.478   5.415
 3544POPC   PO448048  42.173  41.805   5.471
 3544POPC   GL148049  42.418  42.120   5.768
 3544POPC   GL248050  42.226  42.434   5.860
 3544POPC   C1A48051  42.614  42.216   6.189
 3544POPC   D2A48052  42.773  42.087   6.582
 3544POPC   C3A48053  42.591  42.409   6.830
 3544POPC   C4A48054  42.547  42.263   7.217
 3544POPC   C1B48055  42.108  42.178   6.188
 3544POPC   C2B48056  42.243  42.128   6.586
 3544POPC   C3B48057  42.116  42.090   6.994
 3544POPC   C4B48058  42.046  42.421   7.309
 3545POPC   NC348059  13.426   5.373   5.471
 3545POPC   PO448060  13.884   4.945   5.242
 3545POPC   GL148061  13.667   4.919   5.653
 3545POPC   GL248062  13.291   4.881   5.684
 3545POPC   C1A48063  13.842   5.120   6.052
 3545POPC   D2A48064  13.910   5.373   6.438
 3545POPC   C3A48065  13.843   5.177   6.857
 3545POPC   C4A48066  13.697   5.005   7.253
 3545POPC   C1B48067  13.330   5.127   6.114
 3545POPC   C2B48068  13.417   5.264   6.575
 3545POPC   C3B48069  13.398   5.385   7.043
 3545POPC   C4B48070  13.406   5.378   7.511
 3546POPC   NC348071  24.879  27.848   5.701
 3546POPC   PO448072  24.290  27.713   5.423
 3546POPC   GL148073  24.186  27.664   5.885
 3546POPC   GL248074  24.514  27.613   5.992
 3546POPC   C1A48075  24.161  27.639   6.357
 3546POPC   D2A48076  24.501  27.551   6.619
 3546POPC   C3A48077  24.455  27.422   7.019
 3546POPC   C4A48078  24.439  27.528   7.432
 3546POPC   C1B48079  24.640  27.939   6.286
 3546POPC   C2B48080  24.852  27.912   6.663
 3546POPC   C3B48081  24.794  27.779   7.064
 3546POPC   C4B48082  24.673  27.975   7.402
 3547POPC   NC348083  31.875   2.673   5.670
 3547POPC   PO448084  31.400   3.001   5.271
 3547POPC   GL148085  31.463   3.017   5.711
 3547POPC   GL248086  31.251   2.744   5.876
 3547POPC   C1A48087  31.526   3.035   6.169
 3547POPC   D2A48088  31.783   2.827   6.442
 3547POPC   C3A48089  31.697   2.850   6.902
 3547POPC   C4A48090  31.393   2.894   7.266
 3547POPC   C1B48091  31.428   2.489   6.234
 3547POPC   C2B48092  31.662   2.380   6.626
 3547POPC   C3B48093  31.511   2.400   7.031
 3547POPC   C4B48094  31.648   2.510   7.460
 3548POPC   NC348095  12.261  37.598   5.476
 3548POPC   PO448096  12.976  37.707   5.413
 3548POPC   GL148097  13.051  37.535   5.803
 3548POPC   GL248098  12.769  37.749   5.936
 3548POPC   C1A48099  12.989  37.369   6.206
 3548POPC   D2A48100  13.076  37.585   6.587
 3548POPC   C3A48101  13.068  37.371   6.981
 3548POPC   C4A48102  13.104  37.416   7.426
 3548POPC   C1B48103  12.585  37.735   6.366
 3548POPC   C2B48104  12.634  37.742   6.806
 3548POPC   C3B48105  12.668  37.676   7.271
 3548POPC   C4B48106  12.636  37.744   7.736
 3549POPC   NC348107  31.022  12.192   5.169
 3549POPC   PO448108  31.497  11.880   5.579
 3549POPC   GL148109  31.601  12.100   5.946
 3549POPC   GL248110  31.659  12.458   5.892
 3549POPC   C1A48111  31.669  12.061   6.404
 3549POPC   D2A48112  31.478  11.763   6.710
 3549POPC   C3A48113  31.415  11.899   7.128
 3549POPC   C4A48114  31.357  11.774   7.567
 3549POPC   C1B48115  31.324  12.441   6.225
 3549POPC   C2B48116  31.295  12.305   6.669
 3549POPC   C3B48117  31.236  12.471   7.056
 3549POPC   C4B48118  31.281  12.290   7.413
 3550POPC   NC348119   5.605  31.993   5.475
 3550POPC   PO448120   5.052  32.335   5.462
 3550POPC   GL148121   5.112  32.430   5.849
 3550POPC   GL248122   4.771  32.514   5.864
 3550POPC   C1A48123   5.178  32.266   6.241
 3550POPC   D2A48124   5.018  32.036   6.570
 3550POPC   C3A48125   5.161  32.238   6.905
 3550POPC   C4A48126   5.142  32.152   7.291
 3550POPC   C1B48127   4.856  32.673   6.238
 3550POPC   C2B48128   4.821  32.522   6.620
 3550POPC   C3B48129   4.947  32.725   6.988
 3550POPC   C4B48130   4.782  32.520   7.327
 3551POPC   NC348131  23.129  13.751   5.414
 3551POPC   PO448132  22.507  13.428   5.421
 3551POPC   GL148133  22.640  13.699   5.780
 3551POPC   GL248134  22.997  13.682   5.910
 3551POPC   C1A48135  22.631  13.731   6.242
 3551POPC   D2A48136  22.795  13.792   6.644
 3551POPC   C3A48137  22.804  13.505   6.995
 3551POPC   C4A48138  22.785  13.450   7.431
 3551POPC   C1B48139  23.225  13.687   6.341
 3551POPC   C2B48140  23.265  13.637   6.802
 3551POPC   C3B48141  23.240  13.260   7.110
 3551POPC   C4B48142  22.961  12.981   7.380
 3552POPC   NC348143  42.388  34.163   5.074
 3552POPC   PO448144  42.076  33.627   5.318
 3552POPC   GL148145  42.157  33.505   5.782
 3552POPC   GL248146  42.161  33.832   5.927
 3552POPC   C1A48147  42.314  33.496   6.276
 3552POPC   D2A48148  42.231  33.730   6.717
 3552POPC   C3A48149  42.418  33.712   7.170
 3552POPC   C4A48150  42.691  33.545   7.539
 3552POPC   C1B48151  41.894  33.795   6.303
 3552POPC   C2B48152  41.713  33.721   6.679
 3552POPC   C3B48153  41.869  34.005   6.994
 3552POPC   C4B48154  41.978  33.905   7.405
 3553POPC   NC348155   6.743   2.399   5.578
 3553POPC   PO448156   6.395   1.790   5.480
 3553POPC   GL148157   6.501   2.020   5.856
 3553POPC   GL248158   6.864   2.011   5.914
 3553POPC   C1A48159   6.553   2.174   6.287
 3553POPC   D2A48160   6.368   2.024   6.656
 3553POPC   C3A48161   6.675   2.001   6.950
 3553POPC   C4A48162   6.712   2.377   7.119
 3553POPC   C1B48163   7.070   2.041   6.316
 3553POPC   C2B48164   7.131   1.818   6.730
 3553POPC   C3B48165   6.957   1.612   7.100
 3553POPC   C4B48166   6.827   1.535   7.527
 3554POPC   NC348167   4.568  17.937   5.453
 3554POPC   PO448168   4.402  18.598   5.522
 3554POPC   GL148169   4.454  18.283   5.819
 3554POPC   GL248170   4.099  18.201   5.869
 3554POPC   C1A48171   4.430  18.248   6.256
 3554POPC   D2A48172   4.228  18.408   6.591
 3554POPC   C3A48173   4.183  18.160   6.942
 3554POPC   C4A48174   4.479  18.058   7.274
 3554POPC   C1B48175   4.060  18.606   6.147
 3554POPC   C2B48176   3.891  18.779   6.592
 3554POPC   C3B48177   4.089  18.688   7.007
 3554POPC   C4B48178   4.086  18.397   7.382
 3555POPC   NC348179  10.322  18.092   5.290
 3555POPC   PO448180  10.782  18.591   5.378
 3555POPC   GL148181  10.507  18.342   5.715
 3555POPC   GL248182  10.230  18.063   5.770
 3555POPC   C1A48183  10.567  18.136   6.137
 3555POPC   D2A48184  10.723  18.163   6.569
 3555POPC   C3A48185  10.514  18.475   6.843
 3555POPC   C4A48186  10.383  18.361   7.274
 3555POPC   C1B48187  10.011  18.018   6.130
 3555POPC   C2B48188  10.196  18.121   6.515
 3555POPC   C3B48189  10.252  18.020   6.915
 3555POPC   C4B48190  10.036  17.998   7.289
 3556POPC   NC348191  11.859  29.794   5.628
 3556POPC   PO448192  11.219  29.820   5.330
 3556POPC   GL148193  11.106  29.995   5.744
 3556POPC   GL248194  11.382  30.218   5.798
 3556POPC   C1A48195  10.994  30.151   6.174
 3556POPC   D2A48196  11.017  30.427   6.552
 3556POPC   C3A48197  11.050  30.236   6.994
 3556POPC   C4A48198  11.298  29.995   7.284
 3556POPC   C1B48199  11.469  29.923   6.132
 3556POPC   C2B48200  11.546  29.883   6.559
 3556POPC   C3B48201  11.650  29.751   6.982
 3556POPC   C4B48202  11.536  29.527   7.341
 3557POPC   NC348203  31.421  43.754   5.362
 3557POPC   PO448204  31.096  44.366   5.391
 3557POPC   GL148205  31.155  44.045   5.726
 3557POPC   GL248206  31.464  43.906   5.825
 3557POPC   C1A48207  31.064  43.817   6.121
 3557POPC   D2A48208  31.298  43.784   6.513
 3557POPC   C3A48209  31.150  43.836   6.929
 3557POPC   C4A48210  31.381  43.698   7.299
 3557POPC   C1B48211  31.489  44.132   6.174
 3557POPC   C2B48212  31.596  44.228   6.586
 3557POPC   C3B48213  31.637  44.022   6.970
 3557POPC   C4B48214  31.361  44.208   7.279
 3558POPC   NC348215  37.552  25.417   5.499
 3558POPC   PO448216  38.212  25.099   5.430
 3558POPC   GL148217  37.930  25.271   5.816
 3558POPC   GL248218  37.553  25.128   5.929
 3558POPC   C1A48219  37.786  25.398   6.267
 3558POPC   D2A48220  37.650  25.728   6.553
 3558POPC   C3A48221  37.459  25.539   6.876
 3558POPC   C4A48222  37.483  25.250   7.202
 3558POPC   C1B48223  37.531  24.865   6.311
 3558POPC   C2B48224  37.537  24.925   6.795
 3558POPC   C3B48225  37.435  24.746   7.233
 3558POPC   C4B48226  37.546  24.972   7.639
 3559POPC   NC348227  21.070  30.890   5.581
 3559POPC   PO448228  21.725  30.930   5.430
 3559POPC   GL148229  21.526  30.723   5.817
 3559POPC   GL248230  21.397  30.979   5.959
 3559POPC   C1A48231  21.422  30.519   6.235
 3559POPC   D2A48232  21.525  30.312   6.639
 3559POPC   C3A48233  21.310  30.455   6.977
 3559POPC   C4A48234  21.345  30.676   7.342
 3559POPC   C1B48235  21.322  31.016   6.388
 3559POPC   C2B48236  21.337  30.965   6.831
 3559POPC   C3B48237  21.217  31.129   7.181
 3559POPC   C4B48238  20.981  31.132   7.502
 3560POPC   NC348239  14.027  12.695   5.453
 3560POPC   PO448240  14.731  12.964   5.379
 3560POPC   GL148241  14.504  12.860   5.802
 3560POPC   GL248242  14.202  13.061   5.831
 3560POPC   C1A48243  14.314  12.759   6.261
 3560POPC   D2A48244  14.190  12.786   6.736
 3560POPC   C3A48245  14.526  12.642   7.071
 3560POPC   C4A48246  14.998  12.572   7.186
 3560POPC   C1B48247  14.229  13.259   6.237
 3560POPC   C2B48248  14.472  13.196   6.618
 3560POPC   C3B48249  14.456  13.148   7.073
 3560POPC   C4B48250  14.646  13.201   7.509
 3561POPC   NC348251  14.724  12.480   5.479
 3561POPC   PO448252  14.098  12.192   5.428
 3561POPC   GL148253  14.195  12.040   5.853
 3561POPC   GL248254  14.244  12.394   5.906
 3561POPC   C1A48255  14.373  11.799   6.217
 3561POPC   D2A48256  14.301  11.789   6.666
 3561POPC   C3A48257  14.646  11.882   6.977
 3561POPC   C4A48258  14.788  12.141   7.358
 3561POPC   C1B48259  14.163  12.244   6.343
 3561POPC   C2B48260  14.224  12.275   6.795
 3561POPC   C3B48261  14.312  12.193   7.221
 3561POPC   C4B48262  14.296  12.387   7.593
 3562POPC   NC348263  29.002  32.106   5.465
 3562POPC   PO448264  28.324  32.130   5.478
 3562POPC   GL148265  28.363  32.275   5.870
 3562POPC   GL248266  28.698  32.375   5.817
 3562POPC   C1A48267  28.128  32.163   6.241
 3562POPC   D2A48268  28.152  31.935   6.624
 3562POPC   C3A48269  28.164  32.253   6.931
 3562POPC   C4A48270  28.159  32.400   7.340
 3562POPC   C1B48271  28.674  32.477   6.237
 3562POPC   C2B48272  28.579  32.303   6.638
 3562POPC   C3B48273  28.636  32.427   7.068
 3562POPC   C4B48274  28.576  32.675   7.438
 3563POPC   NC348275  11.309  32.868   5.546
 3563POPC   PO448276  11.438  33.518   5.412
 3563POPC   GL148277  11.408  33.324   5.800
 3563POPC   GL248278  11.076  33.283   5.868
 3563POPC   C1A48279  11.565  33.211   6.207
 3563POPC   D2A48280  11.776  33.219   6.600
 3563POPC   C3A48281  11.464  33.051   6.880
 3563POPC   C4A48282  11.094  32.851   7.095
 3563POPC   C1B48283  11.136  33.500   6.251
 3563POPC   C2B48284  11.112  33.380   6.705
 3563POPC   C3B48285  11.187  33.354   7.184
 3563POPC   C4B48286  11.056  33.156   7.600
 3564POPC   NC348287  33.057  19.902   5.143
 3564POPC   PO448288  33.544  20.171   5.322
 3564POPC   GL148289  33.296  19.973   5.689
 3564POPC   GL248290  32.992  19.766   5.717
 3564POPC   C1A48291  33.362  19.812   6.120
 3564POPC   D2A48292  33.156  19.706   6.529
 3564POPC   C3A48293  33.282  19.685   6.968
 3564POPC   C4A48294  33.113  19.874   7.363
 3564POPC   C1B48295  32.900  19.532   6.104
 3564POPC   C2B48296  32.692  19.419   6.500
 3564POPC   C3B48297  32.808  19.468   6.937
 3564POPC   C4B48298  33.003  19.388   7.301
 3565POPC   NC348299  21.940   7.381   5.433
 3565POPC   PO448300  22.382   7.977   5.448
 3565POPC   GL148301  22.400   7.514   5.722
 3565POPC   GL248302  22.101   7.277   5.886
 3565POPC   C1A48303  22.485   7.369   6.179
 3565POPC   D2A48304  22.211   7.289   6.571
 3565POPC   C3A48305  22.403   7.378   6.982
 3565POPC   C4A48306  22.199   7.403   7.383
 3565POPC   C1B48307  21.947   7.607   6.153
 3565POPC   C2B48308  21.779   7.619   6.570
 3565POPC   C3B48309  21.894   7.500   6.980
 3565POPC   C4B48310  21.744   7.730   7.340
 3566POPC   NC348311  11.719  39.262   5.534
 3566POPC   PO448312  12.227  38.832   5.383
 3566POPC   GL148313  12.106  39.019   5.766
 3566POPC   GL248314  11.827  38.851   5.882
 3566POPC   C1A48315  12.026  39.322   6.109
 3566POPC   D2A48316  12.066  39.280   6.550
 3566POPC   C3A48317  11.945  39.423   6.946
 3566POPC   C4A48318  12.170  39.627   7.272
 3566POPC   C1B48319  11.895  38.866   6.336
 3566POPC   C2B48320  12.014  38.840   6.808
 3566POPC   C3B48321  11.836  38.769   7.213
 3566POPC   C4B48322  11.978  38.828   7.647
 3567POPC   NC348323  10.500   8.312   5.249
 3567POPC   PO448324  10.026   7.845   5.462
 3567POPC   GL148325  10.355   8.074   5.747
 3567POPC   GL248326  10.697   8.233   5.708
 3567POPC   C1A48327  10.395   8.378   6.106
 3567POPC   D2A48328  10.547   8.447   6.550
 3567POPC   C3A48329  10.228   8.526   6.898
 3567POPC   C4A48330  10.068   8.518   7.355
 3567POPC   C1B48331  10.885   8.233   6.124
 3567POPC   C2B48332  10.894   8.038   6.542
 3567POPC   C3B48333  10.769   8.184   6.964
 3567POPC   C4B48334  10.983   8.328   7.335
 3568POPC   NC348335  14.768   5.870   5.483
 3568POPC   PO448336  14.452   6.303   5.128
 3568POPC   GL148337  14.339   6.241   5.667
 3568POPC   GL248338  14.530   6.003   5.893
 3568POPC   C1A48339  14.149   6.236   6.108
 3568POPC   D2A48340  13.934   5.987   6.453
 3568POPC   C3A48341  14.137   5.987   6.855
 3568POPC   C4A48342  14.349   5.739   7.170
 3568POPC   C1B48343  14.672   6.233   6.261
 3568POPC   C2B48344  14.505   6.365   6.650
 3568POPC   C3B48345  14.675   6.029   6.848
 3568POPC   C4B48346  14.796   5.975   7.236
 3569POPC   NC348347  10.661  13.613   5.218
 3569POPC   PO448348  10.204  13.235   5.659
 3569POPC   GL148349  10.633  13.469   5.752
 3569POPC   GL248350  10.715  13.843   5.672
 3569POPC   C1A48351  10.742  13.358   6.197
 3569POPC   D2A48352  10.433  13.250   6.563
 3569POPC   C3A48353  10.217  13.617   6.750
 3569POPC   C4A48354  10.315  13.877   7.083
 3569POPC   C1B48355  10.748  13.880   6.125
 3569POPC   C2B48356  10.547  13.945   6.541
 3569POPC   C3B48357  10.748  14.101   6.926
 3569POPC   C4B48358  10.801  13.830   7.301
 3570POPC   NC348359   9.266  21.606   5.406
 3570POPC   PO448360   8.610  21.173   5.485
 3570POPC   GL148361   8.955  21.281   5.733
 3570POPC   GL248362   9.158  21.001   5.897
 3570POPC   C1A48363   8.896  21.366   6.175
 3570POPC   D2A48364   9.076  21.280   6.591
 3570POPC   C3A48365   8.798  21.511   6.865
 3570POPC   C4A48366   8.673  21.500   7.276
 3570POPC   C1B48367   9.385  21.395   6.032
 3570POPC   C2B48368   9.542  21.489   6.448
 3570POPC   C3B48369   9.365  21.695   6.822
 3570POPC   C4B48370   9.181  21.553   7.205
 3571POPC   NC348371  40.611  10.035   5.382
 3571POPC   PO448372  40.570   9.430   5.181
 3571POPC   GL148373  40.822   9.503   5.613
 3571POPC   GL248374  40.640   9.741   5.830
 3571POPC   C1A48375  41.009   9.479   6.083
 3571POPC   D2A48376  41.053   9.242   6.528
 3571POPC   C3A48377  40.982   9.500   6.915
 3571POPC   C4A48378  40.578   9.450   7.135
 3571POPC   C1B48379  40.810   9.962   6.200
 3571POPC   C2B48380  40.949   9.942   6.615
 3571POPC   C3B48381  40.756   9.959   7.028
 3571POPC   C4B48382  40.715  10.284   7.358
 3572POPC   NC348383  15.878   4.561   5.604
 3572POPC   PO448384  16.036   5.204   5.408
 3572POPC   GL148385  15.937   5.048   5.804
 3572POPC   GL248386  15.610   5.211   5.898
 3572POPC   C1A48387  16.197   4.943   6.165
 3572POPC   D2A48388  16.360   5.190   6.505
 3572POPC   C3A48389  16.413   4.967   6.912
 3572POPC   C4A48390  16.185   4.873   7.323
 3572POPC   C1B48391  15.699   4.938   6.257
 3572POPC   C2B48392  15.920   4.944   6.653
 3572POPC   C3B48393  15.756   5.046   7.054
 3572POPC   C4B48394  15.665   4.779   7.421
 3573POPC   NC348395   8.241   3.281   5.598
 3573POPC   PO448396   7.776   3.624   5.295
 3573POPC   GL148397   8.039   3.751   5.695
 3573POPC   GL248398   8.428   3.776   5.843
 3573POPC   C1A48399   8.074   3.615   6.155
 3573POPC   D2A48400   8.097   3.844   6.527
 3573POPC   C3A48401   7.991   3.704   6.945
 3573POPC   C4A48402   8.235   3.468   7.224
 3573POPC   C1B48403   8.587   3.411   6.129
 3573POPC   C2B48404   8.399   3.381   6.536
 3573POPC   C3B48405   8.505   3.712   6.835
 3573POPC   C4B48406   8.723   3.686   7.211
 3574POPC   NC348407  30.163   7.337   5.532
 3574POPC   PO448408  29.660   7.901   5.451
 3574POPC   GL148409  29.827   7.636   5.804
 3574POPC   GL248410  29.752   7.275   5.841
 3574POPC   C1A48411  29.839   7.717   6.252
 3574POPC   D2A48412  29.614   7.792   6.640
 3574POPC   C3A48413  29.880   7.715   6.992
 3574POPC   C4A48414  30.287   7.797   7.170
 3574POPC   C1B48415  30.078   7.270   6.202
 3574POPC   C2B48416  30.124   7.200   6.661
 3574POPC   C3B48417  30.089   7.253   7.120
 3574POPC   C4B48418  29.810   7.083   7.419
 3575POPC   NC348419  39.604  19.389   5.461
 3575POPC   PO448420  40.070  18.929   5.431
 3575POPC   GL148421  39.918  19.045   5.814
 3575POPC   GL248422  40.244  19.042   5.955
 3575POPC   C1A48423  39.833  19.223   6.227
 3575POPC   D2A48424  39.725  19.048   6.640
 3575POPC   C3A48425  39.871  19.109   7.079
 3575POPC   C4A48426  39.992  18.745   7.348
 3575POPC   C1B48427  40.193  18.885   6.371
 3575POPC   C2B48428  40.264  18.914   6.802
 3575POPC   C3B48429  40.462  18.887   7.205
 3575POPC   C4B48430  40.426  18.860   7.670
 3576POPC   NC348431  30.775  34.998   5.419
 3576POPC   PO448432  30.948  35.658   5.434
 3576POPC   GL148433  30.798  35.460   5.846
 3576POPC   GL248434  30.608  35.135   5.893
 3576POPC   C1A48435  30.599  35.512   6.288
 3576POPC   D2A48436  30.493  35.536   6.739
 3576POPC   C3A48437  30.768  35.476   7.101
 3576POPC   C4A48438  30.717  35.492   7.541
 3576POPC   C1B48439  30.948  35.148   6.219
 3576POPC   C2B48440  30.904  35.234   6.657
 3576POPC   C3B48441  30.649  35.007   6.977
 3576POPC   C4B48442  30.443  35.109   7.370
 3577POPC   NC348443  14.093  34.413   5.290
 3577POPC   PO448444  13.622  34.897   5.293
 3577POPC   GL148445  13.767  34.713   5.647
 3577POPC   GL248446  14.092  34.796   5.661
 3577POPC   C1A48447  13.697  34.753   6.106
 3577POPC   D2A48448  13.456  34.668   6.495
 3577POPC   C3A48449  13.538  34.774   6.931
 3577POPC   C4A48450  13.355  34.428   7.185
 3577POPC   C1B48451  14.050  34.407   5.951
 3577POPC   C2B48452  13.959  34.386   6.393
 3577POPC   C3B48453  13.818  34.347   6.822
 3577POPC   C4B48454  13.854  34.476   7.251
 3578POPC   NC348455   6.073  43.370   5.070
 3578POPC   PO448456   5.830  43.868   5.380
 3578POPC   GL148457   5.703  43.736   5.788
 3578POPC   GL248458   5.868  43.449   5.931
 3578POPC   C1A48459   5.782  43.839   6.234
 3578POPC   D2A48460   5.843  43.580   6.627
 3578POPC   C3A48461   5.647  43.713   7.040
 3578POPC   C4A48462   5.791  44.092   7.297
 3578POPC   C1B48463   6.215  43.542   6.227
 3578POPC   C2B48464   6.394  43.558   6.650
 3578POPC   C3B48465   6.168  43.813   6.973
 3578POPC   C4B48466   6.058  43.650   7.373
 3579POPC   NC348467   2.711  36.380   5.210
 3579POPC   PO448468   2.821  35.750   5.472
 3579POPC   GL148469   2.786  35.957   5.879
 3579POPC   GL248470   2.797  36.289   5.746
 3579POPC   C1A48471   2.717  35.893   6.364
 3579POPC   D2A48472   2.582  36.010   6.806
 3579POPC   C3A48473   2.668  35.858   7.225
 3579POPC   C4A48474   2.764  35.880   7.682
 3579POPC   C1B48475   2.669  36.377   6.168
 3579POPC   C2B48476   2.860  36.380   6.603
 3579POPC   C3B48477   2.688  36.468   7.018
 3579POPC   C4B48478   2.798  36.302   7.400
 3580POPC   NC348479   7.932  32.231   5.245
 3580POPC   PO448480   8.452  32.596   5.530
 3580POPC   GL148481   8.237  32.293   5.769
 3580POPC   GL248482   8.511  32.252   5.966
 3580POPC   C1A48483   8.042  32.313   6.183
 3580POPC   D2A48484   7.834  32.577   6.466
 3580POPC   C3A48485   7.965  32.461   6.873
 3580POPC   C4A48486   8.121  32.207   7.218
 3580POPC   C1B48487   8.450  31.997   6.310
 3580POPC   C2B48488   8.375  32.177   6.705
 3580POPC   C3B48489   8.508  32.472   7.029
 3580POPC   C4B48490   8.379  32.593   7.457
 3581POPC   NC348491  19.390  13.786   5.147
 3581POPC   PO448492  19.589  13.169   5.402
 3581POPC   GL148493  19.775  13.345   5.870
 3581POPC   GL248494  19.805  13.701   5.840
 3581POPC   C1A48495  19.809  13.593   6.321
 3581POPC   D2A48496  19.736  13.802   6.709
 3581POPC   C3A48497  19.778  13.463   6.998
 3581POPC   C4A48498  20.141  13.194   7.024
 3581POPC   C1B48499  20.193  13.833   6.065
 3581POPC   C2B48500  20.252  13.862   6.525
 3581POPC   C3B48501  20.177  13.810   6.983
 3581POPC   C4B48502  19.967  13.747   7.371
 3582POPC   NC348503  37.168   1.839   5.384
 3582POPC   PO448504  36.815   2.371   5.374
 3582POPC   GL148505  36.849   2.152   5.724
 3582POPC   GL248506  37.111   2.362   5.821
 3582POPC   C1A48507  36.806   2.121   6.187
 3582POPC   D2A48508  36.953   2.281   6.593
 3582POPC   C3A48509  36.956   1.966   6.930
 3582POPC   C4A48510  36.745   1.915   7.306
 3582POPC   C1B48511  37.282   2.509   6.213
 3582POPC   C2B48512  37.266   2.680   6.641
 3582POPC   C3B48513  37.275   2.374   7.002
 3582POPC   C4B48514  37.156   2.236   7.462
 3583POPC   NC348515  28.670   6.546   5.128
 3583POPC   PO448516  29.153   6.867   5.502
 3583POPC   GL148517  29.269   6.702   5.852
 3583POPC   GL248518  29.614   6.781   5.796
 3583POPC   C1A48519  29.083   6.777   6.223
 3583POPC   D2A48520  28.934   6.626   6.592
 3583POPC   C3A48521  29.149   6.814   6.916
 3583POPC   C4A48522  29.062   6.530   7.212
 3583POPC   C1B48523  29.613   6.479   6.125
 3583POPC   C2B48524  29.439   6.546   6.528
 3583POPC   C3B48525  29.534   6.456   6.951
 3583POPC   C4B48526  29.504   6.341   7.388
 3584POPC   NC348527  14.638  22.201   5.360
 3584POPC   PO448528  14.016  22.293   5.539
 3584POPC   GL148529  14.378  22.126   5.826
 3584POPC   GL248530  14.760  22.254   5.837
 3584POPC   C1A48531  14.351  22.047   6.283
 3584POPC   D2A48532  14.266  22.382   6.650
 3584POPC   C3A48533  14.166  22.148   7.030
 3584POPC   C4A48534  14.408  21.731   7.183
 3584POPC   C1B48535  14.621  22.468   6.186
 3584POPC   C2B48536  14.738  22.250   6.553
 3584POPC   C3B48537  14.649  22.059   6.896
 3584POPC   C4B48538  14.573  22.196   7.332
 3585POPC   NC348539  16.775  19.913   5.462
 3585POPC   PO448540  16.012  19.992   5.448
 3585POPC   GL148541  15.801  19.886   5.823
 3585POPC   GL248542  15.875  20.237   5.889
 3585POPC   C1A48543  15.573  20.010   6.210
 3585POPC   D2A48544  15.720  20.116   6.621
 3585POPC   C3A48545  15.686  19.908   7.049
 3585POPC   C4A48546  15.783  20.018   7.508
 3585POPC   C1B48547  16.091  20.001   6.237
 3585POPC   C2B48548  16.230  20.019   6.671
 3585POPC   C3B48549  16.175  20.146   7.103
 3585POPC   C4B48550  16.304  19.933   7.453
 3586POPC   NC348551  43.144   4.620   5.523
 3586POPC   PO448552  43.184   5.231   5.451
 3586POPC   GL148553  43.230   5.185   5.890
 3586POPC   GL248554  43.136   4.849   6.010
 3586POPC   C1A48555  43.022   5.253   6.299
 3586POPC   D2A48556  43.031   4.994   6.631
 3586POPC   C3A48557  42.788   5.226   6.929
 3586POPC   C4A48558  42.932   5.508   7.224
 3586POPC   C1B48559  43.481   4.994   6.292
 3586POPC   C2B48560  43.527   5.234   6.677
 3586POPC   C3B48561  43.289   5.130   7.062
 3586POPC   C4B48562  43.014   4.801   7.109
 3587POPC   NC348563  34.255  31.773   5.531
 3587POPC   PO448564  33.660  31.274   5.388
 3587POPC   GL148565  33.902  31.307   5.782
 3587POPC   GL248566  33.655  31.576   5.838
 3587POPC   C1A48567  33.877  31.402   6.263
 3587POPC   D2A48568  33.713  31.540   6.685
 3587POPC   C3A48569  34.015  31.477   7.028
 3587POPC   C4A48570  34.007  31.247   7.408
 3587POPC   C1B48571  33.453  31.186   6.014
 3587POPC   C2B48572  33.475  31.092   6.449
 3587POPC   C3B48573  33.432  31.140   6.891
 3587POPC   C4B48574  33.544  31.390   7.211
 3588POPC   NC348575  20.170   1.251   5.585
 3588POPC   PO448576  19.588   0.926   5.478
 3588POPC   GL148577  19.719   1.096   5.843
 3588POPC   GL248578  19.638   1.434   5.788
 3588POPC   C1A48579  20.013   0.937   6.156
 3588POPC   D2A48580  19.972   0.721   6.528
 3588POPC   C3A48581  19.929   0.932   6.915
 3588POPC   C4A48582  19.604   1.178   7.126
 3588POPC   C1B48583  19.857   1.424   6.222
 3588POPC   C2B48584  19.878   1.405   6.693
 3588POPC   C3B48585  20.067   1.385   7.126
 3588POPC   C4B48586  19.810   1.426   7.522
 3589POPC   NC348587  35.896  11.430   5.369
 3589POPC   PO448588  36.433  10.985   5.276
 3589POPC   GL148589  36.191  11.148   5.680
 3589POPC   GL248590  36.255  10.898   5.879
 3589POPC   C1A48591  36.281  11.299   6.172
 3589POPC   D2A48592  36.239  11.535   6.547
 3589POPC   C3A48593  36.323  11.393   6.925
 3589POPC   C4A48594  36.123  11.380   7.303
 3589POPC   C1B48595  36.484  10.851   6.295
 3589POPC   C2B48596  36.430  10.942   6.710
 3589POPC   C3B48597  36.125  10.902   7.011
 3589POPC   C4B48598  36.277  10.881   7.414
 3590POPC   NC348599  12.497  42.536   5.451
 3590POPC   PO448600  12.055  42.114   5.123
 3590POPC   GL148601  12.070  42.309   5.637
 3590POPC   GL248602  11.758  42.367   5.818
 3590POPC   C1A48603  12.105  42.403   6.152
 3590POPC   D2A48604  11.819  42.535   6.554
 3590POPC   C3A48605  12.055  42.505   6.975
 3590POPC   C4A48606  12.419  42.434   7.301
 3590POPC   C1B48607  11.656  42.143   6.194
 3590POPC   C2B48608  11.739  42.028   6.592
 3590POPC   C3B48609  11.676  42.137   6.996
 3590POPC   C4B48610  12.023  42.093   7.266
 3591POPC   NC348611  11.845  38.502   5.427
 3591POPC   PO448612  12.346  38.041   5.563
 3591POPC   GL148613  12.023  38.192   5.792
 3591POPC   GL248614  12.188  38.490   5.798
 3591POPC   C1A48615  11.796  38.370   6.136
 3591POPC   D2A48616  12.028  38.415   6.519
 3591POPC   C3A48617  11.891  38.300   6.896
 3591POPC   C4A48618  11.813  38.133   7.268
 3591POPC   C1B48619  12.301  38.638   6.144
 3591POPC   C2B48620  12.464  38.738   6.533
 3591POPC   C3B48621  12.555  38.658   6.950
 3591POPC   C4B48622  12.254  38.463   7.212
 3592POPC   NC348623  30.479  35.693   5.507
 3592POPC   PO448624  30.641  36.395   5.380
 3592POPC   GL148625  30.679  36.124   5.718
 3592POPC   GL248626  30.326  36.136   5.832
 3592POPC   C1A48627  30.793  35.970   6.126
 3592POPC   D2A48628  30.594  36.000   6.525
 3592POPC   C3A48629  30.731  35.954   6.941
 3592POPC   C4A48630  30.913  36.221   7.211
 3592POPC   C1B48631  30.446  36.387   6.204
 3592POPC   C2B48632  30.321  36.428   6.636
 3592POPC   C3B48633  30.468  36.404   7.046
 3592POPC   C4B48634  30.274  36.428   7.435
 3593POPC   NC348635  16.694   3.991   5.701
 3593POPC   PO448636  16.783   3.391   5.445
 3593POPC   GL148637  16.825   3.508   5.856
 3593POPC   GL248638  16.733   3.157   5.925
 3593POPC   C1A48639  16.780   3.699   6.277
 3593POPC   D2A48640  16.914   3.499   6.633
 3593POPC   C3A48641  16.751   3.673   6.984
 3593POPC   C4A48642  16.762   3.491   7.333
 3593POPC   C1B48643  16.396   3.374   6.168
 3593POPC   C2B48644  16.391   3.478   6.616
 3593POPC   C3B48645  16.491   3.234   6.962
 3593POPC   C4B48646  16.306   3.267   7.339
 3594POPC   NC348647  34.411   8.372   5.170
 3594POPC   PO448648  34.903   8.088   5.475
 3594POPC   GL148649  34.578   8.263   5.740
 3594POPC   GL248650  34.837   8.179   5.973
 3594POPC   C1A48651  34.476   8.506   6.143
 3594POPC   D2A48652  34.341   8.409   6.566
 3594POPC   C3A48653  34.405   8.643   6.955
 3594POPC   C4A48654  34.364   8.328   7.261
 3594POPC   C1B48655  34.580   8.040   6.280
 3594POPC   C2B48656  34.848   8.319   6.565
 3594POPC   C3B48657  34.833   8.346   7.003
 3594POPC   C4B48658  34.792   7.961   7.227
 3595POPC   NC348659  39.479  37.222   5.537
 3595POPC   PO448660  38.968  36.656   5.384
 3595POPC   GL148661  39.068  36.640   5.799
 3595POPC   GL248662  39.356  36.768   5.843
 3595POPC   C1A48663  38.919  36.774   6.212
 3595POPC   D2A48664  38.953  36.826   6.662
 3595POPC   C3A48665  39.279  37.107   6.823
 3595POPC   C4A48666  39.614  37.163   7.122
 3595POPC   C1B48667  39.380  36.538   6.221
 3595POPC   C2B48668  39.434  36.639   6.649
 3595POPC   C3B48669  39.239  36.620   7.043
 3595POPC   C4B48670  38.974  36.936   7.221
 3596POPC   NC348671   9.250  34.447   5.347
 3596POPC   PO448672   9.875  34.372   5.406
 3596POPC   GL148673   9.837  34.388   5.834
 3596POPC   GL248674   9.518  34.277   5.930
 3596POPC   C1A48675   9.785  34.669   6.180
 3596POPC   D2A48676   9.683  34.673   6.619
 3596POPC   C3A48677   9.800  34.948   6.974
 3596POPC   C4A48678   9.660  34.866   7.451
 3596POPC   C1B48679   9.828  34.140   6.294
 3596POPC   C2B48680   9.934  34.231   6.750
 3596POPC   C3B48681   9.699  34.436   7.126
 3596POPC   C4B48682   9.827  34.404   7.591
 3597POPC   NC348683  21.108   5.905   5.633
 3597POPC   PO448684  21.438   5.476   5.194
 3597POPC   GL148685  21.550   5.658   5.764
 3597POPC   GL248686  21.230   5.654   6.042
 3597POPC   C1A48687  21.663   5.502   6.229
 3597POPC   D2A48688  21.592   5.526   6.700
 3597POPC   C3A48689  21.568   5.923   6.956
 3597POPC   C4A48690  21.691   6.303   7.208
 3597POPC   C1B48691  21.005   5.859   6.393
 3597POPC   C2B48692  20.778   5.693   6.760
 3597POPC   C3B48693  20.859   5.849   7.169
 3597POPC   C4B48694  21.163   6.175   7.248
 3598POPC   NC348695  12.966  41.542   5.470
 3598POPC   PO448696  12.539  42.097   5.606
 3598POPC   GL148697  12.695  41.749   5.867
 3598POPC   GL248698  13.080  41.714   5.942
 3598POPC   C1A48699  12.758  41.624   6.314
 3598POPC   D2A48700  12.746  41.430   6.705
 3598POPC   C3A48701  12.862  41.604   7.119
 3598POPC   C4A48702  12.627  41.524   7.507
 3598POPC   C1B48703  13.269  41.692   6.391
 3598POPC   C2B48704  13.252  41.433   6.787
 3598POPC   C3B48705  13.197  41.209   7.163
 3598POPC   C4B48706  13.110  41.406   7.545
 3599POPC   NC348707  32.971   7.853   5.437
 3599POPC   PO448708  33.182   8.537   5.449
 3599POPC   GL148709  33.169   8.484   5.846
 3599POPC   GL248710  32.842   8.413   5.888
 3599POPC   C1A48711  33.445   8.394   6.172
 3599POPC   D2A48712  33.326   8.138   6.516
 3599POPC   C3A48713  33.399   8.365   6.890
 3599POPC   C4A48714  33.182   8.209   7.262
 3599POPC   C1B48715  32.947   8.463   6.324
 3599POPC   C2B48716  32.895   8.386   6.767
 3599POPC   C3B48717  32.687   8.150   7.077
 3599POPC   C4B48718  32.736   8.118   7.505
 3600POPC   NC348719   8.940  20.843   5.440
 3600POPC   PO448720   9.230  20.307   5.493
 3600POPC   GL148721   8.947  20.446   5.838
 3600POPC   GL248722   8.698  20.746   5.882
 3600POPC   C1A48723   9.073  20.397   6.265
 3600POPC   D2A48724   8.989  20.264   6.685
 3600POPC   C3A48725   9.068  20.478   7.081
 3600POPC   C4A48726   9.166  20.563   7.501
 3600POPC   C1B48727   8.852  20.867   6.300
 3600POPC   C2B48728   8.878  20.814   6.753
 3600POPC   C3B48729   8.958  21.018   7.174
 3600POPC   C4B48730   8.786  20.903   7.637
 3601POPC   NC348731   0.222   5.654   5.096
 3601POPC   PO448732   0.565   5.125   5.353
 3601POPC   GL148733   0.464   5.160   5.762
 3601POPC   GL248734   0.762   5.339   5.848
 3601POPC   C1A48735   0.248   5.120   6.139
 3601POPC   D2A48736   0.399   4.961   6.500
 3601POPC   C3A48737   0.514   5.119   6.916
 3601POPC   C4A48738   0.234   4.973   7.256
 3601POPC   C1B48739   0.659   5.369   6.296
 3601POPC   C2B48740   0.298   5.480   6.610
 3601POPC   C3B48741   0.221   5.492   7.093
 3601POPC   C4B48742   0.476   5.375   7.492
 3602POPC   NC348743   3.834  38.816   5.672
 3602POPC   PO448744   4.299  39.160   5.314
 3602POPC   GL148745   4.291  39.062   5.743
 3602POPC   GL248746   4.605  38.958   5.827
 3602POPC   C1A48747   4.212  39.230   6.162
 3602POPC   D2A48748   4.382  39.300   6.571
 3602POPC   C3A48749   4.211  39.608   6.869
 3602POPC   C4A48750   4.212  39.452   7.279
 3602POPC   C1B48751   4.440  38.778   6.204
 3602POPC   C2B48752   4.198  38.790   6.582
 3602POPC   C3B48753   4.329  38.927   6.986
 3602POPC   C4B48754   4.115  38.939   7.362
 3603POPC   NC348755  41.888  19.465   5.390
 3603POPC   PO448756  42.300  19.001   5.023
 3603POPC   GL148757  42.251  19.025   5.558
 3603POPC   GL248758  42.053  19.261   5.810
 3603POPC   C1A48759  42.386  18.959   6.038
 3603POPC   D2A48760  42.491  19.147   6.455
 3603POPC   C3A48761  42.628  18.902   6.821
 3603POPC   C4A48762  42.735  19.114   7.203
 3603POPC   C1B48763  41.924  19.089   6.217
 3603POPC   C2B48764  42.023  19.078   6.664
 3603POPC   C3B48765  42.302  19.280   6.952
 3603POPC   C4B48766  42.157  19.529   7.265
 3604POPC   NC348767  36.050  27.042   5.354
 3604POPC   PO448768  36.237  26.459   5.357
 3604POPC   GL148769  36.282  26.720   5.724
 3604POPC   GL248770  36.276  27.107   5.786
 3604POPC   C1A48771  36.362  26.569   6.132
 3604POPC   D2A48772  36.388  26.730   6.544
 3604POPC   C3A48773  36.458  26.537   6.936
 3604POPC   C4A48774  36.289  26.689   7.321
 3604POPC   C1B48775  36.021  26.956   6.116
 3604POPC   C2B48776  35.956  27.067   6.526
 3604POPC   C3B48777  36.031  26.873   6.900
 3604POPC   C4B48778  35.847  26.930   7.324
 3605POPC   NC348779  11.626  44.633   4.979
 3605POPC   PO448780  11.033  44.807   5.332
 3605POPC   GL148781  11.108  44.610   5.757
 3605POPC   GL248782  11.478  44.588   5.764
 3605POPC   C1A48783  11.233  44.465   6.194
 3605POPC   D2A48784  11.512  44.578   6.559
 3605POPC   C3A48785  11.402  44.378   6.910
 3605POPC   C4A48786  11.136  44.433   7.254
 3605POPC   C1B48787  11.508  44.891   6.142
 3605POPC   C2B48788  11.263   0.019   6.514
 3605POPC   C3B48789  11.243  44.858   6.953
 3605POPC   C4B48790  11.408  44.874   7.403
 3606POPC   NC348791  42.205   7.923   5.339
 3606POPC   PO448792  42.573   7.391   5.449
 3606POPC   GL148793  42.275   7.556   5.774
 3606POPC   GL248794  42.098   7.877   5.836
 3606POPC   C1A48795  42.340   7.454   6.205
 3606POPC   D2A48796  42.503   7.579   6.607
 3606POPC   C3A48797  42.426   7.337   6.974
 3606POPC   C4A48798  42.652   7.354   7.352
 3606POPC   C1B48799  42.229   7.974   6.287
 3606POPC   C2B48800  42.342   8.041   6.729
 3606POPC   C3B48801  42.507   7.839   7.105
 3606POPC   C4B48802  42.221   7.616   7.388
 3607POPC   NC348803  34.175  33.808   5.463
 3607POPC   PO448804  34.752  33.417   5.342
 3607POPC   GL148805  34.565  33.590   5.726
 3607POPC   GL248806  34.740  33.861   5.856
 3607POPC   C1A48807  34.394  33.714   6.165
 3607POPC   D2A48808  34.645  33.742   6.541
 3607POPC   C3A48809  34.408  33.632   6.905
 3607POPC   C4A48810  34.237  33.787   7.284
 3607POPC   C1B48811  34.842  34.101   6.222
 3607POPC   C2B48812  34.920  34.212   6.640
 3607POPC   C3B48813  34.683  34.062   6.992
 3607POPC   C4B48814  34.548  34.194   7.395
 3608POPC   NC348815  41.202   1.461   5.532
 3608POPC   PO448816  41.745   0.998   5.475
 3608POPC   GL148817  41.516   1.110   5.816
 3608POPC   GL248818  41.641   1.478   5.801
 3608POPC   C1A48819  41.403   1.003   6.254
 3608POPC   D2A48820  41.412   1.382   6.567
 3608POPC   C3A48821  41.302   1.319   6.998
 3608POPC   C4A48822  41.185   0.918   7.188
 3608POPC   C1B48823  41.789   1.318   6.205
 3608POPC   C2B48824  41.815   1.044   6.571
 3608POPC   C3B48825  41.657   0.947   6.976
 3608POPC   C4B48826  41.779   1.003   7.412
 3609POPC   NC348827  27.570   4.640   5.467
 3609POPC   PO448828  27.784   4.010   5.334
 3609POPC   GL148829  27.831   4.265   5.724
 3609POPC   GL248830  27.954   4.619   5.817
 3609POPC   C1A48831  27.583   4.352   6.106
 3609POPC   D2A48832  27.726   4.396   6.518
 3609POPC   C3A48833  27.678   4.148   6.854
 3609POPC   C4A48834  27.511   4.311   7.224
 3609POPC   C1B48835  27.834   4.809   6.230
 3609POPC   C2B48836  27.952   4.829   6.661
 3609POPC   C3B48837  27.895   4.609   7.050
 3609POPC   C4B48838  27.814   4.608   7.533
 3610POPC   NC348839   1.546  28.210   5.295
 3610POPC   PO448840   2.131  28.076   5.484
 3610POPC   GL148841   1.825  28.236   5.802
 3610POPC   GL248842   1.482  28.065   5.767
 3610POPC   C1A48843   1.923  28.286   6.271
 3610POPC   D2A48844   2.244  28.335   6.628
 3610POPC   C3A48845   2.121  28.423   7.082
 3610POPC   C4A48846   1.919  28.629   7.470
 3610POPC   C1B48847   1.502  27.885   6.156
 3610POPC   C2B48848   1.512  28.115   6.526
 3610POPC   C3B48849   1.597  27.971   6.932
 3610POPC   C4B48850   1.652  28.259   7.231
 3611POPC   NC348851  32.450  35.622   5.312
 3611POPC   PO448852  32.096  35.128   5.417
 3611POPC   GL148853  32.120  35.255   5.804
 3611POPC   GL248854  32.299  34.992   5.881
 3611POPC   C1A48855  31.981  35.257   6.244
 3611POPC   D2A48856  32.177  35.141   6.615
 3611POPC   C3A48857  31.863  35.134   6.933
 3611POPC   C4A48858  32.076  35.266   7.302
 3611POPC   C1B48859  32.508  35.184   6.203
 3611POPC   C2B48860  32.728  35.073   6.566
 3611POPC   C3B48861  32.636  35.185   6.972
 3611POPC   C4B48862  32.592  35.355   7.393
 3612POPC   NC348863  20.536  32.542   5.477
 3612POPC   PO448864  20.397  31.926   5.581
 3612POPC   GL148865  20.626  32.215   5.876
 3612POPC   GL248866  20.870  32.533   5.883
 3612POPC   C1A48867  20.554  32.294   6.310
 3612POPC   D2A48868  20.527  32.605   6.632
 3612POPC   C3A48869  20.533  32.447   7.041
 3612POPC   C4A48870  20.404  32.151   7.343
 3612POPC   C1B48871  20.955  32.625   6.345
 3612POPC   C2B48872  21.010  32.488   6.798
 3612POPC   C3B48873  20.949  32.162   7.133
 3612POPC   C4B48874  20.837  32.412   7.485
 3613POPC   NC348875  16.783   5.535   5.406
 3613POPC   PO448876  16.522   6.105   5.181
 3613POPC   GL148877  16.812   5.999   5.579
 3613POPC   GL248878  16.560   5.773   5.797
 3613POPC   C1A48879  16.958   5.937   6.060
 3613POPC   D2A48880  16.782   6.067   6.482
 3613POPC   C3A48881  16.835   5.942   6.940
 3613POPC   C4A48882  16.603   6.216   7.236
 3613POPC   C1B48883  16.322   5.755   6.213
 3613POPC   C2B48884  16.452   5.692   6.653
 3613POPC   C3B48885  16.302   5.854   7.045
 3613POPC   C4B48886  16.101   5.849   7.460
 3614POPC   NC348887  33.274  30.940   5.353
 3614POPC   PO448888  32.787  30.395   5.463
 3614POPC   GL148889  32.871  30.573   5.888
 3614POPC   GL248890  33.094  30.853   5.827
 3614POPC   C1A48891  32.727  30.677   6.328
 3614POPC   D2A48892  32.630  30.717   6.820
 3614POPC   C3A48893  32.594  30.445   7.181
 3614POPC   C4A48894  32.395  30.474   7.602
 3614POPC   C1B48895  33.278  30.688   6.205
 3614POPC   C2B48896  33.127  30.404   6.494
 3614POPC   C3B48897  33.030  30.395   6.914
 3614POPC   C4B48898  33.041  30.722   7.222
 3615POPC   NC348899  32.476  11.145   5.434
 3615POPC   PO448900  31.936  11.528   5.362
 3615POPC   GL148901  32.165  11.423   5.743
 3615POPC   GL248902  32.172  11.030   5.828
 3615POPC   C1A48903  32.380  11.403   6.134
 3615POPC   D2A48904  32.442  11.278   6.554
 3615POPC   C3A48905  32.405  11.603   6.861
 3615POPC   C4A48906  32.215  11.572   7.259
 3615POPC   C1B48907  32.183  10.890   6.274
 3615POPC   C2B48908  32.337  10.733   6.667
 3615POPC   C3B48909  32.414  11.018   7.008
 3615POPC   C4B48910  32.000  11.085   7.166
 3616POPC   NC348911  35.797   1.041   5.415
 3616POPC   PO448912  36.082   1.699   5.271
 3616POPC   GL148913  36.008   1.452   5.646
 3616POPC   GL248914  36.249   1.199   5.650
 3616POPC   C1A48915  35.913   1.274   6.055
 3616POPC   D2A48916  36.094   1.206   6.473
 3616POPC   C3A48917  36.022   1.294   6.891
 3616POPC   C4A48918  36.202   1.405   7.272
 3616POPC   C1B48919  36.429   1.120   6.058
 3616POPC   C2B48920  36.451   0.855   6.418
 3616POPC   C3B48921  36.483   1.012   6.824
 3616POPC   C4B48922  36.524   0.939   7.225
 3617POPC   NC348923  29.119  10.779   5.444
 3617POPC   PO448924  29.202  11.443   5.271
 3617POPC   GL148925  29.124  11.264   5.698
 3617POPC   GL248926  29.223  11.546   5.895
 3617POPC   C1A48927  29.145  11.110   6.175
 3617POPC   D2A48928  29.395  11.084   6.604
 3617POPC   C3A48929  29.264  11.153   7.031
 3617POPC   C4A48930  28.856  11.204   7.069
 3617POPC   C1B48931  29.489  11.490   6.267
 3617POPC   C2B48932  29.638  11.518   6.720
 3617POPC   C3B48933  29.367  11.663   7.077
 3617POPC   C4B48934  28.979  11.772   7.355
 3618POPC   NC348935  18.610   6.230   5.479
 3618POPC   PO448936  18.324   6.827   5.353
 3618POPC   GL148937  18.285   6.676   5.754
 3618POPC   GL248938  18.005   6.490   5.690
 3618POPC   C1A48939  18.301   6.860   6.205
 3618POPC   D2A48940  18.461   7.051   6.581
 3618POPC   C3A48941  18.251   6.861   6.930
 3618POPC   C4A48942  18.333   6.586   7.292
 3618POPC   C1B48943  18.089   6.390   6.122
 3618POPC   C2B48944  18.007   6.537   6.529
 3618POPC   C3B48945  18.123   6.338   6.891
 3618POPC   C4B48946  17.925   6.282   7.259
 3619POPC   NC348947  34.346  16.240   5.622
 3619POPC   PO448948  34.883  15.808   5.527
 3619POPC   GL148949  34.630  15.859   5.880
 3619POPC   GL248950  34.757  16.186   5.997
 3619POPC   C1A48951  34.426  15.846   6.274
 3619POPC   D2A48952  34.332  16.246   6.475
 3619POPC   C3A48953  34.289  16.259   6.940
 3619POPC   C4A48954  34.423  15.888   7.162
 3619POPC   C1B48955  35.048  15.859   6.220
 3619POPC   C2B48956  35.204  15.778   6.670
 3619POPC   C3B48957  34.947  15.816   7.074
 3619POPC   C4B48958  34.735  15.586   7.421
 3620POPC   NC348959   9.834  10.532   5.281
 3620POPC   PO448960   9.434  10.077   5.430
 3620POPC   GL148961   9.604  10.465   5.754
 3620POPC   GL248962   9.952  10.603   5.796
 3620POPC   C1A48963   9.642  10.732   6.186
 3620POPC   D2A48964   9.415  10.720   6.606
 3620POPC   C3A48965   9.652  10.698   6.980
 3620POPC   C4A48966   9.926  10.982   7.154
 3620POPC   C1B48967   9.918  10.295   6.165
 3620POPC   C2B48968   9.781  10.320   6.628
 3620POPC   C3B48969  10.077  10.362   7.012
 3620POPC   C4B48970  10.204  10.178   7.439
 3621POPC   NC348971   3.064  33.463   5.484
 3621POPC   PO448972   2.440  33.775   5.511
 3621POPC   GL148973   2.783  33.821   5.789
 3621POPC   GL248974   2.710  33.460   5.853
 3621POPC   C1A48975   2.783  33.896   6.245
 3621POPC   D2A48976   2.698  33.781   6.680
 3621POPC   C3A48977   2.581  34.063   7.037
 3621POPC   C4A48978   2.742  34.090   7.476
 3621POPC   C1B48979   2.978  33.408   6.174
 3621POPC   C2B48980   3.108  33.449   6.590
 3621POPC   C3B48981   2.989  33.542   7.021
 3621POPC   C4B48982   2.910  33.541   7.479
 3622POPC   NC348983  22.257  16.888   5.040
 3622POPC   PO448984  22.267  16.510   5.479
 3622POPC   GL148985  22.189  16.685   5.841
 3622POPC   GL248986  22.520  16.763   5.938
 3622POPC   C1A48987  22.156  16.692   6.306
 3622POPC   D2A48988  22.287  16.533   6.723
 3622POPC   C3A48989  22.405  16.814   7.066
 3622POPC   C4A48990  22.113  16.935   7.397
 3622POPC   C1B48991  22.668  16.734   6.403
 3622POPC   C2B48992  22.783  16.514   6.817
 3622POPC   C3B48993  22.537  16.304   7.143
 3622POPC   C4B48994  22.315  16.456   7.543
 3623POPC   NC348995  44.238  43.025   5.595
 3623POPC   PO448996  43.558  42.887   5.567
 3623POPC   GL148997  43.822  43.008   5.898
 3623POPC   GL248998  43.846  43.355   5.713
 3623POPC   C1A48999  44.032  42.831   6.295
 3623POPC   D2A49000  43.921  42.691   6.741
 3623POPC   C3A49001  43.850  42.983   7.101
 3623POPC   C4A49002  44.022  42.964   7.549
 3623POPC   C1B49003  43.768  43.455   6.141
 3623POPC   C2B49004  43.926  43.294   6.530
 3623POPC   C3B49005  43.831  43.458   6.917
 3623POPC   C4B49006  43.970  43.433   7.326
 3624POPC   NC349007  35.350  27.188   5.369
 3624POPC   PO449008  35.367  27.797   5.320
 3624POPC   GL149009  35.339  27.598   5.744
 3624POPC   GL249010  35.190  27.251   5.849
 3624POPC   C1A49011  35.476  27.673   6.161
 3624POPC   D2A49012  35.721  27.559   6.496
 3624POPC   C3A49013  35.632  27.728   6.873
 3624POPC   C4A49014  35.375  27.580   7.187
 3624POPC   C1B49015  35.081  27.395   6.278
 3624POPC   C2B49016  35.147  27.607   6.676
 3624POPC   C3B49017  34.976  27.331   6.978
 3624POPC   C4B49018  34.952  27.349   7.406
 3625POPC   NC349019  34.258  44.349   5.350
 3625POPC   PO449020  34.953  44.322   5.442
 3625POPC   GL149021  34.528  44.640   5.662
 3625POPC   GL249022  34.226  44.552   5.839
 3625POPC   C1A49023  34.546  44.760   6.157
 3625POPC   D2A49024  34.379  44.779   6.572
 3625POPC   C3A49025  34.595  44.947   6.938
 3625POPC   C4A49026  34.881  44.935   7.279
 3625POPC   C1B49027  34.281  44.297   6.232
 3625POPC   C2B49028  34.364  44.297   6.699
 3625POPC   C3B49029  34.554  44.451   7.082
 3625POPC   C4B49030  34.353  44.631   7.442
 3626POPC   NC349031  40.604  26.777   5.387
 3626POPC   PO449032  41.191  27.156   5.519
 3626POPC   GL149033  40.849  27.045   5.819
 3626POPC   GL249034  40.742  26.708   5.856
 3626POPC   C1A49035  40.782  27.119   6.282
 3626POPC   D2A49036  41.090  27.230   6.640
 3626POPC   C3A49037  41.051  26.999   7.036
 3626POPC   C4A49038  40.766  26.652   7.137
 3626POPC   C1B49039  40.600  26.608   6.269
 3626POPC   C2B49040  40.508  26.803   6.637
 3626POPC   C3B49041  40.281  26.753   6.994
 3626POPC   C4B49042  40.424  26.888   7.399
 3627POPC   NC349043  31.767  29.765   5.514
 3627POPC   PO449044  31.268  30.155   5.191
 3627POPC   GL149045  31.242  30.204   5.685
 3627POPC   GL249046  31.125  29.875   5.803
 3627POPC   C1A49047  31.360  30.273   6.150
 3627POPC   D2A49048  31.358  30.416   6.610
 3627POPC   C3A49049  31.350  30.104   6.950
 3627POPC   C4A49050  31.156  29.848   7.256
 3627POPC   C1B49051  31.464  29.778   6.116
 3627POPC   C2B49052  31.756  29.716   6.465
 3627POPC   C3B49053  31.707  29.426   6.811
 3627POPC   C4B49054  31.612  29.617   7.171
 3628POPC   NC349055  35.492  28.987   5.324
 3628POPC   PO449056  35.602  29.452   5.772
 3628POPC   GL149057  35.514  29.012   5.858
 3628POPC   GL249058  35.154  28.991   5.812
 3628POPC   C1A49059  35.416  28.851   6.281
 3628POPC   D2A49060  35.473  29.166   6.626
 3628POPC   C3A49061  35.385  29.079   7.061
 3628POPC   C4A49062  35.630  28.819   7.320
 3628POPC   C1B49063  35.090  29.233   6.208
 3628POPC   C2B49064  34.912  29.253   6.638
 3628POPC   C3B49065  34.903  29.560   6.959
 3628POPC   C4B49066  35.111  29.457   7.332
 3629POPC   NC349067  43.328  31.157   5.549
 3629POPC   PO449068  42.758  31.310   5.200
 3629POPC   GL149069  42.948  31.513   5.676
 3629POPC   GL249070  43.271  31.702   5.826
 3629POPC   C1A49071  43.111  31.337   6.147
 3629POPC   D2A49072  43.396  31.248   6.529
 3629POPC   C3A49073  43.206  31.247   6.932
 3629POPC   C4A49074  43.309  31.432   7.351
 3629POPC   C1B49075  43.433  31.701   6.286
 3629POPC   C2B49076  43.125  31.699   6.646
 3629POPC   C3B49077  42.972  31.682   7.087
 3629POPC   C4B49078  43.005  31.782   7.587
 3630POPC   NC349079  33.045   6.352   5.480
 3630POPC   PO449080  32.976   5.693   5.209
 3630POPC   GL149081  32.811   5.852   5.633
 3630POPC   GL249082  32.619   5.554   5.761
 3630POPC   C1A49083  32.996   5.993   6.045
 3630POPC   D2A49084  33.118   5.770   6.396
 3630POPC   C3A49085  32.998   5.836   6.832
 3630POPC   C4A49086  33.214   5.985   7.172
 3630POPC   C1B49087  32.633   5.662   6.205
 3630POPC   C2B49088  32.722   5.465   6.604
 3630POPC   C3B49089  32.575   5.590   7.042
 3630POPC   C4B49090  32.739   5.808   7.402
 3631POPC   NC349091  32.836  30.065   5.146
 3631POPC   PO449092  33.256  29.599   5.433
 3631POPC   GL149093  33.146  29.729   5.820
 3631POPC   GL249094  33.039  30.071   5.835
 3631POPC   C1A49095  32.978  29.671   6.225
 3631POPC   D2A49096  32.975  29.922   6.593
 3631POPC   C3A49097  32.951  29.666   6.925
 3631POPC   C4A49098  32.996  29.582   7.343
 3631POPC   C1B49099  33.341  30.037   6.199
 3631POPC   C2B49100  33.524  30.118   6.632
 3631POPC   C3B49101  33.326  29.993   7.028
 3631POPC   C4B49102  33.324  30.117   7.491
 3632POPC   NC349103  21.716  30.452   5.438
 3632POPC   PO449104  22.284  30.448   5.687
 3632POPC   GL149105  22.323  30.751   5.924
 3632POPC   GL249106  22.023  30.896   5.844
 3632POPC   C1A49107  22.453  30.740   6.320
 3632POPC   D2A49108  22.238  30.646   6.701
 3632POPC   C3A49109  22.467  30.621   7.072
 3632POPC   C4A49110  22.292  30.485   7.477
 3632POPC   C1B49111  21.926  30.667   6.225
 3632POPC   C2B49112  21.742  30.768   6.598
 3632POPC   C3B49113  21.770  30.725   7.040
 3632POPC   C4B49114  22.093  30.932   7.280
 3633POPC   NC349115  13.716  22.491   5.260
 3633POPC   PO449116  13.281  22.036   5.413
 3633POPC   GL149117  13.515  22.176   5.767
 3633POPC   GL249118  13.370  22.511   5.841
 3633POPC   C1A49119  13.741  22.017   6.151
 3633POPC   D2A49120  13.918  22.025   6.552
 3633POPC   C3A49121  13.693  21.996   6.931
 3633POPC   C4A49122  13.667  22.334   7.223
 3633POPC   C1B49123  13.658  22.505   6.233
 3633POPC   C2B49124  13.767  22.489   6.705
 3633POPC   C3B49125  14.011  22.695   7.038
 3633POPC   C4B49126  13.793  22.851   7.435
 3634POPC   NC349127  17.496  12.090   5.337
 3634POPC   PO449128  16.983  11.699   5.469
 3634POPC   GL149129  17.426  11.785   5.751
 3634POPC   GL249130  17.678  12.091   5.824
 3634POPC   C1A49131  17.678  11.689   6.149
 3634POPC   D2A49132  17.823  11.770   6.574
 3634POPC   C3A49133  17.559  11.854   6.940
 3634POPC   C4A49134  17.661  11.770   7.353
 3634POPC   C1B49135  17.546  12.165   6.251
 3634POPC   C2B49136  17.220  12.315   6.567
 3634POPC   C3B49137  17.213  12.268   6.992
 3634POPC   C4B49138  17.555  12.288   7.242
 3635POPC   NC349139   1.433  15.279   5.190
 3635POPC   PO449140   1.231  14.924   5.441
 3635POPC   GL149141   1.320  15.017   5.881
 3635POPC   GL249142   1.398  15.359   5.831
 3635POPC   C1A49143   1.247  14.894   6.321
 3635POPC   D2A49144   1.065  14.964   6.731
 3635POPC   C3A49145   1.109  14.776   7.136
 3635POPC   C4A49146   1.166  14.938   7.585
 3635POPC   C1B49147   1.423  15.389   6.300
 3635POPC   C2B49148   1.325  15.407   6.760
 3635POPC   C3B49149   1.438  15.167   7.153
 3635POPC   C4B49150   1.678  14.995   7.505
 3636POPC   NC349151  37.154  13.687   5.328
 3636POPC   PO449152  37.246  14.036   5.863
 3636POPC   GL149153  36.869  13.742   5.904
 3636POPC   GL249154  36.505  13.578   5.853
 3636POPC   C1A49155  36.697  13.784   6.310
 3636POPC   D2A49156  36.889  13.584   6.640
 3636POPC   C3A49157  36.893  13.759   7.012
 3636POPC   C4A49158  37.049  13.465   7.307
 3636POPC   C1B49159  36.306  13.468   6.286
 3636POPC   C2B49160  36.360  13.590   6.742
 3636POPC   C3B49161  36.532  13.450   7.164
 3636POPC   C4B49162  36.649  13.549   7.595
 3637POPC   NC349163   7.243  20.631   5.374
 3637POPC   PO449164   7.751  21.048   5.457
 3637POPC   GL149165   7.709  20.651   5.762
 3637POPC   GL249166   7.329  20.514   5.852
 3637POPC   C1A49167   7.623  20.630   6.226
 3637POPC   D2A49168   7.420  20.946   6.470
 3637POPC   C3A49169   7.304  20.758   6.857
 3637POPC   C4A49170   7.597  20.634   7.154
 3637POPC   C1B49171   7.137  20.458   6.281
 3637POPC   C2B49172   7.193  20.249   6.675
 3637POPC   C3B49173   7.085  20.336   7.095
 3637POPC   C4B49174   6.934  20.762   7.244
 3638POPC   NC349175  40.120   1.847   5.457
 3638POPC   PO449176  39.746   1.470   5.798
 3638POPC   GL149177  40.045   1.832   5.957
 3638POPC   GL249178  40.417   1.871   5.890
 3638POPC   C1A49179  40.019   2.109   6.292
 3638POPC   D2A49180  39.718   1.860   6.512
 3638POPC   C3A49181  39.716   1.932   6.930
 3638POPC   C4A49182  39.776   2.219   7.247
 3638POPC   C1B49183  40.446   1.750   6.344
 3638POPC   C2B49184  40.193   1.835   6.710
 3638POPC   C3B49185  40.204   1.902   7.131
 3638POPC   C4B49186  40.223   1.757   7.585
 3639POPC   NC349187  29.685  17.357   5.625
 3639POPC   PO449188  29.210  17.746   5.467
 3639POPC   GL149189  29.185  17.367   5.706
 3639POPC   GL249190  28.881  17.351   5.838
 3639POPC   C1A49191  29.250  17.166   6.117
 3639POPC   D2A49192  29.368  17.324   6.522
 3639POPC   C3A49193  29.086  17.288   6.871
 3639POPC   C4A49194  29.251  17.337   7.259
 3639POPC   C1B49195  29.122  17.649   6.147
 3639POPC   C2B49196  29.142  17.778   6.606
 3639POPC   C3B49197  29.077  17.789   7.060
 3639POPC   C4B49198  28.724  17.812   7.347
 3640POPC   NC349199  29.926  14.160   5.399
 3640POPC   PO449200  29.928  14.780   5.299
 3640POPC   GL149201  30.098  14.628   5.732
 3640POPC   GL249202  29.877  14.352   5.867
 3640POPC   C1A49203  30.361  14.641   6.151
 3640POPC   D2A49204  30.433  14.489   6.617
 3640POPC   C3A49205  30.215  14.681   7.016
 3640POPC   C4A49206  30.052  14.490   7.428
 3640POPC   C1B49207  29.870  14.645   6.207
 3640POPC   C2B49208  29.910  14.517   6.607
 3640POPC   C3B49209  29.837  14.341   6.973
 3640POPC   C4B49210  29.588  14.491   7.254
 3641POPC   NC349211  33.180  27.178   5.292
 3641POPC   PO449212  32.546  27.177   5.371
 3641POPC   GL149213  32.928  26.971   5.690
 3641POPC   GL249214  33.294  27.109   5.791
 3641POPC   C1A49215  33.058  26.803   6.127
 3641POPC   D2A49216  32.939  26.594   6.535
 3641POPC   C3A49217  33.111  26.803   6.928
 3641POPC   C4A49218  32.963  26.946   7.332
 3641POPC   C1B49219  33.297  27.277   6.226
 3641POPC   C2B49220  33.370  27.185   6.668
 3641POPC   C3B49221  33.193  27.314   7.073
 3641POPC   C4B49222  33.230  27.334   7.548
 3642POPC   NC349223  13.947  30.827   5.252
 3642POPC   PO449224  13.355  30.606   5.486
 3642POPC   GL149225  13.447  30.449   5.866
 3642POPC   GL249226  13.790  30.509   5.775
 3642POPC   C1A49227  13.512  30.640   6.250
 3642POPC   D2A49228  13.357  30.740   6.662
 3642POPC   C3A49229  13.654  30.692   7.014
 3642POPC   C4A49230  13.786  30.847   7.425
 3642POPC   C1B49231  13.868  30.275   6.154
 3642POPC   C2B49232  13.880  30.423   6.579
 3642POPC   C3B49233  13.497  30.251   6.756
 3642POPC   C4B49234  13.209  30.429   7.084
 3643POPC   NC349235  15.860   4.022   4.913
 3643POPC   PO449236  15.814   3.497   5.318
 3643POPC   GL149237  15.940   3.412   5.723
 3643POPC   GL249238  16.072   3.686   5.920
 3643POPC   C1A49239  15.776   3.352   6.150
 3643POPC   D2A49240  15.865   3.492   6.566
 3643POPC   C3A49241  15.960   3.217   6.920
 3643POPC   C4A49242  15.823   3.411   7.295
 3643POPC   C1B49243  16.235   3.844   6.299
 3643POPC   C2B49244  16.090   3.940   6.704
 3643POPC   C3B49245  16.175   3.679   7.070
 3643POPC   C4B49246  16.092   3.777   7.541
 3644POPC   NC349247  29.642  15.085   5.143
 3644POPC   PO449248  30.217  15.419   5.339
 3644POPC   GL149249  29.957  15.179   5.690
 3644POPC   GL249250  29.603  15.084   5.674
 3644POPC   C1A49251  30.072  15.093   6.144
 3644POPC   D2A49252  30.202  14.944   6.547
 3644POPC   C3A49253  30.100  15.166   6.919
 3644POPC   C4A49254  30.195  15.235   7.345
 3644POPC   C1B49255  29.538  15.138   6.127
 3644POPC   C2B49256  29.688  15.001   6.530
 3644POPC   C3B49257  29.678  14.876   6.937
 3644POPC   C4B49258  29.689  15.124   7.280
 3645POPC   NC349259  44.349   5.965   5.350
 3645POPC   PO449260   0.040   5.976   5.381
 3645POPC   GL149261  44.803   5.918   5.758
 3645POPC   GL249262  44.589   5.630   5.712
 3645POPC   C1A49263  44.761   5.820   6.212
 3645POPC   D2A49264  44.668   5.978   6.640
 3645POPC   C3A49265  44.824   5.881   7.072
 3645POPC   C4A49266  44.583   5.812   7.459
 3645POPC   C1B49267  44.318   5.557   6.088
 3645POPC   C2B49268  44.438   5.520   6.536
 3645POPC   C3B49269  44.365   5.655   6.967
 3645POPC   C4B49270  44.101   5.626   7.353
 3646POPC   NC349271  31.581  44.461   5.502
 3646POPC   PO449272  31.467   0.108   5.238
 3646POPC   GL149273  31.315  44.893   5.696
 3646POPC   GL249274  31.287  44.539   5.889
 3646POPC   C1A49275  31.254  44.960   6.189
 3646POPC   D2A49276  31.260   0.001   6.668
 3646POPC   C3A49277  31.239  44.700   7.035
 3646POPC   C4A49278  31.328  44.669   7.506
 3646POPC   C1B49279  31.638  44.615   6.224
 3646POPC   C2B49280  31.720  44.735   6.664
 3646POPC   C3B49281  31.727  44.524   7.053
 3646POPC   C4B49282  31.904  44.249   7.359
 3647POPC   NC349283   8.915  33.672   5.320
 3647POPC   PO449284   9.514  33.454   5.571
 3647POPC   GL149285   9.097  33.635   5.801
 3647POPC   GL249286   8.743  33.857   5.767
 3647POPC   C1A49287   8.953  33.634   6.228
 3647POPC   D2A49288   9.197  33.587   6.589
 3647POPC   C3A49289   9.270  33.817   6.972
 3647POPC   C4A49290   9.145  33.667   7.380
 3647POPC   C1B49291   8.672  34.058   6.171
 3647POPC   C2B49292   8.835  34.007   6.626
 3647POPC   C3B49293   8.806  34.031   7.103
 3647POPC   C4B49294   8.552  33.940   7.474
 3648POPC   NC349295  17.399  13.661   5.429
 3648POPC   PO449296  17.887  13.177   5.562
 3648POPC   GL149297  17.607  13.424   5.882
 3648POPC   GL249298  17.559  13.791   5.896
 3648POPC   C1A49299  17.584  13.521   6.339
 3648POPC   D2A49300  17.631  13.327   6.744
 3648POPC   C3A49301  17.610  13.661   7.051
 3648POPC   C4A49302  17.829  13.791   7.446
 3648POPC   C1B49303  17.187  13.837   6.183
 3648POPC   C2B49304  17.128  13.979   6.637
 3648POPC   C3B49305  17.320  14.079   7.052
 3648POPC   C4B49306  17.324  13.836   7.462
 3649POPC   NC349307  25.545  19.040   5.427
 3649POPC   PO449308  24.926  18.950   5.435
 3649POPC   GL149309  25.164  18.741   5.739
 3649POPC   GL249310  25.352  18.989   5.914
 3649POPC   C1A49311  25.117  18.616   6.161
 3649POPC   D2A49312  25.175  18.902   6.485
 3649POPC   C3A49313  25.151  18.828   6.912
 3649POPC   C4A49314  25.378  18.983   7.245
 3649POPC   C1B49315  25.541  19.204   6.272
 3649POPC   C2B49316  25.532  19.210   6.756
 3649POPC   C3B49317  25.502  19.454   7.149
 3649POPC   C4B49318  25.360  19.399   7.587
 3650POPC   NC349319   8.179   9.067   4.965
 3650POPC   PO449320   8.205   9.020   5.587
 3650POPC   GL149321   8.146   8.834   5.928
 3650POPC   GL249322   7.870   8.612   5.796
 3650POPC   C1A49323   8.100   9.031   6.339
 3650POPC   D2A49324   8.242   9.417   6.562
 3650POPC   C3A49325   8.219   9.274   6.997
 3650POPC   C4A49326   8.136   9.020   7.378
 3650POPC   C1B49327   7.956   8.496   6.244
 3650POPC   C2B49328   8.132   8.590   6.641
 3650POPC   C3B49329   8.226   8.600   7.097
 3650POPC   C4B49330   8.215   8.560   7.576
 3651POPC   NC349331  41.494  17.702   5.286
 3651POPC   PO449332  41.438  17.123   5.472
 3651POPC   GL149333  41.521  17.386   5.809
 3651POPC   GL249334  41.389  17.707   5.795
 3651POPC   C1A49335  41.697  17.567   6.201
 3651POPC   D2A49336  41.900  17.619   6.592
 3651POPC   C3A49337  41.748  17.424   6.987
 3651POPC   C4A49338  41.670  17.133   7.310
 3651POPC   C1B49339  41.265  17.842   6.225
 3651POPC   C2B49340  41.396  17.685   6.657
 3651POPC   C3B49341  41.573  17.904   7.032
 3651POPC   C4B49342  41.438  17.796   7.444
 3652POPC   NC349343  14.103   3.032   5.430
 3652POPC   PO449344  13.415   2.795   5.469
 3652POPC   GL149345  13.461   2.889   5.860
 3652POPC   GL249346  13.810   2.950   5.876
 3652POPC   C1A49347  13.433   2.713   6.274
 3652POPC   D2A49348  13.707   2.616   6.606
 3652POPC   C3A49349  13.520   2.672   6.991
 3652POPC   C4A49350  13.631   2.536   7.423
 3652POPC   C1B49351  13.683   3.190   6.250
 3652POPC   C2B49352  13.440   3.173   6.637
 3652POPC   C3B49353  13.425   3.248   7.082
 3652POPC   C4B49354  13.715   3.027   7.319
 3653POPC   NC349355  12.357  26.015   5.356
 3653POPC   PO449356  11.795  25.854   5.130
 3653POPC   GL149357  11.872  26.039   5.625
 3653POPC   GL249358  12.214  26.113   5.830
 3653POPC   C1A49359  11.818  26.047   6.122
 3653POPC   D2A49360  12.166  26.090   6.488
 3653POPC   C3A49361  12.062  26.183   6.932
 3653POPC   C4A49362  11.887  25.980   7.290
 3653POPC   C1B49363  12.456  25.850   6.144
 3653POPC   C2B49364  12.489  25.681   6.587
 3653POPC   C3B49365  12.317  25.722   7.005
 3653POPC   C4B49366  12.402  25.906   7.430
 3654POPC   NC349367  13.927  29.252   5.485
 3654POPC   PO449368  13.429  28.910   5.264
 3654POPC   GL149369  13.441  29.063   5.733
 3654POPC   GL249370  13.769  28.955   5.888
 3654POPC   C1A49371  13.468  29.208   6.200
 3654POPC   D2A49372  13.661  28.981   6.553
 3654POPC   C3A49373  13.564  29.161   6.979
 3654POPC   C4A49374  13.450  28.968   7.395
 3654POPC   C1B49375  13.982  29.250   6.206
 3654POPC   C2B49376  13.898  29.417   6.633
 3654POPC   C3B49377  13.978  29.465   7.067
 3654POPC   C4B49378  13.757  29.377   7.467
 3655POPC   NC349379  21.991   2.505   5.277
 3655POPC   PO449380  22.354   2.966   5.564
 3655POPC   GL149381  22.137   2.724   5.810
 3655POPC   GL249382  21.900   2.990   5.822
 3655POPC   C1A49383  22.290   2.506   6.189
 3655POPC   D2A49384  22.307   2.268   6.583
 3655POPC   C3A49385  22.472   2.530   6.885
 3655POPC   C4A49386  22.436   2.818   7.229
 3655POPC   C1B49387  21.884   2.797   6.247
 3655POPC   C2B49388  21.985   2.694   6.667
 3655POPC   C3B49389  21.973   2.932   7.051
 3655POPC   C4B49390  22.027   2.978   7.532
 3656POPC   NC349391  23.652  12.050   5.441
 3656POPC   PO449392  24.210  12.025   5.488
 3656POPC   GL149393  23.921  11.898   5.856
 3656POPC   GL249394  23.532  11.832   5.884
 3656POPC   C1A49395  23.826  11.997   6.292
 3656POPC   D2A49396  23.647  12.004   6.703
 3656POPC   C3A49397  23.884  12.022   7.112
 3656POPC   C4A49398  23.984  12.396   7.403
 3656POPC   C1B49399  23.297  11.914   6.282
 3656POPC   C2B49400  23.135  11.943   6.716
 3656POPC   C3B49401  23.369  11.971   7.120
 3656POPC   C4B49402  23.575  11.984   7.518
 3657POPC   NC349403  40.544  15.527   5.545
 3657POPC   PO449404  41.107  15.154   5.579
 3657POPC   GL149405  40.755  15.169   5.851
 3657POPC   GL249406  40.855  15.514   5.934
 3657POPC   C1A49407  40.626  15.202   6.285
 3657POPC   D2A49408  40.873  15.205   6.669
 3657POPC   C3A49409  40.609  15.146   7.002
 3657POPC   C4A49410  40.448  14.813   7.229
 3657POPC   C1B49411  41.034  15.558   6.316
 3657POPC   C2B49412  41.175  15.640   6.716
 3657POPC   C3B49413  40.929  15.544   7.084
 3657POPC   C4B49414  40.972  15.614   7.519
 3658POPC   NC349415  41.000  39.520   5.446
 3658POPC   PO449416  40.754  38.908   5.564
 3658POPC   GL149417  40.782  39.206   5.908
 3658POPC   GL249418  40.478  39.361   6.020
 3658POPC   C1A49419  40.777  39.149   6.359
 3658POPC   D2A49420  40.625  39.149   6.770
 3658POPC   C3A49421  40.849  39.269   7.130
 3658POPC   C4A49422  40.860  39.319   7.575
 3658POPC   C1B49423  40.510  39.564   6.452
 3658POPC   C2B49424  40.470  39.595   6.929
 3658POPC   C3B49425  40.402  39.343   7.334
 3658POPC   C4B49426  40.391  39.208   7.793
 3659POPC   NC349427  41.214  19.818   5.230
 3659POPC   PO449428  40.617  19.614   5.571
 3659POPC   GL149429  40.861  19.935   5.762
 3659POPC   GL249430  40.908  19.671   6.033
 3659POPC   C1A49431  41.008  20.142   6.159
 3659POPC   D2A49432  41.022  19.922   6.576
 3659POPC   C3A49433  40.930  20.099   7.012
 3659POPC   C4A49434  40.895  20.017   7.481
 3659POPC   C1B49435  40.578  19.866   6.280
 3659POPC   C2B49436  40.383  20.031   6.682
 3659POPC   C3B49437  40.407  19.986   7.151
 3659POPC   C4B49438  40.424  19.724   7.541
 3660POPC   NC349439  36.310  39.226   5.329
 3660POPC   PO449440  35.816  39.481   5.422
 3660POPC   GL149441  36.109  39.372   5.805
 3660POPC   GL249442  35.927  39.223   6.102
 3660POPC   C1A49443  36.428  39.262   6.176
 3660POPC   D2A49444  36.536  39.078   6.613
 3660POPC   C3A49445  36.348  39.256   6.995
 3660POPC   C4A49446  36.094  39.068   7.325
 3660POPC   C1B49447  36.041  39.276   6.568
 3660POPC   C2B49448  35.849  39.383   6.995
 3660POPC   C3B49449  35.672  39.342   7.419
 3660POPC   C4B49450  35.833  39.324   7.855
 3661POPC   NC349451  23.290   1.431   5.598
 3661POPC   PO449452  22.819   1.389   5.074
 3661POPC   GL149453  22.781   1.199   5.527
 3661POPC   GL249454  22.810   1.499   5.782
 3661POPC   C1A49455  22.850   1.025   5.981
 3661POPC   D2A49456  23.023   1.129   6.399
 3661POPC   C3A49457  22.767   1.085   6.787
 3661POPC   C4A49458  22.789   0.952   7.219
 3661POPC   C1B49459  22.984   1.605   6.219
 3661POPC   C2B49460  22.849   1.586   6.659
 3661POPC   C3B49461  22.978   1.477   7.099
 3661POPC   C4B49462  22.887   1.634   7.525
 3662POPC   NC349463  10.689  26.271   5.646
 3662POPC   PO449464  10.243  25.788   5.578
 3662POPC   GL149465  10.254  26.118   5.934
 3662POPC   GL249466  10.313  26.471   5.938
 3662POPC   C1A49467  10.307  26.203   6.384
 3662POPC   D2A49468  10.527  25.957   6.683
 3662POPC   C3A49469  10.398  25.913   7.087
 3662POPC   C4A49470  10.764  25.817   7.351
 3662POPC   C1B49471  10.686  26.544   6.240
 3662POPC   C2B49472  10.777  26.645   6.684
 3662POPC   C3B49473  10.680  26.354   7.031
 3662POPC   C4B49474  10.490  26.235   7.471
 3663POPC   NC349475  44.496  29.490   5.721
 3663POPC   PO449476  44.833  29.948   5.368
 3663POPC   GL149477  44.644  30.109   5.767
 3663POPC   GL249478  44.927  30.309   5.878
 3663POPC   C1A49479  44.405  30.016   6.192
 3663POPC   D2A49480  44.519  30.207   6.621
 3663POPC   C3A49481  44.306  30.013   6.979
 3663POPC   C4A49482  44.405  29.721   7.358
 3663POPC   C1B49483  44.902  30.092   6.288
 3663POPC   C2B49484  44.671  29.729   6.555
 3663POPC   C3B49485  44.779  29.815   6.977
 3663POPC   C4B49486  44.932  30.242   6.968
 3664POPC   NC349487  36.423  43.850   5.185
 3664POPC   PO449488  35.950  44.262   5.396
 3664POPC   GL149489  36.194  43.918   5.646
 3664POPC   GL249490  35.926  43.735   5.780
 3664POPC   C1A49491  36.412  43.804   6.060
 3664POPC   D2A49492  36.505  44.079   6.438
 3664POPC   C3A49493  36.448  43.898   6.859
 3664POPC   C4A49494  36.472  43.873   7.309
 3664POPC   C1B49495  35.943  43.960   6.160
 3664POPC   C2B49496  36.079  43.741   6.533
 3664POPC   C3B49497  35.937  43.795   6.968
 3664POPC   C4B49498  35.987  43.806   7.444
 3665POPC   NC349499  18.803   6.822   5.292
 3665POPC   PO449500  19.150   6.292   5.373
 3665POPC   GL149501  18.982   6.502   5.732
 3665POPC   GL249502  18.780   6.790   5.819
 3665POPC   C1A49503  19.127   6.556   6.141
 3665POPC   D2A49504  18.951   6.785   6.488
 3665POPC   C3A49505  19.209   6.625   6.832
 3665POPC   C4A49506  19.192   6.318   7.126
 3665POPC   C1B49507  18.623   6.472   6.155
 3665POPC   C2B49508  18.519   6.542   6.610
 3665POPC   C3B49509  18.729   6.726   6.977
 3665POPC   C4B49510  19.036   6.794   7.278
 3666POPC   NC349511  11.391   0.049   5.526
 3666POPC   PO449512  10.999   0.507   5.341
 3666POPC   GL149513  11.200   0.428   5.809
 3666POPC   GL249514  11.077   0.096   5.925
 3666POPC   C1A49515  11.435   0.426   6.246
 3666POPC   D2A49516  11.508   0.771   6.608
 3666POPC   C3A49517  11.509   0.766   7.077
 3666POPC   C4A49518  11.597   0.381   7.302
 3666POPC   C1B49519  10.894   0.306   6.251
 3666POPC   C2B49520  11.038   0.519   6.558
 3666POPC   C3B49521  11.243   0.375   6.900
 3666POPC   C4B49522  11.074   0.222   7.274
 3667POPC   NC349523   7.256   7.477   5.356
 3667POPC   PO449524   7.845   7.122   5.486
 3667POPC   GL149525   7.599   7.441   5.749
 3667POPC   GL249526   7.683   7.785   5.821
 3667POPC   C1A49527   7.240   7.349   6.029
 3667POPC   D2A49528   7.123   7.394   6.490
 3667POPC   C3A49529   7.394   7.367   6.838
 3667POPC   C4A49530   7.352   7.088   7.155
 3667POPC   C1B49531   7.514   7.711   6.247
 3667POPC   C2B49532   7.392   7.851   6.645
 3667POPC   C3B49533   7.151   7.787   7.005
 3667POPC   C4B49534   7.236   7.787   7.422
 3668POPC   NC349535   5.462  41.377   5.373
 3668POPC   PO449536   5.113  41.999   5.301
 3668POPC   GL149537   5.083  41.730   5.722
 3668POPC   GL249538   5.345  41.491   5.859
 3668POPC   C1A49539   4.840  41.609   6.151
 3668POPC   D2A49540   4.866  41.359   6.561
 3668POPC   C3A49541   5.053  41.344   6.985
 3668POPC   C4A49542   4.871  41.236   7.400
 3668POPC   C1B49543   5.303  41.772   6.226
 3668POPC   C2B49544   5.074  41.822   6.636
 3668POPC   C3B49545   5.248  41.833   7.070
 3668POPC   C4B49546   5.571  41.983   7.379
 3669POPC   NC349547  40.544  43.474   5.519
 3669POPC   PO449548  40.973  42.932   5.384
 3669POPC   GL149549  40.839  43.132   5.741
 3669POPC   GL249550  41.048  43.431   5.740
 3669POPC   C1A49551  40.674  43.308   6.129
 3669POPC   D2A49552  40.820  43.381   6.536
 3669POPC   C3A49553  40.600  43.117   6.835
 3669POPC   C4A49554  40.682  43.234   7.249
 3669POPC   C1B49555  41.180  43.269   6.152
 3669POPC   C2B49556  41.320  43.161   6.538
 3669POPC   C3B49557  41.108  43.155   6.907
 3669POPC   C4B49558  41.214  43.229   7.286
 3670POPC   NC349559  18.091   4.655   4.989
 3670POPC   PO449560  18.021   5.218   5.468
 3670POPC   GL149561  18.365   5.207   5.819
 3670POPC   GL249562  18.257   5.524   5.935
 3670POPC   C1A49563  18.525   5.234   6.263
 3670POPC   D2A49564  18.524   5.047   6.665
 3670POPC   C3A49565  18.520   5.192   7.109
 3670POPC   C4A49566  18.484   5.090   7.568
 3670POPC   C1B49567  18.203   5.624   6.381
 3670POPC   C2B49568  18.150   5.381   6.725
 3670POPC   C3B49569  18.065   5.015   6.953
 3670POPC   C4B49570  18.026   5.172   7.364
 3671POPC   NC349571  10.196  36.677   5.307
 3671POPC   PO449572  10.282  37.339   5.465
 3671POPC   GL149573  10.287  37.038   5.796
 3671POPC   GL249574  10.470  36.740   5.739
 3671POPC   C1A49575  10.300  37.004   6.238
 3671POPC   D2A49576  10.444  37.194   6.609
 3671POPC   C3A49577  10.335  36.906   6.925
 3671POPC   C4A49578  10.212  36.834   7.346
 3671POPC   C1B49579  10.766  36.939   6.011
 3671POPC   C2B49580  10.839  36.926   6.436
 3671POPC   C3B49581  10.874  37.018   6.873
 3671POPC   C4B49582  10.712  36.871   7.272
 3672POPC   NC349583  15.495  36.231   5.271
 3672POPC   PO449584  14.889  36.337   5.459
 3672POPC   GL149585  15.035  36.038   5.775
 3672POPC   GL249586  15.401  35.948   5.738
 3672POPC   C1A49587  14.942  36.046   6.215
 3672POPC   D2A49588  15.202  36.034   6.570
 3672POPC   C3A49589  15.083  36.151   6.965
 3672POPC   C4A49590  14.974  36.020   7.344
 3672POPC   C1B49591  15.448  36.213   6.133
 3672POPC   C2B49592  15.607  36.326   6.572
 3672POPC   C3B49593  15.596  36.069   6.920
 3672POPC   C4B49594  15.466  35.957   7.297
 3673POPC   NC349595  20.077  36.319   5.419
 3673POPC   PO449596  19.710  35.785   5.336
 3673POPC   GL149597  19.669  35.898   5.776
 3673POPC   GL249598  19.960  36.087   5.872
 3673POPC   C1A49599  19.617  35.960   6.233
 3673POPC   D2A49600  19.873  35.958   6.604
 3673POPC   C3A49601  19.606  36.030   7.018
 3673POPC   C4A49602  19.686  36.078   7.505
 3673POPC   C1B49603  20.211  36.224   6.222
 3673POPC   C2B49604  20.103  36.425   6.633
 3673POPC   C3B49605  20.081  36.187   7.010
 3673POPC   C4B49606  20.183  36.220   7.407
 3674POPC   NC349607  30.337  14.963   5.394
 3674POPC   PO449608  30.858  15.350   5.483
 3674POPC   GL149609  30.751  15.021   5.788
 3674POPC   GL249610  30.449  15.200   5.831
 3674POPC   C1A49611  30.670  15.033   6.257
 3674POPC   D2A49612  30.603  15.240   6.642
 3674POPC   C3A49613  30.612  15.056   7.045
 3674POPC   C4A49614  30.884  15.392   7.157
 3674POPC   C1B49615  30.388  15.535   6.144
 3674POPC   C2B49616  30.372  15.696   6.571
 3674POPC   C3B49617  30.400  15.574   6.998
 3674POPC   C4B49618  30.505  15.696   7.403
 3675POPC   NC349619  35.925  28.766   5.652
 3675POPC   PO449620  36.267  28.217   5.439
 3675POPC   GL149621  36.107  28.285   5.856
 3675POPC   GL249622  35.756  28.293   5.821
 3675POPC   C1A49623  36.243  28.547   6.238
 3675POPC   D2A49624  36.378  28.669   6.652
 3675POPC   C3A49625  36.217  28.483   7.021
 3675POPC   C4A49626  36.103  28.638   7.448
 3675POPC   C1B49627  35.747  28.470   6.221
 3675POPC   C2B49628  35.834  28.697   6.560
 3675POPC   C3B49629  35.587  28.596   6.868
 3675POPC   C4B49630  35.760  28.339   7.171
 3676POPC   NC349631  16.257  20.376   5.473
 3676POPC   PO449632  15.650  20.642   5.477
 3676POPC   GL149633  15.774  20.727   5.898
 3676POPC   GL249634  16.080  20.873   5.919
 3676POPC   C1A49635  15.948  20.564   6.303
 3676POPC   D2A49636  16.039  20.496   6.722
 3676POPC   C3A49637  15.756  20.419   7.036
 3676POPC   C4A49638  15.769  20.569   7.431
 3676POPC   C1B49639  16.367  20.916   6.273
 3676POPC   C2B49640  16.235  20.963   6.707
 3676POPC   C3B49641  16.134  20.791   7.122
 3676POPC   C4B49642  16.357  20.579   7.414
 3677POPC   NC349643  39.554  35.307   5.259
 3677POPC   PO449644  40.125  35.551   5.285
 3677POPC   GL149645  39.918  35.282   5.629
 3677POPC   GL249646  40.168  35.214   5.869
 3677POPC   C1A49647  39.719  35.403   6.042
 3677POPC   D2A49648  39.621  35.351   6.509
 3677POPC   C3A49649  39.813  35.420   6.947
 3677POPC   C4A49650  39.994  35.160   7.326
 3677POPC   C1B49651  40.107  35.268   6.354
 3677POPC   C2B49652  40.277  35.281   6.782
 3677POPC   C3B49653  40.293  35.545   7.182
 3677POPC   C4B49654  40.287  35.446   7.658
 3678POPC   NC349655  19.136  44.608   5.458
 3678POPC   PO449656  18.740   0.119   5.740
 3678POPC   GL149657  19.075  44.827   5.917
 3678POPC   GL249658  18.962  44.482   5.951
 3678POPC   C1A49659  19.408  44.720   6.230
 3678POPC   D2A49660  19.455  44.959   6.623
 3678POPC   C3A49661  19.337  44.712   7.006
 3678POPC   C4A49662  19.077  44.484   7.355
 3678POPC   C1B49663  18.966  44.548   6.439
 3678POPC   C2B49664  18.965  44.363   6.872
 3678POPC   C3B49665  18.917  44.026   7.206
 3678POPC   C4B49666  18.920  44.077   7.651
 3679POPC   NC349667  10.780  25.331   5.408
 3679POPC   PO449668  10.173  25.011   5.397
 3679POPC   GL149669  10.379  25.289   5.719
 3679POPC   GL249670  10.542  24.982   5.817
 3679POPC   C1A49671  10.695  25.565   6.040
 3679POPC   D2A49672  10.908  25.651   6.486
 3679POPC   C3A49673  10.725  25.524   6.926
 3679POPC   C4A49674  10.390  25.444   7.266
 3679POPC   C1B49675  10.488  25.138   6.192
 3679POPC   C2B49676  10.632  25.190   6.554
 3679POPC   C3B49677  10.442  25.077   6.941
 3679POPC   C4B49678  10.531  24.948   7.346
 3680POPC   NC349679  36.423  35.657   5.409
 3680POPC   PO449680  35.820  35.416   5.188
 3680POPC   GL149681  36.056  35.251   5.613
 3680POPC   GL249682  36.278  35.442   5.837
 3680POPC   C1A49683  35.972  35.105   6.081
 3680POPC   D2A49684  35.857  35.241   6.537
 3680POPC   C3A49685  36.127  35.183   6.920
 3680POPC   C4A49686  36.490  35.041   7.119
 3680POPC   C1B49687  36.087  35.588   6.211
 3680POPC   C2B49688  36.340  35.493   6.564
 3680POPC   C3B49689  36.410  35.624   6.991
 3680POPC   C4B49690  36.610  35.863   7.339
 3681POPC   NC349691  23.803   3.076   5.474
 3681POPC   PO449692  23.258   2.566   5.413
 3681POPC   GL149693  23.540   2.734   5.768
 3681POPC   GL249694  23.607   3.067   5.931
 3681POPC   C1A49695  23.704   2.631   6.190
 3681POPC   D2A49696  24.062   2.610   6.464
 3681POPC   C3A49697  23.964   2.435   6.861
 3681POPC   C4A49698  23.969   2.580   7.269
 3681POPC   C1B49699  24.004   3.058   6.158
 3681POPC   C2B49700  23.964   3.113   6.606
 3681POPC   C3B49701  23.726   2.946   6.941
 3681POPC   C4B49702  23.449   2.688   7.143
 3682POPC   NC349703   1.673  18.191   5.570
 3682POPC   PO449704   1.142  18.399   5.255
 3682POPC   GL149705   1.236  18.489   5.693
 3682POPC   GL249706   0.905  18.513   5.815
 3682POPC   C1A49707   1.295  18.277   6.133
 3682POPC   D2A49708   1.532  18.110   6.498
 3682POPC   C3A49709   1.404  18.211   6.932
 3682POPC   C4A49710   1.362  18.271   7.377
 3682POPC   C1B49711   0.965  18.648   6.225
 3682POPC   C2B49712   1.011  18.388   6.597
 3682POPC   C3B49713   0.836  18.392   7.005
 3682POPC   C4B49714   0.956  18.617   7.390
 3683POPC   NC349715  24.038   6.331   5.330
 3683POPC   PO449716  24.713   6.636   5.468
 3683POPC   GL149717  24.395   6.429   5.728
 3683POPC   GL249718  24.312   6.752   5.861
 3683POPC   C1A49719  24.215   6.311   6.156
 3683POPC   D2A49720  24.427   6.185   6.557
 3683POPC   C3A49721  24.423   6.357   6.993
 3683POPC   C4A49722  24.808   6.425   7.230
 3683POPC   C1B49723  24.602   6.645   6.204
 3683POPC   C2B49724  24.682   6.656   6.652
 3683POPC   C3B49725  24.660   6.880   7.053
 3683POPC   C4B49726  24.777   7.009   7.478
 3684POPC   NC349727  38.669   2.151   5.423
 3684POPC   PO449728  38.233   1.687   5.482
 3684POPC   GL149729  38.422   1.879   5.850
 3684POPC   GL249730  38.582   2.186   5.902
 3684POPC   C1A49731  38.540   1.821   6.275
 3684POPC   D2A49732  38.381   1.739   6.693
 3684POPC   C3A49733  38.682   1.875   6.984
 3684POPC   C4A49734  38.547   1.788   7.403
 3684POPC   C1B49735  38.443   2.423   6.216
 3684POPC   C2B49736  38.357   2.242   6.597
 3684POPC   C3B49737  38.268   2.155   6.993
 3684POPC   C4B49738  38.523   2.286   7.286
 3685POPC   NC349739  36.627  26.226   5.409
 3685POPC   PO449740  37.154  25.730   5.380
 3685POPC   GL149741  36.982  25.953   5.740
 3685POPC   GL249742  36.669  25.772   5.706
 3685POPC   C1A49743  37.059  26.002   6.221
 3685POPC   D2A49744  37.048  25.741   6.628
 3685POPC   C3A49745  37.006  25.939   7.052
 3685POPC   C4A49746  36.922  25.818   7.496
 3685POPC   C1B49747  36.579  26.089   6.057
 3685POPC   C2B49748  36.466  26.180   6.494
 3685POPC   C3B49749  36.495  26.015   6.921
 3685POPC   C4B49750  36.647  26.223   7.303
 3686POPC   NC349751  12.362  14.460   5.527
 3686POPC   PO449752  12.972  14.244   5.331
 3686POPC   GL149753  12.806  14.352   5.778
 3686POPC   GL249754  12.515  14.211   5.958
 3686POPC   C1A49755  12.738  14.582   6.204
 3686POPC   D2A49756  12.816  14.668   6.648
 3686POPC   C3A49757  12.710  14.400   6.981
 3686POPC   C4A49758  12.799  14.485   7.381
 3686POPC   C1B49759  12.795  14.063   6.287
 3686POPC   C2B49760  12.972  14.108   6.680
 3686POPC   C3B49761  13.181  14.183   7.087
 3686POPC   C4B49762  13.261  14.338   7.505
 3687POPC   NC349763  40.354  22.035   5.251
 3687POPC   PO449764  39.875  21.629   5.177
 3687POPC   GL149765  40.077  21.953   5.637
 3687POPC   GL249766  39.914  22.260   5.766
 3687POPC   C1A49767  40.150  21.926   6.105
 3687POPC   D2A49768  40.264  22.139   6.515
 3687POPC   C3A49769  40.146  22.013   6.935
 3687POPC   C4A49770  40.274  22.177   7.330
 3687POPC   C1B49771  39.905  22.392   6.236
 3687POPC   C2B49772  39.790  22.346   6.711
 3687POPC   C3B49773  39.675  22.505   7.158
 3687POPC   C4B49774  39.773  22.529   7.620
 3688POPC   NC349775  32.407   1.862   5.433
 3688POPC   PO449776  32.257   2.516   5.448
 3688POPC   GL149777  32.164   2.192   5.746
 3688POPC   GL249778  32.532   2.164   5.839
 3688POPC   C1A49779  32.176   1.940   6.130
 3688POPC   D2A49780  32.057   2.007   6.572
 3688POPC   C3A49781  32.348   2.060   6.914
 3688POPC   C4A49782  32.133   1.902   7.278
 3688POPC   C1B49783  32.574   2.311   6.280
 3688POPC   C2B49784  32.823   2.197   6.647
 3688POPC   C3B49785  32.839   1.950   7.019
 3688POPC   C4B49786  32.619   2.001   7.384
 3689POPC   NC349787  39.641  13.024   5.464
 3689POPC   PO449788  38.968  12.947   5.518
 3689POPC   GL149789  39.120  12.779   5.871
 3689POPC   GL249790  39.407  12.734   5.802
 3689POPC   C1A49791  39.067  12.765   6.324
 3689POPC   D2A49792  39.291  12.919   6.635
 3689POPC   C3A49793  39.290  12.701   6.974
 3689POPC   C4A49794  38.965  12.612   7.223
 3689POPC   C1B49795  39.535  12.567   6.189
 3689POPC   C2B49796  39.731  12.668   6.575
 3689POPC   C3B49797  39.743  12.999   6.868
 3689POPC   C4B49798  39.725  12.760   7.216
 3690POPC   NC349799  41.685  29.362   5.493
 3690POPC   PO449800  41.232  29.036   5.108
 3690POPC   GL149801  41.272  29.152   5.622
 3690POPC   GL249802  41.536  28.887   5.718
 3690POPC   C1A49803  41.259  29.141   6.112
 3690POPC   D2A49804  41.253  29.325   6.568
 3690POPC   C3A49805  41.217  29.225   7.031
 3690POPC   C4A49806  41.354  29.297   7.485
 3690POPC   C1B49807  41.753  28.897   6.117
 3690POPC   C2B49808  41.660  29.012   6.518
 3690POPC   C3B49809  41.716  29.251   6.877
 3690POPC   C4B49810  41.763  29.061   7.277
 3691POPC   NC349811  11.642  43.107   5.458
 3691POPC   PO449812  10.965  43.230   5.454
 3691POPC   GL149813  11.242  43.189   5.793
 3691POPC   GL249814  11.345  42.848   5.770
 3691POPC   C1A49815  11.438  43.081   6.202
 3691POPC   D2A49816  11.385  42.869   6.584
 3691POPC   C3A49817  11.496  43.022   6.985
 3691POPC   C4A49818  11.388  43.061   7.411
 3691POPC   C1B49819  10.970  42.804   6.063
 3691POPC   C2B49820  10.881  42.719   6.523
 3691POPC   C3B49821  10.978  42.896   6.931
 3691POPC   C4B49822  10.927  42.851   7.357
 3692POPC   NC349823  21.964  39.509   5.415
 3692POPC   PO449824  22.323  38.968   5.482
 3692POPC   GL149825  22.229  39.281   5.790
 3692POPC   GL249826  21.848  39.283   5.854
 3692POPC   C1A49827  22.234  39.502   6.179
 3692POPC   D2A49828  22.380  39.430   6.601
 3692POPC   C3A49829  22.125  39.438   7.004
 3692POPC   C4A49830  22.040  39.319   7.450
 3692POPC   C1B49831  21.977  39.054   6.229
 3692POPC   C2B49832  22.043  39.043   6.677
 3692POPC   C3B49833  21.991  38.919   7.106
 3692POPC   C4B49834  21.841  38.796   7.500
 3693POPC   NC349835   3.250  38.200   5.466
 3693POPC   PO449836   3.389  38.854   5.607
 3693POPC   GL149837   3.406  38.537   5.918
 3693POPC   GL249838   3.707  38.363   5.934
 3693POPC   C1A49839   3.397  38.327   6.336
 3693POPC   D2A49840   3.438  38.052   6.707
 3693POPC   C3A49841   3.464  38.277   7.114
 3693POPC   C4A49842   3.256  38.119   7.504
 3693POPC   C1B49843   3.709  38.721   6.286
 3693POPC   C2B49844   3.558  38.833   6.664
 3693POPC   C3B49845   3.705  38.751   7.053
 3693POPC   C4B49846   3.724  38.644   7.483
 3694POPC   NC349847   3.250   7.073   5.437
 3694POPC   PO449848   3.885   7.325   5.438
 3694POPC   GL149849   3.681   7.294   5.809
 3694POPC   GL249850   3.804   7.640   5.866
 3694POPC   C1A49851   3.468   7.245   6.223
 3694POPC   D2A49852   3.560   7.021   6.617
 3694POPC   C3A49853   3.605   7.227   7.012
 3694POPC   C4A49854   3.819   7.579   7.174
 3694POPC   C1B49855   3.617   7.727   6.274
 3694POPC   C2B49856   3.405   7.560   6.643
 3694POPC   C3B49857   3.342   7.702   7.048
 3694POPC   C4B49858   3.149   7.568   7.435
 3695POPC   NC349859  30.675   4.141   5.351
 3695POPC   PO449860  30.746   4.868   5.456
 3695POPC   GL149861  30.712   4.496   5.768
 3695POPC   GL249862  30.775   4.090   5.831
 3695POPC   C1A49863  30.947   4.423   6.159
 3695POPC   D2A49864  31.071   4.464   6.569
 3695POPC   C3A49865  30.892   4.769   6.831
 3695POPC   C4A49866  30.750   4.613   7.199
 3695POPC   C1B49867  30.449   4.225   6.098
 3695POPC   C2B49868  30.528   4.528   6.420
 3695POPC   C3B49869  30.588   4.354   6.793
 3695POPC   C4B49870  30.540   4.135   7.179
 3696POPC   NC349871   9.416   0.527   5.555
 3696POPC   PO449872  10.017   0.323   5.366
 3696POPC   GL149873   9.878   0.515   5.809
 3696POPC   GL249874  10.033   0.252   5.941
 3696POPC   C1A49875   9.596   0.661   6.193
 3696POPC   D2A49876   9.371   0.780   6.602
 3696POPC   C3A49877   9.509   0.467   6.915
 3696POPC   C4A49878   9.797   0.389   7.227
 3696POPC   C1B49879   9.900   0.254   6.360
 3696POPC   C2B49880   9.921   0.130   6.788
 3696POPC   C3B49881  10.136   0.002   7.158
 3696POPC   C4B49882   9.973   0.061   7.593
 3697POPC   NC349883  11.756  28.239   5.580
 3697POPC   PO449884  12.368  28.427   5.445
 3697POPC   GL149885  12.163  28.442   5.812
 3697POPC   GL249886  12.225  28.075   5.825
 3697POPC   C1A49887  12.124  28.561   6.240
 3697POPC   D2A49888  11.983  28.342   6.592
 3697POPC   C3A49889  12.188  28.291   6.938
 3697POPC   C4A49890  12.108  28.419   7.353
 3697POPC   C1B49891  12.317  28.070   6.256
 3697POPC   C2B49892  12.183  27.864   6.603
 3697POPC   C3B49893  12.432  27.813   6.929
 3697POPC   C4B49894  12.550  28.111   7.262
 3698POPC   NC349895  38.066  10.239   5.331
 3698POPC   PO449896  38.754  10.507   5.360
 3698POPC   GL149897  38.504  10.478   5.746
 3698POPC   GL249898  38.335  10.186   5.780
 3698POPC   C1A49899  38.366  10.622   6.157
 3698POPC   D2A49900  38.543  10.785   6.568
 3698POPC   C3A49901  38.370  10.648   6.990
 3698POPC   C4A49902  38.638  10.516   7.357
 3698POPC   C1B49903  38.559  10.120   6.169
 3698POPC   C2B49904  38.501   9.945   6.605
 3698POPC   C3B49905  38.557  10.138   6.999
 3698POPC   C4B49906  38.207  10.218   7.283
 3699POPC   NC349907  11.043  23.827   5.312
 3699POPC   PO449908  11.675  23.829   5.572
 3699POPC   GL149909  11.355  23.608   5.759
 3699POPC   GL249910  11.185  23.901   5.824
 3699POPC   C1A49911  11.351  23.435   6.175
 3699POPC   D2A49912  11.209  23.380   6.588
 3699POPC   C3A49913  11.475  23.426   6.952
 3699POPC   C4A49914  11.608  23.266   7.322
 3699POPC   C1B49915  11.424  23.958   6.213
 3699POPC   C2B49916  11.460  23.835   6.641
 3699POPC   C3B49917  11.283  23.912   7.048
 3699POPC   C4B49918  11.388  23.710   7.431
 3700POPC   NC349919  18.300   7.190   5.643
 3700POPC   PO449920  18.301   7.862   5.598
 3700POPC   GL149921  18.093   7.611   5.893
 3700POPC   GL249922  18.437   7.526   5.994
 3700POPC   C1A49923  18.052   7.382   6.281
 3700POPC   D2A49924  18.166   7.443   6.708
 3700POPC   C3A49925  17.972   7.274   7.072
 3700POPC   C4A49926  18.255   7.105   7.388
 3700POPC   C1B49927  18.532   7.710   6.369
 3700POPC   C2B49928  18.601   7.686   6.788
 3700POPC   C3B49929  18.406   7.562   7.152
 3700POPC   C4B49930  18.088   7.614   7.447
 3701POPC   NC349931  38.169  27.617   5.452
 3701POPC   PO449932  38.807  27.368   5.704
 3701POPC   GL149933  38.474  27.637   5.882
 3701POPC   GL249934  38.172  27.420   5.907
 3701POPC   C1A49935  38.448  27.878   6.306
 3701POPC   D2A49936  38.554  27.970   6.750
 3701POPC   C3A49937  38.392  27.730   7.058
 3701POPC   C4A49938  38.510  27.456   7.407
 3701POPC   C1B49939  38.393  27.309   6.257
 3701POPC   C2B49940  38.554  27.441   6.637
 3701POPC   C3B49941  38.325  27.246   6.954
 3701POPC   C4B49942  38.052  27.283   7.276
 3702POPC   NC349943  12.450   1.989   5.485
 3702POPC   PO449944  12.944   2.377   5.481
 3702POPC   GL149945  12.920   2.050   5.840
 3702POPC   GL249946  12.618   1.869   5.951
 3702POPC   C1A49947  13.017   2.035   6.307
 3702POPC   D2A49948  13.072   2.424   6.586
 3702POPC   C3A49949  13.044   2.381   7.032
 3702POPC   C4A49950  12.834   2.044   7.236
 3702POPC   C1B49951  12.534   1.720   6.348
 3702POPC   C2B49952  12.722   1.760   6.765
 3702POPC   C3B49953  12.474   1.682   7.142
 3702POPC   C4B49954  12.453   1.890   7.558
 3703POPC   NC349955  31.204  34.420   5.538
 3703POPC   PO449956  30.577  34.562   5.365
 3703POPC   GL149957  30.737  34.569   5.750
 3703POPC   GL249958  30.975  34.784   5.845
 3703POPC   C1A49959  30.548  34.636   6.120
 3703POPC   D2A49960  30.588  34.864   6.466
 3703POPC   C3A49961  30.488  34.576   6.744
 3703POPC   C4A49962  30.466  34.517   7.171
 3703POPC   C1B49963  31.052  34.650   6.221
 3703POPC   C2B49964  31.084  34.768   6.626
 3703POPC   C3B49965  30.939  34.580   6.961
 3703POPC   C4B49966  30.951  34.543   7.359
 3704POPC   NC349967  32.538  31.616   5.333
 3704POPC   PO449968  31.927  31.775   5.211
 3704POPC   GL149969  32.130  31.808   5.666
 3704POPC   GL249970  32.417  31.561   5.822
 3704POPC   C1A49971  32.243  31.916   6.111
 3704POPC   D2A49972  32.447  31.660   6.437
 3704POPC   C3A49973  32.214  31.578   6.815
 3704POPC   C4A49974  32.168  31.734   7.224
 3704POPC   C1B49975  32.066  31.431   6.135
 3704POPC   C2B49976  32.003  31.194   6.528
 3704POPC   C3B49977  31.800  31.205   6.946
 3704POPC   C4B49978  31.863  31.331   7.382
 3705POPC   NC349979  13.086  24.679   5.357
 3705POPC   PO449980  12.441  24.459   5.447
 3705POPC   GL149981  12.670  24.473   5.851
 3705POPC   GL249982  13.019  24.482   5.827
 3705POPC   C1A49983  12.831  24.351   6.269
 3705POPC   D2A49984  12.808  24.212   6.678
 3705POPC   C3A49985  12.543  24.237   7.051
 3705POPC   C4A49986  12.398  24.665   7.179
 3705POPC   C1B49987  13.242  24.661   6.182
 3705POPC   C2B49988  13.142  24.609   6.625
 3705POPC   C3B49989  12.921  24.705   7.028
 3705POPC   C4B49990  12.827  24.522   7.430
 3706POPC   NC349991  11.230  38.292   5.069
 3706POPC   PO449992  11.517  38.844   5.433
 3706POPC   GL149993  11.406  38.571   5.791
 3706POPC   GL249994  11.111  38.363   5.739
 3706POPC   C1A49995  11.417  38.713   6.237
 3706POPC   D2A49996  11.569  38.615   6.663
 3706POPC   C3A49997  11.329  38.708   7.036
 3706POPC   C4A49998  10.937  38.925   7.175
 3706POPC   C1B49999  11.283  38.208   6.155
 3706POPC   C2B50000  11.541  38.125   6.544
 3706POPC   C3B50001  11.383  38.192   6.960
 3706POPC   C4B50002  11.109  38.147   7.307
 3707POPC   NC350003  40.124  32.101   5.411
 3707POPC   PO450004  39.832  32.612   5.689
 3707POPC   GL150005  40.151  32.434   5.839
 3707POPC   GL250006  39.981  32.156   5.911
 3707POPC   C1A50007  40.204  32.515   6.260
 3707POPC   D2A50008  40.206  32.243   6.590
 3707POPC   C3A50009  40.144  32.344   7.011
 3707POPC   C4A50010  40.075  32.162   7.422
 3707POPC   C1B50011  39.677  31.834   6.063
 3707POPC   C2B50012  39.649  31.895   6.505
 3707POPC   C3B50013  39.478  32.238   6.742
 3707POPC   C4B50014  39.647  32.250   7.155
 3708POPC   NC350015  10.683   1.335   5.559
 3708POPC   PO450016  10.338   1.219   4.960
 3708POPC   GL150017  10.188   1.276   5.548
 3708POPC   GL250018  10.303   1.562   5.824
 3708POPC   C1A50019  10.345   1.139   6.077
 3708POPC   D2A50020  10.324   1.245   6.573
 3708POPC   C3A50021  10.523   1.068   7.000
 3708POPC   C4A50022  10.686   1.144   7.429
 3708POPC   C1B50023  10.639   1.556   6.180
 3708POPC   C2B50024  10.852   1.744   6.568
 3708POPC   C3B50025  10.937   1.634   7.013
 3708POPC   C4B50026  10.525   1.562   7.209
 3709POPC   NC350027   1.116  33.077   5.366
 3709POPC   PO450028   1.721  33.129   5.253
 3709POPC   GL150029   1.479  32.957   5.719
 3709POPC   GL250030   1.113  32.897   5.862
 3709POPC   C1A50031   1.524  32.850   6.188
 3709POPC   D2A50032   1.390  32.990   6.626
 3709POPC   C3A50033   1.546  32.821   7.047
 3709POPC   C4A50034   1.515  32.919   7.513
 3709POPC   C1B50035   1.053  33.241   6.180
 3709POPC   C2B50036   1.039  33.370   6.634
 3709POPC   C3B50037   1.083  33.129   7.043
 3709POPC   C4B50038   0.945  33.091   7.472
 3710POPC   NC350039  40.688  27.919   5.329
 3710POPC   PO450040  40.711  27.215   5.286
 3710POPC   GL150041  40.882  27.541   5.635
 3710POPC   GL250042  40.645  27.758   5.830
 3710POPC   C1A50043  41.045  27.549   6.086
 3710POPC   D2A50044  40.878  27.706   6.491
 3710POPC   C3A50045  41.129  27.685   6.881
 3710POPC   C4A50046  41.117  27.863   7.290
 3710POPC   C1B50047  40.329  27.750   6.169
 3710POPC   C2B50048  40.375  27.639   6.606
 3710POPC   C3B50049  40.647  27.669   6.962
 3710POPC   C4B50050  40.776  27.351   7.290
 3711POPC   NC350051  37.505  33.955   5.274
 3711POPC   PO450052  38.094  33.676   5.498
 3711POPC   GL150053  37.894  33.608   5.859
 3711POPC   GL250054  37.608  33.789   5.754
 3711POPC   C1A50055  37.791  33.757   6.279
 3711POPC   D2A50056  37.972  33.926   6.609
 3711POPC   C3A50057  37.954  33.692   6.955
 3711POPC   C4A50058  38.038  33.899   7.302
 3711POPC   C1B50059  37.390  34.020   6.073
 3711POPC   C2B50060  37.203  33.930   6.472
 3711POPC   C3B50061  37.492  33.894   6.826
 3711POPC   C4B50062  37.506  33.842   7.261
 3712POPC   NC350063   5.320  11.719   5.563
 3712POPC   PO450064   5.919  11.937   5.487
 3712POPC   GL150065   6.102  11.872   5.873
 3712POPC   GL250066   5.953  11.571   5.922
 3712POPC   C1A50067   6.196  12.025   6.290
 3712POPC   D2A50068   6.187  11.969   6.736
 3712POPC   C3A50069   5.787  12.146   6.827
 3712POPC   C4A50070   5.505  12.278   7.141
 3712POPC   C1B50071   5.694  11.826   6.209
 3712POPC   C2B50072   5.453  11.791   6.610
 3712POPC   C3B50073   5.514  11.755   7.047
 3712POPC   C4B50074   5.889  11.842   7.240
 3713POPC   NC350075   8.967  40.675   5.621
 3713POPC   PO450076   9.258  41.061   5.154
 3713POPC   GL150077   9.334  40.987   5.721
 3713POPC   GL250078   9.457  40.724   5.958
 3713POPC   C1A50079   9.075  40.961   6.180
 3713POPC   D2A50080   8.744  40.976   6.503
 3713POPC   C3A50081   8.757  40.727   6.863
 3713POPC   C4A50082   8.806  40.909   7.225
 3713POPC   C1B50083   9.238  40.452   6.179
 3713POPC   C2B50084   9.064  40.448   6.574
 3713POPC   C3B50085   9.214  40.508   7.016
 3713POPC   C4B50086   9.142  40.631   7.454
 3714POPC   NC350087  16.254  35.721   5.410
 3714POPC   PO450088  15.961  35.124   5.493
 3714POPC   GL150089  15.853  35.218   5.903
 3714POPC   GL250090  15.715  35.544   5.922
 3714POPC   C1A50091  16.111  35.311   6.238
 3714POPC   D2A50092  16.058  35.228   6.656
 3714POPC   C3A50093  15.907  35.079   7.016
 3714POPC   C4A50094  16.103  35.336   7.308
 3714POPC   C1B50095  15.638  35.367   6.365
 3714POPC   C2B50096  15.695  35.577   6.773
 3714POPC   C3B50097  15.632  35.481   7.209
 3714POPC   C4B50098  15.764  35.586   7.626
 3715POPC   NC350099  39.228  21.603   5.475
 3715POPC   PO450100  39.299  20.855   5.440
 3715POPC   GL150101  39.257  21.155   5.740
 3715POPC   GL250102  39.604  21.161   5.769
 3715POPC   C1A50103  38.989  21.308   6.095
 3715POPC   D2A50104  38.963  21.485   6.496
 3715POPC   C3A50105  38.990  21.205   6.846
 3715POPC   C4A50106  39.067  21.343   7.263
 3715POPC   C1B50107  39.488  21.379   6.167
 3715POPC   C2B50108  39.441  21.364   6.607
 3715POPC   C3B50109  39.490  21.203   7.005
 3715POPC   C4B50110  39.686  21.055   7.355
 3716POPC   NC350111  30.255   5.869   5.525
 3716POPC   PO450112  29.590   6.017   5.568
 3716POPC   GL150113  29.846   5.861   5.904
 3716POPC   GL250114  30.015   5.535   5.836
 3716POPC   C1A50115  29.741   5.783   6.328
 3716POPC   D2A50116  29.793   5.701   6.763
 3716POPC   C3A50117  29.581   5.948   7.048
 3716POPC   C4A50118  29.564   5.812   7.471
 3716POPC   C1B50119  30.282   5.673   6.164
 3716POPC   C2B50120  30.212   5.891   6.531
 3716POPC   C3B50121  30.304   5.720   6.922
 3716POPC   C4B50122  30.033   5.792   7.242
 3717POPC   NC350123   9.374   8.635   5.182
 3717POPC   PO450124   8.684   8.843   5.181
 3717POPC   GL150125   8.683   8.990   5.724
 3717POPC   GL250126   8.709   8.678   5.888
 3717POPC   C1A50127   8.918   9.065   6.166
 3717POPC   D2A50128   9.223   9.205   6.530
 3717POPC   C3A50129   9.040   9.187   6.974
 3717POPC   C4A50130   9.133   8.903   7.326
 3717POPC   C1B50131   8.517   8.739   6.291
 3717POPC   C2B50132   8.515   8.925   6.708
 3717POPC   C3B50133   8.703   8.786   7.089
 3717POPC   C4B50134   8.646   8.830   7.543
 3718POPC   NC350135   8.035  30.605   5.369
 3718POPC   PO450136   8.585  31.006   5.342
 3718POPC   GL150137   8.356  30.909   5.741
 3718POPC   GL250138   8.018  31.062   5.674
 3718POPC   C1A50139   8.405  30.835   6.225
 3718POPC   D2A50140   8.302  30.548   6.573
 3718POPC   C3A50141   8.065  30.602   6.942
 3718POPC   C4A50142   8.214  30.905   7.234
 3718POPC   C1B50143   7.948  30.880   6.082
 3718POPC   C2B50144   8.024  30.996   6.518
 3718POPC   C3B50145   7.806  31.044   6.912
 3718POPC   C4B50146   7.696  30.813   7.260
 3719POPC   NC350147  40.674  23.494   5.482
 3719POPC   PO450148  40.469  24.134   5.600
 3719POPC   GL150149  40.826  23.933   5.828
 3719POPC   GL250150  40.875  23.575   5.937
 3719POPC   C1A50151  41.109  23.963   6.170
 3719POPC   D2A50152  41.086  23.679   6.516
 3719POPC   C3A50153  40.927  23.786   6.915
 3719POPC   C4A50154  40.994  23.449   7.145
 3719POPC   C1B50155  40.606  23.753   6.281
 3719POPC   C2B50156  40.401  23.762   6.706
 3719POPC   C3B50157  40.472  23.615   7.137
 3719POPC   C4B50158  40.380  23.765   7.587
 3720POPC   NC350159  43.995   9.866   5.689
 3720POPC   PO450160  43.430   9.611   5.638
 3720POPC   GL150161  43.613   9.686   5.990
 3720POPC   GL250162  43.834   9.421   5.918
 3720POPC   C1A50163  43.682   9.873   6.385
 3720POPC   D2A50164  43.885   9.724   6.762
 3720POPC   C3A50165  43.764   9.946   7.155
 3720POPC   C4A50166  43.518  10.054   7.537
 3720POPC   C1B50167  44.109   9.499   6.246
 3720POPC   C2B50168  44.378   9.209   6.507
 3720POPC   C3B50169  44.248   9.243   6.933
 3720POPC   C4B50170  44.155   9.620   7.206
 3721POPC   NC350171  12.674  20.779   5.353
 3721POPC   PO450172  13.311  20.449   5.215
 3721POPC   GL150173  13.066  20.644   5.635
 3721POPC   GL250174  12.715  20.437   5.732
 3721POPC   C1A50175  12.903  20.776   6.060
 3721POPC   D2A50176  12.846  20.591   6.496
 3721POPC   C3A50177  12.737  20.826   6.854
 3721POPC   C4A50178  12.911  20.652   7.229
 3721POPC   C1B50179  12.623  20.283   6.161
 3721POPC   C2B50180  12.592  20.067   6.568
 3721POPC   C3B50181  12.660  20.286   6.961
 3721POPC   C4B50182  12.506  20.360   7.407
 3722POPC   NC350183  20.961   4.968   5.518
 3722POPC   PO450184  20.317   4.942   5.528
 3722POPC   GL150185  20.472   5.193   5.853
 3722POPC   GL250186  20.759   5.414   5.819
 3722POPC   C1A50187  20.424   5.111   6.272
 3722POPC   D2A50188  20.254   4.928   6.597
 3722POPC   C3A50189  20.362   5.083   7.000
 3722POPC   C4A50190  20.389   5.114   7.459
 3722POPC   C1B50191  20.827   5.402   6.277
 3722POPC   C2B50192  20.777   5.174   6.682
 3722POPC   C3B50193  20.837   5.296   7.133
 3722POPC   C4B50194  20.903   5.131   7.566
 3723POPC   NC350195  38.395  11.741   5.648
 3723POPC   PO450196  38.330  12.351   5.572
 3723POPC   GL150197  38.449  12.192   5.904
 3723POPC   GL250198  38.754  12.081   5.839
 3723POPC   C1A50199  38.528  12.246   6.321
 3723POPC   D2A50200  38.400  11.947   6.587
 3723POPC   C3A50201  38.471  12.104   6.981
 3723POPC   C4A50202  38.579  11.856   7.324
 3723POPC   C1B50203  38.814  11.828   6.228
 3723POPC   C2B50204  38.912  11.977   6.670
 3723POPC   C3B50205  38.976  12.113   7.125
 3723POPC   C4B50206  38.984  12.026   7.598
 3724POPC   NC350207   0.294  16.410   5.397
 3724POPC   PO450208   0.282  16.964   5.556
 3724POPC   GL150209   0.423  16.860   5.934
 3724POPC   GL250210   0.563  16.534   5.862
 3724POPC   C1A50211   0.272  16.973   6.336
 3724POPC   D2A50212   0.172  16.715   6.671
 3724POPC   C3A50213   0.272  16.902   7.080
 3724POPC   C4A50214   0.231  16.875   7.557
 3724POPC   C1B50215   0.545  16.524   6.336
 3724POPC   C2B50216   0.667  16.680   6.775
 3724POPC   C3B50217   0.628  16.581   7.239
 3724POPC   C4B50218   0.551  16.480   7.679
 3725POPC   NC350219  26.273  23.712   4.948
 3725POPC   PO450220  26.645  23.832   5.370
 3725POPC   GL150221  26.416  23.743   5.803
 3725POPC   GL250222  26.279  23.402   5.914
 3725POPC   C1A50223  26.226  23.781   6.263
 3725POPC   D2A50224  26.242  23.631   6.727
 3725POPC   C3A50225  26.084  23.817   7.134
 3725POPC   C4A50226  26.122  23.683   7.586
 3725POPC   C1B50227  26.141  23.265   6.366
 3725POPC   C2B50228  25.954  23.203   6.801
 3725POPC   C3B50229  25.925  23.345   7.243
 3725POPC   C4B50230  25.785  23.109   7.619
 3726POPC   NC350231   8.820  32.646   5.234
 3726POPC   PO450232   9.070  33.247   5.243
 3726POPC   GL150233   8.907  33.165   5.666
 3726POPC   GL250234   8.881  32.814   5.729
 3726POPC   C1A50235   9.062  33.116   6.113
 3726POPC   D2A50236   9.153  33.010   6.554
 3726POPC   C3A50237   9.063  33.263   6.949
 3726POPC   C4A50238   9.106  33.152   7.363
 3726POPC   C1B50239   8.765  32.670   6.160
 3726POPC   C2B50240   8.845  32.573   6.610
 3726POPC   C3B50241   8.904  32.782   6.975
 3726POPC   C4B50242   8.626  32.998   7.224
 3727POPC   NC350243   0.924  22.784   5.610
 3727POPC   PO450244   0.205  22.963   5.405
 3727POPC   GL150245   0.454  22.912   5.768
 3727POPC   GL250246   0.152  22.896   5.950
 3727POPC   C1A50247   0.580  22.841   6.212
 3727POPC   D2A50248   0.315  22.896   6.579
 3727POPC   C3A50249   0.519  22.931   6.985
 3727POPC   C4A50250   0.779  23.040   7.349
 3727POPC   C1B50251   0.150  22.510   6.216
 3727POPC   C2B50252   0.233  22.374   6.647
 3727POPC   C3B50253   0.144  22.568   7.066
 3727POPC   C4B50254   0.177  22.577   7.523
 3728POPC   NC350255  43.117  22.759   5.215
 3728POPC   PO450256  43.083  22.114   5.452
 3728POPC   GL150257  43.151  22.106   5.867
 3728POPC   GL250258  43.492  21.972   5.962
 3728POPC   C1A50259  43.049  22.017   6.267
 3728POPC   D2A50260  43.229  22.122   6.638
 3728POPC   C3A50261  42.952  22.170   6.955
 3728POPC   C4A50262  43.149  22.214   7.312
 3728POPC   C1B50263  43.438  22.379   6.210
 3728POPC   C2B50264  43.420  22.671   6.567
 3728POPC   C3B50265  43.410  22.500   6.975
 3728POPC   C4B50266  43.648  22.555   7.341
 3729POPC   NC350267  24.306   4.735   5.466
 3729POPC   PO450268  24.558   4.164   5.348
 3729POPC   GL150269  24.576   4.230   5.775
 3729POPC   GL250270  24.782   4.538   5.733
 3729POPC   C1A50271  24.324   4.174   6.157
 3729POPC   D2A50272  24.044   4.432   6.442
 3729POPC   C3A50273  24.155   4.332   6.876
 3729POPC   C4A50274  24.353   4.314   7.298
 3729POPC   C1B50275  24.582   4.624   6.126
 3729POPC   C2B50276  24.570   4.448   6.529
 3729POPC   C3B50277  24.660   4.502   6.940
 3729POPC   C4B50278  24.934   4.495   7.290
 3730POPC   NC350279  20.428   9.301   5.458
 3730POPC   PO450280  20.777   9.867   5.425
 3730POPC   GL150281  20.670   9.777   5.857
 3730POPC   GL250282  20.738   9.410   5.859
 3730POPC   C1A50283  20.699   9.756   6.330
 3730POPC   D2A50284  20.881   9.806   6.768
 3730POPC   C3A50285  20.643  10.020   7.130
 3730POPC   C4A50286  20.749  10.159   7.586
 3730POPC   C1B50287  20.577   9.249   6.236
 3730POPC   C2B50288  20.557   9.360   6.676
 3730POPC   C3B50289  20.597   9.463   7.097
 3730POPC   C4B50290  20.970   9.650   7.272
 3731POPC   NC350291  34.566  24.889   5.539
 3731POPC   PO450292  34.439  25.531   5.403
 3731POPC   GL150293  34.682  25.355   5.741
 3731POPC   GL250294  34.484  25.447   5.997
 3731POPC   C1A50295  35.005  25.347   6.105
 3731POPC   D2A50296  34.963  25.217   6.564
 3731POPC   C3A50297  34.687  25.472   6.899
 3731POPC   C4A50298  34.547  25.301   7.330
 3731POPC   C1B50299  34.582  25.086   6.254
 3731POPC   C2B50300  34.490  25.027   6.707
 3731POPC   C3B50301  34.400  24.870   7.125
 3731POPC   C4B50302  34.149  24.927   7.514
 3732POPC   NC350303  42.422  29.906   5.342
 3732POPC   PO450304  41.858  29.772   5.626
 3732POPC   GL150305  42.135  30.125   5.865
 3732POPC   GL250306  42.525  30.180   5.836
 3732POPC   C1A50307  42.161  30.156   6.316
 3732POPC   D2A50308  42.122  29.798   6.593
 3732POPC   C3A50309  42.151  29.937   7.001
 3732POPC   C4A50310  42.511  29.826   7.244
 3732POPC   C1B50311  42.677  30.168   6.296
 3732POPC   C2B50312  42.624  30.084   6.748
 3732POPC   C3B50313  42.735  30.272   7.159
 3732POPC   C4B50314  42.751  30.227   7.655
 3733POPC   NC350315   6.243  11.569   5.482
 3733POPC   PO450316   6.021  11.003   5.189
 3733POPC   GL150317   6.000  11.039   5.674
 3733POPC   GL250318   5.669  11.167   5.753
 3733POPC   C1A50319   6.112  11.143   6.130
 3733POPC   D2A50320   5.980  11.481   6.460
 3733POPC   C3A50321   6.032  11.499   6.888
 3733POPC   C4A50322   6.100  11.333   7.281
 3733POPC   C1B50323   5.592  11.285   6.201
 3733POPC   C2B50324   5.400  11.271   6.637
 3733POPC   C3B50325   5.606  11.248   7.038
 3733POPC   C4B50326   5.625  11.434   7.440
 3734POPC   NC350327  34.944  30.431   5.522
 3734POPC   PO450328  34.470  30.864   5.326
 3734POPC   GL150329  34.514  30.669   5.755
 3734POPC   GL250330  34.281  30.899   5.911
 3734POPC   C1A50331  34.721  30.575   6.196
 3734POPC   D2A50332  34.820  30.753   6.656
 3734POPC   C3A50333  34.662  30.517   7.056
 3734POPC   C4A50334  34.699  30.516   7.528
 3734POPC   C1B50335  34.353  30.891   6.354
 3734POPC   C2B50336  34.304  30.711   6.741
 3734POPC   C3B50337  34.338  30.960   7.091
 3734POPC   C4B50338  34.305  30.839   7.529
 3735POPC   NC350339  25.982  21.797   4.849
 3735POPC   PO450340  26.226  22.091   5.374
 3735POPC   GL150341  26.013  21.961   5.800
 3735POPC   GL250342  26.138  22.273   5.918
 3735POPC   C1A50343  25.899  21.995   6.279
 3735POPC   D2A50344  26.062  22.136   6.696
 3735POPC   C3A50345  25.954  21.942   7.084
 3735POPC   C4A50346  25.813  22.087   7.480
 3735POPC   C1B50347  26.054  22.496   6.323
 3735POPC   C2B50348  26.116  22.644   6.763
 3735POPC   C3B50349  25.945  22.451   7.135
 3735POPC   C4B50350  25.798  22.586   7.530
 3736POPC   NC350351  32.793  17.740   5.414
 3736POPC   PO450352  33.285  17.160   5.380
 3736POPC   GL150353  33.152  17.479   5.702
 3736POPC   GL250354  32.793  17.403   5.774
 3736POPC   C1A50355  33.058  17.677   6.122
 3736POPC   D2A50356  33.051  17.504   6.556
 3736POPC   C3A50357  33.275  17.602   6.929
 3736POPC   C4A50358  33.007  17.881   7.134
 3736POPC   C1B50359  32.588  17.425   6.144
 3736POPC   C2B50360  32.528  17.556   6.519
 3736POPC   C3B50361  32.629  17.487   6.931
 3736POPC   C4B50362  32.616  17.569   7.346
 3737POPC   NC350363  37.519  18.664   5.491
 3737POPC   PO450364  37.832  18.089   5.292
 3737POPC   GL150365  37.743  18.249   5.730
 3737POPC   GL250366  37.423  18.202   5.817
 3737POPC   C1A50367  37.777  18.380   6.198
 3737POPC   D2A50368  37.979  18.678   6.475
 3737POPC   C3A50369  37.939  18.500   6.868
 3737POPC   C4A50370  37.924  18.620   7.288
 3737POPC   C1B50371  37.404  18.050   6.259
 3737POPC   C2B50372  37.496  18.262   6.662
 3737POPC   C3B50373  37.521  18.326   7.099
 3737POPC   C4B50374  37.508  17.966   7.296
 3738POPC   NC350375  24.139   8.914   5.412
 3738POPC   PO450376  23.514   9.166   5.202
 3738POPC   GL150377  23.656   8.925   5.661
 3738POPC   GL250378  23.665   8.558   5.895
 3738POPC   C1A50379  23.665   8.990   6.152
 3738POPC   D2A50380  23.588   8.773   6.590
 3738POPC   C3A50381  23.449   9.087   6.926
 3738POPC   C4A50382  23.616   9.254   7.324
 3738POPC   C1B50383  23.956   8.577   6.249
 3738POPC   C2B50384  24.104   8.749   6.655
 3738POPC   C3B50385  23.876   8.822   7.041
 3738POPC   C4B50386  23.475   8.595   7.132
 3739POPC   NC350387   3.202   4.456   5.483
 3739POPC   PO450388   3.845   4.145   5.512
 3739POPC   GL150389   3.571   4.340   5.794
 3739POPC   GL250390   3.686   4.686   5.684
 3739POPC   C1A50391   3.468   4.230   6.220
 3739POPC   D2A50392   3.619   4.006   6.580
 3739POPC   C3A50393   3.555   4.273   6.881
 3739POPC   C4A50394   3.304   4.312   7.196
 3739POPC   C1B50395   3.653   4.711   6.140
 3739POPC   C2B50396   3.861   4.515   6.488
 3739POPC   C3B50397   3.887   4.656   6.917
 3739POPC   C4B50398   3.757   4.535   7.312
 3740POPC   NC350399  29.683  32.385   5.606
 3740POPC   PO450400  29.039  32.582   5.495
 3740POPC   GL150401  29.217  32.306   5.871
 3740POPC   GL250402  29.503  32.076   5.951
 3740POPC   C1A50403  29.111  32.201   6.284
 3740POPC   D2A50404  29.076  32.463   6.649
 3740POPC   C3A50405  29.010  32.133   6.907
 3740POPC   C4A50406  29.047  32.038   7.316
 3740POPC   C1B50407  29.635  32.241   6.315
 3740POPC   C2B50408  29.508  32.148   6.704
 3740POPC   C3B50409  29.459  32.302   7.105
 3740POPC   C4B50410  29.470  32.339   7.553
 3741POPC   NC350411  28.494   0.502   5.461
 3741POPC   PO450412  27.963  44.980   5.377
 3741POPC   GL150413  28.157   0.218   5.743
 3741POPC   GL250414  28.524   0.150   5.833
 3741POPC   C1A50415  28.209   0.425   6.157
 3741POPC   D2A50416  27.878   0.546   6.460
 3741POPC   C3A50417  28.057   0.655   6.868
 3741POPC   C4A50418  28.154   0.375   7.203
 3741POPC   C1B50419  28.724   0.411   6.168
 3741POPC   C2B50420  28.543   0.596   6.557
 3741POPC   C3B50421  28.706   0.410   6.916
 3741POPC   C4B50422  28.626   0.232   7.287
 3742POPC   NC350423  44.177  25.911   5.576
 3742POPC   PO450424  43.513  26.219   5.490
 3742POPC   GL150425  43.833  26.235   5.793
 3742POPC   GL250426  43.773  25.910   5.889
 3742POPC   C1A50427  43.900  26.405   6.231
 3742POPC   D2A50428  43.693  26.341   6.677
 3742POPC   C3A50429  43.991  26.427   7.031
 3742POPC   C4A50430  44.108  26.248   7.435
 3742POPC   C1B50431  43.676  25.962   6.282
 3742POPC   C2B50432  43.985  25.966   6.567
 3742POPC   C3B50433  43.878  25.930   6.972
 3742POPC   C4B50434  43.945  25.794   7.360
 3743POPC   NC350435  20.725  34.914   5.283
 3743POPC   PO450436  20.947  34.279   5.320
 3743POPC   GL150437  20.767  34.562   5.712
 3743POPC   GL250438  20.642  34.943   5.781
 3743POPC   C1A50439  20.563  34.489   6.124
 3743POPC   D2A50440  20.454  34.141   6.437
 3743POPC   C3A50441  20.409  34.267   6.881
 3743POPC   C4A50442  20.559  34.478   7.244
 3743POPC   C1B50443  20.874  34.927   6.147
 3743POPC   C2B50444  20.945  34.597   6.460
 3743POPC   C3B50445  20.723  34.666   6.806
 3743POPC   C4B50446  20.788  34.954   7.129
 3744POPC   NC350447  29.276  38.949   5.399
 3744POPC   PO450448  29.373  39.530   5.469
 3744POPC   GL150449  29.351  39.202   5.822
 3744POPC   GL250450  29.043  39.026   5.916
 3744POPC   C1A50451  29.350  39.313   6.246
 3744POPC   D2A50452  29.215  39.563   6.606
 3744POPC   C3A50453  29.418  39.509   6.987
 3744POPC   C4A50454  29.320  39.144   7.130
 3744POPC   C1B50455  28.924  39.066   6.405
 3744POPC   C2B50456  28.871  39.068   6.886
 3744POPC   C3B50457  28.862  39.163   7.365
 3744POPC   C4B50458  28.803  39.051   7.804
 3745POPC   NC350459  39.489  37.215   4.962
 3745POPC   PO450460  39.168  37.572   5.454
 3745POPC   GL150461  39.154  37.528   5.895
 3745POPC   GL250462  39.047  37.169   5.897
 3745POPC   C1A50463  39.200  37.863   6.237
 3745POPC   D2A50464  39.306  38.122   6.646
 3745POPC   C3A50465  39.459  37.861   7.010
 3745POPC   C4A50466  39.442  37.577   7.370
 3745POPC   C1B50467  39.056  37.268   6.355
 3745POPC   C2B50468  39.138  37.584   6.671
 3745POPC   C3B50469  39.054  37.517   7.066
 3745POPC   C4B50470  38.774  37.385   7.341
 3746POPC   NC350471   5.430  33.689   5.507
 3746POPC   PO450472   4.753  33.650   5.565
 3746POPC   GL150473   5.079  33.615   5.880
 3746POPC   GL250474   5.201  33.937   5.903
 3746POPC   C1A50475   5.087  33.589   6.331
 3746POPC   D2A50476   4.760  33.650   6.632
 3746POPC   C3A50477   4.924  33.653   7.042
 3746POPC   C4A50478   4.942  33.932   7.375
 3746POPC   C1B50479   5.154  34.117   6.311
 3746POPC   C2B50480   5.148  34.025   6.754
 3746POPC   C3B50481   5.383  33.870   7.112
 3746POPC   C4B50482   5.471  33.996   7.533
 3747POPC   NC350483  18.501  31.493   5.331
 3747POPC   PO450484  19.010  31.161   5.622
 3747POPC   GL150485  19.064  31.535   5.839
 3747POPC   GL250486  19.328  31.741   5.663
 3747POPC   C1A50487  19.141  31.464   6.268
 3747POPC   D2A50488  18.953  31.652   6.614
 3747POPC   C3A50489  19.121  31.560   6.999
 3747POPC   C4A50490  19.076  31.558   7.415
 3747POPC   C1B50491  19.487  31.783   6.066
 3747POPC   C2B50492  19.427  31.832   6.501
 3747POPC   C3B50493  19.545  31.807   6.940
 3747POPC   C4B50494  19.501  31.875   7.393
 3748POPC   NC350495  23.005  33.590   5.586
 3748POPC   PO450496  22.629  34.090   5.376
 3748POPC   GL150497  22.749  33.938   5.827
 3748POPC   GL250498  23.100  33.987   5.887
 3748POPC   C1A50499  22.725  33.602   6.167
 3748POPC   D2A50500  22.898  33.730   6.549
 3748POPC   C3A50501  22.801  33.553   6.965
 3748POPC   C4A50502  22.571  33.477   7.331
 3748POPC   C1B50503  23.365  33.927   6.223
 3748POPC   C2B50504  23.280  34.071   6.595
 3748POPC   C3B50505  23.225  33.830   6.933
 3748POPC   C4B50506  23.192  33.614   7.295
 3749POPC   NC350507  17.581  31.130   5.611
 3749POPC   PO450508  17.546  31.861   5.598
 3749POPC   GL150509  17.693  31.574   5.940
 3749POPC   GL250510  17.479  31.277   6.077
 3749POPC   C1A50511  17.729  31.584   6.404
 3749POPC   D2A50512  17.531  31.328   6.719
 3749POPC   C3A50513  17.587  31.417   7.144
 3749POPC   C4A50514  17.739  31.676   7.477
 3749POPC   C1B50515  17.207  31.582   6.243
 3749POPC   C2B50516  16.993  31.561   6.620
 3749POPC   C3B50517  17.107  31.489   7.021
 3749POPC   C4B50518  17.299  31.851   7.241
 3750POPC   NC350519  37.537  31.975   5.582
 3750POPC   PO450520  37.681  31.439   5.194
 3750POPC   GL150521  37.655  31.480   5.636
 3750POPC   GL250522  37.524  31.164   5.711
 3750POPC   C1A50523  37.866  31.634   6.048
 3750POPC   D2A50524  37.883  31.494   6.491
 3750POPC   C3A50525  37.693  31.672   6.852
 3750POPC   C4A50526  37.784  31.547   7.256
 3750POPC   C1B50527  37.420  31.349   6.097
 3750POPC   C2B50528  37.352  31.380   6.523
 3750POPC   C3B50529  37.543  31.172   6.859
 3750POPC   C4B50530  37.664  31.036   7.255
 3751POPC   NC350531  14.325  16.053   5.629
 3751POPC   PO450532  14.387  15.404   5.407
 3751POPC   GL150533  14.377  15.595   5.844
 3751POPC   GL250534  14.662  15.813   5.924
 3751POPC   C1A50535  14.151  15.745   6.235
 3751POPC   D2A50536  14.164  16.002   6.625
 3751POPC   C3A50537  14.212  15.765   6.994
 3751POPC   C4A50538  14.499  15.869   7.285
 3751POPC   C1B50539  14.604  16.027   6.348
 3751POPC   C2B50540  14.661  16.041   6.830
 3751POPC   C3B50541  14.974  15.970   7.204
 3751POPC   C4B50542  14.971  15.865   7.668
 3752POPC   NC350543  11.664  44.105   5.516
 3752POPC   PO450544  11.917  43.495   5.302
 3752POPC   GL150545  11.934  43.721   5.742
 3752POPC   GL250546  12.160  43.988   5.769
 3752POPC   C1A50547  11.759  43.927   6.163
 3752POPC   D2A50548  11.819  44.163   6.570
 3752POPC   C3A50549  11.742  44.005   6.953
 3752POPC   C4A50550  11.783  43.840   7.325
 3752POPC   C1B50551  12.281  43.906   6.229
 3752POPC   C2B50552  12.301  44.079   6.662
 3752POPC   C3B50553  12.242  43.982   7.085
 3752POPC   C4B50554  12.544  43.676   7.212
 3753POPC   NC350555  38.023  42.432   5.516
 3753POPC   PO450556  38.646  42.285   5.384
 3753POPC   GL150557  38.475  42.437   5.764
 3753POPC   GL250558  38.403  42.152   5.995
 3753POPC   C1A50559  38.358  42.637   6.132
 3753POPC   D2A50560  38.523  42.403   6.490
 3753POPC   C3A50561  38.266  42.323   6.859
 3753POPC   C4A50562  38.398  42.350   7.279
 3753POPC   C1B50563  38.778  42.009   6.238
 3753POPC   C2B50564  38.825  41.920   6.693
 3753POPC   C3B50565  38.694  41.959   7.114
 3753POPC   C4B50566  38.611  41.986   7.577
 3754POPC   NC350567  44.112  15.204   5.497
 3754POPC   PO450568  43.456  15.028   5.439
 3754POPC   GL150569  43.734  15.024   5.815
 3754POPC   GL250570  43.762  15.367   5.825
 3754POPC   C1A50571  43.829  14.894   6.247
 3754POPC   D2A50572  43.821  15.128   6.623
 3754POPC   C3A50573  43.833  14.961   7.031
 3754POPC   C4A50574  43.955  15.177   7.402
 3754POPC   C1B50575  44.021  15.365   6.185
 3754POPC   C2B50576  44.264  15.346   6.572
 3754POPC   C3B50577  44.079  15.426   6.961
 3754POPC   C4B50578  44.020  15.679   7.308
 3755POPC   NC350579   6.355  40.846   5.359
 3755POPC   PO450580   6.969  40.619   5.126
 3755POPC   GL150581   6.773  40.712   5.603
 3755POPC   GL250582   6.443  40.669   5.812
 3755POPC   C1A50583   6.852  40.861   6.060
 3755POPC   D2A50584   6.885  40.957   6.498
 3755POPC   C3A50585   6.840  40.657   6.801
 3755POPC   C4A50586   6.790  40.676   7.239
 3755POPC   C1B50587   6.360  40.969   6.134
 3755POPC   C2B50588   6.390  40.793   6.535
 3755POPC   C3B50589   6.402  40.915   6.946
 3755POPC   C4B50590   6.268  40.705   7.312
 3756POPC   NC350591  19.135  40.889   5.279
 3756POPC   PO450592  19.102  40.344   5.647
 3756POPC   GL150593  19.071  40.773   5.797
 3756POPC   GL250594  19.335  41.004   5.739
 3756POPC   C1A50595  18.998  40.880   6.241
 3756POPC   D2A50596  19.180  40.718   6.640
 3756POPC   C3A50597  19.033  40.927   7.016
 3756POPC   C4A50598  18.968  40.794   7.471
 3756POPC   C1B50599  19.378  41.203   6.140
 3756POPC   C2B50600  19.246  41.230   6.585
 3756POPC   C3B50601  19.322  41.353   7.029
 3756POPC   C4B50602  19.403  41.041   7.345
 3757POPC   NC350603  38.772   1.173   5.080
 3757POPC   PO450604  38.459   0.807   5.585
 3757POPC   GL150605  38.456   1.044   5.957
 3757POPC   GL250606  38.285   1.387   5.934
 3757POPC   C1A50607  38.621   0.965   6.388
 3757POPC   D2A50608  38.825   0.897   6.796
 3757POPC   C3A50609  38.507   0.910   7.152
 3757POPC   C4A50610  38.277   0.968   7.571
 3757POPC   C1B50611  38.276   1.349   6.362
 3757POPC   C2B50612  38.320   1.198   6.771
 3757POPC   C3B50613  38.320   1.377   7.196
 3757POPC   C4B50614  38.143   1.512   7.604
 3758POPC   NC350615   8.676  23.132   5.440
 3758POPC   PO450616   9.262  22.821   5.473
 3758POPC   GL150617   9.002  22.909   5.839
 3758POPC   GL250618   8.780  22.639   5.932
 3758POPC   C1A50619   9.136  22.826   6.275
 3758POPC   D2A50620   9.250  22.782   6.714
 3758POPC   C3A50621   9.103  23.184   6.931
 3758POPC   C4A50622   8.712  23.236   7.184
 3758POPC   C1B50623   8.623  22.882   6.225
 3758POPC   C2B50624   8.732  22.998   6.603
 3758POPC   C3B50625   8.770  22.790   6.955
 3758POPC   C4B50626   8.508  22.749   7.276
 3759POPC   NC350627  24.958   2.276   5.366
 3759POPC   PO450628  25.374   1.854   5.401
 3759POPC   GL150629  25.294   1.906   5.839
 3759POPC   GL250630  25.257   2.243   5.795
 3759POPC   C1A50631  25.096   1.825   6.252
 3759POPC   D2A50632  24.787   1.825   6.599
 3759POPC   C3A50633  24.954   2.056   6.929
 3759POPC   C4A50634  25.284   1.956   7.165
 3759POPC   C1B50635  25.338   2.294   6.229
 3759POPC   C2B50636  25.404   2.103   6.640
 3759POPC   C3B50637  25.662   2.215   7.003
 3759POPC   C4B50638  25.526   2.269   7.464
 3760POPC   NC350639  39.540   4.432   5.415
 3760POPC   PO450640  38.984   4.020   5.442
 3760POPC   GL150641  39.183   4.258   5.785
 3760POPC   GL250642  38.968   4.538   5.938
 3760POPC   C1A50643  39.412   4.206   6.170
 3760POPC   D2A50644  39.306   4.047   6.582
 3760POPC   C3A50645  39.296   4.314   6.949
 3760POPC   C4A50646  39.635   4.544   7.097
 3760POPC   C1B50647  38.886   4.218   6.277
 3760POPC   C2B50648  38.832   4.159   6.744
 3760POPC   C3B50649  38.811   4.374   7.150
 3760POPC   C4B50650  38.928   4.461   7.602
 3761POPC   NC350651   5.165  13.700   5.500
 3761POPC   PO450652   4.886  14.175   5.839
 3761POPC   GL150653   5.312  13.944   5.934
 3761POPC   GL250654   5.283  13.557   5.974
 3761POPC   C1A50655   5.532  13.799   6.326
 3761POPC   D2A50656   5.308  13.474   6.583
 3761POPC   C3A50657   5.279  13.556   7.026
 3761POPC   C4A50658   4.967  13.839   7.243
 3761POPC   C1B50659   4.918  13.415   6.246
 3761POPC   C2B50660   4.798  13.298   6.688
 3761POPC   C3B50661   4.815  13.361   7.136
 3761POPC   C4B50662   4.706  13.196   7.547
 3762POPC   NC350663  31.845   0.353   5.133
 3762POPC   PO450664  32.457   0.423   5.383
 3762POPC   GL150665  32.444   0.631   5.802
 3762POPC   GL250666  32.124   0.823   5.770
 3762POPC   C1A50667  32.313   0.442   6.245
 3762POPC   D2A50668  32.102   0.098   6.532
 3762POPC   C3A50669  32.174   0.287   6.952
 3762POPC   C4A50670  32.350   0.610   7.201
 3762POPC   C1B50671  31.903   0.771   6.180
 3762POPC   C2B50672  31.904   0.555   6.579
 3762POPC   C3B50673  31.851   0.707   7.009
 3762POPC   C4B50674  31.852   0.438   7.353
 3763POPC   NC350675  35.122  14.703   5.359
 3763POPC   PO450676  35.471  14.189   5.482
 3763POPC   GL150677  35.424  14.533   5.732
 3763POPC   GL250678  35.388  14.304   5.991
 3763POPC   C1A50679  35.502  14.780   6.102
 3763POPC   D2A50680  35.428  14.570   6.493
 3763POPC   C3A50681  35.490  14.735   6.890
 3763POPC   C4A50682  35.374  14.494   7.267
 3763POPC   C1B50683  35.010  14.091   6.154
 3763POPC   C2B50684  34.978  13.914   6.545
 3763POPC   C3B50685  35.126  14.158   6.881
 3763POPC   C4B50686  34.978  14.128   7.287
 3764POPC   NC350687  27.472  43.718   5.296
 3764POPC   PO450688  26.940  44.180   5.428
 3764POPC   GL150689  26.830  43.986   5.808
 3764POPC   GL250690  26.944  43.670   5.738
 3764POPC   C1A50691  26.840  43.840   6.244
 3764POPC   D2A50692  27.007  44.016   6.614
 3764POPC   C3A50693  26.861  43.772   6.924
 3764POPC   C4A50694  26.707  43.832   7.307
 3764POPC   C1B50695  27.154  43.476   6.089
 3764POPC   C2B50696  27.051  43.453   6.549
 3764POPC   C3B50697  27.151  43.363   7.027
 3764POPC   C4B50698  26.999  43.428   7.483
 3765POPC   NC350699   1.972   5.655   5.054
 3765POPC   PO450700   2.245   6.129   5.486
 3765POPC   GL150701   2.073   5.909   5.801
 3765POPC   GL250702   2.051   6.221   5.974
 3765POPC   C1A50703   1.934   5.769   6.226
 3765POPC   D2A50704   1.685   5.878   6.605
 3765POPC   C3A50705   1.837   5.688   6.984
 3765POPC   C4A50706   1.722   5.791   7.444
 3765POPC   C1B50707   2.367   6.048   6.205
 3765POPC   C2B50708   2.164   6.134   6.545
 3765POPC   C3B50709   2.011   6.164   6.930
 3765POPC   C4B50710   2.181   5.928   7.256
 3766POPC   NC350711  32.834  33.267   5.374
 3766POPC   PO450712  33.396  32.877   5.410
 3766POPC   GL150713  33.064  32.976   5.752
 3766POPC   GL250714  33.128  33.320   5.834
 3766POPC   C1A50715  32.816  33.052   6.183
 3766POPC   D2A50716  32.589  33.127   6.606
 3766POPC   C3A50717  32.678  32.838   6.980
 3766POPC   C4A50718  33.088  32.707   7.185
 3766POPC   C1B50719  33.183  33.404   6.291
 3766POPC   C2B50720  33.280  33.407   6.737
 3766POPC   C3B50721  33.011  33.215   7.045
 3766POPC   C4B50722  32.612  33.359   7.247
 3767POPC   NC350723  37.917  35.642   5.478
 3767POPC   PO450724  37.760  34.974   5.383
 3767POPC   GL150725  37.687  35.234   5.735
 3767POPC   GL250726  38.035  35.251   5.834
 3767POPC   C1A50727  37.712  35.427   6.149
 3767POPC   D2A50728  37.978  35.289   6.466
 3767POPC   C3A50729  37.780  35.225   6.827
 3767POPC   C4A50730  37.644  35.372   7.205
 3767POPC   C1B50731  38.204  35.598   6.096
 3767POPC   C2B50732  38.267  35.720   6.500
 3767POPC   C3B50733  38.093  35.618   6.877
 3767POPC   C4B50734  37.940  35.847   7.221
 3768POPC   NC350735  10.188  23.838   5.169
 3768POPC   PO450736   9.605  23.759   5.517
 3768POPC   GL150737   9.729  23.707   5.918
 3768POPC   GL250738   9.851  23.409   5.846
 3768POPC   C1A50739   9.956  23.813   6.299
 3768POPC   D2A50740   9.967  23.976   6.716
 3768POPC   C3A50741   9.732  23.739   7.034
 3768POPC   C4A50742   9.724  23.952   7.436
 3768POPC   C1B50743  10.018  23.303   6.219
 3768POPC   C2B50744  10.097  23.397   6.653
 3768POPC   C3B50745  10.083  23.319   7.089
 3768POPC   C4B50746   9.952  23.480   7.444
 3769POPC   NC350747  34.039  24.225   5.377
 3769POPC   PO450748  34.469  23.708   5.453
 3769POPC   GL150749  34.638  23.719   5.881
 3769POPC   GL250750  34.563  23.382   5.968
 3769POPC   C1A50751  34.581  23.829   6.350
 3769POPC   D2A50752  34.509  24.081   6.752
 3769POPC   C3A50753  34.555  23.864   7.132
 3769POPC   C4A50754  34.344  23.843   7.550
 3769POPC   C1B50755  34.884  23.418   6.284
 3769POPC   C2B50756  34.919  23.604   6.709
 3769POPC   C3B50757  34.807  23.407   7.089
 3769POPC   C4B50758  34.356  23.408   7.240
 3770POPC   NC350759  25.775   6.263   5.716
 3770POPC   PO450760  26.206   5.795   5.530
 3770POPC   GL150761  26.074   5.737   5.920
 3770POPC   GL250762  26.124   6.083   6.054
 3770POPC   C1A50763  26.210   5.665   6.332
 3770POPC   D2A50764  26.322   6.013   6.592
 3770POPC   C3A50765  26.243   5.877   6.998
 3770POPC   C4A50766  26.452   5.951   7.336
 3770POPC   C1B50767  25.730   5.886   6.262
 3770POPC   C2B50768  25.546   6.048   6.638
 3770POPC   C3B50769  25.776   6.061   7.014
 3770POPC   C4B50770  25.628   6.107   7.421
 3771POPC   NC350771  31.515  31.717   5.419
 3771POPC   PO450772  31.362  31.036   5.456
 3771POPC   GL150773  31.343  31.329   5.807
 3771POPC   GL250774  31.623  31.612   5.894
 3771POPC   C1A50775  31.549  31.209   6.190
 3771POPC   D2A50776  31.588  31.480   6.501
 3771POPC   C3A50777  31.323  31.417   6.813
 3771POPC   C4A50778  31.385  31.391   7.230
 3771POPC   C1B50779  31.735  31.905   6.228
 3771POPC   C2B50780  31.528  31.976   6.606
 3771POPC   C3B50781  31.707  31.745   6.944
 3771POPC   C4B50782  31.678  31.828   7.348
 3772POPC   NC350783  28.880  41.762   5.123
 3772POPC   PO450784  28.494  41.978   5.671
 3772POPC   GL150785  28.203  41.943   6.014
 3772POPC   GL250786  28.496  41.872   6.177
 3772POPC   C1A50787  28.073  41.929   6.453
 3772POPC   D2A50788  28.194  41.972   6.899
 3772POPC   C3A50789  28.298  41.611   7.177
 3772POPC   C4A50790  28.259  41.249   7.491
 3772POPC   C1B50791  28.774  41.488   6.169
 3772POPC   C2B50792  28.920  41.323   6.564
 3772POPC   C3B50793  28.766  41.396   6.989
 3772POPC   C4B50794  28.763  41.257   7.427
 3773POPC   NC350795   9.888   5.108   5.258
 3773POPC   PO450796   9.289   5.173   5.570
 3773POPC   GL150797   9.691   4.967   5.734
 3773POPC   GL250798  10.000   5.186   5.794
 3773POPC   C1A50799   9.877   4.819   6.128
 3773POPC   D2A50800   9.978   4.882   6.572
 3773POPC   C3A50801   9.586   4.878   6.821
 3773POPC   C4A50802   9.503   4.820   7.254
 3773POPC   C1B50803   9.880   5.326   6.261
 3773POPC   C2B50804   9.852   5.368   6.753
 3773POPC   C3B50805   9.823   5.219   7.207
 3773POPC   C4B50806   9.940   5.252   7.686
 3774POPC   NC350807  29.954  17.972   5.228
 3774POPC   PO450808  29.761  18.553   5.347
 3774POPC   GL150809  29.842  18.361   5.725
 3774POPC   GL250810  29.844  18.006   5.791
 3774POPC   C1A50811  29.737  18.400   6.143
 3774POPC   D2A50812  29.921  18.436   6.534
 3774POPC   C3A50813  29.745  18.373   6.933
 3774POPC   C4A50814  29.866  18.495   7.342
 3774POPC   C1B50815  30.044  17.977   6.233
 3774POPC   C2B50816  30.101  17.986   6.703
 3774POPC   C3B50817  30.084  18.037   7.154
 3774POPC   C4B50818  30.079  17.856   7.576
 3775POPC   NC350819  14.524  30.341   5.459
 3775POPC   PO450820  14.371  30.982   5.375
 3775POPC   GL150821  14.254  30.724   5.713
 3775POPC   GL250822  14.585  30.685   5.857
 3775POPC   C1A50823  14.185  30.676   6.173
 3775POPC   D2A50824  14.425  30.647   6.569
 3775POPC   C3A50825  14.182  30.694   6.959
 3775POPC   C4A50826  14.057  30.431   7.309
 3775POPC   C1B50827  14.627  31.001   6.213
 3775POPC   C2B50828  14.867  30.966   6.620
 3775POPC   C3B50829  14.677  30.911   7.035
 3775POPC   C4B50830  14.585  30.543   7.263
 3776POPC   NC350831  42.735  24.217   5.332
 3776POPC   PO450832  42.874  24.812   5.581
 3776POPC   GL150833  42.574  24.499   5.761
 3776POPC   GL250834  42.218  24.559   5.839
 3776POPC   C1A50835  42.484  24.279   6.162
 3776POPC   D2A50836  42.684  24.199   6.565
 3776POPC   C3A50837  42.413  24.290   6.921
 3776POPC   C4A50838  42.471  24.281   7.360
 3776POPC   C1B50839  42.048  24.787   6.205
 3776POPC   C2B50840  41.988  24.982   6.601
 3776POPC   C3B50841  42.076  24.833   7.019
 3776POPC   C4B50842  41.974  24.931   7.478
 3777POPC   NC350843  17.457  13.029   5.597
 3777POPC   PO450844  17.523  12.513   5.153
 3777POPC   GL150845  17.406  12.522   5.656
 3777POPC   GL250846  17.697  12.690   5.895
 3777POPC   C1A50847  17.269  12.592   6.135
 3777POPC   D2A50848  17.635  12.600   6.478
 3777POPC   C3A50849  17.638  12.731   6.923
 3777POPC   C4A50850  17.435  12.816   7.315
 3777POPC   C1B50851  17.527  13.022   6.238
 3777POPC   C2B50852  17.277  12.962   6.638
 3777POPC   C3B50853  17.258  13.189   7.054
 3777POPC   C4B50854  17.523  13.343   7.414
 3778POPC   NC350855   6.620  18.963   5.480
 3778POPC   PO450856   6.160  19.509   5.686
 3778POPC   GL150857   6.461  19.241   5.965
 3778POPC   GL250858   6.808  19.093   5.926
 3778POPC   C1A50859   6.732  19.335   6.352
 3778POPC   D2A50860   6.505  19.154   6.682
 3778POPC   C3A50861   6.713  19.060   7.051
 3778POPC   C4A50862   6.614  19.279   7.395
 3778POPC   C1B50863   6.671  18.829   6.281
 3778POPC   C2B50864   6.779  18.678   6.690
 3778POPC   C3B50865   6.729  18.536   7.103
 3778POPC   C4B50866   6.744  18.737   7.526
 3779POPC   NC350867  28.828  11.387   5.016
 3779POPC   PO450868  28.684  10.905   5.365
 3779POPC   GL150869  28.644  11.105   5.783
 3779POPC   GL250870  28.362  10.964   5.940
 3779POPC   C1A50871  28.681  11.355   6.197
 3779POPC   D2A50872  28.552  11.353   6.676
 3779POPC   C3A50873  28.528  11.609   7.104
 3779POPC   C4A50874  28.377  11.691   7.551
 3779POPC   C1B50875  28.547  10.893   6.371
 3779POPC   C2B50876  28.429  10.882   6.818
 3779POPC   C3B50877  28.392  11.086   7.216
 3779POPC   C4B50878  28.567  10.895   7.585
 3780POPC   NC350879  44.736  27.669   5.247
 3780POPC   PO450880  44.268  27.237   5.448
 3780POPC   GL150881  44.548  27.582   5.709
 3780POPC   GL250882  44.919  27.617   5.757
 3780POPC   C1A50883  44.596  27.675   6.150
 3780POPC   D2A50884  44.354  27.545   6.502
 3780POPC   C3A50885  44.583  27.477   6.882
 3780POPC   C4A50886  44.444  27.541   7.289
 3780POPC   C1B50887   0.138  27.694   6.168
 3780POPC   C2B50888   0.054  27.617   6.643
 3780POPC   C3B50889   0.037  27.602   7.116
 3780POPC   C4B50890   0.260  27.759   7.515
 3781POPC   NC350891  17.830  23.958   5.629
 3781POPC   PO450892  17.498  24.322   5.150
 3781POPC   GL150893  17.491  24.470   5.616
 3781POPC   GL250894  17.410  24.837   5.666
 3781POPC   C1A50895  17.572  24.458   6.096
 3781POPC   D2A50896  17.406  24.507   6.545
 3781POPC   C3A50897  17.634  24.433   6.969
 3781POPC   C4A50898  17.562  24.334   7.464
 3781POPC   C1B50899  17.444  24.955   6.103
 3781POPC   C2B50900  17.500  25.025   6.538
 3781POPC   C3B50901  17.268  24.866   6.891
 3781POPC   C4B50902  17.462  24.793   7.280
 3782POPC   NC350903  22.079  35.668   5.610
 3782POPC   PO450904  22.471  35.053   5.427
 3782POPC   GL150905  22.453  35.151   5.872
 3782POPC   GL250906  22.336  35.468   5.996
 3782POPC   C1A50907  22.303  35.034   6.291
 3782POPC   D2A50908  22.231  35.046   6.740
 3782POPC   C3A50909  22.370  35.329   7.019
 3782POPC   C4A50910  22.089  35.393   7.339
 3782POPC   C1B50911  22.068  35.690   6.327
 3782POPC   C2B50912  21.939  35.548   6.760
 3782POPC   C3B50913  21.834  35.792   7.129
 3782POPC   C4B50914  21.808  35.768   7.589
 3783POPC   NC350915  43.763  28.837   5.528
 3783POPC   PO450916  43.395  29.371   5.358
 3783POPC   GL150917  43.625  29.328   5.775
 3783POPC   GL250918  43.983  29.339   5.806
 3783POPC   C1A50919  43.562  29.236   6.230
 3783POPC   D2A50920  43.640  29.130   6.679
 3783POPC   C3A50921  43.622  29.240   7.144
 3783POPC   C4A50922  43.764  28.927   7.444
 3783POPC   C1B50923  44.036  29.055   6.172
 3783POPC   C2B50924  44.074  28.855   6.570
 3783POPC   C3B50925  44.052  29.009   6.978
 3783POPC   C4B50926  44.245  29.077   7.321
 3784POPC   NC350927  36.721  16.244   5.585
 3784POPC   PO450928  37.083  16.760   5.326
 3784POPC   GL150929  36.923  16.760   5.741
 3784POPC   GL250930  36.567  16.760   5.720
 3784POPC   C1A50931  37.020  16.681   6.184
 3784POPC   D2A50932  36.916  16.549   6.593
 3784POPC   C3A50933  37.077  16.716   6.936
 3784POPC   C4A50934  37.227  16.506   7.265
 3784POPC   C1B50935  36.544  16.990   6.129
 3784POPC   C2B50936  36.700  17.018   6.575
 3784POPC   C3B50937  36.588  16.880   7.009
 3784POPC   C4B50938  36.742  16.671   7.384
 3785POPC   NC350939   8.582  31.461   5.370
 3785POPC   PO450940   7.933  31.763   5.338
 3785POPC   GL150941   8.184  31.547   5.661
 3785POPC   GL250942   8.439  31.776   5.779
 3785POPC   C1A50943   8.307  31.330   6.055
 3785POPC   D2A50944   8.278  31.529   6.460
 3785POPC   C3A50945   8.232  31.315   6.857
 3785POPC   C4A50946   8.399  31.426   7.247
 3785POPC   C1B50947   8.039  31.814   6.066
 3785POPC   C2B50948   7.902  31.937   6.506
 3785POPC   C3B50949   8.086  31.802   6.899
 3785POPC   C4B50950   7.963  31.735   7.337
 3786POPC   NC350951   9.264   3.778   5.354
 3786POPC   PO450952   8.577   3.703   5.376
 3786POPC   GL150953   8.907   3.577   5.713
 3786POPC   GL250954   9.219   3.374   5.757
 3786POPC   C1A50955   9.091   3.678   6.139
 3786POPC   D2A50956   8.914   3.528   6.525
 3786POPC   C3A50957   9.031   3.775   6.838
 3786POPC   C4A50958   9.257   3.744   7.218
 3786POPC   C1B50959   9.111   3.174   6.155
 3786POPC   C2B50960   9.272   3.140   6.574
 3786POPC   C3B50961   9.131   3.283   6.977
 3786POPC   C4B50962   9.250   3.259   7.406
 3787POPC   NC350963  40.546   6.504   5.416
 3787POPC   PO450964  40.777   7.155   5.442
 3787POPC   GL150965  40.543   6.938   5.824
 3787POPC   GL250966  40.331   6.605   5.886
 3787POPC   C1A50967  40.667   6.789   6.255
 3787POPC   D2A50968  40.795   6.530   6.628
 3787POPC   C3A50969  40.753   6.794   6.995
 3787POPC   C4A50970  41.130   6.967   7.158
 3787POPC   C1B50971  40.378   6.368   6.312
 3787POPC   C2B50972  40.334   6.399   6.787
 3787POPC   C3B50973  40.552   6.364   7.199
 3787POPC   C4B50974  40.558   6.332   7.687
 3788POPC   NC350975  22.023  42.853   5.478
 3788POPC   PO450976  22.429  43.293   5.416
 3788POPC   GL150977  22.242  43.173   5.817
 3788POPC   GL250978  22.400  42.836   5.862
 3788POPC   C1A50979  22.086  43.239   6.254
 3788POPC   D2A50980  22.195  43.383   6.691
 3788POPC   C3A50981  21.954  43.506   7.011
 3788POPC   C4A50982  21.852  43.210   7.307
 3788POPC   C1B50983  22.033  42.682   6.118
 3788POPC   C2B50984  21.843  42.722   6.523
 3788POPC   C3B50985  22.039  42.874   6.906
 3788POPC   C4B50986  22.016  42.671   7.295
 3789POPC   NC350987  21.478   0.073   5.597
 3789POPC   PO450988  21.214  44.505   5.349
 3789POPC   GL150989  21.350  44.619   5.768
 3789POPC   GL250990  21.638  44.463   5.859
 3789POPC   C1A50991  21.434  44.753   6.219
 3789POPC   D2A50992  21.387   0.042   6.560
 3789POPC   C3A50993  21.313  44.846   6.954
 3789POPC   C4A50994  21.469  44.811   7.373
 3789POPC   C1B50995  21.859  44.456   6.264
 3789POPC   C2B50996  21.689  44.334   6.688
 3789POPC   C3B50997  21.461  44.371   7.110
 3789POPC   C4B50998  21.669  44.380   7.535
 3790POPC   NC350999  30.342   2.170   5.365
 3790POPC   PO451000  30.954   1.730   5.441
 3790POPC   GL151001  30.826   1.863   5.849
 3790POPC   GL251002  30.499   2.023   5.827
 3790POPC   C1A51003  30.677   1.821   6.272
 3790POPC   D2A51004  30.677   2.040   6.637
 3790POPC   C3A51005  30.528   1.783   6.913
 3790POPC   C4A51006  30.802   1.668   7.251
 3790POPC   C1B51007  30.244   2.150   6.180
 3790POPC   C2B51008  30.140   2.107   6.602
 3790POPC   C3B51009  30.318   2.247   6.966
 3790POPC   C4B51010  30.680   2.162   7.202
 3791POPC   NC351011  30.491   9.773   5.383
 3791POPC   PO451012  31.139  10.043   5.318
 3791POPC   GL151013  30.784  10.053   5.664
 3791POPC   GL251014  30.848   9.684   5.771
 3791POPC   C1A51015  30.505   9.945   6.042
 3791POPC   D2A51016  30.593   9.818   6.451
 3791POPC   C3A51017  30.358   9.676   6.793
 3791POPC   C4A51018  30.538   9.754   7.192
 3791POPC   C1B51019  30.974   9.543   6.197
 3791POPC   C2B51020  30.846   9.373   6.583
 3791POPC   C3B51021  30.935   9.565   6.948
 3791POPC   C4B51022  30.897   9.431   7.360
 3792POPC   NC351023  23.786  17.033   5.400
 3792POPC   PO451024  23.266  16.491   5.424
 3792POPC   GL151025  23.429  16.499   5.835
 3792POPC   GL251026  23.650  16.741   5.824
 3792POPC   C1A51027  23.461  16.597   6.285
 3792POPC   D2A51028  23.704  16.796   6.658
 3792POPC   C3A51029  23.644  16.578   7.043
 3792POPC   C4A51030  23.209  16.560   7.116
 3792POPC   C1B51031  23.941  16.643   6.223
 3792POPC   C2B51032  24.139  16.499   6.604
 3792POPC   C3B51033  24.161  16.684   7.025
 3792POPC   C4B51034  24.004  16.998   7.323
 3793POPC   NC351035   7.662  36.503   5.461
 3793POPC   PO451036   7.252  37.112   5.363
 3793POPC   GL151037   7.388  36.864   5.738
 3793POPC   GL251038   7.225  36.549   5.823
 3793POPC   C1A51039   7.660  36.873   6.117
 3793POPC   D2A51040   7.664  37.014   6.550
 3793POPC   C3A51041   7.412  36.963   6.913
 3793POPC   C4A51042   7.612  37.048   7.305
 3793POPC   C1B51043   7.436  36.412   6.184
 3793POPC   C2B51044   7.789  36.495   6.484
 3793POPC   C3B51045   7.804  36.644   6.903
 3793POPC   C4B51046   7.533  36.550   7.265
 3794POPC   NC351047  43.911   1.297   5.358
 3794POPC   PO451048  43.783   0.714   5.641
 3794POPC   GL151049  44.085   0.913   5.867
 3794POPC   GL251050  44.051   1.275   5.846
 3794POPC   C1A51051  44.041   1.032   6.286
 3794POPC   D2A51052  43.876   1.261   6.617
 3794POPC   C3A51053  43.861   1.077   7.043
 3794POPC   C4A51054  44.078   0.921   7.440
 3794POPC   C1B51055  44.264   1.519   6.153
 3794POPC   C2B51056  44.197   1.688   6.555
 3794POPC   C3B51057  43.950   1.653   6.926
 3794POPC   C4B51058  44.017   1.822   7.296
 3795POPC   NC351059  33.617  10.709   5.448
 3795POPC   PO451060  34.227  10.353   5.525
 3795POPC   GL151061  33.863  10.440   5.811
 3795POPC   GL251062  33.885  10.787   5.875
 3795POPC   C1A51063  33.621  10.526   6.216
 3795POPC   D2A51064  33.741  10.372   6.612
 3795POPC   C3A51065  33.657  10.572   6.984
 3795POPC   C4A51066  33.647  10.244   7.224
 3795POPC   C1B51067  33.801  11.029   6.250
 3795POPC   C2B51068  33.747  10.982   6.696
 3795POPC   C3B51069  33.887  11.017   7.135
 3795POPC   C4B51070  33.926  10.752   7.501
 3796POPC   NC351071   1.103   1.651   5.419
 3796POPC   PO451072   1.308   2.248   5.529
 3796POPC   GL151073   1.213   2.113   5.922
 3796POPC   GL251074   1.300   1.751   5.873
 3796POPC   C1A51075   1.165   2.242   6.387
 3796POPC   D2A51076   1.243   2.238   6.864
 3796POPC   C3A51077   1.031   1.961   7.174
 3796POPC   C4A51078   1.063   1.783   7.618
 3796POPC   C1B51079   1.392   1.793   6.294
 3796POPC   C2B51080   1.238   1.656   6.684
 3796POPC   C3B51081   1.481   1.719   7.054
 3796POPC   C4B51082   1.525   2.046   7.341
 3797POPC   NC351083  15.650  24.966   5.286
 3797POPC   PO451084  16.254  25.165   5.499
 3797POPC   GL151085  15.902  25.177   5.765
 3797POPC   GL251086  15.813  24.810   5.745
 3797POPC   C1A51087  15.804  25.412   6.173
 3797POPC   D2A51088  16.003  25.530   6.583
 3797POPC   C3A51089  15.859  25.392   7.006
 3797POPC   C4A51090  16.042  25.342   7.462
 3797POPC   C1B51091  16.030  24.881   6.142
 3797POPC   C2B51092  15.923  24.990   6.538
 3797POPC   C3B51093  16.086  24.921   6.926
 3797POPC   C4B51094  15.837  24.928   7.274
 3798POPC   NC351095   8.039   5.838   5.368
 3798POPC   PO451096   8.326   6.404   5.185
 3798POPC   GL151097   8.420   6.030   5.643
 3798POPC   GL251098   8.402   5.661   5.716
 3798POPC   C1A51099   8.334   6.020   6.097
 3798POPC   D2A51100   8.276   5.774   6.467
 3798POPC   C3A51101   8.148   6.055   6.785
 3798POPC   C4A51102   8.166   6.034   7.219
 3798POPC   C1B51103   8.054   5.562   6.036
 3798POPC   C2B51104   7.860   5.485   6.477
 3798POPC   C3B51105   7.975   5.586   6.897
 3798POPC   C4B51106   8.337   5.555   7.151
 3799POPC   NC351107  41.782   4.784   5.454
 3799POPC   PO451108  41.216   5.242   5.373
 3799POPC   GL151109  41.382   5.060   5.724
 3799POPC   GL251110  41.675   5.241   5.673
 3799POPC   C1A51111  41.257   5.001   6.166
 3799POPC   D2A51112  41.247   4.825   6.590
 3799POPC   C3A51113  41.248   5.093   6.952
 3799POPC   C4A51114  41.549   4.858   7.179
 3799POPC   C1B51115  41.705   5.261   6.112
 3799POPC   C2B51116  41.538   5.293   6.526
 3799POPC   C3B51117  41.782   5.211   6.886
 3799POPC   C4B51118  41.769   5.301   7.312
 3800POPC   NC351119  34.355  17.718   5.476
 3800POPC   PO451120  34.941  17.451   5.256
 3800POPC   GL151121  34.775  17.420   5.699
 3800POPC   GL251122  34.771  17.050   5.710
 3800POPC   C1A51123  34.604  17.605   6.134
 3800POPC   D2A51124  34.302  17.606   6.512
 3800POPC   C3A51125  34.487  17.674   6.906
 3800POPC   C4A51126  34.705  17.721   7.309
 3800POPC   C1B51127  34.450  17.128   6.028
 3800POPC   C2B51128  34.519  17.135   6.455
 3800POPC   C3B51129  34.662  16.991   6.829
 3800POPC   C4B51130  34.609  17.243   7.148
 3801POPC   NC351131  28.422   7.947   5.428
 3801POPC   PO451132  28.056   8.542   5.465
 3801POPC   GL151133  28.300   8.319   5.790
 3801POPC   GL251134  28.236   8.007   5.915
 3801POPC   C1A51135  28.390   8.402   6.219
 3801POPC   D2A51136  28.164   8.329   6.592
 3801POPC   C3A51137  28.457   8.348   6.938
 3801POPC   C4A51138  28.557   8.053   7.234
 3801POPC   C1B51139  28.685   8.018   6.116
 3801POPC   C2B51140  28.621   8.035   6.553
 3801POPC   C3B51141  28.285   7.873   6.814
 3801POPC   C4B51142  27.990   8.119   7.053
 3802POPC   NC351143  11.910   9.980   5.472
 3802POPC   PO451144  12.042   9.365   5.504
 3802POPC   GL151145  11.829   9.614   5.820
 3802POPC   GL251146  11.977   9.428   6.059
 3802POPC   C1A51147  11.897   9.917   6.182
 3802POPC   D2A51148  12.152   9.928   6.552
 3802POPC   C3A51149  11.942   9.919   6.940
 3802POPC   C4A51150  11.766   9.584   7.200
 3802POPC   C1B51151  12.341   9.511   6.314
 3802POPC   C2B51152  12.359   9.519   6.786
 3802POPC   C3B51153  12.289   9.443   7.225
 3802POPC   C4B51154  12.624   9.293   7.538
 3803POPC   NC351155   5.202   4.484   5.457
 3803POPC   PO451156   4.594   4.697   5.542
 3803POPC   GL151157   4.829   4.327   5.789
 3803POPC   GL251158   5.154   4.091   5.797
 3803POPC   C1A51159   4.795   4.121   6.200
 3803POPC   D2A51160   4.686   4.316   6.604
 3803POPC   C3A51161   4.873   4.425   7.010
 3803POPC   C4A51162   4.869   4.334   7.470
 3803POPC   C1B51163   5.252   4.353   6.174
 3803POPC   C2B51164   5.241   4.364   6.645
 3803POPC   C3B51165   5.356   4.269   7.093
 3803POPC   C4B51166   5.598   4.416   7.430
 3804POPC   NC351167  24.455  24.646   5.430
 3804POPC   PO451168  23.966  24.977   5.545
 3804POPC   GL151169  24.238  24.798   5.887
 3804POPC   GL251170  24.345  24.447   5.896
 3804POPC   C1A51171  24.331  24.759   6.335
 3804POPC   D2A51172  24.465  24.567   6.736
 3804POPC   C3A51173  24.365  24.797   7.136
 3804POPC   C4A51174  24.274  24.696   7.579
 3804POPC   C1B51175  24.150  24.277   6.287
 3804POPC   C2B51176  24.189  24.137   6.718
 3804POPC   C3B51177  24.248  24.297   7.150
 3804POPC   C4B51178  24.208  24.183   7.600
 3805POPC   NC351179  30.075   8.251   5.436
 3805POPC   PO451180  30.372   7.715   5.705
 3805POPC   GL151181  30.138   8.026   5.929
 3805POPC   GL251182  30.138   8.386   5.917
 3805POPC   C1A51183  30.115   8.142   6.353
 3805POPC   D2A51184  30.235   8.096   6.743
 3805POPC   C3A51185  29.954   8.227   7.033
 3805POPC   C4A51186  29.920   8.053   7.409
 3805POPC   C1B51187  30.358   8.593   6.240
 3805POPC   C2B51188  30.153   8.606   6.643
 3805POPC   C3B51189  30.322   8.564   7.049
 3805POPC   C4B51190  30.142   8.497   7.474
 3806POPC   NC351191  41.093  24.173   5.467
 3806POPC   PO451192  40.766  24.711   5.201
 3806POPC   GL151193  40.814  24.599   5.712
 3806POPC   GL251194  40.549  24.807   5.912
 3806POPC   C1A51195  40.744  24.370   6.148
 3806POPC   D2A51196  40.797  24.145   6.560
 3806POPC   C3A51197  40.632  24.213   6.991
 3806POPC   C4A51198  41.018  24.230   7.249
 3806POPC   C1B51199  40.663  24.821   6.379
 3806POPC   C2B51200  40.833  24.692   6.806
 3806POPC   C3B51201  40.712  24.670   7.251
 3806POPC   C4B51202  40.562  24.761   7.657
 3807POPC   NC351203   1.139  22.009   5.395
 3807POPC   PO451204   1.408  22.647   5.502
 3807POPC   GL151205   1.226  22.510   5.904
 3807POPC   GL251206   0.981  22.235   5.843
 3807POPC   C1A51207   1.215  22.439   6.347
 3807POPC   D2A51208   1.428  22.124   6.592
 3807POPC   C3A51209   1.115  22.036   6.885
 3807POPC   C4A51210   1.028  22.231   7.267
 3807POPC   C1B51211   1.179  21.924   6.142
 3807POPC   C2B51212   1.239  21.651   6.518
 3807POPC   C3B51213   1.482  21.676   6.902
 3807POPC   C4B51214   1.479  21.976   7.249
 3808POPC   NC351215  17.485   0.349   5.318
 3808POPC   PO451216  17.657   0.931   5.549
 3808POPC   GL151217  17.373   0.682   5.723
 3808POPC   GL251218  17.646   0.451   5.813
 3808POPC   C1A51219  17.304   0.670   6.169
 3808POPC   D2A51220  17.478   0.861   6.556
 3808POPC   C3A51221  17.308   0.718   6.943
 3808POPC   C4A51222  17.465   0.509   7.319
 3808POPC   C1B51223  17.861   0.674   6.166
 3808POPC   C2B51224  17.992   0.818   6.585
 3808POPC   C3B51225  17.882   0.632   7.000
 3808POPC   C4B51226  17.904   0.253   7.256
 3809POPC   NC351227   0.088  27.046   5.267
 3809POPC   PO451228   0.413  26.637   5.624
 3809POPC   GL151229   0.384  26.931   5.919
 3809POPC   GL251230   0.241  27.211   5.739
 3809POPC   C1A51231   0.505  26.852   6.342
 3809POPC   D2A51232   0.427  26.695   6.761
 3809POPC   C3A51233   0.656  26.837   7.127
 3809POPC   C4A51234   0.879  26.627   7.523
 3809POPC   C1B51235   0.021  27.205   6.140
 3809POPC   C2B51236   0.038  27.014   6.532
 3809POPC   C3B51237   0.198  27.139   6.899
 3809POPC   C4B51238   0.047  27.113   7.298
 3810POPC   NC351239   1.666  42.244   5.437
 3810POPC   PO451240   2.304  42.411   5.424
 3810POPC   GL151241   2.043  42.411   5.779
 3810POPC   GL251242   2.203  42.709   5.845
 3810POPC   C1A51243   2.057  42.157   6.181
 3810POPC   D2A51244   2.226  42.207   6.609
 3810POPC   C3A51245   1.884  42.327   6.943
 3810POPC   C4A51246   1.870  42.252   7.410
 3810POPC   C1B51247   2.328  42.604   6.265
 3810POPC   C2B51248   2.183  42.695   6.702
 3810POPC   C3B51249   2.266  42.618   7.157
 3810POPC   C4B51250   2.118  42.691   7.622
 3811POPC   NC351251  14.790  44.448   5.451
 3811POPC   PO451252  14.326  44.831   5.224
 3811POPC   GL151253  14.468  44.824   5.664
 3811POPC   GL251254  14.721   0.007   5.855
 3811POPC   C1A51255  14.387  44.618   6.089
 3811POPC   D2A51256  14.237  44.581   6.561
 3811POPC   C3A51257  14.428  44.621   7.000
 3811POPC   C4A51258  14.215  44.454   7.381
 3811POPC   C1B51259  14.791  44.850   6.256
 3811POPC   C2B51260  14.690  44.925   6.669
 3811POPC   C3B51261  14.783  44.992   7.097
 3811POPC   C4B51262  14.663  44.901   7.531
 3812POPC   NC351263  35.821  21.480   5.181
 3812POPC   PO451264  36.400  21.659   5.578
 3812POPC   GL151265  36.065  21.553   5.826
 3812POPC   GL251266  35.905  21.327   5.662
 3812POPC   C1A51267  36.167  21.619   6.256
 3812POPC   D2A51268  36.387  21.462   6.620
 3812POPC   C3A51269  36.242  21.608   7.004
 3812POPC   C4A51270  36.382  21.945   7.237
 3812POPC   C1B51271  35.795  21.235   6.118
 3812POPC   C2B51272  35.861  21.352   6.557
 3812POPC   C3B51273  35.931  21.116   6.917
 3812POPC   C4B51274  36.216  21.148   7.216
 3813POPC   NC351275  44.503   4.955   5.501
 3813POPC   PO451276  44.923   5.405   5.349
 3813POPC   GL151277  44.927   5.201   5.743
 3813POPC   GL251278   0.028   4.834   5.751
 3813POPC   C1A51279  44.733   5.240   6.148
 3813POPC   D2A51280  44.625   5.026   6.531
 3813POPC   C3A51281  44.752   5.265   6.894
 3813POPC   C4A51282  44.429   5.185   7.170
 3813POPC   C1B51283  44.908   4.728   6.202
 3813POPC   C2B51284   0.006   4.693   6.654
 3813POPC   C3B51285  44.704   4.761   6.981
 3813POPC   C4B51286  44.755   4.868   7.403
 3814POPC   NC351287  39.958   5.159   5.386
 3814POPC   PO451288  39.934   4.510   5.167
 3814POPC   GL151289  40.101   4.711   5.608
 3814POPC   GL251290  39.786   4.784   5.768
 3814POPC   C1A51291  40.181   4.940   6.045
 3814POPC   D2A51292  40.146   5.148   6.444
 3814POPC   C3A51293  39.958   4.985   6.804
 3814POPC   C4A51294  40.099   5.100   7.193
 3814POPC   C1B51295  39.704   5.145   6.052
 3814POPC   C2B51296  39.529   5.182   6.459
 3814POPC   C3B51297  39.557   5.327   6.877
 3814POPC   C4B51298  39.595   5.044   7.206
 3815POPC   NC351299  36.303  36.408   5.443
 3815POPC   PO451300  36.013  35.783   5.569
 3815POPC   GL151301  36.240  35.979   5.853
 3815POPC   GL251302  36.058  36.275   5.882
 3815POPC   C1A51303  36.338  36.025   6.298
 3815POPC   D2A51304  36.097  35.923   6.679
 3815POPC   C3A51305  36.250  36.101   7.067
 3815POPC   C4A51306  36.230  36.163   7.515
 3815POPC   C1B51307  36.052  36.463   6.300
 3815POPC   C2B51308  35.987  36.423   6.753
 3815POPC   C3B51309  36.017  36.532   7.206
 3815POPC   C4B51310  35.853  36.503   7.623
 3816POPC   NC351311  23.549  41.069   5.425
 3816POPC   PO451312  23.658  40.631   5.564
 3816POPC   GL151313  23.776  40.677   5.995
 3816POPC   GL251314  23.673  41.032   6.043
 3816POPC   C1A51315  23.901  40.790   6.435
 3816POPC   D2A51316  23.691  41.076   6.741
 3816POPC   C3A51317  23.623  40.883   7.132
 3816POPC   C4A51318  23.884  40.546   7.272
 3816POPC   C1B51319  23.948  41.288   6.342
 3816POPC   C2B51320  24.191  41.195   6.720
 3816POPC   C3B51321  24.104  41.075   7.167
 3816POPC   C4B51322  23.899  40.962   7.579
 3817POPC   NC351323  26.696  43.813   5.257
 3817POPC   PO451324  26.031  44.075   5.264
 3817POPC   GL151325  26.149  44.175   5.657
 3817POPC   GL251326  26.356  43.884   5.632
 3817POPC   C1A51327  25.992  44.210   6.096
 3817POPC   D2A51328  25.905  43.910   6.434
 3817POPC   C3A51329  25.836  43.972   6.877
 3817POPC   C4A51330  25.981  43.702   7.198
 3817POPC   C1B51331  26.359  43.835   6.071
 3817POPC   C2B51332  26.416  44.044   6.469
 3817POPC   C3B51333  26.376  43.977   6.911
 3817POPC   C4B51334  26.256  44.107   7.314
 3818POPC   NC351335   9.063  16.221   5.363
 3818POPC   PO451336   8.563  15.774   5.578
 3818POPC   GL151337   8.808  16.048   5.777
 3818POPC   GL251338   9.093  15.827   5.702
 3818POPC   C1A51339   8.806  16.028   6.213
 3818POPC   D2A51340   8.615  15.813   6.522
 3818POPC   C3A51341   8.828  15.951   6.869
 3818POPC   C4A51342   8.981  15.777   7.250
 3818POPC   C1B51343   9.302  15.978   6.080
 3818POPC   C2B51344   9.210  15.923   6.528
 3818POPC   C3B51345   9.333  16.033   6.950
 3818POPC   C4B51346   9.610  15.774   7.181
 3819POPC   NC351347   8.282  16.127   5.535
 3819POPC   PO451348   7.887  15.581   5.586
 3819POPC   GL151349   8.004  15.884   5.896
 3819POPC   GL251350   8.347  15.934   6.002
 3819POPC   C1A51351   8.011  16.095   6.316
 3819POPC   D2A51352   7.951  16.050   6.735
 3819POPC   C3A51353   8.325  15.974   6.964
 3819POPC   C4A51354   8.614  16.165   7.281
 3819POPC   C1B51355   8.238  15.583   6.256
 3819POPC   C2B51356   8.206  15.451   6.676
 3819POPC   C3B51357   8.074  15.550   7.106
 3819POPC   C4B51358   8.229  15.842   7.450
 3820POPC   NC351359  30.685  28.444   5.509
 3820POPC   PO451360  30.335  28.978   5.581
 3820POPC   GL151361  30.399  28.674   5.908
 3820POPC   GL251362  30.493  28.315   5.961
 3820POPC   C1A51363  30.701  28.678   6.249
 3820POPC   D2A51364  30.668  28.586   6.667
 3820POPC   C3A51365  30.838  28.282   6.893
 3820POPC   C4A51366  31.122  28.171   7.215
 3820POPC   C1B51367  30.460  28.195   6.381
 3820POPC   C2B51368  30.300  28.254   6.778
 3820POPC   C3B51369  30.432  28.236   7.203
 3820POPC   C4B51370  30.274  28.100   7.596
 3821POPC   NC351371   6.991  11.568   5.399
 3821POPC   PO451372   6.482  11.112   5.532
 3821POPC   GL151373   6.584  11.227   5.885
 3821POPC   GL251374   6.665  11.566   5.824
 3821POPC   C1A51375   6.694  11.179   6.313
 3821POPC   D2A51376   6.921  11.216   6.721
 3821POPC   C3A51377   6.815  11.067   7.141
 3821POPC   C4A51378   6.606  11.304   7.493
 3821POPC   C1B51379   6.392  11.572   6.184
 3821POPC   C2B51380   6.489  11.553   6.615
 3821POPC   C3B51381   6.599  11.551   7.042
 3821POPC   C4B51382   6.370  11.749   7.362
 3822POPC   NC351383  23.577  34.903   5.384
 3822POPC   PO451384  23.368  35.490   5.359
 3822POPC   GL151385  23.441  35.440   5.794
 3822POPC   GL251386  23.725  35.190   5.813
 3822POPC   C1A51387  23.356  35.180   6.160
 3822POPC   D2A51388  23.559  35.017   6.550
 3822POPC   C3A51389  23.404  35.147   6.957
 3822POPC   C4A51390  23.474  35.540   7.166
 3822POPC   C1B51391  23.849  35.330   6.258
 3822POPC   C2B51392  23.766  35.469   6.714
 3822POPC   C3B51393  23.965  35.368   7.137
 3822POPC   C4B51394  24.084  35.353   7.609
 3823POPC   NC351395  18.763  30.775   5.603
 3823POPC   PO451396  19.325  30.631   5.195
 3823POPC   GL151397  19.161  30.534   5.716
 3823POPC   GL251398  19.293  30.757   5.962
 3823POPC   C1A51399  18.943  30.464   6.166
 3823POPC   D2A51400  19.143  30.608   6.582
 3823POPC   C3A51401  18.844  30.636   6.916
 3823POPC   C4A51402  18.710  30.315   7.222
 3823POPC   C1B51403  18.984  30.973   6.269
 3823POPC   C2B51404  18.981  31.133   6.714
 3823POPC   C3B51405  19.044  31.062   7.177
 3823POPC   C4B51406  19.202  31.086   7.608
 3824POPC   NC351407  23.222   0.667   5.214
 3824POPC   PO451408  22.641   0.400   5.362
 3824POPC   GL151409  22.763   0.585   5.737
 3824POPC   GL251410  23.137   0.651   5.739
 3824POPC   C1A51411  22.890   0.501   6.172
 3824POPC   D2A51412  22.957   0.667   6.571
 3824POPC   C3A51413  22.762   0.516   6.926
 3824POPC   C4A51414  22.721   0.110   7.104
 3824POPC   C1B51415  23.334   0.796   6.146
 3824POPC   C2B51416  23.457   0.808   6.604
 3824POPC   C3B51417  23.244   0.716   7.014
 3824POPC   C4B51418  23.175   0.315   7.208
 3825POPC   NC351419   4.996  32.786   5.480
 3825POPC   PO451420   5.370  33.268   5.294
 3825POPC   GL151421   5.310  33.160   5.712
 3825POPC   GL251422   5.433  32.831   5.735
 3825POPC   C1A51423   4.990  33.141   6.059
 3825POPC   D2A51424   4.831  33.138   6.495
 3825POPC   C3A51425   5.108  33.240   6.813
 3825POPC   C4A51426   5.376  33.085   7.130
 3825POPC   C1B51427   5.348  32.775   6.160
 3825POPC   C2B51428   5.319  32.642   6.581
 3825POPC   C3B51429   5.506  32.608   6.972
 3825POPC   C4B51430   5.311  32.630   7.368
 3826POPC   NC351431  11.233  14.808   5.098
 3826POPC   PO451432  11.211  14.306   5.490
 3826POPC   GL151433  11.145  14.314   5.929
 3826POPC   GL251434  11.471  14.144   5.918
 3826POPC   C1A51435  11.217  14.607   6.333
 3826POPC   D2A51436  11.291  14.775   6.776
 3826POPC   C3A51437  11.403  14.504   7.115
 3826POPC   C4A51438  11.162  14.183   7.240
 3826POPC   C1B51439  11.323  14.107   6.341
 3826POPC   C2B51440  11.330  14.181   6.736
 3826POPC   C3B51441  11.643  14.017   6.988
 3826POPC   C4B51442  11.585  13.919   7.364
 3827POPC   NC351443  40.953  33.455   5.443
 3827POPC   PO451444  40.523  33.941   5.238
 3827POPC   GL151445  40.588  33.868   5.700
 3827POPC   GL251446  40.601  33.522   5.830
 3827POPC   C1A51447  40.564  33.898   6.172
 3827POPC   D2A51448  40.657  33.642   6.561
 3827POPC   C3A51449  40.616  33.796   6.970
 3827POPC   C4A51450  40.863  34.025   7.253
 3827POPC   C1B51451  40.941  33.532   6.150
 3827POPC   C2B51452  41.098  33.334   6.579
 3827POPC   C3B51453  41.083  33.553   6.968
 3827POPC   C4B51454  40.815  33.498   7.310
 3828POPC   NC351455  14.266  17.887   5.342
 3828POPC   PO451456  14.109  17.280   5.153
 3828POPC   GL151457  14.474  17.534   5.599
 3828POPC   GL251458  14.332  17.789   5.826
 3828POPC   C1A51459  14.572  17.406   6.052
 3828POPC   D2A51460  14.325  17.200   6.386
 3828POPC   C3A51461  14.450  17.289   6.793
 3828POPC   C4A51462  14.439  17.486   7.171
 3828POPC   C1B51463  14.081  18.036   6.091
 3828POPC   C2B51464  14.058  18.054   6.536
 3828POPC   C3B51465  14.221  17.879   6.914
 3828POPC   C4B51466  14.087  17.806   7.333
 3829POPC   NC351467  31.011  18.322   5.468
 3829POPC   PO451468  30.374  18.173   5.190
 3829POPC   GL151469  30.343  18.186   5.671
 3829POPC   GL251470  30.613  18.396   5.785
 3829POPC   C1A51471  30.561  18.017   6.101
 3829POPC   D2A51472  30.829  18.032   6.545
 3829POPC   C3A51473  30.591  18.044   6.953
 3829POPC   C4A51474  30.763  18.021   7.422
 3829POPC   C1B51475  30.823  18.438   6.234
 3829POPC   C2B51476  30.909  18.548   6.695
 3829POPC   C3B51477  30.813  18.460   7.145
 3829POPC   C4B51478  30.805  18.493   7.632
 3830POPC   NC351479  37.751   3.451   5.329
 3830POPC   PO451480  37.309   3.407   5.802
 3830POPC   GL151481  37.760   3.422   5.859
 3830POPC   GL251482  38.016   3.706   5.817
 3830POPC   C1A51483  37.887   3.365   6.280
 3830POPC   D2A51484  38.079   3.431   6.653
 3830POPC   C3A51485  37.776   3.413   6.958
 3830POPC   C4A51486  37.987   3.745   7.148
 3830POPC   C1B51487  37.730   3.832   6.166
 3830POPC   C2B51488  37.548   3.784   6.607
 3830POPC   C3B51489  37.458   3.787   7.064
 3830POPC   C4B51490  37.386   3.423   7.336
 3831POPC   NC351491  38.303  25.828   5.640
 3831POPC   PO451492  38.554  26.452   5.481
 3831POPC   GL151493  38.426  26.308   5.882
 3831POPC   GL251494  38.676  26.073   5.930
 3831POPC   C1A51495  38.118  26.241   6.225
 3831POPC   D2A51496  38.082  26.025   6.630
 3831POPC   C3A51497  37.989  26.226   7.030
 3831POPC   C4A51498  38.195  26.396   7.358
 3831POPC   C1B51499  38.520  25.946   6.310
 3831POPC   C2B51500  38.603  26.030   6.705
 3831POPC   C3B51501  38.447  25.981   7.080
 3831POPC   C4B51502  38.680  26.277   7.251
 3832POPC   NC351503   2.388  38.677   5.050
 3832POPC   PO451504   3.008  38.552   5.245
 3832POPC   GL151505   2.932  38.630   5.752
 3832POPC   GL251506   2.631  38.813   5.881
 3832POPC   C1A51507   2.950  38.560   6.262
 3832POPC   D2A51508   3.154  38.525   6.729
 3832POPC   C3A51509   2.948  38.401   7.121
 3832POPC   C4A51510   2.779  38.419   7.551
 3832POPC   C1B51511   2.685  38.989   6.335
 3832POPC   C2B51512   2.678  38.748   6.747
 3832POPC   C3B51513   2.515  38.697   7.173
 3832POPC   C4B51514   2.277  38.952   7.475
 3833POPC   NC351515  44.075   3.883   5.467
 3833POPC   PO451516  44.004   3.242   5.457
 3833POPC   GL151517  43.986   3.449   5.828
 3833POPC   GL251518  43.777   3.735   5.863
 3833POPC   C1A51519  43.958   3.313   6.251
 3833POPC   D2A51520  44.241   3.438   6.571
 3833POPC   C3A51521  44.203   3.357   7.005
 3833POPC   C4A51522  43.964   3.517   7.327
 3833POPC   C1B51523  43.552   3.640   6.270
 3833POPC   C2B51524  43.357   3.641   6.706
 3833POPC   C3B51525  43.647   3.824   7.031
 3833POPC   C4B51526  43.786   3.970   7.451
 3834POPC   NC351527   5.909  14.189   5.403
 3834POPC   PO451528   5.791  14.804   5.346
 3834POPC   GL151529   5.874  14.559   5.757
 3834POPC   GL251530   6.216  14.574   5.655
 3834POPC   C1A51531   5.896  14.227   6.148
 3834POPC   D2A51532   5.898  14.070   6.612
 3834POPC   C3A51533   5.730  14.064   7.042
 3834POPC   C4A51534   5.345  14.262   7.209
 3834POPC   C1B51535   6.284  14.582   6.107
 3834POPC   C2B51536   6.183  14.494   6.552
 3834POPC   C3B51537   5.992  14.510   6.977
 3834POPC   C4B51538   6.129  14.623   7.411
 3835POPC   NC351539  16.398  22.331   5.556
 3835POPC   PO451540  16.974  21.910   5.597
 3835POPC   GL151541  16.851  22.244   5.808
 3835POPC   GL251542  16.600  22.044   5.960
 3835POPC   C1A51543  16.869  22.417   6.201
 3835POPC   D2A51544  16.588  22.384   6.530
 3835POPC   C3A51545  16.815  22.324   6.877
 3835POPC   C4A51546  16.675  22.066   7.191
 3835POPC   C1B51547  16.393  21.891   6.330
 3835POPC   C2B51548  16.315  21.988   6.775
 3835POPC   C3B51549  16.227  21.823   7.195
 3835POPC   C4B51550  16.448  21.866   7.600
 3836POPC   NC351551   6.513   6.820   5.334
 3836POPC   PO451552   6.818   6.246   5.153
 3836POPC   GL151553   6.662   6.492   5.663
 3836POPC   GL251554   6.846   6.828   5.774
 3836POPC   C1A51555   6.620   6.558   6.127
 3836POPC   D2A51556   6.886   6.505   6.483
 3836POPC   C3A51557   6.653   6.456   6.850
 3836POPC   C4A51558   6.488   6.437   7.277
 3836POPC   C1B51559   7.019   6.935   6.230
 3836POPC   C2B51560   7.138   6.907   6.703
 3836POPC   C3B51561   6.953   6.779   7.130
 3836POPC   C4B51562   6.701   6.934   7.504
 3837POPC   NC351563  11.049   5.740   5.393
 3837POPC   PO451564  11.685   5.808   5.318
 3837POPC   GL151565  11.453   5.796   5.763
 3837POPC   GL251566  11.184   6.072   5.798
 3837POPC   C1A51567  11.594   5.657   6.219
 3837POPC   D2A51568  11.697   5.605   6.674
 3837POPC   C3A51569  11.420   5.883   6.918
 3837POPC   C4A51570  11.435   6.003   7.332
 3837POPC   C1B51571  11.195   5.980   6.243
 3837POPC   C2B51572  11.073   6.163   6.652
 3837POPC   C3B51573  11.058   6.274   7.094
 3837POPC   C4B51574  10.972   6.122   7.508
 3838POPC   NC351575  26.103  16.392   5.432
 3838POPC   PO451576  26.155  15.780   5.475
 3838POPC   GL151577  26.083  16.031   5.885
 3838POPC   GL251578  26.136  16.385   5.943
 3838POPC   C1A51579  26.090  16.101   6.364
 3838POPC   D2A51580  25.992  16.232   6.800
 3838POPC   C3A51581  26.141  16.045   7.183
 3838POPC   C4A51582  26.006  15.779   7.538
 3838POPC   C1B51583  25.759  16.490   6.227
 3838POPC   C2B51584  25.611  16.539   6.679
 3838POPC   C3B51585  25.700  16.495   7.158
 3838POPC   C4B51586  25.843  16.271   7.534
 3839POPC   NC351587  10.733   6.684   5.311
 3839POPC   PO451588  10.078   6.447   5.249
 3839POPC   GL151589  10.375   6.479   5.646
 3839POPC   GL251590  10.684   6.303   5.691
 3839POPC   C1A51591  10.407   6.616   6.114
 3839POPC   D2A51592  10.471   6.880   6.535
 3839POPC   C3A51593  10.570   6.689   6.962
 3839POPC   C4A51594  10.630   6.819   7.397
 3839POPC   C1B51595  10.816   6.305   6.131
 3839POPC   C2B51596  10.613   6.364   6.544
 3839POPC   C3B51597  10.565   6.182   6.967
 3839POPC   C4B51598  10.485   6.315   7.391
 3840POPC   NC351599  19.283  25.892   5.373
 3840POPC   PO451600  18.921  26.440   5.366
 3840POPC   GL151601  18.976  26.146   5.690
 3840POPC   GL251602  18.708  25.918   5.665
 3840POPC   C1A51603  19.066  25.834   6.025
 3840POPC   D2A51604  18.937  25.865   6.442
 3840POPC   C3A51605  19.198  25.816   6.799
 3840POPC   C4A51606  19.052  25.822   7.195
 3840POPC   C1B51607  18.651  26.189   6.072
 3840POPC   C2B51608  18.855  26.383   6.447
 3840POPC   C3B51609  18.843  26.195   6.860
 3840POPC   C4B51610  18.711  26.298   7.266
 3841POPC   NC351611  40.220  14.017   5.378
 3841POPC   PO451612  39.939  13.384   5.521
 3841POPC   GL151613  39.965  13.737   5.750
 3841POPC   GL251614  40.331  13.684   5.779
 3841POPC   C1A51615  39.713  13.950   6.074
 3841POPC   D2A51616  39.704  13.961   6.549
 3841POPC   C3A51617  39.703  13.553   6.771
 3841POPC   C4A51618  39.800  13.420   7.173
 3841POPC   C1B51619  40.160  13.564   6.189
 3841POPC   C2B51620  40.147  13.712   6.610
 3841POPC   C3B51621  40.145  13.819   7.021
 3841POPC   C4B51622  40.315  13.564   7.342
 3842POPC   NC351623  33.020   5.180   5.302
 3842POPC   PO451624  33.142   4.617   5.603
 3842POPC   GL151625  33.021   5.000   5.821
 3842POPC   GL251626  32.831   4.779   5.985
 3842POPC   C1A51627  33.043   5.300   6.201
 3842POPC   D2A51628  33.242   5.351   6.649
 3842POPC   C3A51629  32.999   5.295   7.029
 3842POPC   C4A51630  32.840   4.920   7.228
 3842POPC   C1B51631  33.100   4.817   6.327
 3842POPC   C2B51632  33.069   4.873   6.753
 3842POPC   C3B51633  33.343   4.873   7.149
 3842POPC   C4B51634  33.231   4.996   7.588
 3843POPC   NC351635  23.568  35.901   5.432
 3843POPC   PO451636  23.806  36.320   5.704
 3843POPC   GL151637  23.668  35.920   5.930
 3843POPC   GL251638  23.910  35.676   5.825
 3843POPC   C1A51639  23.535  35.724   6.329
 3843POPC   D2A51640  23.378  35.834   6.760
 3843POPC   C3A51641  23.516  36.238   6.967
 3843POPC   C4A51642  23.857  36.319   7.299
 3843POPC   C1B51643  24.043  35.810   6.263
 3843POPC   C2B51644  23.862  36.001   6.630
 3843POPC   C3B51645  23.836  35.867   7.043
 3843POPC   C4B51646  23.980  35.820   7.428
 3844POPC   NC351647   4.671   5.154   5.508
 3844POPC   PO451648   3.972   5.104   5.346
 3844POPC   GL151649   4.247   4.981   5.755
 3844POPC   GL251650   4.128   4.868   6.058
 3844POPC   C1A51651   4.616   4.981   6.140
 3844POPC   D2A51652   4.615   5.243   6.521
 3844POPC   C3A51653   4.568   5.031   6.911
 3844POPC   C4A51654   4.240   4.947   7.164
 3844POPC   C1B51655   4.255   5.327   6.131
 3844POPC   C2B51656   4.158   5.480   6.543
 3844POPC   C3B51657   4.308   5.465   6.949
 3844POPC   C4B51658   4.116   5.417   7.333
 3845POPC   NC351659  30.516  11.382   5.419
 3845POPC   PO451660  30.996  10.969   5.668
 3845POPC   GL151661  30.742  11.264   5.896
 3845POPC   GL251662  30.370  11.264   5.960
 3845POPC   C1A51663  30.717  11.243   6.322
 3845POPC   D2A51664  30.688  11.058   6.714
 3845POPC   C3A51665  30.732  11.284   7.050
 3845POPC   C4A51666  30.683  11.177   7.454
 3845POPC   C1B51667  30.367  11.628   6.251
 3845POPC   C2B51668  30.567  11.592   6.651
 3845POPC   C3B51669  30.455  11.700   7.045
 3845POPC   C4B51670  30.376  11.591   7.460
 3846POPC   NC351671  35.129  36.632   5.375
 3846POPC   PO451672  34.622  36.838   5.333
 3846POPC   GL151673  34.643  36.982   5.762
 3846POPC   GL251674  34.986  36.898   5.832
 3846POPC   C1A51675  34.634  36.862   6.227
 3846POPC   D2A51676  34.623  36.587   6.624
 3846POPC   C3A51677  34.490  36.741   7.065
 3846POPC   C4A51678  34.439  37.051   7.423
 3846POPC   C1B51679  35.016  36.518   6.120
 3846POPC   C2B51680  35.147  36.456   6.558
 3846POPC   C3B51681  34.995  36.618   6.988
 3846POPC   C4B51682  34.910  36.822   7.410
 3847POPC   NC351683   2.453  42.861   5.411
 3847POPC   PO451684   1.965  43.342   5.291
 3847POPC   GL151685   2.159  43.217   5.668
 3847POPC   GL251686   1.839  43.069   5.750
 3847POPC   C1A51687   2.182  43.120   6.122
 3847POPC   D2A51688   1.974  43.169   6.504
 3847POPC   C3A51689   2.215  43.164   6.873
 3847POPC   C4A51690   2.108  43.083   7.269
 3847POPC   C1B51691   1.701  42.851   6.113
 3847POPC   C2B51692   1.513  42.955   6.527
 3847POPC   C3B51693   1.748  42.874   6.908
 3847POPC   C4B51694   1.736  42.718   7.307
 3848POPC   NC351695  38.390  33.983   5.304
 3848POPC   PO451696  38.413  34.656   5.361
 3848POPC   GL151697  38.323  34.364   5.687
 3848POPC   GL251698  38.008  34.149   5.654
 3848POPC   C1A51699  38.507  34.380   6.107
 3848POPC   D2A51700  38.843  34.388   6.442
 3848POPC   C3A51701  38.589  34.482   6.832
 3848POPC   C4A51702  38.608  34.838   7.118
 3848POPC   C1B51703  37.921  34.243   6.067
 3848POPC   C2B51704  38.091  34.432   6.430
 3848POPC   C3B51705  38.053  34.368   6.859
 3848POPC   C4B51706  38.267  34.435   7.249
 3849POPC   NC351707  17.851  26.187   5.144
 3849POPC   PO451708  17.320  26.383   5.516
 3849POPC   GL151709  17.273  26.256   5.918
 3849POPC   GL251710  17.563  26.381   6.097
 3849POPC   C1A51711  17.310  25.952   6.222
 3849POPC   D2A51712  17.049  25.766   6.482
 3849POPC   C3A51713  17.135  25.747   6.903
 3849POPC   C4A51714  17.420  25.921   7.209
 3849POPC   C1B51715  17.685  26.191   6.430
 3849POPC   C2B51716  17.333  26.178   6.708
 3849POPC   C3B51717  17.396  26.416   7.056
 3849POPC   C4B51718  17.764  26.400   7.298
 3850POPC   NC351719  13.916  21.841   5.556
 3850POPC   PO451720  13.811  21.190   5.469
 3850POPC   GL151721  13.582  21.242   5.835
 3850POPC   GL251722  13.408  21.599   5.776
 3850POPC   C1A51723  13.725  21.105   6.271
 3850POPC   D2A51724  13.553  21.176   6.668
 3850POPC   C3A51725  13.712  21.123   7.026
 3850POPC   C4A51726  13.388  21.134   7.293
 3850POPC   C1B51727  13.514  21.575   6.224
 3850POPC   C2B51728  13.347  21.645   6.607
 3850POPC   C3B51729  13.419  21.564   7.015
 3850POPC   C4B51730  13.514  21.774   7.374
 3851POPC   NC351731   4.752  42.688   5.626
 3851POPC   PO451732   5.233  42.627   5.147
 3851POPC   GL151733   5.187  42.429   5.644
 3851POPC   GL251734   5.117  42.640   5.988
 3851POPC   C1A51735   4.990  42.153   6.026
 3851POPC   D2A51736   4.755  42.243   6.449
 3851POPC   C3A51737   4.998  42.296   6.856
 3851POPC   C4A51738   5.177  42.321   7.282
 3851POPC   C1B51739   4.768  42.776   6.304
 3851POPC   C2B51740   4.641  42.662   6.749
 3851POPC   C3B51741   4.629  42.590   7.186
 3851POPC   C4B51742   4.696  42.918   7.430
 3852POPC   NC351743   2.425  20.002   5.467
 3852POPC   PO451744   2.985  19.606   5.450
 3852POPC   GL151745   2.913  19.495   5.866
 3852POPC   GL251746   2.559  19.518   5.937
 3852POPC   C1A51747   3.002  19.640   6.274
 3852POPC   D2A51748   2.963  20.003   6.552
 3852POPC   C3A51749   2.942  19.845   6.988
 3852POPC   C4A51750   2.557  19.689   7.093
 3852POPC   C1B51751   2.553  19.899   6.177
 3852POPC   C2B51752   2.457  20.002   6.615
 3852POPC   C3B51753   2.657  20.268   6.879
 3852POPC   C4B51754   2.788  20.249   7.277
 3853POPC   NC351755  27.929  19.054   5.312
 3853POPC   PO451756  27.239  19.026   5.248
 3853POPC   GL151757  27.334  19.134   5.718
 3853POPC   GL251758  27.694  18.999   5.764
 3853POPC   C1A51759  27.493  19.169   6.187
 3853POPC   D2A51760  27.765  19.087   6.554
 3853POPC   C3A51761  27.501  18.870   6.881
 3853POPC   C4A51762  27.306  19.009   7.301
 3853POPC   C1B51763  27.801  18.753   6.158
 3853POPC   C2B51764  27.958  18.615   6.594
 3853POPC   C3B51765  28.019  18.877   6.964
 3853POPC   C4B51766  27.804  18.915   7.348
 3854POPC   NC351767  34.060  12.690   5.241
 3854POPC   PO451768  33.593  13.138   5.402
 3854POPC   GL151769  33.870  12.971   5.707
 3854POPC   GL251770  33.869  12.634   5.733
 3854POPC   C1A51771  33.726  12.924   6.153
 3854POPC   D2A51772  33.645  12.941   6.614
 3854POPC   C3A51773  33.736  12.754   7.011
 3854POPC   C4A51774  33.818  13.123   7.230
 3854POPC   C1B51775  34.084  12.575   6.175
 3854POPC   C2B51776  34.049  12.492   6.639
 3854POPC   C3B51777  34.214  12.585   7.063
 3854POPC   C4B51778  34.336  12.690   7.518
 3855POPC   NC351779  29.740  42.788   5.512
 3855POPC   PO451780  30.114  42.339   5.150
 3855POPC   GL151781  29.979  42.337   5.677
 3855POPC   GL251782  29.994  42.631   5.914
 3855POPC   C1A51783  29.994  42.191   6.152
 3855POPC   D2A51784  30.202  42.293   6.552
 3855POPC   C3A51785  29.977  42.240   6.923
 3855POPC   C4A51786  29.979  42.512   7.279
 3855POPC   C1B51787  29.642  42.730   6.169
 3855POPC   C2B51788  29.729  42.559   6.542
 3855POPC   C3B51789  29.628  42.622   6.920
 3855POPC   C4B51790  29.475  42.595   7.278
 3856POPC   NC351791  10.785   0.150   5.139
 3856POPC   PO451792  10.399  44.715   5.457
 3856POPC   GL151793  10.264  44.770   5.897
 3856POPC   GL251794  10.626  44.836   5.934
 3856POPC   C1A51795  10.313  44.894   6.357
 3856POPC   D2A51796  10.489  44.605   6.688
 3856POPC   C3A51797  10.315  44.502   7.104
 3856POPC   C4A51798  10.233  44.127   7.367
 3856POPC   C1B51799  10.837  44.804   6.331
 3856POPC   C2B51800  10.801   0.012   6.748
 3856POPC   C3B51801  10.770  44.761   7.136
 3856POPC   C4B51802  10.947  44.784   7.573
 3857POPC   NC351803   3.042  10.561   5.599
 3857POPC   PO451804   2.860  10.149   5.152
 3857POPC   GL151805   2.615  10.293   5.610
 3857POPC   GL251806   2.530  10.662   5.715
 3857POPC   C1A51807   2.739  10.383   6.135
 3857POPC   D2A51808   2.857  10.601   6.555
 3857POPC   C3A51809   2.680  10.375   6.955
 3857POPC   C4A51810   2.687  10.055   7.314
 3857POPC   C1B51811   2.505  10.814   6.187
 3857POPC   C2B51812   2.401  10.803   6.652
 3857POPC   C3B51813   2.588  10.879   7.070
 3857POPC   C4B51814   2.703  10.970   7.507
 3858POPC   NC351815  43.030  17.154   5.411
 3858POPC   PO451816  42.969  17.839   5.229
 3858POPC   GL151817  43.102  17.615   5.672
 3858POPC   GL251818  43.325  17.299   5.779
 3858POPC   C1A51819  42.936  17.436   6.103
 3858POPC   D2A51820  42.865  17.203   6.533
 3858POPC   C3A51821  42.884  17.476   6.880
 3858POPC   C4A51822  43.193  17.796   6.917
 3858POPC   C1B51823  43.461  17.453   6.157
 3858POPC   C2B51824  43.486  17.225   6.523
 3858POPC   C3B51825  43.444  17.363   6.903
 3858POPC   C4B51826  43.552  17.138   7.232
 3859POPC   NC351827  44.142  23.516   5.533
 3859POPC   PO451828  43.743  23.752   5.118
 3859POPC   GL151829  43.731  23.784   5.658
 3859POPC   GL251830  43.417  23.945   5.734
 3859POPC   C1A51831  43.985  23.833   6.100
 3859POPC   D2A51832  44.128  23.590   6.503
 3859POPC   C3A51833  43.994  23.727   6.894
 3859POPC   C4A51834  44.177  23.883   7.276
 3859POPC   C1B51835  43.503  23.694   6.135
 3859POPC   C2B51836  43.569  23.623   6.566
 3859POPC   C3B51837  43.551  23.474   6.992
 3859POPC   C4B51838  43.635  23.802   7.259
 3860POPC   NC351839   6.747  44.758   5.409
 3860POPC   PO451840   6.391  44.276   5.682
 3860POPC   GL151841   6.632  44.580   5.889
 3860POPC   GL251842   6.975  44.722   5.860
 3860POPC   C1A51843   6.510  44.728   6.266
 3860POPC   D2A51844   6.539  44.982   6.597
 3860POPC   C3A51845   6.462  44.813   7.004
 3860POPC   C4A51846   6.289  44.887   7.389
 3860POPC   C1B51847   6.988  44.499   6.252
 3860POPC   C2B51848   6.790  44.532   6.656
 3860POPC   C3B51849   6.912  44.575   7.068
 3860POPC   C4B51850   6.895  44.883   7.399
 3861POPC   NC351851  34.858  18.499   5.467
 3861POPC   PO451852  34.242  18.171   5.445
 3861POPC   GL151853  34.440  18.325   5.803
 3861POPC   GL251854  34.473  18.668   5.799
 3861POPC   C1A51855  34.502  18.194   6.237
 3861POPC   D2A51856  34.217  18.107   6.600
 3861POPC   C3A51857  34.386  18.166   7.025
 3861POPC   C4A51858  34.825  18.167   7.081
 3861POPC   C1B51859  34.774  18.798   6.112
 3861POPC   C2B51860  35.041  18.768   6.455
 3861POPC   C3B51861  34.865  18.787   6.852
 3861POPC   C4B51862  34.794  18.771   7.286
 3862POPC   NC351863  27.820  28.230   5.427
 3862POPC   PO451864  27.418  28.728   5.380
 3862POPC   GL151865  27.488  28.448   5.771
 3862POPC   GL251866  27.673  28.139   5.885
 3862POPC   C1A51867  27.547  28.526   6.214
 3862POPC   D2A51868  27.383  28.399   6.586
 3862POPC   C3A51869  27.630  28.466   6.930
 3862POPC   C4A51870  27.581  28.641   7.345
 3862POPC   C1B51871  27.600  27.971   6.248
 3862POPC   C2B51872  27.742  28.051   6.620
 3862POPC   C3B51873  27.540  27.955   6.999
 3862POPC   C4B51874  27.664  28.134   7.332
 3863POPC   NC351875  10.732  29.843   5.410
 3863POPC   PO451876  10.409  30.405   5.362
 3863POPC   GL151877  10.596  30.243   5.766
 3863POPC   GL251878  10.603  29.907   5.894
 3863POPC   C1A51879  10.475  30.303   6.220
 3863POPC   D2A51880  10.620  30.053   6.577
 3863POPC   C3A51881  10.555  30.149   7.024
 3863POPC   C4A51882  10.783  29.891   7.315
 3863POPC   C1B51883  10.285  29.795   6.175
 3863POPC   C2B51884  10.272  29.643   6.570
 3863POPC   C3B51885  10.434  29.663   6.972
 3863POPC   C4B51886  10.244  29.887   7.321
 3864POPC   NC351887  43.064  10.383   5.295
 3864POPC   PO451888  43.449  10.909   5.510
 3864POPC   GL151889  43.288  10.508   5.723
 3864POPC   GL251890  43.012  10.656   5.832
 3864POPC   C1A51891  43.351  10.279   6.125
 3864POPC   D2A51892  43.559  10.388   6.474
 3864POPC   C3A51893  43.500  10.322   6.891
 3864POPC   C4A51894  43.505  10.497   7.275
 3864POPC   C1B51895  42.887  10.446   6.227
 3864POPC   C2B51896  43.051  10.430   6.648
 3864POPC   C3B51897  43.024  10.473   7.115
 3864POPC   C4B51898  43.014  10.150   7.465
 3865POPC   NC351899  39.707  22.050   5.308
 3865POPC   PO451900  39.058  22.204   5.211
 3865POPC   GL151901  39.040  22.067   5.664
 3865POPC   GL251902  39.371  22.146   5.797
 3865POPC   C1A51903  39.029  21.847   6.098
 3865POPC   D2A51904  39.088  21.990   6.555
 3865POPC   C3A51905  39.072  21.727   6.930
 3865POPC   C4A51906  39.000  21.906   7.352
 3865POPC   C1B51907  39.524  22.024   6.232
 3865POPC   C2B51908  39.582  21.863   6.666
 3865POPC   C3B51909  39.442  22.057   7.048
 3865POPC   C4B51910  39.117  22.388   7.142
 3866POPC   NC351911  35.038  21.665   5.217
 3866POPC   PO451912  34.503  21.626   5.428
 3866POPC   GL151913  34.544  21.235   5.671
 3866POPC   GL251914  34.862  21.268   5.857
 3866POPC   C1A51915  34.455  21.031   6.069
 3866POPC   D2A51916  34.373  21.151   6.484
 3866POPC   C3A51917  34.628  21.103   6.853
 3866POPC   C4A51918  34.391  21.045   7.224
 3866POPC   C1B51919  34.596  21.512   6.171
 3866POPC   C2B51920  34.565  21.604   6.641
 3866POPC   C3B51921  34.663  21.605   7.106
 3866POPC   C4B51922  34.486  21.540   7.554
 3867POPC   NC351923  32.315  44.329   5.591
 3867POPC   PO451924  32.953  44.554   5.385
 3867POPC   GL151925  33.136  44.748   5.757
 3867POPC   GL251926  33.302   0.020   5.676
 3867POPC   C1A51927  33.328  44.612   6.142
 3867POPC   D2A51928  33.182  44.348   6.478
 3867POPC   C3A51929  33.211  44.528   6.909
 3867POPC   C4A51930  33.195  44.319   7.308
 3867POPC   C1B51931  33.189   0.113   6.114
 3867POPC   C2B51932  33.052  44.888   6.504
 3867POPC   C3B51933  32.919  44.928   6.930
 3867POPC   C4B51934  33.092  44.872   7.335
 3868POPC   NC351935   2.412  31.026   5.017
 3868POPC   PO451936   2.846  30.919   5.478
 3868POPC   GL151937   2.751  30.653   5.802
 3868POPC   GL251938   3.033  30.437   5.657
 3868POPC   C1A51939   2.795  30.782   6.254
 3868POPC   D2A51940   2.730  30.630   6.676
 3868POPC   C3A51941   2.921  30.823   7.012
 3868POPC   C4A51942   2.690  30.901   7.381
 3868POPC   C1B51943   3.061  30.351   6.091
 3868POPC   C2B51944   3.146  30.366   6.509
 3868POPC   C3B51945   3.019  30.258   6.906
 3868POPC   C4B51946   3.011  30.435   7.327
 3869POPC   NC351947   7.562  21.487   5.486
 3869POPC   PO451948   6.998  21.031   5.310
 3869POPC   GL151949   7.182  21.251   5.703
 3869POPC   GL251950   7.411  21.044   5.859
 3869POPC   C1A51951   7.458  21.473   6.114
 3869POPC   D2A51952   7.642  21.556   6.557
 3869POPC   C3A51953   7.366  21.628   6.927
 3869POPC   C4A51954   7.173  21.228   7.127
 3869POPC   C1B51955   7.805  21.085   6.114
 3869POPC   C2B51956   7.923  21.104   6.536
 3869POPC   C3B51957   7.699  21.103   6.915
 3869POPC   C4B51958   7.658  21.368   7.260
 3870POPC   NC351959  31.091  14.560   5.579
 3870POPC   PO451960  30.504  14.335   5.471
 3870POPC   GL151961  30.669  14.338   5.859
 3870POPC   GL251962  30.381  14.171   5.977
 3870POPC   C1A51963  30.872  14.567   6.195
 3870POPC   D2A51964  30.926  14.717   6.604
 3870POPC   C3A51965  30.863  14.363   6.881
 3870POPC   C4A51966  30.671  14.513   7.186
 3870POPC   C1B51967  30.674  14.102   6.337
 3870POPC   C2B51968  30.545  13.973   6.743
 3870POPC   C3B51969  30.322  14.180   7.057
 3870POPC   C4B51970  30.434  14.168   7.499
 3871POPC   NC351971   9.764  29.591   5.418
 3871POPC   PO451972   9.950  28.884   5.377
 3871POPC   GL151973   9.748  29.139   5.691
 3871POPC   GL251974  10.008  29.351   5.789
 3871POPC   C1A51975   9.635  29.155   6.130
 3871POPC   D2A51976   9.790  28.967   6.526
 3871POPC   C3A51977   9.694  29.138   6.945
 3871POPC   C4A51978   9.608  29.087   7.386
 3871POPC   C1B51979  10.131  29.296   6.203
 3871POPC   C2B51980  10.285  29.125   6.570
 3871POPC   C3B51981  10.154  28.929   6.921
 3871POPC   C4B51982  10.098  29.202   7.269
 3872POPC   NC351983  11.006  10.575   5.438
 3872POPC   PO451984  10.287  10.533   5.403
 3872POPC   GL151985  10.459  10.715   5.792
 3872POPC   GL251986  10.816  10.817   5.870
 3872POPC   C1A51987  10.293  10.686   6.207
 3872POPC   D2A51988  10.288  10.369   6.527
 3872POPC   C3A51989  10.595  10.353   6.821
 3872POPC   C4A51990  10.566  10.512   7.208
 3872POPC   C1B51991  10.815  10.551   6.287
 3872POPC   C2B51992  11.062  10.340   6.637
 3872POPC   C3B51993  11.079  10.227   7.072
 3872POPC   C4B51994  11.073  10.308   7.552
 3873POPC   NC351995  40.153  25.438   5.107
 3873POPC   PO451996  40.241  26.042   5.393
 3873POPC   GL151997  40.065  26.085   5.810
 3873POPC   GL251998  40.382  26.101   5.880
 3873POPC   C1A51999  39.789  26.011   6.148
 3873POPC   D2A52000  39.860  26.115   6.549
 3873POPC   C3A52001  39.888  25.880   6.915
 3873POPC   C4A52002  39.947  26.079   7.299
 3873POPC   C1B52003  40.308  26.010   6.277
 3873POPC   C2B52004  40.329  26.281   6.611
 3873POPC   C3B52005  40.342  26.242   7.015
 3873POPC   C4B52006  40.427  26.353   7.416
 3874POPC   NC352007  21.975  28.760   5.352
 3874POPC   PO452008  22.482  29.113   5.223
 3874POPC   GL152009  22.288  29.003   5.696
 3874POPC   GL252010  21.920  28.941   5.805
 3874POPC   C1A52011  22.224  29.181   6.146
 3874POPC   D2A52012  22.496  29.196   6.502
 3874POPC   C3A52013  22.458  29.220   6.949
 3874POPC   C4A52014  22.118  29.322   7.208
 3874POPC   C1B52015  22.023  28.687   6.149
 3874POPC   C2B52016  22.057  28.869   6.553
 3874POPC   C3B52017  22.086  28.855   6.980
 3874POPC   C4B52018  21.910  28.802   7.375
 3875POPC   NC352019  32.217  26.838   5.320
 3875POPC   PO452020  32.188  27.312   5.807
 3875POPC   GL152021  32.445  26.992   5.851
 3875POPC   GL252022  32.232  26.731   5.821
 3875POPC   C1A52023  32.555  26.787   6.231
 3875POPC   D2A52024  32.407  26.829   6.635
 3875POPC   C3A52025  32.608  26.741   7.018
 3875POPC   C4A52026  32.453  27.006   7.364
 3875POPC   C1B52027  32.067  26.587   6.238
 3875POPC   C2B52028  32.118  26.426   6.683
 3875POPC   C3B52029  32.103  26.726   7.050
 3875POPC   C4B52030  32.161  26.595   7.488
 3876POPC   NC352031  40.458  19.153   5.483
 3876POPC   PO452032  41.115  19.013   5.434
 3876POPC   GL152033  41.055  18.988   5.861
 3876POPC   GL252034  40.749  19.195   5.928
 3876POPC   C1A52035  41.064  18.987   6.298
 3876POPC   D2A52036  41.074  19.320   6.594
 3876POPC   C3A52037  40.866  19.167   6.953
 3876POPC   C4A52038  41.055  18.975   7.273
 3876POPC   C1B52039  40.609  19.237   6.374
 3876POPC   C2B52040  40.652  19.583   6.712
 3876POPC   C3B52041  40.785  19.620   7.157
 3876POPC   C4B52042  40.677  19.273   7.435
 3877POPC   NC352043  31.383  30.578   5.361
 3877POPC   PO452044  31.842  30.173   5.702
 3877POPC   GL152045  31.743  30.553   5.865
 3877POPC   GL252046  31.433  30.707   5.843
 3877POPC   C1A52047  31.785  30.728   6.260
 3877POPC   D2A52048  31.763  30.755   6.691
 3877POPC   C3A52049  31.671  30.517   7.046
 3877POPC   C4A52050  31.661  30.855   7.342
 3877POPC   C1B52051  31.287  30.766   6.228
 3877POPC   C2B52052  31.317  30.956   6.588
 3877POPC   C3B52053  31.298  30.914   6.992
 3877POPC   C4B52054  31.200  30.601   7.273
 3878POPC   NC352055  11.930  31.537   5.448
 3878POPC   PO452056  12.652  31.418   5.528
 3878POPC   GL152057  12.302  31.566   5.811
 3878POPC   GL252058  12.008  31.323   5.892
 3878POPC   C1A52059  12.236  31.755   6.212
 3878POPC   D2A52060  12.437  31.582   6.614
 3878POPC   C3A52061  12.209  31.616   6.976
 3878POPC   C4A52062  12.250  31.535   7.489
 3878POPC   C1B52063  12.160  31.275   6.307
 3878POPC   C2B52064  12.241  31.053   6.700
 3878POPC   C3B52065  12.185  31.153   7.122
 3878POPC   C4B52066  11.996  31.093   7.515
 3879POPC   NC352067  12.345   5.565   5.523
 3879POPC   PO452068  12.053   4.939   5.388
 3879POPC   GL152069  12.017   5.077   5.812
 3879POPC   GL252070  11.957   4.709   5.862
 3879POPC   C1A52071  11.981   5.302   6.234
 3879POPC   D2A52072  12.051   5.133   6.617
 3879POPC   C3A52073  12.058   5.247   7.028
 3879POPC   C4A52074  12.223   4.928   7.305
 3879POPC   C1B52075  11.721   4.889   6.180
 3879POPC   C2B52076  11.509   5.170   6.447
 3879POPC   C3B52077  11.539   5.047   6.862
 3879POPC   C4B52078  11.715   4.919   7.253
 3880POPC   NC352079  43.733  21.502   5.143
 3880POPC   PO452080  44.235  21.226   5.455
 3880POPC   GL152081  43.938  21.253   5.782
 3880POPC   GL252082  43.659  21.494   5.719
 3880POPC   C1A52083  43.842  21.188   6.196
 3880POPC   D2A52084  44.014  21.392   6.587
 3880POPC   C3A52085  43.927  21.128   6.930
 3880POPC   C4A52086  43.949  21.387   7.256
 3880POPC   C1B52087  43.434  21.479   6.138
 3880POPC   C2B52088  43.514  21.252   6.599
 3880POPC   C3B52089  43.468  21.323   7.072
 3880POPC   C4B52090  43.530  21.675   7.388
 3881POPC   NC352091  20.941   0.908   5.479
 3881POPC   PO452092  20.763   1.502   5.260
 3881POPC   GL152093  20.653   1.480   5.737
 3881POPC   GL252094  20.909   1.253   5.875
 3881POPC   C1A52095  20.429   1.435   6.175
 3881POPC   D2A52096  20.323   1.132   6.536
 3881POPC   C3A52097  20.514   1.199   6.947
 3881POPC   C4A52098  20.556   1.589   7.135
 3881POPC   C1B52099  20.816   1.115   6.294
 3881POPC   C2B52100  20.968   1.325   6.655
 3881POPC   C3B52101  21.029   1.313   7.083
 3881POPC   C4B52102  20.873   0.969   7.294
 3882POPC   NC352103  37.475   4.664   5.590
 3882POPC   PO452104  37.820   5.148   5.277
 3882POPC   GL152105  37.760   5.086   5.749
 3882POPC   GL252106  37.846   4.746   5.937
 3882POPC   C1A52107  37.532   5.206   6.146
 3882POPC   D2A52108  37.563   5.317   6.597
 3882POPC   C3A52109  37.753   5.012   6.852
 3882POPC   C4A52110  37.800   5.107   7.248
 3882POPC   C1B52111  37.474   4.716   6.261
 3882POPC   C2B52112  37.349   4.738   6.702
 3882POPC   C3B52113  37.371   4.845   7.172
 3882POPC   C4B52114  37.156   4.765   7.585
 3883POPC   NC352115  22.053  27.864   5.489
 3883POPC   PO452116  22.473  27.452   5.179
 3883POPC   GL152117  22.469  27.540   5.671
 3883POPC   GL252118  22.139  27.518   5.859
 3883POPC   C1A52119  22.523  27.687   6.133
 3883POPC   D2A52120  22.479  27.958   6.503
 3883POPC   C3A52121  22.443  27.816   6.957
 3883POPC   C4A52122  22.224  27.545   7.245
 3883POPC   C1B52123  22.038  27.715   6.303
 3883POPC   C2B52124  21.955  27.609   6.764
 3883POPC   C3B52125  21.809  27.293   7.104
 3883POPC   C4B52126  21.901  27.348   7.574
 3884POPC   NC352127  29.072  33.081   5.486
 3884POPC   PO452128  29.644  32.795   5.412
 3884POPC   GL152129  29.387  32.787   5.818
 3884POPC   GL252130  29.002  32.818   5.939
 3884POPC   C1A52131  29.363  32.669   6.251
 3884POPC   D2A52132  29.632  32.672   6.608
 3884POPC   C3A52133  29.411  32.781   6.978
 3884POPC   C4A52134  29.031  32.722   7.194
 3884POPC   C1B52135  28.804  32.942   6.349
 3884POPC   C2B52136  28.746  32.934   6.820
 3884POPC   C3B52137  28.665  33.136   7.236
 3884POPC   C4B52138  28.475  33.124   7.675
 3885POPC   NC352139  30.014  37.433   5.411
 3885POPC   PO452140  30.049  38.102   5.318
 3885POPC   GL152141  29.891  37.896   5.695
 3885POPC   GL252142  29.638  37.623   5.752
 3885POPC   C1A52143  29.965  37.784   6.132
 3885POPC   D2A52144  29.822  37.977   6.514
 3885POPC   C3A52145  29.921  37.766   6.895
 3885POPC   C4A52146  29.761  37.405   7.092
 3885POPC   C1B52147  29.466  37.722   6.221
 3885POPC   C2B52148  29.415  37.713   6.717
 3885POPC   C3B52149  29.460  37.812   7.173
 3885POPC   C4B52150  29.549  37.542   7.563
 3886POPC   NC352151   8.147   2.620   5.372
 3886POPC   PO452152   8.590   3.019   5.464
 3886POPC   GL152153   8.356   2.824   5.820
 3886POPC   GL252154   8.129   2.516   5.862
 3886POPC   C1A52155   8.222   2.973   6.222
 3886POPC   D2A52156   8.332   2.824   6.626
 3886POPC   C3A52157   8.135   3.033   6.933
 3886POPC   C4A52158   8.272   2.974   7.323
 3886POPC   C1B52159   8.357   2.462   6.251
 3886POPC   C2B52160   8.334   2.306   6.693
 3886POPC   C3B52161   8.271   2.522   7.087
 3886POPC   C4B52162   8.145   2.534   7.564
 3887POPC   NC352163  36.552  23.620   5.505
 3887POPC   PO452164  37.129  23.993   5.530
 3887POPC   GL152165  36.888  23.802   5.863
 3887POPC   GL252166  36.621  24.008   5.837
 3887POPC   C1A52167  36.666  23.515   6.165
 3887POPC   D2A52168  36.702  23.342   6.575
 3887POPC   C3A52169  37.013  23.600   6.783
 3887POPC   C4A52170  36.970  23.827   7.167
 3887POPC   C1B52171  36.680  24.164   6.246
 3887POPC   C2B52172  36.655  23.875   6.576
 3887POPC   C3B52173  36.480  23.768   6.960
 3887POPC   C4B52174  36.539  24.110   7.224
 3888POPC   NC352175   2.510  22.204   5.325
 3888POPC   PO452176   3.112  21.921   5.401
 3888POPC   GL152177   2.893  22.126   5.786
 3888POPC   GL252178   2.543  22.177   5.834
 3888POPC   C1A52179   3.026  22.261   6.231
 3888POPC   D2A52180   2.856  22.487   6.644
 3888POPC   C3A52181   3.097  22.531   7.033
 3888POPC   C4A52182   3.144  22.357   7.432
 3888POPC   C1B52183   2.541  22.235   6.285
 3888POPC   C2B52184   2.778  21.993   6.629
 3888POPC   C3B52185   2.749  22.151   7.054
 3888POPC   C4B52186   2.650  22.446   7.403
 3889POPC   NC352187   6.177   9.972   5.294
 3889POPC   PO452188   5.630   9.606   5.444
 3889POPC   GL152189   5.948   9.752   5.736
 3889POPC   GL252190   6.208  10.041   5.800
 3889POPC   C1A52191   5.875   9.730   6.159
 3889POPC   D2A52192   5.743   9.493   6.504
 3889POPC   C3A52193   5.678   9.731   6.874
 3889POPC   C4A52194   5.646   9.484   7.235
 3889POPC   C1B52195   6.372  10.179   6.215
 3889POPC   C2B52196   6.112   9.994   6.533
 3889POPC   C3B52197   6.166   9.925   6.935
 3889POPC   C4B52198   5.866  10.059   7.230
 3890POPC   NC352199  27.872   1.116   5.613
 3890POPC   PO452200  27.375   1.601   5.439
 3890POPC   GL152201  27.514   1.439   5.830
 3890POPC   GL252202  27.398   1.125   5.875
 3890POPC   C1A52203  27.677   1.357   6.264
 3890POPC   D2A52204  27.720   1.032   6.611
 3890POPC   C3A52205  27.968   1.169   6.964
 3890POPC   C4A52206  27.924   1.574   7.142
 3890POPC   C1B52207  27.404   0.876   6.218
 3890POPC   C2B52208  27.188   0.917   6.591
 3890POPC   C3B52209  27.152   0.917   7.011
 3890POPC   C4B52210  27.535   1.006   7.201
 3891POPC   NC352211  19.990  44.631   5.430
 3891POPC   PO452212  19.414  44.980   5.353
 3891POPC   GL152213  19.568  44.797   5.732
 3891POPC   GL252214  19.544  44.451   5.807
 3891POPC   C1A52215  19.891  44.816   6.061
 3891POPC   D2A52216  20.058  44.741   6.456
 3891POPC   C3A52217  19.879  44.823   6.856
 3891POPC   C4A52218  19.925  44.911   7.273
 3891POPC   C1B52219  19.818  44.334   6.190
 3891POPC   C2B52220  19.817  44.338   6.671
 3891POPC   C3B52221  19.751  44.408   7.121
 3891POPC   C4B52222  19.485  44.230   7.449
 3892POPC   NC352223  18.647  36.255   5.619
 3892POPC   PO452224  18.288  35.875   5.180
 3892POPC   GL152225  18.386  35.808   5.688
 3892POPC   GL252226  18.272  36.053   5.878
 3892POPC   C1A52227  18.502  35.734   6.177
 3892POPC   D2A52228  18.616  36.055   6.517
 3892POPC   C3A52229  18.623  35.923   6.930
 3892POPC   C4A52230  18.530  36.116   7.355
 3892POPC   C1B52231  18.216  36.268   6.273
 3892POPC   C2B52232  18.238  36.494   6.680
 3892POPC   C3B52233  18.184  36.398   7.133
 3892POPC   C4B52234  18.101  36.338   7.610
 3893POPC   NC352235   5.105  28.743   5.439
 3893POPC   PO452236   5.301  28.190   5.557
 3893POPC   GL152237   5.329  28.504   5.869
 3893POPC   GL252238   4.980  28.495   5.961
 3893POPC   C1A52239   5.312  28.652   6.318
 3893POPC   D2A52240   5.092  28.477   6.687
 3893POPC   C3A52241   5.276  28.512   7.095
 3893POPC   C4A52242   5.678  28.481   7.297
 3893POPC   C1B52243   5.151  28.154   6.273
 3893POPC   C2B52244   5.099  27.940   6.689
 3893POPC   C3B52245   5.018  27.903   7.143
 3893POPC   C4B52246   4.868  27.636   7.508
 3894POPC   NC352247  24.877   4.493   5.222
 3894POPC   PO452248  25.531   4.351   5.213
 3894POPC   GL152249  25.303   4.360   5.640
 3894POPC   GL252250  25.059   4.080   5.703
 3894POPC   C1A52251  25.473   4.326   6.080
 3894POPC   D2A52252  25.675   4.112   6.447
 3894POPC   C3A52253  25.553   4.283   6.853
 3894POPC   C4A52254  25.393   4.256   7.247
 3894POPC   C1B52255  24.964   4.221   6.149
 3894POPC   C2B52256  25.153   4.092   6.568
 3894POPC   C3B52257  24.998   4.116   6.957
 3894POPC   C4B52258  24.867   3.981   7.372
 3895POPC   NC352259  10.915  15.429   5.449
 3895POPC   PO452260  11.432  15.214   5.031
 3895POPC   GL152261  11.407  15.235   5.529
 3895POPC   GL252262  11.731  15.273   5.731
 3895POPC   C1A52263  11.287  15.282   6.011
 3895POPC   D2A52264  11.377  15.154   6.458
 3895POPC   C3A52265  11.340  15.304   6.894
 3895POPC   C4A52266  11.125  15.502   7.233
 3895POPC   C1B52267  11.731  14.984   6.122
 3895POPC   C2B52268  11.778  14.833   6.569
 3895POPC   C3B52269  11.691  14.931   7.043
 3895POPC   C4B52270  11.633  14.773   7.468
 3896POPC   NC352271  22.791   2.476   5.435
 3896POPC   PO452272  22.675   3.127   5.146
 3896POPC   GL152273  22.791   3.132   5.686
 3896POPC   GL252274  23.122   3.043   5.779
 3896POPC   C1A52275  22.718   2.892   6.087
 3896POPC   D2A52276  22.749   2.586   6.423
 3896POPC   C3A52277  22.846   2.828   6.770
 3896POPC   C4A52278  22.939   2.895   7.155
 3896POPC   C1B52279  23.207   2.766   6.188
 3896POPC   C2B52280  23.244   2.551   6.625
 3896POPC   C3B52281  23.032   2.411   7.053
 3896POPC   C4B52282  23.157   2.423   7.506
 3897POPC   NC352283  32.001  15.518   5.542
 3897POPC   PO452284  32.334  14.994   5.298
 3897POPC   GL152285  32.293  15.115   5.714
 3897POPC   GL252286  31.960  14.987   5.718
 3897POPC   C1A52287  32.248  15.301   6.145
 3897POPC   D2A52288  32.354  15.640   6.460
 3897POPC   C3A52289  32.320  15.502   6.914
 3897POPC   C4A52290  32.394  15.086   7.095
 3897POPC   C1B52291  31.754  14.846   6.097
 3897POPC   C2B52292  31.673  14.735   6.533
 3897POPC   C3B52293  31.676  14.976   6.910
 3897POPC   C4B52294  31.918  15.055   7.258
 3898POPC   NC352295  11.011  20.383   5.460
 3898POPC   PO452296  11.467  20.862   5.535
 3898POPC   GL152297  11.332  20.596   5.841
 3898POPC   GL252298  11.038  20.751   5.854
 3898POPC   C1A52299  11.357  20.683   6.294
 3898POPC   D2A52300  11.389  20.687   6.729
 3898POPC   C3A52301  11.190  20.734   7.112
 3898POPC   C4A52302  11.443  21.012   7.370
 3898POPC   C1B52303  10.934  20.448   6.162
 3898POPC   C2B52304  10.915  20.561   6.576
 3898POPC   C3B52305  10.728  20.399   6.919
 3898POPC   C4B52306  10.863  20.392   7.326
 3899POPC   NC352307   5.492  18.303   5.348
 3899POPC   PO452308   6.092  18.617   5.240
 3899POPC   GL152309   5.891  18.385   5.656
 3899POPC   GL252310   5.557  18.188   5.824
 3899POPC   C1A52311   5.990  18.209   6.073
 3899POPC   D2A52312   5.971  18.082   6.480
 3899POPC   C3A52313   5.824  18.316   6.836
 3899POPC   C4A52314   5.839  18.627   7.181
 3899POPC   C1B52315   5.600  18.571   6.064
 3899POPC   C2B52316   5.621  18.719   6.490
 3899POPC   C3B52317   5.421  18.633   6.876
 3899POPC   C4B52318   5.423  18.304   7.188
 3900POPC   NC352319  35.800  28.037   5.382
 3900POPC   PO452320  36.204  27.477   5.387
 3900POPC   GL152321  36.151  27.629   5.777
 3900POPC   GL252322  35.844  27.776   5.824
 3900POPC   C1A52323  36.128  27.481   6.183
 3900POPC   D2A52324  36.210  27.694   6.566
 3900POPC   C3A52325  36.049  27.448   6.866
 3900POPC   C4A52326  36.202  27.258   7.162
 3900POPC   C1B52327  35.881  27.979   6.230
 3900POPC   C2B52328  36.000  28.183   6.632
 3900POPC   C3B52329  36.107  27.955   7.024
 3900POPC   C4B52330  35.888  27.660   7.315
 3901POPC   NC352331  23.330  43.433   5.378
 3901POPC   PO452332  23.820  42.933   5.295
 3901POPC   GL152333  23.677  43.083   5.684
 3901POPC   GL252334  23.933  43.268   5.893
 3901POPC   C1A52335  23.638  42.949   6.116
 3901POPC   D2A52336  23.460  43.051   6.509
 3901POPC   C3A52337  23.647  42.983   6.924
 3901POPC   C4A52338  23.358  42.885   7.249
 3901POPC   C1B52339  23.764  43.435   6.293
 3901POPC   C2B52340  23.651  43.482   6.746
 3901POPC   C3B52341  23.939  43.519   7.101
 3901POPC   C4B52342  24.071  43.423   7.534
 3902POPC   NC352343  14.176  31.424   5.411
 3902POPC   PO452344  14.804  31.668   5.360
 3902POPC   GL152345  14.558  31.564   5.696
 3902POPC   GL252346  14.661  31.220   5.747
 3902POPC   C1A52347  14.299  31.423   6.085
 3902POPC   D2A52348  13.963  31.447   6.424
 3902POPC   C3A52349  14.100  31.491   6.878
 3902POPC   C4A52350  14.055  31.733   7.268
 3902POPC   C1B52351  14.804  31.522   6.113
 3902POPC   C2B52352  14.686  31.438   6.518
 3902POPC   C3B52353  14.791  31.408   6.954
 3902POPC   C4B52354  14.447  31.326   7.254
 3903POPC   NC352355  15.732  44.792   5.450
 3903POPC   PO452356  15.013  44.852   5.460
 3903POPC   GL152357  15.280  44.662   5.736
 3903POPC   GL252358  15.233  44.964   5.963
 3903POPC   C1A52359  15.372  44.523   6.172
 3903POPC   D2A52360  15.209  44.752   6.535
 3903POPC   C3A52361  14.962  44.544   6.860
 3903POPC   C4A52362  14.863  44.505   7.295
 3903POPC   C1B52363  15.456   0.185   6.309
 3903POPC   C2B52364  15.579   0.054   6.728
 3903POPC   C3B52365  15.387  44.790   7.033
 3903POPC   C4B52366  15.654  44.625   7.373
 3904POPC   NC352367  26.466  41.325   5.013
 3904POPC   PO452368  26.762  41.768   5.193
 3904POPC   GL152369  26.807  41.779   5.692
 3904POPC   GL252370  26.723  41.464   5.879
 3904POPC   C1A52371  26.888  41.868   6.167
 3904POPC   D2A52372  27.030  41.986   6.604
 3904POPC   C3A52373  26.828  41.936   7.037
 3904POPC   C4A52374  27.004  41.606   7.333
 3904POPC   C1B52375  26.761  41.401   6.347
 3904POPC   C2B52376  26.835  41.487   6.792
 3904POPC   C3B52377  26.554  41.470   7.160
 3904POPC   C4B52378  26.626  41.320   7.612
 3905POPC   NC352379  27.816  15.564   5.507
 3905POPC   PO452380  27.710  14.967   5.411
 3905POPC   GL152381  27.722  15.158   5.819
 3905POPC   GL252382  27.492  15.388   5.908
 3905POPC   C1A52383  27.888  15.154   6.216
 3905POPC   D2A52384  27.686  15.120   6.603
 3905POPC   C3A52385  27.838  15.260   6.981
 3905POPC   C4A52386  27.804  15.010   7.315
 3905POPC   C1B52387  27.317  15.141   6.263
 3905POPC   C2B52388  27.229  15.263   6.727
 3905POPC   C3B52389  27.356  15.323   7.156
 3905POPC   C4B52390  27.227  15.603   7.517
 3906POPC   NC352391  40.299  38.812   5.532
 3906POPC   PO452392  39.814  38.334   5.495
 3906POPC   GL152393  40.072  38.440   5.848
 3906POPC   GL252394  39.976  38.810   5.918
 3906POPC   C1A52395  40.089  38.496   6.305
 3906POPC   D2A52396  39.823  38.725   6.624
 3906POPC   C3A52397  39.932  38.531   6.997
 3906POPC   C4A52398  40.334  38.477   7.139
 3906POPC   C1B52399  40.183  39.000   6.280
 3906POPC   C2B52400  40.322  38.770   6.681
 3906POPC   C3B52401  40.206  38.952   7.092
 3906POPC   C4B52402  40.233  38.787   7.525
 3907POPC   NC352403   6.732  43.122   5.428
 3907POPC   PO452404   6.122  43.335   5.527
 3907POPC   GL152405   6.441  43.234   5.867
 3907POPC   GL252406   6.847  43.183   5.915
 3907POPC   C1A52407   6.536  43.122   6.299
 3907POPC   D2A52408   6.807  43.116   6.613
 3907POPC   C3A52409   6.500  43.094   6.933
 3907POPC   C4A52410   6.340  43.227   7.340
 3907POPC   C1B52411   6.943  42.805   6.202
 3907POPC   C2B52412   7.012  42.595   6.586
 3907POPC   C3B52413   6.997  42.816   6.983
 3907POPC   C4B52414   6.787  42.951   7.341
 3908POPC   NC352415  31.617  13.036   5.353
 3908POPC   PO452416  31.190  12.569   5.433
 3908POPC   GL152417  31.339  12.866   5.778
 3908POPC   GL252418  31.105  13.107   5.852
 3908POPC   C1A52419  31.567  12.893   6.194
 3908POPC   D2A52420  31.724  12.590   6.511
 3908POPC   C3A52421  31.695  12.705   6.940
 3908POPC   C4A52422  31.574  12.709   7.408
 3908POPC   C1B52423  31.065  13.015   6.292
 3908POPC   C2B52424  31.277  12.834   6.651
 3908POPC   C3B52425  31.313  13.016   7.084
 3908POPC   C4B52426  31.283  13.128   7.557
 3909POPC   NC352427  13.914  42.849   5.396
 3909POPC   PO452428  13.517  43.358   5.375
 3909POPC   GL152429  13.472  43.458   5.805
 3909POPC   GL252430  13.770  43.308   5.931
 3909POPC   C1A52431  13.348  43.319   6.246
 3909POPC   D2A52432  13.367  43.465   6.678
 3909POPC   C3A52433  13.363  43.363   7.136
 3909POPC   C4A52434  13.625  43.393   7.552
 3909POPC   C1B52435  13.788  43.133   6.373
 3909POPC   C2B52436  13.685  43.075   6.815
 3909POPC   C3B52437  13.695  42.977   7.259
 3909POPC   C4B52438  13.771  42.918   7.705
 3910POPC   NC352439  10.033  30.364   5.615
 3910POPC   PO452440   9.493  30.005   5.328
 3910POPC   GL152441   9.635  29.991   5.770
 3910POPC   GL252442   9.959  29.882   5.803
 3910POPC   C1A52443   9.819  30.153   6.202
 3910POPC   D2A52444   9.751  29.974   6.616
 3910POPC   C3A52445   9.495  29.855   6.972
 3910POPC   C4A52446   9.784  30.089   7.243
 3910POPC   C1B52447   9.743  29.653   6.141
 3910POPC   C2B52448   9.781  29.474   6.550
 3910POPC   C3B52449   9.931  29.591   6.955
 3910POPC   C4B52450   9.778  29.585   7.354
 3911POPC   NC352451  40.017  18.491   5.311
 3911POPC   PO452452  39.468  18.133   5.490
 3911POPC   GL152453  39.709  18.494   5.768
 3911POPC   GL252454  40.094  18.560   5.810
 3911POPC   C1A52455  39.753  18.656   6.212
 3911POPC   D2A52456  39.887  18.563   6.664
 3911POPC   C3A52457  39.844  18.178   6.909
 3911POPC   C4A52458  39.943  18.167   7.393
 3911POPC   C1B52459  40.231  18.386   6.194
 3911POPC   C2B52460  40.402  18.415   6.607
 3911POPC   C3B52461  40.273  18.435   7.027
 3911POPC   C4B52462  40.385  18.403   7.442
 3912POPC   NC352463  33.673  13.592   5.430
 3912POPC   PO452464  34.105  14.008   5.623
 3912POPC   GL152465  33.832  13.829   5.908
 3912POPC   GL252466  33.778  13.449   5.913
 3912POPC   C1A52467  34.023  13.837   6.298
 3912POPC   D2A52468  34.222  13.511   6.493
 3912POPC   C3A52469  33.997  13.513   6.861
 3912POPC   C4A52470  34.140  13.522   7.268
 3912POPC   C1B52471  33.734  13.410   6.368
 3912POPC   C2B52472  33.551  13.772   6.605
 3912POPC   C3B52473  33.375  13.946   6.989
 3912POPC   C4B52474  33.751  13.929   7.246
 3913POPC   NC352475  39.385  38.518   5.432
 3913POPC   PO452476  38.722  38.275   5.449
 3913POPC   GL152477  38.956  38.303   5.852
 3913POPC   GL252478  39.009  38.655   5.915
 3913POPC   C1A52479  39.324  38.380   6.184
 3913POPC   D2A52480  39.319  38.707   6.532
 3913POPC   C3A52481  39.420  38.575   6.970
 3913POPC   C4A52482  39.317  38.261   7.292
 3913POPC   C1B52483  38.853  38.477   6.345
 3913POPC   C2B52484  38.937  38.487   6.800
 3913POPC   C3B52485  38.867  38.518   7.257
 3913POPC   C4B52486  38.958  38.311   7.681
 3914POPC   NC352487   4.413  13.158   5.286
 3914POPC   PO452488   4.662  12.611   5.243
 3914POPC   GL152489   4.707  12.866   5.650
 3914POPC   GL252490   4.545  13.174   5.793
 3914POPC   C1A52491   4.816  12.898   6.133
 3914POPC   D2A52492   4.624  12.823   6.570
 3914POPC   C3A52493   4.686  12.878   7.034
 3914POPC   C4A52494   4.445  12.786   7.436
 3914POPC   C1B52495   4.436  13.223   6.271
 3914POPC   C2B52496   4.300  13.230   6.733
 3914POPC   C3B52497   4.321  13.239   7.194
 3914POPC   C4B52498   4.168  13.334   7.609
 3915POPC   NC352499  39.834  28.083   5.499
 3915POPC   PO452500  40.237  28.518   5.221
 3915POPC   GL152501  40.123  28.497   5.693
 3915POPC   GL252502  39.775  28.486   5.771
 3915POPC   C1A52503  40.156  28.265   6.125
 3915POPC   D2A52504  40.511  28.132   6.433
 3915POPC   C3A52505  40.385  28.098   6.857
 3915POPC   C4A52506  40.084  28.089   7.155
 3915POPC   C1B52507  39.637  28.330   6.165
 3915POPC   C2B52508  39.776  28.424   6.589
 3915POPC   C3B52509  39.946  28.559   6.991
 3915POPC   C4B52510  40.061  28.479   7.464
 3916POPC   NC352511   4.504  34.067   5.523
 3916POPC   PO452512   4.145  33.597   5.163
 3916POPC   GL152513   4.235  33.643   5.675
 3916POPC   GL252514   4.234  33.937   5.925
 3916POPC   C1A52515   4.416  33.499   6.115
 3916POPC   D2A52516   4.318  33.357   6.545
 3916POPC   C3A52517   4.273  33.672   6.859
 3916POPC   C4A52518   4.466  33.662   7.250
 3916POPC   C1B52519   4.614  34.013   6.183
 3916POPC   C2B52520   4.706  34.225   6.562
 3916POPC   C3B52521   4.619  34.062   6.949
 3916POPC   C4B52522   4.275  34.118   7.217
 3917POPC   NC352523  12.011   3.220   5.336
 3917POPC   PO452524  11.984   3.933   5.436
 3917POPC   GL152525  12.050   3.779   5.885
 3917POPC   GL252526  12.060   3.449   5.862
 3917POPC   C1A52527  12.040   3.733   6.328
 3917POPC   D2A52528  12.077   3.463   6.679
 3917POPC   C3A52529  12.167   3.636   7.081
 3917POPC   C4A52530  12.115   3.587   7.531
 3917POPC   C1B52531  12.394   3.408   6.172
 3917POPC   C2B52532  12.528   3.199   6.551
 3917POPC   C3B52533  12.354   3.109   6.944
 3917POPC   C4B52534  12.481   3.261   7.353
 3918POPC   NC352535   4.292  21.883   5.562
 3918POPC   PO452536   3.836  21.335   5.576
 3918POPC   GL152537   4.059  21.414   5.930
 3918POPC   GL252538   4.425  21.489   5.915
 3918POPC   C1A52539   3.897  21.252   6.312
 3918POPC   D2A52540   4.114  21.236   6.728
 3918POPC   C3A52541   4.114  21.645   6.887
 3918POPC   C4A52542   4.242  21.840   7.243
 3918POPC   C1B52543   4.406  21.198   6.298
 3918POPC   C2B52544   4.627  21.167   6.687
 3918POPC   C3B52545   4.488  21.362   7.119
 3918POPC   C4B52546   4.481  21.230   7.597
 3919POPC   NC352547  21.004  33.886   5.095
 3919POPC   PO452548  21.670  33.810   5.334
 3919POPC   GL152549  21.367  33.803   5.662
 3919POPC   GL252550  21.070  33.612   5.581
 3919POPC   C1A52551  21.455  33.779   6.101
 3919POPC   D2A52552  21.686  33.767   6.493
 3919POPC   C3A52553  21.429  33.773   6.869
 3919POPC   C4A52554  21.273  33.597   7.273
 3919POPC   C1B52555  20.955  33.614   6.028
 3919POPC   C2B52556  21.111  33.629   6.452
 3919POPC   C3B52557  20.964  33.566   6.863
 3919POPC   C4B52558  20.748  33.597   7.274
 3920POPC   NC352559  40.387  24.600   5.439
 3920POPC   PO452560  39.826  24.271   5.293
 3920POPC   GL152561  39.929  24.505   5.694
 3920POPC   GL252562  39.710  24.762   5.800
 3920POPC   C1A52563  40.156  24.510   6.116
 3920POPC   D2A52564  40.346  24.399   6.541
 3920POPC   C3A52565  40.047  24.394   6.895
 3920POPC   C4A52566  39.744  24.332   7.243
 3920POPC   C1B52567  39.626  24.592   6.224
 3920POPC   C2B52568  39.509  24.804   6.625
 3920POPC   C3B52569  39.749  24.812   7.027
 3920POPC   C4B52570  40.209  24.868   7.133
 3921POPC   NC352571  34.348  10.903   5.477
 3921POPC   PO452572  34.448  11.631   5.373
 3921POPC   GL152573  34.472  11.348   5.779
 3921POPC   GL252574  34.197  11.178   5.875
 3921POPC   C1A52575  34.729  11.310   6.179
 3921POPC   D2A52576  34.961  11.514   6.542
 3921POPC   C3A52577  34.791  11.336   6.910
 3921POPC   C4A52578  34.880  11.144   7.279
 3921POPC   C1B52579  34.314  11.019   6.256
 3921POPC   C2B52580  34.527  11.016   6.625
 3921POPC   C3B52581  34.494  10.854   7.066
 3921POPC   C4B52582  34.338  11.049   7.435
 3922POPC   NC352583   6.722  41.908   5.408
 3922POPC   PO452584   6.538  41.267   5.411
 3922POPC   GL152585   6.625  41.496   5.768
 3922POPC   GL252586   6.378  41.761   5.742
 3922POPC   C1A52587   6.756  41.359   6.184
 3922POPC   D2A52588   6.521  41.284   6.579
 3922POPC   C3A52589   6.680  41.387   6.971
 3922POPC   C4A52590   7.046  41.166   7.163
 3922POPC   C1B52591   6.625  41.906   6.091
 3922POPC   C2B52592   6.674  41.763   6.493
 3922POPC   C3B52593   6.623  41.925   6.876
 3922POPC   C4B52594   6.681  41.815   7.275
 3923POPC   NC352595   6.414  35.459   5.594
 3923POPC   PO452596   7.033  35.631   5.417
 3923POPC   GL152597   6.847  35.600   5.838
 3923POPC   GL252598   6.813  35.226   5.873
 3923POPC   C1A52599   6.905  35.493   6.293
 3923POPC   D2A52600   6.830  35.168   6.634
 3923POPC   C3A52601   6.716  35.336   7.051
 3923POPC   C4A52602   6.360  35.550   7.291
 3923POPC   C1B52603   6.506  35.194   6.203
 3923POPC   C2B52604   6.316  35.080   6.592
 3923POPC   C3B52605   6.330  35.003   7.053
 3923POPC   C4B52606   6.384  34.926   7.497
 3924POPC   NC352607   1.736  36.162   5.153
 3924POPC   PO452608   2.189  36.469   5.184
 3924POPC   GL152609   2.060  36.379   5.630
 3924POPC   GL252610   2.306  36.154   5.761
 3924POPC   C1A52611   2.171  36.531   6.106
 3924POPC   D2A52612   2.359  36.464   6.573
 3924POPC   C3A52613   2.189  36.366   7.010
 3924POPC   C4A52614   1.931  36.436   7.390
 3924POPC   C1B52615   2.256  36.046   6.226
 3924POPC   C2B52616   2.096  35.990   6.665
 3924POPC   C3B52617   2.173  35.877   7.121
 3924POPC   C4B52618   2.314  35.650   7.517
 3925POPC   NC352619  35.970   8.801   5.304
 3925POPC   PO452620  36.401   9.318   5.498
 3925POPC   GL152621  36.291   9.042   5.817
 3925POPC   GL252622  35.982   8.859   5.822
 3925POPC   C1A52623  36.313   9.011   6.250
 3925POPC   D2A52624  36.109   9.169   6.610
 3925POPC   C3A52625  36.217   8.934   6.968
 3925POPC   C4A52626  36.371   9.093   7.339
 3925POPC   C1B52627  35.819   8.852   6.251
 3925POPC   C2B52628  35.834   8.703   6.679
 3925POPC   C3B52629  35.723   8.820   7.087
 3925POPC   C4B52630  35.956   8.839   7.436
 3926POPC   NC352631   3.396  37.221   5.327
 3926POPC   PO452632   2.995  36.673   5.465
 3926POPC   GL152633   2.864  36.802   5.882
 3926POPC   GL252634   2.915  37.162   5.952
 3926POPC   C1A52635   2.936  36.788   6.317
 3926POPC   D2A52636   2.712  36.860   6.693
 3926POPC   C3A52637   2.823  36.977   7.085
 3926POPC   C4A52638   2.538  37.115   7.372
 3926POPC   C1B52639   2.571  37.150   6.285
 3926POPC   C2B52640   2.238  36.979   6.577
 3926POPC   C3B52641   2.252  36.864   7.027
 3926POPC   C4B52642   2.056  36.965   7.472
 3927POPC   NC352643  37.961  43.432   5.709
 3927POPC   PO452644  38.468  43.357   5.289
 3927POPC   GL152645  38.516  43.273   5.745
 3927POPC   GL252646  38.640  42.941   5.803
 3927POPC   C1A52647  38.357  43.158   6.200
 3927POPC   D2A52648  38.299  42.846   6.589
 3927POPC   C3A52649  38.201  42.889   7.033
 3927POPC   C4A52650  38.381  43.220   7.295
 3927POPC   C1B52651  38.866  43.036   6.162
 3927POPC   C2B52652  38.825  42.832   6.538
 3927POPC   C3B52653  38.808  42.953   6.950
 3927POPC   C4B52654  38.674  42.773   7.306
 3928POPC   NC352655  30.199  15.875   5.398
 3928POPC   PO452656  29.534  16.130   5.510
 3928POPC   GL152657  29.758  15.949   5.849
 3928POPC   GL252658  29.649  15.608   5.735
 3928POPC   C1A52659  30.087  16.019   6.241
 3928POPC   D2A52660  30.335  16.200   6.651
 3928POPC   C3A52661  30.251  16.074   7.105
 3928POPC   C4A52662  30.192  16.067   7.575
 3928POPC   C1B52663  29.868  15.545   6.114
 3928POPC   C2B52664  29.934  15.450   6.530
 3928POPC   C3B52665  29.794  15.575   6.955
 3928POPC   C4B52666  29.984  15.694   7.325
 3929POPC   NC352667  25.127   6.861   5.449
 3929POPC   PO452668  25.333   6.281   5.609
 3929POPC   GL152669  25.092   6.536   5.876
 3929POPC   GL252670  25.260   6.814   5.951
 3929POPC   C1A52671  25.066   6.460   6.314
 3929POPC   D2A52672  25.033   6.285   6.720
 3929POPC   C3A52673  25.392   6.389   6.999
 3929POPC   C4A52674  25.664   6.790   7.077
 3929POPC   C1B52675  25.068   6.957   6.325
 3929POPC   C2B52676  25.182   6.774   6.714
 3929POPC   C3B52677  25.149   6.815   7.120
 3929POPC   C4B52678  25.091   7.221   7.135
 3930POPC   NC352679   9.671   1.656   5.399
 3930POPC   PO452680   9.531   0.977   5.455
 3930POPC   GL152681   9.402   1.275   5.767
 3930POPC   GL252682   9.700   1.498   5.890
 3930POPC   C1A52683   9.399   1.146   6.202
 3930POPC   D2A52684   9.728   1.131   6.499
 3930POPC   C3A52685   9.681   1.224   6.922
 3930POPC   C4A52686  10.088   1.331   7.108
 3930POPC   C1B52687   9.865   1.057   6.000
 3930POPC   C2B52688  10.079   0.792   6.346
 3930POPC   C3B52689  10.066   0.849   6.808
 3930POPC   C4B52690   9.886   0.882   7.241
 3931POPC   NC352691  14.795  35.070   5.407
 3931POPC   PO452692  14.560  34.402   5.335
 3931POPC   GL152693  14.530  34.536   5.793
 3931POPC   GL252694  14.582  34.889   5.868
 3931POPC   C1A52695  14.472  34.408   6.255
 3931POPC   D2A52696  14.355  34.316   6.710
 3931POPC   C3A52697  14.599  34.484   7.049
 3931POPC   C4A52698  14.594  34.897   7.192
 3931POPC   C1B52699  14.205  34.856   6.157
 3931POPC   C2B52700  13.960  34.882   6.556
 3931POPC   C3B52701  14.109  34.812   6.973
 3931POPC   C4B52702  13.931  34.958   7.365
 3932POPC   NC352703  41.390  15.501   5.469
 3932POPC   PO452704  41.997  15.576   5.409
 3932POPC   GL152705  41.791  15.365   5.772
 3932POPC   GL252706  41.600  15.051   5.730
 3932POPC   C1A52707  41.499  15.397   6.138
 3932POPC   D2A52708  41.422  15.184   6.541
 3932POPC   C3A52709  41.607  15.376   6.889
 3932POPC   C4A52710  41.404  15.613   7.192
 3932POPC   C1B52711  41.678  14.899   6.180
 3932POPC   C2B52712  41.705  14.727   6.636
 3932POPC   C3B52713  41.579  14.861   7.063
 3932POPC   C4B52714  41.805  14.981   7.461
 3933POPC   NC352715  32.406  29.217   5.204
 3933POPC   PO452716  31.903  28.704   5.206
 3933POPC   GL152717  32.153  28.867   5.637
 3933POPC   GL252718  32.324  29.196   5.708
 3933POPC   C1A52719  32.257  28.954   6.135
 3933POPC   D2A52720  32.110  28.819   6.590
 3933POPC   C3A52721  32.084  29.071   6.923
 3933POPC   C4A52722  32.286  29.176   7.282
 3933POPC   C1B52723  31.998  29.370   6.020
 3933POPC   C2B52724  32.060  29.317   6.455
 3933POPC   C3B52725  32.242  29.527   6.813
 3933POPC   C4B52726  32.165  29.685   7.189
 3934POPC   NC352727  35.757  31.011   5.484
 3934POPC   PO452728  35.065  30.879   5.468
 3934POPC   GL152729  35.105  30.754   5.881
 3934POPC   GL252730  35.445  30.737   5.810
 3934POPC   C1A52731  35.235  30.550   6.279
 3934POPC   D2A52732  35.350  30.715   6.672
 3934POPC   C3A52733  35.175  30.489   7.008
 3934POPC   C4A52734  35.443  30.431   7.316
 3934POPC   C1B52735  35.440  31.012   6.180
 3934POPC   C2B52736  35.747  31.003   6.514
 3934POPC   C3B52737  35.655  31.112   6.924
 3934POPC   C4B52738  35.305  30.972   7.140
 3935POPC   NC352739  41.076   2.996   5.519
 3935POPC   PO452740  41.724   2.761   5.487
 3935POPC   GL152741  41.708   2.953   5.851
 3935POPC   GL252742  41.402   2.905   5.878
 3935POPC   C1A52743  41.857   2.757   6.194
 3935POPC   D2A52744  41.726   2.631   6.563
 3935POPC   C3A52745  41.919   2.802   6.887
 3935POPC   C4A52746  41.763   2.761   7.267
 3935POPC   C1B52747  41.337   2.632   6.170
 3935POPC   C2B52748  41.236   2.768   6.558
 3935POPC   C3B52749  41.440   2.981   6.858
 3935POPC   C4B52750  41.308   2.968   7.273
 3936POPC   NC352751  29.707  13.187   5.460
 3936POPC   PO452752  29.975  12.769   5.042
 3936POPC   GL152753  29.813  12.703   5.621
 3936POPC   GL252754  29.988  12.985   5.914
 3936POPC   C1A52755  29.768  12.593   6.111
 3936POPC   D2A52756  29.922  12.789   6.542
 3936POPC   C3A52757  29.786  12.819   7.016
 3936POPC   C4A52758  29.690  13.108   7.400
 3936POPC   C1B52759  30.315  12.750   6.165
 3936POPC   C2B52760  30.403  12.647   6.597
 3936POPC   C3B52761  30.277  12.975   6.907
 3936POPC   C4B52762  30.182  12.950   7.350
 3937POPC   NC352763  39.790  10.140   5.592
 3937POPC   PO452764  39.691   9.508   5.391
 3937POPC   GL152765  39.907   9.661   5.780
 3937POPC   GL252766  40.177   9.939   5.829
 3937POPC   C1A52767  40.044   9.640   6.216
 3937POPC   D2A52768  39.894   9.847   6.563
 3937POPC   C3A52769  40.000   9.666   6.932
 3937POPC   C4A52770  39.828   9.674   7.318
 3937POPC   C1B52771  40.290  10.114   6.222
 3937POPC   C2B52772  40.394  10.036   6.637
 3937POPC   C3B52773  40.282  10.153   7.055
 3937POPC   C4B52774  40.304   9.826   7.325
 3938POPC   NC352775   3.323  19.283   5.604
 3938POPC   PO452776   3.899  19.270   5.232
 3938POPC   GL152777   3.747  18.996   5.677
 3938POPC   GL252778   3.439  18.847   5.816
 3938POPC   C1A52779   3.771  19.030   6.163
 3938POPC   D2A52780   3.573  19.313   6.477
 3938POPC   C3A52781   3.473  19.252   6.930
 3938POPC   C4A52782   3.633  18.897   7.099
 3938POPC   C1B52783   3.251  18.953   6.222
 3938POPC   C2B52784   3.384  18.820   6.626
 3938POPC   C3B52785   3.145  18.841   6.992
 3938POPC   C4B52786   3.196  18.851   7.406
 3939POPC   NC352787  41.883  16.996   5.470
 3939POPC   PO452788  42.538  17.130   5.383
 3939POPC   GL152789  42.298  16.925   5.781
 3939POPC   GL252790  42.071  16.618   5.801
 3939POPC   C1A52791  42.257  16.844   6.240
 3939POPC   D2A52792  42.224  16.568   6.587
 3939POPC   C3A52793  42.319  16.728   6.990
 3939POPC   C4A52794  42.069  16.821   7.325
 3939POPC   C1B52795  41.835  16.559   6.216
 3939POPC   C2B52796  41.752  16.371   6.647
 3939POPC   C3B52797  42.014  16.314   6.989
 3939POPC   C4B52798  42.076  16.301   7.400
 3940POPC   NC352799  15.083  11.192   5.346
 3940POPC   PO452800  14.882  11.825   5.174
 3940POPC   GL152801  14.958  11.630   5.649
 3940POPC   GL252802  15.304  11.673   5.805
 3940POPC   C1A52803  14.980  11.414   6.102
 3940POPC   D2A52804  15.010  11.174   6.511
 3940POPC   C3A52805  15.055  11.384   6.926
 3940POPC   C4A52806  15.003  11.140   7.257
 3940POPC   C1B52807  15.294  11.783   6.226
 3940POPC   C2B52808  15.403  11.536   6.556
 3940POPC   C3B52809  15.550  11.616   6.951
 3940POPC   C4B52810  15.456  11.387   7.283
 3941POPC   NC352811  25.707  43.790   5.399
 3941POPC   PO452812  25.052  43.942   5.415
 3941POPC   GL152813  25.310  44.135   5.741
 3941POPC   GL252814  25.082  44.331   5.887
 3941POPC   C1A52815  25.469  44.069   6.191
 3941POPC   D2A52816  25.341  44.031   6.657
 3941POPC   C3A52817  25.351  43.863   7.095
 3941POPC   C4A52818  25.533  43.570   7.421
 3941POPC   C1B52819  24.953  44.031   6.160
 3941POPC   C2B52820  24.826  44.139   6.559
 3941POPC   C3B52821  24.965  44.273   6.938
 3941POPC   C4B52822  24.894  44.037   7.292
 3942POPC   NC352823  37.276  31.651   5.099
 3942POPC   PO452824  36.709  31.246   5.064
 3942POPC   GL152825  36.823  31.521   5.514
 3942POPC   GL252826  37.133  31.503   5.688
 3942POPC   C1A52827  36.768  31.738   5.984
 3942POPC   D2A52828  36.871  31.628   6.452
 3942POPC   C3A52829  36.733  31.726   6.913
 3942POPC   C4A52830  36.708  31.538   7.342
 3942POPC   C1B52831  36.897  31.255   6.052
 3942POPC   C2B52832  36.750  31.129   6.488
 3942POPC   C3B52833  36.984  31.269   6.863
 3942POPC   C4B52834  37.245  31.529   7.145
 3943POPC   NC352835  38.975  20.792   5.119
 3943POPC   PO452836  38.442  20.480   5.375
 3943POPC   GL152837  38.387  20.655   5.756
 3943POPC   GL252838  38.341  21.029   5.729
 3943POPC   C1A52839  38.515  20.483   6.144
 3943POPC   D2A52840  38.379  20.245   6.489
 3943POPC   C3A52841  38.452  20.407   6.895
 3943POPC   C4A52842  38.287  20.308   7.291
 3943POPC   C1B52843  38.233  20.920   6.162
 3943POPC   C2B52844  38.368  20.780   6.551
 3943POPC   C3B52845  38.462  20.944   6.956
 3943POPC   C4B52846  38.669  20.978   7.338
 3944POPC   NC352847  19.335  35.565   5.508
 3944POPC   PO452848  18.988  35.186   4.990
 3944POPC   GL152849  18.994  35.155   5.501
 3944POPC   GL252850  18.744  35.370   5.699
 3944POPC   C1A52851  19.001  35.053   5.993
 3944POPC   D2A52852  18.847  35.185   6.437
 3944POPC   C3A52853  19.147  35.228   6.784
 3944POPC   C4A52854  19.090  35.330   7.223
 3944POPC   C1B52855  18.982  35.549   6.107
 3944POPC   C2B52856  19.023  35.729   6.523
 3944POPC   C3B52857  19.121  35.793   6.974
 3944POPC   C4B52858  18.847  35.737   7.355
 3945POPC   NC352859  43.197  30.487   5.361
 3945POPC   PO452860  42.885  30.998   5.623
 3945POPC   GL152861  43.060  30.699   5.831
 3945POPC   GL252862  43.054  30.343   5.815
 3945POPC   C1A52863  42.904  30.643   6.225
 3945POPC   D2A52864  43.041  30.876   6.575
 3945POPC   C3A52865  42.943  30.740   6.990
 3945POPC   C4A52866  43.182  30.934   7.331
 3945POPC   C1B52867  43.174  30.184   6.190
 3945POPC   C2B52868  43.094  30.371   6.602
 3945POPC   C3B52869  43.214  30.278   6.989
 3945POPC   C4B52870  43.130  30.454   7.414
 3946POPC   NC352871  40.762  42.540   5.261
 3946POPC   PO452872  40.688  41.878   5.291
 3946POPC   GL152873  40.863  42.189   5.661
 3946POPC   GL252874  40.991  42.542   5.713
 3946POPC   C1A52875  40.972  42.235   6.112
 3946POPC   D2A52876  40.734  42.385   6.446
 3946POPC   C3A52877  40.751  42.183   6.805
 3946POPC   C4A52878  40.608  42.322   7.187
 3946POPC   C1B52879  40.777  42.749   6.066
 3946POPC   C2B52880  40.910  42.861   6.496
 3946POPC   C3B52881  41.019  42.641   6.903
 3946POPC   C4B52882  40.870  42.784   7.308
 3947POPC   NC352883  35.925  14.243   5.446
 3947POPC   PO452884  36.382  14.697   5.505
 3947POPC   GL152885  36.233  14.459   5.822
 3947POPC   GL252886  35.915  14.579   5.837
 3947POPC   C1A52887  36.292  14.574   6.248
 3947POPC   D2A52888  36.536  14.739   6.574
 3947POPC   C3A52889  36.381  14.549   6.922
 3947POPC   C4A52890  36.298  14.428   7.317
 3947POPC   C1B52891  35.838  14.357   6.219
 3947POPC   C2B52892  35.919  14.427   6.646
 3947POPC   C3B52893  35.855  14.437   7.089
 3947POPC   C4B52894  35.801  14.403   7.538
 3948POPC   NC352895  21.566  33.306   5.466
 3948POPC   PO452896  21.025  32.725   5.400
 3948POPC   GL152897  21.244  32.915   5.774
 3948POPC   GL252898  21.314  33.274   5.896
 3948POPC   C1A52899  21.383  32.877   6.228
 3948POPC   D2A52900  21.664  32.857   6.606
 3948POPC   C3A52901  21.364  32.846   6.935
 3948POPC   C4A52902  21.115  33.149   7.112
 3948POPC   C1B52903  21.610  33.315   6.258
 3948POPC   C2B52904  21.466  33.310   6.693
 3948POPC   C3B52905  21.627  33.239   7.108
 3948POPC   C4B52906  21.510  33.257   7.583
 3949POPC   NC352907  14.119  25.556   5.355
 3949POPC   PO452908  14.580  25.088   5.485
 3949POPC   GL152909  14.661  25.311   5.880
 3949POPC   GL252910  14.433  25.608   5.826
 3949POPC   C1A52911  14.630  25.152   6.328
 3949POPC   D2A52912  14.300  25.138   6.675
 3949POPC   C3A52913  14.517  25.055   7.065
 3949POPC   C4A52914  14.403  25.035   7.498
 3949POPC   C1B52915  14.203  25.470   6.225
 3949POPC   C2B52916  13.992  25.649   6.615
 3949POPC   C3B52917  14.116  25.693   7.051
 3949POPC   C4B52918  14.475  25.503   7.291
 3950POPC   NC352919  11.941   7.268   5.094
 3950POPC   PO452920  12.074   7.879   5.391
 3950POPC   GL152921  11.977   7.554   5.699
 3950POPC   GL252922  11.951   7.185   5.607
 3950POPC   C1A52923  12.166   7.594   6.113
 3950POPC   D2A52924  12.034   7.660   6.516
 3950POPC   C3A52925  12.211   7.739   6.875
 3950POPC   C4A52926  12.150   7.591   7.285
 3950POPC   C1B52927  12.038   7.090   6.032
 3950POPC   C2B52928  11.899   7.179   6.435
 3950POPC   C3B52929  12.039   7.245   6.832
 3950POPC   C4B52930  12.022   7.098   7.223
 3951POPC   NC352931  43.543   6.881   5.220
 3951POPC   PO452932  44.151   6.433   5.355
 3951POPC   GL152933  44.116   6.519   5.767
 3951POPC   GL252934  43.811   6.462   5.881
 3951POPC   C1A52935  44.204   6.683   6.162
 3951POPC   D2A52936  44.023   6.766   6.561
 3951POPC   C3A52937  44.133   6.583   6.972
 3951POPC   C4A52938  43.756   6.476   7.231
 3951POPC   C1B52939  43.656   6.817   6.136
 3951POPC   C2B52940  43.448   6.976   6.504
 3951POPC   C3B52941  43.634   6.875   6.899
 3951POPC   C4B52942  43.474   6.968   7.279
 3952POPC   NC352943  34.836  34.794   5.640
 3952POPC   PO452944  34.526  34.122   5.478
 3952POPC   GL152945  34.651  34.373   5.833
 3952POPC   GL252946  34.367  34.567   5.925
 3952POPC   C1A52947  34.739  34.591   6.261
 3952POPC   D2A52948  34.461  34.439   6.571
 3952POPC   C3A52949  34.550  34.550   6.983
 3952POPC   C4A52950  34.813  34.892   7.143
 3952POPC   C1B52951  34.263  34.822   6.270
 3952POPC   C2B52952  34.125  34.826   6.683
 3952POPC   C3B52953  34.203  34.880   7.117
 3952POPC   C4B52954  34.427  35.015   7.453
 3953POPC   NC352955  25.844  30.264   5.490
 3953POPC   PO452956  26.181  29.633   5.512
 3953POPC   GL152957  26.173  29.954   5.811
 3953POPC   GL252958  25.832  29.894   5.840
 3953POPC   C1A52959  26.169  29.889   6.258
 3953POPC   D2A52960  26.046  30.081   6.635
 3953POPC   C3A52961  25.893  29.897   6.987
 3953POPC   C4A52962  26.148  29.847   7.317
 3953POPC   C1B52963  25.748  30.207   6.150
 3953POPC   C2B52964  25.561  30.156   6.531
 3953POPC   C3B52965  25.618  30.321   6.924
 3953POPC   C4B52966  25.632  30.143   7.363
 3954POPC   NC352967  22.933  33.364   5.134
 3954POPC   PO452968  22.924  32.740   5.421
 3954POPC   GL152969  22.743  32.986   5.775
 3954POPC   GL252970  22.975  33.193   5.897
 3954POPC   C1A52971  22.558  33.100   6.196
 3954POPC   D2A52972  22.736  33.223   6.595
 3954POPC   C3A52973  22.574  33.059   7.025
 3954POPC   C4A52974  22.678  32.911   7.468
 3954POPC   C1B52975  23.201  33.450   6.182
 3954POPC   C2B52976  23.301  33.439   6.593
 3954POPC   C3B52977  23.211  33.111   6.820
 3954POPC   C4B52978  23.048  33.139   7.212
 3955POPC   NC352979   1.574   0.664   5.882
 3955POPC   PO452980   1.987   0.783   5.309
 3955POPC   GL152981   2.072   0.645   5.828
 3955POPC   GL252982   1.959   0.782   6.181
 3955POPC   C1A52983   2.403   0.578   6.179
 3955POPC   D2A52984   2.244   0.574   6.637
 3955POPC   C3A52985   2.230   0.597   7.092
 3955POPC   C4A52986   2.135   0.260   7.421
 3955POPC   C1B52987   1.969   0.310   6.286
 3955POPC   C2B52988   1.924   0.138   6.703
 3955POPC   C3B52989   1.777   0.322   7.084
 3955POPC   C4B52990   1.707   0.718   7.328
 3956POPC   NC352991  40.992  21.603   5.578
 3956POPC   PO452992  41.574  21.742   5.253
 3956POPC   GL152993  41.607  21.382   5.583
 3956POPC   GL252994  41.289  21.179   5.692
 3956POPC   C1A52995  41.764  21.273   6.022
 3956POPC   D2A52996  41.817  21.470   6.446
 3956POPC   C3A52997  41.765  21.259   6.838
 3956POPC   C4A52998  41.663  21.364   7.272
 3956POPC   C1B52999  41.257  21.315   6.120
 3956POPC   C2B53000  41.349  21.284   6.539
 3956POPC   C3B53001  41.287  21.436   6.947
 3956POPC   C4B53002  41.175  21.326   7.382
 3957POPC   NC353003  26.071  31.002   5.580
 3957POPC   PO453004  26.360  30.368   5.433
 3957POPC   GL153005  26.287  30.558   5.825
 3957POPC   GL253006  25.922  30.637   5.912
 3957POPC   C1A53007  26.234  30.405   6.239
 3957POPC   D2A53008  26.063  30.570   6.599
 3957POPC   C3A53009  26.315  30.460   6.927
 3957POPC   C4A53010  26.064  30.368   7.223
 3957POPC   C1B53011  26.165  30.925   6.237
 3957POPC   C2B53012  26.067  31.059   6.675
 3957POPC   C3B53013  26.061  30.902   7.115
 3957POPC   C4B53014  26.191  31.140   7.485
 3958POPC   NC353015  39.051  42.095   5.502
 3958POPC   PO453016  39.641  42.379   5.375
 3958POPC   GL153017  39.349  42.458   5.712
 3958POPC   GL253018  38.988  42.586   5.633
 3958POPC   C1A53019  39.310  42.222   6.133
 3958POPC   D2A53020  39.326  41.940   6.538
 3958POPC   C3A53021  39.256  42.115   6.958
 3958POPC   C4A53022  39.498  42.410   7.205
 3958POPC   C1B53023  38.877  42.510   6.092
 3958POPC   C2B53024  39.027  42.371   6.526
 3958POPC   C3B53025  38.827  42.422   6.935
 3958POPC   C4B53026  38.984  42.338   7.364
 3959POPC   NC353027  21.826  37.889   5.520
 3959POPC   PO453028  21.932  37.301   5.295
 3959POPC   GL153029  22.016  37.397   5.718
 3959POPC   GL253030  21.744  37.538   5.909
 3959POPC   C1A53031  22.249  37.435   6.107
 3959POPC   D2A53032  22.315  37.246   6.535
 3959POPC   C3A53033  22.250  37.478   6.941
 3959POPC   C4A53034  22.374  37.899   7.151
 3959POPC   C1B53035  21.772  37.500   6.358
 3959POPC   C2B53036  21.739  37.536   6.822
 3959POPC   C3B53037  21.889  37.771   7.194
 3959POPC   C4B53038  22.051  37.945   7.593
 3960POPC   NC353039  16.781  31.323   5.416
 3960POPC   PO453040  16.623  31.986   5.435
 3960POPC   GL153041  16.671  31.699   5.808
 3960POPC   GL253042  16.593  31.341   5.889
 3960POPC   C1A53043  16.662  31.723   6.260
 3960POPC   D2A53044  16.478  31.605   6.665
 3960POPC   C3A53045  16.687  31.794   6.993
 3960POPC   C4A53046  16.851  31.702   7.397
 3960POPC   C1B53047  16.758  31.202   6.301
 3960POPC   C2B53048  16.581  31.111   6.718
 3960POPC   C3B53049  16.537  31.287   7.148
 3960POPC   C4B53050  16.445  31.118   7.588
 3961POPC   NC353051  11.408  29.112   5.505
 3961POPC   PO453052  10.853  28.856   5.398
 3961POPC   GL153053  10.953  29.086   5.808
 3961POPC   GL253054  11.096  29.449   5.799
 3961POPC   C1A53055  11.119  29.060   6.249
 3961POPC   D2A53056  11.231  28.839   6.658
 3961POPC   C3A53057  11.063  28.969   7.072
 3961POPC   C4A53058  11.017  29.413   7.178
 3961POPC   C1B53059  11.508  29.404   6.075
 3961POPC   C2B53060  11.656  29.365   6.501
 3961POPC   C3B53061  11.468  29.265   6.880
 3961POPC   C4B53062  11.563  28.981   7.187
 3962POPC   NC353063  14.584  43.470   5.412
 3962POPC   PO453064  14.361  42.875   5.357
 3962POPC   GL153065  14.219  43.070   5.763
 3962POPC   GL253066  14.275  43.413   5.825
 3962POPC   C1A53067  14.272  43.050   6.233
 3962POPC   D2A53068  14.193  43.210   6.683
 3962POPC   C3A53069  14.158  42.932   7.054
 3962POPC   C4A53070  14.244  42.779   7.495
 3962POPC   C1B53071  14.097  43.538   6.245
 3962POPC   C2B53072  13.851  43.587   6.638
 3962POPC   C3B53073  13.865  43.467   7.086
 3962POPC   C4B53074  14.102  43.275   7.442
 3963POPC   NC353075  10.691  38.076   5.586
 3963POPC   PO453076  10.533  38.678   5.371
 3963POPC   GL153077  10.625  38.573   5.785
 3963POPC   GL253078  10.903  38.831   5.813
 3963POPC   C1A53079  10.438  38.439   6.201
 3963POPC   D2A53080  10.545  38.253   6.619
 3963POPC   C3A53081  10.262  38.370   6.960
 3963POPC   C4A53082  10.083  38.102   7.261
 3963POPC   C1B53083  10.928  38.580   6.191
 3963POPC   C2B53084  11.080  38.460   6.583
 3963POPC   C3B53085  10.886  38.440   6.957
 3963POPC   C4B53086  10.656  38.484   7.305
 3964POPC   NC353087  43.274  43.257   5.466
 3964POPC   PO453088  42.652  42.936   5.432
 3964POPC   GL153089  43.034  42.934   5.735
 3964POPC   GL253090  42.891  43.206   5.857
 3964POPC   C1A53091  43.335  43.154   6.126
 3964POPC   D2A53092  43.420  43.398   6.535
 3964POPC   C3A53093  43.386  43.173   6.899
 3964POPC   C4A53094  43.315  43.128   7.308
 3964POPC   C1B53095  42.729  43.194   6.266
 3964POPC   C2B53096  42.978  43.039   6.578
 3964POPC   C3B53097  42.944  42.877   6.943
 3964POPC   C4B53098  42.832  43.143   7.213
 3965POPC   NC353099  35.684   2.256   5.659
 3965POPC   PO453100  35.181   1.850   5.294
 3965POPC   GL153101  35.179   1.973   5.733
 3965POPC   GL253102  35.477   1.815   5.803
 3965POPC   C1A53103  35.160   1.888   6.194
 3965POPC   D2A53104  35.482   2.044   6.488
 3965POPC   C3A53105  35.550   2.080   6.936
 3965POPC   C4A53106  35.278   1.897   7.248
 3965POPC   C1B53107  35.626   1.653   6.176
 3965POPC   C2B53108  35.806   1.650   6.567
 3965POPC   C3B53109  35.600   1.579   6.952
 3965POPC   C4B53110  35.767   1.747   7.331
 3966POPC   NC353111  35.048   1.513   5.576
 3966POPC   PO453112  34.604   1.029   5.338
 3966POPC   GL153113  34.480   1.142   5.816
 3966POPC   GL253114  34.348   1.430   5.988
 3966POPC   C1A53115  34.363   0.932   6.214
 3966POPC   D2A53116  34.281   0.842   6.647
 3966POPC   C3A53117  34.465   1.214   6.797
 3966POPC   C4A53118  34.624   1.360   7.171
 3966POPC   C1B53119  34.598   1.447   6.340
 3966POPC   C2B53120  34.697   1.724   6.703
 3966POPC   C3B53121  34.782   1.827   7.145
 3966POPC   C4B53122  34.915   1.595   7.526
 3967POPC   NC353123  13.078  44.252   5.541
 3967POPC   PO453124  12.775  44.868   5.558
 3967POPC   GL153125  12.760  44.569   5.859
 3967POPC   GL253126  12.512  44.355   5.645
 3967POPC   C1A53127  12.928  44.749   6.261
 3967POPC   D2A53128  12.975   0.010   6.625
 3967POPC   C3A53129  12.942  44.763   7.000
 3967POPC   C4A53130  13.057  44.383   7.223
 3967POPC   C1B53131  12.331  44.387   6.059
 3967POPC   C2B53132  12.558  44.428   6.399
 3967POPC   C3B53133  12.520  44.536   6.795
 3967POPC   C4B53134  12.508  44.564   7.192
 3968POPC   NC353135  19.577  24.429   5.397
 3968POPC   PO453136  18.894  24.567   5.304
 3968POPC   GL153137  18.933  24.757   5.751
 3968POPC   GL253138  19.255  24.904   5.857
 3968POPC   C1A53139  18.941  24.598   6.221
 3968POPC   D2A53140  18.989  24.184   6.480
 3968POPC   C3A53141  18.981  24.146   6.952
 3968POPC   C4A53142  18.866  24.271   7.361
 3968POPC   C1B53143  19.264  24.987   6.325
 3968POPC   C2B53144  19.175  24.840   6.755
 3968POPC   C3B53145  19.226  24.586   7.175
 3968POPC   C4B53146  19.334  24.363   7.563
 3969POPC   NC353147  16.960  35.980   5.562
 3969POPC   PO453148  16.631  36.575   5.469
 3969POPC   GL153149  16.666  36.360   5.809
 3969POPC   GL253150  16.997  36.386   5.887
 3969POPC   C1A53151  16.624  36.088   6.165
 3969POPC   D2A53152  16.785  36.193   6.567
 3969POPC   C3A53153  16.508  36.076   6.843
 3969POPC   C4A53154  16.452  36.007   7.246
 3969POPC   C1B53155  17.155  36.046   6.192
 3969POPC   C2B53156  17.269  35.939   6.610
 3969POPC   C3B53157  16.989  35.873   6.930
 3969POPC   C4B53158  16.914  36.226   7.148
 3970POPC   NC353159  12.696  28.100   5.554
 3970POPC   PO453160  13.199  28.547   5.785
 3970POPC   GL153161  12.966  28.242   5.970
 3970POPC   GL253162  12.636  28.345   5.977
 3970POPC   C1A53163  12.842  28.095   6.364
 3970POPC   D2A53164  12.648  28.220   6.730
 3970POPC   C3A53165  12.968  28.294   7.052
 3970POPC   C4A53166  13.004  28.686   7.282
 3970POPC   C1B53167  12.640  28.588   6.329
 3970POPC   C2B53168  12.401  28.684   6.684
 3970POPC   C3B53169  12.530  28.603   7.119
 3970POPC   C4B53170  12.558  28.514   7.577
 3971POPC   NC353171  39.734  17.335   5.426
 3971POPC   PO453172  40.331  17.567   5.342
 3971POPC   GL153173  40.120  17.504   5.726
 3971POPC   GL253174  40.093  17.143   5.761
 3971POPC   C1A53175  39.884  17.519   6.104
 3971POPC   D2A53176  39.961  17.403   6.521
 3971POPC   C3A53177  39.780  17.612   6.874
 3971POPC   C4A53178  40.136  17.803   7.075
 3971POPC   C1B53179  39.930  17.005   6.156
 3971POPC   C2B53180  39.664  16.977   6.499
 3971POPC   C3B53181  39.795  17.083   6.877
 3971POPC   C4B53182  40.025  17.305   7.213
 3972POPC   NC353183  27.353   8.924   5.391
 3972POPC   PO453184  26.746   8.768   5.388
 3972POPC   GL153185  26.936   8.630   5.796
 3972POPC   GL253186  27.157   8.855   5.887
 3972POPC   C1A53187  26.866   8.513   6.227
 3972POPC   D2A53188  26.820   8.732   6.624
 3972POPC   C3A53189  26.611   8.631   7.028
 3972POPC   C4A53190  26.513   8.948   7.384
 3972POPC   C1B53191  27.294   8.779   6.340
 3972POPC   C2B53192  27.297   8.751   6.783
 3972POPC   C3B53193  27.083   8.762   7.201
 3972POPC   C4B53194  27.108   8.834   7.656
 3973POPC   NC353195  28.231   3.890   5.465
 3973POPC   PO453196  28.664   4.480   5.411
 3973POPC   GL153197  28.369   4.307   5.758
 3973POPC   GL253198  28.456   3.981   5.922
 3973POPC   C1A53199  28.099   4.248   6.163
 3973POPC   D2A53200  28.226   4.376   6.570
 3973POPC   C3A53201  28.202   4.181   6.931
 3973POPC   C4A53202  27.994   4.181   7.318
 3973POPC   C1B53203  28.611   4.300   6.226
 3973POPC   C2B53204  28.835   4.360   6.589
 3973POPC   C3B53205  28.671   4.459   6.973
 3973POPC   C4B53206  28.393   4.484   7.311
 3974POPC   NC353207  19.642  29.357   5.442
 3974POPC   PO453208  20.008  28.912   5.559
 3974POPC   GL153209  19.837  29.038   5.899
 3974POPC   GL253210  20.084  29.323   5.893
 3974POPC   C1A53211  19.917  28.943   6.336
 3974POPC   D2A53212  19.925  29.196   6.704
 3974POPC   C3A53213  19.823  29.041   7.099
 3974POPC   C4A53214  19.421  28.925   7.185
 3974POPC   C1B53215  19.795  29.441   6.227
 3974POPC   C2B53216  19.592  29.598   6.596
 3974POPC   C3B53217  19.514  29.418   6.935
 3974POPC   C4B53218  19.619  29.465   7.300
 3975POPC   NC353219  31.411  39.894   5.320
 3975POPC   PO453220  31.916  39.996   5.552
 3975POPC   GL153221  31.515  40.063   5.791
 3975POPC   GL253222  31.366  39.734   5.831
 3975POPC   C1A53223  31.237  40.120   6.158
 3975POPC   D2A53224  31.181  39.854   6.544
 3975POPC   C3A53225  31.294  40.030   6.968
 3975POPC   C4A53226  31.298  39.848   7.335
 3975POPC   C1B53227  31.620  39.807   6.251
 3975POPC   C2B53228  31.678  39.795   6.727
 3975POPC   C3B53229  31.808  39.799   7.185
 3975POPC   C4B53230  32.149  39.828   7.529
 3976POPC   NC353231  37.924  39.435   5.069
 3976POPC   PO453232  38.440  39.148   5.434
 3976POPC   GL153233  38.528  39.313   5.788
 3976POPC   GL253234  38.751  39.105   5.859
 3976POPC   C1A53235  38.359  39.391   6.146
 3976POPC   D2A53236  38.240  39.197   6.487
 3976POPC   C3A53237  38.213  39.417   6.845
 3976POPC   C4A53238  38.249  39.295   7.247
 3976POPC   C1B53239  38.669  38.961   6.252
 3976POPC   C2B53240  38.554  38.816   6.636
 3976POPC   C3B53241  38.584  39.082   6.937
 3976POPC   C4B53242  38.722  39.042   7.331
 3977POPC   NC353243  10.173  23.800   5.646
 3977POPC   PO453244  10.800  23.384   5.380
 3977POPC   GL153245  10.564  23.478   5.766
 3977POPC   GL253246  10.702  23.777   5.865
 3977POPC   C1A53247  10.422  23.597   6.222
 3977POPC   D2A53248  10.432  23.783   6.590
 3977POPC   C3A53249  10.470  23.639   6.968
 3977POPC   C4A53250  10.178  23.874   7.209
 3977POPC   C1B53251  10.925  23.731   6.269
 3977POPC   C2B53252  10.924  23.786   6.714
 3977POPC   C3B53253  10.792  24.046   7.070
 3977POPC   C4B53254  10.558  24.099   7.445
 3978POPC   NC353255   9.598  17.289   5.282
 3978POPC   PO453256   9.890  17.904   5.418
 3978POPC   GL153257   9.668  17.693   5.796
 3978POPC   GL253258   9.656  17.307   5.795
 3978POPC   C1A53259   9.869  17.546   6.219
 3978POPC   D2A53260   9.759  17.825   6.574
 3978POPC   C3A53261   9.782  17.696   6.992
 3978POPC   C4A53262  10.001  17.425   7.261
 3978POPC   C1B53263   9.475  17.241   6.215
 3978POPC   C2B53264   9.682  17.283   6.626
 3978POPC   C3B53265   9.507  17.263   7.021
 3978POPC   C4B53266   9.488  16.951   7.276
 3979POPC   NC353267  22.676  42.884   5.398
 3979POPC   PO453268  22.920  43.571   5.244
 3979POPC   GL153269  22.960  43.228   5.622
 3979POPC   GL253270  22.739  43.272   5.826
 3979POPC   C1A53271  23.151  43.140   6.077
 3979POPC   D2A53272  22.999  43.251   6.501
 3979POPC   C3A53273  23.174  43.223   6.901
 3979POPC   C4A53274  22.912  43.133   7.248
 3979POPC   C1B53275  22.596  43.190   6.202
 3979POPC   C2B53276  22.548  43.048   6.586
 3979POPC   C3B53277  22.546  42.903   6.961
 3979POPC   C4B53278  22.376  43.151   7.227
 3980POPC   NC353279  44.095  17.732   5.413
 3980POPC   PO453280  43.455  17.423   5.287
 3980POPC   GL153281  43.645  17.679   5.662
 3980POPC   GL253282  43.854  17.391   5.774
 3980POPC   C1A53283  43.853  17.784   6.108
 3980POPC   D2A53284  43.806  17.613   6.555
 3980POPC   C3A53285  43.731  17.813   6.995
 3980POPC   C4A53286  43.744  17.798   7.478
 3980POPC   C1B53287  43.880  17.139   6.170
 3980POPC   C2B53288  44.015  17.146   6.605
 3980POPC   C3B53289  43.939  17.344   6.984
 3980POPC   C4B53290  44.022  17.370   7.409
 3981POPC   NC353291  12.084  37.374   5.024
 3981POPC   PO453292  11.853  37.906   5.347
 3981POPC   GL153293  11.932  37.674   5.824
 3981POPC   GL253294  12.259  37.751   5.956
 3981POPC   C1A53295  12.010  37.481   6.290
 3981POPC   D2A53296  11.992  37.291   6.727
 3981POPC   C3A53297  12.038  37.511   7.129
 3981POPC   C4A53298  11.837  37.530   7.555
 3981POPC   C1B53299  12.098  37.977   6.275
 3981POPC   C2B53300  12.079  37.851   6.689
 3981POPC   C3B53301  12.257  37.963   7.082
 3981POPC   C4B53302  12.190  37.874   7.508
 3982POPC   NC353303  15.409  30.302   5.329
 3982POPC   PO453304  15.368  30.973   5.459
 3982POPC   GL153305  15.094  30.810   5.763
 3982POPC   GL253306  15.236  30.470   5.785
 3982POPC   C1A53307  14.998  30.654   6.191
 3982POPC   D2A53308  15.164  30.452   6.527
 3982POPC   C3A53309  14.911  30.487   6.859
 3982POPC   C4A53310  15.080  30.651   7.221
 3982POPC   C1B53311  15.481  30.287   6.145
 3982POPC   C2B53312  15.630  30.218   6.605
 3982POPC   C3B53313  15.349  30.240   6.972
 3982POPC   C4B53314  15.492  30.402   7.349
 3983POPC   NC353315  38.064  12.709   5.520
 3983POPC   PO453316  37.668  13.168   5.526
 3983POPC   GL153317  37.563  12.780   5.748
 3983POPC   GL253318  37.237  12.893   5.864
 3983POPC   C1A53319  37.708  12.596   6.160
 3983POPC   D2A53320  37.806  12.832   6.564
 3983POPC   C3A53321  38.011  12.780   6.984
 3983POPC   C4A53322  38.002  13.022   7.367
 3983POPC   C1B53323  37.468  13.068   6.226
 3983POPC   C2B53324  37.370  13.162   6.676
 3983POPC   C3B53325  37.363  13.023   7.123
 3983POPC   C4B53326  37.493  13.199   7.513
 3984POPC   NC353327  42.418  20.198   5.490
 3984POPC   PO453328  42.376  19.474   5.328
 3984POPC   GL153329  42.380  19.656   5.705
 3984POPC   GL253330  42.078  19.849   5.690
 3984POPC   C1A53331  42.399  19.560   6.153
 3984POPC   D2A53332  42.471  19.874   6.504
 3984POPC   C3A53333  42.458  19.790   6.948
 3984POPC   C4A53334  42.624  19.630   7.384
 3984POPC   C1B53335  42.180  20.015   6.091
 3984POPC   C2B53336  42.005  20.111   6.508
 3984POPC   C3B53337  42.122  20.224   6.921
 3984POPC   C4B53338  42.229  20.035   7.327
 3985POPC   NC353339  30.010  31.480   5.335
 3985POPC   PO453340  30.451  31.138   5.635
 3985POPC   GL153341  30.055  31.401   5.841
 3985POPC   GL253342  29.689  31.542   5.759
 3985POPC   C1A53343  29.887  31.308   6.263
 3985POPC   D2A53344  30.057  31.281   6.698
 3985POPC   C3A53345  30.204  31.553   7.053
 3985POPC   C4A53346  30.068  31.614   7.498
 3985POPC   C1B53347  29.500  31.625   6.183
 3985POPC   C2B53348  29.662  31.628   6.623
 3985POPC   C3B53349  29.674  31.536   7.072
 3985POPC   C4B53350  29.601  31.884   7.342
 3986POPC   NC353351  29.464  18.923   5.401
 3986POPC   PO453352  28.850  19.261   5.254
 3986POPC   GL153353  28.993  19.351   5.705
 3986POPC   GL253354  29.310  19.169   5.851
 3986POPC   C1A53355  28.945  19.340   6.179
 3986POPC   D2A53356  29.300  19.262   6.498
 3986POPC   C3A53357  29.151  19.109   6.882
 3986POPC   C4A53358  28.963  18.725   7.028
 3986POPC   C1B53359  29.452  18.863   6.200
 3986POPC   C2B53360  29.384  18.700   6.657
 3986POPC   C3B53361  29.496  18.783   7.104
 3986POPC   C4B53362  29.671  18.973   7.491
 3987POPC   NC353363  30.919  13.033   5.368
 3987POPC   PO453364  30.211  12.946   5.488
 3987POPC   GL153365  30.541  12.752   5.654
 3987POPC   GL253366  30.604  13.097   5.771
 3987POPC   C1A53367  30.810  12.666   6.019
 3987POPC   D2A53368  30.874  12.503   6.457
 3987POPC   C3A53369  30.831  12.703   6.853
 3987POPC   C4A53370  30.526  12.628   7.155
 3987POPC   C1B53371  30.503  13.225   6.161
 3987POPC   C2B53372  30.626  13.097   6.552
 3987POPC   C3B53373  30.817  13.195   6.932
 3987POPC   C4B53374  30.872  12.959   7.317
 3988POPC   NC353375  16.716  28.870   5.113
 3988POPC   PO453376  17.013  28.327   5.447
 3988POPC   GL153377  16.729  28.309   5.788
 3988POPC   GL253378  16.511  28.056   5.856
 3988POPC   C1A53379  16.721  28.482   6.172
 3988POPC   D2A53380  16.696  28.328   6.576
 3988POPC   C3A53381  16.620  28.598   6.878
 3988POPC   C4A53382  16.798  28.580   7.240
 3988POPC   C1B53383  16.365  28.045   6.278
 3988POPC   C2B53384  16.504  27.868   6.685
 3988POPC   C3B53385  16.787  28.024   7.031
 3988POPC   C4B53386  16.677  28.145   7.487
 3989POPC   NC353387  13.291   9.481   5.397
 3989POPC   PO453388  13.734   9.910   5.135
 3989POPC   GL153389  13.775   9.733   5.568
 3989POPC   GL253390  13.571   9.954   5.773
 3989POPC   C1A53391  13.889   9.662   6.040
 3989POPC   D2A53392  13.707   9.793   6.468
 3989POPC   C3A53393  13.939   9.831   6.898
 3989POPC   C4A53394  13.906   9.505   7.222
 3989POPC   C1B53395  13.364   9.651   6.091
 3989POPC   C2B53396  13.352   9.402   6.513
 3989POPC   C3B53397  13.484   9.589   6.885
 3989POPC   C4B53398  13.351   9.693   7.238
 3990POPC   NC353399  42.667  44.051   5.487
 3990POPC   PO453400  43.300  43.736   5.474
 3990POPC   GL153401  43.080  43.925   5.827
 3990POPC   GL253402  42.826  43.713   5.848
 3990POPC   C1A53403  42.886  44.031   6.256
 3990POPC   D2A53404  43.229  43.940   6.570
 3990POPC   C3A53405  43.124  44.056   6.993
 3990POPC   C4A53406  42.815  44.253   7.236
 3990POPC   C1B53407  43.058  43.570   6.222
 3990POPC   C2B53408  42.924  43.538   6.683
 3990POPC   C3B53409  43.101  43.559   7.100
 3990POPC   C4B53410  43.485  43.601   7.279
 3991POPC   NC353411  12.980  30.390   5.624
 3991POPC   PO453412  12.682  30.833   5.255
 3991POPC   GL153413  12.787  30.834   5.760
 3991POPC   GL253414  13.128  30.886   5.836
 3991POPC   C1A53415  12.972  30.618   6.222
 3991POPC   D2A53416  12.994  30.336   6.594
 3991POPC   C3A53417  12.748  30.536   6.911
 3991POPC   C4A53418  12.874  30.769   7.263
 3991POPC   C1B53419  12.880  31.128   6.162
 3991POPC   C2B53420  12.732  30.951   6.561
 3991POPC   C3B53421  12.705  31.187   6.933
 3991POPC   C4B53422  12.627  31.186   7.350
 3992POPC   NC353423  11.609   4.935   5.511
 3992POPC   PO453424  11.008   5.113   5.559
 3992POPC   GL153425  11.272   4.975   5.901
 3992POPC   GL253426  11.515   5.262   5.901
 3992POPC   C1A53427  11.250   4.745   6.292
 3992POPC   D2A53428  11.041   4.608   6.672
 3992POPC   C3A53429  11.003   4.909   7.005
 3992POPC   C4A53430  11.214   5.044   7.354
 3992POPC   C1B53431  11.152   5.423   6.144
 3992POPC   C2B53432  11.154   5.594   6.575
 3992POPC   C3B53433  11.224   5.415   6.978
 3992POPC   C4B53434  11.594   5.427   7.221
 3993POPC   NC353435  16.055  43.860   5.285
 3993POPC   PO453436  15.866  44.348   5.413
 3993POPC   GL153437  15.806  44.085   5.786
 3993POPC   GL253438  16.087  43.870   5.809
 3993POPC   C1A53439  15.683  44.063   6.251
 3993POPC   D2A53440  15.659  44.151   6.720
 3993POPC   C3A53441  16.023  44.101   7.004
 3993POPC   C4A53442  16.102  44.323   7.415
 3993POPC   C1B53443  15.988  43.648   6.201
 3993POPC   C2B53444  15.850  43.677   6.649
 3993POPC   C3B53445  15.840  43.627   7.110
 3993POPC   C4B53446  15.945  43.330   7.465
 3994POPC   NC353447  17.623  23.870   5.115
 3994POPC   PO453448  17.740  23.510   5.681
 3994POPC   GL153449  17.381  23.715   5.833
 3994POPC   GL253450  17.271  23.468   6.028
 3994POPC   C1A53451  17.336  23.958   6.242
 3994POPC   D2A53452  17.583  24.008   6.653
 3994POPC   C3A53453  17.416  23.973   7.087
 3994POPC   C4A53454  17.551  23.835   7.515
 3994POPC   C1B53455  17.517  23.479   6.388
 3994POPC   C2B53456  17.445  23.516   6.806
 3994POPC   C3B53457  17.392  23.479   7.211
 3994POPC   C4B53458  17.146  23.471   7.578
 3995POPC   NC353459  13.061  15.343   5.374
 3995POPC   PO453460  12.542  14.904   5.522
 3995POPC   GL153461  12.677  15.117   5.911
 3995POPC   GL253462  12.812  15.457   5.840
 3995POPC   C1A53463  12.647  15.069   6.366
 3995POPC   D2A53464  12.505  15.116   6.797
 3995POPC   C3A53465  12.748  14.920   7.109
 3995POPC   C4A53466  13.147  14.703   7.055
 3995POPC   C1B53467  13.102  15.284   6.175
 3995POPC   C2B53468  13.132  15.080   6.581
 3995POPC   C3B53469  13.110  15.243   6.984
 3995POPC   C4B53470  13.329  15.453   7.292
 3996POPC   NC353471  31.276  15.384   5.289
 3996POPC   PO453472  31.412  14.718   5.308
 3996POPC   GL153473  31.425  14.944   5.705
 3996POPC   GL253474  31.546  15.293   5.741
 3996POPC   C1A53475  31.226  14.976   6.135
 3996POPC   D2A53476  31.306  15.112   6.574
 3996POPC   C3A53477  31.167  14.964   6.998
 3996POPC   C4A53478  31.420  14.943   7.403
 3996POPC   C1B53479  31.725  15.373   6.169
 3996POPC   C2B53480  31.922  15.345   6.590
 3996POPC   C3B53481  31.795  15.489   7.008
 3996POPC   C4B53482  31.405  15.396   7.166
 3997POPC   NC353483   0.232  41.892   5.087
 3997POPC   PO453484   0.528  42.446   5.397
 3997POPC   GL153485   0.500  42.350   5.820
 3997POPC   GL253486   0.613  42.071   5.972
 3997POPC   C1A53487   0.609  42.500   6.221
 3997POPC   D2A53488   0.386  42.648   6.539
 3997POPC   C3A53489   0.539  42.503   6.894
 3997POPC   C4A53490   0.210  42.385   7.175
 3997POPC   C1B53491   0.231  42.153   6.215
 3997POPC   C2B53492   0.251  42.163   6.642
 3997POPC   C3B53493   0.471  41.991   6.964
 3997POPC   C4B53494   0.186  41.858   7.241
 3998POPC   NC353495   6.877   8.339   5.522
 3998POPC   PO453496   6.278   7.976   5.570
 3998POPC   GL153497   6.510   8.264   5.866
 3998POPC   GL253498   6.816   8.066   5.978
 3998POPC   C1A53499   6.686   8.475   6.244
 3998POPC   D2A53500   6.688   8.325   6.671
 3998POPC   C3A53501   6.799   8.562   7.039
 3998POPC   C4A53502   6.951   8.214   7.261
 3998POPC   C1B53503   6.460   8.001   6.298
 3998POPC   C2B53504   6.235   8.023   6.697
 3998POPC   C3B53505   6.187   8.048   7.163
 3998POPC   C4B53506   6.265   7.796   7.513
 3999POPC   NC353507  31.398  16.370   5.406
 3999POPC   PO453508  31.596  15.695   5.415
 3999POPC   GL153509  31.694  15.848   5.820
 3999POPC   GL253510  31.568  16.185   5.840
 3999POPC   C1A53511  31.496  15.850   6.237
 3999POPC   D2A53512  31.460  15.609   6.610
 3999POPC   C3A53513  31.291  15.838   6.932
 3999POPC   C4A53514  31.557  15.990   7.200
 3999POPC   C1B53515  31.685  16.342   6.225
 3999POPC   C2B53516  31.585  16.189   6.640
 3999POPC   C3B53517  31.561  16.445   6.995
 3999POPC   C4B53518  31.730  16.438   7.414
 4000POPC   NC353519  10.834   4.557   5.589
 4000POPC   PO453520  11.533   4.474   5.488
 4000POPC   GL153521  11.246   4.415   5.838
 4000POPC   GL253522  11.257   4.073   5.931
 4000POPC   C1A53523  10.959   4.332   6.225
 4000POPC   D2A53524  11.199   4.121   6.561
 4000POPC   C3A53525  11.085   4.183   7.008
 4000POPC   C4A53526  11.094   4.506   7.331
 4000POPC   C1B53527  11.573   3.910   6.173
 4000POPC   C2B53528  11.689   4.031   6.543
 4000POPC   C3B53529  11.591   4.028   6.939
 4000POPC   C4B53530  11.775   3.908   7.319
 4001POPC   NC353531   2.303  43.751   5.394
 4001POPC   PO453532   1.882  44.272   5.649
 4001POPC   GL153533   1.733  43.931   5.936
 4001POPC   GL253534   1.796  43.595   5.762
 4001POPC   C1A53535   1.790  44.020   6.378
 4001POPC   D2A53536   1.987  44.325   6.635
 4001POPC   C3A53537   2.186  44.087   6.931
 4001POPC   C4A53538   2.005  44.003   7.318
 4001POPC   C1B53539   2.042  43.602   6.177
 4001POPC   C2B53540   2.063  43.657   6.640
 4001POPC   C3B53541   2.058  43.582   7.071
 4001POPC   C4B53542   2.211  43.541   7.471
 4002POPC   NC353543   2.304  33.275   5.581
 4002POPC   PO453544   1.913  33.806   5.336
 4002POPC   GL153545   2.007  33.741   5.827
 4002POPC   GL253546   2.315  33.738   5.993
 4002POPC   C1A53547   1.959  33.726   6.329
 4002POPC   D2A53548   2.195  33.753   6.736
 4002POPC   C3A53549   1.961  33.784   7.116
 4002POPC   C4A53550   1.703  33.926   7.461
 4002POPC   C1B53551   2.442  33.484   6.320
 4002POPC   C2B53552   2.334  33.258   6.682
 4002POPC   C3B53553   2.547  33.272   7.053
 4002POPC   C4B53554   2.460  33.641   7.263
 4003POPC   NC353555  10.571  22.949   5.393
 4003POPC   PO453556  10.067  23.407   5.383
 4003POPC   GL153557  10.231  23.077   5.760
 4003POPC   GL253558  10.452  22.733   5.852
 4003POPC   C1A53559  10.493  23.113   6.160
 4003POPC   D2A53560  10.701  23.282   6.531
 4003POPC   C3A53561  10.544  23.120   6.913
 4003POPC   C4A53562  10.693  23.121   7.305
 4003POPC   C1B53563  10.654  22.652   6.306
 4003POPC   C2B53564  10.752  22.621   6.786
 4003POPC   C3B53565  10.548  22.595   7.206
 4003POPC   C4B53566  10.258  22.601   7.560
 4004POPC   NC353567  20.685  36.945   5.345
 4004POPC   PO453568  20.541  36.341   5.322
 4004POPC   GL153569  20.493  36.618   5.711
 4004POPC   GL253570  20.674  36.921   5.836
 4004POPC   C1A53571  20.323  36.741   6.139
 4004POPC   D2A53572  20.347  36.990   6.514
 4004POPC   C3A53573  20.512  36.804   6.902
 4004POPC   C4A53574  20.238  36.643   7.179
 4004POPC   C1B53575  20.808  36.872   6.258
 4004POPC   C2B53576  20.839  37.099   6.618
 4004POPC   C3B53577  20.590  37.322   6.910
 4004POPC   C4B53578  20.732  37.131   7.285
 4005POPC   NC353579   3.189  35.820   5.203
 4005POPC   PO453580   3.811  36.096   5.473
 4005POPC   GL153581   3.601  35.996   5.802
 4005POPC   GL253582   3.282  36.144   5.749
 4005POPC   C1A53583   3.628  36.128   6.215
 4005POPC   D2A53584   3.489  36.298   6.615
 4005POPC   C3A53585   3.593  35.928   6.878
 4005POPC   C4A53586   3.674  35.745   7.277
 4005POPC   C1B53587   3.132  36.157   6.216
 4005POPC   C2B53588   3.117  35.944   6.671
 4005POPC   C3B53589   3.148  35.974   7.136
 4005POPC   C4B53590   3.264  35.887   7.573
 4006POPC   NC353591   2.990  31.818   5.216
 4006POPC   PO453592   3.581  31.445   5.342
 4006POPC   GL153593   3.504  31.516   5.766
 4006POPC   GL253594   3.169  31.505   5.671
 4006POPC   C1A53595   3.654  31.421   6.191
 4006POPC   D2A53596   3.558  31.229   6.588
 4006POPC   C3A53597   3.681  31.475   6.935
 4006POPC   C4A53598   3.871  31.566   7.322
 4006POPC   C1B53599   3.147  31.318   6.083
 4006POPC   C2B53600   3.098  31.479   6.491
 4006POPC   C3B53601   3.172  31.416   6.919
 4006POPC   C4B53602   3.326  31.745   7.171
 4007POPC   NC353603   8.048  19.953   5.315
 4007POPC   PO453604   8.627  19.572   5.493
 4007POPC   GL153605   8.339  19.789   5.736
 4007POPC   GL253606   7.997  19.646   5.710
 4007POPC   C1A53607   8.275  19.867   6.177
 4007POPC   D2A53608   8.147  20.159   6.479
 4007POPC   C3A53609   8.210  20.034   6.908
 4007POPC   C4A53610   8.387  19.642   7.063
 4007POPC   C1B53611   7.783  19.682   6.119
 4007POPC   C2B53612   7.949  19.669   6.542
 4007POPC   C3B53613   7.843  19.697   6.955
 4007POPC   C4B53614   7.987  19.826   7.344
 4008POPC   NC353615   3.283  39.889   5.445
 4008POPC   PO453616   3.928  40.088   5.358
 4008POPC   GL153617   3.757  39.849   5.665
 4008POPC   GL253618   3.563  40.135   5.779
 4008POPC   C1A53619   3.721  39.743   6.099
 4008POPC   D2A53620   3.844  39.951   6.478
 4008POPC   C3A53621   3.661  39.915   6.888
 4008POPC   C4A53622   3.723  40.226   7.208
 4008POPC   C1B53623   3.264  40.041   6.130
 4008POPC   C2B53624   3.166  39.857   6.529
 4008POPC   C3B53625   3.137  40.001   6.931
 4008POPC   C4B53626   3.318  39.901   7.295
 4009POPC   NC353627   9.654  18.758   5.370
 4009POPC   PO453628  10.015  19.232   5.343
 4009POPC   GL153629   9.907  19.025   5.724
 4009POPC   GL253630   9.518  19.039   5.801
 4009POPC   C1A53631   9.937  18.963   6.155
 4009POPC   D2A53632   9.697  19.061   6.523
 4009POPC   C3A53633   9.806  18.921   6.933
 4009POPC   C4A53634   9.867  19.166   7.307
 4009POPC   C1B53635   9.285  18.971   6.209
 4009POPC   C2B53636   9.188  19.046   6.676
 4009POPC   C3B53637   9.343  19.122   7.123
 4009POPC   C4B53638   9.287  19.220   7.594
 4010POPC   NC353639   4.897  22.253   5.189
 4010POPC   PO453640   5.498  21.869   5.196
 4010POPC   GL153641   5.193  21.997   5.606
 4010POPC   GL253642   4.879  21.804   5.746
 4010POPC   C1A53643   5.106  22.117   6.076
 4010POPC   D2A53644   4.777  22.157   6.441
 4010POPC   C3A53645   4.995  22.291   6.838
 4010POPC   C4A53646   4.933  22.281   7.279
 4010POPC   C1B53647   4.869  21.690   6.218
 4010POPC   C2B53648   5.121  21.836   6.634
 4010POPC   C3B53649   5.205  21.858   7.117
 4010POPC   C4B53650   5.289  21.602   7.506
 4011POPC   NC353651  35.253  17.823   5.188
 4011POPC   PO453652  35.677  17.380   5.504
 4011POPC   GL153653  35.578  17.480   5.918
 4011POPC   GL253654  35.231  17.441   6.010
 4011POPC   C1A53655  35.637  17.644   6.329
 4011POPC   D2A53656  35.450  17.556   6.717
 4011POPC   C3A53657  35.714  17.624   7.078
 4011POPC   C4A53658  35.749  17.536   7.577
 4011POPC   C1B53659  35.104  17.799   6.287
 4011POPC   C2B53660  34.957  17.776   6.714
 4011POPC   C3B53661  35.057  17.473   7.038
 4011POPC   C4B53662  35.288  17.554   7.385
 4012POPC   NC353663  13.691  36.123   5.470
 4012POPC   PO453664  13.111  36.035   5.220
 4012POPC   GL153665  13.277  36.245   5.734
 4012POPC   GL253666  13.677  36.179   5.952
 4012POPC   C1A53667  13.274  36.220   6.219
 4012POPC   D2A53668  13.528  36.132   6.612
 4012POPC   C3A53669  13.354  36.128   7.034
 4012POPC   C4A53670  13.262  35.739   7.231
 4012POPC   C1B53671  14.057  36.306   6.235
 4012POPC   C2B53672  14.183  36.234   6.680
 4012POPC   C3B53673  13.881  36.164   7.012
 4012POPC   C4B53674  13.706  35.738   6.987
 4013POPC   NC353675   4.505  33.353   5.329
 4013POPC   PO453676   4.546  32.713   5.404
 4013POPC   GL153677   4.547  32.976   5.773
 4013POPC   GL253678   4.217  33.134   5.775
 4013POPC   C1A53679   4.438  32.979   6.221
 4013POPC   D2A53680   4.434  32.854   6.683
 4013POPC   C3A53681   4.405  33.166   7.019
 4013POPC   C4A53682   4.758  33.222   7.263
 4013POPC   C1B53683   3.983  33.211   6.179
 4013POPC   C2B53684   3.940  32.940   6.581
 4013POPC   C3B53685   3.894  33.028   7.028
 4013POPC   C4B53686   3.939  33.457   7.193
 4014POPC   NC353687  34.304   5.941   5.459
 4014POPC   PO453688  35.000   5.734   5.555
 4014POPC   GL153689  34.666   5.893   5.821
 4014POPC   GL253690  34.764   6.220   5.757
 4014POPC   C1A53691  34.404   5.979   6.188
 4014POPC   D2A53692  34.545   5.857   6.620
 4014POPC   C3A53693  34.645   5.595   6.981
 4014POPC   C4A53694  34.472   5.885   7.279
 4014POPC   C1B53695  35.041   6.106   6.127
 4014POPC   C2B53696  35.038   5.795   6.464
 4014POPC   C3B53697  35.012   5.914   6.885
 4014POPC   C4B53698  34.943   6.104   7.283
 4015POPC   NC353699  38.379  20.028   5.370
 4015POPC   PO453700  38.470  19.417   5.389
 4015POPC   GL153701  38.539  19.647   5.723
 4015POPC   GL253702  38.192  19.729   5.759
 4015POPC   C1A53703  38.555  19.822   6.138
 4015POPC   D2A53704  38.717  19.856   6.524
 4015POPC   C3A53705  38.501  19.883   6.887
 4015POPC   C4A53706  38.637  19.775   7.266
 4015POPC   C1B53707  38.064  19.983   6.120
 4015POPC   C2B53708  37.987  19.928   6.563
 4015POPC   C3B53709  38.015  19.956   7.012
 4015POPC   C4B53710  38.147  19.822   7.436
 4016POPC   NC353711   4.785   0.681   5.483
 4016POPC   PO453712   5.457   0.486   5.361
 4016POPC   GL153713   5.269   0.681   5.714
 4016POPC   GL253714   5.078   0.394   5.815
 4016POPC   C1A53715   5.109   0.807   6.134
 4016POPC   D2A53716   5.163   0.944   6.579
 4016POPC   C3A53717   5.064   0.699   6.973
 4016POPC   C4A53718   5.242   0.518   7.343
 4016POPC   C1B53719   4.880   0.339   6.207
 4016POPC   C2B53720   5.107   0.259   6.585
 4016POPC   C3B53721   5.095   0.177   6.999
 4016POPC   C4B53722   4.752   0.312   7.274
 4017POPC   NC353723  20.250  27.045   5.337
 4017POPC   PO453724  19.743  26.501   5.395
 4017POPC   GL153725  19.706  26.718   5.797
 4017POPC   GL253726  19.865  27.034   5.701
 4017POPC   C1A53727  19.667  26.629   6.262
 4017POPC   D2A53728  19.914  26.440   6.600
 4017POPC   C3A53729  19.805  26.476   7.016
 4017POPC   C4A53730  19.404  26.677   7.081
 4017POPC   C1B53731  19.897  27.202   6.135
 4017POPC   C2B53732  19.959  26.995   6.512
 4017POPC   C3B53733  19.785  26.983   6.896
 4017POPC   C4B53734  19.839  26.906   7.301
 4018POPC   NC353735   5.693  32.929   5.289
 4018POPC   PO453736   5.864  33.512   5.439
 4018POPC   GL153737   5.786  33.341   5.823
 4018POPC   GL253738   5.896  33.028   5.746
 4018POPC   C1A53739   5.506  33.284   6.172
 4018POPC   D2A53740   5.550  33.110   6.584
 4018POPC   C3A53741   5.836  33.302   6.887
 4018POPC   C4A53742   5.818  33.253   7.330
 4018POPC   C1B53743   5.838  32.895   6.186
 4018POPC   C2B53744   5.908  32.750   6.641
 4018POPC   C3B53745   5.967  32.823   7.065
 4018POPC   C4B53746   5.802  32.728   7.462
 4019POPC   NC353747  43.952   7.547   5.269
 4019POPC   PO453748  43.877   6.933   5.531
 4019POPC   GL153749  43.753   7.193   5.787
 4019POPC   GL253750  43.999   7.471   5.785
 4019POPC   C1A53751  43.670   7.341   6.176
 4019POPC   D2A53752  43.893   7.647   6.429
 4019POPC   C3A53753  43.933   7.521   6.852
 4019POPC   C4A53754  44.132   7.464   7.281
 4019POPC   C1B53755  44.162   7.205   6.120
 4019POPC   C2B53756  44.298   7.193   6.545
 4019POPC   C3B53757  44.168   7.089   6.937
 4019POPC   C4B53758  43.972   6.972   7.291
 4020POPC   NC353759  13.683   4.535   5.227
 4020POPC   PO453760  13.964   3.941   5.372
 4020POPC   GL153761  13.697   4.000   5.742
 4020POPC   GL253762  13.595   4.368   5.721
 4020POPC   C1A53763  13.634   4.086   6.197
 4020POPC   D2A53764  13.411   4.217   6.564
 4020POPC   C3A53765  13.534   4.164   6.987
 4020POPC   C4A53766  13.346   4.439   7.307
 4020POPC   C1B53767  13.787   4.599   6.064
 4020POPC   C2B53768  13.907   4.810   6.471
 4020POPC   C3B53769  14.003   4.713   6.905
 4020POPC   C4B53770  13.853   4.504   7.234
 4021POPC   NC353771   1.145  24.855   5.389
 4021POPC   PO453772   1.031  24.214   5.510
 4021POPC   GL153773   1.075  24.472   5.834
 4021POPC   GL253774   0.756  24.644   5.864
 4021POPC   C1A53775   1.274  24.421   6.238
 4021POPC   D2A53776   1.324  24.216   6.651
 4021POPC   C3A53777   1.205  24.421   7.046
 4021POPC   C4A53778   1.304  24.400   7.507
 4021POPC   C1B53779   0.952  24.831   6.201
 4021POPC   C2B53780   1.099  24.753   6.597
 4021POPC   C3B53781   0.904  24.847   6.970
 4021POPC   C4B53782   0.998  24.792   7.377
 4022POPC   NC353783  13.074  13.808   5.421
 4022POPC   PO453784  12.397  13.944   5.551
 4022POPC   GL153785  12.754  13.775   5.811
 4022POPC   GL253786  13.079  13.938   5.910
 4022POPC   C1A53787  12.867  13.450   6.095
 4022POPC   D2A53788  12.913  13.416   6.541
 4022POPC   C3A53789  12.578  13.282   6.821
 4022POPC   C4A53790  12.643  13.282   7.262
 4022POPC   C1B53791  13.244  13.725   6.309
 4022POPC   C2B53792  13.261  13.714   6.779
 4022POPC   C3B53793  13.109  13.676   7.173
 4022POPC   C4B53794  13.319  13.842   7.527
 4023POPC   NC353795  29.052  34.134   5.516
 4023POPC   PO453796  28.847  34.806   5.501
 4023POPC   GL153797  28.901  34.565   5.824
 4023POPC   GL253798  29.219  34.435   5.924
 4023POPC   C1A53799  28.743  34.444   6.180
 4023POPC   D2A53800  28.955  34.327   6.511
 4023POPC   C3A53801  28.900  34.497   6.916
 4023POPC   C4A53802  29.070  34.467   7.307
 4023POPC   C1B53803  29.122  34.768   6.266
 4023POPC   C2B53804  29.151  35.013   6.647
 4023POPC   C3B53805  29.208  34.902   7.041
 4023POPC   C4B53806  28.982  34.968   7.365
 4024POPC   NC353807  37.453  17.807   5.274
 4024POPC   PO453808  37.792  17.210   5.457
 4024POPC   GL153809  37.578  17.391   5.771
 4024POPC   GL253810  37.709  17.734   5.722
 4024POPC   C1A53811  37.596  17.555   6.196
 4024POPC   D2A53812  37.657  17.503   6.642
 4024POPC   C3A53813  37.293  17.647   6.884
 4024POPC   C4A53814  37.244  17.502   7.303
 4024POPC   C1B53815  37.992  17.911   6.054
 4024POPC   C2B53816  37.928  17.940   6.513
 4024POPC   C3B53817  37.937  17.980   6.973
 4024POPC   C4B53818  37.978  18.035   7.442
 4025POPC   NC353819   0.668   3.574   5.389
 4025POPC   PO453820   0.001   3.268   5.334
 4025POPC   GL153821   0.278   3.241   5.671
 4025POPC   GL253822   0.488   3.486   5.847
 4025POPC   C1A53823   0.130   3.235   6.105
 4025POPC   D2A53824   0.152   3.235   6.584
 4025POPC   C3A53825   0.463   3.289   6.897
 4025POPC   C4A53826   0.345   3.311   7.361
 4025POPC   C1B53827   0.419   3.604   6.292
 4025POPC   C2B53828   0.102   3.751   6.572
 4025POPC   C3B53829   0.212   3.784   7.008
 4025POPC   C4B53830   0.625   3.681   7.191
 4026POPC   NC353831   9.221  23.968   5.390
 4026POPC   PO453832   8.636  23.589   5.338
 4026POPC   GL153833   8.883  23.492   5.763
 4026POPC   GL253834   9.192  23.724   5.868
 4026POPC   C1A53835   8.989  23.341   6.210
 4026POPC   D2A53836   8.780  23.497   6.608
 4026POPC   C3A53837   8.920  23.668   7.022
 4026POPC   C4A53838   8.832  23.821   7.448
 4026POPC   C1B53839   9.397  23.800   6.306
 4026POPC   C2B53840   9.420  24.027   6.737
 4026POPC   C3B53841   9.289  23.973   7.199
 4026POPC   C4B53842   9.270  24.033   7.672
 4027POPC   NC353843  40.253   9.067   5.185
 4027POPC   PO453844  39.614   8.700   5.095
 4027POPC   GL153845  39.790   8.769   5.592
 4027POPC   GL253846  39.826   9.116   5.752
 4027POPC   C1A53847  40.006   8.741   6.081
 4027POPC   D2A53848  40.202   8.772   6.521
 4027POPC   C3A53849  39.993   8.677   6.931
 4027POPC   C4A53850  40.026   8.729   7.369
 4027POPC   C1B53851  39.752   9.196   6.228
 4027POPC   C2B53852  39.860   9.175   6.704
 4027POPC   C3B53853  39.894   9.189   7.181
 4027POPC   C4B53854  39.733   9.309   7.651
 4028POPC   NC353855  33.068  43.942   5.111
 4028POPC   PO453856  32.512  43.650   5.331
 4028POPC   GL153857  32.795  44.002   5.558
 4028POPC   GL253858  33.133  43.896   5.710
 4028POPC   C1A53859  32.860  44.229   5.993
 4028POPC   D2A53860  32.729  44.100   6.443
 4028POPC   C3A53861  32.956  44.090   6.864
 4028POPC   C4A53862  32.900  43.865   7.232
 4028POPC   C1B53863  33.170  43.881   6.193
 4028POPC   C2B53864  33.275  43.779   6.621
 4028POPC   C3B53865  33.116  43.482   6.952
 4028POPC   C4B53866  33.184  43.449   7.420
 4029POPC   NC353867  14.207   7.710   5.354
 4029POPC   PO453868  14.453   7.148   5.393
 4029POPC   GL153869  14.579   7.362   5.781
 4029POPC   GL253870  14.602   7.741   5.717
 4029POPC   C1A53871  14.387   7.358   6.215
 4029POPC   D2A53872  13.983   7.378   6.478
 4029POPC   C3A53873  14.129   7.445   6.916
 4029POPC   C4A53874  14.528   7.219   7.089
 4029POPC   C1B53875  14.218   7.795   6.019
 4029POPC   C2B53876  14.283   7.825   6.491
 4029POPC   C3B53877  14.613   7.653   6.811
 4029POPC   C4B53878  14.845   7.601   7.230
 4030POPC   NC353879  38.793  10.072   5.553
 4030POPC   PO453880  38.221   9.761   5.385
 4030POPC   GL153881  38.352   9.682   5.799
 4030POPC   GL253882  38.670   9.613   5.838
 4030POPC   C1A53883  38.252   9.703   6.229
 4030POPC   D2A53884  38.010   9.704   6.629
 4030POPC   C3A53885  38.265   9.702   7.040
 4030POPC   C4A53886  38.254   9.497   7.451
 4030POPC   C1B53887  38.799   9.691   6.268
 4030POPC   C2B53888  38.997   9.785   6.675
 4030POPC   C3B53889  38.945   9.491   7.001
 4030POPC   C4B53890  38.755   9.536   7.409
 4031POPC   NC353891  39.649  27.068   5.333
 4031POPC   PO453892  39.347  26.485   5.467
 4031POPC   GL153893  39.401  26.814   5.730
 4031POPC   GL253894  39.756  26.760   5.736
 4031POPC   C1A53895  39.249  26.866   6.147
 4031POPC   D2A53896  39.085  26.729   6.538
 4031POPC   C3A53897  39.138  27.076   6.817
 4031POPC   C4A53898  39.249  27.032   7.229
 4031POPC   C1B53899  39.614  26.505   6.098
 4031POPC   C2B53900  39.519  26.484   6.535
 4031POPC   C3B53901  39.356  26.610   6.951
 4031POPC   C4B53902  39.480  26.511   7.366
 4032POPC   NC353903  37.656  40.149   5.337
 4032POPC   PO453904  37.629  39.522   5.420
 4032POPC   GL153905  37.698  39.638   5.867
 4032POPC   GL253906  37.987  39.866   5.877
 4032POPC   C1A53907  37.780  39.723   6.333
 4032POPC   D2A53908  37.683  40.044   6.656
 4032POPC   C3A53909  37.627  39.870   7.059
 4032POPC   C4A53910  37.878  39.778   7.378
 4032POPC   C1B53911  38.017  40.162   6.242
 4032POPC   C2B53912  38.095  40.378   6.655
 4032POPC   C3B53913  37.924  40.315   7.077
 4032POPC   C4B53914  38.063  40.250   7.475
 4033POPC   NC353915   0.739  32.582   5.387
 4033POPC   PO453916   0.311  32.114   5.410
 4033POPC   GL153917   0.571  32.191   5.737
 4033POPC   GL253918   0.266  32.263   5.916
 4033POPC   C1A53919   0.691  32.228   6.189
 4033POPC   D2A53920   0.663  31.933   6.504
 4033POPC   C3A53921   0.598  31.982   6.917
 4033POPC   C4A53922   0.854  32.248   7.087
 4033POPC   C1B53923   0.201  32.028   6.300
 4033POPC   C2B53924   0.255  32.261   6.685
 4033POPC   C3B53925   0.381  32.389   7.145
 4033POPC   C4B53926   0.187  32.691   7.407
 4034POPC   NC353927   6.369  23.409   5.450
 4034POPC   PO453928   6.952  23.648   5.426
 4034POPC   GL153929   6.939  23.475   5.875
 4034POPC   GL253930   6.840  23.151   5.947
 4034POPC   C1A53931   6.912  23.539   6.339
 4034POPC   D2A53932   6.791  23.876   6.621
 4034POPC   C3A53933   6.615  23.817   7.054
 4034POPC   C4A53934   6.740  23.926   7.493
 4034POPC   C1B53935   6.518  23.236   6.294
 4034POPC   C2B53936   6.588  23.401   6.723
 4034POPC   C3B53937   6.457  23.315   7.147
 4034POPC   C4B53938   6.488  23.499   7.558
 4035POPC   NC353939   0.735   1.018   5.470
 4035POPC   PO453940   1.218   1.344   5.103
 4035POPC   GL153941   1.036   1.297   5.724
 4035POPC   GL253942   1.010   0.940   5.878
 4035POPC   C1A53943   1.108   1.366   6.177
 4035POPC   D2A53944   1.260   1.113   6.512
 4035POPC   C3A53945   1.079   1.208   6.890
 4035POPC   C4A53946   1.108   1.434   7.263
 4035POPC   C1B53947   0.674   1.095   6.126
 4035POPC   C2B53948   0.708   1.272   6.516
 4035POPC   C3B53949   0.524   1.149   6.891
 4035POPC   C4B53950   0.715   1.088   7.248
 4036POPC   NC353951   2.035  23.595   5.496
 4036POPC   PO453952   1.977  22.995   5.285
 4036POPC   GL153953   2.122  23.023   5.708
 4036POPC   GL253954   1.828  23.205   5.745
 4036POPC   C1A53955   2.125  22.826   6.136
 4036POPC   D2A53956   1.980  22.949   6.539
 4036POPC   C3A53957   2.100  22.777   6.927
 4036POPC   C4A53958   1.790  22.873   7.220
 4036POPC   C1B53959   1.809  23.261   6.160
 4036POPC   C2B53960   1.852  23.475   6.542
 4036POPC   C3B53961   1.943  23.294   6.934
 4036POPC   C4B53962   1.769  23.373   7.334
 4037POPC   NC353963  39.535  39.443   5.402
 4037POPC   PO453964  40.219  39.282   5.513
 4037POPC   GL153965  39.993  39.362   5.877
 4037POPC   GL253966  39.683  39.240   5.864
 4037POPC   C1A53967  40.016  39.492   6.304
 4037POPC   D2A53968  40.119  39.283   6.702
 4037POPC   C3A53969  39.957  39.406   7.103
 4037POPC   C4A53970  39.960  39.234   7.526
 4037POPC   C1B53971  39.507  39.444   6.227
 4037POPC   C2B53972  39.621  39.471   6.651
 4037POPC   C3B53973  39.568  39.126   6.922
 4037POPC   C4B53974  39.483  39.308   7.307
 4038POPC   NC353975  15.292  11.935   5.361
 4038POPC   PO453976  14.686  12.089   5.694
 4038POPC   GL153977  15.005  12.092   5.932
 4038POPC   GL253978  15.347  12.182   5.823
 4038POPC   C1A53979  14.860  12.040   6.336
 4038POPC   D2A53980  14.885  11.697   6.551
 4038POPC   C3A53981  15.134  11.886   6.857
 4038POPC   C4A53982  15.177  11.809   7.278
 4038POPC   C1B53983  15.294  12.397   6.216
 4038POPC   C2B53984  15.413  12.505   6.625
 4038POPC   C3B53985  15.434  12.289   7.042
 4038POPC   C4B53986  15.386  12.221   7.491
 4039POPC   NC353987  24.881   6.186   5.571
 4039POPC   PO453988  24.249   5.926   5.394
 4039POPC   GL153989  24.321   5.802   5.796
 4039POPC   GL253990  24.669   5.666   5.777
 4039POPC   C1A53991  24.370   5.770   6.225
 4039POPC   D2A53992  24.231   5.717   6.627
 4039POPC   C3A53993  24.550   5.801   6.886
 4039POPC   C4A53994  24.483   5.896   7.244
 4039POPC   C1B53995  24.852   5.585   6.200
 4039POPC   C2B53996  24.728   5.406   6.613
 4039POPC   C3B53997  24.928   5.467   7.024
 4039POPC   C4B53998  24.853   5.589   7.415
 4040POPC   NC353999  25.733  27.516   5.099
 4040POPC   PO454000  25.171  27.587   5.476
 4040POPC   GL154001  25.458  27.557   5.846
 4040POPC   GL254002  25.310  27.829   5.957
 4040POPC   C1A54003  25.515  27.544   6.297
 4040POPC   D2A54004  25.341  27.832   6.581
 4040POPC   C3A54005  25.275  27.667   6.958
 4040POPC   C4A54006  25.597  27.642   7.226
 4040POPC   C1B54007  25.012  27.591   6.273
 4040POPC   C2B54008  24.982  27.345   6.660
 4040POPC   C3B54009  24.890  27.148   7.049
 4040POPC   C4B54010  24.986  27.373   7.390
 4041POPC   NC354011   4.798  16.976   5.610
 4041POPC   PO454012   5.146  16.372   5.338
 4041POPC   GL154013   5.179  16.359   5.755
 4041POPC   GL254014   5.187  16.682   5.836
 4041POPC   C1A54015   5.354  16.342   6.162
 4041POPC   D2A54016   5.334  16.560   6.524
 4041POPC   C3A54017   5.146  16.368   6.875
 4041POPC   C4A54018   5.013  16.583   7.225
 4041POPC   C1B54019   5.222  16.943   6.162
 4041POPC   C2B54020   5.055  17.048   6.537
 4041POPC   C3B54021   5.239  16.908   6.889
 4041POPC   C4B54022   5.392  16.908   7.295
 4042POPC   NC354023  13.539  30.173   5.439
 4042POPC   PO454024  14.011  29.700   5.520
 4042POPC   GL154025  13.703  29.884   5.815
 4042POPC   GL254026  13.683  29.545   5.904
 4042POPC   C1A54027  13.499  29.914   6.238
 4042POPC   D2A54028  13.426  29.632   6.584
 4042POPC   C3A54029  13.564  29.754   7.001
 4042POPC   C4A54030  13.617  30.172   7.232
 4042POPC   C1B54031  13.998  29.761   6.206
 4042POPC   C2B54032  13.882  29.921   6.591
 4042POPC   C3B54033  14.016  29.991   6.986
 4042POPC   C4B54034  13.983  29.839   7.415
 4043POPC   NC354035   5.423  10.025   5.425
 4043POPC   PO454036   4.803   9.880   5.426
 4043POPC   GL154037   5.066   9.969   5.802
 4043POPC   GL254038   5.433   9.841   5.892
 4043POPC   C1A54039   5.073  10.031   6.233
 4043POPC   D2A54040   5.270   9.871   6.576
 4043POPC   C3A54041   5.057   9.911   6.988
 4043POPC   C4A54042   5.381   9.919   7.283
 4043POPC   C1B54043   5.219   9.450   6.021
 4043POPC   C2B54044   5.098   9.396   6.433
 4043POPC   C3B54045   5.237   9.451   6.857
 4043POPC   C4B54046   5.143   9.451   7.284
 4044POPC   NC354047  35.883  16.923   5.502
 4044POPC   PO454048  36.311  16.374   5.410
 4044POPC   GL154049  36.085  16.494   5.748
 4044POPC   GL254050  36.344  16.361   5.931
 4044POPC   C1A54051  36.024  16.766   6.132
 4044POPC   D2A54052  36.207  16.911   6.543
 4044POPC   C3A54053  36.057  16.800   6.936
 4044POPC   C4A54054  35.923  16.751   7.349
 4044POPC   C1B54055  36.471  16.508   6.318
 4044POPC   C2B54056  36.431  16.474   6.759
 4044POPC   C3B54057  36.320  16.445   7.211
 4044POPC   C4B54058  36.455  16.247   7.595
 4045POPC   NC354059  18.197  21.717   5.260
 4045POPC   PO454060  18.118  21.184   5.559
 4045POPC   GL154061  18.284  21.558   5.782
 4045POPC   GL254062  18.101  21.885   5.738
 4045POPC   C1A54063  18.431  21.459   6.228
 4045POPC   D2A54064  18.320  21.138   6.581
 4045POPC   C3A54065  18.303  21.327   7.003
 4045POPC   C4A54066  18.110  21.227   7.396
 4045POPC   C1B54067  18.030  21.757   6.177
 4045POPC   C2B54068  18.068  21.601   6.591
 4045POPC   C3B54069  17.819  21.463   6.926
 4045POPC   C4B54070  17.968  21.684   7.254
 4046POPC   NC354071  23.351  44.138   5.405
 4046POPC   PO454072  23.654  43.601   5.645
 4046POPC   GL154073  23.767  43.978   5.766
 4046POPC   GL254074  23.450  44.042   5.888
 4046POPC   C1A54075  23.875  44.085   6.197
 4046POPC   D2A54076  23.981  43.842   6.539
 4046POPC   C3A54077  23.955  44.046   6.921
 4046POPC   C4A54078  24.107  43.953   7.301
 4046POPC   C1B54079  23.424  43.833   6.272
 4046POPC   C2B54080  23.503  43.974   6.674
 4046POPC   C3B54081  23.525  43.859   7.093
 4046POPC   C4B54082  23.320  44.057   7.403
 4047POPC   NC354083  12.601  35.563   5.178
 4047POPC   PO454084  11.961  35.414   5.369
 4047POPC   GL154085  12.101  35.368   5.800
 4047POPC   GL254086  11.780  35.327   5.907
 4047POPC   C1A54087  12.369  35.126   6.110
 4047POPC   D2A54088  12.536  35.216   6.547
 4047POPC   C3A54089  12.314  35.200   6.984
 4047POPC   C4A54090  12.058  35.463   7.288
 4047POPC   C1B54091  11.966  35.383   6.317
 4047POPC   C2B54092  11.864  35.189   6.702
 4047POPC   C3B54093  11.715  35.125   7.111
 4047POPC   C4B54094  11.684  35.242   7.538
 4048POPC   NC354095  12.132  28.855   5.422
 4048POPC   PO454096  11.741  29.420   5.391
 4048POPC   GL154097  12.023  29.293   5.758
 4048POPC   GL254098  12.160  28.963   5.899
 4048POPC   C1A54099  12.078  29.342   6.213
 4048POPC   D2A54100  12.133  29.153   6.622
 4048POPC   C3A54101  11.974  29.332   7.020
 4048POPC   C4A54102  12.203  29.403   7.431
 4048POPC   C1B54103  11.771  28.937   6.149
 4048POPC   C2B54104  11.732  28.814   6.574
 4048POPC   C3B54105  11.966  28.759   6.939
 4048POPC   C4B54106  12.053  28.914   7.315
 4049POPC   NC354107  44.198   0.600   5.454
 4049POPC   PO454108  44.688   0.102   5.284
 4049POPC   GL154109  44.591   0.349   5.694
 4049POPC   GL254110  44.856   0.347   5.943
 4049POPC   C1A54111  44.409   0.559   6.101
 4049POPC   D2A54112  44.310   0.689   6.528
 4049POPC   C3A54113  44.539   0.492   6.838
 4049POPC   C4A54114  44.825   0.520   7.170
 4049POPC   C1B54115  44.770   0.268   6.410
 4049POPC   C2B54116  44.924   0.131   6.835
 4049POPC   C3B54117   0.067   0.091   7.277
 4049POPC   C4B54118   0.143   0.155   7.744
 4050POPC   NC354119  26.343   1.042   5.300
 4050POPC   PO454120  25.949   1.513   5.591
 4050POPC   GL154121  25.994   1.355   5.911
 4050POPC   GL254122  26.061   1.017   5.828
 4050POPC   C1A54123  26.012   1.523   6.294
 4050POPC   D2A54124  26.343   1.550   6.554
 4050POPC   C3A54125  26.222   1.594   6.953
 4050POPC   C4A54126  26.328   1.368   7.285
 4050POPC   C1B54127  25.830   1.035   6.256
 4050POPC   C2B54128  25.827   1.219   6.681
 4050POPC   C3B54129  25.869   1.153   7.119
 4050POPC   C4B54130  26.129   0.903   7.406
 4051POPC   NC354131  36.295  10.511   5.295
 4051POPC   PO454132  35.817  10.259   5.622
 4051POPC   GL154133  36.139  10.404   5.865
 4051POPC   GL254134  36.360  10.154   5.883
 4051POPC   C1A54135  36.026  10.635   6.237
 4051POPC   D2A54136  35.730  10.601   6.555
 4051POPC   C3A54137  35.832  10.384   6.939
 4051POPC   C4A54138  35.909  10.559   7.345
 4051POPC   C1B54139  36.190  10.155   6.336
 4051POPC   C2B54140  36.266  10.463   6.663
 4051POPC   C3B54141  36.348  10.441   7.096
 4051POPC   C4B54142  36.520  10.072   7.299
 4052POPC   NC354143  16.719  23.225   5.242
 4052POPC   PO454144  16.752  22.586   5.385
 4052POPC   GL154145  16.727  22.770   5.795
 4052POPC   GL254146  16.943  23.081   5.775
 4052POPC   C1A54147  16.548  22.814   6.224
 4052POPC   D2A54148  16.827  22.876   6.582
 4052POPC   C3A54149  16.647  22.835   6.972
 4052POPC   C4A54150  16.675  22.565   7.311
 4052POPC   C1B54151  16.827  23.245   6.188
 4052POPC   C2B54152  17.003  23.360   6.598
 4052POPC   C3B54153  17.038  23.182   7.004
 4052POPC   C4B54154  16.810  23.121   7.390
 4053POPC   NC354155  42.619  26.203   5.437
 4053POPC   PO454156  41.974  26.403   5.469
 4053POPC   GL154157  42.081  26.009   5.770
 4053POPC   GL254158  42.461  25.945   5.851
 4053POPC   C1A54159  42.145  25.864   6.236
 4053POPC   D2A54160  42.374  26.024   6.601
 4053POPC   C3A54161  42.303  25.799   6.970
 4053POPC   C4A54162  41.984  25.818   7.253
 4053POPC   C1B54163  42.526  26.302   6.150
 4053POPC   C2B54164  42.658  26.456   6.584
 4053POPC   C3B54165  42.540  26.362   7.039
 4053POPC   C4B54166  42.595  26.015   7.360
 4054POPC   NC354167  17.580  25.211   5.287
 4054POPC   PO454168  17.568  25.879   5.387
 4054POPC   GL154169  17.411  25.524   5.692
 4054POPC   GL254170  17.704  25.271   5.799
 4054POPC   C1A54171  17.341  25.448   6.161
 4054POPC   D2A54172  17.519  25.583   6.586
 4054POPC   C3A54173  17.442  25.341   6.980
 4054POPC   C4A54174  17.520  25.296   7.425
 4054POPC   C1B54175  17.840  25.317   6.269
 4054POPC   C2B54176  17.971  25.215   6.727
 4054POPC   C3B54177  17.893  25.040   7.163
 4054POPC   C4B54178  17.822  24.936   7.640
 4055POPC   NC354179  36.699  19.770   5.317
 4055POPC   PO454180  37.293  19.720   5.287
 4055POPC   GL154181  37.033  19.835   5.694
 4055POPC   GL254182  36.698  19.998   5.804
 4055POPC   C1A54183  37.099  19.834   6.115
 4055POPC   D2A54184  36.979  19.610   6.466
 4055POPC   C3A54185  37.208  19.715   6.811
 4055POPC   C4A54186  37.203  19.716   7.240
 4055POPC   C1B54187  36.590  19.936   6.272
 4055POPC   C2B54188  36.530  19.699   6.696
 4055POPC   C3B54189  36.694  19.803   7.129
 4055POPC   C4B54190  36.527  19.865   7.584
 4056POPC   NC354191   8.093  18.493   5.570
 4056POPC   PO454192   8.368  17.948   5.297
 4056POPC   GL154193   8.191  18.010   5.707
 4056POPC   GL254194   8.469  18.206   5.786
 4056POPC   C1A54195   8.048  18.197   6.135
 4056POPC   D2A54196   8.122  18.462   6.511
 4056POPC   C3A54197   8.036  18.247   6.900
 4056POPC   C4A54198   8.090  18.306   7.320
 4056POPC   C1B54199   8.540  18.407   6.180
 4056POPC   C2B54200   8.579  18.233   6.570
 4056POPC   C3B54201   8.509  18.403   6.943
 4056POPC   C4B54202   8.558  18.149   7.273
 4057POPC   NC354203  32.402  20.252   4.990
 4057POPC   PO454204  31.853  20.208   5.426
 4057POPC   GL154205  32.129  20.341   5.777
 4057POPC   GL254206  32.384  20.178   6.020
 4057POPC   C1A54207  32.009  20.515   6.158
 4057POPC   D2A54208  31.926  20.677   6.542
 4057POPC   C3A54209  32.122  20.519   6.892
 4057POPC   C4A54210  32.108  20.716   7.288
 4057POPC   C1B54211  32.443  20.476   6.413
 4057POPC   C2B54212  32.499  20.815   6.722
 4057POPC   C3B54213  32.613  20.784   7.183
 4057POPC   C4B54214  32.832  20.612   7.568
 4058POPC   NC354215  44.785  31.162   5.383
 4058POPC   PO454216  44.538  31.774   5.352
 4058POPC   GL154217  44.629  31.542   5.718
 4058POPC   GL254218  44.405  31.255   5.723
 4058POPC   C1A54219  44.539  31.565   6.159
 4058POPC   D2A54220  44.803  31.654   6.525
 4058POPC   C3A54221  44.596  31.643   6.932
 4058POPC   C4A54222  44.776  31.677   7.299
 4058POPC   C1B54223  44.423  31.036   6.105
 4058POPC   C2B54224  44.612  31.160   6.478
 4058POPC   C3B54225  44.562  31.077   6.899
 4058POPC   C4B54226  44.538  31.233   7.296
 4059POPC   NC354227  18.197  24.682   5.218
 4059POPC   PO454228  18.239  24.182   5.599
 4059POPC   GL154229  18.256  24.616   5.742
 4059POPC   GL254230  17.921  24.769   5.649
 4059POPC   C1A54231  18.434  24.694   6.165
 4059POPC   D2A54232  18.542  24.432   6.551
 4059POPC   C3A54233  18.724  24.608   6.924
 4059POPC   C4A54234  18.508  24.624   7.306
 4059POPC   C1B54235  17.948  24.858   6.083
 4059POPC   C2B54236  17.950  24.741   6.518
 4059POPC   C3B54237  18.151  24.633   6.914
 4059POPC   C4B54238  17.995  24.564   7.327
 4060POPC   NC354239  43.033  14.821   5.446
 4060POPC   PO454240  42.997  14.157   5.274
 4060POPC   GL154241  43.082  14.381   5.718
 4060POPC   GL254242  43.340  14.665   5.829
 4060POPC   C1A54243  42.965  14.466   6.190
 4060POPC   D2A54244  42.776  14.369   6.621
 4060POPC   C3A54245  42.968  14.482   7.012
 4060POPC   C4A54246  43.041  14.232   7.354
 4060POPC   C1B54247  43.315  14.867   6.272
 4060POPC   C2B54248  43.364  14.984   6.734
 4060POPC   C3B54249  43.410  14.692   7.083
 4060POPC   C4B54250  43.459  14.496   7.495
 4061POPC   NC354251  24.587  28.083   5.266
 4061POPC   PO454252  24.225  28.666   5.127
 4061POPC   GL154253  24.421  28.476   5.580
 4061POPC   GL254254  24.351  28.135   5.735
 4061POPC   C1A54255  24.602  28.421   6.075
 4061POPC   D2A54256  24.759  28.403   6.562
 4061POPC   C3A54257  24.572  28.310   6.999
 4061POPC   C4A54258  24.280  28.595   7.235
 4061POPC   C1B54259  24.173  28.122   6.192
 4061POPC   C2B54260  24.313  28.037   6.659
 4061POPC   C3B54261  24.235  27.894   7.109
 4061POPC   C4B54262  24.212  27.964   7.593
 4062POPC   NC354263  27.685  38.315   5.488
 4062POPC   PO454264  27.135  38.358   5.563
 4062POPC   GL154265  27.428  38.313   5.946
 4062POPC   GL254266  27.715  38.071   5.950
 4062POPC   C1A54267  27.385  38.375   6.412
 4062POPC   D2A54268  27.518  38.316   6.859
 4062POPC   C3A54269  27.364  38.619   7.173
 4062POPC   C4A54270  27.570  38.834   7.527
 4062POPC   C1B54271  27.867  38.240   6.358
 4062POPC   C2B54272  27.825  38.633   6.599
 4062POPC   C3B54273  27.845  38.691   7.053
 4062POPC   C4B54274  27.813  38.410   7.427
 4063POPC   NC354275  26.590  44.446   5.665
 4063POPC   PO454276  26.970  45.000   5.462
 4063POPC   GL154277  26.900  44.795   5.860
 4063POPC   GL254278  27.068  44.460   5.840
 4063POPC   C1A54279  26.749  44.847   6.296
 4063POPC   D2A54280  26.842   0.065   6.676
 4063POPC   C3A54281  26.767  44.850   7.066
 4063POPC   C4A54282  26.515  44.752   7.469
 4063POPC   C1B54283  26.860  44.354   6.247
 4063POPC   C2B54284  26.686  44.437   6.647
 4063POPC   C3B54285  26.777  44.296   7.034
 4063POPC   C4B54286  27.090  44.511   7.222
 4064POPC   NC354287   1.803   6.312   5.538
 4064POPC   PO454288   2.105   6.926   5.427
 4064POPC   GL154289   2.001   6.733   5.861
 4064POPC   GL254290   1.671   6.587   5.930
 4064POPC   C1A54291   1.958   6.610   6.339
 4064POPC   D2A54292   2.192   6.602   6.731
 4064POPC   C3A54293   2.206   6.847   7.087
 4064POPC   C4A54294   1.946   6.812   7.472
 4064POPC   C1B54295   1.552   6.263   6.230
 4064POPC   C2B54296   1.582   6.406   6.654
 4064POPC   C3B54297   1.731   6.598   7.030
 4064POPC   C4B54298   1.843   6.314   7.384
 4065POPC   NC354299  36.228   5.819   5.326
 4065POPC   PO454300  36.657   6.283   5.310
 4065POPC   GL154301  36.355   6.149   5.728
 4065POPC   GL254302  36.076   5.856   5.813
 4065POPC   C1A54303  36.153   6.219   6.177
 4065POPC   D2A54304  35.828   6.139   6.508
 4065POPC   C3A54305  35.872   6.151   6.956
 4065POPC   C4A54306  36.208   6.083   7.243
 4065POPC   C1B54307  36.001   5.717   6.245
 4065POPC   C2B54308  36.177   5.796   6.675
 4065POPC   C3B54309  35.984   5.646   7.070
 4065POPC   C4B54310  36.094   5.619   7.502
 4066POPC   NC354311  21.642   0.736   5.517
 4066POPC   PO454312  21.059   0.264   5.486
 4066POPC   GL154313  21.305   0.503   5.825
 4066POPC   GL254314  21.256   0.858   5.908
 4066POPC   C1A54315  21.540   0.501   6.250
 4066POPC   D2A54316  21.785   0.372   6.647
 4066POPC   C3A54317  21.515   0.323   7.034
 4066POPC   C4A54318  21.570   0.280   7.533
 4066POPC   C1B54319  21.010   0.637   6.227
 4066POPC   C2B54320  21.156   0.494   6.632
 4066POPC   C3B54321  21.242   0.757   6.972
 4066POPC   C4B54322  21.257   0.654   7.374
 4067POPC   NC354323  12.482  38.434   5.381
 4067POPC   PO454324  13.154  38.365   5.385
 4067POPC   GL154325  12.995  38.531   5.758
 4067POPC   GL254326  12.705  38.316   5.822
 4067POPC   C1A54327  12.850  38.632   6.189
 4067POPC   D2A54328  12.921  38.388   6.571
 4067POPC   C3A54329  13.112  38.522   6.967
 4067POPC   C4A54330  12.941  38.518   7.377
 4067POPC   C1B54331  12.551  38.211   6.218
 4067POPC   C2B54332  12.462  38.207   6.664
 4067POPC   C3B54333  12.722  38.182   7.043
 4067POPC   C4B54334  12.585  38.162   7.453
 4068POPC   NC354335  15.726   0.792   5.453
 4068POPC   PO454336  16.030   0.181   5.390
 4068POPC   GL154337  15.987   0.474   5.753
 4068POPC   GL254338  15.598   0.457   5.836
 4068POPC   C1A54339  15.936   0.649   6.190
 4068POPC   D2A54340  15.785   0.505   6.618
 4068POPC   C3A54341  16.013   0.602   7.013
 4068POPC   C4A54342  16.151   0.308   7.358
 4068POPC   C1B54343  15.423   0.700   6.188
 4068POPC   C2B54344  15.556   0.937   6.569
 4068POPC   C3B54345  15.541   0.812   7.042
 4068POPC   C4B54346  15.733   0.617   7.443
 4069POPC   NC354347  42.116  41.361   5.634
 4069POPC   PO454348  42.404  40.950   5.168
 4069POPC   GL154349  42.373  40.792   5.612
 4069POPC   GL254350  42.049  40.834   5.693
 4069POPC   C1A54351  42.491  40.821   6.091
 4069POPC   D2A54352  42.455  41.050   6.517
 4069POPC   C3A54353  42.483  40.817   6.902
 4069POPC   C4A54354  42.630  40.872   7.312
 4069POPC   C1B54355  41.990  40.907   6.143
 4069POPC   C2B54356  41.906  40.783   6.574
 4069POPC   C3B54357  41.991  40.954   6.970
 4069POPC   C4B54358  42.108  40.798   7.361
 4070POPC   NC354359  17.904  20.793   5.444
 4070POPC   PO454360  18.234  20.151   5.491
 4070POPC   GL154361  18.117  20.191   5.930
 4070POPC   GL254362  18.078  20.511   5.828
 4070POPC   C1A54363  18.198  20.269   6.398
 4070POPC   D2A54364  18.395  20.517   6.798
 4070POPC   C3A54365  18.113  20.828   7.053
 4070POPC   C4A54366  17.907  20.780   7.477
 4070POPC   C1B54367  17.842  20.604   6.154
 4070POPC   C2B54368  17.975  20.705   6.562
 4070POPC   C3B54369  17.920  20.391   6.874
 4070POPC   C4B54370  17.716  20.411   7.208
 4071POPC   NC354371   0.613  20.627   5.373
 4071POPC   PO454372  44.938  20.531   5.305
 4071POPC   GL154373   0.190  20.616   5.710
 4071POPC   GL254374   0.288  20.981   5.842
 4071POPC   C1A54375   0.389  20.563   6.136
 4071POPC   D2A54376   0.336  20.766   6.545
 4071POPC   C3A54377   0.578  20.601   6.870
 4071POPC   C4A54378   0.559  20.330   7.190
 4071POPC   C1B54379   0.632  21.014   6.209
 4071POPC   C2B54380   0.694  21.102   6.653
 4071POPC   C3B54381   0.656  21.062   7.085
 4071POPC   C4B54382   0.228  20.902   7.078
 4072POPC   NC354383  17.055  31.981   5.610
 4072POPC   PO454384  16.652  32.566   5.635
 4072POPC   GL154385  16.864  32.406   5.896
 4072POPC   GL254386  17.043  32.709   5.950
 4072POPC   C1A54387  16.672  32.260   6.259
 4072POPC   D2A54388  16.410  32.108   6.579
 4072POPC   C3A54389  16.477  32.274   6.977
 4072POPC   C4A54390  16.554  32.115   7.366
 4072POPC   C1B54391  17.141  32.505   6.335
 4072POPC   C2B54392  16.895  32.409   6.701
 4072POPC   C3B54393  16.981  32.227   7.075
 4072POPC   C4B54394  17.044  32.248   7.490
 4073POPC   NC354395  34.421  33.007   5.325
 4073POPC   PO454396  34.900  32.730   5.575
 4073POPC   GL154397  34.721  33.088   5.757
 4073POPC   GL254398  34.415  32.966   5.871
 4073POPC   C1A54399  34.731  33.316   6.137
 4073POPC   D2A54400  34.939  33.289   6.542
 4073POPC   C3A54401  34.692  33.186   6.929
 4073POPC   C4A54402  34.411  33.330   7.318
 4073POPC   C1B54403  34.737  32.804   6.195
 4073POPC   C2B54404  34.871  32.735   6.608
 4073POPC   C3B54405  34.750  32.643   7.028
 4073POPC   C4B54406  34.407  32.858   7.198
 4074POPC   NC354407  22.557   5.085   5.420
 4074POPC   PO454408  23.194   4.740   5.512
 4074POPC   GL154409  22.924   4.978   5.819
 4074POPC   GL254410  23.175   5.172   6.029
 4074POPC   C1A54411  22.674   5.121   6.156
 4074POPC   D2A54412  22.625   4.935   6.549
 4074POPC   C3A54413  22.741   5.133   6.950
 4074POPC   C4A54414  22.715   5.250   7.382
 4074POPC   C1B54415  23.151   4.808   6.289
 4074POPC   C2B54416  23.143   4.806   6.737
 4074POPC   C3B54417  23.085   4.830   7.175
 4074POPC   C4B54418  23.198   4.518   7.498
 4075POPC   NC354419  15.068  34.249   5.440
 4075POPC   PO454420  15.277  34.890   5.365
 4075POPC   GL154421  15.316  34.612   5.725
 4075POPC   GL254422  15.674  34.515   5.755
 4075POPC   C1A54423  15.037  34.589   6.109
 4075POPC   D2A54424  14.808  34.704   6.519
 4075POPC   C3A54425  15.043  34.791   6.900
 4075POPC   C4A54426  15.040  34.643   7.323
 4075POPC   C1B54427  15.538  34.442   6.184
 4075POPC   C2B54428  15.254  34.414   6.559
 4075POPC   C3B54429  15.238  34.299   6.994
 4075POPC   C4B54430  15.383  34.261   7.411
 4076POPC   NC354431  20.926  44.875   5.240
 4076POPC   PO454432  20.427  44.428   5.275
 4076POPC   GL154433  20.474  44.608   5.649
 4076POPC   GL254434  20.822  44.596   5.679
 4076POPC   C1A54435  20.367  44.543   6.071
 4076POPC   D2A54436  20.548  44.631   6.475
 4076POPC   C3A54437  20.306  44.527   6.860
 4076POPC   C4A54438  20.323  44.579   7.284
 4076POPC   C1B54439  20.938  44.613   6.104
 4076POPC   C2B54440  21.049  44.581   6.554
 4076POPC   C3B54441  20.810  44.682   6.943
 4076POPC   C4B54442  21.020  44.563   7.315
 4077POPC   NC354443  38.712  30.972   5.543
 4077POPC   PO454444  38.124  30.635   5.346
 4077POPC   GL154445  38.380  30.541   5.696
 4077POPC   GL254446  38.364  30.848   5.867
 4077POPC   C1A54447  38.516  30.457   6.131
 4077POPC   D2A54448  38.580  30.340   6.551
 4077POPC   C3A54449  38.418  30.501   6.929
 4077POPC   C4A54450  38.804  30.643   7.134
 4077POPC   C1B54451  38.627  30.984   6.207
 4077POPC   C2B54452  38.689  30.869   6.637
 4077POPC   C3B54453  38.519  31.011   6.980
 4077POPC   C4B54454  38.676  31.218   7.273
 4078POPC   NC354455  10.302  15.143   5.237
 4078POPC   PO454456  10.927  14.856   5.468
 4078POPC   GL154457  10.577  15.138   5.735
 4078POPC   GL254458  10.208  15.273   5.727
 4078POPC   C1A54459  10.518  15.284   6.187
 4078POPC   D2A54460  10.843  15.318   6.545
 4078POPC   C3A54461  10.853  15.116   6.961
 4078POPC   C4A54462  10.704  15.229   7.342
 4078POPC   C1B54463  10.099  14.978   6.067
 4078POPC   C2B54464  10.293  14.909   6.486
 4078POPC   C3B54465  10.327  15.169   6.883
 4078POPC   C4B54466  10.240  15.047   7.315
 4079POPC   NC354467   7.238  32.742   5.449
 4079POPC   PO454468   7.090  33.392   5.253
 4079POPC   GL154469   7.249  33.286   5.693
 4079POPC   GL254470   7.057  33.046   5.841
 4079POPC   C1A54471   7.539  33.119   6.067
 4079POPC   D2A54472   7.702  33.078   6.505
 4079POPC   C3A54473   7.573  32.834   6.903
 4079POPC   C4A54474   7.505  32.896   7.382
 4079POPC   C1B54475   7.113  33.312   6.245
 4079POPC   C2B54476   7.264  33.302   6.689
 4079POPC   C3B54477   7.130  33.062   7.071
 4079POPC   C4B54478   7.109  33.127   7.551
 4080POPC   NC354479  11.867  23.428   5.715
 4080POPC   PO454480  12.395  23.762   5.448
 4080POPC   GL154481  12.266  23.696   5.843
 4080POPC   GL254482  12.402  23.357   5.870
 4080POPC   C1A54483  12.059  23.864   6.197
 4080POPC   D2A54484  11.890  24.090   6.506
 4080POPC   C3A54485  12.018  23.925   6.888
 4080POPC   C4A54486  11.766  23.853   7.165
 4080POPC   C1B54487  12.348  23.449   6.302
 4080POPC   C2B54488  12.004  23.501   6.609
 4080POPC   C3B54489  12.024  23.414   7.062
 4080POPC   C4B54490  12.257  23.341   7.460
 4081POPC   NC354491   5.836   5.838   5.311
 4081POPC   PO454492   6.191   6.160   5.777
 4081POPC   GL154493   5.837   5.970   5.910
 4081POPC   GL254494   5.808   5.646   5.778
 4081POPC   C1A54495   5.854   6.026   6.340
 4081POPC   D2A54496   5.641   6.077   6.696
 4081POPC   C3A54497   5.891   6.112   7.056
 4081POPC   C4A54498   5.683   5.988   7.443
 4081POPC   C1B54499   5.848   5.518   6.206
 4081POPC   C2B54500   6.059   5.630   6.593
 4081POPC   C3B54501   6.174   5.684   7.011
 4081POPC   C4B54502   5.962   5.565   7.370
 4082POPC   NC354503  35.849  18.601   5.389
 4082POPC   PO454504  35.232  18.258   5.327
 4082POPC   GL154505  35.252  18.296   5.764
 4082POPC   GL254506  35.328  17.939   5.824
 4082POPC   C1A54507  35.018  18.328   6.147
 4082POPC   D2A54508  34.907  18.275   6.573
 4082POPC   C3A54509  35.206  18.433   6.859
 4082POPC   C4A54510  35.215  18.435   7.281
 4082POPC   C1B54511  35.507  18.134   6.200
 4082POPC   C2B54512  35.424  18.047   6.621
 4082POPC   C3B54513  35.316  17.960   7.045
 4082POPC   C4B54514  35.572  17.987   7.399
 4083POPC   NC354515   9.042  41.434   4.975
 4083POPC   PO454516   8.793  41.134   5.583
 4083POPC   GL154517   9.008  41.392   5.950
 4083POPC   GL254518   9.100  41.720   5.831
 4083POPC   C1A54519   8.947  41.456   6.393
 4083POPC   D2A54520   8.594  41.483   6.664
 4083POPC   C3A54521   8.683  41.393   7.092
 4083POPC   C4A54522   9.100  41.360   7.285
 4083POPC   C1B54523   9.168  42.074   6.103
 4083POPC   C2B54524   9.026  41.966   6.519
 4083POPC   C3B54525   9.046  41.724   6.889
 4083POPC   C4B54526   8.896  41.845   7.285
 4084POPC   NC354527  17.000   4.578   5.388
 4084POPC   PO454528  16.358   4.292   5.535
 4084POPC   GL154529  16.755   4.483   5.835
 4084POPC   GL254530  16.981   4.203   6.034
 4084POPC   C1A54531  17.067   4.657   6.172
 4084POPC   D2A54532  17.035   4.415   6.552
 4084POPC   C3A54533  16.730   4.462   6.889
 4084POPC   C4A54534  16.899   4.242   7.237
 4084POPC   C1B54535  16.627   4.232   6.296
 4084POPC   C2B54536  16.592   4.021   6.655
 4084POPC   C3B54537  16.452   4.080   7.067
 4084POPC   C4B54538  16.390   4.356   7.407
 4085POPC   NC354539  10.317  31.214   5.570
 4085POPC   PO454540   9.727  31.647   5.524
 4085POPC   GL154541   9.643  31.337   5.840
 4085POPC   GL254542   9.951  31.230   5.998
 4085POPC   C1A54543   9.482  31.189   6.234
 4085POPC   D2A54544   9.682  31.071   6.624
 4085POPC   C3A54545   9.599  31.414   6.896
 4085POPC   C4A54546   9.450  31.463   7.296
 4085POPC   C1B54547   9.813  31.610   6.279
 4085POPC   C2B54548   9.901  31.788   6.721
 4085POPC   C3B54549   9.861  31.775   7.205
 4085POPC   C4B54550  10.075  31.803   7.675
 4086POPC   NC354551  37.070  12.654   5.427
 4086POPC   PO454552  36.826  13.297   5.336
 4086POPC   GL154553  36.797  13.149   5.740
 4086POPC   GL254554  36.602  12.839   5.699
 4086POPC   C1A54555  36.793  13.271   6.182
 4086POPC   D2A54556  36.605  13.161   6.576
 4086POPC   C3A54557  36.877  13.153   6.949
 4086POPC   C4A54558  36.768  13.057   7.409
 4086POPC   C1B54559  36.800  12.756   6.135
 4086POPC   C2B54560  36.973  12.806   6.580
 4086POPC   C3B54561  36.924  12.654   7.035
 4086POPC   C4B54562  36.666  12.306   7.182
 4087POPC   NC354563  42.261  33.191   5.271
 4087POPC   PO454564  41.995  32.614   5.461
 4087POPC   GL154565  42.030  32.980   5.761
 4087POPC   GL254566  41.735  33.202   5.703
 4087POPC   C1A54567  42.180  32.946   6.225
 4087POPC   D2A54568  42.102  32.715   6.628
 4087POPC   C3A54569  42.251  32.833   7.052
 4087POPC   C4A54570  42.499  33.185   7.216
 4087POPC   C1B54571  41.853  33.310   6.154
 4087POPC   C2B54572  42.003  33.278   6.629
 4087POPC   C3B54573  42.021  33.391   7.092
 4087POPC   C4B54574  42.193  33.434   7.545
 4088POPC   NC354575  15.578  25.962   5.326
 4088POPC   PO454576  14.904  25.794   5.463
 4088POPC   GL154577  15.122  25.836   5.849
 4088POPC   GL254578  15.318  26.107   5.784
 4088POPC   C1A54579  15.387  25.828   6.242
 4088POPC   D2A54580  15.273  26.062   6.630
 4088POPC   C3A54581  15.382  25.846   6.994
 4088POPC   C4A54582  15.178  25.632   7.334
 4088POPC   C1B54583  15.388  26.328   6.191
 4088POPC   C2B54584  15.554  26.484   6.608
 4088POPC   C3B54585  15.477  26.361   7.044
 4088POPC   C4B54586  15.440  26.162   7.477
 4089POPC   NC354587  13.170  34.793   5.372
 4089POPC   PO454588  12.997  34.163   5.386
 4089POPC   GL154589  12.987  34.452   5.763
 4089POPC   GL254590  12.754  34.765   5.788
 4089POPC   C1A54591  12.873  34.383   6.201
 4089POPC   D2A54592  12.550  34.223   6.470
 4089POPC   C3A54593  12.717  34.141   6.841
 4089POPC   C4A54594  12.827  34.371   7.129
 4089POPC   C1B54595  12.828  34.887   6.248
 4089POPC   C2B54596  12.907  34.640   6.653
 4089POPC   C3B54597  13.024  34.817   7.049
 4089POPC   C4B54598  12.838  35.018   7.384
 4090POPC   NC354599  11.845  20.246   5.517
 4090POPC   PO454600  12.274  19.664   5.564
 4090POPC   GL154601  12.073  19.871   5.867
 4090POPC   GL254602  12.232  20.196   5.859
 4090POPC   C1A54603  12.086  19.691   6.275
 4090POPC   D2A54604  12.244  19.627   6.686
 4090POPC   C3A54605  11.888  19.675   6.957
 4090POPC   C4A54606  11.664  20.048   7.022
 4090POPC   C1B54607  12.117  20.202   6.307
 4090POPC   C2B54608  12.104  20.148   6.767
 4090POPC   C3B54609  12.274  19.955   7.129
 4090POPC   C4B54610  12.325  19.909   7.611
 4091POPC   NC354611  36.934  16.156   5.021
 4091POPC   PO454612  37.188  16.089   5.594
 4091POPC   GL154613  37.105  16.005   5.974
 4091POPC   GL254614  37.470  15.906   6.005
 4091POPC   C1A54615  36.835  16.118   6.310
 4091POPC   D2A54616  36.904  16.058   6.734
 4091POPC   C3A54617  36.779  16.260   7.075
 4091POPC   C4A54618  36.649  15.895   7.308
 4091POPC   C1B54619  37.288  15.609   6.241
 4091POPC   C2B54620  37.089  15.611   6.567
 4091POPC   C3B54621  37.269  15.747   6.919
 4091POPC   C4B54622  37.197  16.004   7.205
 4092POPC   NC354623  33.351  21.299   5.460
 4092POPC   PO454624  32.759  21.124   5.535
 4092POPC   GL154625  33.024  21.198   5.909
 4092POPC   GL254626  32.803  21.045   6.166
 4092POPC   C1A54627  33.262  21.278   6.321
 4092POPC   D2A54628  33.275  21.505   6.739
 4092POPC   C3A54629  33.200  21.333   7.168
 4092POPC   C4A54630  32.926  21.143   7.496
 4092POPC   C1B54631  32.784  21.482   6.306
 4092POPC   C2B54632  32.818  21.753   6.675
 4092POPC   C3B54633  32.988  21.802   7.091
 4092POPC   C4B54634  33.179  22.034   7.409
 4093POPC   NC354635  33.893   7.234   5.395
 4093POPC   PO454636  33.449   7.726   5.515
 4093POPC   GL154637  33.631   7.476   5.846
 4093POPC   GL254638  34.005   7.382   5.873
 4093POPC   C1A54639  33.637   7.366   6.263
 4093POPC   D2A54640  33.920   7.211   6.561
 4093POPC   C3A54641  33.689   7.167   6.937
 4093POPC   C4A54642  33.482   7.281   7.292
 4093POPC   C1B54643  34.082   7.649   6.234
 4093POPC   C2B54644  34.181   7.648   6.673
 4093POPC   C3B54645  34.173   7.343   7.012
 4093POPC   C4B54646  33.970   7.422   7.373
 4094POPC   NC354647  32.991  28.198   5.412
 4094POPC   PO454648  32.642  28.815   5.356
 4094POPC   GL154649  32.998  28.745   5.700
 4094POPC   GL254650  33.298  28.480   5.710
 4094POPC   C1A54651  33.033  28.621   6.162
 4094POPC   D2A54652  33.023  28.789   6.615
 4094POPC   C3A54653  33.003  28.477   6.936
 4094POPC   C4A54654  32.662  28.220   7.095
 4094POPC   C1B54655  33.344  28.162   6.106
 4094POPC   C2B54656  33.211  28.065   6.593
 4094POPC   C3B54657  33.342  28.123   7.046
 4094POPC   C4B54658  33.248  28.344   7.453
 4095POPC   NC354659   8.279  23.836   5.185
 4095POPC   PO454660   7.937  23.479   5.469
 4095POPC   GL154661   8.311  23.388   5.708
 4095POPC   GL254662   8.387  23.722   5.802
 4095POPC   C1A54663   8.485  23.346   6.122
 4095POPC   D2A54664   8.302  23.305   6.524
 4095POPC   C3A54665   8.387  23.541   6.940
 4095POPC   C4A54666   8.336  23.658   7.368
 4095POPC   C1B54667   8.089  23.663   6.202
 4095POPC   C2B54668   7.974  23.694   6.688
 4095POPC   C3B54669   7.964  23.916   7.132
 4095POPC   C4B54670   7.643  24.088   7.438
 4096POPC   NC354671  40.580   2.244   5.546
 4096POPC   PO454672  40.711   1.586   5.560
 4096POPC   GL154673  40.947   1.796   5.891
 4096POPC   GL254674  40.941   2.178   5.928
 4096POPC   C1A54675  40.978   1.803   6.342
 4096POPC   D2A54676  40.906   1.522   6.707
 4096POPC   C3A54677  40.673   1.763   6.965
 4096POPC   C4A54678  40.660   1.794   7.370
 4096POPC   C1B54679  40.570   2.228   6.231
 4096POPC   C2B54680  40.435   2.286   6.680
 4096POPC   C3B54681  40.573   2.271   7.129
 4096POPC   C4B54682  40.957   2.187   7.367
 4097POPC   NC354683  34.903  31.429   5.483
 4097POPC   PO454684  35.506  31.315   5.203
 4097POPC   GL154685  35.353  31.322   5.691
 4097POPC   GL254686  35.424  31.712   5.765
 4097POPC   C1A54687  35.229  31.469   6.153
 4097POPC   D2A54688  35.455  31.426   6.567
 4097POPC   C3A54689  35.233  31.464   6.977
 4097POPC   C4A54690  35.049  31.350   7.420
 4097POPC   C1B54691  35.693  31.750   6.198
 4097POPC   C2B54692  35.818  31.794   6.658
 4097POPC   C3B54693  35.727  31.621   7.053
 4097POPC   C4B54694  35.546  31.363   7.382
 4098POPC   NC354695  24.172  14.556   5.457
 4098POPC   PO454696  24.815  14.619   5.479
 4098POPC   GL154697  24.737  14.393   5.881
 4098POPC   GL254698  24.397  14.510   5.921
 4098POPC   C1A54699  24.577  14.299   6.335
 4098POPC   D2A54700  24.426  14.648   6.594
 4098POPC   C3A54701  24.467  14.580   7.041
 4098POPC   C4A54702  24.803  14.424   7.335
 4098POPC   C1B54703  24.076  14.418   6.259
 4098POPC   C2B54704  24.004  14.387   6.716
 4098POPC   C3B54705  23.938  14.612   7.105
 4098POPC   C4B54706  23.785  14.537   7.529
 4099POPC   NC354707  28.665  15.277   5.294
 4099POPC   PO454708  29.250  15.235   5.340
 4099POPC   GL154709  29.046  15.226   5.702
 4099POPC   GL254710  29.178  15.436   5.854
 4099POPC   C1A54711  29.011  15.049   6.126
 4099POPC   D2A54712  29.182  15.037   6.531
 4099POPC   C3A54713  28.992  14.929   6.931
 4099POPC   C4A54714  29.250  14.856   7.295
 4099POPC   C1B54715  29.360  15.625   6.179
 4099POPC   C2B54716  29.427  15.492   6.582
 4099POPC   C3B54717  29.344  15.295   6.963
 4099POPC   C4B54718  29.053  15.311   7.318
 4100POPC   NC354719  39.619   8.318   5.376
 4100POPC   PO454720  40.189   7.964   5.451
 4100POPC   GL154721  40.251   8.238   5.783
 4100POPC   GL254722  39.909   8.324   5.818
 4100POPC   C1A54723  40.188   8.200   6.215
 4100POPC   D2A54724  40.041   8.283   6.590
 4100POPC   C3A54725  40.104   8.021   6.916
 4100POPC   C4A54726  40.045   8.226   7.286
 4100POPC   C1B54727  39.678   8.153   6.225
 4100POPC   C2B54728  39.633   8.005   6.656
 4100POPC   C3B54729  39.616   8.050   7.086
 4100POPC   C4B54730  39.612   8.013   7.529
 4101POPC   NC354731  41.884  40.455   5.280
 4101POPC   PO454732  41.456  39.868   5.329
 4101POPC   GL154733  41.323  39.926   5.780
 4101POPC   GL254734  41.397  40.269   5.864
 4101POPC   C1A54735  41.441  39.941   6.249
 4101POPC   D2A54736  41.237  39.974   6.657
 4101POPC   C3A54737  41.425  39.800   7.071
 4101POPC   C4A54738  41.652  39.749   7.492
 4101POPC   C1B54739  41.127  40.334   6.248
 4101POPC   C2B54740  40.944  40.441   6.663
 4101POPC   C3B54741  41.163  40.291   7.042
 4101POPC   C4B54742  41.388  40.202   7.442
 4102POPC   NC354743  41.021  11.590   5.328
 4102POPC   PO454744  40.395  11.160   5.473
 4102POPC   GL154745  40.762  11.236   5.769
 4102POPC   GL254746  40.891  11.583   5.821
 4102POPC   C1A54747  40.971  11.051   6.157
 4102POPC   D2A54748  40.914  10.819   6.567
 4102POPC   C3A54749  40.887  11.118   6.876
 4102POPC   C4A54750  40.923  11.217   7.312
 4102POPC   C1B54751  41.045  11.790   6.175
 4102POPC   C2B54752  41.065  11.550   6.563
 4102POPC   C3B54753  40.958  11.615   6.987
 4102POPC   C4B54754  41.044  11.849   7.315
 4103POPC   NC354755  17.157  22.301   5.394
 4103POPC   PO454756  17.745  21.891   5.305
 4103POPC   GL154757  17.598  22.111   5.683
 4103POPC   GL254758  17.850  22.321   5.769
 4103POPC   C1A54759  17.366  22.287   6.065
 4103POPC   D2A54760  17.219  22.071   6.459
 4103POPC   C3A54761  17.337  22.231   6.897
 4103POPC   C4A54762  17.159  22.205   7.323
 4103POPC   C1B54763  17.878  22.241   6.152
 4103POPC   C2B54764  17.712  22.191   6.535
 4103POPC   C3B54765  17.826  22.063   6.952
 4103POPC   C4B54766  17.691  22.118   7.415
 4104POPC   NC354767  32.355  18.829   5.283
 4104POPC   PO454768  32.502  18.159   5.369
 4104POPC   GL154769  32.333  18.392   5.708
 4104POPC   GL254770  32.466  18.724   5.773
 4104POPC   C1A54771  32.233  18.226   6.104
 4104POPC   D2A54772  32.230  18.005   6.454
 4104POPC   C3A54773  32.161  18.229   6.837
 4104POPC   C4A54774  32.107  18.338   7.245
 4104POPC   C1B54775  32.582  18.608   6.164
 4104POPC   C2B54776  32.541  18.419   6.536
 4104POPC   C3B54777  32.609  18.490   6.959
 4104POPC   C4B54778  32.344  18.774   7.119
 4105POPC   NC354779  18.783  27.978   5.471
 4105POPC   PO454780  18.787  28.684   5.507
 4105POPC   GL154781  18.474  28.292   5.752
 4105POPC   GL254782  18.085  28.313   5.777
 4105POPC   C1A54783  18.324  28.164   6.181
 4105POPC   D2A54784  17.997  28.131   6.505
 4105POPC   C3A54785  18.173  28.166   6.916
 4105POPC   C4A54786  18.198  28.022   7.328
 4105POPC   C1B54787  18.040  28.589   6.192
 4105POPC   C2B54788  17.964  28.623   6.674
 4105POPC   C3B54789  17.968  28.584   7.151
 4105POPC   C4B54790  18.283  28.549   7.499
 4106POPC   NC354791  40.244  29.621   5.494
 4106POPC   PO454792  39.806  30.151   5.437
 4106POPC   GL154793  39.835  29.818   5.757
 4106POPC   GL254794  39.854  30.076   5.974
 4106POPC   C1A54795  40.032  29.643   6.150
 4106POPC   D2A54796  40.222  29.755   6.546
 4106POPC   C3A54797  39.970  29.852   6.872
 4106POPC   C4A54798  40.161  29.779   7.245
 4106POPC   C1B54799  40.182  30.191   6.255
 4106POPC   C2B54800  40.226  30.341   6.679
 4106POPC   C3B54801  40.125  30.285   7.110
 4106POPC   C4B54802  39.984  30.553   7.466
 4107POPC   NC354803  21.229  10.965   5.699
 4107POPC   PO454804  21.278  10.407   5.258
 4107POPC   GL154805  21.478  10.378   5.674
 4107POPC   GL254806  21.177  10.441   5.832
 4107POPC   C1A54807  21.567  10.330   6.152
 4107POPC   D2A54808  21.658  10.502   6.577
 4107POPC   C3A54809  21.479  10.436   6.973
 4107POPC   C4A54810  21.476  10.589   7.382
 4107POPC   C1B54811  21.134  10.621   6.274
 4107POPC   C2B54812  21.036  10.461   6.682
 4107POPC   C3B54813  20.995  10.375   7.121
 4107POPC   C4B54814  20.978  10.595   7.517
 4108POPC   NC354815  38.262  17.238   5.418
 4108POPC   PO454816  38.544  17.816   5.469
 4108POPC   GL154817  38.456  17.514   5.829
 4108POPC   GL254818  38.099  17.411   5.868
 4108POPC   C1A54819  38.607  17.343   6.249
 4108POPC   D2A54820  38.785  17.422   6.674
 4108POPC   C3A54821  38.599  17.416   7.050
 4108POPC   C4A54822  38.261  17.651   7.210
 4108POPC   C1B54823  38.091  17.463   6.298
 4108POPC   C2B54824  38.220  17.438   6.705
 4108POPC   C3B54825  38.034  17.236   7.024
 4108POPC   C4B54826  37.737  17.522   7.170
 4109POPC   NC354827  11.768  25.488   5.408
 4109POPC   PO454828  11.133  25.613   5.294
 4109POPC   GL154829  11.197  25.316   5.673
 4109POPC   GL254830  11.503  25.191   5.734
 4109POPC   C1A54831  11.024  25.165   6.075
 4109POPC   D2A54832  11.166  25.213   6.496
 4109POPC   C3A54833  11.001  25.076   6.874
 4109POPC   C4A54834  11.012  25.022   7.283
 4109POPC   C1B54835  11.563  25.185   6.179
 4109POPC   C2B54836  11.663  25.254   6.609
 4109POPC   C3B54837  11.497  25.110   7.011
 4109POPC   C4B54838  11.665  25.112   7.396
 4110POPC   NC354839  37.955  37.708   5.396
 4110POPC   PO454840  37.431  37.242   5.335
 4110POPC   GL154841  37.628  37.440   5.676
 4110POPC   GL254842  37.356  37.542   5.833
 4110POPC   C1A54843  37.820  37.693   6.059
 4110POPC   D2A54844  37.801  37.633   6.546
 4110POPC   C3A54845  38.018  37.565   6.968
 4110POPC   C4A54846  37.877  37.753   7.362
 4110POPC   C1B54847  37.373  37.626   6.278
 4110POPC   C2B54848  37.285  37.788   6.680
 4110POPC   C3B54849  37.466  37.860   7.072
 4110POPC   C4B54850  37.380  37.714   7.474
 4111POPC   NC354851  37.758  43.403   5.221
 4111POPC   PO454852  37.787  42.814   5.481
 4111POPC   GL154853  37.979  42.946   5.842
 4111POPC   GL254854  37.603  43.054   5.891
 4111POPC   C1A54855  37.880  42.931   6.295
 4111POPC   D2A54856  37.542  43.068   6.612
 4111POPC   C3A54857  37.624  43.070   7.059
 4111POPC   C4A54858  37.868  43.389   7.247
 4111POPC   C1B54859  37.580  43.376   6.215
 4111POPC   C2B54860  37.299  43.556   6.539
 4111POPC   C3B54861  37.314  43.693   6.935
 4111POPC   C4B54862  37.355  43.479   7.320
 4112POPC   NC354863  42.481  31.639   5.371
 4112POPC   PO454864  41.983  31.244   5.272
 4112POPC   GL154865  42.171  31.418   5.683
 4112POPC   GL254866  42.488  31.293   5.800
 4112POPC   C1A54867  42.133  31.538   6.133
 4112POPC   D2A54868  41.934  31.568   6.553
 4112POPC   C3A54869  42.051  31.418   6.958
 4112POPC   C4A54870  42.085  31.607   7.361
 4112POPC   C1B54871  42.610  31.413   6.240
 4112POPC   C2B54872  42.467  31.787   6.501
 4112POPC   C3B54873  42.388  31.896   6.957
 4112POPC   C4B54874  42.559  31.706   7.350
 4113POPC   NC354875  41.145  41.891   5.369
 4113POPC   PO454876  41.663  41.472   5.230
 4113POPC   GL154877  41.678  41.645   5.666
 4113POPC   GL254878  41.349  41.603   5.794
 4113POPC   C1A54879  41.716  41.554   6.137
 4113POPC   D2A54880  41.882  41.780   6.470
 4113POPC   C3A54881  41.630  41.879   6.839
 4113POPC   C4A54882  41.457  41.621   7.149
 4113POPC   C1B54883  41.227  41.495   6.245
 4113POPC   C2B54884  41.201  41.569   6.689
 4113POPC   C3B54885  41.088  41.322   7.057
 4113POPC   C4B54886  40.977  41.471   7.519
 4114POPC   NC354887  36.430   3.438   5.269
 4114POPC   PO454888  35.693   3.494   5.309
 4114POPC   GL154889  35.910   3.531   5.723
 4114POPC   GL254890  36.272   3.405   5.780
 4114POPC   C1A54891  36.001   3.633   6.169
 4114POPC   D2A54892  36.213   3.632   6.571
 4114POPC   C3A54893  36.029   3.672   6.968
 4114POPC   C4A54894  35.950   3.608   7.391
 4114POPC   C1B54895  36.516   3.644   6.111
 4114POPC   C2B54896  36.616   3.905   6.495
 4114POPC   C3B54897  36.544   3.762   6.943
 4114POPC   C4B54898  36.449   3.496   7.314
 4115POPC   NC354899  21.824   6.553   5.374
 4115POPC   PO454900  22.285   7.055   5.439
 4115POPC   GL154901  22.440   6.884   5.830
 4115POPC   GL254902  22.481   6.502   5.810
 4115POPC   C1A54903  22.262   6.876   6.261
 4115POPC   D2A54904  22.021   6.772   6.662
 4115POPC   C3A54905  22.072   6.986   7.078
 4115POPC   C4A54906  22.256   6.894   7.498
 4115POPC   C1B54907  22.265   6.342   6.214
 4115POPC   C2B54908  22.229   6.268   6.682
 4115POPC   C3B54909  22.194   6.459   7.101
 4115POPC   C4B54910  22.084   6.368   7.527
 4116POPC   NC354911  40.523  35.194   5.409
 4116POPC   PO454912  40.911  35.726   5.648
 4116POPC   GL154913  40.617  35.460   5.896
 4116POPC   GL254914  40.698  35.105   5.875
 4116POPC   C1A54915  40.606  35.316   6.353
 4116POPC   D2A54916  40.781  35.182   6.771
 4116POPC   C3A54917  40.812  35.480   7.131
 4116POPC   C4A54918  40.679  35.763   7.464
 4116POPC   C1B54919  40.420  34.859   6.116
 4116POPC   C2B54920  40.260  34.786   6.494
 4116POPC   C3B54921  40.462  34.788   6.870
 4116POPC   C4B54922  40.500  35.075   7.207
 4117POPC   NC354923   8.471  21.600   5.609
 4117POPC   PO454924   7.884  21.857   5.415
 4117POPC   GL154925   7.956  21.605   5.793
 4117POPC   GL254926   8.101  21.287   5.761
 4117POPC   C1A54927   8.049  21.522   6.229
 4117POPC   D2A54928   8.314  21.450   6.597
 4117POPC   C3A54929   8.112  21.427   7.016
 4117POPC   C4A54930   8.122  21.562   7.464
 4117POPC   C1B54931   8.352  21.104   6.126
 4117POPC   C2B54932   8.398  20.916   6.547
 4117POPC   C3B54933   8.491  21.091   6.938
 4117POPC   C4B54934   8.397  21.107   7.357
 4118POPC   NC354935  11.895  27.076   5.462
 4118POPC   PO454936  12.419  26.606   5.342
 4118POPC   GL154937  12.208  26.761   5.744
 4118POPC   GL254938  11.937  26.545   5.750
 4118POPC   C1A54939  11.974  26.990   6.130
 4118POPC   D2A54940  11.979  26.844   6.579
 4118POPC   C3A54941  11.836  27.057   6.949
 4118POPC   C4A54942  11.946  27.166   7.389
 4118POPC   C1B54943  12.054  26.490   6.187
 4118POPC   C2B54944  11.753  26.376   6.530
 4118POPC   C3B54945  11.695  26.563   6.914
 4118POPC   C4B54946  11.920  26.669   7.275
 4119POPC   NC354947   8.276   4.732   5.436
 4119POPC   PO454948   7.981   5.302   5.282
 4119POPC   GL154949   7.987   5.132   5.725
 4119POPC   GL254950   8.319   4.989   5.891
 4119POPC   C1A54951   7.863   5.091   6.170
 4119POPC   D2A54952   8.174   4.996   6.495
 4119POPC   C3A54953   8.216   5.044   6.951
 4119POPC   C4A54954   8.574   5.035   7.218
 4119POPC   C1B54955   8.073   4.641   6.107
 4119POPC   C2B54956   7.800   4.643   6.450
 4119POPC   C3B54957   7.867   4.653   6.899
 4119POPC   C4B54958   8.133   4.507   7.219
 4120POPC   NC354959  26.212  18.659   5.348
 4120POPC   PO454960  25.938  19.281   5.434
 4120POPC   GL154961  25.876  19.079   5.822
 4120POPC   GL254962  26.177  18.928   5.772
 4120POPC   C1A54963  26.061  19.165   6.234
 4120POPC   D2A54964  26.092  19.076   6.655
 4120POPC   C3A54965  25.996  19.346   6.963
 4120POPC   C4A54966  25.870  19.107   7.301
 4120POPC   C1B54967  26.406  18.707   6.089
 4120POPC   C2B54968  26.326  18.624   6.519
 4120POPC   C3B54969  26.502  18.835   6.864
 4120POPC   C4B54970  26.361  19.040   7.194
 4121POPC   NC354971  13.395  11.152   5.367
 4121POPC   PO454972  13.943  11.551   5.382
 4121POPC   GL154973  13.610  11.521   5.667
 4121POPC   GL254974  13.424  11.796   5.772
 4121POPC   C1A54975  13.565  11.349   6.073
 4121POPC   D2A54976  13.758  11.319   6.468
 4121POPC   C3A54977  13.502  11.165   6.794
 4121POPC   C4A54978  13.574  11.125   7.205
 4121POPC   C1B54979  13.782  11.821   6.110
 4121POPC   C2B54980  13.770  11.822   6.583
 4121POPC   C3B54981  13.602  11.635   6.960
 4121POPC   C4B54982  13.785  11.545   7.375
 4122POPC   NC354983   8.942  10.065   5.473
 4122POPC   PO454984   8.783  10.745   5.454
 4122POPC   GL154985   8.776  10.489   5.756
 4122POPC   GL254986   9.107  10.377   5.819
 4122POPC   C1A54987   8.748  10.524   6.180
 4122POPC   D2A54988   8.859  10.700   6.580
 4122POPC   C3A54989   8.646  10.478   6.917
 4122POPC   C4A54990   8.734  10.521   7.362
 4122POPC   C1B54991   9.240  10.410   6.231
 4122POPC   C2B54992   9.246  10.233   6.643
 4122POPC   C3B54993   9.393  10.251   7.041
 4122POPC   C4B54994   9.244  10.562   7.304
 4123POPC   NC354995   7.296  22.412   5.376
 4123POPC   PO454996   7.093  21.785   5.525
 4123POPC   GL154997   7.301  22.132   5.803
 4123POPC   GL254998   7.653  22.204   5.726
 4123POPC   C1A54999   7.388  22.312   6.212
 4123POPC   D2A55000   7.512  22.069   6.582
 4123POPC   C3A55001   7.395  22.240   6.949
 4123POPC   C4A55002   7.272  22.108   7.316
 4123POPC   C1B55003   7.749  21.939   6.133
 4123POPC   C2B55004   8.000  21.924   6.548
 4123POPC   C3B55005   7.850  21.894   6.976
 4123POPC   C4B55006   7.829  22.214   7.275
 4124POPC   NC355007  35.101  33.104   5.418
 4124POPC   PO455008  35.773  33.120   5.281
 4124POPC   GL155009  35.556  33.169   5.693
 4124POPC   GL255010  35.424  32.845   5.716
 4124POPC   C1A55011  35.302  33.174   6.105
 4124POPC   D2A55012  35.343  32.968   6.522
 4124POPC   C3A55013  35.255  33.178   6.959
 4124POPC   C4A55014  35.400  33.182   7.422
 4124POPC   C1B55015  35.696  32.782   6.062
 4124POPC   C2B55016  35.801  32.727   6.501
 4124POPC   C3B55017  35.713  32.912   6.898
 4124POPC   C4B55018  35.623  32.717   7.280
 4125POPC   NC355019  44.281  20.075   5.420
 4125POPC   PO455020  43.689  19.723   5.638
 4125POPC   GL155021  43.942  19.960   5.794
 4125POPC   GL255022  44.181  19.731   5.785
 4125POPC   C1A55023  44.109  20.044   6.194
 4125POPC   D2A55024  44.032  19.803   6.552
 4125POPC   C3A55025  44.059  20.036   6.938
 4125POPC   C4A55026  43.835  20.050   7.288
 4125POPC   C1B55027  44.280  19.498   6.143
 4125POPC   C2B55028  44.324  19.329   6.552
 4125POPC   C3B55029  44.223  19.546   6.945
 4125POPC   C4B55030  44.057  19.568   7.337
 4126POPC   NC355031  39.137  10.885   5.498
 4126POPC   PO455032  38.711  11.426   5.574
 4126POPC   GL155033  39.093  11.304   5.850
 4126POPC   GL255034  39.127  10.961   5.988
 4126POPC   C1A55035  39.473  11.292   6.171
 4126POPC   D2A55036  39.631  11.032   6.543
 4126POPC   C3A55037  39.378  11.093   6.889
 4126POPC   C4A55038  39.201  11.226   7.258
 4126POPC   C1B55039  39.109  11.022   6.438
 4126POPC   C2B55040  38.875  11.095   6.814
 4126POPC   C3B55041  38.736  10.984   7.206
 4126POPC   C4B55042  38.979  10.979   7.618
 4127POPC   NC355043   9.961  41.909   5.326
 4127POPC   PO455044   9.562  42.378   5.244
 4127POPC   GL155045   9.677  42.399   5.710
 4127POPC   GL255046   9.833  42.100   5.906
 4127POPC   C1A55047   9.629  42.510   6.167
 4127POPC   D2A55048   9.793  42.676   6.598
 4127POPC   C3A55049   9.648  42.572   7.057
 4127POPC   C4A55050   9.676  42.249   7.401
 4127POPC   C1B55051   9.730  42.044   6.384
 4127POPC   C2B55052   9.814  42.084   6.866
 4127POPC   C3B55053  10.026  41.918   7.242
 4127POPC   C4B55054  10.246  42.067   7.621
 4128POPC   NC355055  36.071   0.081   5.461
 4128POPC   PO455056  36.233   0.722   5.425
 4128POPC   GL155057  36.262   0.698   5.834
 4128POPC   GL255058  36.181   0.395   5.871
 4128POPC   C1A55059  36.004   0.798   6.161
 4128POPC   D2A55060  35.819   0.754   6.557
 4128POPC   C3A55061  36.040   0.780   6.921
 4128POPC   C4A55062  36.246   0.510   7.184
 4128POPC   C1B55063  36.029   0.326   6.317
 4128POPC   C2B55064  35.937   0.109   6.697
 4128POPC   C3B55065  35.678   0.360   6.933
 4128POPC   C4B55066  35.683   0.628   7.262
 4129POPC   NC355067  37.716  41.700   5.491
 4129POPC   PO455068  37.759  41.145   5.789
 4129POPC   GL155069  37.857  41.582   5.961
 4129POPC   GL255070  37.521  41.808   5.968
 4129POPC   C1A55071  37.876  41.825   6.332
 4129POPC   D2A55072  37.649  41.907   6.695
 4129POPC   C3A55073  37.780  41.775   7.079
 4129POPC   C4A55074  37.850  41.504   7.455
 4129POPC   C1B55075  37.241  41.836   6.368
 4129POPC   C2B55076  37.163  41.735   6.839
 4129POPC   C3B55077  37.360  41.565   7.240
 4129POPC   C4B55078  37.531  41.906   7.531
 4130POPC   NC355079  10.909  40.853   5.469
 4130POPC   PO455080  10.223  40.859   5.322
 4130POPC   GL155081  10.373  40.658   5.714
 4130POPC   GL255082  10.445  40.962   5.836
 4130POPC   C1A55083  10.689  40.561   6.082
 4130POPC   D2A55084  10.829  40.637   6.542
 4130POPC   C3A55085  10.476  40.717   6.817
 4130POPC   C4A55086  10.300  40.477   7.159
 4130POPC   C1B55087  10.480  40.987   6.290
 4130POPC   C2B55088  10.738  41.130   6.616
 4130POPC   C3B55089  10.950  40.954   6.960
 4130POPC   C4B55090  10.801  40.620   7.216
 4131POPC   NC355091  34.183   9.331   5.006
 4131POPC   PO455092  34.646   9.049   5.382
 4131POPC   GL155093  34.587   8.798   5.751
 4131POPC   GL255094  34.913   8.649   5.795
 4131POPC   C1A55095  34.356   8.993   6.154
 4131POPC   D2A55096  34.527   9.265   6.433
 4131POPC   C3A55097  34.398   9.175   6.858
 4131POPC   C4A55098  34.531   9.177   7.284
 4131POPC   C1B55099  34.850   8.883   6.186
 4131POPC   C2B55100  34.714   8.822   6.580
 4131POPC   C3B55101  34.856   8.960   6.961
 4131POPC   C4B55102  34.799   8.738   7.344
 4132POPC   NC355103  40.533   8.339   5.361
 4132POPC   PO455104  41.082   8.092   5.609
 4132POPC   GL155105  40.824   8.250   5.883
 4132POPC   GL255106  40.696   8.538   5.789
 4132POPC   C1A55107  40.650   8.012   6.204
 4132POPC   D2A55108  40.395   7.806   6.524
 4132POPC   C3A55109  40.596   7.867   6.914
 4132POPC   C4A55110  40.915   8.107   7.105
 4132POPC   C1B55111  40.546   8.555   6.196
 4132POPC   C2B55112  40.538   8.327   6.597
 4132POPC   C3B55113  40.451   8.398   7.014
 4132POPC   C4B55114  40.775   8.592   7.203
 4133POPC   NC355115  22.688   6.055   5.453
 4133POPC   PO455116  23.057   5.445   5.239
 4133POPC   GL155117  22.929   5.522   5.730
 4133POPC   GL255118  22.954   5.890   5.843
 4133POPC   C1A55119  22.952   5.582   6.228
 4133POPC   D2A55120  23.016   5.930   6.524
 4133POPC   C3A55121  23.068   5.851   6.958
 4133POPC   C4A55122  23.128   5.452   7.153
 4133POPC   C1B55123  22.715   6.118   6.156
 4133POPC   C2B55124  22.728   6.348   6.564
 4133POPC   C3B55125  22.684   6.277   6.994
 4133POPC   C4B55126  22.924   6.171   7.352
 4134POPC   NC355127   5.517  23.898   5.354
 4134POPC   PO455128   5.955  23.605   5.374
 4134POPC   GL155129   5.846  23.714   5.833
 4134POPC   GL255130   5.555  23.961   5.865
 4134POPC   C1A55131   6.049  23.629   6.277
 4134POPC   D2A55132   6.277  23.801   6.645
 4134POPC   C3A55133   6.109  23.763   7.070
 4134POPC   C4A55134   5.779  24.064   7.258
 4134POPC   C1B55135   5.563  23.793   6.306
 4134POPC   C2B55136   5.739  23.836   6.735
 4134POPC   C3B55137   5.626  23.600   7.136
 4134POPC   C4B55138   5.649  23.679   7.616
 4135POPC   NC355139   0.589  31.738   5.478
 4135POPC   PO455140   0.256  31.116   5.404
 4135POPC   GL155141   0.411  31.348   5.777
 4135POPC   GL255142   0.193  31.654   5.818
 4135POPC   C1A55143   0.442  31.439   6.249
 4135POPC   D2A55144   0.313  31.616   6.665
 4135POPC   C3A55145   0.569  31.488   7.042
 4135POPC   C4A55146   0.572  31.472   7.503
 4135POPC   C1B55147  44.981  31.306   6.084
 4135POPC   C2B55148   0.103  31.154   6.522
 4135POPC   C3B55149   0.003  31.317   6.933
 4135POPC   C4B55150   0.112  31.300   7.350
 4136POPC   NC355151  14.535  10.782   5.338
 4136POPC   PO455152  14.082  10.345   5.383
 4136POPC   GL155153  14.393  10.444   5.776
 4136POPC   GL255154  14.437  10.784   5.909
 4136POPC   C1A55155  14.641  10.396   6.206
 4136POPC   D2A55156  14.759  10.669   6.588
 4136POPC   C3A55157  14.680  10.555   7.026
 4136POPC   C4A55158  14.540  10.324   7.421
 4136POPC   C1B55159  14.201  10.621   6.289
 4136POPC   C2B55160  14.247  10.550   6.721
 4136POPC   C3B55161  14.256  10.815   7.072
 4136POPC   C4B55162  14.067  11.111   7.298
 4137POPC   NC355163  22.854   7.933   5.554
 4137POPC   PO455164  23.069   7.313   5.273
 4137POPC   GL155165  22.936   7.393   5.723
 4137POPC   GL255166  23.113   7.671   5.910
 4137POPC   C1A55167  22.956   7.159   6.131
 4137POPC   D2A55168  22.737   7.129   6.573
 4137POPC   C3A55169  22.900   7.246   7.005
 4137POPC   C4A55170  22.693   7.192   7.428
 4137POPC   C1B55171  22.943   7.624   6.320
 4137POPC   C2B55172  23.081   7.690   6.716
 4137POPC   C3B55173  23.114   7.790   7.100
 4137POPC   C4B55174  22.692   7.909   7.201
 4138POPC   NC355175  10.936  36.090   5.410
 4138POPC   PO455176  11.568  36.331   5.436
 4138POPC   GL155177  11.466  36.170   5.833
 4138POPC   GL255178  11.350  35.840   5.686
 4138POPC   C1A55179  11.431  36.168   6.309
 4138POPC   D2A55180  11.277  35.962   6.651
 4138POPC   C3A55181  11.334  36.122   7.043
 4138POPC   C4A55182  11.582  36.248   7.368
 4138POPC   C1B55183  11.102  35.884   6.050
 4138POPC   C2B55184  10.947  35.658   6.390
 4138POPC   C3B55185  10.948  35.612   6.831
 4138POPC   C4B55186  11.071  35.717   7.237
 4139POPC   NC355187  13.686  33.368   5.300
 4139POPC   PO455188  13.608  32.740   5.513
 4139POPC   GL155189  13.459  33.065   5.791
 4139POPC   GL255190  13.798  33.192   5.771
 4139POPC   C1A55191  13.271  33.002   6.211
 4139POPC   D2A55192  13.444  33.125   6.603
 4139POPC   C3A55193  13.767  32.930   6.826
 4139POPC   C4A55194  13.489  33.034   7.176
 4139POPC   C1B55195  13.771  33.191   6.202
 4139POPC   C2B55196  13.814  33.467   6.547
 4139POPC   C3B55197  13.793  33.414   6.952
 4139POPC   C4B55198  13.961  33.591   7.247
 4140POPC   NC355199  29.720  17.242   5.066
 4140POPC   PO455200  30.057  17.614   5.526
 4140POPC   GL155201  29.975  17.532   5.985
 4140POPC   GL255202  29.629  17.575   6.090
 4140POPC   C1A55203  30.019  17.468   6.433
 4140POPC   D2A55204  29.861  17.231   6.782
 4140POPC   C3A55205  29.972  17.461   7.175
 4140POPC   C4A55206  30.147  17.336   7.591
 4140POPC   C1B55207  29.732  17.116   6.219
 4140POPC   C2B55208  29.552  16.838   6.527
 4140POPC   C3B55209  29.414  16.899   6.931
 4140POPC   C4B55210  29.673  17.049   7.239
 4141POPC   NC355211  37.406  21.159   5.476
 4141POPC   PO455212  37.873  21.617   5.467
 4141POPC   GL155213  37.782  21.291   5.800
 4141POPC   GL255214  37.438  21.393   5.924
 4141POPC   C1A55215  37.713  21.010   6.143
 4141POPC   D2A55216  37.359  21.037   6.430
 4141POPC   C3A55217  37.465  21.198   6.829
 4141POPC   C4A55218  37.545  21.342   7.254
 4141POPC   C1B55219  37.594  21.489   6.326
 4141POPC   C2B55220  37.816  21.593   6.684
 4141POPC   C3B55221  37.746  21.813   7.050
 4141POPC   C4B55222  37.898  21.670   7.403
 4142POPC   NC355223   3.577  34.302   5.440
 4142POPC   PO455224   3.854  34.954   5.582
 4142POPC   GL155225   3.630  34.619   5.838
 4142POPC   GL255226   3.325  34.713   5.956
 4142POPC   C1A55227   3.628  34.372   6.204
 4142POPC   D2A55228   3.734  34.499   6.588
 4142POPC   C3A55229   3.527  34.248   6.861
 4142POPC   C4A55230   3.397  34.374   7.243
 4142POPC   C1B55231   3.271  34.752   6.394
 4142POPC   C2B55232   3.246  34.669   6.826
 4142POPC   C3B55233   3.269  34.896   7.218
 4142POPC   C4B55234   3.268  35.044   7.653
 4143POPC   NC355235  38.917  34.591   5.437
 4143POPC   PO455236  39.470  34.207   5.199
 4143POPC   GL155237  39.393  34.424   5.628
 4143POPC   GL255238  39.544  34.775   5.698
 4143POPC   C1A55239  39.298  34.485   6.092
 4143POPC   D2A55240  39.376  34.500   6.563
 4143POPC   C3A55241  39.087  34.633   6.910
 4143POPC   C4A55242  38.878  34.368   7.241
 4143POPC   C1B55243  39.402  34.985   6.084
 4143POPC   C2B55244  39.245  35.003   6.473
 4143POPC   C3B55245  39.427  35.037   6.884
 4143POPC   C4B55246  39.485  34.801   7.230
 4144POPC   NC355247  28.596   5.668   5.357
 4144POPC   PO455248  28.452   6.315   5.476
 4144POPC   GL155249  28.236   6.087   5.784
 4144POPC   GL255250  28.524   6.146   6.015
 4144POPC   C1A55251  28.080   5.882   6.167
 4144POPC   D2A55252  28.338   5.719   6.517
 4144POPC   C3A55253  28.256   5.819   6.978
 4144POPC   C4A55254  28.302   5.780   7.444
 4144POPC   C1B55255  28.784   5.923   6.353
 4144POPC   C2B55256  28.836   5.628   6.714
 4144POPC   C3B55257  28.735   5.720   7.140
 4144POPC   C4B55258  28.588   6.170   7.241
 4145POPC   NC355259  30.041  26.044   5.351
 4145POPC   PO455260  30.371  25.618   5.528
 4145POPC   GL155261  30.081  25.845   5.861
 4145POPC   GL255262  29.841  26.129   5.824
 4145POPC   C1A55263  29.954  25.979   6.303
 4145POPC   D2A55264  29.792  25.849   6.702
 4145POPC   C3A55265  29.918  26.036   7.104
 4145POPC   C4A55266  29.666  26.158   7.495
 4145POPC   C1B55267  29.560  26.307   6.162
 4145POPC   C2B55268  29.568  26.346   6.632
 4145POPC   C3B55269  29.703  26.487   7.062
 4145POPC   C4B55270  30.073  26.448   7.403
 4146POPC   NC355271  20.886  37.903   5.551
 4146POPC   PO455272  20.468  37.330   5.516
 4146POPC   GL155273  20.466  37.370   5.972
 4146POPC   GL255274  20.564  37.733   5.939
 4146POPC   C1A55275  20.526  37.465   6.397
 4146POPC   D2A55276  20.894  37.654   6.567
 4146POPC   C3A55277  20.904  37.841   6.962
 4146POPC   C4A55278  20.761  37.643   7.282
 4146POPC   C1B55279  20.592  37.986   6.323
 4146POPC   C2B55280  20.444  37.838   6.744
 4146POPC   C3B55281  20.244  37.744   7.123
 4146POPC   C4B55282  20.139  37.985   7.476
 4147POPC   NC355283   4.883   6.852   5.544
 4147POPC   PO455284   5.359   6.413   5.528
 4147POPC   GL155285   5.282   6.662   5.882
 4147POPC   GL255286   4.977   6.480   5.892
 4147POPC   C1A55287   5.101   6.761   6.312
 4147POPC   D2A55288   5.108   6.989   6.714
 4147POPC   C3A55289   5.200   6.822   7.099
 4147POPC   C4A55290   4.887   6.823   7.378
 4147POPC   C1B55291   4.963   6.221   6.238
 4147POPC   C2B55292   4.766   6.298   6.630
 4147POPC   C3B55293   4.830   6.478   6.986
 4147POPC   C4B55294   5.040   6.341   7.309
 4148POPC   NC355295  39.228  30.142   5.330
 4148POPC   PO455296  38.964  29.673   5.708
 4148POPC   GL155297  39.072  29.946   5.971
 4148POPC   GL255298  39.369  30.043   5.816
 4148POPC   C1A55299  39.018  29.802   6.409
 4148POPC   D2A55300  38.987  29.565   6.797
 4148POPC   C3A55301  39.172  29.796   7.130
 4148POPC   C4A55302  39.093  30.214   7.255
 4148POPC   C1B55303  39.504  29.770   6.194
 4148POPC   C2B55304  39.482  29.875   6.635
 4148POPC   C3B55305  39.551  30.124   7.016
 4148POPC   C4B55306  39.749  30.107   7.409
 4149POPC   NC355307   3.170   3.614   5.551
 4149POPC   PO455308   3.740   3.274   5.504
 4149POPC   GL155309   3.686   3.542   5.831
 4149POPC   GL255310   3.394   3.364   5.953
 4149POPC   C1A55311   3.792   3.566   6.267
 4149POPC   D2A55312   3.586   3.486   6.650
 4149POPC   C3A55313   3.812   3.652   7.000
 4149POPC   C4A55314   3.671   3.525   7.425
 4149POPC   C1B55315   3.299   3.733   6.211
 4149POPC   C2B55316   3.153   3.786   6.620
 4149POPC   C3B55317   3.325   3.809   7.037
 4149POPC   C4B55318   3.252   3.877   7.477
 4150POPC   NC355319  10.048  28.434   5.387
 4150POPC   PO455320  10.645  28.138   5.316
 4150POPC   GL155321  10.499  28.454   5.683
 4150POPC   GL255322  10.774  28.579   5.873
 4150POPC   C1A55323  10.238  28.526   6.107
 4150POPC   D2A55324  10.212  28.236   6.523
 4150POPC   C3A55325  10.180  28.421   6.972
 4150POPC   C4A55326  10.224  28.319   7.443
 4150POPC   C1B55327  10.644  28.253   6.242
 4150POPC   C2B55328  10.641  28.024   6.680
 4150POPC   C3B55329  10.569  28.127   7.110
 4150POPC   C4B55330  10.734  28.155   7.527
 4151POPC   NC355331  33.402  17.565   5.218
 4151POPC   PO455332  34.039  17.381   5.434
 4151POPC   GL155333  33.706  17.584   5.694
 4151POPC   GL255334  33.906  17.873   5.905
 4151POPC   C1A55335  33.549  17.575   6.128
 4151POPC   D2A55336  33.744  17.798   6.491
 4151POPC   C3A55337  33.888  17.593   6.866
 4151POPC   C4A55338  34.110  17.755   7.236
 4151POPC   C1B55339  34.048  17.469   6.089
 4151POPC   C2B55340  34.019  17.179   6.422
 4151POPC   C3B55341  34.167  17.181   6.848
 4151POPC   C4B55342  34.078  17.219   7.274
 4152POPC   NC355343  12.695   0.971   5.483
 4152POPC   PO455344  12.384   1.556   5.610
 4152POPC   GL155345  12.691   1.341   5.909
 4152POPC   GL255346  12.999   1.118   5.883
 4152POPC   C1A55347  12.831   1.306   6.342
 4152POPC   D2A55348  12.532   1.297   6.680
 4152POPC   C3A55349  12.696   1.164   7.050
 4152POPC   C4A55350  13.035   1.388   7.159
 4152POPC   C1B55351  13.088   0.840   6.252
 4152POPC   C2B55352  12.976   0.927   6.673
 4152POPC   C3B55353  13.226   0.944   7.016
 4152POPC   C4B55354  13.321   0.664   7.342
 4153POPC   NC355355   2.573  30.295   5.438
 4153POPC   PO455356   3.070  29.894   5.347
 4153POPC   GL155357   2.883  29.965   5.788
 4153POPC   GL255358   2.568  30.152   5.904
 4153POPC   C1A55359   2.810  29.899   6.260
 4153POPC   D2A55360   2.986  29.760   6.634
 4153POPC   C3A55361   2.780  29.769   6.992
 4153POPC   C4A55362   3.019  29.918   7.290
 4153POPC   C1B55363   2.554  30.323   6.307
 4153POPC   C2B55364   2.561  30.135   6.704
 4153POPC   C3B55365   2.575  30.208   7.150
 4153POPC   C4B55366   2.423  30.473   7.462
 4154POPC   NC355367  43.591   0.306   5.616
 4154POPC   PO455368  44.190   0.128   5.457
 4154POPC   GL155369  44.060   0.305   5.854
 4154POPC   GL255370  43.923   0.047   6.009
 4154POPC   C1A55371  43.876   0.516   6.248
 4154POPC   D2A55372  43.736   0.742   6.625
 4154POPC   C3A55373  44.018   0.608   6.952
 4154POPC   C4A55374  44.278   0.487   7.281
 4154POPC   C1B55375  43.517   0.097   6.221
 4154POPC   C2B55376  43.393   0.236   6.590
 4154POPC   C3B55377  43.547   0.364   6.954
 4154POPC   C4B55378  43.843   0.205   7.215
 4155POPC   NC355379  33.436   5.648   5.057
 4155POPC   PO455380  33.857   6.028   5.398
 4155POPC   GL155381  33.972   5.957   5.857
 4155POPC   GL255382  34.189   5.628   5.845
 4155POPC   C1A55383  33.689   5.976   6.254
 4155POPC   D2A55384  33.509   5.886   6.693
 4155POPC   C3A55385  33.723   5.934   7.081
 4155POPC   C4A55386  33.599   5.812   7.495
 4155POPC   C1B55387  34.057   5.601   6.254
 4155POPC   C2B55388  34.037   5.851   6.602
 4155POPC   C3B55389  34.142   5.684   6.953
 4155POPC   C4B55390  34.021   5.525   7.325
 4156POPC   NC355391  11.930   2.550   5.297
 4156POPC   PO455392  12.182   2.988   5.696
 4156POPC   GL155393  11.872   2.650   5.867
 4156POPC   GL255394  11.657   2.350   5.726
 4156POPC   C1A55395  11.713   2.767   6.278
 4156POPC   D2A55396  11.982   2.967   6.568
 4156POPC   C3A55397  11.812   3.020   6.960
 4156POPC   C4A55398  12.026   3.049   7.353
 4156POPC   C1B55399  11.770   2.247   6.188
 4156POPC   C2B55400  12.028   2.443   6.542
 4156POPC   C3B55401  12.120   2.604   6.959
 4156POPC   C4B55402  11.933   2.538   7.373
 4157POPC   NC355403  21.750   9.130   5.497
 4157POPC   PO455404  21.437   8.440   5.410
 4157POPC   GL155405  21.404   8.623   5.846
 4157POPC   GL255406  21.539   8.946   5.901
 4157POPC   C1A55407  21.404   8.689   6.294
 4157POPC   D2A55408  21.506   8.935   6.652
 4157POPC   C3A55409  21.577   8.689   7.002
 4157POPC   C4A55410  21.333   8.862   7.300
 4157POPC   C1B55411  21.290   9.169   6.226
 4157POPC   C2B55412  21.095   9.323   6.634
 4157POPC   C3B55413  21.299   9.314   7.035
 4157POPC   C4B55414  21.718   9.160   7.127
 4158POPC   NC355415  44.946  20.110   5.505
 4158POPC   PO455416  44.491  19.638   5.353
 4158POPC   GL155417  44.673  19.741   5.779
 4158POPC   GL255418  44.981  19.667   5.782
 4158POPC   C1A55419  44.712  19.790   6.254
 4158POPC   D2A55420  44.926  19.869   6.668
 4158POPC   C3A55421  44.687  19.851   7.070
 4158POPC   C4A55422  44.350  19.970   7.389
 4158POPC   C1B55423   0.196  19.573   6.175
 4158POPC   C2B55424   0.351  19.572   6.578
 4158POPC   C3B55425   0.148  19.524   6.977
 4158POPC   C4B55426   0.050  19.460   7.398
 4159POPC   NC355427  19.621   9.891   5.407
 4159POPC   PO455428  19.949   9.307   5.419
 4159POPC   GL155429  20.024   9.654   5.675
 4159POPC   GL255430  20.223   9.494   5.912
 4159POPC   C1A55431  19.833   9.818   6.061
 4159POPC   D2A55432  19.619   9.646   6.423
 4159POPC   C3A55433  19.805   9.594   6.852
 4159POPC   C4A55434  19.682   9.784   7.265
 4159POPC   C1B55435  20.182   9.573   6.364
 4159POPC   C2B55436  20.301   9.822   6.729
 4159POPC   C3B55437  20.188   9.799   7.152
 4159POPC   C4B55438  20.036   9.405   7.305
 4160POPC   NC355439  24.139  25.402   5.502
 4160POPC   PO455440  24.679  25.019   5.340
 4160POPC   GL155441  24.545  25.186   5.770
 4160POPC   GL255442  24.481  25.555   5.858
 4160POPC   C1A55443  24.623  25.191   6.242
 4160POPC   D2A55444  24.528  25.074   6.693
 4160POPC   C3A55445  24.562  25.275   7.113
 4160POPC   C4A55446  24.349  25.204   7.516
 4160POPC   C1B55447  24.276  25.561   6.281
 4160POPC   C2B55448  24.390  25.576   6.725
 4160POPC   C3B55449  24.177  25.598   7.124
 4160POPC   C4B55450  23.887  25.479   7.473
 4161POPC   NC355451  19.594  10.658   5.495
 4161POPC   PO455452  20.055  10.134   5.456
 4161POPC   GL155453  19.960  10.422   5.771
 4161POPC   GL255454  19.637  10.249   5.819
 4161POPC   C1A55455  20.004  10.661   6.167
 4161POPC   D2A55456  20.135  10.472   6.545
 4161POPC   C3A55457  20.004  10.670   6.937
 4161POPC   C4A55458  20.026  10.646   7.387
 4161POPC   C1B55459  19.667  10.269   6.261
 4161POPC   C2B55460  19.758  10.083   6.661
 4161POPC   C3B55461  19.574  10.220   7.034
 4161POPC   C4B55462  19.509  10.620   7.221
 4162POPC   NC355463  21.616  43.651   5.392
 4162POPC   PO455464  21.584  42.966   5.404
 4162POPC   GL155465  21.389  43.047   5.789
 4162POPC   GL255466  21.469  43.419   5.821
 4162POPC   C1A55467  21.594  43.040   6.198
 4162POPC   D2A55468  21.722  43.209   6.616
 4162POPC   C3A55469  21.550  42.990   6.947
 4162POPC   C4A55470  21.251  42.973   7.265
 4162POPC   C1B55471  21.515  43.549   6.262
 4162POPC   C2B55472  21.362  43.543   6.718
 4162POPC   C3B55473  21.433  43.444   7.142
 4162POPC   C4B55474  21.367  43.429   7.572
 4163POPC   NC355475  14.814  26.247   5.376
 4163POPC   PO455476  14.143  26.028   5.361
 4163POPC   GL155477  14.220  26.106   5.770
 4163POPC   GL255478  14.582  26.110   5.804
 4163POPC   C1A55479  14.076  25.974   6.161
 4163POPC   D2A55480  14.083  26.189   6.538
 4163POPC   C3A55481  14.391  26.040   6.827
 4163POPC   C4A55482  14.486  26.015   7.273
 4163POPC   C1B55483  14.877  26.262   6.094
 4163POPC   C2B55484  14.781  26.154   6.503
 4163POPC   C3B55485  14.851  26.283   6.921
 4163POPC   C4B55486  14.988  26.087   7.262
 4164POPC   NC355487  12.808   4.684   5.431
 4164POPC   PO455488  12.958   5.343   5.516
 4164POPC   GL155489  12.595   5.217   5.857
 4164POPC   GL255490  12.474   4.836   5.809
 4164POPC   C1A55491  12.568   5.285   6.346
 4164POPC   D2A55492  12.890   5.337   6.689
 4164POPC   C3A55493  13.103   4.997   6.910
 4164POPC   C4A55494  13.183   4.962   7.356
 4164POPC   C1B55495  12.292   4.853   6.236
 4164POPC   C2B55496  12.505   4.852   6.662
 4164POPC   C3B55497  12.614   5.069   7.043
 4164POPC   C4B55498  12.686   5.006   7.518
 4165POPC   NC355499   5.345  34.683   5.438
 4165POPC   PO455500   4.676  34.499   5.500
 4165POPC   GL155501   4.857  34.361   5.887
 4165POPC   GL255502   5.200  34.452   5.872
 4165POPC   C1A55503   4.931  34.605   6.281
 4165POPC   D2A55504   4.787  34.777   6.676
 4165POPC   C3A55505   4.896  34.495   6.987
 4165POPC   C4A55506   4.695  34.367   7.350
 4165POPC   C1B55507   5.460  34.530   6.228
 4165POPC   C2B55508   5.324  34.525   6.651
 4165POPC   C3B55509   5.409  34.384   7.047
 4165POPC   C4B55510   5.204  34.390   7.409
 4166POPC   NC355511  12.233  43.854   5.238
 4166POPC   PO455512  12.927  43.832   5.400
 4166POPC   GL155513  13.078  43.804   5.788
 4166POPC   GL255514  12.770  44.006   5.919
 4166POPC   C1A55515  13.062  43.722   6.199
 4166POPC   D2A55516  12.799  43.875   6.531
 4166POPC   C3A55517  13.016  43.739   6.917
 4166POPC   C4A55518  13.012  43.879   7.322
 4166POPC   C1B55519  13.032  44.244   6.231
 4166POPC   C2B55520  12.993  44.321   6.690
 4166POPC   C3B55521  12.708  44.124   6.992
 4166POPC   C4B55522  12.598  44.133   7.449
 4167POPC   NC355523  27.343   3.806   5.227
 4167POPC   PO455524  26.820   3.516   5.474
 4167POPC   GL155525  26.702   3.303   5.842
 4167POPC   GL255526  26.721   3.619   6.051
 4167POPC   C1A55527  26.895   3.154   6.232
 4167POPC   D2A55528  26.882   3.431   6.567
 4167POPC   C3A55529  27.068   3.376   6.944
 4167POPC   C4A55530  26.745   3.333   7.224
 4167POPC   C1B55531  26.966   3.890   6.363
 4167POPC   C2B55532  27.016   3.881   6.837
 4167POPC   C3B55533  26.696   3.855   7.170
 4167POPC   C4B55534  26.582   4.122   7.556
 4168POPC   NC355535  39.331  44.488   5.489
 4168POPC   PO455536  39.124   0.109   5.396
 4168POPC   GL155537  39.333  44.954   5.832
 4168POPC   GL255538  39.593  44.716   5.875
 4168POPC   C1A55539  39.465  44.947   6.305
 4168POPC   D2A55540  39.203  44.765   6.637
 4168POPC   C3A55541  39.471  44.609   6.955
 4168POPC   C4A55542  39.451  44.788   7.343
 4168POPC   C1B55543  39.170  44.571   6.131
 4168POPC   C2B55544  39.119  44.279   6.491
 4168POPC   C3B55545  39.094  44.269   6.908
 4168POPC   C4B55546  39.169  44.331   7.330
 4169POPC   NC355547   5.063  15.806   5.407
 4169POPC   PO455548   5.631  15.485   5.200
 4169POPC   GL155549   5.637  15.688   5.695
 4169POPC   GL255550   5.357  15.880   5.800
 4169POPC   C1A55551   5.616  15.807   6.201
 4169POPC   D2A55552   5.368  16.005   6.551
 4169POPC   C3A55553   5.443  15.936   6.989
 4169POPC   C4A55554   5.293  15.665   7.364
 4169POPC   C1B55555   5.018  15.971   6.101
 4169POPC   C2B55556   4.872  16.137   6.502
 4169POPC   C3B55557   4.909  15.920   6.902
 4169POPC   C4B55558   5.011  16.073   7.290
 4170POPC   NC355559  31.949   3.594   5.528
 4170POPC   PO455560  32.379   3.182   5.177
 4170POPC   GL155561  32.458   3.399   5.631
 4170POPC   GL255562  32.388   3.732   5.730
 4170POPC   C1A55563  32.390   3.410   6.138
 4170POPC   D2A55564  32.501   3.321   6.613
 4170POPC   C3A55565  32.229   3.413   6.982
 4170POPC   C4A55566  32.239   3.290   7.425
 4170POPC   C1B55567  32.078   3.807   6.109
 4170POPC   C2B55568  32.166   3.731   6.537
 4170POPC   C3B55569  31.916   3.821   6.893
 4170POPC   C4B55570  31.994   3.729   7.302
 4171POPC   NC355571  37.307   3.811   5.571
 4171POPC   PO455572  36.572   3.867   5.390
 4171POPC   GL155573  36.828   3.693   5.721
 4171POPC   GL255574  36.788   3.316   5.664
 4171POPC   C1A55575  36.987   3.920   6.139
 4171POPC   D2A55576  37.098   4.072   6.581
 4171POPC   C3A55577  37.031   3.687   6.795
 4171POPC   C4A55578  36.947   3.597   7.207
 4171POPC   C1B55579  36.654   3.154   6.075
 4171POPC   C2B55580  36.674   3.372   6.512
 4171POPC   C3B55581  36.722   3.238   6.943
 4171POPC   C4B55582  36.853   3.118   7.367
 4172POPC   NC355583  44.853  30.405   5.363
 4172POPC   PO455584  44.394  30.845   5.410
 4172POPC   GL155585  44.582  30.671   5.755
 4172POPC   GL255586  44.872  30.859   5.775
 4172POPC   C1A55587  44.511  30.503   6.174
 4172POPC   D2A55588  44.396  30.713   6.561
 4172POPC   C3A55589  44.510  30.558   6.989
 4172POPC   C4A55590  44.526  30.723   7.405
 4172POPC   C1B55591  44.900  30.806   6.189
 4172POPC   C2B55592  44.900  30.580   6.535
 4172POPC   C3B55593  44.973  30.764   6.896
 4172POPC   C4B55594   0.035  30.631   7.298
 4173POPC   NC355595  37.433   0.077   5.560
 4173POPC   PO455596  38.156  44.863   5.457
 4173POPC   GL155597  37.881  44.800   5.799
 4173POPC   GL255598  37.557  44.799   5.976
 4173POPC   C1A55599  37.993  44.772   6.225
 4173POPC   D2A55600  37.693  44.674   6.521
 4173POPC   C3A55601  37.726  44.919   6.872
 4173POPC   C4A55602  37.949  44.820   7.245
 4173POPC   C1B55603  37.269  44.545   6.237
 4173POPC   C2B55604  37.224  44.472   6.661
 4173POPC   C3B55605  37.484  44.465   7.009
 4173POPC   C4B55606  37.435  44.806   7.267
 4174POPC   NC355607  28.827  35.338   5.440
 4174POPC   PO455608  28.158  35.582   5.423
 4174POPC   GL155609  28.410  35.409   5.735
 4174POPC   GL255610  28.473  35.070   5.727
 4174POPC   C1A55611  28.409  35.394   6.163
 4174POPC   D2A55612  28.392  35.208   6.555
 4174POPC   C3A55613  28.314  35.479   6.914
 4174POPC   C4A55614  28.475  35.514   7.327
 4174POPC   C1B55615  28.622  34.930   6.131
 4174POPC   C2B55616  28.692  34.801   6.568
 4174POPC   C3B55617  28.668  35.045   6.957
 4174POPC   C4B55618  28.266  35.057   7.196
 4175POPC   NC355619  41.907  24.754   5.491
 4175POPC   PO455620  41.552  24.172   5.504
 4175POPC   GL155621  41.354  24.511   5.766
 4175POPC   GL255622  41.644  24.678   5.929
 4175POPC   C1A55623  41.222  24.628   6.190
 4175POPC   D2A55624  41.583  24.593   6.495
 4175POPC   C3A55625  41.359  24.465   6.874
 4175POPC   C4A55626  41.221  24.691   7.229
 4175POPC   C1B55627  41.863  24.304   6.108
 4175POPC   C2B55628  42.086  24.257   6.498
 4175POPC   C3B55629  41.896  24.353   6.889
 4175POPC   C4B55630  41.710  24.564   7.244
 4176POPC   NC355631   5.167  38.070   5.468
 4176POPC   PO455632   4.933  38.767   5.474
 4176POPC   GL155633   5.135  38.474   5.788
 4176POPC   GL255634   4.985  38.199   5.933
 4176POPC   C1A55635   5.436  38.485   6.164
 4176POPC   D2A55636   5.456  38.786   6.503
 4176POPC   C3A55637   5.487  38.587   6.902
 4176POPC   C4A55638   5.362  38.679   7.297
 4176POPC   C1B55639   4.953  38.595   6.236
 4176POPC   C2B55640   5.123  38.384   6.603
 4176POPC   C3B55641   5.018  38.393   7.033
 4176POPC   C4B55642   4.832  38.781   7.174
 4177POPC   NC355643  35.883  19.298   5.648
 4177POPC   PO455644  36.253  19.828   5.400
 4177POPC   GL155645  36.176  19.964   5.835
 4177POPC   GL255646  35.914  19.749   5.869
 4177POPC   C1A55647  36.065  20.052   6.266
 4177POPC   D2A55648  35.825  20.086   6.617
 4177POPC   C3A55649  35.948  19.760   6.836
 4177POPC   C4A55650  36.191  19.785   7.212
 4177POPC   C1B55651  36.230  19.580   6.163
 4177POPC   C2B55652  36.172  19.340   6.513
 4177POPC   C3B55653  36.182  19.326   6.921
 4177POPC   C4B55654  36.458  19.342   7.206
 4178POPC   NC355655   4.182   7.696   5.362
 4178POPC   PO455656   4.624   7.221   5.409
 4178POPC   GL155657   4.344   7.181   5.811
 4178POPC   GL255658   4.314   7.493   5.826
 4178POPC   C1A55659   4.026   7.311   6.191
 4178POPC   D2A55660   3.918   7.442   6.614
 4178POPC   C3A55661   4.160   7.274   6.958
 4178POPC   C4A55662   4.331   7.492   7.276
 4178POPC   C1B55663   4.613   7.643   6.162
 4178POPC   C2B55664   4.727   7.815   6.577
 4178POPC   C3B55665   4.656   7.833   7.018
 4178POPC   C4B55666   4.790   7.665   7.410
 4179POPC   NC355667   7.320  30.462   5.431
 4179POPC   PO455668   7.643  30.935   5.302
 4179POPC   GL155669   7.642  30.725   5.704
 4179POPC   GL255670   7.504  31.007   5.890
 4179POPC   C1A55671   7.599  30.523   6.104
 4179POPC   D2A55672   7.789  30.542   6.503
 4179POPC   C3A55673   7.512  30.625   6.831
 4179POPC   C4A55674   7.305  30.434   7.196
 4179POPC   C1B55675   7.525  30.997   6.371
 4179POPC   C2B55676   7.339  31.173   6.751
 4179POPC   C3B55677   7.216  30.957   7.129
 4179POPC   C4B55678   6.933  30.753   7.447
 4180POPC   NC355679  39.153   8.667   5.070
 4180POPC   PO455680  39.238   8.016   5.300
 4180POPC   GL155681  39.360   7.988   5.729
 4180POPC   GL255682  39.407   8.305   5.847
 4180POPC   C1A55683  39.141   8.044   6.149
 4180POPC   D2A55684  39.244   8.309   6.502
 4180POPC   C3A55685  39.144   8.095   6.898
 4180POPC   C4A55686  39.144   8.256   7.337
 4180POPC   C1B55687  39.511   8.638   6.123
 4180POPC   C2B55688  39.669   8.619   6.530
 4180POPC   C3B55689  39.459   8.584   6.944
 4180POPC   C4B55690  39.589   8.489   7.370
 4181POPC   NC355691  13.621  10.340   5.322
 4181POPC   PO455692  13.274  10.848   5.690
 4181POPC   GL155693  13.468  10.452   5.832
 4181POPC   GL255694  13.846  10.420   5.825
 4181POPC   C1A55695  13.599  10.243   6.228
 4181POPC   D2A55696  13.836  10.260   6.621
 4181POPC   C3A55697  13.533  10.127   6.931
 4181POPC   C4A55698  13.448  10.370   7.270
 4181POPC   C1B55699  13.746  10.761   6.130
 4181POPC   C2B55700  13.761  10.777   6.566
 4181POPC   C3B55701  13.763  10.688   7.000
 4181POPC   C4B55702  13.837  10.686   7.462
 4182POPC   NC355703  28.877  19.720   5.259
 4182POPC   PO455704  29.439  20.068   5.219
 4182POPC   GL155705  29.219  19.878   5.642
 4182POPC   GL255706  28.851  19.847   5.758
 4182POPC   C1A55707  29.252  19.743   6.112
 4182POPC   D2A55708  29.058  19.703   6.558
 4182POPC   C3A55709  29.271  19.620   6.973
 4182POPC   C4A55710  29.323  19.322   7.317
 4182POPC   C1B55711  28.749  19.851   6.179
 4182POPC   C2B55712  28.708  20.072   6.560
 4182POPC   C3B55713  28.844  19.938   6.963
 4182POPC   C4B55714  28.747  20.165   7.321
 4183POPC   NC355715  42.794   2.478   5.439
 4183POPC   PO455716  43.428   2.652   5.585
 4183POPC   GL155717  43.086   2.711   5.815
 4183POPC   GL255718  42.932   2.991   5.633
 4183POPC   C1A55719  43.093   2.656   6.258
 4183POPC   D2A55720  42.819   2.597   6.610
 4183POPC   C3A55721  43.052   2.591   7.000
 4183POPC   C4A55722  43.471   2.518   7.216
 4183POPC   C1B55723  42.814   3.041   6.096
 4183POPC   C2B55724  43.044   3.085   6.538
 4183POPC   C3B55725  43.206   3.091   7.016
 4183POPC   C4B55726  43.033   3.143   7.477
 4184POPC   NC355727  28.952  29.672   5.257
 4184POPC   PO455728  29.389  30.191   5.199
 4184POPC   GL155729  29.205  30.046   5.627
 4184POPC   GL255730  29.080  29.712   5.755
 4184POPC   C1A55731  29.232  30.039   6.114
 4184POPC   D2A55732  29.413  30.196   6.538
 4184POPC   C3A55733  29.225  30.033   6.941
 4184POPC   C4A55734  28.803  30.137   7.123
 4184POPC   C1B55735  28.881  29.652   6.191
 4184POPC   C2B55736  28.795  29.599   6.661
 4184POPC   C3B55737  28.637  29.533   7.089
 4184POPC   C4B55738  28.666  29.487   7.573
 4185POPC   NC355739  27.454  32.120   5.431
 4185POPC   PO455740  27.859  32.722   5.490
 4185POPC   GL155741  27.867  32.435   5.814
 4185POPC   GL255742  27.883  32.084   5.763
 4185POPC   C1A55743  27.702  32.483   6.225
 4185POPC   D2A55744  27.879  32.620   6.628
 4185POPC   C3A55745  27.706  32.469   7.025
 4185POPC   C4A55746  27.321  32.247   7.179
 4185POPC   C1B55747  27.635  31.981   6.153
 4185POPC   C2B55748  27.663  32.148   6.596
 4185POPC   C3B55749  27.762  31.960   6.980
 4185POPC   C4B55750  27.707  31.613   7.218
 4186POPC   NC355751  24.198  30.617   5.527
 4186POPC   PO455752  23.665  30.805   5.187
 4186POPC   GL155753  23.564  30.777   5.631
 4186POPC   GL255754  23.844  30.793   5.847
 4186POPC   C1A55755  23.406  30.597   6.035
 4186POPC   D2A55756  23.364  30.420   6.472
 4186POPC   C3A55757  23.535  30.695   6.808
 4186POPC   C4A55758  23.752  30.555   7.174
 4186POPC   C1B55759  23.856  30.696   6.281
 4186POPC   C2B55760  24.026  30.858   6.639
 4186POPC   C3B55761  24.201  30.732   6.998
 4186POPC   C4B55762  24.052  30.908   7.363
 4187POPC   NC355763  13.801  24.642   5.136
 4187POPC   PO455764  13.280  24.273   5.455
 4187POPC   GL155765  13.479  24.252   5.876
 4187POPC   GL255766  13.848  24.172   5.919
 4187POPC   C1A55767  13.444  24.213   6.305
 4187POPC   D2A55768  13.711  24.260   6.630
 4187POPC   C3A55769  13.455  24.370   6.962
 4187POPC   C4A55770  13.422  24.797   7.093
 4187POPC   C1B55771  13.902  24.508   6.203
 4187POPC   C2B55772  14.088  24.629   6.597
 4187POPC   C3B55773  13.892  24.623   6.977
 4187POPC   C4B55774  13.953  24.786   7.354
 4188POPC   NC355775  24.179   1.853   5.426
 4188POPC   PO455776  24.502   2.340   5.345
 4188POPC   GL155777  24.644   2.090   5.724
 4188POPC   GL255778  24.705   1.720   5.726
 4188POPC   C1A55779  24.561   2.011   6.166
 4188POPC   D2A55780  24.229   2.115   6.471
 4188POPC   C3A55781  24.435   2.140   6.848
 4188POPC   C4A55782  24.570   1.944   7.240
 4188POPC   C1B55783  24.370   1.556   6.017
 4188POPC   C2B55784  24.308   1.611   6.454
 4188POPC   C3B55785  24.402   1.592   6.870
 4188POPC   C4B55786  24.240   1.559   7.247
 4189POPC   NC355787  27.127  42.005   5.333
 4189POPC   PO455788  27.047  42.708   5.383
 4189POPC   GL155789  27.026  42.545   5.821
 4189POPC   GL255790  26.702  42.530   5.962
 4189POPC   C1A55791  27.138  42.366   6.234
 4189POPC   D2A55792  27.289  42.442   6.662
 4189POPC   C3A55793  27.149  42.348   7.092
 4189POPC   C4A55794  27.007  42.581   7.486
 4189POPC   C1B55795  26.655  42.289   6.336
 4189POPC   C2B55796  26.770  42.390   6.745
 4189POPC   C3B55797  26.659  42.533   7.115
 4189POPC   C4B55798  26.561  42.314   7.496
 4190POPC   NC355799  31.946  33.165   5.425
 4190POPC   PO455800  32.569  32.876   5.312
 4190POPC   GL155801  32.525  33.038   5.739
 4190POPC   GL255802  32.622  32.719   5.831
 4190POPC   C1A55803  32.322  33.284   6.111
 4190POPC   D2A55804  32.020  33.244   6.470
 4190POPC   C3A55805  32.165  33.211   6.916
 4190POPC   C4A55806  32.154  33.167   7.391
 4190POPC   C1B55807  32.344  32.789   6.223
 4190POPC   C2B55808  32.125  32.763   6.636
 4190POPC   C3B55809  32.177  32.738   7.096
 4190POPC   C4B55810  32.485  32.787   7.464
 4191POPC   NC355811   7.181  29.816   5.531
 4191POPC   PO455812   7.746  30.239   5.496
 4191POPC   GL155813   7.822  30.076   5.863
 4191POPC   GL255814   7.622  29.792   5.851
 4191POPC   C1A55815   7.714  30.061   6.283
 4191POPC   D2A55816   7.525  30.131   6.682
 4191POPC   C3A55817   7.763  30.185   7.064
 4191POPC   C4A55818   7.730  30.344   7.492
 4191POPC   C1B55819   7.291  29.808   6.225
 4191POPC   C2B55820   7.300  29.678   6.685
 4191POPC   C3B55821   7.281  29.914   7.102
 4191POPC   C4B55822   6.901  29.962   7.371
 4192POPC   NC355823  26.624  42.869   5.316
 4192POPC   PO455824  27.009  43.443   5.277
 4192POPC   GL155825  27.016  43.152   5.685
 4192POPC   GL255826  26.722  43.018   5.816
 4192POPC   C1A55827  27.094  42.949   6.128
 4192POPC   D2A55828  26.868  42.772   6.435
 4192POPC   C3A55829  26.759  43.050   6.794
 4192POPC   C4A55830  26.795  43.018   7.258
 4192POPC   C1B55831  26.683  43.311   6.199
 4192POPC   C2B55832  26.543  43.531   6.609
 4192POPC   C3B55833  26.471  43.436   7.084
 4192POPC   C4B55834  26.142  43.237   7.366
 4193POPC   NC355835  27.200  27.249   5.621
 4193POPC   PO455836  27.608  27.825   5.471
 4193POPC   GL155837  27.758  27.619   5.824
 4193POPC   GL255838  27.416  27.602   5.923
 4193POPC   C1A55839  27.777  27.482   6.267
 4193POPC   D2A55840  27.560  27.578   6.656
 4193POPC   C3A55841  27.678  27.368   7.030
 4193POPC   C4A55842  27.804  27.633   7.368
 4193POPC   C1B55843  27.264  27.391   6.288
 4193POPC   C2B55844  27.124  27.277   6.718
 4193POPC   C3B55845  27.144  27.206   7.124
 4193POPC   C4B55846  27.313  27.474   7.395
 4194POPC   NC355847  24.025  44.303   5.339
 4194POPC   PO455848  24.573  44.691   5.460
 4194POPC   GL155849  24.604  44.561   5.850
 4194POPC   GL255850  24.247  44.436   5.804
 4194POPC   C1A55851  24.568  44.697   6.277
 4194POPC   D2A55852  24.638  44.599   6.681
 4194POPC   C3A55853  24.507  44.799   7.019
 4194POPC   C4A55854  24.739  44.638   7.344
 4194POPC   C1B55855  24.097  44.535   6.215
 4194POPC   C2B55856  24.133  44.739   6.597
 4194POPC   C3B55857  24.052  44.540   6.971
 4194POPC   C4B55858  24.183  44.575   7.343
 4195POPC   NC355859  32.674  16.109   5.371
 4195POPC   PO455860  33.251  15.750   5.414
 4195POPC   GL155861  32.983  15.896   5.746
 4195POPC   GL255862  32.739  15.633   5.824
 4195POPC   C1A55863  33.007  16.171   6.127
 4195POPC   D2A55864  33.096  16.366   6.544
 4195POPC   C3A55865  32.904  16.247   6.906
 4195POPC   C4A55866  33.120  16.230   7.290
 4195POPC   C1B55867  33.055  15.660   6.194
 4195POPC   C2B55868  33.093  15.849   6.623
 4195POPC   C3B55869  32.967  15.727   7.070
 4195POPC   C4B55870  33.096  15.416   7.425
 4196POPC   NC355871  18.857   4.608   5.114
 4196POPC   PO455872  19.200   4.085   5.215
 4196POPC   GL155873  18.992   4.175   5.635
 4196POPC   GL255874  18.687   3.960   5.657
 4196POPC   C1A55875  19.078   4.418   6.066
 4196POPC   D2A55876  19.279   4.594   6.486
 4196POPC   C3A55877  19.149   4.409   6.889
 4196POPC   C4A55878  19.166   4.503   7.340
 4196POPC   C1B55879  18.638   4.130   6.070
 4196POPC   C2B55880  18.664   4.381   6.454
 4196POPC   C3B55881  18.674   4.189   6.874
 4196POPC   C4B55882  18.679   4.355   7.289
 4197POPC   NC355883  44.107  28.032   5.463
 4197POPC   PO455884  43.563  28.434   5.547
 4197POPC   GL155885  43.833  28.265   5.845
 4197POPC   GL255886  44.213  28.366   5.847
 4197POPC   C1A55887  43.862  28.437   6.259
 4197POPC   D2A55888  43.626  28.613   6.584
 4197POPC   C3A55889  43.819  28.565   6.939
 4197POPC   C4A55890  43.876  28.186   7.061
 4197POPC   C1B55891  44.345  28.614   6.208
 4197POPC   C2B55892  44.499  28.542   6.637
 4197POPC   C3B55893  44.487  28.681   7.064
 4197POPC   C4B55894  44.162  28.561   7.339
 4198POPC   NC355895  35.041   9.257   5.498
 4198POPC   PO455896  34.506   9.734   5.504
 4198POPC   GL155897  34.522   9.597   5.925
 4198POPC   GL255898  34.676   9.289   5.860
 4198POPC   C1A55899  34.631   9.749   6.346
 4198POPC   D2A55900  34.356   9.681   6.685
 4198POPC   C3A55901  34.415   9.653   7.107
 4198POPC   C4A55902  34.386  10.022   7.304
 4198POPC   C1B55903  34.979   9.388   6.163
 4198POPC   C2B55904  35.038   9.264   6.556
 4198POPC   C3B55905  34.824   9.482   6.827
 4198POPC   C4B55906  34.946   9.456   7.207
 4199POPC   NC355907   5.514  42.219   5.292
 4199POPC   PO455908   6.192  42.048   5.185
 4199POPC   GL155909   6.037  42.115   5.614
 4199POPC   GL255910   6.252  42.378   5.706
 4199POPC   C1A55911   6.102  42.010   6.088
 4199POPC   D2A55912   6.190  41.977   6.558
 4199POPC   C3A55913   5.845  42.055   6.891
 4199POPC   C4A55914   5.697  42.450   7.141
 4199POPC   C1B55915   6.081  42.541   6.108
 4199POPC   C2B55916   6.266  42.700   6.500
 4199POPC   C3B55917   6.108  42.735   6.916
 4199POPC   C4B55918   6.337  42.739   7.268
 4200POPC   NC355919   8.785  20.019   5.506
 4200POPC   PO455920   9.267  19.490   5.525
 4200POPC   GL155921   9.107  19.792   5.848
 4200POPC   GL255922   9.314  20.075   5.945
 4200POPC   C1A55923   8.789  19.956   6.170
 4200POPC   D2A55924   8.602  19.924   6.600
 4200POPC   C3A55925   8.844  19.878   7.002
 4200POPC   C4A55926   8.990  20.058   7.387
 4200POPC   C1B55927   9.252  19.904   6.352
 4200POPC   C2B55928   9.291  19.842   6.751
 4200POPC   C3B55929   9.368  20.072   7.071
 4200POPC   C4B55930   9.473  20.097   7.539
 4201POPC   NC355931   7.649  19.227   5.273
 4201POPC   PO455932   7.013  19.241   5.258
 4201POPC   GL155933   7.234  19.183   5.656
 4201POPC   GL255934   7.187  18.817   5.693
 4201POPC   C1A55935   7.299  19.074   6.139
 4201POPC   D2A55936   7.199  19.233   6.589
 4201POPC   C3A55937   7.539  19.301   6.930
 4201POPC   C4A55938   7.891  19.317   7.298
 4201POPC   C1B55939   7.123  18.594   6.104
 4201POPC   C2B55940   7.262  18.703   6.534
 4201POPC   C3B55941   7.225  18.873   6.961
 4201POPC   C4B55942   7.535  18.956   7.305
 4202POPC   NC355943  42.779   6.262   5.402
 4202POPC   PO455944  43.307   6.502   5.132
 4202POPC   GL155945  43.348   6.688   5.661
 4202POPC   GL255946  43.314   6.453   5.992
 4202POPC   C1A55947  43.121   6.896   6.074
 4202POPC   D2A55948  42.886   6.736   6.457
 4202POPC   C3A55949  43.090   6.695   6.873
 4202POPC   C4A55950  42.980   6.988   7.184
 4202POPC   C1B55951  42.899   6.306   6.162
 4202POPC   C2B55952  42.821   6.220   6.597
 4202POPC   C3B55953  42.678   6.343   6.994
 4202POPC   C4B55954  42.722   6.476   7.414
 4203POPC   NC355955  21.355  25.554   5.179
 4203POPC   PO455956  21.364  26.175   5.340
 4203POPC   GL155957  21.445  26.304   5.779
 4203POPC   GL255958  21.776  26.329   5.886
 4203POPC   C1A55959  21.358  26.397   6.251
 4203POPC   D2A55960  21.199  26.297   6.692
 4203POPC   C3A55961  21.265  26.148   7.116
 4203POPC   C4A55962  20.972  25.858   7.358
 4203POPC   C1B55963  21.860  26.290   6.356
 4203POPC   C2B55964  21.714  26.241   6.807
 4203POPC   C3B55965  21.810  26.122   7.232
 4203POPC   C4B55966  21.964  26.060   7.664
 4204POPC   NC355967   0.784  42.870   5.320
 4204POPC   PO455968   0.273  43.316   5.458
 4204POPC   GL155969   0.499  43.178   5.802
 4204POPC   GL255970   0.342  42.842   5.779
 4204POPC   C1A55971   0.586  42.997   6.226
 4204POPC   D2A55972   0.847  42.862   6.614
 4204POPC   C3A55973   0.713  43.026   7.036
 4204POPC   C4A55974   0.363  43.302   7.187
 4204POPC   C1B55975   0.067  42.790   6.146
 4204POPC   C2B55976  44.957  42.923   6.572
 4204POPC   C3B55977   0.216  42.880   6.971
 4204POPC   C4B55978   0.211  42.865   7.446
 4205POPC   NC355979   2.033   1.284   5.407
 4205POPC   PO455980   1.457   1.055   5.691
 4205POPC   GL155981   1.849   1.144   5.841
 4205POPC   GL255982   1.793   1.517   5.818
 4205POPC   C1A55983   2.154   1.300   6.156
 4205POPC   D2A55984   2.367   1.025   6.428
 4205POPC   C3A55985   2.300   1.113   6.844
 4205POPC   C4A55986   2.079   1.083   7.224
 4205POPC   C1B55987   1.636   1.353   6.233
 4205POPC   C2B55988   1.843   1.128   6.545
 4205POPC   C3B55989   1.663   0.981   6.892
 4205POPC   C4B55990   1.565   1.233   7.213
 4206POPC   NC355991  34.949  43.832   5.328
 4206POPC   PO455992  34.328  43.883   5.340
 4206POPC   GL155993  34.585  43.958   5.744
 4206POPC   GL255994  34.719  44.259   5.917
 4206POPC   C1A55995  34.558  43.862   6.224
 4206POPC   D2A55996  34.287  43.814   6.587
 4206POPC   C3A55997  34.435  43.644   6.972
 4206POPC   C4A55998  34.623  43.506   7.362
 4206POPC   C1B55999  34.777  44.329   6.366
 4206POPC   C2B56000  34.784  44.012   6.705
 4206POPC   C3B56001  34.767  43.988   7.155
 4206POPC   C4B56002  34.570  44.104   7.511
 4207POPC   NC356003  27.034  21.144   5.355
 4207POPC   PO456004  26.686  20.596   5.471
 4207POPC   GL156005  26.921  20.538   5.835
 4207POPC   GL256006  27.082  20.836   5.772
 4207POPC   C1A56007  26.801  20.419   6.257
 4207POPC   D2A56008  26.702  20.553   6.713
 4207POPC   C3A56009  26.902  20.337   7.087
 4207POPC   C4A56010  26.949  20.518   7.527
 4207POPC   C1B56011  26.864  20.917   6.188
 4207POPC   C2B56012  27.012  20.958   6.622
 4207POPC   C3B56013  27.023  20.822   7.040
 4207POPC   C4B56014  26.609  20.750   7.217
 4208POPC   NC356015  39.857  34.364   5.397
 4208POPC   PO456016  40.197  34.862   5.450
 4208POPC   GL156017  40.046  34.700   5.800
 4208POPC   GL256018  39.836  34.410   5.906
 4208POPC   C1A56019  39.887  34.873   6.138
 4208POPC   D2A56020  39.737  34.849   6.535
 4208POPC   C3A56021  39.952  34.905   6.901
 4208POPC   C4A56022  40.149  34.668   7.246
 4208POPC   C1B56023  39.878  34.399   6.335
 4208POPC   C2B56024  40.015  34.403   6.730
 4208POPC   C3B56025  39.736  34.457   6.976
 4208POPC   C4B56026  39.760  34.361   7.367
 4209POPC   NC356027  27.255  33.974   5.455
 4209POPC   PO456028  27.738  33.554   5.361
 4209POPC   GL156029  27.630  33.586   5.785
 4209POPC   GL256030  27.889  33.390   5.866
 4209POPC   C1A56031  27.481  33.731   6.180
 4209POPC   D2A56032  27.604  33.968   6.518
 4209POPC   C3A56033  27.539  33.913   6.933
 4209POPC   C4A56034  27.705  34.038   7.357
 4209POPC   C1B56035  27.885  33.445   6.323
 4209POPC   C2B56036  27.809  33.497   6.754
 4209POPC   C3B56037  27.835  33.585   7.158
 4209POPC   C4B56038  27.864  33.631   7.642
 4210POPC   NC356039  28.577  19.053   5.565
 4210POPC   PO456040  28.027  18.638   5.498
 4210POPC   GL156041  28.213  18.852   5.889
 4210POPC   GL256042  28.144  19.201   5.956
 4210POPC   C1A56043  28.285  18.950   6.373
 4210POPC   D2A56044  28.596  19.026   6.737
 4210POPC   C3A56045  28.485  18.857   7.161
 4210POPC   C4A56046  28.672  18.830   7.570
 4210POPC   C1B56047  28.391  19.487   6.248
 4210POPC   C2B56048  28.542  19.565   6.690
 4210POPC   C3B56049  28.353  19.344   7.063
 4210POPC   C4B56050  28.072  19.318   7.416
 4211POPC   NC356051  22.106  31.849   5.304
 4211POPC   PO456052  22.516  32.361   5.227
 4211POPC   GL156053  22.316  32.247   5.608
 4211POPC   GL256054  22.598  32.017   5.684
 4211POPC   C1A56055  22.075  32.439   5.980
 4211POPC   D2A56056  21.932  32.456   6.430
 4211POPC   C3A56057  22.169  32.447   6.802
 4211POPC   C4A56058  22.181  32.370   7.232
 4211POPC   C1B56059  22.353  32.023   6.078
 4211POPC   C2B56060  22.330  32.054   6.509
 4211POPC   C3B56061  22.385  31.929   6.931
 4211POPC   C4B56062  22.545  31.966   7.357
 4212POPC   NC356063  44.722  28.821   5.472
 4212POPC   PO456064  44.629  28.101   5.409
 4212POPC   GL156065  44.714  28.121   5.834
 4212POPC   GL256066  44.748  28.482   5.877
 4212POPC   C1A56067  44.587  28.173   6.260
 4212POPC   D2A56068  44.653  27.952   6.621
 4212POPC   C3A56069  44.636  28.180   6.994
 4212POPC   C4A56070  44.771  27.959   7.354
 4212POPC   C1B56071  44.854  28.653   6.287
 4212POPC   C2B56072  44.941  28.808   6.717
 4212POPC   C3B56073   0.168  28.605   7.022
 4212POPC   C4B56074  44.865  28.474   7.345
 4213POPC   NC356075  27.943  28.810   5.478
 4213POPC   PO456076  27.646  29.366   5.494
 4213POPC   GL156077  27.507  29.301   5.879
 4213POPC   GL256078  27.567  28.946   5.861
 4213POPC   C1A56079  27.587  29.253   6.279
 4213POPC   D2A56080  27.538  28.944   6.568
 4213POPC   C3A56081  27.445  29.259   6.854
 4213POPC   C4A56082  27.702  29.404   7.169
 4213POPC   C1B56083  27.916  28.868   6.176
 4213POPC   C2B56084  28.006  28.737   6.615
 4213POPC   C3B56085  27.839  28.931   6.994
 4213POPC   C4B56086  28.009  28.932   7.406
 4214POPC   NC356087  20.431  27.870   5.380
 4214POPC   PO456088  20.722  27.248   5.452
 4214POPC   GL156089  20.530  27.505   5.747
 4214POPC   GL256090  20.334  27.257   5.867
 4214POPC   C1A56091  20.488  27.728   6.143
 4214POPC   D2A56092  20.680  27.600   6.556
 4214POPC   C3A56093  20.496  27.632   6.938
 4214POPC   C4A56094  20.622  27.503   7.357
 4214POPC   C1B56095  20.378  27.257   6.320
 4214POPC   C2B56096  20.373  27.163   6.759
 4214POPC   C3B56097  20.190  27.250   7.134
 4214POPC   C4B56098  20.160  27.392   7.547
 4215POPC   NC356099   9.684  42.810   5.362
 4215POPC   PO456100   9.678  43.437   5.553
 4215POPC   GL156101   9.578  43.061   5.791
 4215POPC   GL256102   9.899  42.870   5.820
 4215POPC   C1A56103   9.574  43.014   6.211
 4215POPC   D2A56104   9.697  43.324   6.494
 4215POPC   C3A56105   9.633  43.119   6.838
 4215POPC   C4A56106   9.671  43.242   7.209
 4215POPC   C1B56107  10.061  43.156   6.143
 4215POPC   C2B56108  10.141  43.055   6.590
 4215POPC   C3B56109  10.046  42.911   7.009
 4215POPC   C4B56110   9.957  42.856   7.436
 4216POPC   NC356111   9.371  43.754   5.473
 4216POPC   PO456112   8.723  43.705   5.379
 4216POPC   GL156113   8.916  43.680   5.771
 4216POPC   GL256114   9.066  44.022   5.776
 4216POPC   C1A56115   8.946  43.785   6.217
 4216POPC   D2A56116   9.220  43.675   6.531
 4216POPC   C3A56117   8.989  43.742   6.904
 4216POPC   C4A56118   8.832  43.721   7.331
 4216POPC   C1B56119   9.305  44.148   6.121
 4216POPC   C2B56120   9.198  44.193   6.521
 4216POPC   C3B56121   9.335  44.109   6.904
 4216POPC   C4B56122   9.056  44.161   7.230
 4217POPC   NC356123   5.640   0.960   5.422
 4217POPC   PO456124   4.937   1.150   5.444
 4217POPC   GL156125   5.073   1.321   5.788
 4217POPC   GL256126   5.409   1.204   5.799
 4217POPC   C1A56127   4.907   1.278   6.195
 4217POPC   D2A56128   4.632   1.350   6.529
 4217POPC   C3A56129   4.784   1.129   6.883
 4217POPC   C4A56130   4.786   1.376   7.238
 4217POPC   C1B56131   5.626   1.066   6.181
 4217POPC   C2B56132   5.655   1.128   6.634
 4217POPC   C3B56133   5.504   0.983   7.034
 4217POPC   C4B56134   5.235   1.124   7.355
 4218POPC   NC356135  18.429  33.383   5.502
 4218POPC   PO456136  18.757  32.882   5.320
 4218POPC   GL156137  18.515  32.846   5.777
 4218POPC   GL256138  18.204  33.057   5.864
 4218POPC   C1A56139  18.363  32.737   6.228
 4218POPC   D2A56140  18.161  32.648   6.635
 4218POPC   C3A56141  18.362  32.784   7.038
 4218POPC   C4A56142  18.659  32.716   7.413
 4218POPC   C1B56143  17.925  32.988   6.266
 4218POPC   C2B56144  18.031  33.130   6.699
 4218POPC   C3B56145  17.966  33.105   7.154
 4218POPC   C4B56146  17.850  33.326   7.556
 4219POPC   NC356147  37.692  29.478   5.406
 4219POPC   PO456148  37.621  28.884   5.292
 4219POPC   GL156149  37.443  29.052   5.667
 4219POPC   GL256150  37.364  28.739   5.804
 4219POPC   C1A56151  37.445  29.129   6.137
 4219POPC   D2A56152  37.638  29.303   6.514
 4219POPC   C3A56153  37.493  29.235   6.937
 4219POPC   C4A56154  37.820  29.334   7.238
 4219POPC   C1B56155  37.724  28.666   6.117
 4219POPC   C2B56156  37.952  28.854   6.489
 4219POPC   C3B56157  37.934  28.921   6.947
 4219POPC   C4B56158  37.914  28.585   7.248
 4220POPC   NC356159  13.876  13.577   5.571
 4220POPC   PO456160  13.453  14.045   5.551
 4220POPC   GL156161  13.450  13.615   5.821
 4220POPC   GL256162  13.290  13.281   5.775
 4220POPC   C1A56163  13.702  13.467   6.197
 4220POPC   D2A56164  13.778  13.695   6.592
 4220POPC   C3A56165  13.695  13.522   7.016
 4220POPC   C4A56166  14.024  13.336   7.243
 4220POPC   C1B56167  13.289  13.162   6.212
 4220POPC   C2B56168  13.433  13.286   6.611
 4220POPC   C3B56169  13.284  13.207   7.048
 4220POPC   C4B56170  13.375  13.335   7.501
 4221POPC   NC356171  39.849  35.916   5.343
 4221POPC   PO456172  39.785  36.389   5.713
 4221POPC   GL156173  39.789  35.931   5.885
 4221POPC   GL256174  40.091  35.732   5.796
 4221POPC   C1A56175  39.819  35.828   6.339
 4221POPC   D2A56176  40.021  36.192   6.592
 4221POPC   C3A56177  39.805  36.390   6.926
 4221POPC   C4A56178  39.770  36.031   7.164
 4221POPC   C1B56179  40.299  35.724   6.211
 4221POPC   C2B56180  40.307  35.778   6.683
 4221POPC   C3B56181  40.256  36.050   7.064
 4221POPC   C4B56182  40.218  35.945   7.515
 4222POPC   NC356183  33.392   4.262   5.441
 4222POPC   PO456184  34.075   4.456   5.391
 4222POPC   GL156185  33.853   4.402   5.788
 4222POPC   GL256186  33.630   4.101   5.852
 4222POPC   C1A56187  33.981   4.220   6.193
 4222POPC   D2A56188  33.746   4.114   6.522
 4222POPC   C3A56189  33.978   4.136   6.861
 4222POPC   C4A56190  33.992   4.041   7.254
 4222POPC   C1B56191  33.458   4.398   6.159
 4222POPC   C2B56192  33.331   4.434   6.571
 4222POPC   C3B56193  33.488   4.298   6.926
 4222POPC   C4B56194  33.745   4.499   7.196
 4223POPC   NC356195  27.908  17.115   5.445
 4223POPC   PO456196  27.330  16.774   5.204
 4223POPC   GL156197  27.587  16.766   5.639
 4223POPC   GL256198  27.542  17.063   5.836
 4223POPC   C1A56199  27.810  16.710   6.084
 4223POPC   D2A56200  27.569  16.707   6.492
 4223POPC   C3A56201  27.711  16.668   6.918
 4223POPC   C4A56202  27.599  16.684   7.368
 4223POPC   C1B56203  27.733  17.161   6.293
 4223POPC   C2B56204  27.965  17.044   6.698
 4223POPC   C3B56205  27.798  17.141   7.155
 4223POPC   C4B56206  27.794  17.098   7.640
 4224POPC   NC356207  19.853  22.513   5.481
 4224POPC   PO456208  19.796  23.171   5.268
 4224POPC   GL156209  19.706  22.979   5.681
 4224POPC   GL256210  19.456  23.179   5.879
 4224POPC   C1A56211  19.718  22.806   6.126
 4224POPC   D2A56212  19.909  22.951   6.552
 4224POPC   C3A56213  19.770  22.854   6.981
 4224POPC   C4A56214  19.980  22.672   7.334
 4224POPC   C1B56215  19.460  23.173   6.377
 4224POPC   C2B56216  19.609  23.312   6.799
 4224POPC   C3B56217  19.831  23.376   7.205
 4224POPC   C4B56218  19.772  23.455   7.684
 4225POPC   NC356219  25.591  18.123   5.030
 4225POPC   PO456220  25.106  17.976   5.457
 4225POPC   GL156221  25.136  18.196   5.832
 4225POPC   GL256222  25.467  18.316   5.751
 4225POPC   C1A56223  25.137  18.123   6.286
 4225POPC   D2A56224  25.338  18.411   6.603
 4225POPC   C3A56225  25.153  18.328   6.985
 4225POPC   C4A56226  25.199  18.514   7.349
 4225POPC   C1B56227  25.610  18.286   6.172
 4225POPC   C2B56228  25.865  18.313   6.552
 4225POPC   C3B56229  25.713  18.254   6.988
 4225POPC   C4B56230  25.575  18.119   7.405
 4226POPC   NC356231  37.522  16.830   5.468
 4226POPC   PO456232  37.983  16.472   5.304
 4226POPC   GL156233  38.075  16.664   5.705
 4226POPC   GL256234  37.893  16.931   5.872
 4226POPC   C1A56235  38.069  16.517   6.144
 4226POPC   D2A56236  37.840  16.420   6.532
 4226POPC   C3A56237  37.986  16.755   6.815
 4226POPC   C4A56238  38.028  16.780   7.259
 4226POPC   C1B56239  37.516  16.909   6.144
 4226POPC   C2B56240  37.443  16.748   6.557
 4226POPC   C3B56241  37.542  16.998   6.915
 4226POPC   C4B56242  37.357  17.001   7.273
 4227POPC   NC356243  43.713   8.312   5.399
 4227POPC   PO456244  44.180   7.931   5.143
 4227POPC   GL156245  44.121   7.943   5.600
 4227POPC   GL256246  44.297   8.191   5.784
 4227POPC   C1A56247  43.871   7.955   5.998
 4227POPC   D2A56248  43.707   8.144   6.400
 4227POPC   C3A56249  43.638   7.954   6.807
 4227POPC   C4A56250  43.877   7.905   7.191
 4227POPC   C1B56251  44.198   8.310   6.230
 4227POPC   C2B56252  44.144   8.193   6.676
 4227POPC   C3B56253  43.939   8.370   7.041
 4227POPC   C4B56254  43.958   8.635   7.420
 4228POPC   NC356255  38.408  16.296   5.328
 4228POPC   PO456256  38.728  16.877   5.389
 4228POPC   GL156257  38.595  16.689   5.778
 4228POPC   GL256258  38.433  16.993   5.877
 4228POPC   C1A56259  38.657  16.627   6.249
 4228POPC   D2A56260  38.358  16.503   6.580
 4228POPC   C3A56261  38.383  16.448   7.050
 4228POPC   C4A56262  38.440  16.566   7.517
 4228POPC   C1B56263  38.253  16.969   6.293
 4228POPC   C2B56264  38.460  16.994   6.688
 4228POPC   C3B56265  38.501  16.935   7.130
 4228POPC   C4B56266  38.301  17.156   7.473
 4229POPC   NC356267  36.429  21.212   5.686
 4229POPC   PO456268  36.985  21.204   5.263
 4229POPC   GL156269  36.946  21.366   5.706
 4229POPC   GL256270  36.876  21.724   5.806
 4229POPC   C1A56271  36.984  21.334   6.174
 4229POPC   D2A56272  36.903  21.378   6.625
 4229POPC   C3A56273  36.680  21.154   6.942
 4229POPC   C4A56274  37.062  21.233   7.176
 4229POPC   C1B56275  36.687  21.770   6.256
 4229POPC   C2B56276  36.752  21.866   6.704
 4229POPC   C3B56277  36.764  21.641   7.088
 4229POPC   C4B56278  36.757  21.761   7.520
 4230POPC   NC356279   6.373  18.258   5.466
 4230POPC   PO456280   7.043  18.382   5.439
 4230POPC   GL156281   6.842  18.214   5.828
 4230POPC   GL256282   6.482  18.115   5.924
 4230POPC   C1A56283   6.875  18.026   6.229
 4230POPC   D2A56284   6.764  18.159   6.632
 4230POPC   C3A56285   6.835  17.929   6.989
 4230POPC   C4A56286   6.934  18.136   7.364
 4230POPC   C1B56287   6.435  18.358   6.303
 4230POPC   C2B56288   6.315  18.453   6.730
 4230POPC   C3B56289   6.245  18.318   7.156
 4230POPC   C4B56290   6.493  18.316   7.517
 4231POPC   NC356291  44.081  10.888   4.939
 4231POPC   PO456292  43.889  11.307   5.432
 4231POPC   GL156293  43.756  11.267   5.868
 4231POPC   GL256294  43.913  11.571   5.942
 4231POPC   C1A56295  43.590  11.347   6.320
 4231POPC   D2A56296  43.455  11.287   6.780
 4231POPC   C3A56297  43.679  11.384   7.187
 4231POPC   C4A56298  43.804  11.330   7.633
 4231POPC   C1B56299  44.022  11.600   6.380
 4231POPC   C2B56300  43.957  11.301   6.748
 4231POPC   C3B56301  44.181  11.223   7.150
 4231POPC   C4B56302  44.329  11.326   7.570
 4232POPC   NC356303  13.823  26.349   5.462
 4232POPC   PO456304  13.157  26.135   5.492
 4232POPC   GL156305  13.462  26.165   5.816
 4232POPC   GL256306  13.435  25.815   5.893
 4232POPC   C1A56307  13.727  26.361   6.161
 4232POPC   D2A56308  13.607  26.416   6.618
 4232POPC   C3A56309  13.732  26.050   6.871
 4232POPC   C4A56310  13.977  26.114   7.268
 4232POPC   C1B56311  13.461  25.954   6.324
 4232POPC   C2B56312  13.174  26.135   6.599
 4232POPC   C3B56313  13.187  26.299   6.984
 4232POPC   C4B56314  13.429  26.018   7.270
 4233POPC   NC356315  40.850  34.250   5.371
 4233POPC   PO456316  40.862  34.877   5.331
 4233POPC   GL156317  40.615  34.622   5.680
 4233POPC   GL256318  40.359  34.335   5.601
 4233POPC   C1A56319  40.791  34.485   6.130
 4233POPC   D2A56320  40.937  34.272   6.557
 4233POPC   C3A56321  40.985  34.456   6.994
 4233POPC   C4A56322  40.675  34.588   7.328
 4233POPC   C1B56323  40.313  34.349   6.050
 4233POPC   C2B56324  40.430  34.301   6.463
 4233POPC   C3B56325  40.510  34.287   6.892
 4233POPC   C4B56326  40.357  34.199   7.274
 4234POPC   NC356327  22.479  34.547   5.343
 4234POPC   PO456328  23.140  34.778   5.317
 4234POPC   GL156329  22.848  34.776   5.644
 4234POPC   GL256330  22.827  34.431   5.743
 4234POPC   C1A56331  22.813  34.809   6.088
 4234POPC   D2A56332  23.083  34.856   6.455
 4234POPC   C3A56333  23.040  34.619   6.824
 4234POPC   C4A56334  23.130  34.597   7.266
 4234POPC   C1B56335  22.880  34.300   6.209
 4234POPC   C2B56336  22.759  34.213   6.634
 4234POPC   C3B56337  22.891  34.186   7.063
 4234POPC   C4B56338  22.803  33.941   7.425
 4235POPC   NC356339  26.370   3.495   5.455
 4235POPC   PO456340  25.742   3.424   5.289
 4235POPC   GL156341  25.952   3.614   5.696
 4235POPC   GL256342  26.206   3.425   5.924
 4235POPC   C1A56343  25.813   3.672   6.145
 4235POPC   D2A56344  26.004   3.553   6.528
 4235POPC   C3A56345  25.830   3.568   6.904
 4235POPC   C4A56346  25.825   3.826   7.241
 4235POPC   C1B56347  26.417   3.331   6.342
 4235POPC   C2B56348  26.400   3.359   6.820
 4235POPC   C3B56349  26.232   3.456   7.238
 4235POPC   C4B56350  26.224   3.284   7.642
 4236POPC   NC356351  41.558  31.151   5.404
 4236POPC   PO456352  41.320  30.508   5.490
 4236POPC   GL156353  41.401  30.528   5.896
 4236POPC   GL256354  41.599  30.789   5.805
 4236POPC   C1A56355  41.449  30.581   6.337
 4236POPC   D2A56356  41.306  30.868   6.609
 4236POPC   C3A56357  41.201  30.641   6.956
 4236POPC   C4A56358  41.389  30.709   7.310
 4236POPC   C1B56359  41.895  30.570   6.078
 4236POPC   C2B56360  41.994  30.616   6.512
 4236POPC   C3B56361  41.756  30.631   6.894
 4236POPC   C4B56362  41.877  30.488   7.277
 4237POPC   NC356363   0.843  26.476   5.590
 4237POPC   PO456364   1.258  27.071   5.445
 4237POPC   GL156365   1.074  26.913   5.829
 4237POPC   GL256366   1.252  26.588   5.874
 4237POPC   C1A56367   0.967  27.104   6.244
 4237POPC   D2A56368   0.912  26.906   6.656
 4237POPC   C3A56369   1.115  27.060   7.013
 4237POPC   C4A56370   1.265  26.933   7.397
 4237POPC   C1B56371   0.968  26.568   6.250
 4237POPC   C2B56372   0.854  26.398   6.672
 4237POPC   C3B56373   1.099  26.535   7.055
 4237POPC   C4B56374   1.501  26.399   7.162
 4238POPC   NC356375  43.306   3.894   5.034
 4238POPC   PO456376  42.961   4.192   5.540
 4238POPC   GL156377  43.015   4.349   5.932
 4238POPC   GL256378  43.342   4.364   5.936
 4238POPC   C1A56379  42.899   4.536   6.341
 4238POPC   D2A56380  42.749   4.533   6.749
 4238POPC   C3A56381  42.794   4.366   7.152
 4238POPC   C4A56382  42.715   4.611   7.537
 4238POPC   C1B56383  43.403   4.493   6.344
 4238POPC   C2B56384  43.320   4.568   6.775
 4238POPC   C3B56385  43.387   4.413   7.209
 4238POPC   C4B56386  43.460   4.309   7.654
 4239POPC   NC356387  33.973   4.900   5.417
 4239POPC   PO456388  33.458   5.196   5.125
 4239POPC   GL156389  33.495   5.047   5.611
 4239POPC   GL256390  33.681   5.328   5.804
 4239POPC   C1A56391  33.558   4.932   6.119
 4239POPC   D2A56392  33.569   4.904   6.637
 4239POPC   C3A56393  33.851   4.990   7.050
 4239POPC   C4A56394  34.218   4.862   7.389
 4239POPC   C1B56395  33.565   5.449   6.255
 4239POPC   C2B56396  33.754   5.418   6.685
 4239POPC   C3B56397  33.550   5.435   7.095
 4239POPC   C4B56398  33.620   5.319   7.539
 4240POPC   NC356399  20.969  36.319   5.517
 4240POPC   PO456400  20.326  35.926   5.565
 4240POPC   GL156401  20.578  36.122   5.788
 4240POPC   GL256402  20.827  35.900   5.804
 4240POPC   C1A56403  20.713  36.369   6.115
 4240POPC   D2A56404  20.568  36.496   6.491
 4240POPC   C3A56405  20.553  36.270   6.854
 4240POPC   C4A56406  20.705  36.366   7.226
 4240POPC   C1B56407  20.604  35.845   6.203
 4240POPC   C2B56408  20.539  35.811   6.620
 4240POPC   C3B56409  20.363  35.757   6.996
 4240POPC   C4B56410  20.713  35.837   7.253
 4241POPC   NC356411   3.606   9.917   5.348
 4241POPC   PO456412   3.076  10.088   5.683
 4241POPC   GL156413   3.528   9.874   5.854
 4241POPC   GL256414   3.915   9.951   5.780
 4241POPC   C1A56415   3.691   9.613   6.223
 4241POPC   D2A56416   3.431   9.528   6.621
 4241POPC   C3A56417   3.496   9.597   7.086
 4241POPC   C4A56418   3.410   9.554   7.540
 4241POPC   C1B56419   4.140   9.900   6.190
 4241POPC   C2B56420   4.138  10.117   6.633
 4241POPC   C3B56421   4.115  10.113   7.108
 4241POPC   C4B56422   3.784   9.931   7.407
 4242POPC   NC356423  42.657  21.977   5.635
 4242POPC   PO456424  42.104  22.302   5.367
 4242POPC   GL156425  42.272  22.294   5.852
 4242POPC   GL256426  42.647  22.318   6.012
 4242POPC   C1A56427  42.263  22.376   6.322
 4242POPC   D2A56428  42.561  22.335   6.650
 4242POPC   C3A56429  42.394  22.117   6.932
 4242POPC   C4A56430  42.088  22.126   7.203
 4242POPC   C1B56431  42.532  21.955   6.288
 4242POPC   C2B56432  42.729  21.834   6.646
 4242POPC   C3B56433  42.670  21.703   7.053
 4242POPC   C4B56434  42.650  22.049   7.359
 4243POPC   NC356435   7.194  17.947   5.517
 4243POPC   PO456436   7.526  17.330   5.383
 4243POPC   GL156437   7.583  17.583   5.777
 4243POPC   GL256438   7.612  17.336   6.001
 4243POPC   C1A56439   7.763  17.767   6.199
 4243POPC   D2A56440   7.770  17.580   6.636
 4243POPC   C3A56441   7.761  17.822   7.027
 4243POPC   C4A56442   7.654  17.788   7.490
 4243POPC   C1B56443   7.241  17.624   6.164
 4243POPC   C2B56444   6.949  17.612   6.536
 4243POPC   C3B56445   7.091  17.483   6.969
 4243POPC   C4B56446   7.481  17.378   7.217
 4244POPC   NC356447  20.711  30.842   4.960
 4244POPC   PO456448  20.316  30.641   5.475
 4244POPC   GL156449  20.454  30.366   5.734
 4244POPC   GL256450  20.783  30.486   5.762
 4244POPC   C1A56451  20.383  30.487   6.139
 4244POPC   D2A56452  20.501  30.474   6.550
 4244POPC   C3A56453  20.433  30.872   6.792
 4244POPC   C4A56454  20.488  30.972   7.249
 4244POPC   C1B56455  20.912  30.593   6.174
 4244POPC   C2B56456  21.006  30.663   6.597
 4244POPC   C3B56457  20.896  30.766   7.019
 4244POPC   C4B56458  20.826  30.642   7.449
 4245POPC   NC356459  13.598   7.080   5.533
 4245POPC   PO456460  13.730   7.707   5.426
 4245POPC   GL156461  13.694   7.508   5.831
 4245POPC   GL256462  13.968   7.240   5.889
 4245POPC   C1A56463  13.419   7.527   6.206
 4245POPC   D2A56464  13.282   7.673   6.611
 4245POPC   C3A56465  13.565   7.530   6.944
 4245POPC   C4A56466  13.455   7.459   7.346
 4245POPC   C1B56467  13.649   7.065   6.187
 4245POPC   C2B56468  13.465   7.181   6.575
 4245POPC   C3B56469  13.331   7.073   6.975
 4245POPC   C4B56470  13.630   6.986   7.227
 4246POPC   NC356471  20.805  33.108   5.257
 4246POPC   PO456472  20.217  32.897   5.425
 4246POPC   GL156473  20.630  32.972   5.717
 4246POPC   GL256474  20.657  33.304   5.731
 4246POPC   C1A56475  20.893  33.086   6.119
 4246POPC   D2A56476  20.996  33.123   6.566
 4246POPC   C3A56477  20.653  33.119   6.875
 4246POPC   C4A56478  20.718  32.868   7.249
 4246POPC   C1B56479  20.390  33.178   6.107
 4246POPC   C2B56480  20.255  33.038   6.522
 4246POPC   C3B56481  20.183  32.838   6.917
 4246POPC   C4B56482  20.236  33.086   7.222
 4247POPC   NC356483   0.902  19.817   5.483
 4247POPC   PO456484   1.584  19.881   5.562
 4247POPC   GL156485   1.271  19.828   5.852
 4247POPC   GL256486   1.142  20.139   5.767
 4247POPC   C1A56487   1.179  19.942   6.257
 4247POPC   D2A56488   1.358  20.009   6.638
 4247POPC   C3A56489   1.159  19.709   6.883
 4247POPC   C4A56490   1.099  19.627   7.304
 4247POPC   C1B56491   0.870  20.345   6.041
 4247POPC   C2B56492   0.740  20.169   6.419
 4247POPC   C3B56493   0.911  20.220   6.807
 4247POPC   C4B56494   1.016  20.114   7.201
 4248POPC   NC356495  15.123  16.587   5.351
 4248POPC   PO456496  15.029  17.154   5.404
 4248POPC   GL156497  14.976  16.911   5.784
 4248POPC   GL256498  15.066  16.568   5.866
 4248POPC   C1A56499  15.184  16.929   6.215
 4248POPC   D2A56500  15.293  17.162   6.599
 4248POPC   C3A56501  15.317  16.919   6.975
 4248POPC   C4A56502  15.521  16.926   7.385
 4248POPC   C1B56503  14.884  16.475   6.284
 4248POPC   C2B56504  14.876  16.493   6.742
 4248POPC   C3B56505  15.125  16.461   7.129
 4248POPC   C4B56506  15.069  16.371   7.571
 4249POPC   NC356507  23.824   0.624   5.577
 4249POPC   PO456508  23.438   0.235   5.202
 4249POPC   GL156509  23.486   0.246   5.722
 4249POPC   GL256510  23.842   0.246   5.904
 4249POPC   C1A56511  23.400   0.289   6.214
 4249POPC   D2A56512  23.290   0.301   6.684
 4249POPC   C3A56513  23.624   0.381   6.970
 4249POPC   C4A56514  24.045   0.258   7.084
 4249POPC   C1B56515  23.822   0.596   6.234
 4249POPC   C2B56516  23.987   0.625   6.643
 4249POPC   C3B56517  23.860   0.818   6.997
 4249POPC   C4B56518  24.138   0.794   7.340
 4250POPC   NC356519  29.946  29.733   5.343
 4250POPC   PO456520  29.934  30.416   5.287
 4250POPC   GL156521  29.934  30.304   5.775
 4250POPC   GL256522  29.700  29.990   5.769
 4250POPC   C1A56523  30.107  30.196   6.245
 4250POPC   D2A56524  30.387  29.909   6.530
 4250POPC   C3A56525  30.291  29.994   6.992
 4250POPC   C4A56526  30.081  29.913   7.400
 4250POPC   C1B56527  29.704  29.899   6.219
 4250POPC   C2B56528  29.865  29.964   6.642
 4250POPC   C3B56529  29.759  29.777   7.015
 4250POPC   C4B56530  29.520  29.784   7.367
 4251POPC   NC356531   9.815   4.009   5.482
 4251POPC   PO456532   9.512   3.381   5.324
 4251POPC   GL156533   9.708   3.533   5.733
 4251POPC   GL256534   9.528   3.819   5.881
 4251POPC   C1A56535   9.579   3.414   6.191
 4251POPC   D2A56536   9.439   3.626   6.574
 4251POPC   C3A56537   9.617   3.487   6.964
 4251POPC   C4A56538   9.766   3.319   7.362
 4251POPC   C1B56539   9.757   3.904   6.287
 4251POPC   C2B56540  10.069   4.002   6.586
 4251POPC   C3B56541   9.805   4.007   6.935
 4251POPC   C4B56542   9.809   3.809   7.319
 4252POPC   NC356543  22.990  32.312   5.236
 4252POPC   PO456544  23.173  31.608   5.250
 4252POPC   GL156545  23.163  31.933   5.634
 4252POPC   GL256546  23.173  32.319   5.717
 4252POPC   C1A56547  22.996  32.028   6.085
 4252POPC   D2A56548  22.845  31.938   6.516
 4252POPC   C3A56549  22.902  32.124   6.925
 4252POPC   C4A56550  23.087  31.966   7.290
 4252POPC   C1B56551  23.101  32.632   6.080
 4252POPC   C2B56552  23.198  32.642   6.546
 4252POPC   C3B56553  23.135  32.637   7.004
 4252POPC   C4B56554  22.929  32.457   7.353
 4253POPC   NC356555  42.105   6.041   5.540
 4253POPC   PO456556  42.662   5.792   5.414
 4253POPC   GL156557  42.637   5.960   5.840
 4253POPC   GL256558  42.355   5.756   5.892
 4253POPC   C1A56559  42.482   6.002   6.296
 4253POPC   D2A56560  42.342   5.974   6.720
 4253POPC   C3A56561  42.538   5.748   7.022
 4253POPC   C4A56562  42.718   5.949   7.386
 4253POPC   C1B56563  42.114   5.560   6.257
 4253POPC   C2B56564  41.924   5.652   6.633
 4253POPC   C3B56565  42.027   5.697   7.065
 4253POPC   C4B56566  42.217   5.791   7.453
 4254POPC   NC356567  42.434  15.402   5.003
 4254POPC   PO456568  42.389  16.029   5.307
 4254POPC   GL156569  42.229  16.112   5.730
 4254POPC   GL256570  42.013  15.854   5.823
 4254POPC   C1A56571  42.283  16.291   6.138
 4254POPC   D2A56572  42.583  16.207   6.459
 4254POPC   C3A56573  42.396  16.015   6.807
 4254POPC   C4A56574  42.518  16.207   7.172
 4254POPC   C1B56575  41.972  15.595   6.186
 4254POPC   C2B56576  42.138  15.567   6.586
 4254POPC   C3B56577  42.222  15.551   6.993
 4254POPC   C4B56578  42.225  15.824   7.287
 4255POPC   NC356579  10.421  29.005   5.383
 4255POPC   PO456580  10.292  29.678   5.492
 4255POPC   GL156581  10.524  29.400   5.808
 4255POPC   GL256582  10.433  29.037   5.882
 4255POPC   C1A56583  10.648  29.383   6.264
 4255POPC   D2A56584  10.792  29.132   6.658
 4255POPC   C3A56585  10.572  29.186   7.053
 4255POPC   C4A56586  10.487  29.468   7.447
 4255POPC   C1B56587  10.615  28.868   6.247
 4255POPC   C2B56588  10.508  28.653   6.604
 4255POPC   C3B56589  10.657  28.649   7.005
 4255POPC   C4B56590  10.443  28.758   7.306
 4256POPC   NC356591  35.066  26.612   5.625
 4256POPC   PO456592  35.634  26.823   5.365
 4256POPC   GL156593  35.599  26.903   5.781
 4256POPC   GL256594  35.748  27.254   5.782
 4256POPC   C1A56595  35.449  26.682   6.191
 4256POPC   D2A56596  35.600  26.672   6.630
 4256POPC   C3A56597  35.303  26.750   6.961
 4256POPC   C4A56598  34.934  26.865   7.216
 4256POPC   C1B56599  35.560  27.176   6.197
 4256POPC   C2B56600  35.407  27.156   6.601
 4256POPC   C3B56601  35.608  27.190   6.958
 4256POPC   C4B56602  35.378  27.094   7.321
 4257POPC   NC356603  26.468  25.881   5.500
 4257POPC   PO456604  26.712  25.218   5.426
 4257POPC   GL156605  26.815  25.322   5.848
 4257POPC   GL256606  26.800  25.684   5.873
 4257POPC   C1A56607  26.978  25.296   6.263
 4257POPC   D2A56608  27.111  25.372   6.697
 4257POPC   C3A56609  27.012  25.053   7.020
 4257POPC   C4A56610  26.736  25.021   7.380
 4257POPC   C1B56611  26.571  25.618   6.229
 4257POPC   C2B56612  26.617  25.357   6.625
 4257POPC   C3B56613  26.734  25.476   7.048
 4257POPC   C4B56614  26.476  25.607   7.367
 4258POPC   NC356615  32.506  27.584   5.599
 4258POPC   PO456616  33.192  27.770   5.469
 4258POPC   GL156617  33.216  27.638   5.859
 4258POPC   GL256618  32.928  27.466   5.830
 4258POPC   C1A56619  33.061  27.741   6.235
 4258POPC   D2A56620  33.010  27.552   6.619
 4258POPC   C3A56621  32.957  27.773   6.971
 4258POPC   C4A56622  33.014  27.889   7.358
 4258POPC   C1B56623  32.788  27.247   6.163
 4258POPC   C2B56624  32.849  27.085   6.563
 4258POPC   C3B56625  32.676  27.245   6.936
 4258POPC   C4B56626  32.751  27.429   7.320
 4259POPC   NC356627  10.622  42.468   5.417
 4259POPC   PO456628  10.375  41.798   5.477
 4259POPC   GL156629  10.411  42.150   5.786
 4259POPC   GL256630  10.204  42.445   5.782
 4259POPC   C1A56631  10.628  42.380   6.157
 4259POPC   D2A56632  10.786  42.175   6.557
 4259POPC   C3A56633  10.840  42.390   6.955
 4259POPC   C4A56634  10.609  42.364   7.374
 4259POPC   C1B56635  10.155  42.629   6.202
 4259POPC   C2B56636  10.376  42.566   6.598
 4259POPC   C3B56637  10.337  42.274   6.933
 4259POPC   C4B56638  10.119  42.422   7.261
 4260POPC   NC356639  39.514  24.646   5.304
 4260POPC   PO456640  39.492  24.104   5.717
 4260POPC   GL156641  39.241  24.354   5.962
 4260POPC   GL256642  39.207  24.603   5.719
 4260POPC   C1A56643  39.197  24.340   6.399
 4260POPC   D2A56644  39.522  24.315   6.708
 4260POPC   C3A56645  39.290  24.472   7.032
 4260POPC   C4A56646  39.109  24.223   7.362
 4260POPC   C1B56647  39.045  24.829   6.062
 4260POPC   C2B56648  38.959  24.798   6.486
 4260POPC   C3B56649  38.881  24.991   6.857
 4260POPC   C4B56650  39.032  24.871   7.251
 4261POPC   NC356651   3.211  17.324   5.454
 4261POPC   PO456652   3.898  17.639   5.471
 4261POPC   GL156653   3.725  17.442   5.806
 4261POPC   GL256654   3.401  17.610   5.855
 4261POPC   C1A56655   3.722  17.544   6.258
 4261POPC   D2A56656   3.508  17.780   6.607
 4261POPC   C3A56657   3.651  17.609   7.007
 4261POPC   C4A56658   3.955  17.294   7.121
 4261POPC   C1B56659   3.128  17.668   6.232
 4261POPC   C2B56660   2.976  17.865   6.650
 4261POPC   C3B56661   3.200  17.869   7.032
 4261POPC   C4B56662   3.146  17.546   7.337
 4262POPC   NC356663  14.168  26.941   5.205
 4262POPC   PO456664  14.803  26.778   5.316
 4262POPC   GL156665  14.465  26.914   5.629
 4262POPC   GL256666  14.195  26.677   5.782
 4262POPC   C1A56667  14.405  27.149   6.014
 4262POPC   D2A56668  14.501  26.982   6.433
 4262POPC   C3A56669  14.412  27.118   6.844
 4262POPC   C4A56670  14.391  26.963   7.259
 4262POPC   C1B56671  14.395  26.493   6.188
 4262POPC   C2B56672  14.447  26.527   6.659
 4262POPC   C3B56673  14.367  26.476   7.087
 4262POPC   C4B56674  14.620  26.484   7.412
 4263POPC   NC356675   4.944   9.199   5.435
 4263POPC   PO456676   4.874   8.582   5.659
 4263POPC   GL156677   4.998   8.910   5.881
 4263POPC   GL256678   5.316   8.923   5.722
 4263POPC   C1A56679   4.971   8.900   6.327
 4263POPC   D2A56680   4.982   9.015   6.740
 4263POPC   C3A56681   4.944   8.764   7.035
 4263POPC   C4A56682   4.986   8.980   7.417
 4263POPC   C1B56683   5.455   8.965   6.172
 4263POPC   C2B56684   5.483   9.055   6.626
 4263POPC   C3B56685   5.399   9.035   7.097
 4263POPC   C4B56686   5.444   9.112   7.563
 4264POPC   NC356687  24.079  15.536   5.414
 4264POPC   PO456688  23.854  14.894   5.444
 4264POPC   GL156689  23.830  15.203   5.775
 4264POPC   GL256690  23.977  15.506   5.897
 4264POPC   C1A56691  23.748  15.143   6.210
 4264POPC   D2A56692  23.525  15.164   6.622
 4264POPC   C3A56693  23.582  15.238   7.056
 4264POPC   C4A56694  23.718  15.056   7.439
 4264POPC   C1B56695  24.191  15.459   6.242
 4264POPC   C2B56696  23.958  15.450   6.603
 4264POPC   C3B56697  23.935  15.593   7.012
 4264POPC   C4B56698  24.072  15.474   7.416
 4265POPC   NC356699  27.093   1.116   5.450
 4265POPC   PO456700  26.531   1.466   5.210
 4265POPC   GL156701  26.543   1.344   5.700
 4265POPC   GL256702  26.874   1.204   5.907
 4265POPC   C1A56703  26.426   1.196   6.137
 4265POPC   D2A56704  26.710   1.142   6.463
 4265POPC   C3A56705  26.523   1.147   6.861
 4265POPC   C4A56706  26.712   1.024   7.243
 4265POPC   C1B56707  27.155   1.349   6.275
 4265POPC   C2B56708  27.256   1.387   6.763
 4265POPC   C3B56709  27.203   1.394   7.236
 4265POPC   C4B56710  27.281   1.445   7.726
 4266POPC   NC356711  39.654  41.324   5.299
 4266POPC   PO456712  39.016  41.599   5.354
 4266POPC   GL156713  39.257  41.603   5.731
 4266POPC   GL256714  39.548  41.372   5.810
 4266POPC   C1A56715  39.147  41.641   6.166
 4266POPC   D2A56716  39.043  41.467   6.569
 4266POPC   C3A56717  39.150  41.595   6.976
 4266POPC   C4A56718  39.056  41.758   7.389
 4266POPC   C1B56719  39.728  41.288   6.230
 4266POPC   C2B56720  39.519  41.307   6.650
 4266POPC   C3B56721  39.439  41.123   7.041
 4266POPC   C4B56722  39.667  41.024   7.440
 4267POPC   NC356723  42.721  12.126   5.602
 4267POPC   PO456724  42.128  11.936   5.371
 4267POPC   GL156725  42.222  12.149   5.779
 4267POPC   GL256726  42.524  12.212   6.042
 4267POPC   C1A56727  42.061  12.175   6.215
 4267POPC   D2A56728  42.393  12.158   6.531
 4267POPC   C3A56729  42.379  12.191   6.942
 4267POPC   C4A56730  42.155  11.937   7.234
 4267POPC   C1B56731  42.594  11.801   6.225
 4267POPC   C2B56732  42.695  11.581   6.531
 4267POPC   C3B56733  42.767  11.864   6.844
 4267POPC   C4B56734  42.682  11.877   7.230
 4268POPC   NC356735  29.029  44.405   5.353
 4268POPC   PO456736  29.130  43.770   5.211
 4268POPC   GL156737  29.294  43.832   5.619
 4268POPC   GL256738  29.023  44.035   5.750
 4268POPC   C1A56739  29.233  43.645   6.048
 4268POPC   D2A56740  28.961  43.628   6.429
 4268POPC   C3A56741  29.157  43.632   6.847
 4268POPC   C4A56742  29.372  43.958   7.055
 4268POPC   C1B56743  28.774  44.165   6.126
 4268POPC   C2B56744  28.684  44.128   6.572
 4268POPC   C3B56745  28.870  44.129   6.979
 4268POPC   C4B56746  28.650  44.198   7.362
 4269POPC   NC356747  31.858  36.390   5.557
 4269POPC   PO456748  32.442  36.089   5.312
 4269POPC   GL156749  32.192  36.037   5.718
 4269POPC   GL256750  31.975  35.743   5.672
 4269POPC   C1A56751  32.162  36.148   6.219
 4269POPC   D2A56752  32.429  36.037   6.602
 4269POPC   C3A56753  32.480  36.153   7.047
 4269POPC   C4A56754  32.081  36.262   7.195
 4269POPC   C1B56755  32.158  35.679   6.073
 4269POPC   C2B56756  32.061  35.677   6.524
 4269POPC   C3B56757  32.150  35.572   6.909
 4269POPC   C4B56758  32.233  35.763   7.253
 4270POPC   NC356759  10.760  44.392   5.415
 4270POPC   PO456760  10.476  43.719   5.497
 4270POPC   GL156761  10.508  43.866   5.872
 4270POPC   GL256762  10.764  44.110   5.842
 4270POPC   C1A56763  10.620  43.723   6.244
 4270POPC   D2A56764  10.614  43.943   6.592
 4270POPC   C3A56765  10.663  43.696   6.932
 4270POPC   C4A56766  10.431  43.665   7.291
 4270POPC   C1B56767  10.685  44.320   6.228
 4270POPC   C2B56768  10.941  44.358   6.621
 4270POPC   C3B56769  10.754  44.219   7.004
 4270POPC   C4B56770  10.858  43.937   7.344
 4271POPC   NC356771   6.573  17.228   5.609
 4271POPC   PO456772   6.679  17.849   5.495
 4271POPC   GL156773   6.688  17.637   5.917
 4271POPC   GL256774   6.338  17.606   5.914
 4271POPC   C1A56775   6.555  17.343   6.298
 4271POPC   D2A56776   6.493  17.489   6.728
 4271POPC   C3A56777   6.470  17.311   7.123
 4271POPC   C4A56778   6.744  17.521   7.344
 4271POPC   C1B56779   6.409  17.834   6.347
 4271POPC   C2B56780   6.332  17.950   6.804
 4271POPC   C3B56781   6.382  17.839   7.236
 4271POPC   C4B56782   6.169  17.957   7.607
 4272POPC   NC356783  21.140   5.871   5.129
 4272POPC   PO456784  20.491   5.910   5.347
 4272POPC   GL156785  20.581   6.144   5.727
 4272POPC   GL256786  20.706   5.901   5.975
 4272POPC   C1A56787  20.392   6.280   6.135
 4272POPC   D2A56788  20.437   5.999   6.510
 4272POPC   C3A56789  20.519   6.174   6.915
 4272POPC   C4A56790  20.683   6.322   7.301
 4272POPC   C1B56791  20.376   5.619   6.177
 4272POPC   C2B56792  20.303   5.487   6.643
 4272POPC   C3B56793  20.392   5.607   7.105
 4272POPC   C4B56794  20.613   5.573   7.519
 4273POPC   NC356795  38.076  39.452   5.569
 4273POPC   PO456796  37.709  39.036   5.164
 4273POPC   GL156797  37.643  39.120   5.704
 4273POPC   GL256798  37.445  38.893   5.862
 4273POPC   C1A56799  37.821  39.234   6.148
 4273POPC   D2A56800  37.755  39.286   6.611
 4273POPC   C3A56801  37.756  39.347   7.073
 4273POPC   C4A56802  37.851  39.111   7.501
 4273POPC   C1B56803  37.424  38.966   6.342
 4273POPC   C2B56804  37.312  39.097   6.792
 4273POPC   C3B56805  37.374  39.051   7.258
 4273POPC   C4B56806  37.480  38.738   7.599
 4274POPC   NC356807  40.240   4.261   5.410
 4274POPC   PO456808  39.639   3.987   5.564
 4274POPC   GL156809  39.912   4.261   5.818
 4274POPC   GL256810  40.276   4.131   5.896
 4274POPC   C1A56811  39.948   4.269   6.270
 4274POPC   D2A56812  39.844   3.948   6.572
 4274POPC   C3A56813  39.893   4.074   6.979
 4274POPC   C4A56814  40.241   4.055   7.227
 4274POPC   C1B56815  40.403   4.488   6.121
 4274POPC   C2B56816  40.384   4.652   6.571
 4274POPC   C3B56817  40.315   4.638   7.059
 4274POPC   C4B56818  40.466   4.735   7.511
 4275POPC   NC356819  26.851  35.495   5.427
 4275POPC   PO456820  26.548  34.883   5.475
 4275POPC   GL156821  26.766  35.082   5.807
 4275POPC   GL256822  26.607  35.402   5.892
 4275POPC   C1A56823  26.997  35.058   6.200
 4275POPC   D2A56824  27.212  35.002   6.614
 4275POPC   C3A56825  26.948  35.040   6.968
 4275POPC   C4A56826  26.831  35.406   7.201
 4275POPC   C1B56827  26.490  35.153   6.284
 4275POPC   C2B56828  26.529  34.907   6.700
 4275POPC   C3B56829  26.413  35.088   7.147
 4275POPC   C4B56830  26.479  35.300   7.565
 4276POPC   NC356831   2.403  31.041   5.579
 4276POPC   PO456832   2.460  31.653   5.227
 4276POPC   GL156833   2.701  31.712   5.633
 4276POPC   GL256834   2.685  31.388   5.801
 4276POPC   C1A56835   2.852  31.776   6.065
 4276POPC   D2A56836   2.595  31.939   6.398
 4276POPC   C3A56837   2.649  31.703   6.764
 4276POPC   C4A56838   2.833  31.798   7.138
 4276POPC   C1B56839   2.654  31.306   6.253
 4276POPC   C2B56840   2.729  31.170   6.669
 4276POPC   C3B56841   2.707  31.296   7.077
 4276POPC   C4B56842   3.004  31.397   7.428
 4277POPC   NC356843  14.117  23.055   5.349
 4277POPC   PO456844  14.769  22.739   5.280
 4277POPC   GL156845  14.553  22.766   5.700
 4277POPC   GL256846  14.457  23.088   5.754
 4277POPC   C1A56847  14.687  22.975   6.165
 4277POPC   D2A56848  14.732  23.137   6.571
 4277POPC   C3A56849  14.552  22.810   6.826
 4277POPC   C4A56850  14.483  22.673   7.237
 4277POPC   C1B56851  14.192  22.810   6.069
 4277POPC   C2B56852  14.054  22.887   6.500
 4277POPC   C3B56853  14.224  23.204   6.782
 4277POPC   C4B56854  14.096  23.238   7.208
 4278POPC   NC356855  38.669  36.297   5.404
 4278POPC   PO456856  38.216  36.676   5.420
 4278POPC   GL156857  38.237  36.322   5.770
 4278POPC   GL256858  38.511  36.073   5.821
 4278POPC   C1A56859  38.182  36.127   6.190
 4278POPC   D2A56860  38.519  36.154   6.491
 4278POPC   C3A56861  38.335  36.079   6.882
 4278POPC   C4A56862  38.419  36.132   7.287
 4278POPC   C1B56863  38.703  35.789   6.112
 4278POPC   C2B56864  38.777  35.684   6.527
 4278POPC   C3B56865  38.826  35.899   6.887
 4278POPC   C4B56866  38.887  35.736   7.282
 4279POPC   NC356867  26.551   0.235   5.510
 4279POPC   PO456868  26.706   0.863   5.530
 4279POPC   GL156869  26.999   0.703   5.836
 4279POPC   GL256870  26.932   0.330   5.873
 4279POPC   C1A56871  26.896   0.665   6.278
 4279POPC   D2A56872  26.740   0.695   6.720
 4279POPC   C3A56873  26.909   0.436   7.027
 4279POPC   C4A56874  27.162   0.525   7.365
 4279POPC   C1B56875  26.548   0.304   6.173
 4279POPC   C2B56876  26.406   0.341   6.603
 4279POPC   C3B56877  26.421   0.221   7.078
 4279POPC   C4B56878  26.739   0.199   7.452
 4280POPC   NC356879  43.814  25.065   5.190
 4280POPC   PO456880  43.787  25.659   5.456
 4280POPC   GL156881  43.919  25.312   5.737
 4280POPC   GL256882  43.623  25.411   5.888
 4280POPC   C1A56883  43.858  25.054   6.184
 4280POPC   D2A56884  43.969  25.007   6.662
 4280POPC   C3A56885  43.672  25.062   7.026
 4280POPC   C4A56886  43.634  25.179   7.482
 4280POPC   C1B56887  43.939  25.546   6.215
 4280POPC   C2B56888  43.818  25.498   6.651
 4280POPC   C3B56889  44.070  25.423   7.014
 4280POPC   C4B56890  44.352  25.493   7.363
 4281POPC   NC356891  27.991   6.417   5.454
 4281POPC   PO456892  27.399   6.664   5.351
 4281POPC   GL156893  27.477   6.386   5.708
 4281POPC   GL256894  27.388   6.676   5.913
 4281POPC   C1A56895  27.624   6.309   6.155
 4281POPC   D2A56896  27.770   6.513   6.542
 4281POPC   C3A56897  27.596   6.442   6.928
 4281POPC   C4A56898  27.628   6.511   7.340
 4281POPC   C1B56899  27.681   6.878   6.190
 4281POPC   C2B56900  27.678   6.987   6.660
 4281POPC   C3B56901  27.680   7.114   7.062
 4281POPC   C4B56902  27.461   6.979   7.395
 4282POPC   NC356903  34.152   1.029   5.247
 4282POPC   PO456904  33.691   1.391   5.528
 4282POPC   GL156905  33.938   1.158   5.839
 4282POPC   GL256906  33.754   0.912   6.012
 4282POPC   C1A56907  33.977   1.264   6.307
 4282POPC   D2A56908  33.737   1.417   6.677
 4282POPC   C3A56909  34.034   1.360   7.015
 4282POPC   C4A56910  34.027   1.372   7.490
 4282POPC   C1B56911  33.620   0.934   6.459
 4282POPC   C2B56912  33.642   0.932   6.894
 4282POPC   C3B56913  33.885   0.955   7.246
 4282POPC   C4B56914  34.324   0.990   7.324
 4283POPC   NC356915  37.208  10.198   5.476
 4283POPC   PO456916  37.763  10.625   5.416
 4283POPC   GL156917  37.611  10.656   5.832
 4283POPC   GL256918  37.901  10.447   5.892
 4283POPC   C1A56919  37.834  10.854   6.179
 4283POPC   D2A56920  38.040  10.743   6.545
 4283POPC   C3A56921  37.802  10.662   6.878
 4283POPC   C4A56922  37.719  10.429   7.215
 4283POPC   C1B56923  37.583  10.256   6.178
 4283POPC   C2B56924  37.568  10.205   6.648
 4283POPC   C3B56925  37.332  10.144   7.057
 4283POPC   C4B56926  37.427  10.163   7.536
 4284POPC   NC356927  13.260  18.243   5.603
 4284POPC   PO456928  12.663  18.439   5.630
 4284POPC   GL156929  12.893  18.462   5.959
 4284POPC   GL256930  12.974  18.113   5.996
 4284POPC   C1A56931  12.697  18.559   6.337
 4284POPC   D2A56932  12.627  18.419   6.724
 4284POPC   C3A56933  12.927  18.619   7.003
 4284POPC   C4A56934  12.845  18.678   7.417
 4284POPC   C1B56935  12.760  17.999   6.355
 4284POPC   C2B56936  12.844  17.938   6.775
 4284POPC   C3B56937  12.786  18.140   7.141
 4284POPC   C4B56938  13.076  18.059   7.430
 4285POPC   NC356939  29.626   2.048   5.093
 4285POPC   PO456940  30.132   1.736   5.386
 4285POPC   GL156941  29.953   1.932   5.794
 4285POPC   GL256942  29.720   2.188   5.718
 4285POPC   C1A56943  29.772   1.915   6.270
 4285POPC   D2A56944  29.690   1.885   6.770
 4285POPC   C3A56945  30.031   1.815   7.107
 4285POPC   C4A56946  30.289   1.656   7.505
 4285POPC   C1B56947  29.795   2.404   6.105
 4285POPC   C2B56948  29.674   2.345   6.524
 4285POPC   C3B56949  29.831   2.364   6.931
 4285POPC   C4B56950  29.730   2.221   7.339
 4286POPC   NC356951  28.880  27.318   5.376
 4286POPC   PO456952  29.039  27.949   5.531
 4286POPC   GL156953  28.888  27.792   5.911
 4286POPC   GL256954  28.768  27.462   5.854
 4286POPC   C1A56955  28.793  27.841   6.350
 4286POPC   D2A56956  28.734  27.960   6.792
 4286POPC   C3A56957  29.059  27.780   7.099
 4286POPC   C4A56958  29.384  27.444   7.073
 4286POPC   C1B56959  28.804  27.333   6.279
 4286POPC   C2B56960  28.970  27.463   6.689
 4286POPC   C3B56961  28.867  27.292   7.075
 4286POPC   C4B56962  28.771  26.863   7.179
 4287POPC   NC356963  41.432  42.848   5.333
 4287POPC   PO456964  41.704  43.492   5.268
 4287POPC   GL156965  41.576  43.211   5.697
 4287POPC   GL256966  41.311  42.951   5.795
 4287POPC   C1A56967  41.652  43.052   6.156
 4287POPC   D2A56968  41.836  43.205   6.574
 4287POPC   C3A56969  41.622  43.394   6.932
 4287POPC   C4A56970  41.745  43.209   7.334
 4287POPC   C1B56971  41.264  42.690   6.146
 4287POPC   C2B56972  41.414  42.657   6.555
 4287POPC   C3B56973  41.537  42.883   6.924
 4287POPC   C4B56974  41.392  42.759   7.303
 4288POPC   NC356975   9.158  35.534   5.730
 4288POPC   PO456976   8.875  36.039   5.361
 4288POPC   GL156977   8.828  36.105   5.777
 4288POPC   GL256978   9.167  36.063   5.818
 4288POPC   C1A56979   8.664  36.206   6.198
 4288POPC   D2A56980   8.542  36.012   6.610
 4288POPC   C3A56981   8.677  36.144   7.052
 4288POPC   C4A56982   8.754  36.123   7.557
 4288POPC   C1B56983   9.380  35.939   6.184
 4288POPC   C2B56984   9.376  35.696   6.547
 4288POPC   C3B56985   9.437  35.825   6.960
 4288POPC   C4B56986   9.158  36.115   7.206
 4289POPC   NC356987  33.664  29.358   5.387
 4289POPC   PO456988  34.225  28.974   5.415
 4289POPC   GL156989  33.942  29.094   5.712
 4289POPC   GL256990  34.127  29.366   5.777
 4289POPC   C1A56991  33.725  29.112   6.085
 4289POPC   D2A56992  33.649  28.945   6.502
 4289POPC   C3A56993  33.685  29.036   6.908
 4289POPC   C4A56994  33.699  29.149   7.303
 4289POPC   C1B56995  34.114  29.378   6.203
 4289POPC   C2B56996  33.886  29.405   6.563
 4289POPC   C3B56997  34.055  29.369   6.972
 4289POPC   C4B56998  33.994  29.595   7.301
 4290POPC   NC356999  28.397  29.389   5.518
 4290POPC   PO457000  28.414  28.726   5.456
 4290POPC   GL157001  28.318  28.941   5.823
 4290POPC   GL257002  28.027  29.204   5.805
 4290POPC   C1A57003  28.423  28.835   6.241
 4290POPC   D2A57004  28.516  29.121   6.555
 4290POPC   C3A57005  28.447  28.882   6.910
 4290POPC   C4A57006  28.509  29.067   7.278
 4290POPC   C1B57007  28.200  29.315   6.184
 4290POPC   C2B57008  28.006  29.237   6.575
 4290POPC   C3B57009  28.171  29.312   6.961
 4290POPC   C4B57010  28.178  29.454   7.344
 4291POPC   NC357011   6.429  20.147   5.693
 4291POPC   PO457012   6.576  19.668   5.273
 4291POPC   GL157013   6.625  19.691   5.780
 4291POPC   GL257014   6.879  19.924   5.924
 4291POPC   C1A57015   6.481  19.747   6.211
 4291POPC   D2A57016   6.381  19.781   6.618
 4291POPC   C3A57017   6.452  19.581   7.006
 4291POPC   C4A57018   6.641  19.798   7.354
 4291POPC   C1B57019   6.958  19.890   6.372
 4291POPC   C2B57020   6.893  19.646   6.742
 4291POPC   C3B57021   7.018  19.480   7.150
 4291POPC   C4B57022   7.014  19.549   7.632
 4292POPC   NC357023  10.911  43.641   5.641
 4292POPC   PO457024  11.221  44.196   5.470
 4292POPC   GL157025  11.269  43.987   5.838
 4292POPC   GL257026  11.425  43.672   5.704
 4292POPC   C1A57027  11.081  43.979   6.245
 4292POPC   D2A57028  11.357  43.958   6.586
 4292POPC   C3A57029  11.217  43.910   6.999
 4292POPC   C4A57030  11.343  44.032   7.455
 4292POPC   C1B57031  11.381  43.580   6.144
 4292POPC   C2B57032  11.504  43.454   6.552
 4292POPC   C3B57033  11.577  43.522   6.967
 4292POPC   C4B57034  11.339  43.545   7.336
 4293POPC   NC357035   5.386  38.879   5.638
 4293POPC   PO457036   5.905  38.592   5.319
 4293POPC   GL157037   5.839  38.501   5.736
 4293POPC   GL257038   5.590  38.230   5.735
 4293POPC   C1A57039   5.953  38.611   6.156
 4293POPC   D2A57040   5.838  38.440   6.542
 4293POPC   C3A57041   5.996  38.545   6.921
 4293POPC   C4A57042   5.878  38.543   7.335
 4293POPC   C1B57043   5.779  38.112   6.132
 4293POPC   C2B57044   5.577  38.005   6.532
 4293POPC   C3B57045   5.722  38.102   6.943
 4293POPC   C4B57046   5.464  38.171   7.263
 4294POPC   NC357047  40.855   3.704   5.467
 4294POPC   PO457048  40.648   3.124   5.623
 4294POPC   GL157049  40.801   3.413   5.874
 4294POPC   GL257050  41.145   3.375   5.834
 4294POPC   C1A57051  40.986   3.653   6.212
 4294POPC   D2A57052  40.770   3.731   6.560
 4294POPC   C3A57053  40.909   3.607   6.908
 4294POPC   C4A57054  40.804   3.823   7.279
 4294POPC   C1B57055  41.041   3.103   6.182
 4294POPC   C2B57056  40.928   3.192   6.556
 4294POPC   C3B57057  40.944   3.091   6.938
 4294POPC   C4B57058  40.931   3.307   7.311
 4295POPC   NC357059  28.897  42.596   5.337
 4295POPC   PO457060  29.381  42.047   5.411
 4295POPC   GL157061  29.426  42.317   5.793
 4295POPC   GL257062  29.080  42.443   5.852
 4295POPC   C1A57063  29.342  42.323   6.254
 4295POPC   D2A57064  29.031  42.263   6.569
 4295POPC   C3A57065  29.280  42.240   6.883
 4295POPC   C4A57066  29.237  42.134   7.293
 4295POPC   C1B57067  29.041  42.715   6.223
 4295POPC   C2B57068  29.217  42.717   6.621
 4295POPC   C3B57069  29.031  42.644   7.033
 4295POPC   C4B57070  28.880  42.839   7.404
 4296POPC   NC357071   8.334  40.987   5.523
 4296POPC   PO457072   7.938  40.429   5.279
 4296POPC   GL157073   8.006  40.529   5.755
 4296POPC   GL257074   8.123  40.810   5.928
 4296POPC   C1A57075   8.126  40.386   6.196
 4296POPC   D2A57076   8.477  40.477   6.488
 4296POPC   C3A57077   8.352  40.410   6.915
 4296POPC   C4A57078   8.288  40.579   7.327
 4296POPC   C1B57079   8.041  41.133   6.213
 4296POPC   C2B57080   8.245  41.112   6.603
 4296POPC   C3B57081   8.333  40.982   7.013
 4296POPC   C4B57082   8.038  41.046   7.337
 4297POPC   NC357083  13.424   1.610   5.240
 4297POPC   PO457084  13.212   1.034   5.405
 4297POPC   GL157085  13.498   1.144   5.778
 4297POPC   GL257086  13.781   0.914   5.885
 4297POPC   C1A57087  13.439   1.222   6.241
 4297POPC   D2A57088  13.696   1.243   6.634
 4297POPC   C3A57089  13.547   1.384   7.045
 4297POPC   C4A57090  13.440   1.160   7.414
 4297POPC   C1B57091  13.625   0.737   6.267
 4297POPC   C2B57092  13.573   0.743   6.704
 4297POPC   C3B57093  13.738   0.874   7.106
 4297POPC   C4B57094  13.778   0.793   7.582
 4298POPC   NC357095  35.996  16.037   5.347
 4298POPC   PO457096  36.638  15.865   5.300
 4298POPC   GL157097  36.413  15.864   5.739
 4298POPC   GL257098  36.048  15.908   5.827
 4298POPC   C1A57099  36.367  15.951   6.204
 4298POPC   D2A57100  36.127  15.944   6.547
 4298POPC   C3A57101  36.342  16.002   6.908
 4298POPC   C4A57102  36.142  15.966   7.288
 4298POPC   C1B57103  35.918  16.225   6.146
 4298POPC   C2B57104  35.984  16.437   6.523
 4298POPC   C3B57105  35.919  16.302   6.923
 4298POPC   C4B57106  35.655  16.193   7.240
 4299POPC   NC357107  32.656  12.126   5.507
 4299POPC   PO457108  33.359  11.868   5.598
 4299POPC   GL157109  33.016  11.979   5.852
 4299POPC   GL257110  32.910  11.667   5.987
 4299POPC   C1A57111  33.009  12.165   6.278
 4299POPC   D2A57112  33.192  12.282   6.694
 4299POPC   C3A57113  32.918  12.312   7.059
 4299POPC   C4A57114  32.998  12.233   7.488
 4299POPC   C1B57115  32.677  11.757   6.365
 4299POPC   C2B57116  32.817  11.916   6.765
 4299POPC   C3B57117  33.179  11.861   7.094
 4299POPC   C4B57118  33.378  11.877   7.536
 4300POPC   NC357119  32.616  15.350   5.194
 4300POPC   PO457120  33.125  14.953   5.378
 4300POPC   GL157121  33.004  15.175   5.770
 4300POPC   GL257122  33.294  15.239   5.980
 4300POPC   C1A57123  32.788  15.222   6.193
 4300POPC   D2A57124  32.786  15.429   6.633
 4300POPC   C3A57125  32.883  15.187   7.021
 4300POPC   C4A57126  32.794  14.986   7.443
 4300POPC   C1B57127  33.284  14.870   6.269
 4300POPC   C2B57128  33.415  14.739   6.727
 4300POPC   C3B57129  33.263  14.862   7.172
 4300POPC   C4B57130  33.277  14.959   7.638
 4301POPC   NC357131   1.686   5.206   5.588
 4301POPC   PO457132   2.348   5.296   5.403
 4301POPC   GL157133   2.170   5.108   5.790
 4301POPC   GL257134   2.447   5.033   5.957
 4301POPC   C1A57135   2.027   5.192   6.245
 4301POPC   D2A57136   2.034   5.262   6.710
 4301POPC   C3A57137   1.710   5.187   7.029
 4301POPC   C4A57138   1.478   5.330   7.401
 4301POPC   C1B57139   2.399   4.834   6.350
 4301POPC   C2B57140   2.444   4.930   6.786
 4301POPC   C3B57141   2.233   5.059   7.137
 4301POPC   C4B57142   2.059   5.417   7.353
 4302POPC   NC357143  33.742  17.034   5.543
 4302POPC   PO457144  33.905  16.399   5.569
 4302POPC   GL157145  33.682  16.519   5.915
 4302POPC   GL257146  33.444  16.761   5.843
 4302POPC   C1A57147  33.547  16.558   6.333
 4302POPC   D2A57148  33.734  16.821   6.644
 4302POPC   C3A57149  33.798  16.677   7.063
 4302POPC   C4A57150  33.496  16.685   7.389
 4302POPC   C1B57151  33.554  17.057   6.187
 4302POPC   C2B57152  33.547  17.306   6.574
 4302POPC   C3B57153  33.597  17.163   6.991
 4302POPC   C4B57154  33.245  17.129   7.243
 4303POPC   NC357155  41.682  22.149   5.490
 4303POPC   PO457156  41.326  22.694   5.431
 4303POPC   GL157157  41.342  22.423   5.769
 4303POPC   GL257158  41.202  22.067   5.675
 4303POPC   C1A57159  41.634  22.463   6.138
 4303POPC   D2A57160  41.792  22.278   6.525
 4303POPC   C3A57161  41.622  22.428   6.888
 4303POPC   C4A57162  41.588  22.214   7.237
 4303POPC   C1B57163  41.375  21.886   6.087
 4303POPC   C2B57164  41.425  21.808   6.545
 4303POPC   C3B57165  41.639  21.797   6.955
 4303POPC   C4B57166  41.330  21.794   7.322
 4304POPC   NC357167  19.508  32.672   5.288
 4304POPC   PO457168  19.611  33.402   5.297
 4304POPC   GL157169  19.678  33.080   5.648
 4304POPC   GL257170  19.580  32.708   5.786
 4304POPC   C1A57171  19.771  33.067   6.088
 4304POPC   D2A57172  19.574  33.154   6.477
 4304POPC   C3A57173  19.841  33.215   6.817
 4304POPC   C4A57174  19.745  33.225   7.239
 4304POPC   C1B57175  19.354  32.750   6.191
 4304POPC   C2B57176  19.295  32.662   6.650
 4304POPC   C3B57177  19.534  32.816   6.996
 4304POPC   C4B57178  19.847  32.723   7.299
 4305POPC   NC357179  21.806   5.742   5.347
 4305POPC   PO457180  22.260   6.259   5.384
 4305POPC   GL157181  22.298   6.013   5.781
 4305POPC   GL257182  22.441   5.678   5.761
 4305POPC   C1A57183  22.027   5.846   6.085
 4305POPC   D2A57184  21.871   5.918   6.500
 4305POPC   C3A57185  22.070   5.775   6.869
 4305POPC   C4A57186  21.965   5.743   7.289
 4305POPC   C1B57187  22.447   5.599   6.209
 4305POPC   C2B57188  22.517   5.837   6.591
 4305POPC   C3B57189  22.563   5.766   7.043
 4305POPC   C4B57190  22.403   6.016   7.385
 4306POPC   NC357191  11.507  30.632   5.493
 4306POPC   PO457192  11.013  30.871   5.260
 4306POPC   GL157193  11.181  30.933   5.755
 4306POPC   GL257194  11.400  30.703   5.978
 4306POPC   C1A57195  11.127  31.035   6.229
 4306POPC   D2A57196  11.337  30.845   6.605
 4306POPC   C3A57197  11.207  30.889   7.057
 4306POPC   C4A57198  11.486  30.916   7.468
 4306POPC   C1B57199  11.509  30.409   6.314
 4306POPC   C2B57200  11.479  30.340   6.771
 4306POPC   C3B57201  11.534  30.524   7.161
 4306POPC   C4B57202  11.865  30.598   7.519
 4307POPC   NC357203   0.940   0.042   5.423
 4307POPC   PO457204   1.406  44.562   5.343
 4307POPC   GL157205   1.229  44.663   5.754
 4307POPC   GL257206   0.886  44.786   5.896
 4307POPC   C1A57207   1.393  44.712   6.148
 4307POPC   D2A57208   1.164  44.889   6.500
 4307POPC   C3A57209   1.222  44.713   6.910
 4307POPC   C4A57210   1.370  44.895   7.303
 4307POPC   C1B57211   0.924  44.514   6.272
 4307POPC   C2B57212   0.907  44.351   6.715
 4307POPC   C3B57213   0.825  44.506   7.160
 4307POPC   C4B57214   0.980  44.266   7.533
 4308POPC   NC357215  17.117  25.959   5.479
 4308POPC   PO457216  16.486  25.842   5.403
 4308POPC   GL157217  16.725  25.992   5.819
 4308POPC   GL257218  16.967  25.749   5.932
 4308POPC   C1A57219  16.838  26.189   6.272
 4308POPC   D2A57220  16.780  26.116   6.767
 4308POPC   C3A57221  16.471  26.221   7.152
 4308POPC   C4A57222  16.313  26.303   7.597
 4308POPC   C1B57223  16.613  25.725   6.242
 4308POPC   C2B57224  16.602  25.631   6.688
 4308POPC   C3B57225  16.678  25.743   7.115
 4308POPC   C4B57226  17.046  25.603   7.390
 4309POPC   NC357227  21.114   1.577   5.536
 4309POPC   PO457228  21.770   1.904   5.422
 4309POPC   GL157229  21.494   1.914   5.792
 4309POPC   GL257230  21.764   1.792   5.963
 4309POPC   C1A57231  21.270   2.169   6.143
 4309POPC   D2A57232  21.376   2.346   6.575
 4309POPC   C3A57233  21.313   2.167   7.019
 4309POPC   C4A57234  21.336   2.149   7.492
 4309POPC   C1B57235  21.476   1.740   6.316
 4309POPC   C2B57236  21.307   1.718   6.739
 4309POPC   C3B57237  21.482   1.631   7.139
 4309POPC   C4B57238  21.316   1.473   7.496
 4310POPC   NC357239  41.158  25.237   5.407
 4310POPC   PO457240  40.545  25.456   5.368
 4310POPC   GL157241  40.728  25.389   5.789
 4310POPC   GL257242  40.581  25.640   6.020
 4310POPC   C1A57243  40.948  25.255   6.206
 4310POPC   D2A57244  40.810  25.232   6.661
 4310POPC   C3A57245  41.037  25.138   7.080
 4310POPC   C4A57246  41.024  25.020   7.566
 4310POPC   C1B57247  40.424  25.254   6.191
 4310POPC   C2B57248  40.281  25.163   6.604
 4310POPC   C3B57249  40.437  25.298   6.988
 4310POPC   C4B57250  40.592  25.175   7.354
 4311POPC   NC357251  29.280   5.651   5.537
 4311POPC   PO457252  29.037   6.291   5.295
 4311POPC   GL157253  29.139   6.161   5.745
 4311POPC   GL257254  28.947   5.894   5.860
 4311POPC   C1A57255  29.167   6.241   6.192
 4311POPC   D2A57256  29.340   6.044   6.573
 4311POPC   C3A57257  29.051   6.105   6.889
 4311POPC   C4A57258  29.113   6.032   7.294
 4311POPC   C1B57259  29.233   5.704   6.197
 4311POPC   C2B57260  29.339   5.490   6.601
 4311POPC   C3B57261  29.236   5.559   7.040
 4311POPC   C4B57262  29.115   5.557   7.471
 4312POPC   NC357263  10.947  33.540   5.351
 4312POPC   PO457264  11.260  34.137   5.025
 4312POPC   GL157265  11.371  34.004   5.573
 4312POPC   GL257266  11.180  33.803   5.751
 4312POPC   C1A57267  11.578  33.760   6.032
 4312POPC   D2A57268  11.489  33.772   6.496
 4312POPC   C3A57269  11.573  33.587   6.895
 4312POPC   C4A57270  11.535  33.879   7.205
 4312POPC   C1B57271  11.152  34.037   6.150
 4312POPC   C2B57272  11.017  33.970   6.580
 4312POPC   C3B57273  11.074  33.811   6.971
 4312POPC   C4B57274  10.775  33.686   7.214
 4313POPC   NC357275  40.960  29.365   5.275
 4313POPC   PO457276  41.043  28.721   5.592
 4313POPC   GL157277  40.786  29.072   5.751
 4313POPC   GL257278  40.857  29.448   5.774
 4313POPC   C1A57279  40.714  29.112   6.176
 4313POPC   D2A57280  40.744  29.215   6.588
 4313POPC   C3A57281  40.756  28.971   6.950
 4313POPC   C4A57282  40.483  29.005   7.289
 4313POPC   C1B57283  40.997  29.589   6.204
 4313POPC   C2B57284  40.884  29.699   6.650
 4313POPC   C3B57285  40.659  29.492   7.013
 4313POPC   C4B57286  40.842  29.441   7.417
 4314POPC   NC357287  29.348  36.136   5.345
 4314POPC   PO457288  28.808  35.791   5.333
 4314POPC   GL157289  29.058  35.903   5.707
 4314POPC   GL257290  28.897  36.223   5.654
 4314POPC   C1A57291  29.276  35.833   6.147
 4314POPC   D2A57292  29.432  36.024   6.564
 4314POPC   C3A57293  29.262  35.905   6.952
 4314POPC   C4A57294  29.070  35.944   7.345
 4314POPC   C1B57295  28.957  36.247   6.107
 4314POPC   C2B57296  28.944  36.077   6.539
 4314POPC   C3B57297  28.919  36.284   6.971
 4314POPC   C4B57298  28.716  36.384   7.380
 4315POPC   NC357299   3.798  43.726   5.588
 4315POPC   PO457300   3.354  44.146   5.420
 4315POPC   GL157301   3.363  43.933   5.800
 4315POPC   GL257302   3.653  44.162   5.844
 4315POPC   C1A57303   3.478  43.908   6.245
 4315POPC   D2A57304   3.519  43.690   6.641
 4315POPC   C3A57305   3.430  43.849   7.045
 4315POPC   C4A57306   3.479  43.613   7.398
 4315POPC   C1B57307   3.937  44.096   6.116
 4315POPC   C2B57308   3.882  44.074   6.536
 4315POPC   C3B57309   3.945  44.055   6.969
 4315POPC   C4B57310   3.841  43.976   7.412
 4316POPC   NC357311   2.740   7.917   5.271
 4316POPC   PO457312   2.889   7.351   5.526
 4316POPC   GL157313   3.033   7.307   5.916
 4316POPC   GL257314   3.273   7.586   5.887
 4316POPC   C1A57315   2.703   7.324   6.241
 4316POPC   D2A57316   2.597   7.493   6.643
 4316POPC   C3A57317   2.944   7.372   6.899
 4316POPC   C4A57318   2.699   7.065   7.143
 4316POPC   C1B57319   3.063   7.703   6.288
 4316POPC   C2B57320   2.887   7.906   6.677
 4316POPC   C3B57321   2.885   7.916   7.086
 4316POPC   C4B57322   2.695   7.596   7.262
 4317POPC   NC357323  15.828   1.446   5.272
 4317POPC   PO457324  16.191   0.911   5.410
 4317POPC   GL157325  16.024   1.000   5.804
 4317POPC   GL257326  16.048   1.331   5.715
 4317POPC   C1A57327  15.803   1.177   6.162
 4317POPC   D2A57328  15.648   1.438   6.516
 4317POPC   C3A57329  15.833   1.215   6.888
 4317POPC   C4A57330  15.942   1.066   7.311
 4317POPC   C1B57331  16.257   1.485   6.067
 4317POPC   C2B57332  16.160   1.386   6.478
 4317POPC   C3B57333  16.103   1.617   6.805
 4317POPC   C4B57334  16.224   1.561   7.211
 4318POPC   NC357335  33.277   9.769   5.414
 4318POPC   PO457336  32.638   9.823   5.347
 4318POPC   GL157337  32.739   9.493   5.709
 4318POPC   GL257338  33.094   9.501   5.827
 4318POPC   C1A57339  32.732   9.510   6.181
 4318POPC   D2A57340  32.750   9.907   6.427
 4318POPC   C3A57341  32.993   9.849   6.796
 4318POPC   C4A57342  32.923   9.507   7.111
 4318POPC   C1B57343  33.123   9.916   6.076
 4318POPC   C2B57344  33.373  10.041   6.460
 4318POPC   C3B57345  33.513   9.895   6.874
 4318POPC   C4B57346  33.252   9.879   7.241
 4319POPC   NC357347   6.740  37.721   5.488
 4319POPC   PO457348   6.319  38.183   5.672
 4319POPC   GL157349   6.640  38.010   5.910
 4319POPC   GL257350   6.979  38.113   5.759
 4319POPC   C1A57351   6.595  37.656   6.202
 4319POPC   D2A57352   6.393  37.493   6.602
 4319POPC   C3A57353   6.539  37.556   7.044
 4319POPC   C4A57354   6.575  37.521   7.506
 4319POPC   C1B57355   7.085  37.875   6.149
 4319POPC   C2B57356   6.934  37.737   6.577
 4319POPC   C3B57357   7.034  37.529   6.952
 4319POPC   C4B57358   7.050  37.650   7.380
 4320POPC   NC357359  34.654  10.169   5.632
 4320POPC   PO457360  34.868  10.856   5.528
 4320POPC   GL157361  34.673  10.861   5.921
 4320POPC   GL257362  34.393  10.638   5.914
 4320POPC   C1A57363  34.705  10.632   6.328
 4320POPC   D2A57364  34.500  10.306   6.603
 4320POPC   C3A57365  34.651  10.334   7.023
 4320POPC   C4A57366  34.796  10.285   7.490
 4320POPC   C1B57367  34.137  10.542   6.276
 4320POPC   C2B57368  34.147  10.676   6.710
 4320POPC   C3B57369  34.142  10.476   7.113
 4320POPC   C4B57370  34.368  10.520   7.478
 4321POPC   NC357371   2.231   9.117   5.529
 4321POPC   PO457372   1.547   9.022   5.430
 4321POPC   GL157373   1.810   8.904   5.819
 4321POPC   GL257374   2.152   8.963   6.008
 4321POPC   C1A57375   1.739   8.810   6.266
 4321POPC   D2A57376   1.588   8.663   6.665
 4321POPC   C3A57377   1.786   8.847   7.009
 4321POPC   C4A57378   2.103   8.689   7.234
 4321POPC   C1B57379   2.222   9.146   6.444
 4321POPC   C2B57380   2.263   9.109   6.904
 4321POPC   C3B57381   2.068   9.216   7.297
 4321POPC   C4B57382   2.082   9.344   7.743
 4322POPC   NC357383  34.118  26.910   5.513
 4322POPC   PO457384  33.462  26.812   5.371
 4322POPC   GL157385  33.680  26.753   5.794
 4322POPC   GL257386  33.865  27.064   5.913
 4322POPC   C1A57387  33.587  26.857   6.260
 4322POPC   D2A57388  33.864  26.999   6.602
 4322POPC   C3A57389  33.648  26.832   6.962
 4322POPC   C4A57390  33.463  26.897   7.353
 4322POPC   C1B57391  34.257  26.946   6.160
 4322POPC   C2B57392  34.374  26.741   6.531
 4322POPC   C3B57393  34.152  26.679   6.918
 4322POPC   C4B57394  33.961  26.693   7.340
 4323POPC   NC357395  19.625  43.742   5.245
 4323POPC   PO457396  20.059  43.385   5.612
 4323POPC   GL157397  20.263  43.257   5.966
 4323POPC   GL257398  20.342  42.918   5.837
 4323POPC   C1A57399  20.269  43.339   6.436
 4323POPC   D2A57400  19.978  43.404   6.786
 4323POPC   C3A57401  20.060  43.540   7.182
 4323POPC   C4A57402  19.861  43.381   7.618
 4323POPC   C1B57403  20.227  42.844   6.303
 4323POPC   C2B57404  20.143  42.917   6.764
 4323POPC   C3B57405  19.980  43.042   7.189
 4323POPC   C4B57406  20.045  42.901   7.626
 4324POPC   NC357407  30.481  42.353   5.465
 4324POPC   PO457408  31.103  42.620   5.410
 4324POPC   GL157409  30.820  42.540   5.803
 4324POPC   GL257410  30.777  42.160   5.852
 4324POPC   C1A57411  30.576  42.452   6.220
 4324POPC   D2A57412  30.690  42.423   6.702
 4324POPC   C3A57413  30.440  42.350   7.108
 4324POPC   C4A57414  30.382  42.437   7.589
 4324POPC   C1B57415  30.753  41.960   6.276
 4324POPC   C2B57416  30.580  41.924   6.700
 4324POPC   C3B57417  30.807  41.996   7.075
 4324POPC   C4B57418  30.879  42.321   7.399
 4325POPC   NC357419  42.083   2.464   5.593
 4325POPC   PO457420  42.507   2.885   5.346
 4325POPC   GL157421  42.496   2.757   5.764
 4325POPC   GL257422  42.210   2.935   5.799
 4325POPC   C1A57423  42.529   2.578   6.171
 4325POPC   D2A57424  42.254   2.600   6.535
 4325POPC   C3A57425  42.435   2.627   6.948
 4325POPC   C4A57426  42.709   2.948   7.125
 4325POPC   C1B57427  42.296   3.030   6.207
 4325POPC   C2B57428  42.537   3.050   6.545
 4325POPC   C3B57429  42.307   3.118   6.854
 4325POPC   C4B57430  42.198   3.059   7.253
 4326POPC   NC357431  32.317  28.462   5.329
 4326POPC   PO457432  31.874  27.942   5.451
 4326POPC   GL157433  32.053  28.157   5.832
 4326POPC   GL257434  32.280  28.392   5.825
 4326POPC   C1A57435  32.261  28.109   6.353
 4326POPC   D2A57436  32.232  28.341   6.768
 4326POPC   C3A57437  32.151  28.124   7.157
 4326POPC   C4A57438  31.998  27.953   7.567
 4326POPC   C1B57439  32.058  28.515   6.192
 4326POPC   C2B57440  32.518  28.601   6.426
 4326POPC   C3B57441  32.561  28.729   6.879
 4326POPC   C4B57442  32.271  28.658   7.195
 4327POPC   NC357443  33.315   7.224   5.534
 4327POPC   PO457444  32.710   7.430   5.434
 4327POPC   GL157445  33.027   7.568   5.834
 4327POPC   GL257446  33.179   7.949   5.892
 4327POPC   C1A57447  33.159   7.574   6.260
 4327POPC   D2A57448  33.230   7.633   6.689
 4327POPC   C3A57449  33.147   7.268   6.913
 4327POPC   C4A57450  32.943   7.192   7.288
 4327POPC   C1B57451  32.818   7.957   6.160
 4327POPC   C2B57452  32.747   7.888   6.600
 4327POPC   C3B57453  32.819   7.676   6.997
 4327POPC   C4B57454  33.190   7.695   7.229
 4328POPC   NC357455  37.116  22.668   5.533
 4328POPC   PO457456  36.635  23.124   5.518
 4328POPC   GL157457  36.928  23.063   5.868
 4328POPC   GL257458  37.021  22.733   6.035
 4328POPC   C1A57459  37.130  23.227   6.230
 4328POPC   D2A57460  37.331  23.119   6.608
 4328POPC   C3A57461  37.030  23.105   6.918
 4328POPC   C4A57462  36.743  23.353   7.131
 4328POPC   C1B57463  36.920  22.817   6.464
 4328POPC   C2B57464  36.591  22.870   6.739
 4328POPC   C3B57465  36.626  22.846   7.145
 4328POPC   C4B57466  37.006  22.607   7.021
 4329POPC   NC357467  32.725   4.429   5.612
 4329POPC   PO457468  32.879   3.967   5.208
 4329POPC   GL157469  32.871   3.923   5.707
 4329POPC   GL257470  33.102   4.178   5.850
 4329POPC   C1A57471  32.988   3.859   6.190
 4329POPC   D2A57472  33.270   3.902   6.588
 4329POPC   C3A57473  33.104   3.950   7.016
 4329POPC   C4A57474  32.735   4.106   7.226
 4329POPC   C1B57475  32.911   4.349   6.252
 4329POPC   C2B57476  32.871   4.261   6.685
 4329POPC   C3B57477  33.021   4.466   7.030
 4329POPC   C4B57478  33.010   4.470   7.443
 4330POPC   NC357479  17.517  38.604   5.060
 4330POPC   PO457480  17.765  38.691   5.486
 4330POPC   GL157481  17.701  38.534   5.947
 4330POPC   GL257482  17.852  38.213   5.981
 4330POPC   C1A57483  17.467  38.354   6.332
 4330POPC   D2A57484  17.412  38.272   6.821
 4330POPC   C3A57485  17.449  38.618   7.152
 4330POPC   C4A57486  17.675  39.028   7.184
 4330POPC   C1B57487  17.827  37.968   6.364
 4330POPC   C2B57488  17.825  37.976   6.787
 4330POPC   C3B57489  17.841  38.252   7.140
 4330POPC   C4B57490  17.523  38.220   7.471
 4331POPC   NC357491  34.093  21.407   5.418
 4331POPC   PO457492  33.531  21.704   5.349
 4331POPC   GL157493  33.741  21.540   5.781
 4331POPC   GL257494  34.121  21.513   5.908
 4331POPC   C1A57495  33.764  21.240   6.173
 4331POPC   D2A57496  33.877  21.099   6.609
 4331POPC   C3A57497  33.647  21.176   6.981
 4331POPC   C4A57498  33.746  21.412   7.356
 4331POPC   C1B57499  34.092  21.569   6.380
 4331POPC   C2B57500  33.782  21.608   6.738
 4331POPC   C3B57501  33.525  21.789   7.106
 4331POPC   C4B57502  33.662  21.927   7.542
 4332POPC   NC357503  32.041  16.401   5.378
 4332POPC   PO457504  32.384  15.740   5.391
 4332POPC   GL157505  32.328  15.974   5.765
 4332POPC   GL257506  32.083  16.235   5.868
 4332POPC   C1A57507  32.494  16.110   6.157
 4332POPC   D2A57508  32.300  16.237   6.528
 4332POPC   C3A57509  32.456  15.999   6.841
 4332POPC   C4A57510  32.567  16.015   7.243
 4332POPC   C1B57511  32.002  15.932   6.229
 4332POPC   C2B57512  31.965  15.867   6.708
 4332POPC   C3B57513  32.060  15.926   7.172
 4332POPC   C4B57514  31.885  15.984   7.613
 4333POPC   NC357515   6.755  13.803   5.471
 4333POPC   PO457516   6.436  13.262   5.566
 4333POPC   GL157517   6.508  13.597   5.879
 4333POPC   GL257518   6.871  13.674   5.945
 4333POPC   C1A57519   6.543  13.544   6.331
 4333POPC   D2A57520   6.340  13.612   6.713
 4333POPC   C3A57521   6.532  13.668   7.061
 4333POPC   C4A57522   6.471  13.319   7.236
 4333POPC   C1B57523   6.870  13.936   6.292
 4333POPC   C2B57524   6.820  13.943   6.741
 4333POPC   C3B57525   6.774  14.161   7.152
 4333POPC   C4B57526   6.652  14.167   7.559
 4334POPC   NC357527  43.639  22.395   5.532
 4334POPC   PO457528  44.014  21.878   5.176
 4334POPC   GL157529  43.959  21.969   5.684
 4334POPC   GL257530  44.125  21.728   5.843
 4334POPC   C1A57531  43.918  22.191   6.162
 4334POPC   D2A57532  43.738  22.258   6.621
 4334POPC   C3A57533  44.076  22.348   6.905
 4334POPC   C4A57534  44.206  22.260   7.300
 4334POPC   C1B57535  43.898  21.687   6.176
 4334POPC   C2B57536  43.628  21.773   6.497
 4334POPC   C3B57537  43.705  21.752   6.907
 4334POPC   C4B57538  43.716  22.092   7.179
 4335POPC   NC357539  23.523   7.214   5.363
 4335POPC   PO457540  24.001   7.518   5.573
 4335POPC   GL157541  23.696   7.585   5.867
 4335POPC   GL257542  23.456   7.304   5.844
 4335POPC   C1A57543  23.866   7.560   6.267
 4335POPC   D2A57544  23.814   7.266   6.594
 4335POPC   C3A57545  23.928   7.442   6.948
 4335POPC   C4A57546  23.704   7.595   7.256
 4335POPC   C1B57547  23.424   7.311   6.235
 4335POPC   C2B57548  23.256   7.235   6.581
 4335POPC   C3B57549  23.400   7.337   6.950
 4335POPC   C4B57550  23.282   7.284   7.372
 4336POPC   NC357551  15.249   6.293   5.435
 4336POPC   PO457552  15.116   5.592   5.361
 4336POPC   GL157553  15.249   5.766   5.764
 4336POPC   GL257554  15.057   6.057   5.889
 4336POPC   C1A57555  15.359   5.694   6.182
 4336POPC   D2A57556  15.089   5.921   6.475
 4336POPC   C3A57557  15.202   5.947   6.910
 4336POPC   C4A57558  15.236   5.729   7.293
 4336POPC   C1B57559  15.389   6.210   6.133
 4336POPC   C2B57560  15.537   6.204   6.569
 4336POPC   C3B57561  15.437   6.379   6.988
 4336POPC   C4B57562  15.207   6.247   7.380
 4337POPC   NC357563  28.059   2.365   5.691
 4337POPC   PO457564  28.567   2.000   5.472
 4337POPC   GL157565  28.332   1.958   5.855
 4337POPC   GL257566  28.595   1.883   6.025
 4337POPC   C1A57567  28.196   1.858   6.305
 4337POPC   D2A57568  28.453   1.999   6.648
 4337POPC   C3A57569  28.233   1.986   7.015
 4337POPC   C4A57570  28.157   1.888   7.481
 4337POPC   C1B57571  28.799   2.205   6.283
 4337POPC   C2B57572  28.660   2.471   6.636
 4337POPC   C3B57573  28.827   2.362   7.027
 4337POPC   C4B57574  28.669   1.982   7.261
 4338POPC   NC357575  16.410  18.904   5.354
 4338POPC   PO457576  16.499  19.534   5.510
 4338POPC   GL157577  16.638  19.323   5.887
 4338POPC   GL257578  16.366  19.126   5.856
 4338POPC   C1A57579  16.617  19.090   6.318
 4338POPC   D2A57580  16.486  19.007   6.767
 4338POPC   C3A57581  16.756  19.171   7.151
 4338POPC   C4A57582  16.948  19.402   7.529
 4338POPC   C1B57583  16.242  19.417   6.230
 4338POPC   C2B57584  16.264  19.494   6.719
 4338POPC   C3B57585  16.260  19.264   7.142
 4338POPC   C4B57586  16.429  19.437   7.528
 4339POPC   NC357587   4.110  43.257   5.256
 4339POPC   PO457588   3.496  43.394   5.467
 4339POPC   GL157589   3.698  43.264   5.859
 4339POPC   GL257590   3.533  42.969   5.873
 4339POPC   C1A57591   3.696  43.129   6.319
 4339POPC   D2A57592   3.448  43.183   6.636
 4339POPC   C3A57593   3.592  43.308   7.005
 4339POPC   C4A57594   3.716  42.940   7.177
 4339POPC   C1B57595   3.191  42.959   6.155
 4339POPC   C2B57596   3.056  42.872   6.566
 4339POPC   C3B57597   3.194  42.921   7.000
 4339POPC   C4B57598   3.182  42.726   7.416
 4340POPC   NC357599  22.956  29.190   5.213
 4340POPC   PO457600  22.838  28.549   5.222
 4340POPC   GL157601  22.801  29.011   5.632
 4340POPC   GL257602  23.036  29.358   5.696
 4340POPC   C1A57603  22.898  29.088   6.107
 4340POPC   D2A57604  22.994  29.212   6.537
 4340POPC   C3A57605  23.065  28.965   6.909
 4340POPC   C4A57606  22.848  29.116   7.295
 4340POPC   C1B57607  23.072  29.566   6.161
 4340POPC   C2B57608  22.998  29.723   6.587
 4340POPC   C3B57609  22.977  29.481   6.974
 4340POPC   C4B57610  23.221  29.506   7.314
 4341POPC   NC357611  17.513   9.241   5.464
 4341POPC   PO457612  17.558   8.620   5.288
 4341POPC   GL157613  17.466   8.779   5.730
 4341POPC   GL257614  17.737   8.976   5.846
 4341POPC   C1A57615  17.419   8.901   6.208
 4341POPC   D2A57616  17.729   8.871   6.562
 4341POPC   C3A57617  17.489   8.859   6.925
 4341POPC   C4A57618  17.324   8.992   7.314
 4341POPC   C1B57619  17.816   9.255   6.232
 4341POPC   C2B57620  17.867   9.370   6.702
 4341POPC   C3B57621  17.738   9.270   7.145
 4341POPC   C4B57622  17.647   9.218   7.626
 4342POPC   NC357623  20.993  26.428   5.536
 4342POPC   PO457624  20.334  26.565   5.298
 4342POPC   GL157625  20.474  26.792   5.720
 4342POPC   GL257626  20.829  26.888   5.776
 4342POPC   C1A57627  20.573  26.789   6.199
 4342POPC   D2A57628  20.852  26.619   6.528
 4342POPC   C3A57629  20.693  26.744   6.928
 4342POPC   C4A57630  20.254  26.728   7.047
 4342POPC   C1B57631  20.865  27.218   6.121
 4342POPC   C2B57632  20.833  27.119   6.559
 4342POPC   C3B57633  20.883  27.266   6.978
 4342POPC   C4B57634  20.796  27.012   7.357
 4343POPC   NC357635  44.593   7.869   5.355
 4343POPC   PO457636  44.731   8.567   5.506
 4343POPC   GL157637  44.821   8.202   5.815
 4343POPC   GL257638  44.676   7.859   5.851
 4343POPC   C1A57639  44.699   8.193   6.265
 4343POPC   D2A57640  44.670   8.145   6.722
 4343POPC   C3A57641  44.858   8.370   7.084
 4343POPC   C4A57642  44.918   8.214   7.511
 4343POPC   C1B57643  44.345   7.804   6.153
 4343POPC   C2B57644  44.415   7.694   6.575
 4343POPC   C3B57645  44.337   7.813   6.972
 4343POPC   C4B57646  44.385   8.164   7.161
 4344POPC   NC357647  13.489  23.692   5.166
 4344POPC   PO457648  13.663  22.936   5.204
 4344POPC   GL157649  13.728  22.924   5.686
 4344POPC   GL257650  13.966  23.182   5.813
 4344POPC   C1A57651  13.639  23.010   6.150
 4344POPC   D2A57652  13.458  22.861   6.544
 4344POPC   C3A57653  13.570  22.933   6.960
 4344POPC   C4A57654  13.262  23.010   7.284
 4344POPC   C1B57655  14.103  23.328   6.188
 4344POPC   C2B57656  13.804  23.360   6.486
 4344POPC   C3B57657  13.765  23.424   6.866
 4344POPC   C4B57658  13.608  23.374   7.234
 4345POPC   NC357659   9.613  30.529   5.107
 4345POPC   PO457660  10.041  30.826   5.490
 4345POPC   GL157661   9.718  30.809   5.771
 4345POPC   GL257662   9.537  30.490   5.786
 4345POPC   C1A57663   9.747  30.736   6.206
 4345POPC   D2A57664   9.702  30.487   6.577
 4345POPC   C3A57665   9.855  30.643   6.968
 4345POPC   C4A57666   9.793  31.041   7.147
 4345POPC   C1B57667   9.327  30.227   6.137
 4345POPC   C2B57668   9.229  30.235   6.586
 4345POPC   C3B57669   9.419  30.346   6.978
 4345POPC   C4B57670   9.449  30.642   7.271
 4346POPC   NC357671  41.614  33.606   5.374
 4346POPC   PO457672  41.096  33.896   5.529
 4346POPC   GL157673  41.335  33.563   5.809
 4346POPC   GL257674  41.666  33.698   5.861
 4346POPC   C1A57675  41.430  33.551   6.280
 4346POPC   D2A57676  41.195  33.840   6.550
 4346POPC   C3A57677  41.343  33.975   6.959
 4346POPC   C4A57678  41.571  33.641   7.158
 4346POPC   C1B57679  41.456  34.024   6.120
 4346POPC   C2B57680  41.582  34.199   6.526
 4346POPC   C3B57681  41.553  34.431   6.919
 4346POPC   C4B57682  41.742  34.414   7.327
 4347POPC   NC357683  27.975  19.985   5.481
 4347POPC   PO457684  28.211  19.373   5.478
 4347POPC   GL157685  28.329  19.708   5.756
 4347POPC   GL257686  27.989  19.679   5.888
 4347POPC   C1A57687  28.280  20.001   6.118
 4347POPC   D2A57688  28.212  19.937   6.530
 4347POPC   C3A57689  28.355  20.044   6.958
 4347POPC   C4A57690  28.484  19.746   7.339
 4347POPC   C1B57691  27.877  19.542   6.298
 4347POPC   C2B57692  28.010  19.532   6.732
 4347POPC   C3B57693  28.019  19.735   7.166
 4347POPC   C4B57694  27.921  19.775   7.601
 4348POPC   NC357695  29.564  11.673   5.505
 4348POPC   PO457696  30.087  11.283   5.553
 4348POPC   GL157697  29.868  11.446   5.894
 4348POPC   GL257698  29.616  11.212   5.824
 4348POPC   C1A57699  29.958  11.339   6.316
 4348POPC   D2A57700  30.256  11.185   6.498
 4348POPC   C3A57701  30.228  11.231   6.908
 4348POPC   C4A57702  29.963  11.492   7.136
 4348POPC   C1B57703  29.655  10.966   6.184
 4348POPC   C2B57704  29.857  10.895   6.599
 4348POPC   C3B57705  29.758  11.021   7.016
 4348POPC   C4B57706  29.599  11.043   7.450
 4349POPC   NC357707  31.777  20.656   5.549
 4349POPC   PO457708  31.214  20.567   5.414
 4349POPC   GL157709  31.369  20.525   5.844
 4349POPC   GL257710  31.624  20.291   5.902
 4349POPC   C1A57711  31.292  20.658   6.277
 4349POPC   D2A57712  31.162  20.463   6.677
 4349POPC   C3A57713  31.309  20.608   7.086
 4349POPC   C4A57714  31.614  20.853   7.359
 4349POPC   C1B57715  31.600  20.272   6.367
 4349POPC   C2B57716  31.640  20.318   6.794
 4349POPC   C3B57717  31.740  20.355   7.214
 4349POPC   C4B57718  31.859  20.234   7.613
 4350POPC   NC357719  16.446  13.365   5.505
 4350POPC   PO457720  17.095  13.270   5.457
 4350POPC   GL157721  16.833  13.404   5.842
 4350POPC   GL257722  16.610  13.722   5.835
 4350POPC   C1A57723  16.672  13.472   6.270
 4350POPC   D2A57724  16.391  13.499   6.632
 4350POPC   C3A57725  16.619  13.632   7.013
 4350POPC   C4A57726  17.058  13.644   7.064
 4350POPC   C1B57727  16.680  13.984   6.214
 4350POPC   C2B57728  16.600  13.991   6.653
 4350POPC   C3B57729  16.806  14.095   7.064
 4350POPC   C4B57730  16.801  13.875   7.460
 4351POPC   NC357731  33.863  28.684   5.362
 4351POPC   PO457732  33.909  28.045   5.355
 4351POPC   GL157733  33.799  28.273   5.768
 4351POPC   GL257734  33.975  28.580   5.841
 4351POPC   C1A57735  33.903  28.286   6.258
 4351POPC   D2A57736  33.728  28.114   6.656
 4351POPC   C3A57737  33.856  28.127   7.086
 4351POPC   C4A57738  33.711  28.116   7.497
 4351POPC   C1B57739  33.578  28.638   6.085
 4351POPC   C2B57740  33.430  28.501   6.476
 4351POPC   C3B57741  33.517  28.561   6.883
 4351POPC   C4B57742  33.712  28.615   7.265
 4352POPC   NC357743   4.779  29.594   5.313
 4352POPC   PO457744   5.245  29.151   5.309
 4352POPC   GL157745   4.998  29.105   5.772
 4352POPC   GL257746   4.803  29.396   5.923
 4352POPC   C1A57747   4.857  28.945   6.203
 4352POPC   D2A57748   5.047  28.993   6.627
 4352POPC   C3A57749   4.930  28.881   7.064
 4352POPC   C4A57750   5.219  28.901   7.431
 4352POPC   C1B57751   4.730  29.416   6.388
 4352POPC   C2B57752   4.802  29.425   6.840
 4352POPC   C3B57753   4.979  29.348   7.267
 4352POPC   C4B57754   5.009  29.300   7.750
 4353POPC   NC357755  20.265   7.323   5.198
 4353POPC   PO457756  19.838   7.700   5.597
 4353POPC   GL157757  19.986   7.363   5.851
 4353POPC   GL257758  19.652   7.327   5.925
 4353POPC   C1A57759  19.943   7.129   6.271
 4353POPC   D2A57760  19.775   7.284   6.662
 4353POPC   C3A57761  19.940   7.276   7.052
 4353POPC   C4A57762  20.175   7.641   7.012
 4353POPC   C1B57763  19.744   7.618   6.249
 4353POPC   C2B57764  19.521   7.737   6.590
 4353POPC   C3B57765  19.553   7.640   6.986
 4353POPC   C4B57766  19.367   7.392   7.279
 4354POPC   NC357767  33.316   1.672   5.472
 4354POPC   PO457768  32.823   2.136   5.407
 4354POPC   GL157769  33.114   2.094   5.781
 4354POPC   GL257770  33.356   2.363   5.858
 4354POPC   C1A57771  33.317   1.916   6.168
 4354POPC   D2A57772  33.281   1.698   6.574
 4354POPC   C3A57773  33.331   1.870   6.978
 4354POPC   C4A57774  33.149   1.688   7.380
 4354POPC   C1B57775  33.113   2.389   6.218
 4354POPC   C2B57776  33.326   2.286   6.581
 4354POPC   C3B57777  33.201   2.386   6.976
 4354POPC   C4B57778  33.136   2.208   7.358
 4355POPC   NC357779  28.613  33.712   5.167
 4355POPC   PO457780  29.206  33.694   5.434
 4355POPC   GL157781  28.825  33.715   5.706
 4355POPC   GL257782  28.609  33.429   5.726
 4355POPC   C1A57783  28.837  33.939   6.108
 4355POPC   D2A57784  29.125  33.856   6.474
 4355POPC   C3A57785  28.922  33.963   6.869
 4355POPC   C4A57786  29.034  33.968   7.288
 4355POPC   C1B57787  28.817  33.414   6.148
 4355POPC   C2B57788  28.944  33.377   6.596
 4355POPC   C3B57789  29.015  33.479   7.020
 4355POPC   C4B57790  29.159  33.336   7.412
 4356POPC   NC357791  42.391  13.041   5.454
 4356POPC   PO457792  42.625  12.501   5.323
 4356POPC   GL157793  42.407  12.642   5.785
 4356POPC   GL257794  42.170  12.929   5.884
 4356POPC   C1A57795  42.450  12.670   6.281
 4356POPC   D2A57796  42.218  12.632   6.714
 4356POPC   C3A57797  42.397  12.753   7.129
 4356POPC   C4A57798  42.672  12.730   7.531
 4356POPC   C1B57799  42.021  13.196   6.208
 4356POPC   C2B57800  41.887  13.170   6.651
 4356POPC   C3B57801  42.005  13.239   7.093
 4356POPC   C4B57802  41.949  13.155   7.551
 4357POPC   NC357803  37.756  30.979   5.278
 4357POPC   PO457804  37.188  30.577   5.308
 4357POPC   GL157805  37.473  30.654   5.735
 4357POPC   GL257806  37.840  30.765   5.744
 4357POPC   C1A57807  37.626  30.861   6.190
 4357POPC   D2A57808  37.622  30.603   6.576
 4357POPC   C3A57809  37.791  30.547   6.997
 4357POPC   C4A57810  37.693  30.574   7.460
 4357POPC   C1B57811  38.028  30.578   6.105
 4357POPC   C2B57812  38.197  30.742   6.482
 4357POPC   C3B57813  38.033  30.955   6.860
 4357POPC   C4B57814  38.130  30.779   7.278
 4358POPC   NC357815  10.038  43.698   5.656
 4358POPC   PO457816   9.579  44.160   5.526
 4358POPC   GL157817   9.750  44.029   5.888
 4358POPC   GL257818  10.096  44.188   5.851
 4358POPC   C1A57819   9.663  43.776   6.233
 4358POPC   D2A57820   9.761  43.857   6.642
 4358POPC   C3A57821   9.544  43.627   6.904
 4358POPC   C4A57822   9.362  43.716   7.261
 4358POPC   C1B57823  10.160  43.958   6.253
 4358POPC   C2B57824  10.168  43.572   6.483
 4358POPC   C3B57825  10.057  43.454   6.905
 4358POPC   C4B57826   9.914  43.706   7.233
 4359POPC   NC357827  31.116  12.140   5.677
 4359POPC   PO457828  30.599  12.287   5.317
 4359POPC   GL157829  30.597  12.102   5.714
 4359POPC   GL257830  30.579  11.750   5.793
 4359POPC   C1A57831  30.593  12.192   6.148
 4359POPC   D2A57832  30.511  12.089   6.569
 4359POPC   C3A57833  30.744  12.202   6.915
 4359POPC   C4A57834  30.465  12.143   7.256
 4359POPC   C1B57835  30.846  11.733   6.185
 4359POPC   C2B57836  30.998  11.896   6.544
 4359POPC   C3B57837  30.973  11.735   6.950
 4359POPC   C4B57838  30.914  11.925   7.333
 4360POPC   NC357839   2.774  29.543   5.404
 4360POPC   PO457840   2.421  29.008   5.639
 4360POPC   GL157841   2.707  29.178   5.906
 4360POPC   GL257842   2.666  29.528   5.929
 4360POPC   C1A57843   2.677  29.132   6.351
 4360POPC   D2A57844   2.563  29.442   6.657
 4360POPC   C3A57845   2.502  29.304   7.078
 4360POPC   C4A57846   2.751  29.101   7.436
 4360POPC   C1B57847   3.045  29.454   6.210
 4360POPC   C2B57848   3.109  29.250   6.622
 4360POPC   C3B57849   3.046  29.339   7.061
 4360POPC   C4B57850   3.167  29.426   7.483
 4361POPC   NC357851  35.241  22.949   5.224
 4361POPC   PO457852  35.791  22.589   5.577
 4361POPC   GL157853  35.504  22.914   5.718
 4361POPC   GL257854  35.705  23.193   5.704
 4361POPC   C1A57855  35.327  23.047   6.143
 4361POPC   D2A57856  35.246  23.180   6.624
 4361POPC   C3A57857  35.298  23.009   7.101
 4361POPC   C4A57858  35.072  22.971   7.530
 4361POPC   C1B57859  35.804  23.232   6.157
 4361POPC   C2B57860  35.730  23.356   6.558
 4361POPC   C3B57861  35.776  23.131   6.935
 4361POPC   C4B57862  35.731  23.274   7.362
 4362POPC   NC357863  22.907  27.459   5.386
 4362POPC   PO457864  22.547  28.067   5.531
 4362POPC   GL157865  22.882  27.834   5.808
 4362POPC   GL257866  22.968  27.480   5.900
 4362POPC   C1A57867  23.007  27.866   6.266
 4362POPC   D2A57868  22.907  27.784   6.719
 4362POPC   C3A57869  23.102  27.512   7.025
 4362POPC   C4A57870  23.230  27.494   7.468
 4362POPC   C1B57871  22.862  27.377   6.344
 4362POPC   C2B57872  22.517  27.433   6.625
 4362POPC   C3B57873  22.608  27.286   7.046
 4362POPC   C4B57874  22.732  27.604   7.371
 4363POPC   NC357875  10.670  16.175   5.578
 4363POPC   PO457876  10.463  15.560   5.356
 4363POPC   GL157877  10.464  15.720   5.791
 4363POPC   GL257878  10.266  16.005   5.911
 4363POPC   C1A57879  10.633  15.783   6.226
 4363POPC   D2A57880  10.618  15.908   6.669
 4363POPC   C3A57881  10.662  15.601   6.973
 4363POPC   C4A57882  10.684  15.736   7.382
 4363POPC   C1B57883  10.292  16.154   6.345
 4363POPC   C2B57884  10.604  16.417   6.586
 4363POPC   C3B57885  10.744  16.345   6.998
 4363POPC   C4B57886  10.506  16.199   7.323
 4364POPC   NC357887  24.726  43.593   5.414
 4364POPC   PO457888  24.069  43.852   5.255
 4364POPC   GL157889  24.271  43.917   5.659
 4364POPC   GL257890  24.624  44.060   5.727
 4364POPC   C1A57891  24.221  43.741   6.069
 4364POPC   D2A57892  24.497  43.738   6.447
 4364POPC   C3A57893  24.386  43.767   6.893
 4364POPC   C4A57894  24.518  43.679   7.328
 4364POPC   C1B57895  24.467  44.180   6.172
 4364POPC   C2B57896  24.308  44.230   6.602
 4364POPC   C3B57897  24.467  44.252   7.050
 4364POPC   C4B57898  24.475  44.198   7.515
 4365POPC   NC357899  26.931  16.943   5.330
 4365POPC   PO457900  26.382  16.752   5.522
 4365POPC   GL157901  26.672  16.943   5.807
 4365POPC   GL257902  27.055  16.831   5.819
 4365POPC   C1A57903  26.661  16.854   6.248
 4365POPC   D2A57904  26.793  16.929   6.676
 4365POPC   C3A57905  26.621  16.706   7.040
 4365POPC   C4A57906  26.641  16.273   7.213
 4365POPC   C1B57907  27.210  17.037   6.216
 4365POPC   C2B57908  27.289  17.146   6.637
 4365POPC   C3B57909  27.244  16.831   6.946
 4365POPC   C4B57910  27.067  16.654   7.318
 4366POPC   NC357911  22.233   4.215   5.436
 4366POPC   PO457912  21.600   4.636   5.401
 4366POPC   GL157913  21.785   4.452   5.769
 4366POPC   GL257914  21.975   4.112   5.888
 4366POPC   C1A57915  21.804   4.485   6.215
 4366POPC   D2A57916  22.015   4.169   6.448
 4366POPC   C3A57917  22.076   4.265   6.857
 4366POPC   C4A57918  22.209   4.460   7.202
 4366POPC   C1B57919  22.415   4.054   6.110
 4366POPC   C2B57920  22.651   3.960   6.513
 4366POPC   C3B57921  22.560   4.100   6.958
 4366POPC   C4B57922  22.489   4.092   7.423
 4367POPC   NC357923  39.975  42.071   5.279
 4367POPC   PO457924  40.288  42.609   5.256
 4367POPC   GL157925  40.054  42.465   5.662
 4367POPC   GL257926  40.114  42.152   5.855
 4367POPC   C1A57927  39.766  42.481   6.032
 4367POPC   D2A57928  39.768  42.208   6.387
 4367POPC   C3A57929  39.761  42.378   6.787
 4367POPC   C4A57930  39.902  42.711   7.103
 4367POPC   C1B57931  40.241  42.391   6.267
 4367POPC   C2B57932  40.275  42.442   6.750
 4367POPC   C3B57933  40.103  42.229   7.142
 4367POPC   C4B57934  40.285  42.093   7.561
 4368POPC   NC357935  14.019  38.012   5.388
 4368POPC   PO457936  14.608  37.818   5.538
 4368POPC   GL157937  14.517  37.592   5.945
 4368POPC   GL257938  14.530  37.245   5.952
 4368POPC   C1A57939  14.367  37.680   6.388
 4368POPC   D2A57940  14.266  37.609   6.805
 4368POPC   C3A57941  14.358  37.910   7.148
 4368POPC   C4A57942  14.220  38.005   7.576
 4368POPC   C1B57943  14.437  37.182   6.386
 4368POPC   C2B57944  14.713  37.378   6.667
 4368POPC   C3B57945  14.806  37.464   7.074
 4368POPC   C4B57946  14.443  37.405   7.236
 4369POPC   NC357947   7.913  17.643   5.389
 4369POPC   PO457948   8.427  17.187   5.578
 4369POPC   GL157949   8.100  17.206   5.835
 4369POPC   GL257950   8.099  17.529   5.843
 4369POPC   C1A57951   8.048  17.305   6.293
 4369POPC   D2A57952   8.269  17.407   6.662
 4369POPC   C3A57953   8.045  17.389   7.058
 4369POPC   C4A57954   8.292  17.247   7.376
 4369POPC   C1B57955   8.304  17.749   6.147
 4369POPC   C2B57956   8.180  17.903   6.544
 4369POPC   C3B57957   8.294  17.822   6.972
 4369POPC   C4B57958   8.141  17.782   7.385
 4370POPC   NC357959  30.626  41.364   5.443
 4370POPC   PO457960  30.345  41.945   5.624
 4370POPC   GL157961  30.504  41.664   5.913
 4370POPC   GL257962  30.841  41.644   5.841
 4370POPC   C1A57963  30.450  41.560   6.354
 4370POPC   D2A57964  30.396  41.365   6.740
 4370POPC   C3A57965  30.496  41.595   7.106
 4370POPC   C4A57966  30.612  41.431   7.526
 4370POPC   C1B57967  30.890  41.388   6.221
 4370POPC   C2B57968  30.897  41.525   6.674
 4370POPC   C3B57969  30.974  41.456   7.121
 4370POPC   C4B57970  31.108  41.271   7.521
 4371POPC   NC357971  11.080  17.824   5.474
 4371POPC   PO457972  11.556  17.341   5.447
 4371POPC   GL157973  11.323  17.504   5.795
 4371POPC   GL257974  10.960  17.426   5.783
 4371POPC   C1A57975  11.234  17.638   6.216
 4371POPC   D2A57976  11.558  17.511   6.469
 4371POPC   C3A57977  11.504  17.487   6.896
 4371POPC   C4A57978  11.373  17.473   7.349
 4371POPC   C1B57979  10.782  17.407   6.213
 4371POPC   C2B57980  10.826  17.632   6.602
 4371POPC   C3B57981  10.991  17.507   7.000
 4371POPC   C4B57982  10.861  17.504   7.450
 4372POPC   NC357983  44.378  25.870   5.007
 4372POPC   PO457984  44.487  26.268   5.558
 4372POPC   GL157985  44.783  26.163   5.866
 4372POPC   GL257986  44.763  25.795   5.826
 4372POPC   C1A57987  44.929  26.121   6.295
 4372POPC   D2A57988  44.916  25.861   6.684
 4372POPC   C3A57989  44.852  26.148   7.036
 4372POPC   C4A57990  44.498  26.415   7.119
 4372POPC   C1B57991  44.462  25.911   6.176
 4372POPC   C2B57992  44.418  25.727   6.572
 4372POPC   C3B57993  44.378  25.885   6.995
 4372POPC   C4B57994  44.523  25.967   7.393
 4373POPC   NC357995  22.532  36.214   5.363
 4373POPC   PO457996  21.836  36.058   5.479
 4373POPC   GL157997  22.054  36.134   5.863
 4373POPC   GL257998  22.390  36.004   5.865
 4373POPC   C1A57999  22.137  36.216   6.314
 4373POPC   D2A58000  21.958  36.059   6.703
 4373POPC   C3A58001  22.039  36.259   7.146
 4373POPC   C4A58002  21.984  36.239   7.625
 4373POPC   C1B58003  22.590  35.824   6.226
 4373POPC   C2B58004  22.493  35.610   6.608
 4373POPC   C3B58005  22.331  35.828   6.977
 4373POPC   C4B58006  22.287  35.862   7.418
 4374POPC   NC358007  25.024   7.692   5.221
 4374POPC   PO458008  25.393   7.224   5.336
 4374POPC   GL158009  25.459   7.251   5.777
 4374POPC   GL258010  25.094   7.296   5.896
 4374POPC   C1A58011  25.500   7.226   6.245
 4374POPC   D2A58012  25.341   7.261   6.682
 4374POPC   C3A58013  25.573   7.334   7.069
 4374POPC   C4A58014  25.527   7.554   7.475
 4374POPC   C1B58015  25.026   7.469   6.330
 4374POPC   C2B58016  24.913   7.598   6.771
 4374POPC   C3B58017  25.064   7.739   7.189
 4374POPC   C4B58018  25.182   7.906   7.620
 4375POPC   NC358019  15.572  26.567   5.602
 4375POPC   PO458020  16.082  26.951   5.436
 4375POPC   GL158021  15.909  26.900   5.801
 4375POPC   GL258022  15.614  27.060   5.693
 4375POPC   C1A58023  15.818  26.769   6.226
 4375POPC   D2A58024  16.017  26.844   6.606
 4375POPC   C3A58025  15.806  26.779   6.979
 4375POPC   C4A58026  16.060  26.702   7.317
 4375POPC   C1B58027  15.648  27.232   6.080
 4375POPC   C2B58028  15.788  27.280   6.471
 4375POPC   C3B58029  15.712  27.315   6.923
 4375POPC   C4B58030  15.762  27.147   7.360
 4376POPC   NC358031  21.189   8.080   5.245
 4376POPC   PO458032  21.634   7.741   5.505
 4376POPC   GL158033  21.370   8.032   5.735
 4376POPC   GL258034  21.066   8.258   5.761
 4376POPC   C1A58035  21.328   8.013   6.157
 4376POPC   D2A58036  21.573   8.096   6.500
 4376POPC   C3A58037  21.464   7.994   6.913
 4376POPC   C4A58038  21.522   8.241   7.270
 4376POPC   C1B58039  20.997   8.390   6.242
 4376POPC   C2B58040  21.246   8.442   6.685
 4376POPC   C3B58041  21.096   8.480   7.089
 4376POPC   C4B58042  21.111   8.410   7.538
 4377POPC   NC358043  12.669  33.750   5.385
 4377POPC   PO458044  13.232  33.376   5.422
 4377POPC   GL158045  13.021  33.454   5.751
 4377POPC   GL258046  13.025  33.805   5.778
 4377POPC   C1A58047  12.848  33.476   6.173
 4377POPC   D2A58048  12.798  33.767   6.499
 4377POPC   C3A58049  12.767  33.630   6.908
 4377POPC   C4A58050  12.832  33.525   7.315
 4377POPC   C1B58051  13.181  33.973   6.183
 4377POPC   C2B58052  13.183  34.135   6.632
 4377POPC   C3B58053  13.147  33.963   7.066
 4377POPC   C4B58054  12.955  33.998   7.443
 4378POPC   NC358055  33.690  32.520   5.683
 4378POPC   PO458056  33.967  33.120   5.418
 4378POPC   GL158057  33.894  32.980   5.849
 4378POPC   GL258058  33.568  33.005   5.861
 4378POPC   C1A58059  33.854  32.741   6.277
 4378POPC   D2A58060  33.751  32.586   6.719
 4378POPC   C3A58061  33.899  32.814   7.096
 4378POPC   C4A58062  33.942  33.065   7.433
 4378POPC   C1B58063  33.343  32.929   6.207
 4378POPC   C2B58064  33.168  32.903   6.610
 4378POPC   C3B58065  33.447  32.962   6.940
 4378POPC   C4B58066  33.433  33.107   7.348
 4379POPC   NC358067   3.080  42.249   5.153
 4379POPC   PO458068   2.867  42.823   5.228
 4379POPC   GL158069   2.837  42.659   5.724
 4379POPC   GL258070   2.755  42.292   5.765
 4379POPC   C1A58071   2.895  42.524   6.216
 4379POPC   D2A58072   2.675  42.554   6.666
 4379POPC   C3A58073   2.911  42.470   7.070
 4379POPC   C4A58074   3.201  42.080   7.157
 4379POPC   C1B58075   2.606  42.109   6.191
 4379POPC   C2B58076   2.765  42.055   6.633
 4379POPC   C3B58077   2.536  42.144   7.008
 4379POPC   C4B58078   2.169  41.950   7.112
 4380POPC   NC358079  30.639  32.754   5.091
 4380POPC   PO458080  30.706  33.351   5.334
 4380POPC   GL158081  30.875  33.115   5.721
 4380POPC   GL258082  30.615  33.289   5.862
 4380POPC   C1A58083  30.830  32.805   6.115
 4380POPC   D2A58084  30.585  32.567   6.429
 4380POPC   C3A58085  30.629  32.592   6.884
 4380POPC   C4A58086  30.815  32.825   7.248
 4380POPC   C1B58087  30.665  33.262   6.287
 4380POPC   C2B58088  30.680  33.038   6.622
 4380POPC   C3B58089  30.417  33.051   6.937
 4380POPC   C4B58090  30.517  33.290   7.235
 4381POPC   NC358091  21.122   8.793   5.464
 4381POPC   PO458092  20.451   8.817   5.266
 4381POPC   GL158093  20.625   8.867   5.693
 4381POPC   GL258094  20.307   8.758   5.770
 4381POPC   C1A58095  20.907   8.880   6.076
 4381POPC   D2A58096  20.959   8.830   6.536
 4381POPC   C3A58097  20.861   8.997   6.951
 4381POPC   C4A58098  20.888   9.115   7.384
 4381POPC   C1B58099  20.436   8.735   6.182
 4381POPC   C2B58100  20.324   8.928   6.548
 4381POPC   C3B58101  20.377   8.805   6.925
 4381POPC   C4B58102  20.542   8.763   7.293
 4382POPC   NC358103   5.958  38.093   5.403
 4382POPC   PO458104   6.325  37.475   5.453
 4382POPC   GL158105   6.142  37.709   5.782
 4382POPC   GL258106   5.786  37.749   5.777
 4382POPC   C1A58107   6.078  37.698   6.217
 4382POPC   D2A58108   6.081  37.946   6.569
 4382POPC   C3A58109   6.047  37.704   6.924
 4382POPC   C4A58110   6.212  37.843   7.321
 4382POPC   C1B58111   5.568  37.638   6.148
 4382POPC   C2B58112   5.708  37.501   6.547
 4382POPC   C3B58113   5.533  37.565   6.937
 4382POPC   C4B58114   5.701  37.711   7.299
 4383POPC   NC358115  17.745   4.425   5.623
 4383POPC   PO458116  17.090   4.116   5.514
 4383POPC   GL158117  17.422   4.076   5.816
 4383POPC   GL258118  17.743   3.929   5.702
 4383POPC   C1A58119  17.454   4.331   6.201
 4383POPC   D2A58120  17.520   4.573   6.552
 4383POPC   C3A58121  17.377   4.393   6.947
 4383POPC   C4A58122  17.257   4.633   7.279
 4383POPC   C1B58123  17.795   3.961   6.165
 4383POPC   C2B58124  17.651   4.068   6.599
 4383POPC   C3B58125  17.709   4.001   7.041
 4383POPC   C4B58126  17.782   4.267   7.422
 4384POPC   NC358127  15.652  34.643   5.119
 4384POPC   PO458128  16.295  34.471   5.395
 4384POPC   GL158129  16.186  34.432   5.848
 4384POPC   GL258130  16.113  34.775   5.856
 4384POPC   C1A58131  16.063  34.347   6.312
 4384POPC   D2A58132  15.742  34.515   6.658
 4384POPC   C3A58133  15.619  34.653   7.104
 4384POPC   C4A58134  15.833  34.484   7.480
 4384POPC   C1B58135  15.953  34.837   6.272
 4384POPC   C2B58136  16.214  34.721   6.631
 4384POPC   C3B58137  16.133  34.592   7.028
 4384POPC   C4B58138  16.189  34.827   7.395
 4385POPC   NC358139   8.149   1.314   5.436
 4385POPC   PO458140   8.075   0.687   5.542
 4385POPC   GL158141   7.975   1.014   5.841
 4385POPC   GL258142   7.905   1.386   5.882
 4385POPC   C1A58143   8.096   1.039   6.241
 4385POPC   D2A58144   8.283   0.840   6.563
 4385POPC   C3A58145   8.141   0.943   6.960
 4385POPC   C4A58146   8.294   1.207   7.245
 4385POPC   C1B58147   7.991   1.543   6.274
 4385POPC   C2B58148   8.042   1.342   6.649
 4385POPC   C3B58149   7.914   1.446   7.033
 4385POPC   C4B58150   8.038   1.664   7.349
 4386POPC   NC358151  29.125   9.214   5.560
 4386POPC   PO458152  29.544   8.670   5.438
 4386POPC   GL158153  29.249   8.779   5.781
 4386POPC   GL258154  29.502   8.991   5.866
 4386POPC   C1A58155  29.132   9.030   6.210
 4386POPC   D2A58156  29.162   8.879   6.671
 4386POPC   C3A58157  28.950   9.099   7.054
 4386POPC   C4A58158  28.960   9.196   7.520
 4386POPC   C1B58159  29.466   8.672   6.239
 4386POPC   C2B58160  29.690   8.832   6.602
 4386POPC   C3B58161  29.758   8.721   7.005
 4386POPC   C4B58162  29.358   8.825   7.173
 4387POPC   NC358163  16.444   7.429   5.380
 4387POPC   PO458164  16.933   7.001   5.351
 4387POPC   GL158165  16.734   7.164   5.731
 4387POPC   GL258166  16.768   7.529   5.776
 4387POPC   C1A58167  16.846   7.152   6.167
 4387POPC   D2A58168  17.071   7.213   6.560
 4387POPC   C3A58169  16.796   7.044   6.888
 4387POPC   C4A58170  16.756   7.089   7.335
 4387POPC   C1B58171  16.607   7.595   6.185
 4387POPC   C2B58172  16.738   7.657   6.602
 4387POPC   C3B58173  16.720   7.538   7.010
 4387POPC   C4B58174  16.427   7.614   7.317
 4388POPC   NC358175   1.812  29.868   5.185
 4388POPC   PO458176   2.410  29.799   5.529
 4388POPC   GL158177   2.086  30.056   5.706
 4388POPC   GL258178   1.839  29.811   5.707
 4388POPC   C1A58179   2.059  30.199   6.156
 4388POPC   D2A58180   2.031  30.134   6.641
 4388POPC   C3A58181   2.254  29.794   6.952
 4388POPC   C4A58182   2.114  29.533   7.331
 4388POPC   C1B58183   1.726  29.773   6.169
 4388POPC   C2B58184   1.626  29.703   6.639
 4388POPC   C3B58185   1.761  29.900   7.047
 4388POPC   C4B58186   2.069  30.238   7.149
 4389POPC   NC358187  14.451  17.096   5.415
 4389POPC   PO458188  14.480  16.398   5.348
 4389POPC   GL158189  14.547  16.532   5.784
 4389POPC   GL258190  14.359  16.846   5.852
 4389POPC   C1A58191  14.370  16.477   6.213
 4389POPC   D2A58192  14.393  16.704   6.594
 4389POPC   C3A58193  14.377  16.474   6.968
 4389POPC   C4A58194  14.643  16.363   7.280
 4389POPC   C1B58195  14.670  16.913   6.172
 4389POPC   C2B58196  14.822  16.983   6.593
 4389POPC   C3B58197  14.687  16.882   7.015
 4389POPC   C4B58198  14.296  16.985   7.184
 4390POPC   NC358199  33.522   0.865   5.550
 4390POPC   PO458200  32.934   1.299   5.455
 4390POPC   GL158201  32.900   1.010   5.829
 4390POPC   GL258202  33.236   0.906   5.967
 4390POPC   C1A58203  32.868   1.066   6.306
 4390POPC   D2A58204  32.621   1.252   6.671
 4390POPC   C3A58205  32.842   1.399   7.066
 4390POPC   C4A58206  33.040   1.174   7.422
 4390POPC   C1B58207  33.325   1.278   6.231
 4390POPC   C2B58208  33.209   1.197   6.682
 4390POPC   C3B58209  33.370   1.332   7.059
 4390POPC   C4B58210  33.658   1.600   7.246
 4391POPC   NC358211   0.508  23.282   5.241
 4391POPC   PO458212   0.434  23.935   5.440
 4391POPC   GL158213   0.444  23.724   5.827
 4391POPC   GL258214   0.316  23.403   5.757
 4391POPC   C1A58215   0.460  23.855   6.242
 4391POPC   D2A58216   0.716  23.883   6.562
 4391POPC   C3A58217   0.527  23.925   6.948
 4391POPC   C4A58218   0.182  24.105   7.099
 4391POPC   C1B58219   0.353  23.334   6.203
 4391POPC   C2B58220   0.416  23.459   6.649
 4391POPC   C3B58221   0.590  23.434   7.083
 4391POPC   C4B58222   0.594  23.455   7.559
 4392POPC   NC358223  17.193  20.516   5.380
 4392POPC   PO458224  17.800  20.375   5.264
 4392POPC   GL158225  17.588  20.448   5.699
 4392POPC   GL258226  17.512  20.746   5.761
 4392POPC   C1A58227  17.358  20.396   6.102
 4392POPC   D2A58228  17.537  20.451   6.532
 4392POPC   C3A58229  17.317  20.406   6.876
 4392POPC   C4A58230  17.189  20.283   7.247
 4392POPC   C1B58231  17.267  20.891   6.099
 4392POPC   C2B58232  17.389  20.976   6.530
 4392POPC   C3B58233  17.602  20.844   6.904
 4392POPC   C4B58234  17.360  20.768   7.252
 4393POPC   NC358235  23.542  42.547   5.250
 4393POPC   PO458236  24.058  42.285   5.429
 4393POPC   GL158237  23.814  42.571   5.699
 4393POPC   GL258238  23.425  42.624   5.761
 4393POPC   C1A58239  23.815  42.464   6.121
 4393POPC   D2A58240  23.745  42.632   6.523
 4393POPC   C3A58241  23.847  42.454   6.900
 4393POPC   C4A58242  23.774  42.619   7.279
 4393POPC   C1B58243  23.295  42.598   6.228
 4393POPC   C2B58244  23.292  42.393   6.657
 4393POPC   C3B58245  23.376  42.353   7.111
 4393POPC   C4B58246  23.722  42.126   7.361
 4394POPC   NC358247   0.351   1.845   5.358
 4394POPC   PO458248   0.569   2.487   5.426
 4394POPC   GL158249   0.544   2.152   5.764
 4394POPC   GL258250   0.749   1.843   5.760
 4394POPC   C1A58251   0.510   2.173   6.234
 4394POPC   D2A58252   0.713   2.280   6.643
 4394POPC   C3A58253   0.529   2.081   7.001
 4394POPC   C4A58254   0.646   2.292   7.370
 4394POPC   C1B58255   0.885   1.830   6.183
 4394POPC   C2B58256   0.718   1.783   6.571
 4394POPC   C3B58257   0.759   1.601   6.934
 4394POPC   C4B58258   0.647   1.661   7.351
 4395POPC   NC358259  38.858  32.964   5.488
 4395POPC   PO458260  38.196  33.064   5.309
 4395POPC   GL158261  38.212  33.100   5.798
 4395POPC   GL258262  38.585  33.017   5.936
 4395POPC   C1A58263  38.201  32.942   6.260
 4395POPC   D2A58264  38.481  32.973   6.614
 4395POPC   C3A58265  38.328  33.099   6.980
 4395POPC   C4A58266  38.301  33.453   7.240
 4395POPC   C1B58267  38.879  32.891   6.313
 4395POPC   C2B58268  38.962  32.805   6.746
 4395POPC   C3B58269  38.887  33.141   7.021
 4395POPC   C4B58270  38.636  33.062   7.367
 4396POPC   NC358271  43.201  26.949   5.114
 4396POPC   PO458272  43.032  26.275   5.232
 4396POPC   GL158273  42.831  26.561   5.734
 4396POPC   GL258274  43.068  26.902   5.830
 4396POPC   C1A58275  42.720  26.801   6.150
 4396POPC   D2A58276  43.026  26.899   6.470
 4396POPC   C3A58277  42.932  26.757   6.901
 4396POPC   C4A58278  42.848  26.855   7.325
 4396POPC   C1B58279  43.430  27.094   6.087
 4396POPC   C2B58280  43.532  27.178   6.510
 4396POPC   C3B58281  43.232  27.214   6.846
 4396POPC   C4B58282  43.325  26.977   7.227
 4397POPC   NC358283  28.185  31.695   5.487
 4397POPC   PO458284  28.893  31.598   5.394
 4397POPC   GL158285  28.632  31.526   5.769
 4397POPC   GL258286  28.657  31.860   5.802
 4397POPC   C1A58287  28.298  31.598   6.133
 4397POPC   D2A58288  28.028  31.425   6.477
 4397POPC   C3A58289  28.147  31.482   6.931
 4397POPC   C4A58290  28.502  31.445   7.233
 4397POPC   C1B58291  28.616  31.980   6.223
 4397POPC   C2B58292  28.652  31.780   6.617
 4397POPC   C3B58293  28.545  31.912   7.030
 4397POPC   C4B58294  28.185  31.868   7.306
 4398POPC   NC358295  20.316   8.319   5.269
 4398POPC   PO458296  20.809   7.903   5.463
 4398POPC   GL158297  20.669   7.960   5.875
 4398POPC   GL258298  20.543   8.301   5.813
 4398POPC   C1A58299  20.835   7.905   6.289
 4398POPC   D2A58300  20.974   8.037   6.707
 4398POPC   C3A58301  20.997   7.974   7.162
 4398POPC   C4A58302  20.586   7.843   7.220
 4398POPC   C1B58303  20.451   8.243   6.252
 4398POPC   C2B58304  20.589   8.450   6.604
 4398POPC   C3B58305  20.633   8.320   7.005
 4398POPC   C4B58306  20.617   8.297   7.456
 4399POPC   NC358307   9.485  19.902   5.500
 4399POPC   PO458308  10.165  20.031   5.715
 4399POPC   GL158309   9.829  19.831   5.877
 4399POPC   GL258310   9.733  19.513   5.729
 4399POPC   C1A58311   9.724  20.033   6.243
 4399POPC   D2A58312   9.576  20.260   6.588
 4399POPC   C3A58313   9.820  20.034   6.825
 4399POPC   C4A58314   9.842  19.972   7.199
 4399POPC   C1B58315   9.531  19.496   6.142
 4399POPC   C2B58316   9.688  19.587   6.559
 4399POPC   C3B58317   9.625  19.543   7.005
 4399POPC   C4B58318   9.232  19.611   7.236
 4400POPC   NC358319  16.992  36.896   5.452
 4400POPC   PO458320  16.902  37.397   5.839
 4400POPC   GL158321  16.833  36.922   5.930
 4400POPC   GL258322  16.496  36.895   5.860
 4400POPC   C1A58323  16.693  36.606   6.246
 4400POPC   D2A58324  16.577  36.667   6.661
 4400POPC   C3A58325  16.930  36.702   6.945
 4400POPC   C4A58326  16.935  36.668   7.403
 4400POPC   C1B58327  16.541  37.117   6.312
 4400POPC   C2B58328  16.336  37.121   6.725
 4400POPC   C3B58329  16.578  37.129   7.149
 4400POPC   C4B58330  16.631  37.318   7.609
 4401POPC   NC358331  44.599  29.579   5.201
 4401POPC   PO458332  44.331  29.069   5.540
 4401POPC   GL158333  44.486  29.007   5.925
 4401POPC   GL258334  44.811  29.011   5.932
 4401POPC   C1A58335  44.523  29.193   6.334
 4401POPC   D2A58336  44.509  29.072   6.739
 4401POPC   C3A58337  44.583  29.345   7.061
 4401POPC   C4A58338  44.640  29.304   7.522
 4401POPC   C1B58339   0.032  29.122   6.301
 4401POPC   C2B58340  44.961  29.333   6.693
 4401POPC   C3B58341   0.104  29.348   7.103
 4401POPC   C4B58342  44.920  28.974   7.252
 4402POPC   NC358343  13.590  17.604   5.370
 4402POPC   PO458344  14.070  17.251   5.671
 4402POPC   GL158345  13.824  17.645   5.847
 4402POPC   GL258346  13.457  17.771   5.848
 4402POPC   C1A58347  13.749  17.688   6.298
 4402POPC   D2A58348  13.990  17.515   6.620
 4402POPC   C3A58349  13.853  17.497   7.019
 4402POPC   C4A58350  13.949  17.304   7.402
 4402POPC   C1B58351  13.244  17.787   6.271
 4402POPC   C2B58352  13.217  17.598   6.681
 4402POPC   C3B58353  13.363  17.745   7.076
 4402POPC   C4B58354  13.604  17.772   7.453
 4403POPC   NC358355   3.864   2.830   5.473
 4403POPC   PO458356   3.327   2.390   5.447
 4403POPC   GL158357   3.305   2.514   5.827
 4403POPC   GL258358   3.502   2.773   5.832
 4403POPC   C1A58359   3.130   2.600   6.207
 4403POPC   D2A58360   3.156   2.883   6.529
 4403POPC   C3A58361   3.325   2.794   6.915
 4403POPC   C4A58362   3.373   2.845   7.331
 4403POPC   C1B58363   3.575   2.958   6.222
 4403POPC   C2B58364   3.709   2.972   6.641
 4403POPC   C3B58365   3.702   3.136   7.055
 4403POPC   C4B58366   3.829   3.028   7.472
 4404POPC   NC358367  35.809  25.514   5.135
 4404POPC   PO458368  35.217  25.194   5.440
 4404POPC   GL158369  35.516  25.248   5.791
 4404POPC   GL258370  35.683  24.955   5.899
 4404POPC   C1A58371  35.573  25.471   6.207
 4404POPC   D2A58372  35.279  25.679   6.504
 4404POPC   C3A58373  35.294  25.421   6.872
 4404POPC   C4A58374  35.636  25.371   7.113
 4404POPC   C1B58375  35.440  24.983   6.316
 4404POPC   C2B58376  35.557  24.928   6.779
 4404POPC   C3B58377  35.311  24.968   7.153
 4404POPC   C4B58378  34.895  25.047   7.056
 4405POPC   NC358379  31.460  35.574   5.450
 4405POPC   PO458380  31.263  34.912   5.467
 4405POPC   GL158381  31.327  35.180   5.840
 4405POPC   GL258382  31.622  35.422   5.898
 4405POPC   C1A58383  31.458  35.162   6.291
 4405POPC   D2A58384  31.521  35.433   6.635
 4405POPC   C3A58385  31.316  35.223   6.971
 4405POPC   C4A58386  31.472  35.102   7.353
 4405POPC   C1B58387  31.218  35.594   6.123
 4405POPC   C2B58388  31.054  35.707   6.534
 4405POPC   C3B58389  31.210  35.743   6.967
 4405POPC   C4B58390  31.196  35.528   7.375
 4406POPC   NC358391  35.869  25.620   5.650
 4406POPC   PO458392  35.906  24.957   5.392
 4406POPC   GL158393  36.196  25.033   5.716
 4406POPC   GL258394  36.303  25.383   5.704
 4406POPC   C1A58395  36.084  25.174   6.127
 4406POPC   D2A58396  36.088  25.340   6.534
 4406POPC   C3A58397  36.047  25.093   6.918
 4406POPC   C4A58398  35.832  24.933   7.286
 4406POPC   C1B58399  36.422  25.584   6.115
 4406POPC   C2B58400  36.530  25.629   6.561
 4406POPC   C3B58401  36.308  25.533   6.968
 4406POPC   C4B58402  36.346  25.231   7.314
 4407POPC   NC358403  12.749  27.315   5.437
 4407POPC   PO458404  13.079  27.860   5.612
 4407POPC   GL158405  12.698  27.779   5.955
 4407POPC   GL258406  12.593  27.432   5.904
 4407POPC   C1A58407  12.616  27.658   6.437
 4407POPC   D2A58408  12.918  27.767   6.801
 4407POPC   C3A58409  12.828  27.706   7.244
 4407POPC   C4A58410  12.619  27.688   7.663
 4407POPC   C1B58411  12.923  27.366   6.166
 4407POPC   C2B58412  12.839  27.196   6.560
 4407POPC   C3B58413  12.665  27.307   6.946
 4407POPC   C4B58414  12.778  27.235   7.392
 4408POPC   NC358415  13.748  27.347   5.454
 4408POPC   PO458416  13.894  28.036   5.408
 4408POPC   GL158417  13.667  27.781   5.752
 4408POPC   GL258418  13.399  27.490   5.782
 4408POPC   C1A58419  13.680  27.751   6.196
 4408POPC   D2A58420  13.777  27.461   6.545
 4408POPC   C3A58421  13.654  27.582   6.966
 4408POPC   C4A58422  13.773  27.644   7.397
 4408POPC   C1B58423  13.423  27.306   6.194
 4408POPC   C2B58424  13.270  27.467   6.595
 4408POPC   C3B58425  13.181  27.332   7.033
 4408POPC   C4B58426  13.469  27.227   7.372
 4409POPC   NC358427  23.935   3.788   5.272
 4409POPC   PO458428  23.467   3.408   5.501
 4409POPC   GL158429  23.769   3.560   5.802
 4409POPC   GL258430  23.502   3.561   6.027
 4409POPC   C1A58431  23.933   3.558   6.274
 4409POPC   D2A58432  23.606   3.478   6.626
 4409POPC   C3A58433  23.702   3.631   7.044
 4409POPC   C4A58434  24.067   3.861   7.217
 4409POPC   C1B58435  23.229   3.286   6.229
 4409POPC   C2B58436  23.255   3.095   6.638
 4409POPC   C3B58437  23.304   3.257   7.046
 4409POPC   C4B58438  23.593   3.257   7.365
 4410POPC   NC358439  35.513   3.068   5.473
 4410POPC   PO458440  35.291   2.368   5.434
 4410POPC   GL158441  35.265   2.572   5.823
 4410POPC   GL258442  35.103   2.917   5.800
 4410POPC   C1A58443  35.264   2.460   6.261
 4410POPC   D2A58444  35.449   2.523   6.653
 4410POPC   C3A58445  35.175   2.650   6.955
 4410POPC   C4A58446  35.388   2.437   7.281
 4410POPC   C1B58447  35.357   2.961   6.178
 4410POPC   C2B58448  35.419   3.019   6.622
 4410POPC   C3B58449  35.603   2.897   7.023
 4410POPC   C4B58450  35.260   3.063   7.258
 4411POPC   NC358451  27.704  16.509   5.200
 4411POPC   PO458452  27.890  15.966   5.342
 4411POPC   GL158453  27.700  15.988   5.754
 4411POPC   GL258454  27.828  16.319   5.773
 4411POPC   C1A58455  27.805  15.719   6.149
 4411POPC   D2A58456  27.936  15.553   6.544
 4411POPC   C3A58457  27.869  15.782   6.892
 4411POPC   C4A58458  27.523  15.840   7.164
 4411POPC   C1B58459  27.767  16.221   6.241
 4411POPC   C2B58460  27.623  16.203   6.679
 4411POPC   C3B58461  27.374  16.319   7.061
 4411POPC   C4B58462  27.222  16.172   7.470
 4412POPC   NC358463  44.814  22.637   5.561
 4412POPC   PO458464  44.463  23.184   5.485
 4412POPC   GL158465  44.673  23.043   5.843
 4412POPC   GL258466  44.821  23.297   6.012
 4412POPC   C1A58467  44.744  22.838   6.284
 4412POPC   D2A58468  44.500  22.559   6.598
 4412POPC   C3A58469  44.462  22.690   7.054
 4412POPC   C4A58470  44.772  22.869   7.408
 4412POPC   C1B58471  44.364  23.170   6.214
 4412POPC   C2B58472  44.363  23.057   6.626
 4412POPC   C3B58473  44.673  23.134   6.949
 4412POPC   C4B58474  44.450  23.247   7.312
 4413POPC   NC358475  17.985  31.883   5.356
 4413POPC   PO458476  18.055  31.180   5.330
 4413POPC   GL158477  18.158  31.426   5.723
 4413POPC   GL258478  18.529  31.484   5.832
 4413POPC   C1A58479  18.118  31.327   6.172
 4413POPC   D2A58480  18.017  31.168   6.602
 4413POPC   C3A58481  18.071  31.427   6.987
 4413POPC   C4A58482  18.228  31.487   7.425
 4413POPC   C1B58483  18.632  31.346   6.249
 4413POPC   C2B58484  18.473  31.466   6.647
 4413POPC   C3B58485  18.641  31.394   7.056
 4413POPC   C4B58486  18.685  31.266   7.495
 4414POPC   NC358487  43.619   2.241   5.506
 4414POPC   PO458488  44.093   1.757   5.403
 4414POPC   GL158489  43.924   1.780   5.822
 4414POPC   GL258490  44.064   2.104   5.855
 4414POPC   C1A58491  43.757   1.650   6.266
 4414POPC   D2A58492  43.595   1.913   6.655
 4414POPC   C3A58493  43.523   1.915   7.130
 4414POPC   C4A58494  43.634   1.928   7.591
 4414POPC   C1B58495  44.208   2.409   6.162
 4414POPC   C2B58496  44.240   2.475   6.586
 4414POPC   C3B58497  44.129   2.191   6.936
 4414POPC   C4B58498  44.388   2.182   7.276
 4415POPC   NC358499  38.849   4.459   5.450
 4415POPC   PO458500  38.140   4.542   5.320
 4415POPC   GL158501  38.384   4.469   5.724
 4415POPC   GL258502  38.597   4.155   5.803
 4415POPC   C1A58503  38.478   4.544   6.167
 4415POPC   D2A58504  38.386   4.357   6.583
 4415POPC   C3A58505  38.362   4.603   6.978
 4415POPC   C4A58506  38.297   4.384   7.362
 4415POPC   C1B58507  38.427   3.972   6.209
 4415POPC   C2B58508  38.482   3.783   6.642
 4415POPC   C3B58509  38.454   3.993   7.059
 4415POPC   C4B58510  38.649   4.041   7.491
 4416POPC   NC358511   5.410  40.631   5.110
 4416POPC   PO458512   5.906  41.097   5.309
 4416POPC   GL158513   5.938  40.865   5.695
 4416POPC   GL258514   5.663  41.057   5.784
 4416POPC   C1A58515   5.884  40.779   6.176
 4416POPC   D2A58516   5.906  41.008   6.587
 4416POPC   C3A58517   5.900  40.769   6.979
 4416POPC   C4A58518   5.781  40.808   7.431
 4416POPC   C1B58519   5.569  41.179   6.199
 4416POPC   C2B58520   5.381  41.173   6.598
 4416POPC   C3B58521   5.482  41.073   7.038
 4416POPC   C4B58522   5.308  40.953   7.443
 4417POPC   NC358523  31.486   7.205   5.351
 4417POPC   PO458524  31.187   7.789   5.343
 4417POPC   GL158525  31.338   7.542   5.708
 4417POPC   GL258526  31.711   7.586   5.689
 4417POPC   C1A58527  31.495   7.224   6.036
 4417POPC   D2A58528  31.649   7.308   6.475
 4417POPC   C3A58529  31.444   7.240   6.875
 4417POPC   C4A58530  31.447   7.464   7.234
 4417POPC   C1B58531  31.623   7.717   6.136
 4417POPC   C2B58532  31.403   7.781   6.538
 4417POPC   C3B58533  31.174   7.771   6.924
 4417POPC   C4B58534  31.287   7.927   7.334
 4418POPC   NC358535  37.783   1.690   5.384
 4418POPC   PO458536  37.472   2.263   5.406
 4418POPC   GL158537  37.548   2.043   5.802
 4418POPC   GL258538  37.896   1.900   5.852
 4418POPC   C1A58539  37.532   2.031   6.281
 4418POPC   D2A58540  37.637   2.334   6.624
 4418POPC   C3A58541  37.764   2.234   7.049
 4418POPC   C4A58542  37.505   1.947   7.210
 4418POPC   C1B58543  38.045   1.982   6.279
 4418POPC   C2B58544  37.880   1.858   6.693
 4418POPC   C3B58545  37.986   1.749   7.122
 4418POPC   C4B58546  38.069   2.017   7.460
 4419POPC   NC358547  40.585  31.257   5.200
 4419POPC   PO458548  41.203  31.458   5.203
 4419POPC   GL158549  40.777  31.461   5.649
 4419POPC   GL258550  40.829  31.229   5.935
 4419POPC   C1A58551  40.531  31.534   6.146
 4419POPC   D2A58552  40.566  31.510   6.640
 4419POPC   C3A58553  40.547  31.194   6.952
 4419POPC   C4A58554  40.644  31.265   7.383
 4419POPC   C1B58555  41.013  31.578   6.269
 4419POPC   C2B58556  41.002  31.779   6.692
 4419POPC   C3B58557  40.878  31.625   7.106
 4419POPC   C4B58558  41.120  31.533   7.487
 4420POPC   NC358559  29.830  39.455   5.374
 4420POPC   PO458560  29.718  38.835   5.437
 4420POPC   GL158561  29.851  39.054   5.786
 4420POPC   GL258562  30.152  39.232   5.701
 4420POPC   C1A58563  29.774  39.020   6.242
 4420POPC   D2A58564  29.623  39.191   6.652
 4420POPC   C3A58565  29.813  39.145   7.052
 4420POPC   C4A58566  29.756  38.871   7.461
 4420POPC   C1B58567  30.224  39.252   6.154
 4420POPC   C2B58568  30.146  39.154   6.614
 4420POPC   C3B58569  30.299  39.348   7.007
 4420POPC   C4B58570  30.500  39.542   7.379
 4421POPC   NC358571   3.057   0.289   5.370
 4421POPC   PO458572   3.664   0.590   5.504
 4421POPC   GL158573   3.368   0.423   5.765
 4421POPC   GL258574   3.656   0.211   5.869
 4421POPC   C1A58575   3.233   0.286   6.163
 4421POPC   D2A58576   3.454   0.300   6.539
 4421POPC   C3A58577   3.235   0.346   6.909
 4421POPC   C4A58578   3.347   0.507   7.309
 4421POPC   C1B58579   3.830   0.499   6.188
 4421POPC   C2B58580   3.861   0.611   6.627
 4421POPC   C3B58581   3.762   0.390   7.017
 4421POPC   C4B58582   3.825   0.464   7.478
 4422POPC   NC358583  20.071  33.354   5.357
 4422POPC   PO458584  19.988  34.021   5.439
 4422POPC   GL158585  19.983  33.810   5.819
 4422POPC   GL258586  20.046  33.456   5.854
 4422POPC   C1A58587  19.977  33.944   6.243
 4422POPC   D2A58588  19.961  34.188   6.629
 4422POPC   C3A58589  19.884  34.062   7.040
 4422POPC   C4A58590  19.481  34.137   7.275
 4422POPC   C1B58591  20.020  33.449   6.321
 4422POPC   C2B58592  20.062  33.673   6.688
 4422POPC   C3B58593  20.088  33.589   7.122
 4422POPC   C4B58594  20.154  33.472   7.543
 4423POPC   NC358595  19.816  21.750   5.029
 4423POPC   PO458596  19.648  21.276   5.310
 4423POPC   GL158597  19.734  21.420   5.765
 4423POPC   GL258598  19.506  21.652   5.928
 4423POPC   C1A58599  19.946  21.418   6.218
 4423POPC   D2A58600  20.103  21.531   6.677
 4423POPC   C3A58601  19.918  21.557   7.129
 4423POPC   C4A58602  19.684  21.578   7.551
 4423POPC   C1B58603  19.451  21.387   6.318
 4423POPC   C2B58604  19.629  21.319   6.749
 4423POPC   C3B58605  19.521  21.228   7.186
 4423POPC   C4B58606  19.219  21.379   7.507
 4424POPC   NC358607   6.901   9.877   5.384
 4424POPC   PO458608   6.330   9.534   5.167
 4424POPC   GL158609   6.455   9.614   5.663
 4424POPC   GL258610   6.687   9.892   5.827
 4424POPC   C1A58611   6.389   9.678   6.156
 4424POPC   D2A58612   6.558   9.784   6.581
 4424POPC   C3A58613   6.575   9.557   6.952
 4424POPC   C4A58614   7.014   9.589   7.103
 4424POPC   C1B58615   6.872   9.979   6.222
 4424POPC   C2B58616   6.776  10.239   6.599
 4424POPC   C3B58617   6.646  10.102   7.018
 4424POPC   C4B58618   6.871  10.067   7.405
 4425POPC   NC358619   4.617   2.910   5.366
 4425POPC   PO458620   4.125   2.445   5.425
 4425POPC   GL158621   4.293   2.647   5.789
 4425POPC   GL258622   3.989   2.616   5.940
 4425POPC   C1A58623   4.429   2.517   6.228
 4425POPC   D2A58624   4.760   2.498   6.547
 4425POPC   C3A58625   4.595   2.404   6.960
 4425POPC   C4A58626   4.600   2.615   7.366
 4425POPC   C1B58627   3.949   2.613   6.364
 4425POPC   C2B58628   4.195   2.751   6.720
 4425POPC   C3B58629   4.179   2.808   7.166
 4425POPC   C4B58630   4.169   2.701   7.640
 4426POPC   NC358631   2.486   5.758   5.351
 4426POPC   PO458632   3.160   5.678   5.443
 4426POPC   GL158633   2.952   6.027   5.708
 4426POPC   GL258634   2.644   5.871   5.822
 4426POPC   C1A58635   2.867   6.198   6.151
 4426POPC   D2A58636   2.762   5.943   6.521
 4426POPC   C3A58637   2.546   6.053   6.891
 4426POPC   C4A58638   2.752   6.110   7.272
 4426POPC   C1B58639   2.998   5.692   6.108
 4426POPC   C2B58640   3.088   5.555   6.540
 4426POPC   C3B58641   2.918   5.654   6.968
 4426POPC   C4B58642   3.053   5.576   7.410
 4427POPC   NC358643  16.064   7.946   5.546
 4427POPC   PO458644  15.667   8.427   5.560
 4427POPC   GL158645  15.895   8.271   5.908
 4427POPC   GL258646  16.239   8.351   5.837
 4427POPC   C1A58647  15.979   8.310   6.348
 4427POPC   D2A58648  15.806   8.471   6.696
 4427POPC   C3A58649  15.988   8.259   7.024
 4427POPC   C4A58650  16.115   8.459   7.396
 4427POPC   C1B58651  16.300   7.992   6.141
 4427POPC   C2B58652  16.249   7.883   6.571
 4427POPC   C3B58653  16.435   7.981   6.973
 4427POPC   C4B58654  16.479   8.133   7.420
 4428POPC   NC358655   8.226  32.948   5.279
 4428POPC   PO458656   7.612  33.016   5.452
 4428POPC   GL158657   7.969  33.205   5.695
 4428POPC   GL258658   8.341  33.071   5.760
 4428POPC   C1A58659   8.036  33.271   6.143
 4428POPC   D2A58660   8.023  33.493   6.557
 4428POPC   C3A58661   7.888  33.280   6.944
 4428POPC   C4A58662   8.245  33.336   7.175
 4428POPC   C1B58663   8.234  32.780   6.110
 4428POPC   C2B58664   8.339  32.667   6.534
 4428POPC   C3B58665   8.233  32.888   6.911
 4428POPC   C4B58666   7.979  32.818   7.264
 4429POPC   NC358667  15.330  32.600   5.530
 4429POPC   PO458668  15.492  33.159   5.216
 4429POPC   GL158669  15.356  33.089   5.706
 4429POPC   GL258670  15.060  33.263   5.775
 4429POPC   C1A58671  15.206  32.904   6.139
 4429POPC   D2A58672  15.159  32.721   6.573
 4429POPC   C3A58673  15.198  32.975   6.929
 4429POPC   C4A58674  15.320  32.984   7.369
 4429POPC   C1B58675  15.134  33.418   6.195
 4429POPC   C2B58676  15.135  33.415   6.643
 4429POPC   C3B58677  14.785  33.338   6.910
 4429POPC   C4B58678  14.808  33.081   7.270
 4430POPC   NC358679   8.240  40.078   5.317
 4430POPC   PO458680   8.519  40.574   5.649
 4430POPC   GL158681   8.409  40.160   5.803
 4430POPC   GL258682   8.082  40.032   5.805
 4430POPC   C1A58683   8.385  39.900   6.180
 4430POPC   D2A58684   8.247  40.018   6.567
 4430POPC   C3A58685   8.396  39.867   6.948
 4430POPC   C4A58686   8.307  40.060   7.314
 4430POPC   C1B58687   7.852  39.956   6.182
 4430POPC   C2B58688   7.805  39.782   6.554
 4430POPC   C3B58689   7.956  39.541   6.864
 4430POPC   C4B58690   8.062  39.579   7.289
 4431POPC   NC358691  38.291   1.223   5.452
 4431POPC   PO458692  37.625   1.280   5.300
 4431POPC   GL158693  37.798   1.321   5.751
 4431POPC   GL258694  37.789   0.995   5.940
 4431POPC   C1A58695  37.812   1.497   6.202
 4431POPC   D2A58696  37.814   1.318   6.657
 4431POPC   C3A58697  37.572   1.467   7.039
 4431POPC   C4A58698  37.629   1.572   7.531
 4431POPC   C1B58699  37.659   0.680   6.306
 4431POPC   C2B58700  37.412   0.762   6.649
 4431POPC   C3B58701  37.539   0.944   7.059
 4431POPC   C4B58702  37.877   1.158   7.285
 4432POPC   NC358703  35.261   3.680   5.340
 4432POPC   PO458704  35.654   3.990   5.766
 4432POPC   GL158705  35.337   3.683   5.847
 4432POPC   GL258706  35.398   3.369   5.850
 4432POPC   C1A58707  35.100   3.665   6.201
 4432POPC   D2A58708  35.052   3.399   6.570
 4432POPC   C3A58709  35.178   3.624   6.943
 4432POPC   C4A58710  35.234   3.559   7.385
 4432POPC   C1B58711  35.556   3.422   6.275
 4432POPC   C2B58712  35.793   3.344   6.654
 4432POPC   C3B58713  35.615   3.394   7.076
 4432POPC   C4B58714  35.666   3.216   7.512
 4433POPC   NC358715  38.273  14.229   5.381
 4433POPC   PO458716  38.900  14.625   5.310
 4433POPC   GL158717  38.590  14.499   5.663
 4433POPC   GL258718  38.641  14.140   5.761
 4433POPC   C1A58719  38.502  14.526   6.125
 4433POPC   D2A58720  38.674  14.401   6.559
 4433POPC   C3A58721  38.437  14.442   6.940
 4433POPC   C4A58722  38.475  14.722   7.275
 4433POPC   C1B58723  38.626  14.015   6.226
 4433POPC   C2B58724  38.375  13.987   6.637
 4433POPC   C3B58725  38.419  13.864   7.078
 4433POPC   C4B58726  38.238  13.902   7.494
 4434POPC   NC358727  44.585   3.147   5.191
 4434POPC   PO458728  44.515   3.786   5.464
 4434POPC   GL158729  44.492   3.425   5.647
 4434POPC   GL258730  44.841   3.501   5.775
 4434POPC   C1A58731  44.430   3.426   6.083
 4434POPC   D2A58732  44.723   3.401   6.393
 4434POPC   C3A58733  44.680   3.532   6.821
 4434POPC   C4A58734  44.892   3.412   7.161
 4434POPC   C1B58735  44.765   3.827   6.092
 4434POPC   C2B58736  44.608   3.921   6.488
 4434POPC   C3B58737  44.774   4.057   6.857
 4434POPC   C4B58738  44.711   3.894   7.228
 4435POPC   NC358739   0.607  18.913   5.650
 4435POPC   PO458740   0.109  19.305   5.377
 4435POPC   GL158741   0.335  19.311   5.776
 4435POPC   GL258742   0.683  19.363   5.892
 4435POPC   C1A58743   0.210  19.068   6.149
 4435POPC   D2A58744   0.195  18.804   6.483
 4435POPC   C3A58745   0.334  19.101   6.785
 4435POPC   C4A58746   0.365  19.093   7.226
 4435POPC   C1B58747   0.715  19.094   6.273
 4435POPC   C2B58748   0.719  18.819   6.629
 4435POPC   C3B58749   0.794  18.913   7.019
 4435POPC   C4B58750   0.863  19.172   7.358
 4436POPC   NC358751  16.003  12.593   5.113
 4436POPC   PO458752  16.123  11.990   5.428
 4436POPC   GL158753  15.938  12.014   5.835
 4436POPC   GL258754  16.118  12.288   6.037
 4436POPC   C1A58755  15.702  12.068   6.198
 4436POPC   D2A58756  15.555  12.023   6.603
 4436POPC   C3A58757  15.871  12.027   6.914
 4436POPC   C4A58758  15.856  12.096   7.345
 4436POPC   C1B58759  16.254  11.976   6.285
 4436POPC   C2B58760  16.345  11.879   6.704
 4436POPC   C3B58761  16.302  11.911   7.170
 4436POPC   C4B58762  16.341  12.088   7.627
 4437POPC   NC358763  27.788  36.766   5.329
 4437POPC   PO458764  27.253  36.824   5.420
 4437POPC   GL158765  27.555  36.812   5.800
 4437POPC   GL258766  27.855  36.558   5.794
 4437POPC   C1A58767  27.531  36.976   6.256
 4437POPC   D2A58768  27.365  37.029   6.699
 4437POPC   C3A58769  27.633  36.981   7.088
 4437POPC   C4A58770  28.051  36.836   7.222
 4437POPC   C1B58771  27.694  36.496   6.233
 4437POPC   C2B58772  27.702  36.610   6.698
 4437POPC   C3B58773  27.682  36.473   7.147
 4437POPC   C4B58774  27.684  36.676   7.559
 4438POPC   NC358775  37.176   2.703   5.379
 4438POPC   PO458776  36.558   2.993   5.287
 4438POPC   GL158777  36.761   2.781   5.694
 4438POPC   GL258778  37.086   2.906   5.832
 4438POPC   C1A58779  36.757   2.630   6.139
 4438POPC   D2A58780  36.668   2.867   6.528
 4438POPC   C3A58781  36.833   2.736   6.916
 4438POPC   C4A58782  36.800   2.410   7.163
 4438POPC   C1B58783  37.102   2.993   6.266
 4438POPC   C2B58784  37.157   3.201   6.634
 4438POPC   C3B58785  37.224   3.065   7.022
 4438POPC   C4B58786  37.221   2.741   7.330
 4439POPC   NC358787   5.100  12.742   5.290
 4439POPC   PO458788   4.805  13.374   5.383
 4439POPC   GL158789   5.136  13.135   5.705
 4439POPC   GL258790   5.202  12.750   5.790
 4439POPC   C1A58791   5.293  13.080   6.161
 4439POPC   D2A58792   5.141  12.951   6.572
 4439POPC   C3A58793   5.200  13.040   7.008
 4439POPC   C4A58794   5.211  13.238   7.433
 4439POPC   C1B58795   5.213  12.569   6.243
 4439POPC   C2B58796   5.032  12.465   6.688
 4439POPC   C3B58797   5.051  12.530   7.132
 4439POPC   C4B58798   4.987  12.791   7.487
 4440POPC   NC358799  41.791  30.216   5.503
 4440POPC   PO458800  41.317  29.661   5.389
 4440POPC   GL158801  41.340  29.669   5.797
 4440POPC   GL258802  41.440  30.012   5.845
 4440POPC   C1A58803  41.523  29.580   6.187
 4440POPC   D2A58804  41.608  29.701   6.589
 4440POPC   C3A58805  41.331  29.720   6.919
 4440POPC   C4A58806  41.619  29.638   7.215
 4440POPC   C1B58807  41.646  30.113   6.244
 4440POPC   C2B58808  41.757  30.172   6.696
 4440POPC   C3B58809  41.522  30.173   7.105
 4440POPC   C4B58810  41.516  30.272   7.557
 4441POPC   NC358811  42.994  20.901   5.445
 4441POPC   PO458812  43.530  20.524   5.561
 4441POPC   GL158813  43.254  20.532   5.908
 4441POPC   GL258814  42.958  20.303   5.897
 4441POPC   C1A58815  43.264  20.342   6.327
 4441POPC   D2A58816  43.160  20.451   6.749
 4441POPC   C3A58817  43.278  20.854   6.877
 4441POPC   C4A58818  43.315  20.901   7.298
 4441POPC   C1B58819  42.835  20.641   6.222
 4441POPC   C2B58820  42.800  20.843   6.656
 4441POPC   C3B58821  42.819  20.712   7.104
 4441POPC   C4B58822  42.633  20.273   7.108
 4442POPC   NC358823  23.698  28.856   5.188
 4442POPC   PO458824  23.887  28.406   5.630
 4442POPC   GL158825  23.680  28.276   5.938
 4442POPC   GL258826  23.447  28.529   5.977
 4442POPC   C1A58827  23.735  28.387   6.354
 4442POPC   D2A58828  23.571  28.361   6.713
 4442POPC   C3A58829  23.951  28.306   6.936
 4442POPC   C4A58830  23.855  28.197   7.308
 4442POPC   C1B58831  23.304  28.755   6.359
 4442POPC   C2B58832  23.597  28.886   6.706
 4442POPC   C3B58833  23.657  28.668   7.112
 4442POPC   C4B58834  23.286  28.390   7.142
 4443POPC   NC358835  34.558  28.655   5.458
 4443POPC   PO458836  34.923  29.250   5.419
 4443POPC   GL158837  34.622  29.150   5.787
 4443POPC   GL258838  34.382  28.889   5.899
 4443POPC   C1A58839  34.571  29.183   6.254
 4443POPC   D2A58840  34.334  29.093   6.644
 4443POPC   C3A58841  34.536  29.204   7.034
 4443POPC   C4A58842  34.854  28.968   7.206
 4443POPC   C1B58843  34.108  28.801   6.286
 4443POPC   C2B58844  34.035  28.671   6.750
 4443POPC   C3B58845  34.171  28.864   7.170
 4443POPC   C4B58846  34.464  28.810   7.571
 4444POPC   NC358847  38.985  10.707   5.010
 4444POPC   PO458848  39.496  10.487   5.439
 4444POPC   GL158849  39.155  10.416   5.734
 4444POPC   GL258850  39.417  10.267   5.904
 4444POPC   C1A58851  38.890  10.517   6.123
 4444POPC   D2A58852  38.822  10.340   6.561
 4444POPC   C3A58853  38.884  10.577   6.911
 4444POPC   C4A58854  39.156  10.695   7.226
 4444POPC   C1B58855  39.391  10.587   6.200
 4444POPC   C2B58856  39.298  10.589   6.609
 4444POPC   C3B58857  39.572  10.621   6.914
 4444POPC   C4B58858  39.625  10.879   7.284
 4445POPC   NC358859  39.725   6.814   5.330
 4445POPC   PO458860  39.964   7.431   5.248
 4445POPC   GL158861  40.032   7.513   5.709
 4445POPC   GL258862  39.853   7.815   5.809
 4445POPC   C1A58863  39.998   7.251   6.103
 4445POPC   D2A58864  40.184   7.317   6.521
 4445POPC   C3A58865  40.158   7.059   6.896
 4445POPC   C4A58866  40.187   7.311   7.241
 4445POPC   C1B58867  39.964   7.735   6.238
 4445POPC   C2B58868  39.728   7.517   6.542
 4445POPC   C3B58869  39.864   7.557   6.945
 4445POPC   C4B58870  39.666   7.425   7.315
 4446POPC   NC358871   8.209  38.142   5.405
 4446POPC   PO458872   8.096  37.495   5.509
 4446POPC   GL158873   8.066  37.592   5.927
 4446POPC   GL258874   8.229  37.911   5.891
 4446POPC   C1A58875   7.999  37.740   6.347
 4446POPC   D2A58876   8.217  37.990   6.684
 4446POPC   C3A58877   8.329  37.675   7.004
 4446POPC   C4A58878   8.202  37.527   7.445
 4446POPC   C1B58879   8.507  37.860   6.257
 4446POPC   C2B58880   8.730  38.014   6.618
 4446POPC   C3B58881   8.611  38.113   7.055
 4446POPC   C4B58882   8.630  37.786   7.429
 4447POPC   NC358883  35.958   3.962   5.417
 4447POPC   PO458884  36.309   4.591   5.307
 4447POPC   GL158885  36.304   4.291   5.628
 4447POPC   GL258886  36.020   4.376   5.716
 4447POPC   C1A58887  36.256   4.069   6.063
 4447POPC   D2A58888  35.968   4.072   6.447
 4447POPC   C3A58889  36.117   4.166   6.868
 4447POPC   C4A58890  36.251   4.025   7.274
 4447POPC   C1B58891  35.947   4.478   6.122
 4447POPC   C2B58892  35.871   4.579   6.565
 4447POPC   C3B58893  35.702   4.418   6.981
 4447POPC   C4B58894  35.977   4.464   7.329
 4448POPC   NC358895  12.441  13.463   5.529
 4448POPC   PO458896  11.743  13.472   5.357
 4448POPC   GL158897  11.963  13.363   5.768
 4448POPC   GL258898  12.086  13.681   5.857
 4448POPC   C1A58899  12.027  13.390   6.251
 4448POPC   D2A58900  12.059  13.741   6.550
 4448POPC   C3A58901  12.139  13.584   6.924
 4448POPC   C4A58902  12.059  13.822   7.243
 4448POPC   C1B58903  12.424  13.720   6.201
 4448POPC   C2B58904  12.565  13.776   6.656
 4448POPC   C3B58905  12.587  13.782   7.114
 4448POPC   C4B58906  12.453  13.744   7.565
 4449POPC   NC358907   4.433   1.381   5.441
 4449POPC   PO458908   4.250   0.749   5.448
 4449POPC   GL158909   4.235   1.050   5.809
 4449POPC   GL258910   4.593   1.093   5.834
 4449POPC   C1A58911   4.212   1.305   6.225
 4449POPC   D2A58912   4.191   1.695   6.517
 4449POPC   C3A58913   4.009   1.649   6.948
 4449POPC   C4A58914   4.019   1.394   7.343
 4449POPC   C1B58915   4.559   0.894   6.230
 4449POPC   C2B58916   4.295   0.939   6.601
 4449POPC   C3B58917   4.300   1.233   6.940
 4449POPC   C4B58918   4.409   1.080   7.343
 4450POPC   NC358919  20.065  25.299   5.391
 4450POPC   PO458920  19.601  24.830   5.172
 4450POPC   GL158921  19.740  24.978   5.638
 4450POPC   GL258922  19.786  25.355   5.791
 4450POPC   C1A58923  19.751  24.971   6.117
 4450POPC   D2A58924  19.704  24.844   6.564
 4450POPC   C3A58925  19.937  25.059   6.871
 4450POPC   C4A58926  19.991  24.986   7.308
 4450POPC   C1B58927  19.832  25.570   6.204
 4450POPC   C2B58928  19.987  25.531   6.638
 4450POPC   C3B58929  19.999  25.512   7.099
 4450POPC   C4B58930  20.057  25.576   7.526
 4451POPC   NC358931   8.748  43.221   5.397
 4451POPC   PO458932   9.218  42.838   5.436
 4451POPC   GL158933   9.050  43.097   5.779
 4451POPC   GL258934   8.703  42.966   5.851
 4451POPC   C1A58935   9.154  43.312   6.151
 4451POPC   D2A58936   9.216  43.147   6.552
 4451POPC   C3A58937   9.155  43.275   6.953
 4451POPC   C4A58938   9.245  42.905   7.166
 4451POPC   C1B58939   8.645  43.340   6.122
 4451POPC   C2B58940   8.766  43.399   6.575
 4451POPC   C3B58941   8.567  43.431   7.010
 4451POPC   C4B58942   8.598  43.304   7.501
 4452POPC   NC358943  11.146   8.547   5.466
 4452POPC   PO458944  11.372   9.196   5.293
 4452POPC   GL158945  11.271   9.067   5.686
 4452POPC   GL258946  11.452   8.806   5.799
 4452POPC   C1A58947  11.470   9.244   6.057
 4452POPC   D2A58948  11.305   9.378   6.463
 4452POPC   C3A58949  11.464   9.288   6.863
 4452POPC   C4A58950  11.247   9.014   7.147
 4452POPC   C1B58951  11.303   8.801   6.226
 4452POPC   C2B58952  11.431   8.806   6.644
 4452POPC   C3B58953  11.328   8.529   6.962
 4452POPC   C4B58954  11.414   8.606   7.364
 4453POPC   NC358955  16.504   2.182   5.311
 4453POPC   PO458956  16.861   1.684   5.618
 4453POPC   GL158957  16.495   1.888   5.734
 4453POPC   GL258958  16.715   2.151   5.780
 4453POPC   C1A58959  16.357   2.037   6.123
 4453POPC   D2A58960  16.468   1.780   6.472
 4453POPC   C3A58961  16.506   1.922   6.893
 4453POPC   C4A58962  16.678   1.826   7.277
 4453POPC   C1B58963  17.036   2.228   6.108
 4453POPC   C2B58964  17.195   2.185   6.527
 4453POPC   C3B58965  16.942   2.225   6.876
 4453POPC   C4B58966  16.646   2.328   7.200
 4454POPC   NC358967  13.563  28.318   5.599
 4454POPC   PO458968  14.219  28.605   5.507
 4454POPC   GL158969  13.984  28.482   5.837
 4454POPC   GL258970  14.002  28.146   5.884
 4454POPC   C1A58971  13.717  28.517   6.223
 4454POPC   D2A58972  13.888  28.517   6.643
 4454POPC   C3A58973  13.616  28.635   6.975
 4454POPC   C4A58974  13.870  28.662   7.297
 4454POPC   C1B58975  14.140  28.231   6.278
 4454POPC   C2B58976  13.975  27.963   6.575
 4454POPC   C3B58977  13.976  28.014   6.985
 4454POPC   C4B58978  13.703  28.176   7.244
 4455POPC   NC358979   0.866  23.779   5.526
 4455POPC   PO458980   1.592  23.765   5.442
 4455POPC   GL158981   1.304  23.663   5.775
 4455POPC   GL258982   1.126  23.943   5.958
 4455POPC   C1A58983   1.368  23.510   6.187
 4455POPC   D2A58984   1.387  23.689   6.581
 4455POPC   C3A58985   1.441  23.408   6.898
 4455POPC   C4A58986   1.356  23.637   7.261
 4455POPC   C1B58987   0.871  23.581   6.150
 4455POPC   C2B58988   0.932  23.413   6.557
 4455POPC   C3B58989   0.999  23.686   6.922
 4455POPC   C4B58990   0.987  24.005   7.243
 4456POPC   NC358991  25.210  14.406   5.498
 4456POPC   PO458992  25.392  14.987   5.576
 4456POPC   GL158993  25.090  14.797   5.895
 4456POPC   GL258994  25.245  14.508   6.006
 4456POPC   C1A58995  24.845  14.710   6.279
 4456POPC   D2A58996  24.888  14.470   6.702
 4456POPC   C3A58997  25.185  14.558   7.010
 4456POPC   C4A58998  25.171  14.858   7.361
 4456POPC   C1B58999  25.077  14.210   6.290
 4456POPC   C2B59000  25.061  13.983   6.692
 4456POPC   C3B59001  25.197  14.024   7.136
 4456POPC   C4B59002  25.400  13.860   7.553
 4457POPC   NC359003  13.364  38.004   5.188
 4457POPC   PO459004  13.799  37.600   5.388
 4457POPC   GL159005  13.530  37.719   5.678
 4457POPC   GL259006  13.651  38.027   5.790
 4457POPC   C1A59007  13.517  37.653   6.129
 4457POPC   D2A59008  13.813  37.586   6.469
 4457POPC   C3A59009  13.549  37.465   6.801
 4457POPC   C4A59010  13.589  37.283   7.220
 4457POPC   C1B59011  13.759  38.089   6.258
 4457POPC   C2B59012  13.975  38.038   6.674
 4457POPC   C3B59013  13.844  37.796   7.043
 4457POPC   C4B59014  13.417  37.755   7.214
 4458POPC   NC359015  34.330  23.244   5.511
 4458POPC   PO459016  34.824  22.745   5.402
 4458POPC   GL159017  34.863  22.911   5.814
 4458POPC   GL259018  34.507  22.873   5.885
 4458POPC   C1A59019  34.862  22.892   6.284
 4458POPC   D2A59020  34.740  23.097   6.683
 4458POPC   C3A59021  34.798  22.891   7.095
 4458POPC   C4A59022  34.699  22.611   7.450
 4458POPC   C1B59023  34.367  23.039   6.306
 4458POPC   C2B59024  34.231  22.989   6.769
 4458POPC   C3B59025  34.302  22.874   7.221
 4458POPC   C4B59026  34.221  22.694   7.652
 4459POPC   NC359027   5.134   1.604   5.326
 4459POPC   PO459028   5.512   2.231   5.324
 4459POPC   GL159029   5.223   2.076   5.690
 4459POPC   GL259030   5.400   1.754   5.755
 4459POPC   C1A59031   5.029   2.117   6.143
 4459POPC   D2A59032   5.180   2.180   6.598
 4459POPC   C3A59033   4.984   2.030   7.016
 4459POPC   C4A59034   5.093   1.924   7.518
 4459POPC   C1B59035   5.344   1.554   6.150
 4459POPC   C2B59036   5.043   1.695   6.435
 4459POPC   C3B59037   5.038   1.562   6.810
 4459POPC   C4B59038   5.226   1.600   7.175
 4460POPC   NC359039  43.104   9.978   5.589
 4460POPC   PO459040  43.186   9.331   5.272
 4460POPC   GL159041  42.958   9.523   5.746
 4460POPC   GL259042  42.702   9.500   6.007
 4460POPC   C1A59043  43.139   9.640   6.201
 4460POPC   D2A59044  43.167   9.962   6.519
 4460POPC   C3A59045  43.303   9.861   6.937
 4460POPC   C4A59046  43.398   9.599   7.267
 4460POPC   C1B59047  42.726   9.943   6.180
 4460POPC   C2B59048  42.620  10.167   6.572
 4460POPC   C3B59049  42.827  10.052   6.953
 4460POPC   C4B59050  42.883   9.718   7.228
 4461POPC   NC359051   9.485   9.604   5.405
 4461POPC   PO459052  10.166   9.584   5.574
 4461POPC   GL159053   9.788   9.596   5.856
 4461POPC   GL259054   9.421   9.799   5.870
 4461POPC   C1A59055   9.924   9.694   6.271
 4461POPC   D2A59056  10.072   9.894   6.601
 4461POPC   C3A59057   9.970   9.668   6.936
 4461POPC   C4A59058   9.788   9.964   7.187
 4461POPC   C1B59059   9.518   9.989   6.262
 4461POPC   C2B59060   9.570   9.815   6.658
 4461POPC   C3B59061   9.461   9.518   6.958
 4461POPC   C4B59062   9.301   9.782   7.249
 4462POPC   NC359063   2.067  33.428   5.143
 4462POPC   PO459064   2.170  32.837   5.479
 4462POPC   GL159065   1.989  32.904   5.853
 4462POPC   GL259066   1.879  33.240   5.859
 4462POPC   C1A59067   2.010  32.689   6.241
 4462POPC   D2A59068   1.873  32.819   6.645
 4462POPC   C3A59069   2.089  32.920   7.005
 4462POPC   C4A59070   2.070  33.296   7.188
 4462POPC   C1B59071   1.963  33.207   6.304
 4462POPC   C2B59072   1.828  33.341   6.721
 4462POPC   C3B59073   1.567  33.333   7.093
 4462POPC   C4B59074   1.605  33.411   7.532
 4463POPC   NC359075  40.484  14.774   5.342
 4463POPC   PO459076  39.875  14.349   5.385
 4463POPC   GL159077  40.175  14.486   5.703
 4463POPC   GL259078  40.194  14.190   5.861
 4463POPC   C1A59079  40.108  14.586   6.172
 4463POPC   D2A59080  39.794  14.449   6.501
 4463POPC   C3A59081  39.905  14.321   6.921
 4463POPC   C4A59082  39.973  14.623   7.228
 4463POPC   C1B59083  40.159  14.083   6.271
 4463POPC   C2B59084  40.317  14.231   6.643
 4463POPC   C3B59085  40.403  14.321   7.085
 4463POPC   C4B59086  40.329  14.060   7.450
 4464POPC   NC359087  38.914   0.760   5.637
 4464POPC   PO459088  38.522   0.375   5.213
 4464POPC   GL159089  38.535   0.317   5.711
 4464POPC   GL259090  38.281   0.121   5.875
 4464POPC   C1A59091  38.587   0.472   6.175
 4464POPC   D2A59092  38.442   0.545   6.635
 4464POPC   C3A59093  38.647   0.438   7.033
 4464POPC   C4A59094  38.444   0.473   7.472
 4464POPC   C1B59095  38.111   0.298   6.301
 4464POPC   C2B59096  37.982   0.319   6.704
 4464POPC   C3B59097  38.189   0.218   7.077
 4464POPC   C4B59098  38.435  44.987   7.377
 4465POPC   NC359099  11.905  40.211   5.279
 4465POPC   PO459100  12.072  39.535   5.395
 4465POPC   GL159101  11.796  39.814   5.677
 4465POPC   GL259102  11.722  40.200   5.768
 4465POPC   C1A59103  11.827  39.815   6.134
 4465POPC   D2A59104  11.961  39.787   6.572
 4465POPC   C3A59105  11.808  40.001   6.945
 4465POPC   C4A59106  11.933  40.063   7.405
 4465POPC   C1B59107  11.962  40.322   6.155
 4465POPC   C2B59108  12.054  40.322   6.623
 4465POPC   C3B59109  12.287  40.145   7.013
 4465POPC   C4B59110  12.447  40.175   7.453
 4466POPC   NC359111  37.690  11.072   5.528
 4466POPC   PO459112  37.131  11.398   5.368
 4466POPC   GL159113  37.468  11.473   5.790
 4466POPC   GL259114  37.811  11.309   5.947
 4466POPC   C1A59115  37.424  11.202   6.219
 4466POPC   D2A59116  37.658  11.119   6.588
 4466POPC   C3A59117  37.470  11.157   6.965
 4466POPC   C4A59118  37.625  10.949   7.286
 4466POPC   C1B59119  37.777  11.557   6.304
 4466POPC   C2B59120  37.891  11.872   6.584
 4466POPC   C3B59121  38.085  11.689   6.911
 4466POPC   C4B59122  37.870  11.469   7.224
 4467POPC   NC359123  37.357  30.116   5.340
 4467POPC   PO459124  38.025  29.802   5.390
 4467POPC   GL159125  37.738  29.933   5.713
 4467POPC   GL259126  37.829  30.264   5.694
 4467POPC   C1A59127  37.683  29.762   6.147
 4467POPC   D2A59128  37.911  29.748   6.551
 4467POPC   C3A59129  37.668  29.741   6.909
 4467POPC   C4A59130  37.426  29.646   7.262
 4467POPC   C1B59131  37.613  30.292   6.128
 4467POPC   C2B59132  37.526  30.098   6.528
 4467POPC   C3B59133  37.411  30.236   6.912
 4467POPC   C4B59134  37.616  30.135   7.234
 4468POPC   NC359135  24.789  18.466   5.518
 4468POPC   PO459136  24.350  17.964   5.383
 4468POPC   GL159137  24.480  18.137   5.788
 4468POPC   GL259138  24.727  17.890   5.908
 4468POPC   C1A59139  24.668  18.337   6.176
 4468POPC   D2A59140  24.833  18.464   6.596
 4468POPC   C3A59141  24.607  18.377   6.983
 4468POPC   C4A59142  24.732  18.343   7.392
 4468POPC   C1B59143  24.463  17.866   6.325
 4468POPC   C2B59144  24.469  17.904   6.791
 4468POPC   C3B59145  24.424  17.933   7.236
 4468POPC   C4B59146  24.270  18.182   7.582
 4469POPC   NC359147  37.769   5.598   5.386
 4469POPC   PO459148  37.510   6.214   5.192
 4469POPC   GL159149  37.668   6.104   5.661
 4469POPC   GL259150  37.502   5.809   5.797
 4469POPC   C1A59151  37.692   6.123   6.168
 4469POPC   D2A59152  37.780   6.253   6.614
 4469POPC   C3A59153  37.567   6.076   6.987
 4469POPC   C4A59154  37.752   5.891   7.367
 4469POPC   C1B59155  37.805   5.634   6.131
 4469POPC   C2B59156  37.924   5.752   6.557
 4469POPC   C3B59157  37.899   5.570   6.978
 4469POPC   C4B59158  37.481   5.503   7.153
 4470POPC   NC359159   3.842   0.997   5.449
 4470POPC   PO459160   3.693   1.552   5.233
 4470POPC   GL159161   3.517   1.366   5.640
 4470POPC   GL259162   3.394   0.981   5.719
 4470POPC   C1A59163   3.665   1.258   6.073
 4470POPC   D2A59164   3.753   1.100   6.496
 4470POPC   C3A59165   3.603   1.376   6.831
 4470POPC   C4A59166   3.537   1.490   7.259
 4470POPC   C1B59167   3.404   0.803   6.161
 4470POPC   C2B59168   3.276   0.818   6.602
 4470POPC   C3B59169   3.392   0.942   7.020
 4470POPC   C4B59170   3.128   1.178   7.282
 4471POPC   NC359171  33.891  34.958   5.484
 4471POPC   PO459172  33.795  35.553   5.261
 4471POPC   GL159173  33.803  35.405   5.717
 4471POPC   GL259174  33.537  35.177   5.802
 4471POPC   C1A59175  34.023  35.257   6.111
 4471POPC   D2A59176  34.253  35.297   6.520
 4471POPC   C3A59177  34.022  35.305   6.922
 4471POPC   C4A59178  33.998  35.582   7.290
 4471POPC   C1B59179  33.509  35.354   6.227
 4471POPC   C2B59180  33.578  35.393   6.677
 4471POPC   C3B59181  33.545  35.375   7.147
 4471POPC   C4B59182  33.442  35.228   7.573
 4472POPC   NC359183   7.754  13.771   5.459
 4472POPC   PO459184   7.118  13.516   5.518
 4472POPC   GL159185   7.397  13.655   5.816
 4472POPC   GL259186   7.733  13.498   5.904
 4472POPC   C1A59187   7.341  13.650   6.216
 4472POPC   D2A59188   7.541  13.558   6.585
 4472POPC   C3A59189   7.349  13.719   6.919
 4472POPC   C4A59190   7.015  13.723   7.165
 4472POPC   C1B59191   7.973  13.417   6.326
 4472POPC   C2B59192   7.967  13.407   6.822
 4472POPC   C3B59193   7.778  13.658   7.182
 4472POPC   C4B59194   7.754  13.819   7.629
 4473POPC   NC359195  12.041   1.388   5.363
 4473POPC   PO459196  12.000   2.082   5.332
 4473POPC   GL159197  12.038   2.021   5.775
 4473POPC   GL259198  11.720   1.832   5.806
 4473POPC   C1A59199  12.282   2.208   6.141
 4473POPC   D2A59200  12.575   2.215   6.503
 4473POPC   C3A59201  12.430   2.165   6.918
 4473POPC   C4A59202  12.424   2.352   7.299
 4473POPC   C1B59203  12.008   1.756   6.189
 4473POPC   C2B59204  12.122   1.946   6.565
 4473POPC   C3B59205  11.920   2.097   6.922
 4473POPC   C4B59206  12.040   2.027   7.321
 4474POPC   NC359207  12.326   0.429   5.351
 4474POPC   PO459208  11.857  44.968   5.479
 4474POPC   GL159209  12.093   0.272   5.778
 4474POPC   GL259210  12.447   0.203   5.805
 4474POPC   C1A59211  12.258   0.480   6.178
 4474POPC   D2A59212  12.222   0.366   6.624
 4474POPC   C3A59213  11.935   0.566   6.875
 4474POPC   C4A59214  11.981   0.773   7.267
 4474POPC   C1B59215  12.450  44.896   6.144
 4474POPC   C2B59216  12.473  44.949   6.543
 4474POPC   C3B59217  12.239  44.954   6.951
 4474POPC   C4B59218  12.234   0.324   7.229
 4475POPC   NC359219  38.599  37.029   5.420
 4475POPC   PO459220  38.635  37.467   5.865
 4475POPC   GL159221  38.523  37.054   5.987
 4475POPC   GL259222  38.573  36.711   5.808
 4475POPC   C1A59223  38.531  37.031   6.445
 4475POPC   D2A59224  38.684  37.210   6.850
 4475POPC   C3A59225  38.394  37.092   7.194
 4475POPC   C4A59226  38.095  37.305   7.469
 4475POPC   C1B59227  38.415  36.581   6.194
 4475POPC   C2B59228  38.273  36.594   6.620
 4475POPC   C3B59229  38.292  36.576   7.058
 4475POPC   C4B59230  38.586  36.628   7.372
 4476POPC   NC359231   6.144  44.656   5.715
 4476POPC   PO459232   5.590  44.835   5.469
 4476POPC   GL159233   5.651  44.606   5.857
 4476POPC   GL259234   5.814  44.253   5.850
 4476POPC   C1A59235   5.708  44.854   6.237
 4476POPC   D2A59236   5.584   0.015   6.641
 4476POPC   C3A59237   5.934  44.905   6.956
 4476POPC   C4A59238   5.823  44.716   7.341
 4476POPC   C1B59239   6.068  44.302   6.263
 4476POPC   C2B59240   6.262  44.474   6.654
 4476POPC   C3B59241   6.183  44.393   7.101
 4476POPC   C4B59242   6.128  44.377   7.542
 4477POPC   NC359243  32.694  30.841   5.482
 4477POPC   PO459244  32.193  30.533   5.217
 4477POPC   GL159245  32.189  30.732   5.629
 4477POPC   GL259246  32.290  31.072   5.709
 4477POPC   C1A59247  32.268  30.636   6.062
 4477POPC   D2A59248  32.248  30.755   6.480
 4477POPC   C3A59249  32.174  30.485   6.810
 4477POPC   C4A59250  32.134  30.701   7.199
 4477POPC   C1B59251  32.483  31.113   6.130
 4477POPC   C2B59252  32.541  31.174   6.583
 4477POPC   C3B59253  32.366  31.123   7.015
 4477POPC   C4B59254  32.567  30.937   7.387
 4478POPC   NC359255  24.210   7.922   5.526
 4478POPC   PO459256  23.920   8.508   5.467
 4478POPC   GL159257  24.232   8.554   5.830
 4478POPC   GL259258  24.310   8.225   5.925
 4478POPC   C1A59259  24.445   8.512   6.324
 4478POPC   D2A59260  24.326   8.306   6.775
 4478POPC   C3A59261  24.606   8.034   7.036
 4478POPC   C4A59262  24.864   8.219   7.362
 4478POPC   C1B59263  24.284   8.029   6.338
 4478POPC   C2B59264  24.041   7.891   6.652
 4478POPC   C3B59265  24.062   7.929   7.078
 4478POPC   C4B59266  24.206   7.627   7.383
 4479POPC   NC359267   3.971  42.335   5.611
 4479POPC   PO459268   3.282  42.483   5.533
 4479POPC   GL159269   3.375  42.490   5.944
 4479POPC   GL259270   3.628  42.248   5.984
 4479POPC   C1A59271   3.398  42.558   6.369
 4479POPC   D2A59272   3.197  42.365   6.678
 4479POPC   C3A59273   3.456  42.496   7.013
 4479POPC   C4A59274   3.642  42.509   7.401
 4479POPC   C1B59275   3.436  42.069   6.320
 4479POPC   C2B59276   3.669  42.158   6.687
 4479POPC   C3B59277   3.888  42.214   7.052
 4479POPC   C4B59278   3.872  42.072   7.477
 4480POPC   NC359279  14.303   6.721   5.239
 4480POPC   PO459280  14.806   6.375   5.581
 4480POPC   GL159281  14.567   6.597   5.943
 4480POPC   GL259282  14.216   6.720   5.849
 4480POPC   C1A59283  14.612   6.786   6.355
 4480POPC   D2A59284  14.767   6.866   6.767
 4480POPC   C3A59285  14.483   6.691   7.085
 4480POPC   C4A59286  14.377   6.290   7.168
 4480POPC   C1B59287  14.140   6.920   6.283
 4480POPC   C2B59288  14.196   6.965   6.772
 4480POPC   C3B59289  14.123   6.973   7.298
 4480POPC   C4B59290  14.173   6.988   7.830
 4481POPC   NC359291  29.364  20.494   5.098
 4481POPC   PO459292  28.808  20.166   5.353
 4481POPC   GL159293  29.015  20.332   5.777
 4481POPC   GL259294  29.375  20.402   5.847
 4481POPC   C1A59295  29.104  20.219   6.245
 4481POPC   D2A59296  29.153  20.392   6.656
 4481POPC   C3A59297  29.219  20.263   7.076
 4481POPC   C4A59298  29.244  20.562   7.408
 4481POPC   C1B59299  29.453  20.622   6.292
 4481POPC   C2B59300  29.360  20.869   6.708
 4481POPC   C3B59301  29.456  20.972   7.173
 4481POPC   C4B59302  29.491  20.945   7.661
 4482POPC   NC359303  36.708  18.120   5.215
 4482POPC   PO459304  37.040  18.685   5.424
 4482POPC   GL159305  36.993  18.499   5.791
 4482POPC   GL259306  36.926  18.148   5.684
 4482POPC   C1A59307  36.833  18.665   6.188
 4482POPC   D2A59308  36.812  18.548   6.634
 4482POPC   C3A59309  36.758  18.583   7.079
 4482POPC   C4A59310  37.087  18.464   7.362
 4482POPC   C1B59311  36.876  18.115   6.136
 4482POPC   C2B59312  36.967  18.055   6.569
 4482POPC   C3B59313  37.052  18.140   6.971
 4482POPC   C4B59314  37.025  17.940   7.367
 4483POPC   NC359315  31.479  28.907   5.115
 4483POPC   PO459316  31.246  29.387   5.528
 4483POPC   GL159317  31.363  29.166   5.901
 4483POPC   GL259318  31.671  28.982   5.812
 4483POPC   C1A59319  31.440  29.325   6.343
 4483POPC   D2A59320  31.271  29.666   6.630
 4483POPC   C3A59321  31.167  29.400   6.970
 4483POPC   C4A59322  31.380  29.019   7.038
 4483POPC   C1B59323  31.757  28.943   6.225
 4483POPC   C2B59324  31.624  28.922   6.623
 4483POPC   C3B59325  31.788  28.668   6.980
 4483POPC   C4B59326  31.828  28.930   7.357
 4484POPC   NC359327  24.412  34.738   5.322
 4484POPC   PO459328  24.517  34.157   5.527
 4484POPC   GL159329  24.442  34.314   5.875
 4484POPC   GL259330  24.309  34.608   5.818
 4484POPC   C1A59331  24.340  34.205   6.284
 4484POPC   D2A59332  24.387  34.441   6.650
 4484POPC   C3A59333  24.532  34.303   7.032
 4484POPC   C4A59334  24.316  34.490   7.378
 4484POPC   C1B59335  24.565  34.668   6.204
 4484POPC   C2B59336  24.594  34.901   6.582
 4484POPC   C3B59337  24.623  34.802   7.010
 4484POPC   C4B59338  24.979  34.571   7.162
 4485POPC   NC359339   0.122  25.323   5.391
 4485POPC   PO459340   0.669  24.930   5.459
 4485POPC   GL159341   0.371  25.075   5.789
 4485POPC   GL259342   0.342  25.424   5.865
 4485POPC   C1A59343   0.143  25.097   6.217
 4485POPC   D2A59344   0.093  24.932   6.647
 4485POPC   C3A59345   0.124  25.228   7.011
 4485POPC   C4A59346   0.194  25.456   7.419
 4485POPC   C1B59347   0.626  25.230   6.199
 4485POPC   C2B59348   0.604  25.042   6.586
 4485POPC   C3B59349   0.645  25.294   6.943
 4485POPC   C4B59350   0.613  25.178   7.340
 4486POPC   NC359351   7.775   6.659   5.625
 4486POPC   PO459352   7.148   6.429   5.670
 4486POPC   GL159353   7.364   6.762   5.916
 4486POPC   GL259354   7.663   7.000   5.976
 4486POPC   C1A59355   7.465   6.672   6.336
 4486POPC   D2A59356   7.369   6.435   6.682
 4486POPC   C3A59357   7.478   6.596   7.068
 4486POPC   C4A59358   7.441   6.465   7.462
 4486POPC   C1B59359   7.579   7.167   6.378
 4486POPC   C2B59360   7.670   6.947   6.740
 4486POPC   C3B59361   7.865   7.006   7.130
 4486POPC   C4B59362   7.704   6.918   7.499
 4487POPC   NC359363  18.369  23.416   5.397
 4487POPC   PO459364  18.339  22.732   5.327
 4487POPC   GL159365  18.252  22.900   5.772
 4487POPC   GL259366  18.431  23.217   5.854
 4487POPC   C1A59367  18.131  23.011   6.214
 4487POPC   D2A59368  17.890  23.068   6.586
 4487POPC   C3A59369  18.151  22.923   6.943
 4487POPC   C4A59370  18.241  22.877   7.394
 4487POPC   C1B59371  18.504  23.382   6.286
 4487POPC   C2B59372  18.572  23.187   6.682
 4487POPC   C3B59373  18.497  23.276   7.098
 4487POPC   C4B59374  18.343  23.693   7.201
 4488POPC   NC359375  25.588  25.757   5.365
 4488POPC   PO459376  25.411  26.428   5.290
 4488POPC   GL159377  25.534  26.281   5.701
 4488POPC   GL259378  25.252  26.063   5.705
 4488POPC   C1A59379  25.442  26.186   6.159
 4488POPC   D2A59380  25.415  26.098   6.583
 4488POPC   C3A59381  25.505  26.361   6.891
 4488POPC   C4A59382  25.359  26.224   7.269
 4488POPC   C1B59383  24.974  26.334   5.995
 4488POPC   C2B59384  24.966  26.406   6.472
 4488POPC   C3B59385  24.997  26.279   6.923
 4488POPC   C4B59386  24.882  26.291   7.405
 4489POPC   NC359387   2.455   7.213   5.591
 4489POPC   PO459388   2.303   7.896   5.498
 4489POPC   GL159389   2.246   7.591   5.868
 4489POPC   GL259390   1.969   7.312   5.829
 4489POPC   C1A59391   2.167   7.455   6.310
 4489POPC   D2A59392   2.018   7.498   6.737
 4489POPC   C3A59393   2.286   7.352   7.062
 4489POPC   C4A59394   2.330   7.397   7.509
 4489POPC   C1B59395   1.769   7.090   6.201
 4489POPC   C2B59396   1.857   7.009   6.670
 4489POPC   C3B59397   1.810   7.139   7.101
 4489POPC   C4B59398   1.855   7.310   7.547
 4490POPC   NC359399  20.485  43.292   5.485
 4490POPC   PO459400  20.801  42.744   5.412
 4490POPC   GL159401  20.851  43.019   5.776
 4490POPC   GL259402  20.962  43.363   5.683
 4490POPC   C1A59403  20.668  43.087   6.202
 4490POPC   D2A59404  20.642  43.028   6.643
 4490POPC   C3A59405  20.456  43.254   6.993
 4490POPC   C4A59406  20.454  42.887   7.268
 4490POPC   C1B59407  21.087  43.325   6.122
 4490POPC   C2B59408  20.914  43.444   6.513
 4490POPC   C3B59409  20.967  43.288   6.962
 4490POPC   C4B59410  20.834  43.218   7.418
 4491POPC   NC359411  26.676  22.032   5.455
 4491POPC   PO459412  27.094  21.582   5.470
 4491POPC   GL159413  26.878  21.789   5.857
 4491POPC   GL259414  26.501  21.815   5.891
 4491POPC   C1A59415  26.893  21.940   6.311
 4491POPC   D2A59416  26.834  21.933   6.789
 4491POPC   C3A59417  26.941  22.285   7.080
 4491POPC   C4A59418  26.813  22.357   7.514
 4491POPC   C1B59419  26.408  22.082   6.289
 4491POPC   C2B59420  26.529  22.336   6.662
 4491POPC   C3B59421  26.425  22.293   7.105
 4491POPC   C4B59422  26.318  22.035   7.481
 4492POPC   NC359423  25.782   6.988   5.263
 4492POPC   PO459424  26.189   7.378   5.099
 4492POPC   GL159425  25.940   7.371   5.546
 4492POPC   GL259426  26.076   7.616   5.796
 4492POPC   C1A59427  25.948   7.164   5.984
 4492POPC   D2A59428  25.983   7.153   6.465
 4492POPC   C3A59429  26.036   7.162   6.930
 4492POPC   C4A59430  26.006   7.490   7.292
 4492POPC   C1B59431  25.849   7.609   6.227
 4492POPC   C2B59432  25.834   7.608   6.699
 4492POPC   C3B59433  25.972   7.912   7.035
 4492POPC   C4B59434  25.870   7.963   7.490
 4493POPC   NC359435  26.160  32.829   5.209
 4493POPC   PO459436  25.849  33.272   5.577
 4493POPC   GL159437  25.864  32.964   5.866
 4493POPC   GL259438  25.907  32.682   5.664
 4493POPC   C1A59439  25.913  32.893   6.309
 4493POPC   D2A59440  25.983  32.862   6.763
 4493POPC   C3A59441  25.842  33.041   7.170
 4493POPC   C4A59442  25.788  33.102   7.622
 4493POPC   C1B59443  26.283  32.698   5.972
 4493POPC   C2B59444  26.380  32.701   6.418
 4493POPC   C3B59445  26.442  32.626   6.843
 4493POPC   C4B59446  26.167  32.622   7.189
 4494POPC   NC359447   5.787  22.125   4.930
 4494POPC   PO459448   6.213  22.046   5.394
 4494POPC   GL159449   5.871  22.014   5.705
 4494POPC   GL259450   6.025  21.775   5.871
 4494POPC   C1A59451   5.636  22.026   6.131
 4494POPC   D2A59452   5.752  22.173   6.575
 4494POPC   C3A59453   5.576  22.187   7.010
 4494POPC   C4A59454   5.813  22.231   7.412
 4494POPC   C1B59455   6.128  21.926   6.265
 4494POPC   C2B59456   6.020  21.750   6.648
 4494POPC   C3B59457   6.004  21.897   7.038
 4494POPC   C4B59458   5.696  21.740   7.280
 4495POPC   NC359459  19.340  23.178   5.368
 4495POPC   PO459460  18.815  23.585   5.476
 4495POPC   GL159461  18.951  23.147   5.717
 4495POPC   GL259462  18.922  23.294   6.029
 4495POPC   C1A59463  19.144  22.865   6.118
 4495POPC   D2A59464  19.010  22.946   6.529
 4495POPC   C3A59465  19.249  22.942   6.888
 4495POPC   C4A59466  19.176  22.839   7.302
 4495POPC   C1B59467  18.647  22.906   6.175
 4495POPC   C2B59468  18.552  22.699   6.587
 4495POPC   C3B59469  18.676  22.770   7.047
 4495POPC   C4B59470  18.724  22.893   7.518
 4496POPC   NC359471  41.170  36.723   5.226
 4496POPC   PO459472  40.648  36.796   5.412
 4496POPC   GL159473  40.584  36.862   5.854
 4496POPC   GL259474  40.721  37.179   5.900
 4496POPC   C1A59475  40.360  37.009   6.243
 4496POPC   D2A59476  40.628  36.992   6.586
 4496POPC   C3A59477  40.640  37.003   7.013
 4496POPC   C4A59478  40.842  36.669   7.155
 4496POPC   C1B59479  40.774  37.393   6.313
 4496POPC   C2B59480  40.944  37.359   6.750
 4496POPC   C3B59481  40.836  37.464   7.177
 4496POPC   C4B59482  40.788  37.546   7.626
 4497POPC   NC359483  13.697  11.955   5.367
 4497POPC   PO459484  13.591  12.573   5.343
 4497POPC   GL159485  13.435  12.318   5.725
 4497POPC   GL259486  13.736  12.241   5.795
 4497POPC   C1A59487  13.359  12.101   6.189
 4497POPC   D2A59488  13.184  11.999   6.642
 4497POPC   C3A59489  13.437  12.137   6.957
 4497POPC   C4A59490  13.852  12.046   7.097
 4497POPC   C1B59491  13.730  12.451   6.153
 4497POPC   C2B59492  13.698  12.321   6.553
 4497POPC   C3B59493  13.783  12.507   6.913
 4497POPC   C4B59494  14.023  12.612   7.221
 4498POPC   NC359495  18.242  13.141   5.292
 4498POPC   PO459496  18.691  12.598   5.426
 4498POPC   GL159497  18.534  12.711   5.829
 4498POPC   GL259498  18.197  12.842   5.802
 4498POPC   C1A59499  18.382  12.544   6.230
 4498POPC   D2A59500  18.580  12.599   6.670
 4498POPC   C3A59501  18.442  13.002   6.890
 4498POPC   C4A59502  18.000  13.090   7.090
 4498POPC   C1B59503  18.033  12.934   6.220
 4498POPC   C2B59504  18.084  12.763   6.629
 4498POPC   C3B59505  18.146  12.591   7.025
 4498POPC   C4B59506  17.896  12.621   7.371
 4499POPC   NC359507  11.020  31.935   5.336
 4499POPC   PO459508  11.410  32.506   5.263
 4499POPC   GL159509  11.346  32.377   5.747
 4499POPC   GL259510  11.053  32.167   5.796
 4499POPC   C1A59511  11.410  32.477   6.227
 4499POPC   D2A59512  11.287  32.570   6.693
 4499POPC   C3A59513  11.625  32.599   7.030
 4499POPC   C4A59514  11.745  32.285   7.304
 4499POPC   C1B59515  11.084  32.067   6.241
 4499POPC   C2B59516  11.034  31.881   6.655
 4499POPC   C3B59517  11.299  32.089   6.955
 4499POPC   C4B59518  11.235  32.379   7.273
 4500POPC   NC359519   1.938  22.596   5.501
 4500POPC   PO459520   2.117  21.967   5.317
 4500POPC   GL159521   1.890  22.082   5.727
 4500POPC   GL259522   2.077  22.356   5.917
 4500POPC   C1A59523   1.622  22.234   6.103
 4500POPC   D2A59524   1.824  22.454   6.477
 4500POPC   C3A59525   1.737  22.382   6.928
 4500POPC   C4A59526   1.851  22.280   7.351
 4500POPC   C1B59527   2.073  22.055   6.246
 4500POPC   C2B59528   2.223  22.144   6.675
 4500POPC   C3B59529   2.269  22.302   7.070
 4500POPC   C4B59530   2.301  22.068   7.461
 4501POPC   NC359531   5.539  40.544   5.630
 4501POPC   PO459532   5.157  41.005   5.264
 4501POPC   GL159533   5.164  40.954   5.728
 4501POPC   GL259534   5.040  40.639   5.943
 4501POPC   C1A59535   5.066  41.131   6.132
 4501POPC   D2A59536   4.876  40.877   6.424
 4501POPC   C3A59537   5.061  40.822   6.785
 4501POPC   C4A59538   4.938  40.778   7.149
 4501POPC   C1B59539   5.347  40.712   6.267
 4501POPC   C2B59540   5.522  40.650   6.663
 4501POPC   C3B59541   5.434  40.573   7.113
 4501POPC   C4B59542   5.160  40.463   7.442
 4502POPC   NC359543  35.048  41.603   5.518
 4502POPC   PO459544  35.242  41.162   5.802
 4502POPC   GL159545  35.300  41.602   5.988
 4502POPC   GL259546  35.022  41.834   5.973
 4502POPC   C1A59547  35.386  41.736   6.420
 4502POPC   D2A59548  35.482  41.428   6.747
 4502POPC   C3A59549  35.163  41.263   7.021
 4502POPC   C4A59550  34.896  41.493   7.315
 4502POPC   C1B59551  34.878  41.704   6.382
 4502POPC   C2B59552  35.000  41.698   6.818
 4502POPC   C3B59553  35.338  41.775   7.107
 4502POPC   C4B59554  35.687  41.811   7.403
 4503POPC   NC359555  39.266  14.345   5.382
 4503POPC   PO459556  39.094  13.752   5.566
 4503POPC   GL159557  39.225  14.098   5.842
 4503POPC   GL259558  39.042  14.419   5.869
 4503POPC   C1A59559  39.399  14.352   6.200
 4503POPC   D2A59560  39.178  14.339   6.583
 4503POPC   C3A59561  39.405  14.344   6.909
 4503POPC   C4A59562  39.537  14.060   7.232
 4503POPC   C1B59563  38.990  14.690   6.260
 4503POPC   C2B59564  38.871  14.880   6.638
 4503POPC   C3B59565  38.957  14.647   6.992
 4503POPC   C4B59566  39.321  14.686   7.261
 4504POPC   NC359567  31.400   9.250   5.536
 4504POPC   PO459568  31.164   8.621   5.449
 4504POPC   GL159569  31.609   8.776   5.700
 4504POPC   GL259570  31.798   9.109   5.821
 4504POPC   C1A59571  31.596   8.740   6.187
 4504POPC   D2A59572  31.491   8.560   6.638
 4504POPC   C3A59573  31.517   8.734   7.099
 4504POPC   C4A59574  31.556   8.695   7.617
 4504POPC   C1B59575  31.572   9.260   6.201
 4504POPC   C2B59576  31.560   9.064   6.624
 4504POPC   C3B59577  31.685   9.213   7.005
 4504POPC   C4B59578  31.727   9.133   7.441
 4505POPC   NC359579  23.769  28.854   5.700
 4505POPC   PO459580  23.464  29.300   5.244
 4505POPC   GL159581  23.577  29.331   5.738
 4505POPC   GL259582  23.375  29.064   5.936
 4505POPC   C1A59583  23.892  29.378   6.164
 4505POPC   D2A59584  23.876  29.394   6.634
 4505POPC   C3A59585  24.005  29.122   6.992
 4505POPC   C4A59586  24.081  29.291   7.409
 4505POPC   C1B59587  23.444  29.266   6.339
 4505POPC   C2B59588  23.415  29.353   6.792
 4505POPC   C3B59589  23.508  29.140   7.151
 4505POPC   C4B59590  23.275  28.858   7.392
 4506POPC   NC359591   5.623  43.176   5.562
 4506POPC   PO459592   6.046  42.918   5.154
 4506POPC   GL159593   5.993  42.882   5.726
 4506POPC   GL259594   5.622  42.929   5.988
 4506POPC   C1A59595   6.047  43.056   6.192
 4506POPC   D2A59596   5.818  43.057   6.597
 4506POPC   C3A59597   5.948  43.226   7.009
 4506POPC   C4A59598   5.869  42.946   7.390
 4506POPC   C1B59599   5.531  43.344   6.279
 4506POPC   C2B59600   5.389  43.339   6.746
 4506POPC   C3B59601   5.457  43.158   7.163
 4506POPC   C4B59602   5.465  43.220   7.637
 4507POPC   NC359603  23.893  27.956   5.576
 4507POPC   PO459604  23.367  27.550   5.518
 4507POPC   GL159605  23.769  27.378   5.720
 4507POPC   GL259606  23.670  27.642   5.922
 4507POPC   C1A59607  23.868  27.272   6.173
 4507POPC   D2A59608  23.687  27.450   6.545
 4507POPC   C3A59609  23.969  27.477   6.893
 4507POPC   C4A59610  24.028  27.253   7.282
 4507POPC   C1B59611  23.705  27.879   6.249
 4507POPC   C2B59612  23.823  27.925   6.636
 4507POPC   C3B59613  23.632  27.846   7.008
 4507POPC   C4B59614  23.805  27.688   7.398
 4508POPC   NC359615  10.093  27.064   5.518
 4508POPC   PO459616  10.518  26.584   5.367
 4508POPC   GL159617  10.544  26.892   5.741
 4508POPC   GL259618  10.280  26.990   5.977
 4508POPC   C1A59619  10.768  27.036   6.129
 4508POPC   D2A59620  10.992  27.119   6.519
 4508POPC   C3A59621  10.808  27.104   6.954
 4508POPC   C4A59622  10.963  26.798   7.241
 4508POPC   C1B59623  10.255  26.794   6.385
 4508POPC   C2B59624  10.309  26.827   6.847
 4508POPC   C3B59625  10.408  26.706   7.270
 4508POPC   C4B59626  10.150  26.572   7.651
 4509POPC   NC359627  16.938  29.479   5.387
 4509POPC   PO459628  16.687  30.207   5.387
 4509POPC   GL159629  16.878  29.917   5.702
 4509POPC   GL259630  16.593  29.684   5.734
 4509POPC   C1A59631  16.879  29.808   6.161
 4509POPC   D2A59632  16.662  29.965   6.549
 4509POPC   C3A59633  16.816  29.839   6.955
 4509POPC   C4A59634  17.004  29.848   7.409
 4509POPC   C1B59635  16.392  29.620   6.151
 4509POPC   C2B59636  16.511  29.466   6.554
 4509POPC   C3B59637  16.335  29.522   6.949
 4509POPC   C4B59638  16.560  29.574   7.307
 4510POPC   NC359639  20.707  35.913   5.307
 4510POPC   PO459640  20.517  35.329   5.207
 4510POPC   GL159641  20.563  35.467   5.642
 4510POPC   GL259642  20.885  35.402   5.649
 4510POPC   C1A59643  20.468  35.349   6.086
 4510POPC   D2A59644  20.451  35.040   6.423
 4510POPC   C3A59645  20.424  35.181   6.857
 4510POPC   C4A59646  20.499  35.358   7.285
 4510POPC   C1B59647  20.960  35.492   6.079
 4510POPC   C2B59648  20.808  35.387   6.485
 4510POPC   C3B59649  20.851  35.470   6.913
 4510POPC   C4B59650  21.029  35.407   7.297
 4511POPC   NC359651  40.268  40.585   5.455
 4511POPC   PO459652  40.025  41.240   5.567
 4511POPC   GL159653  40.137  40.916   5.834
 4511POPC   GL259654  39.829  40.694   5.810
 4511POPC   C1A59655  40.056  40.860   6.267
 4511POPC   D2A59656  39.941  41.035   6.648
 4511POPC   C3A59657  40.037  40.772   6.964
 4511POPC   C4A59658  40.190  40.904   7.337
 4511POPC   C1B59659  39.809  40.398   6.175
 4511POPC   C2B59660  39.921  40.354   6.610
 4511POPC   C3B59661  39.873  40.264   7.043
 4511POPC   C4B59662  39.775  40.541   7.356
 4512POPC   NC359663  37.207  36.812   5.300
 4512POPC   PO459664  36.691  37.069   5.402
 4512POPC   GL159665  36.898  36.883   5.753
 4512POPC   GL259666  37.177  37.070   5.757
 4512POPC   C1A59667  36.854  36.779   6.213
 4512POPC   D2A59668  37.057  36.812   6.622
 4512POPC   C3A59669  36.831  36.734   7.003
 4512POPC   C4A59670  37.029  36.787   7.394
 4512POPC   C1B59671  37.156  37.183   6.197
 4512POPC   C2B59672  37.090  37.322   6.633
 4512POPC   C3B59673  37.091  37.191   7.064
 4512POPC   C4B59674  36.770  37.247   7.354
 4513POPC   NC359675  30.279  33.176   5.468
 4513POPC   PO459676  30.186  32.618   5.102
 4513POPC   GL159677  30.102  32.696   5.630
 4513POPC   GL259678  30.358  32.836   5.887
 4513POPC   C1A59679  29.899  32.772   6.109
 4513POPC   D2A59680  30.135  32.840   6.553
 4513POPC   C3A59681  29.902  32.966   6.947
 4513POPC   C4A59682  29.553  33.255   7.099
 4513POPC   C1B59683  30.178  33.202   6.190
 4513POPC   C2B59684  30.128  33.379   6.671
 4513POPC   C3B59685  30.038  33.414   7.166
 4513POPC   C4B59686  30.198  33.387   7.635
 4514POPC   NC359687  39.663  43.548   5.577
 4514POPC   PO459688  39.666  44.202   5.330
 4514POPC   GL159689  39.868  44.043   5.736
 4514POPC   GL259690  40.227  43.899   5.735
 4514POPC   C1A59691  39.803  43.827   6.153
 4514POPC   D2A59692  39.940  43.752   6.582
 4514POPC   C3A59693  39.678  43.575   6.903
 4514POPC   C4A59694  39.877  43.644   7.272
 4514POPC   C1B59695  40.287  43.686   6.149
 4514POPC   C2B59696  40.292  43.394   6.472
 4514POPC   C3B59697  40.424  43.601   6.816
 4514POPC   C4B59698  40.370  43.632   7.254
 4515POPC   NC359699   3.737  23.166   5.397
 4515POPC   PO459700   3.193  22.792   5.376
 4515POPC   GL159701   3.433  22.858   5.774
 4515POPC   GL259702   3.272  22.606   5.969
 4515POPC   C1A59703   3.716  22.754   6.150
 4515POPC   D2A59704   3.745  22.594   6.599
 4515POPC   C3A59705   3.541  22.867   6.912
 4515POPC   C4A59706   3.549  23.221   7.215
 4515POPC   C1B59707   3.270  22.721   6.415
 4515POPC   C2B59708   3.067  22.959   6.748
 4515POPC   C3B59709   3.063  23.013   7.206
 4515POPC   C4B59710   2.960  22.815   7.603
 4516POPC   NC359711  38.210  35.061   5.396
 4516POPC   PO459712  38.441  35.702   5.462
 4516POPC   GL159713  38.529  35.360   5.779
 4516POPC   GL259714  38.473  34.967   5.830
 4516POPC   C1A59715  38.641  35.289   6.221
 4516POPC   D2A59716  38.458  35.276   6.628
 4516POPC   C3A59717  38.578  35.461   6.982
 4516POPC   C4A59718  38.385  35.632   7.293
 4516POPC   C1B59719  38.309  34.887   6.272
 4516POPC   C2B59720  38.229  34.856   6.745
 4516POPC   C3B59721  38.191  35.141   7.139
 4516POPC   C4B59722  37.916  35.070   7.496
 4517POPC   NC359723  15.511  37.262   5.398
 4517POPC   PO459724  15.651  36.624   5.505
 4517POPC   GL159725  15.590  36.950   5.813
 4517POPC   GL259726  15.956  36.951   5.876
 4517POPC   C1A59727  15.404  36.990   6.230
 4517POPC   D2A59728  15.564  36.830   6.685
 4517POPC   C3A59729  15.686  36.998   7.104
 4517POPC   C4A59730  15.656  37.306   7.456
 4517POPC   C1B59731  16.205  36.766   6.243
 4517POPC   C2B59732  16.050  36.686   6.653
 4517POPC   C3B59733  16.176  36.781   7.078
 4517POPC   C4B59734  16.506  36.516   7.150
 4518POPC   NC359735  19.706  37.434   5.161
 4518POPC   PO459736  19.846  36.777   5.354
 4518POPC   GL159737  20.070  36.933   5.710
 4518POPC   GL259738  19.967  36.605   5.837
 4518POPC   C1A59739  19.905  37.038   6.136
 4518POPC   D2A59740  19.836  36.857   6.542
 4518POPC   C3A59741  20.005  37.018   6.918
 4518POPC   C4A59742  19.778  37.061   7.311
 4518POPC   C1B59743  19.754  36.467   6.204
 4518POPC   C2B59744  19.600  36.388   6.617
 4518POPC   C3B59745  19.738  36.560   7.011
 4518POPC   C4B59746  19.722  36.574   7.453
 4519POPC   NC359747  37.092  20.802   5.059
 4519POPC   PO459748  36.825  20.221   5.358
 4519POPC   GL159749  37.005  20.535   5.644
 4519POPC   GL259750  36.674  20.557   5.795
 4519POPC   C1A59751  37.054  20.836   6.020
 4519POPC   D2A59752  36.848  20.884   6.456
 4519POPC   C3A59753  37.035  20.792   6.891
 4519POPC   C4A59754  36.879  20.788   7.324
 4519POPC   C1B59755  36.924  20.334   6.138
 4519POPC   C2B59756  37.007  20.110   6.546
 4519POPC   C3B59757  36.953  20.234   6.975
 4519POPC   C4B59758  36.595  20.341   7.258
 4520POPC   NC359759  38.486  33.458   5.385
 4520POPC   PO459760  38.771  34.139   5.506
 4520POPC   GL159761  38.467  33.885   5.794
 4520POPC   GL259762  38.478  33.535   5.876
 4520POPC   C1A59763  38.284  33.882   6.193
 4520POPC   D2A59764  38.456  34.076   6.545
 4520POPC   C3A59765  38.393  33.998   6.962
 4520POPC   C4A59766  38.541  33.999   7.380
 4520POPC   C1B59767  38.495  33.392   6.297
 4520POPC   C2B59768  38.438  33.539   6.723
 4520POPC   C3B59769  38.739  33.628   7.078
 4520POPC   C4B59770  38.720  33.549   7.540
 4521POPC   NC359771  36.381   2.526   5.436
 4521POPC   PO459772  35.750   2.704   5.631
 4521POPC   GL159773  36.116   2.890   5.797
 4521POPC   GL259774  35.880   3.103   6.002
 4521POPC   C1A59775  36.247   2.727   6.197
 4521POPC   D2A59776  35.931   2.807   6.548
 4521POPC   C3A59777  36.046   2.644   6.953
 4521POPC   C4A59778  35.897   2.297   7.263
 4521POPC   C1B59779  36.202   3.201   6.315
 4521POPC   C2B59780  36.265   3.143   6.756
 4521POPC   C3B59781  36.057   3.148   7.139
 4521POPC   C4B59782  35.944   2.799   7.428
 4522POPC   NC359783  37.278  27.802   5.122
 4522POPC   PO459784  37.730  27.384   5.457
 4522POPC   GL159785  37.779  27.716   5.769
 4522POPC   GL259786  37.450  27.751   5.754
 4522POPC   C1A59787  37.963  27.763   6.206
 4522POPC   D2A59788  38.038  27.489   6.571
 4522POPC   C3A59789  37.895  27.631   6.942
 4522POPC   C4A59790  37.733  27.695   7.329
 4522POPC   C1B59791  37.548  27.485   6.144
 4522POPC   C2B59792  37.563  27.699   6.551
 4522POPC   C3B59793  37.378  27.699   6.950
 4522POPC   C4B59794  37.313  27.425   7.321
 4523POPC   NC359795  44.343  44.684   5.537
 4523POPC   PO459796  43.728  44.631   5.186
 4523POPC   GL159797  43.855  44.624   5.684
 4523POPC   GL259798  44.156  44.583   5.989
 4523POPC   C1A59799  43.676  44.607   6.112
 4523POPC   D2A59800  43.890  44.774   6.472
 4523POPC   C3A59801  43.670  44.846   6.849
 4523POPC   C4A59802  43.861  44.710   7.229
 4523POPC   C1B59803  44.011  44.272   6.325
 4523POPC   C2B59804  43.969  44.317   6.752
 4523POPC   C3B59805  44.250  44.571   6.953
 4523POPC   C4B59806  44.190  44.314   7.303
 4524POPC   NC359807  41.738   9.392   5.294
 4524POPC   PO459808  41.794   9.971   5.620
 4524POPC   GL159809  41.447   9.733   5.787
 4524POPC   GL259810  41.116   9.918   5.778
 4524POPC   C1A59811  41.516   9.574   6.208
 4524POPC   D2A59812  41.398   9.591   6.624
 4524POPC   C3A59813  41.715   9.673   6.933
 4524POPC   C4A59814  41.617   9.779   7.379
 4524POPC   C1B59815  41.318  10.054   6.169
 4524POPC   C2B59816  41.586  10.038   6.528
 4524POPC   C3B59817  41.342  10.000   6.939
 4524POPC   C4B59818  41.170  10.029   7.326
 4525POPC   NC359819  27.434  26.135   5.468
 4525POPC   PO459820  28.034  26.351   5.536
 4525POPC   GL159821  27.812  26.191   5.889
 4525POPC   GL259822  27.549  26.368   5.898
 4525POPC   C1A59823  27.611  26.036   6.297
 4525POPC   D2A59824  27.848  25.836   6.656
 4525POPC   C3A59825  27.721  25.943   7.063
 4525POPC   C4A59826  27.385  26.054   7.327
 4525POPC   C1B59827  27.733  26.511   6.313
 4525POPC   C2B59828  27.557  26.395   6.703
 4525POPC   C3B59829  27.689  26.445   7.148
 4525POPC   C4B59830  27.854  26.184   7.514
 4526POPC   NC359831  11.992  24.133   5.392
 4526POPC   PO459832  11.831  24.856   5.349
 4526POPC   GL159833  12.013  24.662   5.703
 4526POPC   GL259834  11.768  24.792   5.915
 4526POPC   C1A59835  12.257  24.633   6.105
 4526POPC   D2A59836  12.343  24.337   6.456
 4526POPC   C3A59837  12.110  24.408   6.846
 4526POPC   C4A59838  12.058  24.298   7.289
 4526POPC   C1B59839  11.793  24.657   6.344
 4526POPC   C2B59840  11.880  24.828   6.741
 4526POPC   C3B59841  11.770  24.688   7.156
 4526POPC   C4B59842  11.802  24.626   7.624
 4527POPC   NC359843  13.909  16.931   5.390
 4527POPC   PO459844  13.421  16.572   5.552
 4527POPC   GL159845  13.591  16.833   5.898
 4527POPC   GL259846  13.549  17.203   5.836
 4527POPC   C1A59847  13.796  16.893   6.328
 4527POPC   D2A59848  14.007  17.002   6.743
 4527POPC   C3A59849  13.791  16.867   7.106
 4527POPC   C4A59850  13.586  16.504   7.282
 4527POPC   C1B59851  13.425  17.281   6.285
 4527POPC   C2B59852  13.537  17.202   6.744
 4527POPC   C3B59853  13.451  17.253   7.211
 4527POPC   C4B59854  13.253  17.043   7.546
 4528POPC   NC359855  39.416  36.453   5.444
 4528POPC   PO459856  39.407  35.773   5.215
 4528POPC   GL159857  39.324  35.897   5.658
 4528POPC   GL259858  39.048  36.123   5.696
 4528POPC   C1A59859  39.328  35.995   6.136
 4528POPC   D2A59860  39.501  36.159   6.554
 4528POPC   C3A59861  39.299  36.081   6.966
 4528POPC   C4A59862  39.375  35.814   7.362
 4528POPC   C1B59863  38.889  36.274   6.105
 4528POPC   C2B59864  39.001  36.323   6.539
 4528POPC   C3B59865  38.769  36.410   6.913
 4528POPC   C4B59866  38.919  36.244   7.284
 4529POPC   NC359867   0.683  30.943   5.504
 4529POPC   PO459868   0.281  30.446   5.179
 4529POPC   GL159869   0.300  30.616   5.653
 4529POPC   GL259870   0.589  30.493   5.825
 4529POPC   C1A59871   0.377  30.917   6.082
 4529POPC   D2A59872   0.449  30.780   6.559
 4529POPC   C3A59873   0.408  30.993   7.002
 4529POPC   C4A59874   0.412  30.909   7.486
 4529POPC   C1B59875   0.296  30.435   6.187
 4529POPC   C2B59876   0.315  30.286   6.616
 4529POPC   C3B59877   0.410  30.465   6.978
 4529POPC   C4B59878   0.555  30.311   7.313
 4530POPC   NC359879   1.103   6.066   5.330
 4530POPC   PO459880   1.482   5.519   5.293
 4530POPC   GL159881   1.490   5.832   5.697
 4530POPC   GL259882   1.222   6.094   5.825
 4530POPC   C1A59883   1.426   5.723   6.166
 4530POPC   D2A59884   1.210   5.538   6.554
 4530POPC   C3A59885   1.344   5.655   6.979
 4530POPC   C4A59886   1.185   5.743   7.409
 4530POPC   C1B59887   1.029   6.029   6.222
 4530POPC   C2B59888   1.184   6.055   6.634
 4530POPC   C3B59889   0.972   5.985   7.013
 4530POPC   C4B59890   0.931   6.194   7.417
 4531POPC   NC359891   2.407   2.969   5.530
 4531POPC   PO459892   2.086   3.402   5.047
 4531POPC   GL159893   2.036   3.434   5.595
 4531POPC   GL259894   2.102   3.789   5.744
 4531POPC   C1A59895   1.813   3.527   6.081
 4531POPC   D2A59896   1.770   3.710   6.557
 4531POPC   C3A59897   1.978   3.607   6.986
 4531POPC   C4A59898   1.895   3.346   7.386
 4531POPC   C1B59899   2.256   3.759   6.202
 4531POPC   C2B59900   2.280   3.537   6.581
 4531POPC   C3B59901   2.392   3.311   6.973
 4531POPC   C4B59902   2.650   3.148   7.307
 4532POPC   NC359903   3.525  21.695   5.497
 4532POPC   PO459904   3.329  21.051   5.503
 4532POPC   GL159905   3.371  21.202   5.927
 4532POPC   GL259906   3.541  21.503   5.971
 4532POPC   C1A59907   3.343  21.265   6.387
 4532POPC   D2A59908   3.619  21.114   6.711
 4532POPC   C3A59909   3.685  21.353   7.036
 4532POPC   C4A59910   3.348  21.532   7.190
 4532POPC   C1B59911   3.725  21.760   6.282
 4532POPC   C2B59912   3.726  21.947   6.693
 4532POPC   C3B59913   3.732  21.883   7.144
 4532POPC   C4B59914   3.799  21.766   7.558
 4533POPC   NC359915  35.259   0.203   5.504
 4533POPC   PO459916  35.346   0.865   5.360
 4533POPC   GL159917  35.364   0.640   5.762
 4533POPC   GL259918  35.657   0.403   5.835
 4533POPC   C1A59919  35.147   0.543   6.156
 4533POPC   D2A59920  35.372   0.520   6.535
 4533POPC   C3A59921  35.240   0.623   6.930
 4533POPC   C4A59922  35.248   0.854   7.324
 4533POPC   C1B59923  35.504   0.145   6.189
 4533POPC   C2B59924  35.431   0.022   6.604
 4533POPC   C3B59925  35.195   0.097   6.926
 4533POPC   C4B59926  35.285   0.271   7.309
 4534POPC   NC359927  23.202  44.864   5.388
 4534POPC   PO459928  22.594  44.632   5.431
 4534POPC   GL159929  22.833  44.522   5.813
 4534POPC   GL259930  23.199  44.481   5.761
 4534POPC   C1A59931  22.886  44.549   6.277
 4534POPC   D2A59932  22.801  44.845   6.623
 4534POPC   C3A59933  22.743  44.598   6.973
 4534POPC   C4A59934  22.476  44.296   7.152
 4534POPC   C1B59935  23.244  44.827   6.057
 4534POPC   C2B59936  23.326  44.821   6.530
 4534POPC   C3B59937  23.210  44.828   6.998
 4534POPC   C4B59938  23.106  44.497   7.309
 4535POPC   NC359939  43.121  12.360   5.394
 4535POPC   PO459940  43.028  11.731   5.169
 4535POPC   GL159941  43.252  11.905   5.601
 4535POPC   GL259942  43.342  11.609   5.813
 4535POPC   C1A59943  43.157  12.050   6.090
 4535POPC   D2A59944  42.922  12.186   6.455
 4535POPC   C3A59945  43.188  12.165   6.821
 4535POPC   C4A59946  43.163  12.141   7.270
 4535POPC   C1B59947  43.150  11.570   6.219
 4535POPC   C2B59948  43.179  11.677   6.624
 4535POPC   C3B59949  43.263  11.708   7.039
 4535POPC   C4B59950  43.603  11.883   7.293
 4536POPC   NC359951   7.310  16.849   5.453
 4536POPC   PO459952   7.908  16.407   5.420
 4536POPC   GL159953   7.608  16.516   5.745
 4536POPC   GL259954   7.513  16.835   5.916
 4536POPC   C1A59955   7.647  16.434   6.198
 4536POPC   D2A59956   7.935  16.546   6.556
 4536POPC   C3A59957   7.748  16.493   6.982
 4536POPC   C4A59958   7.383  16.626   7.270
 4536POPC   C1B59959   7.676  16.948   6.336
 4536POPC   C2B59960   7.848  17.029   6.753
 4536POPC   C3B59961   7.836  16.938   7.230
 4536POPC   C4B59962   7.640  16.884   7.668
 4537POPC   NC359963   9.157  25.902   5.347
 4537POPC   PO459964   8.971  26.558   5.489
 4537POPC   GL159965   9.217  26.263   5.779
 4537POPC   GL259966   9.095  25.932   5.851
 4537POPC   C1A59967   9.386  26.147   6.238
 4537POPC   D2A59968   9.264  25.975   6.686
 4537POPC   C3A59969   9.028  26.200   7.031
 4537POPC   C4A59970   9.059  26.447   7.424
 4537POPC   C1B59971   9.110  25.686   6.232
 4537POPC   C2B59972   9.036  25.511   6.642
 4537POPC   C3B59973   9.033  25.658   7.074
 4537POPC   C4B59974   9.063  25.415   7.472
 4538POPC   NC359975  14.989   9.357   5.621
 4538POPC   PO459976  15.406   8.915   5.246
 4538POPC   GL159977  15.474   8.946   5.759
 4538POPC   GL259978  15.400   9.239   5.957
 4538POPC   C1A59979  15.284   8.784   6.172
 4538POPC   D2A59980  14.894   8.778   6.439
 4538POPC   C3A59981  15.044   8.800   6.848
 4538POPC   C4A59982  15.290   8.679   7.211
 4538POPC   C1B59983  15.079   9.286   6.270
 4538POPC   C2B59984  15.101   9.378   6.701
 4538POPC   C3B59985  15.168   9.225   7.081
 4538POPC   C4B59986  14.876   8.995   7.295
 4539POPC   NC359987   5.832  31.252   5.398
 4539POPC   PO459988   6.067  31.873   5.549
 4539POPC   GL159989   5.958  31.680   5.887
 4539POPC   GL259990   6.105  31.372   5.817
 4539POPC   C1A59991   6.062  31.832   6.322
 4539POPC   D2A59992   5.826  31.659   6.655
 4539POPC   C3A59993   5.859  31.488   7.063
 4539POPC   C4A59994   5.467  31.291   7.185
 4539POPC   C1B59995   6.060  31.325   6.272
 4539POPC   C2B59996   6.236  31.363   6.696
 4539POPC   C3B59997   6.272  31.151   7.094
 4539POPC   C4B59998   6.129  31.098   7.535
 4540POPC   NC359999  41.540  20.338   5.460
 4540POPC   PO460000  42.086  20.666   5.453
 4540POPC   GL160001  41.949  20.384   5.787
 4540POPC   GL260002  41.684  20.623   5.903
 4540POPC   C1A60003  41.690  20.149   6.098
 4540POPC   D2A60004  41.441  20.317   6.440
 4540POPC   C3A60005  41.570  20.277   6.887
 4540POPC   C4A60006  41.783  20.345   7.308
 4540POPC   C1B60007  41.449  20.840   6.242
 4540POPC   C2B60008  41.420  20.789   6.685
 4540POPC   C3B60009  41.395  20.954   7.093
 4540POPC   C4B60010  41.487  20.875   7.533
 4541POPC   NC360011  26.749  32.392   5.308
 4541POPC   PO460012  26.748  31.792   5.659
 4541POPC   GL160013  26.865  32.128   5.900
 4541POPC   GL260014  26.622  32.371   5.784
 4541POPC   C1A60015  27.208  32.303   6.224
 4541POPC   D2A60016  27.155  32.154   6.665
 4541POPC   C3A60017  26.717  32.119   6.755
 4541POPC   C4A60018  26.572  32.237   7.143
 4541POPC   C1B60019  26.785  32.563   6.118
 4541POPC   C2B60020  26.872  32.578   6.543
 4541POPC   C3B60021  26.933  32.548   6.982
 4541POPC   C4B60022  26.665  32.713   7.329
 4542POPC   NC360023  44.380  21.701   5.418
 4542POPC   PO460024  44.967  21.309   5.492
 4542POPC   GL160025  44.865  21.375   5.901
 4542POPC   GL260026  44.532  21.416   5.815
 4542POPC   C1A60027  44.789  21.621   6.269
 4542POPC   D2A60028  44.560  21.671   6.656
 4542POPC   C3A60029  44.823  21.613   6.975
 4542POPC   C4A60030  44.919  21.260   7.205
 4542POPC   C1B60031  44.337  21.357   6.175
 4542POPC   C2B60032  44.540  21.181   6.498
 4542POPC   C3B60033  44.439  21.216   6.893
 4542POPC   C4B60034  44.448  21.416   7.258
 4543POPC   NC360035  35.011  21.010   5.429
 4543POPC   PO460036  34.468  20.674   5.123
 4543POPC   GL160037  34.399  20.721   5.630
 4543POPC   GL260038  34.736  20.743   5.769
 4543POPC   C1A60039  34.436  20.496   6.083
 4543POPC   D2A60040  34.494  20.653   6.541
 4543POPC   C3A60041  34.415  20.432   6.941
 4543POPC   C4A60042  34.285  20.559   7.384
 4543POPC   C1B60043  34.880  20.754   6.211
 4543POPC   C2B60044  35.099  20.931   6.589
 4543POPC   C3B60045  35.083  20.917   7.035
 4543POPC   C4B60046  34.776  20.664   7.232
 4544POPC   NC360047   9.065  38.059   5.407
 4544POPC   PO460048   8.973  37.408   5.305
 4544POPC   GL160049   8.966  37.638   5.748
 4544POPC   GL260050   8.771  37.951   5.832
 4544POPC   C1A60051   8.887  37.476   6.195
 4544POPC   D2A60052   8.680  37.485   6.635
 4544POPC   C3A60053   8.900  37.699   6.993
 4544POPC   C4A60054   9.313  37.707   7.164
 4544POPC   C1B60055   9.091  37.933   6.202
 4544POPC   C2B60056   9.258  37.945   6.643
 4544POPC   C3B60057   9.233  38.184   7.014
 4544POPC   C4B60058   9.026  38.093   7.370
 4545POPC   NC360059  12.469  39.283   5.389
 4545POPC   PO460060  13.093  39.134   5.340
 4545POPC   GL160061  12.896  39.043   5.768
 4545POPC   GL260062  12.588  38.835   5.752
 4545POPC   C1A60063  12.988  39.116   6.239
 4545POPC   D2A60064  12.943  38.894   6.657
 4545POPC   C3A60065  12.866  39.065   7.092
 4545POPC   C4A60066  12.638  39.393   7.376
 4545POPC   C1B60067  12.492  39.100   6.117
 4545POPC   C2B60068  12.577  39.242   6.544
 4545POPC   C3B60069  12.395  39.178   6.941
 4545POPC   C4B60070  12.334  38.970   7.308
 4546POPC   NC360071  39.353   1.563   5.580
 4546POPC   PO460072  39.125   2.178   5.498
 4546POPC   GL160073  39.177   2.059   5.874
 4546POPC   GL260074  38.941   1.791   5.857
 4546POPC   C1A60075  39.395   2.191   6.258
 4546POPC   D2A60076  39.297   2.085   6.671
 4546POPC   C3A60077  39.330   2.290   7.013
 4546POPC   C4A60078  39.008   2.130   7.304
 4546POPC   C1B60079  39.071   1.788   6.289
 4546POPC   C2B60080  39.257   1.572   6.609
 4546POPC   C3B60081  39.189   1.697   7.021
 4546POPC   C4B60082  39.433   1.868   7.339
 4547POPC   NC360083   4.850  10.949   5.671
 4547POPC   PO460084   4.339  10.809   5.232
 4547POPC   GL160085   4.339  11.011   5.699
 4547POPC   GL260086   4.192  10.832   5.956
 4547POPC   C1A60087   4.431  11.198   6.187
 4547POPC   D2A60088   4.359  11.058   6.665
 4547POPC   C3A60089   4.418  11.376   7.006
 4547POPC   C4A60090   4.677  11.709   7.227
 4547POPC   C1B60091   4.507  10.711   6.290
 4547POPC   C2B60092   4.791  10.758   6.658
 4547POPC   C3B60093   4.737  10.879   7.071
 4547POPC   C4B60094   4.352  10.951   7.278
 4548POPC   NC360095   1.202  25.770   4.990
 4548POPC   PO460096   1.236  26.281   5.434
 4548POPC   GL160097   1.054  26.091   5.855
 4548POPC   GL260098   1.031  25.726   5.812
 4548POPC   C1A60099   1.052  26.031   6.332
 4548POPC   D2A60100   1.232  25.744   6.668
 4548POPC   C3A60101   1.334  25.890   7.102
 4548POPC   C4A60102   1.546  26.022   7.520
 4548POPC   C1B60103   0.697  25.726   6.114
 4548POPC   C2B60104   0.749  25.637   6.524
 4548POPC   C3B60105   0.782  25.897   6.868
 4548POPC   C4B60106   0.878  25.690   7.224
 4549POPC   NC360107   0.146  44.435   5.418
 4549POPC   PO460108   0.502  44.946   5.532
 4549POPC   GL160109   0.341  44.639   5.874
 4549POPC   GL260110   0.429  44.269   5.878
 4549POPC   C1A60111   0.420  44.540   6.332
 4549POPC   D2A60112   0.674  44.797   6.624
 4549POPC   C3A60113   0.425  44.927   6.919
 4549POPC   C4A60114   0.289  44.607   7.156
 4549POPC   C1B60115   0.044  44.220   6.164
 4549POPC   C2B60116  44.949  44.364   6.609
 4549POPC   C3B60117   0.030  44.189   7.055
 4549POPC   C4B60118   0.347  44.107   7.380
 4550POPC   NC360119  10.345  18.873   5.337
 4550POPC   PO460120  10.907  19.194   5.501
 4550POPC   GL160121  10.620  19.107   5.814
 4550POPC   GL260122  10.399  18.832   5.845
 4550POPC   C1A60123  10.556  19.205   6.238
 4550POPC   D2A60124  10.303  18.992   6.535
 4550POPC   C3A60125  10.258  19.171   6.930
 4550POPC   C4A60126  10.282  18.848   7.212
 4550POPC   C1B60127  10.637  18.677   6.220
 4550POPC   C2B60128  10.814  18.895   6.572
 4550POPC   C3B60129  10.734  18.962   6.981
 4550POPC   C4B60130  10.796  18.626   7.262
 4551POPC   NC360131  44.911   1.293   5.389
 4551POPC   PO460132  44.294   1.021   5.288
 4551POPC   GL160133  44.511   1.156   5.676
 4551POPC   GL260134  44.491   1.527   5.667
 4551POPC   C1A60135  44.541   1.070   6.142
 4551POPC   D2A60136  44.424   1.214   6.570
 4551POPC   C3A60137  44.379   1.018   6.969
 4551POPC   C4A60138  44.230   1.349   7.246
 4551POPC   C1B60139  44.768   1.533   6.039
 4551POPC   C2B60140  44.741   1.603   6.465
 4551POPC   C3B60141  44.821   1.445   6.837
 4551POPC   C4B60142  44.739   1.321   7.229
 4552POPC   NC360143  22.474  43.703   5.198
 4552POPC   PO460144  22.909  44.143   5.452
 4552POPC   GL160145  22.936  44.015   5.839
 4552POPC   GL260146  23.080  43.706   5.750
 4552POPC   C1A60147  22.694  44.075   6.215
 4552POPC   D2A60148  22.640  44.200   6.647
 4552POPC   C3A60149  22.951  44.117   6.981
 4552POPC   C4A60150  22.818  44.010   7.388
 4552POPC   C1B60151  22.958  43.630   6.180
 4552POPC   C2B60152  23.061  43.719   6.673
 4552POPC   C3B60153  23.078  43.640   7.163
 4552POPC   C4B60154  23.177  43.645   7.651
 4553POPC   NC360155   4.095  17.221   5.434
 4553POPC   PO460156   4.747  17.440   5.469
 4553POPC   GL160157   4.366  17.565   5.722
 4553POPC   GL260158   4.226  17.299   5.926
 4553POPC   C1A60159   4.270  17.763   6.120
 4553POPC   D2A60160   4.213  17.474   6.455
 4553POPC   C3A60161   4.205  17.652   6.862
 4553POPC   C4A60162   4.054  17.777   7.287
 4553POPC   C1B60163   4.639  17.393   6.113
 4553POPC   C2B60164   4.729  17.449   6.503
 4553POPC   C3B60165   4.652  17.213   6.820
 4553POPC   C4B60166   4.445  17.320   7.185
 4554POPC   NC360167  42.182  14.672   5.369
 4554POPC   PO460168  42.343  14.081   5.604
 4554POPC   GL160169  42.328  14.347   5.915
 4554POPC   GL260170  41.993  14.328   5.952
 4554POPC   C1A60171  42.484  14.141   6.289
 4554POPC   D2A60172  42.527  13.940   6.724
 4554POPC   C3A60173  42.495  14.309   7.056
 4554POPC   C4A60174  42.626  14.793   7.200
 4554POPC   C1B60175  41.976  14.039   6.285
 4554POPC   C2B60176  42.114  14.235   6.652
 4554POPC   C3B60177  42.210  14.646   6.813
 4554POPC   C4B60178  42.152  14.679   7.247
 4555POPC   NC360179  35.193  29.617   5.624
 4555POPC   PO460180  35.658  30.089   5.314
 4555POPC   GL160181  35.544  30.009   5.777
 4555POPC   GL260182  35.269  30.235   5.872
 4555POPC   C1A60183  35.617  30.081   6.244
 4555POPC   D2A60184  35.414  30.154   6.664
 4555POPC   C3A60185  35.714  30.117   6.997
 4555POPC   C4A60186  35.708  30.026   7.412
 4555POPC   C1B60187  35.114  30.024   6.250
 4555POPC   C2B60188  35.275  29.658   6.508
 4555POPC   C3B60189  35.415  29.651   6.939
 4555POPC   C4B60190  35.240  29.961   7.202
 4556POPC   NC360191   3.061   2.825   5.415
 4556POPC   PO460192   2.480   2.671   5.181
 4556POPC   GL160193   2.713   2.641   5.702
 4556POPC   GL260194   2.843   2.379   5.683
 4556POPC   C1A60195   2.706   2.888   6.119
 4556POPC   D2A60196   2.526   3.045   6.507
 4556POPC   C3A60197   2.781   2.970   6.854
 4556POPC   C4A60198   2.889   2.694   7.175
 4556POPC   C1B60199   2.648   2.372   6.133
 4556POPC   C2B60200   2.710   2.523   6.545
 4556POPC   C3B60201   3.050   2.375   6.785
 4556POPC   C4B60202   3.294   2.349   7.171
 4557POPC   NC360203  38.883   8.362   5.480
 4557POPC   PO460204  38.250   8.056   5.260
 4557POPC   GL160205  38.450   8.012   5.722
 4557POPC   GL260206  38.501   8.348   5.805
 4557POPC   C1A60207  38.361   8.131   6.235
 4557POPC   D2A60208  38.217   8.417   6.580
 4557POPC   C3A60209  38.411   8.304   6.990
 4557POPC   C4A60210  38.314   8.069   7.305
 4557POPC   C1B60211  38.788   8.410   6.149
 4557POPC   C2B60212  38.748   8.393   6.591
 4557POPC   C3B60213  38.894   8.527   6.985
 4557POPC   C4B60214  38.698   8.635   7.360
 4558POPC   NC360215  16.145  28.160   5.519
 4558POPC   PO460216  15.536  28.353   5.238
 4558POPC   GL160217  15.860  28.543   5.697
 4558POPC   GL260218  16.242  28.501   5.896
 4558POPC   C1A60219  15.846  28.462   6.192
 4558POPC   D2A60220  15.844  28.711   6.595
 4558POPC   C3A60221  15.837  28.602   7.036
 4558POPC   C4A60222  15.849  28.179   7.227
 4558POPC   C1B60223  16.291  28.626   6.368
 4558POPC   C2B60224  16.176  28.313   6.691
 4558POPC   C3B60225  16.326  28.236   7.087
 4558POPC   C4B60226  16.280  28.630   7.284
 4559POPC   NC360227  36.791   5.388   5.396
 4559POPC   PO460228  37.049   4.743   5.452
 4559POPC   GL160229  36.768   4.779   5.789
 4559POPC   GL260230  36.694   5.127   5.800
 4559POPC   C1A60231  36.721   4.944   6.247
 4559POPC   D2A60232  37.079   5.147   6.463
 4559POPC   C3A60233  37.091   5.146   6.898
 4559POPC   C4A60234  36.819   4.949   7.234
 4559POPC   C1B60235  36.850   5.450   6.099
 4559POPC   C2B60236  36.761   5.605   6.524
 4559POPC   C3B60237  36.696   5.452   6.938
 4559POPC   C4B60238  36.999   5.436   7.317
 4560POPC   NC360239  44.720   9.731   5.241
 4560POPC   PO460240  44.154   9.440   5.499
 4560POPC   GL160241  44.497   9.649   5.734
 4560POPC   GL260242  44.880   9.697   5.750
 4560POPC   C1A60243  44.589   9.628   6.201
 4560POPC   D2A60244  44.410   9.696   6.648
 4560POPC   C3A60245  44.641   9.554   7.031
 4560POPC   C4A60246  44.634   9.723   7.453
 4560POPC   C1B60247   0.091   9.639   6.186
 4560POPC   C2B60248  44.962   9.719   6.650
 4560POPC   C3B60249   0.019   9.905   7.104
 4560POPC   C4B60250   0.046  10.000   7.583
 4561POPC   NC360251  39.205  19.971   5.451
 4561POPC   PO460252  39.159  19.321   5.561
 4561POPC   GL160253  39.061  19.634   5.811
 4561POPC   GL260254  39.374  19.842   5.910
 4561POPC   C1A60255  39.057  19.629   6.228
 4561POPC   D2A60256  39.228  19.903   6.543
 4561POPC   C3A60257  39.059  19.714   6.892
 4561POPC   C4A60258  39.152  19.834   7.251
 4561POPC   C1B60259  39.001  20.111   6.069
 4561POPC   C2B60260  38.900  20.323   6.444
 4561POPC   C3B60261  38.908  20.194   6.853
 4561POPC   C4B60262  38.798  20.268   7.260
 4562POPC   NC360263  44.244  16.067   5.500
 4562POPC   PO460264  43.629  15.800   5.602
 4562POPC   GL160265  43.919  15.860   5.952
 4562POPC   GL260266  44.125  16.186   5.983
 4562POPC   C1A60267  43.770  15.794   6.389
 4562POPC   D2A60268  43.507  16.008   6.708
 4562POPC   C3A60269  43.612  15.887   7.127
 4562POPC   C4A60270  43.759  16.014   7.581
 4562POPC   C1B60271  44.027  16.247   6.413
 4562POPC   C2B60272  43.953  16.260   6.841
 4562POPC   C3B60273  44.117  16.187   7.242
 4562POPC   C4B60274  44.016  16.458   7.590
 4563POPC   NC360275  43.343  31.989   5.393
 4563POPC   PO460276  42.676  32.045   5.488
 4563POPC   GL160277  42.960  32.090   5.794
 4563POPC   GL260278  43.240  32.312   5.779
 4563POPC   C1A60279  42.996  31.957   6.207
 4563POPC   D2A60280  42.942  32.271   6.512
 4563POPC   C3A60281  43.004  32.152   6.909
 4563POPC   C4A60282  43.290  32.046   7.232
 4563POPC   C1B60283  43.453  32.195   6.156
 4563POPC   C2B60284  43.437  32.120   6.603
 4563POPC   C3B60285  43.432  32.441   6.929
 4563POPC   C4B60286  43.470  32.510   7.359
 4564POPC   NC360287  15.251  14.132   5.411
 4564POPC   PO460288  15.285  13.428   5.437
 4564POPC   GL160289  15.159  13.589   5.815
 4564POPC   GL260290  14.898  13.827   5.799
 4564POPC   C1A60291  15.138  13.426   6.203
 4564POPC   D2A60292  15.076  13.257   6.596
 4564POPC   C3A60293  15.348  13.360   6.916
 4564POPC   C4A60294  15.366  13.315   7.335
 4564POPC   C1B60295  14.997  13.936   6.237
 4564POPC   C2B60296  15.157  13.754   6.629
 4564POPC   C3B60297  15.507  13.839   6.928
 4564POPC   C4B60298  15.454  13.824   7.404
 4565POPC   NC360299  20.123  35.551   5.382
 4565POPC   PO460300  19.571  35.146   5.590
 4565POPC   GL160301  19.874  35.403   5.798
 4565POPC   GL260302  20.149  35.151   5.743
 4565POPC   C1A60303  20.053  35.657   6.138
 4565POPC   D2A60304  20.166  35.496   6.536
 4565POPC   C3A60305  19.852  35.525   6.867
 4565POPC   C4A60306  19.828  35.641   7.281
 4565POPC   C1B60307  20.003  34.988   6.172
 4565POPC   C2B60308  19.952  35.046   6.649
 4565POPC   C3B60309  19.982  35.095   7.104
 4565POPC   C4B60310  19.857  34.829   7.450
 4566POPC   NC360311   6.745  16.298   5.617
 4566POPC   PO460312   7.204  15.703   5.509
 4566POPC   GL160313   6.903  15.797   5.860
 4566POPC   GL260314   6.531  15.838   5.794
 4566POPC   C1A60315   6.803  16.019   6.244
 4566POPC   D2A60316   6.601  15.923   6.645
 4566POPC   C3A60317   6.799  15.954   7.052
 4566POPC   C4A60318   6.727  15.884   7.498
 4566POPC   C1B60319   6.517  15.594   6.218
 4566POPC   C2B60320   6.397  15.456   6.661
 4566POPC   C3B60321   6.392  15.609   7.120
 4566POPC   C4B60322   6.241  15.940   7.440
 4567POPC   NC360323   7.559  10.917   5.245
 4567POPC   PO460324   7.569  10.300   5.360
 4567POPC   GL160325   7.430  10.639   5.665
 4567POPC   GL260326   7.699  10.580   5.861
 4567POPC   C1A60327   7.312  10.757   6.119
 4567POPC   D2A60328   7.485  10.686   6.538
 4567POPC   C3A60329   7.169  10.597   6.870
 4567POPC   C4A60330   7.262  10.736   7.249
 4567POPC   C1B60331   7.844  10.270   6.168
 4567POPC   C2B60332   7.832  10.222   6.627
 4567POPC   C3B60333   7.610  10.369   6.994
 4567POPC   C4B60334   7.685  10.470   7.435
 4568POPC   NC360335  15.248  22.717   5.444
 4568POPC   PO460336  15.087  22.042   5.448
 4568POPC   GL160337  15.252  22.067   5.838
 4568POPC   GL260338  15.339  22.368   5.820
 4568POPC   C1A60339  15.417  21.924   6.224
 4568POPC   D2A60340  15.210  21.782   6.582
 4568POPC   C3A60341  15.366  21.873   6.991
 4568POPC   C4A60342  15.324  22.267   7.231
 4568POPC   C1B60343  15.116  22.327   6.240
 4568POPC   C2B60344  15.214  22.298   6.702
 4568POPC   C3B60345  14.903  22.464   7.018
 4568POPC   C4B60346  14.973  22.597   7.446
 4569POPC   NC360347  16.873   6.526   5.354
 4569POPC   PO460348  16.442   6.255   5.790
 4569POPC   GL160349  16.883   6.419   5.864
 4569POPC   GL260350  17.038   6.749   5.802
 4569POPC   C1A60351  17.092   6.437   6.244
 4569POPC   D2A60352  16.955   6.539   6.661
 4569POPC   C3A60353  16.498   6.571   6.856
 4569POPC   C4A60354  16.407   6.708   7.298
 4569POPC   C1B60355  17.285   6.904   6.147
 4569POPC   C2B60356  17.426   6.784   6.561
 4569POPC   C3B60357  17.252   6.812   6.981
 4569POPC   C4B60358  16.906   6.610   7.157
 4570POPC   NC360359   4.602  32.243   5.421
 4570POPC   PO460360   3.937  32.223   5.619
 4570POPC   GL160361   4.259  32.474   5.807
 4570POPC   GL260362   4.400  32.161   5.868
 4570POPC   C1A60363   4.387  32.480   6.266
 4570POPC   D2A60364   4.154  32.426   6.657
 4570POPC   C3A60365   4.294  32.451   7.104
 4570POPC   C4A60366   4.229  32.312   7.555
 4570POPC   C1B60367   4.683  32.054   6.163
 4570POPC   C2B60368   4.527  32.084   6.571
 4570POPC   C3B60369   4.675  32.109   6.981
 4570POPC   C4B60370   4.427  31.814   7.165
 4571POPC   NC360371  29.339   8.247   5.435
 4571POPC   PO460372  28.686   8.337   5.468
 4571POPC   GL160373  28.825   8.474   5.885
 4571POPC   GL260374  29.168   8.290   5.931
 4571POPC   C1A60375  28.926   8.441   6.348
 4571POPC   D2A60376  29.153   8.071   6.521
 4571POPC   C3A60377  28.964   7.917   6.910
 4571POPC   C4A60378  29.074   8.101   7.284
 4571POPC   C1B60379  29.598   8.189   6.137
 4571POPC   C2B60380  29.686   8.303   6.575
 4571POPC   C3B60381  29.457   8.192   6.942
 4571POPC   C4B60382  29.510   8.358   7.333
 4572POPC   NC360383  14.856   1.070   5.418
 4572POPC   PO460384  15.381   1.418   5.350
 4572POPC   GL160385  15.258   1.234   5.758
 4572POPC   GL260386  14.925   1.303   5.872
 4572POPC   C1A60387  15.279   1.189   6.212
 4572POPC   D2A60388  15.036   1.199   6.586
 4572POPC   C3A60389  15.331   1.261   6.896
 4572POPC   C4A60390  15.547   1.394   7.255
 4572POPC   C1B60391  15.020   1.625   6.204
 4572POPC   C2B60392  15.118   1.698   6.655
 4572POPC   C3B60393  14.913   1.487   7.024
 4572POPC   C4B60394  15.066   1.187   7.327
 4573POPC   NC360395  15.235   8.586   5.512
 4573POPC   PO460396  14.776   8.093   5.335
 4573POPC   GL160397  15.007   8.167   5.761
 4573POPC   GL260398  15.378   8.061   5.794
 4573POPC   C1A60399  14.972   8.295   6.216
 4573POPC   D2A60400  14.902   8.088   6.624
 4573POPC   C3A60401  14.940   8.321   7.019
 4573POPC   C4A60402  15.139   8.195   7.408
 4573POPC   C1B60403  15.476   8.289   6.205
 4573POPC   C2B60404  15.306   8.425   6.608
 4573POPC   C3B60405  15.453   8.232   7.000
 4573POPC   C4B60406  15.630   8.305   7.398
 4574POPC   NC360407  34.530  13.906   5.473
 4574POPC   PO460408  34.865  13.396   5.416
 4574POPC   GL160409  34.700  13.488   5.822
 4574POPC   GL260410  34.334  13.598   5.856
 4574POPC   C1A60411  34.624  13.318   6.228
 4574POPC   D2A60412  34.795  13.395   6.622
 4574POPC   C3A60413  34.517  13.464   6.915
 4574POPC   C4A60414  34.620  13.809   7.117
 4574POPC   C1B60415  34.551  13.829   6.193
 4574POPC   C2B60416  34.465  13.934   6.619
 4574POPC   C3B60417  34.182  14.026   6.977
 4574POPC   C4B60418  34.217  13.974   7.443
 4575POPC   NC360419  34.902  13.024   5.138
 4575POPC   PO460420  35.149  12.596   5.626
 4575POPC   GL160421  35.302  12.871   5.953
 4575POPC   GL260422  35.047  12.788   6.179
 4575POPC   C1A60423  35.457  13.125   6.290
 4575POPC   D2A60424  35.235  13.123   6.687
 4575POPC   C3A60425  35.491  13.227   7.047
 4575POPC   C4A60426  35.303  13.201   7.482
 4575POPC   C1B60427  35.448  12.612   6.363
 4575POPC   C2B60428  35.595  12.742   6.750
 4575POPC   C3B60429  35.293  12.769   7.083
 4575POPC   C4B60430  35.107  12.443   7.278
 4576POPC   NC360431   0.069  42.390   5.543
 4576POPC   PO460432  44.752  41.924   5.140
 4576POPC   GL160433  44.728  42.008   5.678
 4576POPC   GL260434  44.707  42.365   5.894
 4576POPC   C1A60435  44.765  41.937   6.136
 4576POPC   D2A60436  44.765  42.273   6.458
 4576POPC   C3A60437  44.771  42.135   6.870
 4576POPC   C4A60438  44.752  42.108   7.283
 4576POPC   C1B60439  44.546  42.683   6.213
 4576POPC   C2B60440  44.480  42.750   6.656
 4576POPC   C3B60441  44.781  42.639   6.977
 4576POPC   C4B60442  44.794  42.592   7.415
 4577POPC   NC360443  44.779  15.297   5.380
 4577POPC   PO460444  44.437  14.886   5.544
 4577POPC   GL160445  44.679  15.139   5.847
 4577POPC   GL260446  44.417  15.324   5.890
 4577POPC   C1A60447  44.738  15.309   6.278
 4577POPC   D2A60448  44.702  15.093   6.661
 4577POPC   C3A60449  44.677  15.347   7.025
 4577POPC   C4A60450  44.412  15.371   7.365
 4577POPC   C1B60451  44.348  14.977   6.204
 4577POPC   C2B60452  44.238  14.838   6.606
 4577POPC   C3B60453  44.330  14.971   7.010
 4577POPC   C4B60454  44.209  14.723   7.346
 4578POPC   NC360455   5.216  21.532   5.410
 4578POPC   PO460456   4.583  21.551   5.421
 4578POPC   GL160457   4.876  21.291   5.729
 4578POPC   GL260458   5.202  21.438   5.910
 4578POPC   C1A60459   4.887  21.168   6.185
 4578POPC   D2A60460   5.096  21.344   6.543
 4578POPC   C3A60461   4.952  21.458   6.949
 4578POPC   C4A60462   4.932  21.308   7.365
 4578POPC   C1B60463   5.386  21.093   6.188
 4578POPC   C2B60464   5.491  21.055   6.613
 4578POPC   C3B60465   5.341  21.135   7.010
 4578POPC   C4B60466   5.569  21.219   7.354
 4579POPC   NC360467  11.131  21.171   5.441
 4579POPC   PO460468  11.727  21.500   5.405
 4579POPC   GL160469  11.470  21.369   5.764
 4579POPC   GL260470  11.115  21.516   5.797
 4579POPC   C1A60471  11.238  21.158   6.122
 4579POPC   D2A60472  11.011  21.061   6.502
 4579POPC   C3A60473  11.258  21.191   6.860
 4579POPC   C4A60474  11.231  21.427   7.224
 4579POPC   C1B60475  11.301  21.683   6.170
 4579POPC   C2B60476  11.432  21.613   6.591
 4579POPC   C3B60477  11.201  21.822   6.909
 4579POPC   C4B60478  11.180  21.911   7.324
 4580POPC   NC360479  32.451  36.535   5.239
 4580POPC   PO460480  32.038  36.805   5.544
 4580POPC   GL160481  32.152  36.570   5.927
 4580POPC   GL260482  32.476  36.434   5.869
 4580POPC   C1A60483  32.022  36.638   6.365
 4580POPC   D2A60484  32.050  36.973   6.710
 4580POPC   C3A60485  32.078  36.899   7.179
 4580POPC   C4A60486  32.349  37.052   7.552
 4580POPC   C1B60487  32.522  36.488   6.341
 4580POPC   C2B60488  32.330  36.542   6.765
 4580POPC   C3B60489  32.524  36.672   7.148
 4580POPC   C4B60490  32.829  36.914   7.394
 4581POPC   NC360491  15.974  33.105   5.297
 4581POPC   PO460492  15.722  32.416   5.373
 4581POPC   GL160493  15.789  32.813   5.666
 4581POPC   GL260494  16.141  32.931   5.754
 4581POPC   C1A60495  15.734  32.916   6.124
 4581POPC   D2A60496  15.533  33.073   6.522
 4581POPC   C3A60497  15.710  32.881   6.874
 4581POPC   C4A60498  15.810  32.853   7.316
 4581POPC   C1B60499  16.185  33.204   6.130
 4581POPC   C2B60500  16.054  33.178   6.555
 4581POPC   C3B60501  16.098  33.198   6.994
 4581POPC   C4B60502  16.317  32.999   7.313
 4582POPC   NC360503  12.530  29.671   5.438
 4582POPC   PO460504  13.119  29.978   5.513
 4582POPC   GL160505  13.152  29.806   5.882
 4582POPC   GL260506  13.047  30.104   6.085
 4582POPC   C1A60507  13.031  29.552   6.220
 4582POPC   D2A60508  12.897  29.802   6.537
 4582POPC   C3A60509  13.009  29.634   6.897
 4582POPC   C4A60510  13.136  29.927   7.195
 4582POPC   C1B60511  12.613  30.188   6.277
 4582POPC   C2B60512  12.438  30.023   6.648
 4582POPC   C3B60513  12.668  29.989   7.022
 4582POPC   C4B60514  12.747  30.269   7.357
 4583POPC   NC360515  20.278  38.814   5.442
 4583POPC   PO460516  20.555  38.206   5.613
 4583POPC   GL160517  20.639  38.424   5.964
 4583POPC   GL260518  20.662  38.719   5.776
 4583POPC   C1A60519  20.751  38.463   6.411
 4583POPC   D2A60520  20.858  38.336   6.837
 4583POPC   C3A60521  20.569  38.173   7.165
 4583POPC   C4A60522  20.418  38.387   7.528
 4583POPC   C1B60523  20.969  38.809   6.102
 4583POPC   C2B60524  21.053  38.862   6.573
 4583POPC   C3B60525  20.980  38.803   7.037
 4583POPC   C4B60526  20.826  38.706   7.454
 4584POPC   NC360527   7.434   3.320   5.416
 4584POPC   PO460528   7.209   3.939   5.525
 4584POPC   GL160529   7.494   3.711   5.775
 4584POPC   GL260530   7.265   3.434   5.882
 4584POPC   C1A60531   7.572   3.727   6.227
 4584POPC   D2A60532   7.411   3.860   6.634
 4584POPC   C3A60533   7.495   3.674   7.063
 4584POPC   C4A60534   7.712   3.288   7.214
 4584POPC   C1B60535   6.969   3.172   6.125
 4584POPC   C2B60536   6.976   3.073   6.569
 4584POPC   C3B60537   7.215   3.208   6.944
 4584POPC   C4B60538   7.082   3.393   7.320
 4585POPC   NC360539  29.437   1.795   5.565
 4585POPC   PO460540  29.278   2.350   5.201
 4585POPC   GL160541  29.201   2.275   5.667
 4585POPC   GL260542  29.005   1.991   5.764
 4585POPC   C1A60543  29.319   2.202   6.145
 4585POPC   D2A60544  29.176   2.416   6.555
 4585POPC   C3A60545  29.341   2.253   6.960
 4585POPC   C4A60546  29.160   2.155   7.393
 4585POPC   C1B60547  29.061   1.776   6.183
 4585POPC   C2B60548  29.210   1.882   6.580
 4585POPC   C3B60549  29.063   1.841   6.995
 4585POPC   C4B60550  29.012   1.660   7.419
 4586POPC   NC360551   9.102   1.047   5.299
 4586POPC   PO460552   8.586   1.534   5.393
 4586POPC   GL160553   8.869   1.364   5.679
 4586POPC   GL260554   8.674   1.063   5.690
 4586POPC   C1A60555   8.924   1.303   6.135
 4586POPC   D2A60556   9.126   1.426   6.542
 4586POPC   C3A60557   9.089   1.238   6.935
 4586POPC   C4A60558   8.784   1.367   7.237
 4586POPC   C1B60559   8.590   0.911   6.122
 4586POPC   C2B60560   8.796   0.918   6.550
 4586POPC   C3B60561   8.673   0.945   6.984
 4586POPC   C4B60562   8.978   0.888   7.357
 4587POPC   NC360563  21.759  26.431   5.354
 4587POPC   PO460564  21.282  26.805   5.508
 4587POPC   GL160565  21.308  26.785   5.907
 4587POPC   GL260566  21.513  27.061   5.907
 4587POPC   C1A60567  21.249  26.928   6.323
 4587POPC   D2A60568  21.545  27.114   6.596
 4587POPC   C3A60569  21.345  27.029   6.973
 4587POPC   C4A60570  21.164  26.668   7.188
 4587POPC   C1B60571  21.715  26.764   6.212
 4587POPC   C2B60572  21.830  26.710   6.672
 4587POPC   C3B60573  21.733  26.741   7.143
 4587POPC   C4B60574  21.563  26.498   7.504
 4588POPC   NC360575  36.501  30.280   5.579
 4588POPC   PO460576  36.247  30.886   5.447
 4588POPC   GL160577  36.122  30.760   5.854
 4588POPC   GL260578  35.898  31.024   5.977
 4588POPC   C1A60579  36.199  30.801   6.311
 4588POPC   D2A60580  36.200  30.857   6.732
 4588POPC   C3A60581  36.315  30.497   6.940
 4588POPC   C4A60582  36.304  30.579   7.351
 4588POPC   C1B60583  35.749  30.603   6.186
 4588POPC   C2B60584  35.822  30.479   6.616
 4588POPC   C3B60585  35.828  30.644   7.052
 4588POPC   C4B60586  36.044  31.007   7.237
 4589POPC   NC360587  15.638   7.001   5.117
 4589POPC   PO460588  15.986   7.480   5.524
 4589POPC   GL160589  15.703   7.651   5.828
 4589POPC   GL260590  15.627   7.385   6.074
 4589POPC   C1A60591  15.768   7.852   6.234
 4589POPC   D2A60592  15.811   7.601   6.614
 4589POPC   C3A60593  16.008   7.644   7.011
 4589POPC   C4A60594  15.883   7.451   7.428
 4589POPC   C1B60595  16.086   7.442   6.214
 4589POPC   C2B60596  16.303   7.365   6.634
 4589POPC   C3B60597  16.305   7.189   7.072
 4589POPC   C4B60598  16.302   7.173   7.559
 4590POPC   NC360599   5.099  43.059   5.024
 4590POPC   PO460600   5.183  43.014   5.651
 4590POPC   GL160601   5.142  43.154   6.015
 4590POPC   GL260602   5.036  43.485   5.934
 4590POPC   C1A60603   5.245  42.952   6.402
 4590POPC   D2A60604   5.403  42.777   6.773
 4590POPC   C3A60605   5.098  42.777   7.069
 4590POPC   C4A60606   5.192  42.833   7.495
 4590POPC   C1B60607   5.019  43.446   6.396
 4590POPC   C2B60608   4.875  43.144   6.714
 4590POPC   C3B60609   4.949  43.255   7.130
 4590POPC   C4B60610   5.186  43.579   7.291
 4591POPC   NC360611  17.895   9.792   5.456
 4591POPC   PO460612  17.147   9.519   5.440
 4591POPC   GL160613  17.426   9.785   5.673
 4591POPC   GL260614  17.673   9.556   5.844
 4591POPC   C1A60615  17.497   9.997   6.071
 4591POPC   D2A60616  17.429   9.832   6.484
 4591POPC   C3A60617  17.429  10.083   6.862
 4591POPC   C4A60618  17.504  10.189   7.294
 4591POPC   C1B60619  17.356   9.442   6.120
 4591POPC   C2B60620  17.391   9.317   6.540
 4591POPC   C3B60621  17.397   9.566   6.926
 4591POPC   C4B60622  17.424   9.600   7.375
 4592POPC   NC360623  43.903  10.854   5.565
 4592POPC   PO460624  43.666  10.167   5.536
 4592POPC   GL160625  43.789  10.446   5.885
 4592POPC   GL260626  43.629  10.759   5.980
 4592POPC   C1A60627  44.020  10.459   6.278
 4592POPC   D2A60628  43.997  10.219   6.681
 4592POPC   C3A60629  43.983  10.414   7.090
 4592POPC   C4A60630  44.019  10.248   7.498
 4592POPC   C1B60631  43.724  10.868   6.354
 4592POPC   C2B60632  43.885  10.759   6.713
 4592POPC   C3B60633  43.787  10.893   7.101
 4592POPC   C4B60634  44.017  10.857   7.500
 4593POPC   NC360635  29.243  40.945   5.330
 4593POPC   PO460636  29.396  40.430   5.455
 4593POPC   GL160637  29.259  40.715   5.805
 4593POPC   GL260638  29.045  40.471   5.949
 4593POPC   C1A60639  29.172  40.930   6.244
 4593POPC   D2A60640  29.345  41.076   6.685
 4593POPC   C3A60641  29.119  41.017   7.111
 4593POPC   C4A60642  29.105  40.894   7.573
 4593POPC   C1B60643  29.397  40.453   6.258
 4593POPC   C2B60644  29.526  40.455   6.710
 4593POPC   C3B60645  29.402  40.361   7.155
 4593POPC   C4B60646  29.379  40.277   7.623
 4594POPC   NC360647   6.370  16.593   5.257
 4594POPC   PO460648   6.848  16.858   5.607
 4594POPC   GL160649   6.450  16.758   5.834
 4594POPC   GL260650   6.279  16.433   5.883
 4594POPC   C1A60651   6.414  16.788   6.303
 4594POPC   D2A60652   6.406  16.992   6.714
 4594POPC   C3A60653   6.613  16.805   7.079
 4594POPC   C4A60654   6.939  16.463   7.007
 4594POPC   C1B60655   6.347  16.268   6.322
 4594POPC   C2B60656   6.443  16.419   6.753
 4594POPC   C3B60657   6.485  16.326   7.206
 4594POPC   C4B60658   6.312  16.576   7.511
 4595POPC   NC360659   8.200   6.824   5.325
 4595POPC   PO460660   7.974   6.246   5.613
 4595POPC   GL160661   8.308   6.519   5.752
 4595POPC   GL260662   8.194   6.841   5.856
 4595POPC   C1A60663   8.477   6.550   6.195
 4595POPC   D2A60664   8.405   6.514   6.664
 4595POPC   C3A60665   7.986   6.538   6.884
 4595POPC   C4A60666   7.933   6.483   7.320
 4595POPC   C1B60667   8.037   6.857   6.300
 4595POPC   C2B60668   8.183   6.982   6.709
 4595POPC   C3B60669   8.360   6.852   7.130
 4595POPC   C4B60670   8.212   6.834   7.573
 4596POPC   NC360671   6.764  36.090   5.308
 4596POPC   PO460672   6.141  35.820   5.493
 4596POPC   GL160673   6.485  36.026   5.759
 4596POPC   GL260674   6.865  36.133   5.795
 4596POPC   C1A60675   6.592  35.885   6.181
 4596POPC   D2A60676   6.471  35.615   6.561
 4596POPC   C3A60677   6.584  35.861   6.936
 4596POPC   C4A60678   6.496  36.071   7.332
 4596POPC   C1B60679   6.868  36.396   6.180
 4596POPC   C2B60680   6.646  36.487   6.573
 4596POPC   C3B60681   6.663  36.416   6.991
 4596POPC   C4B60682   7.024  36.521   7.268
 4597POPC   NC360683  31.576  10.050   5.496
 4597POPC   PO460684  31.447  10.674   5.157
 4597POPC   GL160685  31.446  10.507   5.679
 4597POPC   GL260686  31.400  10.779   5.918
 4597POPC   C1A60687  31.433  10.335   6.175
 4597POPC   D2A60688  31.316  10.383   6.638
 4597POPC   C3A60689  31.485  10.231   7.062
 4597POPC   C4A60690  31.537  10.406   7.497
 4597POPC   C1B60691  31.551  10.814   6.354
 4597POPC   C2B60692  31.612  10.826   6.797
 4597POPC   C3B60693  31.510  10.929   7.232
 4597POPC   C4B60694  31.737  10.863   7.624
 4598POPC   NC360695   2.372   0.541   5.443
 4598POPC   PO460696   3.019   0.779   5.392
 4598POPC   GL160697   2.800   0.535   5.735
 4598POPC   GL260698   2.950   0.659   5.994
 4598POPC   C1A60699   2.716   0.196   6.081
 4598POPC   D2A60700   2.455   0.117   6.487
 4598POPC   C3A60701   2.625   0.283   6.906
 4598POPC   C4A60702   2.900   0.233   7.288
 4598POPC   C1B60703   2.853   0.559   6.425
 4598POPC   C2B60704   2.711   0.780   6.767
 4598POPC   C3B60705   2.929   0.725   7.133
 4598POPC   C4B60706   3.020   0.774   7.601
 4599POPC   NC360707  43.341  39.957   5.402
 4599POPC   PO460708  42.984  40.378   5.423
 4599POPC   GL160709  43.183  40.237   5.806
 4599POPC   GL260710  43.030  39.905   5.860
 4599POPC   C1A60711  43.206  40.160   6.266
 4599POPC   D2A60712  42.958  40.175   6.647
 4599POPC   C3A60713  43.215  40.149   7.032
 4599POPC   C4A60714  43.303  40.056   7.476
 4599POPC   C1B60715  43.158  39.652   6.255
 4599POPC   C2B60716  43.193  39.718   6.725
 4599POPC   C3B60717  43.205  39.637   7.188
 4599POPC   C4B60718  43.152  39.588   7.655
 4600POPC   NC360719  13.738  37.077   5.173
 4600POPC   PO460720  13.275  36.760   5.530
 4600POPC   GL160721  13.657  36.938   5.707
 4600POPC   GL260722  13.886  36.623   5.702
 4600POPC   C1A60723  13.530  37.138   6.123
 4600POPC   D2A60724  13.293  37.104   6.522
 4600POPC   C3A60725  13.527  36.946   6.843
 4600POPC   C4A60726  13.635  36.787   7.246
 4600POPC   C1B60727  13.691  36.652   6.123
 4600POPC   C2B60728  13.738  36.588   6.540
 4600POPC   C3B60729  13.971  36.678   6.879
 4600POPC   C4B60730  14.263  36.499   7.125
 4601POPC   NC360731  11.887  10.977   5.543
 4601POPC   PO460732  12.215  10.345   5.407
 4601POPC   GL160733  12.052  10.357   5.813
 4601POPC   GL260734  12.133  10.698   5.884
 4601POPC   C1A60735  12.157  10.359   6.251
 4601POPC   D2A60736  11.947  10.381   6.602
 4601POPC   C3A60737  12.222  10.395   6.898
 4601POPC   C4A60738  12.272  10.727   7.183
 4601POPC   C1B60739  11.995  10.888   6.282
 4601POPC   C2B60740  12.006  10.889   6.740
 4601POPC   C3B60741  11.768  10.796   7.131
 4601POPC   C4B60742  11.594  10.845   7.576
 4602POPC   NC360743  39.841  22.976   5.677
 4602POPC   PO460744  40.162  22.473   5.301
 4602POPC   GL160745  40.282  22.675   5.739
 4602POPC   GL260746  40.412  23.017   5.739
 4602POPC   C1A60747  40.176  22.837   6.201
 4602POPC   D2A60748  39.863  22.845   6.549
 4602POPC   C3A60749  39.793  22.987   6.971
 4602POPC   C4A60750  39.714  23.026   7.404
 4602POPC   C1B60751  40.471  23.265   6.136
 4602POPC   C2B60752  40.248  23.253   6.528
 4602POPC   C3B60753  40.279  23.127   6.952
 4602POPC   C4B60754  40.223  23.208   7.384
 4603POPC   NC360755  38.828   5.359   5.530
 4603POPC   PO460756  39.467   4.936   5.402
 4603POPC   GL160757  39.307   5.161   5.708
 4603POPC   GL260758  39.332   5.488   5.608
 4603POPC   C1A60759  39.114   5.086   6.097
 4603POPC   D2A60760  39.003   5.163   6.516
 4603POPC   C3A60761  39.234   4.921   6.830
 4603POPC   C4A60762  39.150   4.752   7.231
 4603POPC   C1B60763  39.363   5.546   6.069
 4603POPC   C2B60764  39.285   5.625   6.515
 4603POPC   C3B60765  39.064   5.502   6.877
 4603POPC   C4B60766  39.135   5.259   7.211
 4604POPC   NC360767  27.390   2.965   5.445
 4604POPC   PO460768  27.616   2.296   5.569
 4604POPC   GL160769  27.683   2.671   5.814
 4604POPC   GL260770  27.372   2.705   5.885
 4604POPC   C1A60771  27.843   2.663   6.248
 4604POPC   D2A60772  27.671   2.713   6.657
 4604POPC   C3A60773  27.838   2.934   6.992
 4604POPC   C4A60774  27.691   2.927   7.391
 4604POPC   C1B60775  27.406   2.969   6.223
 4604POPC   C2B60776  27.207   2.944   6.618
 4604POPC   C3B60777  27.294   2.936   7.057
 4604POPC   C4B60778  27.190   3.184   7.454
 4605POPC   NC360779  25.089   5.265   5.518
 4605POPC   PO460780  25.702   5.029   5.585
 4605POPC   GL160781  25.446   5.071   5.939
 4605POPC   GL260782  25.076   5.163   6.007
 4605POPC   C1A60783  25.446   5.019   6.373
 4605POPC   D2A60784  25.194   5.192   6.664
 4605POPC   C3A60785  25.370   5.216   7.044
 4605POPC   C4A60786  25.179   5.203   7.427
 4605POPC   C1B60787  25.098   4.727   6.094
 4605POPC   C2B60788  25.237   4.568   6.475
 4605POPC   C3B60789  25.179   4.684   6.878
 4605POPC   C4B60790  25.372   4.761   7.254
 4606POPC   NC360791  36.630  21.682   5.169
 4606POPC   PO460792  37.032  22.217   5.379
 4606POPC   GL160793  36.912  22.264   5.817
 4606POPC   GL260794  36.602  22.150   5.928
 4606POPC   C1A60795  37.020  22.199   6.265
 4606POPC   D2A60796  37.178  22.199   6.717
 4606POPC   C3A60797  36.996  22.099   7.123
 4606POPC   C4A60798  37.064  22.147   7.615
 4606POPC   C1B60799  36.590  22.457   6.228
 4606POPC   C2B60800  36.709  22.378   6.623
 4606POPC   C3B60801  36.550  22.345   6.969
 4606POPC   C4B60802  36.694  22.399   7.378
 4607POPC   NC360803  36.992  37.435   5.406
 4607POPC   PO460804  36.862  38.051   5.486
 4607POPC   GL160805  36.886  37.734   5.850
 4607POPC   GL260806  36.782  37.376   5.898
 4607POPC   C1A60807  36.882  37.681   6.311
 4607POPC   D2A60808  36.754  37.719   6.740
 4607POPC   C3A60809  36.979  37.707   7.134
 4607POPC   C4A60810  37.078  38.101   7.394
 4607POPC   C1B60811  36.661  37.226   6.361
 4607POPC   C2B60812  36.618  37.240   6.844
 4607POPC   C3B60813  36.463  37.592   7.142
 4607POPC   C4B60814  36.580  37.984   7.372
 4608POPC   NC360815  43.638  16.858   5.249
 4608POPC   PO460816  44.213  16.454   5.236
 4608POPC   GL160817  43.942  16.521   5.619
 4608POPC   GL260818  44.015  16.853   5.767
 4608POPC   C1A60819  43.722  16.514   6.052
 4608POPC   D2A60820  43.750  16.734   6.470
 4608POPC   C3A60821  43.622  16.689   6.913
 4608POPC   C4A60822  43.634  16.378   7.232
 4608POPC   C1B60823  44.197  16.674   6.179
 4608POPC   C2B60824  44.238  16.685   6.640
 4608POPC   C3B60825  44.278  16.639   7.074
 4608POPC   C4B60826  43.988  16.877   7.233
 4609POPC   NC360827  12.709  19.783   5.428
 4609POPC   PO460828  13.164  20.167   5.740
 4609POPC   GL160829  12.965  19.809   5.897
 4609POPC   GL260830  12.604  19.830   5.928
 4609POPC   C1A60831  13.013  19.800   6.327
 4609POPC   D2A60832  13.271  19.868   6.683
 4609POPC   C3A60833  13.026  19.904   7.015
 4609POPC   C4A60834  12.731  19.916   7.304
 4609POPC   C1B60835  12.585  19.539   6.259
 4609POPC   C2B60836  12.770  19.544   6.693
 4609POPC   C3B60837  12.555  19.483   7.069
 4609POPC   C4B60838  12.189  19.499   7.344
 4610POPC   NC360839  30.634   8.770   5.033
 4610POPC   PO460840  30.945   9.225   5.470
 4610POPC   GL160841  30.979   9.164   5.879
 4610POPC   GL260842  31.148   8.853   5.902
 4610POPC   C1A60843  30.657   9.053   6.222
 4610POPC   D2A60844  30.518   8.959   6.649
 4610POPC   C3A60845  30.541   9.232   6.993
 4610POPC   C4A60846  30.675   8.998   7.312
 4610POPC   C1B60847  31.156   8.992   6.311
 4610POPC   C2B60848  31.040   8.868   6.663
 4610POPC   C3B60849  31.136   9.104   6.984
 4610POPC   C4B60850  31.173   8.979   7.364
 4611POPC   NC360851  23.447  29.743   5.359
 4611POPC   PO460852  23.974  30.181   5.389
 4611POPC   GL160853  23.684  30.281   5.719
 4611POPC   GL260854  23.373  30.075   5.762
 4611POPC   C1A60855  23.736  30.200   6.163
 4611POPC   D2A60856  23.972  29.860   6.366
 4611POPC   C3A60857  23.960  29.845   6.847
 4611POPC   C4A60858  23.741  29.598   7.175
 4611POPC   C1B60859  23.535  29.746   6.050
 4611POPC   C2B60860  23.503  29.761   6.502
 4611POPC   C3B60861  23.373  29.849   6.922
 4611POPC   C4B60862  23.397  30.179   7.177
 4612POPC   NC360863   1.520  23.057   5.300
 4612POPC   PO460864   0.897  23.224   5.470
 4612POPC   GL160865   1.070  23.204   5.872
 4612POPC   GL260866   1.366  23.037   5.830
 4612POPC   C1A60867   1.096  22.970   6.259
 4612POPC   D2A60868   0.903  22.827   6.623
 4612POPC   C3A60869   1.043  23.092   6.936
 4612POPC   C4A60870   1.289  23.117   7.318
 4612POPC   C1B60871   1.581  22.797   6.168
 4612POPC   C2B60872   1.467  22.815   6.622
 4612POPC   C3B60873   1.254  22.610   6.965
 4612POPC   C4B60874   1.437  22.548   7.358
 4613POPC   NC360875  18.111   0.855   5.364
 4613POPC   PO460876  17.989   0.179   5.448
 4613POPC   GL160877  18.184   0.398   5.848
 4613POPC   GL260878  18.278   0.750   5.836
 4613POPC   C1A60879  18.301   0.409   6.332
 4613POPC   D2A60880  18.577   0.289   6.733
 4613POPC   C3A60881  18.399   0.127   7.137
 4613POPC   C4A60882  18.319   0.362   7.535
 4613POPC   C1B60883  18.551   0.835   6.191
 4613POPC   C2B60884  18.522   0.793   6.633
 4613POPC   C3B60885  18.401   0.678   7.045
 4613POPC   C4B60886  18.168   0.824   7.381
 4614POPC   NC360887  28.299  30.383   5.440
 4614POPC   PO460888  28.605  29.792   5.528
 4614POPC   GL160889  28.301  29.779   5.838
 4614POPC   GL260890  28.165  30.104   5.835
 4614POPC   C1A60891  28.362  29.831   6.253
 4614POPC   D2A60892  28.280  29.667   6.622
 4614POPC   C3A60893  28.385  29.960   6.913
 4614POPC   C4A60894  28.375  29.908   7.342
 4614POPC   C1B60895  27.983  30.216   6.193
 4614POPC   C2B60896  28.012  30.116   6.591
 4614POPC   C3B60897  27.956  30.325   6.955
 4614POPC   C4B60898  27.859  30.290   7.354
 4615POPC   NC360899   4.368  10.015   5.439
 4615POPC   PO460900   3.895   9.578   5.420
 4615POPC   GL160901   4.084   9.448   5.793
 4615POPC   GL260902   4.377   9.654   5.802
 4615POPC   C1A60903   4.175   9.378   6.214
 4615POPC   D2A60904   4.178   9.594   6.596
 4615POPC   C3A60905   4.197   9.421   7.000
 4615POPC   C4A60906   4.209   9.667   7.380
 4615POPC   C1B60907   4.645   9.770   6.141
 4615POPC   C2B60908   4.752   9.757   6.572
 4615POPC   C3B60909   4.512   9.836   6.908
 4615POPC   C4B60910   4.610   9.966   7.277
 4616POPC   NC360911  40.620  28.697   5.420
 4616POPC   PO460912  41.094  28.127   5.303
 4616POPC   GL160913  40.936  28.223   5.735
 4616POPC   GL260914  40.588  28.294   5.798
 4616POPC   C1A60915  40.975  28.255   6.201
 4616POPC   D2A60916  41.185  28.122   6.598
 4616POPC   C3A60917  40.887  28.169   6.931
 4616POPC   C4A60918  40.913  28.476   7.254
 4616POPC   C1B60919  40.567  28.594   6.181
 4616POPC   C2B60920  40.609  28.577   6.668
 4616POPC   C3B60921  40.440  28.536   7.117
 4616POPC   C4B60922  40.566  28.567   7.605
 4617POPC   NC360923  29.593  30.565   4.993
 4617POPC   PO460924  29.233  31.017   5.360
 4617POPC   GL160925  29.157  30.794   5.757
 4617POPC   GL260926  28.827  30.902   5.885
 4617POPC   C1A60927  29.298  30.551   6.142
 4617POPC   D2A60928  29.483  30.709   6.549
 4617POPC   C3A60929  29.389  30.523   6.955
 4617POPC   C4A60930  29.296  30.742   7.291
 4617POPC   C1B60931  28.997  30.894   6.326
 4617POPC   C2B60932  28.969  30.636   6.698
 4617POPC   C3B60933  28.834  30.644   7.122
 4617POPC   C4B60934  28.863  30.653   7.568
 4618POPC   NC360935   3.686   5.182   4.994
 4618POPC   PO460936   3.289   4.990   5.543
 4618POPC   GL160937   3.424   5.124   5.919
 4618POPC   GL260938   3.780   5.167   5.853
 4618POPC   C1A60939   3.307   5.084   6.364
 4618POPC   D2A60940   3.407   4.720   6.613
 4618POPC   C3A60941   3.381   4.788   7.035
 4618POPC   C4A60942   3.260   5.114   7.273
 4618POPC   C1B60943   3.787   5.200   6.254
 4618POPC   C2B60944   3.851   5.030   6.573
 4618POPC   C3B60945   3.868   5.205   6.929
 4618POPC   C4B60946   3.765   5.038   7.293
 4619POPC   NC360947  33.519  19.068   5.379
 4619POPC   PO460948  32.792  18.912   5.430
 4619POPC   GL160949  32.989  19.132   5.795
 4619POPC   GL260950  33.319  19.337   5.799
 4619POPC   C1A60951  32.897  19.022   6.235
 4619POPC   D2A60952  32.928  18.753   6.611
 4619POPC   C3A60953  32.864  18.955   7.023
 4619POPC   C4A60954  33.138  18.929   7.410
 4619POPC   C1B60955  33.357  19.309   6.241
 4619POPC   C2B60956  33.164  19.213   6.638
 4619POPC   C3B60957  33.356  19.171   6.995
 4619POPC   C4B60958  33.512  19.384   7.348
 4620POPC   NC360959  16.586  23.820   5.443
 4620POPC   PO460960  17.098  23.457   5.384
 4620POPC   GL160961  16.852  23.600   5.803
 4620POPC   GL260962  16.895  23.959   5.838
 4620POPC   C1A60963  16.865  23.746   6.289
 4620POPC   D2A60964  17.079  23.878   6.696
 4620POPC   C3A60965  16.928  23.675   7.062
 4620POPC   C4A60966  16.569  23.403   7.042
 4620POPC   C1B60967  16.452  23.960   6.058
 4620POPC   C2B60968  16.215  23.981   6.453
 4620POPC   C3B60969  16.296  23.846   6.873
 4620POPC   C4B60970  16.368  23.935   7.303
 4621POPC   NC360971  35.308   8.300   5.606
 4621POPC   PO460972  35.731   7.743   5.630
 4621POPC   GL160973  35.602   8.041   5.927
 4621POPC   GL260974  35.724   8.400   5.881
 4621POPC   C1A60975  35.287   8.053   6.250
 4621POPC   D2A60976  35.391   7.800   6.589
 4621POPC   C3A60977  35.230   7.996   6.956
 4621POPC   C4A60978  35.210   8.231   7.354
 4621POPC   C1B60979  35.697   8.354   6.310
 4621POPC   C2B60980  35.470   8.330   6.665
 4621POPC   C3B60981  35.629   8.329   7.067
 4621POPC   C4B60982  35.684   8.418   7.495
 4622POPC   NC360983  21.878   8.138   5.485
 4622POPC   PO460984  22.335   8.224   4.978
 4622POPC   GL160985  22.236   8.444   5.582
 4622POPC   GL260986  21.895   8.619   5.652
 4622POPC   C1A60987  22.212   8.202   6.038
 4622POPC   D2A60988  22.073   8.034   6.485
 4622POPC   C3A60989  22.242   7.891   6.912
 4622POPC   C4A60990  22.212   7.962   7.376
 4622POPC   C1B60991  21.817   8.502   6.091
 4622POPC   C2B60992  21.846   8.544   6.542
 4622POPC   C3B60993  21.904   8.297   6.914
 4622POPC   C4B60994  22.002   8.447   7.323
 4623POPC   NC360995  24.724  33.743   5.470
 4623POPC   PO460996  25.292  34.014   5.203
 4623POPC   GL160997  25.281  33.748   5.629
 4623POPC   GL260998  25.010  33.734   5.900
 4623POPC   C1A60999  25.494  33.696   6.062
 4623POPC   D2A61000  25.440  33.595   6.522
 4623POPC   C3A61001  25.378  33.777   6.953
 4623POPC   C4A61002  25.085  33.587   7.263
 4623POPC   C1B61003  24.819  34.090   6.149
 4623POPC   C2B61004  24.889  34.339   6.513
 4623POPC   C3B61005  24.990  34.123   6.885
 4623POPC   C4B61006  24.975  34.089   7.327
 4624POPC   NC361007  10.766  22.098   5.366
 4624POPC   PO461008  10.354  21.612   5.584
 4624POPC   GL161009  10.381  21.906   5.905
 4624POPC   GL261010  10.583  22.206   5.843
 4624POPC   C1A61011  10.366  21.956   6.354
 4624POPC   D2A61012  10.494  21.832   6.761
 4624POPC   C3A61013  10.247  22.062   7.064
 4624POPC   C4A61014  10.389  22.070   7.487
 4624POPC   C1B61015  10.838  21.955   6.156
 4624POPC   C2B61016  10.904  22.104   6.594
 4624POPC   C3B61017  10.788  22.135   7.060
 4624POPC   C4B61018  10.876  22.301   7.477
 4625POPC   NC361019  11.808  17.744   5.363
 4625POPC   PO461020  12.240  17.276   5.343
 4625POPC   GL161021  12.175  17.399   5.787
 4625POPC   GL261022  11.896  17.595   5.848
 4625POPC   C1A61023  12.025  17.278   6.235
 4625POPC   D2A61024  12.035  17.445   6.653
 4625POPC   C3A61025  12.267  17.291   6.994
 4625POPC   C4A61026  12.321  17.380   7.452
 4625POPC   C1B61027  11.935  17.808   6.278
 4625POPC   C2B61028  11.818  17.896   6.739
 4625POPC   C3B61029  11.934  17.662   7.117
 4625POPC   C4B61030  11.834  17.491   7.535
 4626POPC   NC361031   3.906  41.399   5.348
 4626POPC   PO461032   3.662  42.000   5.550
 4626POPC   GL161033   3.588  41.689   5.860
 4626POPC   GL261034   3.308  41.530   5.661
 4626POPC   C1A61035   3.600  41.603   6.341
 4626POPC   D2A61036   3.320  41.759   6.717
 4626POPC   C3A61037   3.613  41.779   7.067
 4626POPC   C4A61038   3.808  41.420   7.259
 4626POPC   C1B61039   3.243  41.368   6.063
 4626POPC   C2B61040   3.246  41.273   6.504
 4626POPC   C3B61041   3.451  41.284   6.896
 4626POPC   C4B61042   3.240  41.469   7.231
 4627POPC   NC361043   1.525  43.231   5.355
 4627POPC   PO461044   0.926  43.279   5.160
 4627POPC   GL161045   1.014  43.155   5.678
 4627POPC   GL261046   1.350  43.246   5.814
 4627POPC   C1A61047   1.083  43.124   6.204
 4627POPC   D2A61048   1.138  43.302   6.652
 4627POPC   C3A61049   1.234  42.983   6.988
 4627POPC   C4A61050   1.145  42.776   7.413
 4627POPC   C1B61051   1.586  43.352   6.160
 4627POPC   C2B61052   1.567  43.572   6.518
 4627POPC   C3B61053   1.626  43.373   6.886
 4627POPC   C4B61054   1.601  43.197   7.290
 4628POPC   NC361055   9.286  38.657   5.440
 4628POPC   PO461056   8.650  38.323   5.423
 4628POPC   GL161057   8.868  38.458   5.782
 4628POPC   GL261058   9.178  38.290   5.844
 4628POPC   C1A61059   8.824  38.366   6.229
 4628POPC   D2A61060   9.035  38.425   6.625
 4628POPC   C3A61061   8.867  38.561   7.053
 4628POPC   C4A61062   8.922  38.641   7.518
 4628POPC   C1B61063   9.240  38.666   6.113
 4628POPC   C2B61064   9.337  38.822   6.524
 4628POPC   C3B61065   9.347  38.735   6.952
 4628POPC   C4B61066   9.408  38.592   7.365
 4629POPC   NC361067  29.214  43.352   5.377
 4629POPC   PO461068  29.282  42.750   5.519
 4629POPC   GL161069  29.140  43.025   5.817
 4629POPC   GL261070  28.818  42.902   5.812
 4629POPC   C1A61071  29.300  43.148   6.246
 4629POPC   D2A61072  29.572  43.067   6.589
 4629POPC   C3A61073  29.351  43.048   6.992
 4629POPC   C4A61074  29.106  43.296   7.261
 4629POPC   C1B61075  28.801  43.177   6.197
 4629POPC   C2B61076  28.943  43.159   6.636
 4629POPC   C3B61077  28.732  43.372   6.944
 4629POPC   C4B61078  28.610  43.281   7.370
 4630POPC   NC361079  43.963  32.685   5.453
 4630POPC   PO461080  43.893  33.289   5.481
 4630POPC   GL161081  43.811  32.984   5.853
 4630POPC   GL261082  43.632  32.646   5.879
 4630POPC   C1A61083  43.948  32.917   6.289
 4630POPC   D2A61084  44.189  32.780   6.662
 4630POPC   C3A61085  44.117  33.049   7.033
 4630POPC   C4A61086  44.040  33.224   7.459
 4630POPC   C1B61087  43.513  32.662   6.357
 4630POPC   C2B61088  43.680  32.862   6.740
 4630POPC   C3B61089  43.591  32.969   7.168
 4630POPC   C4B61090  43.193  32.931   7.450
 4631POPC   NC361091  22.580  14.586   5.424
 4631POPC   PO461092  23.123  14.213   5.422
 4631POPC   GL161093  22.955  14.435   5.790
 4631POPC   GL261094  22.703  14.200   5.879
 4631POPC   C1A61095  22.809  14.574   6.235
 4631POPC   D2A61096  22.705  14.345   6.654
 4631POPC   C3A61097  22.819  14.573   7.078
 4631POPC   C4A61098  22.762  14.597   7.537
 4631POPC   C1B61099  22.987  14.107   6.220
 4631POPC   C2B61100  23.159  14.129   6.644
 4631POPC   C3B61101  22.925  14.070   7.047
 4631POPC   C4B61102  23.100  14.227   7.441
 4632POPC   NC361103  18.368   5.517   5.413
 4632POPC   PO461104  18.164   6.184   5.244
 4632POPC   GL161105  18.189   5.987   5.662
 4632POPC   GL261106  17.918   5.753   5.629
 4632POPC   C1A61107  18.418   5.986   6.075
 4632POPC   D2A61108  18.485   6.053   6.510
 4632POPC   C3A61109  18.413   5.822   6.892
 4632POPC   C4A61110  18.380   6.060   7.269
 4632POPC   C1B61111  17.896   5.912   6.075
 4632POPC   C2B61112  17.914   6.023   6.538
 4632POPC   C3B61113  17.900   5.856   6.982
 4632POPC   C4B61114  17.926   5.810   7.468
 4633POPC   NC361115  34.117   1.601   5.572
 4633POPC   PO461116  33.578   2.130   5.446
 4633POPC   GL161117  33.760   2.036   5.814
 4633POPC   GL261118  34.113   2.072   5.849
 4633POPC   C1A61119  33.738   2.190   6.225
 4633POPC   D2A61120  33.727   1.966   6.601
 4633POPC   C3A61121  33.705   2.225   6.952
 4633POPC   C4A61122  33.664   2.090   7.339
 4633POPC   C1B61123  34.007   1.764   6.195
 4633POPC   C2B61124  34.175   1.686   6.597
 4633POPC   C3B61125  34.056   1.862   6.990
 4633POPC   C4B61126  34.299   1.718   7.280
 4634POPC   NC361127  42.448  31.013   5.379
 4634POPC   PO461128  42.246  30.331   5.367
 4634POPC   GL161129  42.264  30.624   5.721
 4634POPC   GL261130  42.072  30.914   5.692
 4634POPC   C1A61131  42.401  30.595   6.170
 4634POPC   D2A61132  42.557  30.588   6.619
 4634POPC   C3A61133  42.278  30.427   6.960
 4634POPC   C4A61134  42.307  30.278   7.427
 4634POPC   C1B61135  42.165  31.035   6.096
 4634POPC   C2B61136  42.302  31.052   6.508
 4634POPC   C3B61137  42.263  30.937   6.941
 4634POPC   C4B61138  42.366  31.175   7.326
 4635POPC   NC361139  26.483   4.330   5.385
 4635POPC   PO461140  27.105   4.491   5.471
 4635POPC   GL161141  26.818   4.555   5.847
 4635POPC   GL261142  26.451   4.485   5.863
 4635POPC   C1A61143  26.969   4.575   6.280
 4635POPC   D2A61144  27.219   4.308   6.567
 4635POPC   C3A61145  27.128   4.498   6.946
 4635POPC   C4A61146  26.968   4.705   7.302
 4635POPC   C1B61147  26.580   4.254   6.231
 4635POPC   C2B61148  26.718   4.258   6.665
 4635POPC   C3B61149  26.638   4.357   7.077
 4635POPC   C4B61150  26.484   4.604   7.411
 4636POPC   NC361151   1.512  41.326   5.535
 4636POPC   PO461152   0.873  41.618   5.377
 4636POPC   GL161153   1.121  41.638   5.707
 4636POPC   GL261154   1.070  41.343   5.827
 4636POPC   C1A61155   1.030  41.764   6.139
 4636POPC   D2A61156   1.035  41.520   6.500
 4636POPC   C3A61157   0.970  41.758   6.864
 4636POPC   C4A61158   1.137  41.668   7.239
 4636POPC   C1B61159   1.432  41.452   6.137
 4636POPC   C2B61160   1.543  41.450   6.531
 4636POPC   C3B61161   1.368  41.379   6.893
 4636POPC   C4B61162   1.497  41.328   7.311
 4637POPC   NC361163  13.358  14.484   5.440
 4637POPC   PO461164  14.018  14.804   5.536
 4637POPC   GL161165  13.777  14.443   5.774
 4637POPC   GL261166  13.903  14.078   5.794
 4637POPC   C1A61167  13.567  14.481   6.197
 4637POPC   D2A61168  13.459  14.671   6.622
 4637POPC   C3A61169  13.628  14.529   7.025
 4637POPC   C4A61170  13.641  14.648   7.467
 4637POPC   C1B61171  13.656  13.979   6.163
 4637POPC   C2B61172  13.475  14.124   6.559
 4637POPC   C3B61173  13.649  14.024   6.953
 4637POPC   C4B61174  13.713  14.143   7.337
 4638POPC   NC361175  14.432  23.981   5.339
 4638POPC   PO461176  14.569  23.342   5.327
 4638POPC   GL161177  14.363  23.594   5.696
 4638POPC   GL261178  14.641  23.803   5.798
 4638POPC   C1A61179  14.214  23.829   6.112
 4638POPC   D2A61180  14.033  23.835   6.578
 4638POPC   C3A61181  14.219  23.697   6.972
 4638POPC   C4A61182  14.537  23.833   7.271
 4638POPC   C1B61183  14.612  23.501   6.154
 4638POPC   C2B61184  14.523  23.615   6.565
 4638POPC   C3B61185  14.693  23.479   6.957
 4638POPC   C4B61186  14.601  23.162   7.230
 4639POPC   NC361187  36.538  29.467   5.567
 4639POPC   PO461188  35.919  29.154   5.407
 4639POPC   GL161189  36.058  29.247   5.811
 4639POPC   GL261190  36.367  29.076   5.880
 4639POPC   C1A61191  35.920  29.090   6.231
 4639POPC   D2A61192  36.157  29.115   6.599
 4639POPC   C3A61193  35.985  28.973   6.974
 4639POPC   C4A61194  36.002  29.177   7.356
 4639POPC   C1B61195  36.320  29.421   6.213
 4639POPC   C2B61196  36.375  29.593   6.626
 4639POPC   C3B61197  36.344  29.401   7.027
 4639POPC   C4B61198  36.362  29.550   7.428
 4640POPC   NC361199  40.760  38.818   5.116
 4640POPC   PO461200  40.483  38.326   5.387
 4640POPC   GL161201  40.580  38.483   5.807
 4640POPC   GL261202  40.523  38.168   5.935
 4640POPC   C1A61203  40.569  38.700   6.201
 4640POPC   D2A61204  40.830  38.689   6.573
 4640POPC   C3A61205  40.804  38.741   7.028
 4640POPC   C4A61206  41.048  38.872   7.413
 4640POPC   C1B61207  40.559  38.238   6.387
 4640POPC   C2B61208  40.624  38.275   6.802
 4640POPC   C3B61209  40.591  38.042   7.226
 4640POPC   C4B61210  40.711  38.046   7.688
 4641POPC   NC361211  37.143  42.236   5.460
 4641POPC   PO461212  36.791  42.760   5.418
 4641POPC   GL161213  36.942  42.520   5.811
 4641POPC   GL261214  37.313  42.564   5.829
 4641POPC   C1A61215  37.016  42.370   6.247
 4641POPC   D2A61216  36.784  42.391   6.635
 4641POPC   C3A61217  36.892  42.305   7.068
 4641POPC   C4A61218  36.654  42.219   7.468
 4641POPC   C1B61219  37.347  42.764   6.235
 4641POPC   C2B61220  37.170  42.735   6.663
 4641POPC   C3B61221  37.239  42.689   7.142
 4641POPC   C4B61222  37.192  42.801   7.619
 4642POPC   NC361223  10.615   5.265   5.395
 4642POPC   PO461224  10.202   4.798   5.421
 4642POPC   GL161225  10.463   4.941   5.791
 4642POPC   GL261226  10.648   5.280   5.892
 4642POPC   C1A61227  10.322   5.057   6.206
 4642POPC   D2A61228  10.496   4.950   6.607
 4642POPC   C3A61229  10.275   5.127   6.951
 4642POPC   C4A61230  10.332   5.125   7.379
 4642POPC   C1B61231  10.823   4.989   6.179
 4642POPC   C2B61232  10.983   5.121   6.545
 4642POPC   C3B61233  10.739   5.345   6.842
 4642POPC   C4B61234  10.772   5.337   7.271
 4643POPC   NC361235  18.574  36.964   5.326
 4643POPC   PO461236  18.207  36.370   5.476
 4643POPC   GL161237  18.324  36.588   5.866
 4643POPC   GL261238  18.330  36.951   5.787
 4643POPC   C1A61239  18.380  36.807   6.278
 4643POPC   D2A61240  18.470  36.989   6.694
 4643POPC   C3A61241  18.457  36.832   7.062
 4643POPC   C4A61242  18.525  37.183   7.296
 4643POPC   C1B61243  18.002  37.125   6.090
 4643POPC   C2B61244  17.997  37.005   6.554
 4643POPC   C3B61245  18.076  37.162   7.001
 4643POPC   C4B61246  18.068  37.313   7.455
 4644POPC   NC361247  14.622  35.817   5.529
 4644POPC   PO461248  14.325  35.189   5.434
 4644POPC   GL161249  14.247  35.294   5.850
 4644POPC   GL261250  14.602  35.412   5.854
 4644POPC   C1A61251  14.327  35.330   6.320
 4644POPC   D2A61252  14.331  35.521   6.743
 4644POPC   C3A61253  14.263  35.299   7.149
 4644POPC   C4A61254  14.132  35.506   7.560
 4644POPC   C1B61255  14.812  35.483   6.233
 4644POPC   C2B61256  14.777  35.228   6.619
 4644POPC   C3B61257  14.867  35.296   7.040
 4644POPC   C4B61258  14.647  35.559   7.354
 4645POPC   NC361259  24.706   3.733   5.487
 4645POPC   PO461260  24.172   3.340   5.314
 4645POPC   GL161261  24.230   3.337   5.751
 4645POPC   GL261262  24.309   3.695   5.838
 4645POPC   C1A61263  24.475   3.302   6.134
 4645POPC   D2A61264  24.515   3.489   6.547
 4645POPC   C3A61265  24.160   3.561   6.790
 4645POPC   C4A61266  24.062   3.279   7.119
 4645POPC   C1B61267  24.679   3.783   6.132
 4645POPC   C2B61268  24.676   3.965   6.534
 4645POPC   C3B61269  24.516   3.945   6.945
 4645POPC   C4B61270  24.517   3.582   7.195
 4646POPC   NC361271  33.400  31.719   5.398
 4646POPC   PO461272  32.851  31.267   5.386
 4646POPC   GL161273  32.909  31.344   5.828
 4646POPC   GL261274  33.088  31.654   5.792
 4646POPC   C1A61275  32.986  31.142   6.246
 4646POPC   D2A61276  33.051  30.910   6.633
 4646POPC   C3A61277  32.899  31.134   6.956
 4646POPC   C4A61278  33.071  31.230   7.322
 4646POPC   C1B61279  33.257  31.615   6.208
 4646POPC   C2B61280  33.173  31.469   6.615
 4646POPC   C3B61281  33.056  31.629   6.995
 4646POPC   C4B61282  32.654  31.515   7.203
 4647POPC   NC361283  10.202   7.454   5.665
 4647POPC   PO461284  10.764   7.167   5.351
 4647POPC   GL161285  10.742   7.354   5.757
 4647POPC   GL261286  10.828   7.696   5.829
 4647POPC   C1A61287  10.593   7.237   6.160
 4647POPC   D2A61288  10.530   7.409   6.562
 4647POPC   C3A61289  10.690   7.184   6.901
 4647POPC   C4A61290  10.667   7.333   7.314
 4647POPC   C1B61291  10.546   7.825   6.168
 4647POPC   C2B61292  10.410   7.914   6.591
 4647POPC   C3B61293  10.561   7.713   6.977
 4647POPC   C4B61294  10.673   7.862   7.394
 4648POPC   NC361295  40.895  31.856   5.371
 4648POPC   PO461296  40.476  32.419   5.390
 4648POPC   GL161297  40.606  32.168   5.702
 4648POPC   GL261298  40.884  31.945   5.872
 4648POPC   C1A61299  40.486  32.135   6.104
 4648POPC   D2A61300  40.610  31.962   6.453
 4648POPC   C3A61301  40.537  31.993   6.914
 4648POPC   C4A61302  40.560  32.266   7.296
 4648POPC   C1B61303  41.052  32.140   6.273
 4648POPC   C2B61304  41.169  32.269   6.713
 4648POPC   C3B61305  41.029  32.106   7.114
 4648POPC   C4B61306  40.883  31.986   7.560
 4649POPC   NC361307  29.927  41.945   5.369
 4649POPC   PO461308  30.214  41.348   5.234
 4649POPC   GL161309  30.064  41.501   5.669
 4649POPC   GL261310  29.711  41.629   5.713
 4649POPC   C1A61311  30.007  41.651   6.141
 4649POPC   D2A61312  30.079  41.796   6.610
 4649POPC   C3A61313  29.998  41.569   7.010
 4649POPC   C4A61314  30.121  41.571   7.446
 4649POPC   C1B61315  29.567  41.896   6.095
 4649POPC   C2B61316  29.649  42.049   6.538
 4649POPC   C3B61317  29.617  41.888   6.958
 4649POPC   C4B61318  29.626  41.767   7.364
 4650POPC   NC361319  10.503  27.812   4.999
 4650POPC   PO461320  10.646  27.351   5.468
 4650POPC   GL161321  10.367  27.494   5.803
 4650POPC   GL261322  10.441  27.850   5.986
 4650POPC   C1A61323  10.437  27.406   6.226
 4650POPC   D2A61324  10.470  27.247   6.591
 4650POPC   C3A61325  10.426  27.568   6.880
 4650POPC   C4A61326  10.330  27.463   7.289
 4650POPC   C1B61327  10.822  27.743   6.289
 4650POPC   C2B61328  10.923  27.583   6.732
 4650POPC   C3B61329  10.823  27.694   7.165
 4650POPC   C4B61330  10.731  27.584   7.587
 4651POPC   NC361331  14.862   0.287   5.455
 4651POPC   PO461332  15.263   0.820   5.451
 4651POPC   GL161333  14.976   0.756   5.794
 4651POPC   GL261334  15.050   0.443   5.904
 4651POPC   C1A61335  14.898   0.829   6.237
 4651POPC   D2A61336  15.125   0.695   6.626
 4651POPC   C3A61337  15.001   0.741   7.061
 4651POPC   C4A61338  15.242   0.726   7.467
 4651POPC   C1B61339  14.963   0.313   6.314
 4651POPC   C2B61340  15.100   0.206   6.744
 4651POPC   C3B61341  15.325   0.328   7.101
 4651POPC   C4B61342  15.683   0.144   7.253
 4652POPC   NC361343  14.750   6.835   5.544
 4652POPC   PO461344  15.445   6.721   5.453
 4652POPC   GL161345  15.455   6.714   5.888
 4652POPC   GL261346  15.127   6.628   5.872
 4652POPC   C1A61347  15.547   6.667   6.351
 4652POPC   D2A61348  15.312   6.844   6.684
 4652POPC   C3A61349  15.347   6.856   7.123
 4652POPC   C4A61350  14.949   6.950   7.242
 4652POPC   C1B61351  15.057   6.575   6.275
 4652POPC   C2B61352  15.033   6.395   6.652
 4652POPC   C3B61353  14.913   6.454   7.048
 4652POPC   C4B61354  14.748   6.464   7.487
 4653POPC   NC361355  12.158  16.814   5.477
 4653POPC   PO461356  11.639  16.526   5.155
 4653POPC   GL161357  11.690  16.809   5.698
 4653POPC   GL261358  11.704  17.108   5.871
 4653POPC   C1A61359  11.985  16.675   6.137
 4653POPC   D2A61360  11.946  16.552   6.602
 4653POPC   C3A61361  12.173  16.776   6.916
 4653POPC   C4A61362  12.206  16.908   7.325
 4653POPC   C1B61363  11.616  16.958   6.298
 4653POPC   C2B61364  11.732  17.061   6.701
 4653POPC   C3B61365  11.794  17.136   7.129
 4653POPC   C4B61366  11.672  16.737   7.231
 4654POPC   NC361367  20.504  10.246   5.463
 4654POPC   PO461368  20.853  10.752   5.539
 4654POPC   GL161369  20.666  10.523   5.848
 4654POPC   GL261370  20.396  10.747   5.870
 4654POPC   C1A61371  20.446  10.238   6.144
 4654POPC   D2A61372  20.598  10.211   6.573
 4654POPC   C3A61373  20.551  10.569   6.838
 4654POPC   C4A61374  20.526  10.573   7.259
 4654POPC   C1B61375  20.607  10.693   6.310
 4654POPC   C2B61376  20.837  10.940   6.607
 4654POPC   C3B61377  20.945  10.870   7.036
 4654POPC   C4B61378  20.753  11.023   7.370
 4655POPC   NC361379   0.550  41.263   5.532
 4655POPC   PO461380   0.206  41.930   5.539
 4655POPC   GL161381   0.292  41.641   5.832
 4655POPC   GL261382   0.636  41.597   5.868
 4655POPC   C1A61383   0.325  41.652   6.252
 4655POPC   D2A61384   0.549  41.696   6.568
 4655POPC   C3A61385   0.320  41.496   6.889
 4655POPC   C4A61386   0.172  41.361   7.305
 4655POPC   C1B61387   0.673  41.292   6.186
 4655POPC   C2B61388   0.664  41.201   6.616
 4655POPC   C3B61389   0.858  41.289   6.989
 4655POPC   C4B61390   0.647  41.576   7.264
 4656POPC   NC361391  42.829  16.299   5.201
 4656POPC   PO461392  43.305  16.739   5.540
 4656POPC   GL161393  43.043  16.842   5.812
 4656POPC   GL261394  42.757  16.726   5.637
 4656POPC   C1A61395  43.167  16.975   6.192
 4656POPC   D2A61396  43.240  16.779   6.564
 4656POPC   C3A61397  43.154  16.952   6.944
 4656POPC   C4A61398  43.216  16.668   7.280
 4656POPC   C1B61399  42.698  16.625   6.103
 4656POPC   C2B61400  42.726  16.696   6.554
 4656POPC   C3B61401  42.803  16.580   6.978
 4656POPC   C4B61402  42.771  16.894   7.279
 4657POPC   NC361403  21.928  41.860   5.418
 4657POPC   PO461404  22.340  42.512   5.399
 4657POPC   GL161405  22.319  42.327   5.768
 4657POPC   GL261406  21.964  42.267   5.751
 4657POPC   C1A61407  22.418  42.346   6.201
 4657POPC   D2A61408  22.336  42.600   6.570
 4657POPC   C3A61409  22.370  42.408   6.990
 4657POPC   C4A61410  22.243  42.203   7.395
 4657POPC   C1B61411  21.948  42.116   6.165
 4657POPC   C2B61412  22.127  42.140   6.579
 4657POPC   C3B61413  22.084  41.972   6.970
 4657POPC   C4B61414  21.758  42.010   7.261
 4658POPC   NC361415  21.514   1.653   5.138
 4658POPC   PO461416  21.352   1.126   5.486
 4658POPC   GL161417  21.472   1.357   5.829
 4658POPC   GL261418  21.811   1.284   5.805
 4658POPC   C1A61419  21.298   1.280   6.213
 4658POPC   D2A61420  21.322   0.970   6.499
 4658POPC   C3A61421  21.467   1.198   6.847
 4658POPC   C4A61422  21.535   1.090   7.275
 4658POPC   C1B61423  21.722   0.984   6.133
 4658POPC   C2B61424  21.851   0.967   6.554
 4658POPC   C3B61425  21.782   0.805   6.935
 4658POPC   C4B61426  21.910   0.574   7.240
 4659POPC   NC361427   6.947  34.129   5.639
 4659POPC   PO461428   7.021  34.747   5.429
 4659POPC   GL161429   6.684  34.700   5.790
 4659POPC   GL261430   6.557  34.372   5.897
 4659POPC   C1A61431   6.538  34.692   6.276
 4659POPC   D2A61432   6.607  34.676   6.731
 4659POPC   C3A61433   6.369  34.500   7.079
 4659POPC   C4A61434   6.621  34.392   7.430
 4659POPC   C1B61435   6.864  34.300   6.246
 4659POPC   C2B61436   6.808  34.189   6.654
 4659POPC   C3B61437   6.952  34.368   7.020
 4659POPC   C4B61438   7.153  34.487   7.399
 4660POPC   NC361439  41.421  28.448   5.403
 4660POPC   PO461440  42.023  28.706   5.566
 4660POPC   GL161441  41.812  28.394   5.835
 4660POPC   GL261442  41.458  28.271   5.883
 4660POPC   C1A61443  41.785  28.377   6.281
 4660POPC   D2A61444  41.537  28.520   6.613
 4660POPC   C3A61445  41.732  28.620   6.998
 4660POPC   C4A61446  41.891  28.219   7.181
 4660POPC   C1B61447  41.330  28.626   6.156
 4660POPC   C2B61448  41.097  28.818   6.507
 4660POPC   C3B61449  41.208  28.716   6.935
 4660POPC   C4B61450  41.360  28.293   7.098
 4661POPC   NC361451  25.772  31.264   4.741
 4661POPC   PO461452  25.965  31.478   5.367
 4661POPC   GL161453  26.134  31.467   5.819
 4661POPC   GL261454  26.468  31.488   5.943
 4661POPC   C1A61455  26.076  31.445   6.289
 4661POPC   D2A61456  25.708  31.411   6.593
 4661POPC   C3A61457  25.887  31.427   7.015
 4661POPC   C4A61458  25.896  31.692   7.356
 4661POPC   C1B61459  26.586  31.729   6.304
 4661POPC   C2B61460  26.335  31.776   6.668
 4661POPC   C3B61461  26.363  31.758   7.105
 4661POPC   C4B61462  26.523  31.882   7.521
 4662POPC   NC361463  14.230  28.622   5.048
 4662POPC   PO461464  14.367  29.253   5.317
 4662POPC   GL161465  14.267  29.051   5.786
 4662POPC   GL261466  14.480  28.879   5.886
 4662POPC   C1A61467  14.142  28.779   6.213
 4662POPC   D2A61468  14.223  28.957   6.579
 4662POPC   C3A61469  14.030  28.973   6.935
 4662POPC   C4A61470  14.158  29.090   7.364
 4662POPC   C1B61471  14.611  29.085   6.250
 4662POPC   C2B61472  14.724  28.966   6.653
 4662POPC   C3B61473  14.523  29.157   6.967
 4662POPC   C4B61474  14.656  29.028   7.332
 4663POPC   NC361475   2.546   4.675   5.380
 4663POPC   PO461476   2.955   4.047   5.508
 4663POPC   GL161477   2.741   4.307   5.778
 4663POPC   GL261478   2.508   4.087   5.903
 4663POPC   C1A61479   2.913   4.259   6.205
 4663POPC   D2A61480   3.116   4.295   6.599
 4663POPC   C3A61481   2.917   4.120   6.938
 4663POPC   C4A61482   2.816   4.322   7.277
 4663POPC   C1B61483   2.410   4.313   6.264
 4663POPC   C2B61484   2.596   4.449   6.647
 4663POPC   C3B61485   2.403   4.474   7.045
 4663POPC   C4B61486   2.367   4.159   7.405
 4664POPC   NC361487  26.458   2.612   5.532
 4664POPC   PO461488  27.150   2.574   5.408
 4664POPC   GL161489  26.901   2.528   5.807
 4664POPC   GL261490  26.570   2.448   6.011
 4664POPC   C1A61491  26.981   2.642   6.233
 4664POPC   D2A61492  26.754   2.614   6.592
 4664POPC   C3A61493  26.756   2.969   6.841
 4664POPC   C4A61494  26.841   2.834   7.250
 4664POPC   C1B61495  26.452   2.831   6.210
 4664POPC   C2B61496  26.275   2.895   6.622
 4664POPC   C3B61497  26.339   2.781   7.067
 4664POPC   C4B61498  26.300   2.792   7.539
 4665POPC   NC361499  27.271  17.769   5.639
 4665POPC   PO461500  26.661  17.536   5.361
 4665POPC   GL161501  26.772  17.618   5.806
 4665POPC   GL261502  26.989  17.352   5.879
 4665POPC   C1A61503  26.508  17.733   6.192
 4665POPC   D2A61504  26.208  17.620   6.525
 4665POPC   C3A61505  26.398  17.705   6.904
 4665POPC   C4A61506  26.602  17.536   7.273
 4665POPC   C1B61507  26.810  17.344   6.328
 4665POPC   C2B61508  26.821  17.418   6.787
 4665POPC   C3B61509  26.900  17.137   7.142
 4665POPC   C4B61510  27.328  17.102   7.375
 4666POPC   NC361511   5.874   1.933   5.419
 4666POPC   PO461512   5.943   2.625   5.464
 4666POPC   GL161513   6.039   2.306   5.773
 4666POPC   GL261514   5.706   2.188   5.829
 4666POPC   C1A61515   6.064   2.072   6.186
 4666POPC   D2A61516   5.861   2.095   6.593
 4666POPC   C3A61517   5.990   1.893   6.980
 4666POPC   C4A61518   6.253   2.132   7.194
 4666POPC   C1B61519   5.534   2.009   6.213
 4666POPC   C2B61520   5.517   1.736   6.610
 4666POPC   C3B61521   5.492   1.995   6.968
 4666POPC   C4B61522   5.582   1.941   7.367
 4667POPC   NC361523  15.165   4.481   5.467
 4667POPC   PO461524  14.863   3.985   5.725
 4667POPC   GL161525  15.109   4.107   6.004
 4667POPC   GL261526  15.087   4.440   5.964
 4667POPC   C1A61527  15.228   4.188   6.406
 4667POPC   D2A61528  15.124   4.375   6.779
 4667POPC   C3A61529  14.992   4.050   7.082
 4667POPC   C4A61530  15.087   4.010   7.524
 4667POPC   C1B61531  15.211   4.687   6.298
 4667POPC   C2B61532  15.406   4.813   6.665
 4667POPC   C3B61533  15.258   4.769   7.078
 4667POPC   C4B61534  14.924   4.556   7.227
 4668POPC   NC361535   7.591  31.407   5.246
 4668POPC   PO461536   6.981  31.569   5.570
 4668POPC   GL161537   7.333  31.528   5.884
 4668POPC   GL261538   7.677  31.489   5.742
 4668POPC   C1A61539   7.422  31.688   6.315
 4668POPC   D2A61540   7.278  31.834   6.732
 4668POPC   C3A61541   7.154  31.549   7.065
 4668POPC   C4A61542   7.265  31.685   7.465
 4668POPC   C1B61543   7.805  31.365   6.146
 4668POPC   C2B61544   7.784  31.441   6.578
 4668POPC   C3B61545   7.653  31.547   6.962
 4668POPC   C4B61546   7.565  31.310   7.301
 4669POPC   NC361547  23.651   2.342   5.401
 4669POPC   PO461548  23.730   1.684   5.357
 4669POPC   GL161549  23.499   1.900   5.706
 4669POPC   GL261550  23.469   2.235   5.854
 4669POPC   C1A61551  23.491   1.787   6.145
 4669POPC   D2A61552  23.800   1.661   6.456
 4669POPC   C3A61553  23.934   1.891   6.851
 4669POPC   C4A61554  24.092   2.087   7.217
 4669POPC   C1B61555  23.842   2.147   6.090
 4669POPC   C2B61556  23.695   2.184   6.501
 4669POPC   C3B61557  23.501   2.216   6.908
 4669POPC   C4B61558  23.596   2.208   7.312
 4670POPC   NC361559   8.093  29.830   5.497
 4670POPC   PO461560   8.429  30.320   5.244
 4670POPC   GL161561   8.275  30.326   5.707
 4670POPC   GL261562   8.403  30.049   5.843
 4670POPC   C1A61563   8.129  30.349   6.157
 4670POPC   D2A61564   8.077  30.111   6.610
 4670POPC   C3A61565   8.305  30.130   6.989
 4670POPC   C4A61566   8.099  29.830   7.250
 4670POPC   C1B61567   8.381  29.885   6.259
 4670POPC   C2B61568   8.454  29.722   6.684
 4670POPC   C3B61569   8.550  29.611   7.114
 4670POPC   C4B61570   8.370  29.469   7.523
 4671POPC   NC361571   9.867   3.022   5.327
 4671POPC   PO461572  10.063   2.336   5.261
 4671POPC   GL161573   9.971   2.491   5.690
 4671POPC   GL261574   9.887   2.837   5.805
 4671POPC   C1A61575  10.010   2.474   6.138
 4671POPC   D2A61576   9.886   2.409   6.545
 4671POPC   C3A61577   9.891   2.618   6.932
 4671POPC   C4A61578   9.504   2.474   7.155
 4671POPC   C1B61579   9.683   2.881   6.215
 4671POPC   C2B61580   9.757   3.029   6.628
 4671POPC   C3B61581   9.561   2.988   7.036
 4671POPC   C4B61582   9.757   2.813   7.397
 4672POPC   NC361583   9.497  11.577   5.450
 4672POPC   PO461584   9.689  10.921   5.481
 4672POPC   GL161585   9.795  11.124   5.871
 4672POPC   GL261586   9.722  11.462   5.912
 4672POPC   C1A61587  10.066  11.151   6.235
 4672POPC   D2A61588  10.022  10.937   6.624
 4672POPC   C3A61589   9.657  11.161   6.743
 4672POPC   C4A61590   9.422  11.175   7.109
 4672POPC   C1B61591   9.976  11.691   6.185
 4672POPC   C2B61592   9.938  11.601   6.614
 4672POPC   C3B61593   9.934  11.480   7.029
 4672POPC   C4B61594  10.049  11.751   7.364
 4673POPC   NC361595  18.447  26.542   5.439
 4673POPC   PO461596  18.432  27.259   5.625
 4673POPC   GL161597  18.479  26.876   5.809
 4673POPC   GL261598  18.134  26.855   5.816
 4673POPC   C1A61599  18.541  26.721   6.206
 4673POPC   D2A61600  18.525  26.951   6.577
 4673POPC   C3A61601  18.397  26.695   6.885
 4673POPC   C4A61602  18.503  26.769   7.279
 4673POPC   C1B61603  18.153  27.067   6.203
 4673POPC   C2B61604  18.017  26.974   6.593
 4673POPC   C3B61605  18.092  27.116   6.978
 4673POPC   C4B61606  18.019  26.827   7.268
 4674POPC   NC361607  16.166   6.287   5.418
 4674POPC   PO461608  15.566   5.940   5.424
 4674POPC   GL161609  15.817   5.899   5.769
 4674POPC   GL261610  15.985   5.574   5.812
 4674POPC   C1A61611  15.829   5.924   6.216
 4674POPC   D2A61612  16.046   6.007   6.598
 4674POPC   C3A61613  15.802   5.946   6.943
 4674POPC   C4A61614  15.647   6.038   7.309
 4674POPC   C1B61615  15.941   5.405   6.254
 4674POPC   C2B61616  15.986   5.480   6.720
 4674POPC   C3B61617  16.173   5.369   7.127
 4674POPC   C4B61618  16.142   5.338   7.587
 4675POPC   NC361619  25.836  22.325   5.506
 4675POPC   PO461620  25.267  22.269   5.503
 4675POPC   GL161621  25.454  22.026   5.842
 4675POPC   GL261622  25.624  22.281   5.966
 4675POPC   C1A61623  25.390  21.962   6.320
 4675POPC   D2A61624  25.557  22.094   6.755
 4675POPC   C3A61625  25.429  21.922   7.175
 4675POPC   C4A61626  25.438  21.768   7.614
 4675POPC   C1B61627  25.538  22.455   6.349
 4675POPC   C2B61628  25.608  22.599   6.750
 4675POPC   C3B61629  25.429  22.478   7.136
 4675POPC   C4B61630  25.313  22.766   7.501
 4676POPC   NC361631  22.412   3.402   5.413
 4676POPC   PO461632  21.892   3.844   5.433
 4676POPC   GL161633  21.960   3.582   5.823
 4676POPC   GL261634  22.252   3.359   5.891
 4676POPC   C1A61635  22.098   3.668   6.261
 4676POPC   D2A61636  22.315   3.581   6.654
 4676POPC   C3A61637  22.117   3.773   7.031
 4676POPC   C4A61638  22.207   3.701   7.477
 4676POPC   C1B61639  22.289   3.116   6.277
 4676POPC   C2B61640  22.368   3.050   6.730
 4676POPC   C3B61641  22.327   3.300   7.108
 4676POPC   C4B61642  22.460   3.266   7.538
 4677POPC   NC361643  34.902  33.860   5.382
 4677POPC   PO461644  35.552  33.840   5.327
 4677POPC   GL161645  35.421  33.668   5.734
 4677POPC   GL261646  35.097  33.503   5.736
 4677POPC   C1A61647  35.585  33.645   6.167
 4677POPC   D2A61648  35.728  33.829   6.564
 4677POPC   C3A61649  35.492  33.669   6.944
 4677POPC   C4A61650  35.244  33.666   7.330
 4677POPC   C1B61651  35.089  33.666   6.156
 4677POPC   C2B61652  35.164  33.762   6.574
 4677POPC   C3B61653  34.942  33.630   6.947
 4677POPC   C4B61654  34.741  33.709   7.379
 4678POPC   NC361655  10.163  13.654   5.824
 4678POPC   PO461656   9.745  13.613   5.299
 4678POPC   GL161657   9.601  13.666   5.740
 4678POPC   GL261658   9.744  13.370   5.926
 4678POPC   C1A61659   9.588  13.797   6.214
 4678POPC   D2A61660   9.677  13.666   6.662
 4678POPC   C3A61661   9.642  13.878   7.060
 4678POPC   C4A61662   9.932  13.949   7.416
 4678POPC   C1B61663   9.919  13.300   6.349
 4678POPC   C2B61664   9.928  13.214   6.776
 4678POPC   C3B61665   9.937  13.457   7.171
 4678POPC   C4B61666  10.123  13.486   7.608
 4679POPC   NC361667   6.496  22.422   5.360
 4679POPC   PO461668   6.657  23.037   5.461
 4679POPC   GL161669   6.676  22.702   5.779
 4679POPC   GL261670   7.019  22.668   5.722
 4679POPC   C1A61671   6.540  22.720   6.240
 4679POPC   D2A61672   6.505  22.902   6.724
 4679POPC   C3A61673   6.572  22.788   7.201
 4679POPC   C4A61674   6.647  22.646   7.667
 4679POPC   C1B61675   7.071  22.745   6.167
 4679POPC   C2B61676   6.893  22.605   6.568
 4679POPC   C3B61677   7.012  22.611   6.967
 4679POPC   C4B61678   7.063  22.771   7.345
 4680POPC   NC361679  12.974  35.756   5.559
 4680POPC   PO461680  12.714  35.131   5.372
 4680POPC   GL161681  12.772  35.285   5.789
 4680POPC   GL261682  12.576  35.558   5.805
 4680POPC   C1A61683  12.901  35.408   6.214
 4680POPC   D2A61684  13.072  35.582   6.596
 4680POPC   C3A61685  12.833  35.410   6.917
 4680POPC   C4A61686  12.722  35.499   7.293
 4680POPC   C1B61687  12.431  35.624   6.223
 4680POPC   C2B61688  12.557  35.749   6.622
 4680POPC   C3B61689  12.366  35.749   7.029
 4680POPC   C4B61690  12.391  35.778   7.549
 4681POPC   NC361691  17.746  36.406   5.391
 4681POPC   PO461692  17.495  37.012   5.191
 4681POPC   GL161693  17.489  36.797   5.618
 4681POPC   GL261694  17.842  36.765   5.739
 4681POPC   C1A61695  17.473  36.963   6.052
 4681POPC   D2A61696  17.531  37.153   6.454
 4681POPC   C3A61697  17.368  36.925   6.815
 4681POPC   C4A61698  17.403  36.772   7.241
 4681POPC   C1B61699  17.897  36.649   6.177
 4681POPC   C2B61700  17.680  36.624   6.532
 4681POPC   C3B61701  17.818  36.703   6.930
 4681POPC   C4B61702  17.955  36.805   7.334
 4682POPC   NC361703  42.124   7.164   5.463
 4682POPC   PO461704  42.269   6.443   5.363
 4682POPC   GL161705  42.355   6.421   5.790
 4682POPC   GL261706  42.239   6.765   5.790
 4682POPC   C1A61707  42.189   6.484   6.213
 4682POPC   D2A61708  42.383   6.500   6.584
 4682POPC   C3A61709  42.162   6.525   6.970
 4682POPC   C4A61710  42.278   6.264   7.296
 4682POPC   C1B61711  42.518   6.921   6.107
 4682POPC   C2B61712  42.451   7.038   6.524
 4682POPC   C3B61713  42.595   6.857   6.879
 4682POPC   C4B61714  42.441   6.871   7.252
 4683POPC   NC361715   2.975  39.294   5.487
 4683POPC   PO461716   2.305  39.247   5.398
 4683POPC   GL161717   2.610  39.348   5.848
 4683POPC   GL261718   2.971  39.177   5.958
 4683POPC   C1A61719   2.753  39.539   6.296
 4683POPC   D2A61720   2.869  39.496   6.758
 4683POPC   C3A61721   2.624  39.224   7.070
 4683POPC   C4A61722   2.554  39.381   7.504
 4683POPC   C1B61723   3.230  38.991   6.271
 4683POPC   C2B61724   3.091  39.036   6.687
 4683POPC   C3B61725   3.031  38.917   7.098
 4683POPC   C4B61726   2.804  38.945   7.498
 4684POPC   NC361727   4.202   4.464   5.485
 4684POPC   PO461728   4.560   3.834   5.615
 4684POPC   GL161729   4.349   4.167   5.883
 4684POPC   GL261730   4.038   4.379   5.944
 4684POPC   C1A61731   4.446   4.500   6.195
 4684POPC   D2A61732   4.322   4.764   6.547
 4684POPC   C3A61733   4.375   4.524   6.929
 4684POPC   C4A61734   4.305   4.448   7.343
 4684POPC   C1B61735   3.986   4.073   6.230
 4684POPC   C2B61736   4.164   4.121   6.636
 4684POPC   C3B61737   4.024   4.148   7.044
 4684POPC   C4B61738   3.700   4.032   7.321
 4685POPC   NC361739  40.434   7.518   5.372
 4685POPC   PO461740  41.077   7.661   5.129
 4685POPC   GL161741  40.912   7.624   5.602
 4685POPC   GL261742  40.599   7.818   5.737
 4685POPC   C1A61743  40.960   7.606   6.072
 4685POPC   D2A61744  40.930   7.730   6.526
 4685POPC   C3A61745  41.082   7.410   6.803
 4685POPC   C4A61746  41.137   7.474   7.223
 4685POPC   C1B61747  40.452   7.525   6.076
 4685POPC   C2B61748  40.673   7.303   6.427
 4685POPC   C3B61749  40.582   7.351   6.874
 4685POPC   C4B61750  40.689   7.224   7.284
 4686POPC   NC361751   4.295  19.416   5.476
 4686POPC   PO461752   4.662  19.917   5.200
 4686POPC   GL161753   4.445  19.916   5.689
 4686POPC   GL261754   4.147  19.794   5.816
 4686POPC   C1A61755   4.499  19.877   6.173
 4686POPC   D2A61756   4.502  19.717   6.589
 4686POPC   C3A61757   4.740  19.891   6.913
 4686POPC   C4A61758   4.475  20.056   7.217
 4686POPC   C1B61759   3.993  19.867   6.245
 4686POPC   C2B61760   3.854  19.945   6.660
 4686POPC   C3B61761   4.048  19.823   7.031
 4686POPC   C4B61762   4.366  19.515   7.099
 4687POPC   NC361763  21.640  14.265   5.538
 4687POPC   PO461764  22.171  14.369   5.370
 4687POPC   GL161765  22.190  14.243   5.807
 4687POPC   GL261766  21.878  14.267   6.001
 4687POPC   C1A61767  22.341  14.339   6.248
 4687POPC   D2A61768  22.216  14.464   6.704
 4687POPC   C3A61769  22.402  14.264   7.088
 4687POPC   C4A61770  22.325  14.328   7.550
 4687POPC   C1B61771  21.866  14.153   6.448
 4687POPC   C2B61772  21.927  14.078   6.884
 4687POPC   C3B61773  21.913  14.349   7.248
 4687POPC   C4B61774  21.820  14.419   7.694
 4688POPC   NC361775  37.236  24.468   5.491
 4688POPC   PO461776  36.671  24.856   5.317
 4688POPC   GL161777  36.893  24.799   5.700
 4688POPC   GL261778  36.830  24.486   5.845
 4688POPC   C1A61779  37.057  24.927   6.108
 4688POPC   D2A61780  37.069  24.813   6.550
 4688POPC   C3A61781  36.891  24.455   6.763
 4688POPC   C4A61782  36.879  24.476   7.217
 4688POPC   C1B61783  37.130  24.410   6.197
 4688POPC   C2B61784  37.151  24.064   6.512
 4688POPC   C3B61785  37.356  24.008   6.906
 4688POPC   C4B61786  37.302  24.210   7.317
 4689POPC   NC361787  22.402   0.795   5.390
 4689POPC   PO461788  21.873   0.320   5.523
 4689POPC   GL161789  22.215   0.470   5.763
 4689POPC   GL261790  22.085   0.811   5.802
 4689POPC   C1A61791  22.362   0.362   6.191
 4689POPC   D2A61792  22.309   0.084   6.575
 4689POPC   C3A61793  22.251   0.331   6.948
 4689POPC   C4A61794  22.425   0.528   7.311
 4689POPC   C1B61795  22.248   0.879   6.218
 4689POPC   C2B61796  22.359   0.760   6.654
 4689POPC   C3B61797  22.275   0.945   7.071
 4689POPC   C4B61798  22.088   0.996   7.492
 4690POPC   NC361799   3.550   8.437   5.298
 4690POPC   PO461800   3.353   9.095   5.351
 4690POPC   GL161801   3.485   8.903   5.724
 4690POPC   GL261802   3.828   8.982   5.914
 4690POPC   C1A61803   3.369   8.899   6.152
 4690POPC   D2A61804   3.631   9.090   6.451
 4690POPC   C3A61805   3.519   9.085   6.884
 4690POPC   C4A61806   3.762   9.193   7.247
 4690POPC   C1B61807   3.821   8.661   6.248
 4690POPC   C2B61808   3.649   8.591   6.674
 4690POPC   C3B61809   3.888   8.710   7.051
 4690POPC   C4B61810   3.925   8.781   7.513
 4691POPC   NC361811  37.073   6.293   5.078
 4691POPC   PO461812  37.075   5.754   5.453
 4691POPC   GL161813  36.816   5.885   5.753
 4691POPC   GL261814  36.538   5.653   5.751
 4691POPC   C1A61815  36.981   5.966   6.168
 4691POPC   D2A61816  37.281   6.014   6.513
 4691POPC   C3A61817  37.128   5.779   6.878
 4691POPC   C4A61818  37.140   5.935   7.284
 4691POPC   C1B61819  36.487   5.839   6.151
 4691POPC   C2B61820  36.573   6.110   6.505
 4691POPC   C3B61821  36.723   6.123   6.941
 4691POPC   C4B61822  36.641   5.827   7.267
 4692POPC   NC361823  35.775  33.547   5.049
 4692POPC   PO461824  36.286  33.775   5.294
 4692POPC   GL161825  36.097  33.828   5.742
 4692POPC   GL261826  36.365  33.985   5.898
 4692POPC   C1A61827  36.096  33.654   6.214
 4692POPC   D2A61828  36.244  33.725   6.660
 4692POPC   C3A61829  35.983  33.767   7.038
 4692POPC   C4A61830  35.729  33.591   7.391
 4692POPC   C1B61831  36.189  34.162   6.277
 4692POPC   C2B61832  36.013  34.269   6.683
 4692POPC   C3B61833  35.980  34.267   7.125
 4692POPC   C4B61834  36.067  34.019   7.487
 4693POPC   NC361835   8.760  11.797   5.424
 4693POPC   PO461836   9.354  12.096   5.376
 4693POPC   GL161837   9.052  12.162   5.718
 4693POPC   GL261838   8.963  11.845   5.885
 4693POPC   C1A61839   9.124  12.254   6.156
 4693POPC   D2A61840   9.010  11.951   6.474
 4693POPC   C3A61841   8.967  12.151   6.867
 4693POPC   C4A61842   9.226  12.070   7.213
 4693POPC   C1B61843   8.727  11.616   6.197
 4693POPC   C2B61844   8.746  11.499   6.626
 4693POPC   C3B61845   8.622  11.766   6.951
 4693POPC   C4B61846   8.769  11.869   7.341
 4694POPC   NC361847  41.108  12.464   5.416
 4694POPC   PO461848  40.593  12.086   5.153
 4694POPC   GL161849  40.619  11.972   5.627
 4694POPC   GL261850  40.804  12.240   5.808
 4694POPC   C1A61851  40.556  11.946   6.130
 4694POPC   D2A61852  40.785  12.005   6.560
 4694POPC   C3A61853  40.615  11.978   6.985
 4694POPC   C4A61854  40.549  11.835   7.434
 4694POPC   C1B61855  41.037  12.325   6.188
 4694POPC   C2B61856  41.027  12.476   6.623
 4694POPC   C3B61857  41.069  12.233   6.988
 4694POPC   C4B61858  41.245  12.282   7.437
 4695POPC   NC361859  27.725   1.889   5.399
 4695POPC   PO461860  28.133   1.506   5.743
 4695POPC   GL161861  27.827   1.860   5.909
 4695POPC   GL261862  27.437   1.940   5.890
 4695POPC   C1A61863  27.680   1.926   6.336
 4695POPC   D2A61864  27.293   1.882   6.579
 4695POPC   C3A61865  27.447   1.819   7.008
 4695POPC   C4A61866  27.774   2.075   7.181
 4695POPC   C1B61867  27.356   2.297   6.209
 4695POPC   C2B61868  27.254   2.413   6.672
 4695POPC   C3B61869  27.480   2.471   7.117
 4695POPC   C4B61870  27.481   2.242   7.567
 4696POPC   NC361871  11.771  32.321   5.470
 4696POPC   PO461872  12.216  31.899   5.404
 4696POPC   GL161873  12.086  32.038   5.799
 4696POPC   GL261874  11.788  31.846   5.838
 4696POPC   C1A61875  11.947  32.208   6.206
 4696POPC   D2A61876  11.783  32.293   6.629
 4696POPC   C3A61877  12.102  32.399   6.959
 4696POPC   C4A61878  12.120  32.684   7.292
 4696POPC   C1B61879  11.731  31.617   6.209
 4696POPC   C2B61880  11.823  31.669   6.625
 4696POPC   C3B61881  11.809  31.920   6.978
 4696POPC   C4B61882  12.149  32.001   7.284
 4697POPC   NC361883  29.847  36.594   5.178
 4697POPC   PO461884  29.607  37.208   5.398
 4697POPC   GL161885  29.857  36.940   5.743
 4697POPC   GL261886  29.653  36.831   6.033
 4697POPC   C1A61887  30.127  36.897   6.170
 4697POPC   D2A61888  29.961  36.826   6.621
 4697POPC   C3A61889  30.101  36.994   7.031
 4697POPC   C4A61890  30.344  36.924   7.413
 4697POPC   C1B61891  29.783  37.282   6.113
 4697POPC   C2B61892  29.788  37.415   6.525
 4697POPC   C3B61893  29.528  37.116   6.753
 4697POPC   C4B61894  29.618  36.859   7.091
 4698POPC   NC361895   4.986  19.401   5.266
 4698POPC   PO461896   5.379  18.784   5.425
 4698POPC   GL161897   5.360  18.963   5.818
 4698POPC   GL261898   5.064  19.130   5.757
 4698POPC   C1A61899   5.187  18.846   6.230
 4698POPC   D2A61900   5.210  19.053   6.630
 4698POPC   C3A61901   4.973  18.856   6.943
 4698POPC   C4A61902   5.187  18.757   7.322
 4698POPC   C1B61903   5.078  19.337   6.163
 4698POPC   C2B61904   4.814  19.338   6.521
 4698POPC   C3B61905   4.871  19.397   6.947
 4698POPC   C4B61906   4.879  19.181   7.317
 4699POPC   NC361907   5.543   2.650   5.094
 4699POPC   PO461908   5.036   2.958   5.538
 4699POPC   GL161909   5.106   2.604   5.820
 4699POPC   GL261910   4.788   2.475   5.857
 4699POPC   C1A61911   5.201   2.608   6.274
 4699POPC   D2A61912   5.154   2.915   6.638
 4699POPC   C3A61913   5.304   2.755   7.049
 4699POPC   C4A61914   5.094   2.432   7.318
 4699POPC   C1B61915   4.766   2.875   6.126
 4699POPC   C2B61916   4.609   2.983   6.519
 4699POPC   C3B61917   4.715   2.923   6.962
 4699POPC   C4B61918   4.953   2.995   7.365
 4700POPC   NC361919  16.887  28.746   5.597
 4700POPC   PO461920  16.510  29.259   5.265
 4700POPC   GL161921  16.649  29.173   5.699
 4700POPC   GL261922  16.952  29.305   5.858
 4700POPC   C1A61923  16.503  29.106   6.139
 4700POPC   D2A61924  16.656  28.971   6.548
 4700POPC   C3A61925  16.673  29.143   6.989
 4700POPC   C4A61926  16.593  29.066   7.433
 4700POPC   C1B61927  17.025  28.982   6.171
 4700POPC   C2B61928  17.072  28.680   6.487
 4700POPC   C3B61929  17.093  28.870   6.877
 4700POPC   C4B61930  17.094  28.984   7.282
 4701POPC   NC361931   7.143  35.183   5.491
 4701POPC   PO461932   7.798  35.376   5.395
 4701POPC   GL161933   7.626  35.304   5.781
 4701POPC   GL261934   7.342  35.513   5.819
 4701POPC   C1A61935   7.610  35.056   6.151
 4701POPC   D2A61936   7.319  35.105   6.481
 4701POPC   C3A61937   7.503  35.188   6.858
 4701POPC   C4A61938   7.506  35.083   7.280
 4701POPC   C1B61939   7.410  35.534   6.234
 4701POPC   C2B61940   7.246  35.617   6.637
 4701POPC   C3B61941   7.434  35.694   6.993
 4701POPC   C4B61942   7.355  35.552   7.357
 4702POPC   NC361943  34.616  26.760   5.174
 4702POPC   PO461944  34.069  26.460   5.406
 4702POPC   GL161945  34.379  26.488   5.792
 4702POPC   GL261946  34.576  26.781   5.763
 4702POPC   C1A61947  34.722  26.494   6.164
 4702POPC   D2A61948  34.907  26.669   6.553
 4702POPC   C3A61949  34.673  26.525   6.915
 4702POPC   C4A61950  34.471  26.618   7.305
 4702POPC   C1B61951  34.794  26.991   6.139
 4702POPC   C2B61952  34.717  27.151   6.567
 4702POPC   C3B61953  34.515  27.046   6.965
 4702POPC   C4B61954  34.150  27.139   7.237
 4703POPC   NC361955  39.355  16.290   5.318
 4703POPC   PO461956  39.248  15.562   5.344
 4703POPC   GL161957  39.147  15.629   5.785
 4703POPC   GL261958  39.146  16.005   5.778
 4703POPC   C1A61959  39.257  15.718   6.212
 4703POPC   D2A61960  39.431  15.780   6.598
 4703POPC   C3A61961  39.181  15.683   6.965
 4703POPC   C4A61962  39.107  15.545   7.391
 4703POPC   C1B61963  39.084  16.252   6.156
 4703POPC   C2B61964  39.029  16.205   6.594
 4703POPC   C3B61965  39.035  16.357   7.010
 4703POPC   C4B61966  39.172  16.050   7.326
 4704POPC   NC361967  31.234  33.447   5.500
 4704POPC   PO461968  31.571  32.864   5.302
 4704POPC   GL161969  31.708  32.776   5.769
 4704POPC   GL261970  31.384  32.916   5.998
 4704POPC   C1A61971  31.822  32.801   6.211
 4704POPC   D2A61972  31.588  32.997   6.542
 4704POPC   C3A61973  31.691  32.911   6.959
 4704POPC   C4A61974  31.340  32.760   7.207
 4704POPC   C1B61975  31.150  33.142   6.317
 4704POPC   C2B61976  31.145  33.246   6.748
 4704POPC   C3B61977  31.414  33.375   7.059
 4704POPC   C4B61978  31.341  33.668   7.375
 4705POPC   NC361979  16.390   0.484   5.347
 4705POPC   PO461980  17.025   0.372   5.291
 4705POPC   GL161981  16.853   0.543   5.703
 4705POPC   GL261982  16.501   0.627   5.836
 4705POPC   C1A61983  16.870   0.370   6.139
 4705POPC   D2A61984  17.113   0.360   6.534
 4705POPC   C3A61985  16.864   0.423   6.897
 4705POPC   C4A61986  16.959   0.506   7.312
 4705POPC   C1B61987  16.827   0.870   6.116
 4705POPC   C2B61988  16.958   0.848   6.560
 4705POPC   C3B61989  16.811   0.917   7.000
 4705POPC   C4B61990  16.487   0.679   7.204
 4706POPC   NC361991  42.447  15.615   5.544
 4706POPC   PO461992  42.481  14.994   5.218
 4706POPC   GL161993  42.225  15.119   5.617
 4706POPC   GL261994  42.051  14.819   5.822
 4706POPC   C1A61995  42.250  15.194   6.083
 4706POPC   D2A61996  42.548  15.222   6.429
 4706POPC   C3A61997  42.494  15.138   6.856
 4706POPC   C4A61998  42.668  15.410   7.190
 4706POPC   C1B61999  42.144  14.717   6.274
 4706POPC   C2B62000  42.057  15.070   6.559
 4706POPC   C3B62001  42.013  15.099   6.998
 4706POPC   C4B62002  42.262  15.178   7.362
 4707POPC   NC362003   7.127  39.393   5.688
 4707POPC   PO462004   7.710  39.852   5.535
 4707POPC   GL162005   7.697  39.543   5.924
 4707POPC   GL262006   7.581  39.198   5.904
 4707POPC   C1A62007   7.722  39.317   6.355
 4707POPC   D2A62008   7.470  39.422   6.654
 4707POPC   C3A62009   7.524  39.283   7.061
 4707POPC   C4A62010   7.105  39.397   7.180
 4707POPC   C1B62011   7.304  39.008   6.251
 4707POPC   C2B62012   7.190  39.017   6.732
 4707POPC   C3B62013   7.167  38.796   7.138
 4707POPC   C4B62014   7.166  38.676   7.599
 4708POPC   NC362015  15.355  33.545   5.453
 4708POPC   PO462016  15.544  34.223   5.344
 4708POPC   GL162017  15.385  34.066   5.792
 4708POPC   GL262018  15.448  33.712   5.912
 4708POPC   C1A62019  15.194  34.017   6.227
 4708POPC   D2A62020  15.294  33.894   6.669
 4708POPC   C3A62021  14.979  33.849   7.017
 4708POPC   C4A62022  15.073  33.822   7.465
 4708POPC   C1B62023  15.641  33.504   6.275
 4708POPC   C2B62024  15.735  33.551   6.718
 4708POPC   C3B62025  15.601  33.336   7.083
 4708POPC   C4B62026  15.191  33.423   7.180
 4709POPC   NC362027  35.235   4.144   5.693
 4709POPC   PO462028  35.679   4.294   5.252
 4709POPC   GL162029  35.545   4.524   5.736
 4709POPC   GL262030  35.188   4.662   5.856
 4709POPC   C1A62031  35.457   4.437   6.223
 4709POPC   D2A62032  35.350   4.563   6.630
 4709POPC   C3A62033  35.276   4.149   6.868
 4709POPC   C4A62034  35.557   3.914   7.184
 4709POPC   C1B62035  34.941   4.584   6.267
 4709POPC   C2B62036  34.852   4.471   6.716
 4709POPC   C3B62037  35.104   4.586   7.085
 4709POPC   C4B62038  35.324   4.349   7.341
 4710POPC   NC362039  44.640  19.169   5.354
 4710POPC   PO462040  44.648  18.420   5.316
 4710POPC   GL162041  44.605  18.744   5.659
 4710POPC   GL262042  44.428  19.076   5.821
 4710POPC   C1A62043  44.784  18.797   6.055
 4710POPC   D2A62044  44.657  18.895   6.472
 4710POPC   C3A62045  44.866  18.893   6.871
 4710POPC   C4A62046  44.621  18.954   7.249
 4710POPC   C1B62047  44.749  19.300   6.089
 4710POPC   C2B62048  44.892  19.342   6.531
 4710POPC   C3B62049  44.684  19.354   6.929
 4710POPC   C4B62050  44.540  19.454   7.340
 4711POPC   NC362051  13.244   7.812   5.578
 4711POPC   PO462052  12.807   8.173   5.205
 4711POPC   GL162053  12.818   8.116   5.671
 4711POPC   GL262054  12.500   7.935   5.796
 4711POPC   C1A62055  12.977   8.280   6.089
 4711POPC   D2A62056  12.904   8.390   6.533
 4711POPC   C3A62057  12.941   8.185   6.933
 4711POPC   C4A62058  12.684   8.334   7.281
 4711POPC   C1B62059  12.579   7.905   6.264
 4711POPC   C2B62060  12.729   7.772   6.704
 4711POPC   C3B62061  12.616   7.841   7.156
 4711POPC   C4B62062  12.361   8.001   7.526
 4712POPC   NC362063  37.967   6.750   5.098
 4712POPC   PO462064  37.549   6.621   5.605
 4712POPC   GL162065  37.662   6.563   5.945
 4712POPC   GL262066  38.008   6.432   5.892
 4712POPC   C1A62067  37.489   6.593   6.358
 4712POPC   D2A62068  37.575   6.864   6.720
 4712POPC   C3A62069  37.535   6.625   7.100
 4712POPC   C4A62070  37.598   6.799   7.506
 4712POPC   C1B62071  38.006   6.611   6.301
 4712POPC   C2B62072  38.054   6.684   6.715
 4712POPC   C3B62073  37.989   6.825   7.078
 4712POPC   C4B62074  37.952   6.476   7.370
 4713POPC   NC362075   5.792  39.039   5.189
 4713POPC   PO462076   6.251  39.490   5.046
 4713POPC   GL162077   6.019  39.396   5.512
 4713POPC   GL262078   5.893  39.058   5.702
 4713POPC   C1A62079   6.019  39.535   6.000
 4713POPC   D2A62080   6.010  39.486   6.488
 4713POPC   C3A62081   5.995  39.431   6.952
 4713POPC   C4A62082   6.130  39.246   7.349
 4713POPC   C1B62083   5.785  39.097   6.189
 4713POPC   C2B62084   5.923  38.986   6.638
 4713POPC   C3B62085   5.760  38.981   7.073
 4713POPC   C4B62086   5.697  38.999   7.534
 4714POPC   NC362087  39.197  16.909   5.355
 4714POPC   PO462088  38.898  16.256   5.371
 4714POPC   GL162089  39.090  16.540   5.709
 4714POPC   GL262090  39.438  16.442   5.781
 4714POPC   C1A62091  39.016  16.920   6.001
 4714POPC   D2A62092  39.076  17.123   6.400
 4714POPC   C3A62093  38.951  16.932   6.819
 4714POPC   C4A62094  39.114  16.912   7.236
 4714POPC   C1B62095  39.446  16.679   6.132
 4714POPC   C2B62096  39.255  16.661   6.511
 4714POPC   C3B62097  39.454  16.683   6.906
 4714POPC   C4B62098  39.421  16.499   7.305
 4715POPC   NC362099  41.170   5.724   5.381
 4715POPC   PO462100  41.698   6.053   5.352
 4715POPC   GL162101  41.614   5.924   5.789
 4715POPC   GL262102  41.854   5.702   5.850
 4715POPC   C1A62103  41.528   5.742   6.234
 4715POPC   D2A62104  41.475   5.901   6.650
 4715POPC   C3A62105  41.525   5.651   7.019
 4715POPC   C4A62106  41.700   5.773   7.470
 4715POPC   C1B62107  41.971   6.025   6.205
 4715POPC   C2B62108  41.892   6.185   6.659
 4715POPC   C3B62109  41.806   6.156   7.151
 4715POPC   C4B62110  41.947   6.180   7.668
 4716POPC   NC362111  32.283  10.095   5.285
 4716POPC   PO462112  32.443  10.675   5.486
 4716POPC   GL162113  32.301  10.386   5.800
 4716POPC   GL262114  31.967  10.405   5.663
 4716POPC   C1A62115  32.342  10.346   6.285
 4716POPC   D2A62116  32.468  10.225   6.732
 4716POPC   C3A62117  32.307  10.429   7.109
 4716POPC   C4A62118  31.886  10.575   7.130
 4716POPC   C1B62119  31.884  10.532   6.070
 4716POPC   C2B62120  31.882  10.450   6.527
 4716POPC   C3B62121  31.958  10.113   6.822
 4716POPC   C4B62122  31.974  10.059   7.259
 4717POPC   NC362123  35.239  17.228   5.545
 4717POPC   PO462124  35.456  16.626   5.489
 4717POPC   GL162125  35.210  16.768   5.819
 4717POPC   GL262126  35.516  16.964   5.902
 4717POPC   C1A62127  35.160  16.760   6.281
 4717POPC   D2A62128  35.517  16.632   6.567
 4717POPC   C3A62129  35.546  16.657   7.019
 4717POPC   C4A62130  35.451  16.604   7.470
 4717POPC   C1B62131  35.542  17.119   6.313
 4717POPC   C2B62132  35.758  17.147   6.704
 4717POPC   C3B62133  35.502  17.164   7.055
 4717POPC   C4B62134  35.518  17.098   7.465
 4718POPC   NC362135  13.210   0.010   5.554
 4718POPC   PO462136  12.776   0.516   5.367
 4718POPC   GL162137  12.919   0.371   5.753
 4718POPC   GL262138  12.812   0.646   5.874
 4718POPC   C1A62139  12.782   0.271   6.204
 4718POPC   D2A62140  12.753   0.477   6.593
 4718POPC   C3A62141  12.659   0.224   6.948
 4718POPC   C4A62142  12.659   0.034   7.344
 4718POPC   C1B62143  12.581   0.887   6.158
 4718POPC   C2B62144  12.381   0.840   6.546
 4718POPC   C3B62145  12.446   0.710   6.953
 4718POPC   C4B62146  12.833   0.656   7.123
 4719POPC   NC362147  39.368  33.822   5.440
 4719POPC   PO462148  38.925  33.363   5.260
 4719POPC   GL162149  38.941  33.699   5.701
 4719POPC   GL262150  39.154  34.017   5.856
 4719POPC   C1A62151  39.030  33.697   6.221
 4719POPC   D2A62152  39.319  33.439   6.527
 4719POPC   C3A62153  39.400  33.622   6.938
 4719POPC   C4A62154  39.186  33.603   7.332
 4719POPC   C1B62155  39.485  34.021   6.235
 4719POPC   C2B62156  39.607  34.054   6.678
 4719POPC   C3B62157  39.383  34.115   7.100
 4719POPC   C4B62158  39.489  33.962   7.507
 4720POPC   NC362159  33.380   9.102   5.328
 4720POPC   PO462160  32.693   9.089   5.359
 4720POPC   GL162161  32.855   8.964   5.796
 4720POPC   GL262162  33.220   8.990   5.798
 4720POPC   C1A62163  32.625   8.948   6.228
 4720POPC   D2A62164  32.577   9.209   6.645
 4720POPC   C3A62165  32.712   9.019   7.070
 4720POPC   C4A62166  32.856   8.621   7.275
 4720POPC   C1B62167  33.135   8.957   6.253
 4720POPC   C2B62168  33.116   9.139   6.705
 4720POPC   C3B62169  33.220   9.062   7.152
 4720POPC   C4B62170  33.361   8.664   7.352
 4721POPC   NC362171  31.259  32.670   5.579
 4721POPC   PO462172  31.655  32.118   5.626
 4721POPC   GL162173  31.329  32.202   5.875
 4721POPC   GL262174  31.157  31.887   5.796
 4721POPC   C1A62175  31.408  32.447   6.256
 4721POPC   D2A62176  31.668  32.481   6.636
 4721POPC   C3A62177  31.481  32.297   7.003
 4721POPC   C4A62178  31.568  32.336   7.428
 4721POPC   C1B62179  31.238  31.772   6.215
 4721POPC   C2B62180  31.036  31.811   6.622
 4721POPC   C3B62181  31.207  31.848   7.053
 4721POPC   C4B62182  31.220  31.979   7.480
 4722POPC   NC362183  10.573   9.360   5.572
 4722POPC   PO462184  10.507   8.721   5.453
 4722POPC   GL162185  10.586   8.863   5.844
 4722POPC   GL262186  10.916   8.710   5.900
 4722POPC   C1A62187  10.456   8.954   6.277
 4722POPC   D2A62188  10.512   8.962   6.732
 4722POPC   C3A62189  10.823   8.713   6.924
 4722POPC   C4A62190  10.580   8.608   7.260
 4722POPC   C1B62191  10.937   9.141   6.104
 4722POPC   C2B62192  10.790   9.345   6.483
 4722POPC   C3B62193  10.905   9.260   6.881
 4722POPC   C4B62194  10.737   9.092   7.254
 4723POPC   NC362195  29.407   0.306   5.568
 4723POPC   PO462196  29.372  44.730   5.177
 4723POPC   GL162197  29.489  44.553   5.618
 4723POPC   GL262198  29.467  44.865   5.848
 4723POPC   C1A62199  29.289  44.402   6.054
 4723POPC   D2A62200  28.957  44.566   6.399
 4723POPC   C3A62201  28.940  44.630   6.868
 4723POPC   C4A62202  29.179  44.469   7.234
 4723POPC   C1B62203  29.399  44.832   6.309
 4723POPC   C2B62204  29.428  44.690   6.731
 4723POPC   C3B62205  29.363  44.927   7.117
 4723POPC   C4B62206  29.229  44.872   7.559
 4724POPC   NC362207   0.107  28.021   5.487
 4724POPC   PO462208   0.479  28.563   5.411
 4724POPC   GL162209   0.571  28.520   5.823
 4724POPC   GL262210   0.276  28.343   5.856
 4724POPC   C1A62211   0.622  28.414   6.257
 4724POPC   D2A62212   0.844  28.585   6.611
 4724POPC   C3A62213   0.702  28.375   6.980
 4724POPC   C4A62214   0.690  28.490   7.405
 4724POPC   C1B62215   0.102  28.204   6.200
 4724POPC   C2B62216   0.030  28.296   6.609
 4724POPC   C3B62217   0.130  28.077   6.948
 4724POPC   C4B62218   0.276  28.209   7.309
 4725POPC   NC362219  31.762  25.947   5.311
 4725POPC   PO462220  32.080  26.395   5.422
 4725POPC   GL162221  32.237  26.225   5.856
 4725POPC   GL262222  32.179  25.865   5.787
 4725POPC   C1A62223  32.459  26.288   6.329
 4725POPC   D2A62224  32.628  26.267   6.775
 4725POPC   C3A62225  32.363  26.299   7.120
 4725POPC   C4A62226  31.897  26.271   7.165
 4725POPC   C1B62227  32.100  25.924   6.238
 4725POPC   C2B62228  32.285  25.898   6.641
 4725POPC   C3B62229  32.294  25.803   7.084
 4725POPC   C4B62230  32.591  25.743   7.425
 4726POPC   NC362231  37.588   9.373   5.480
 4726POPC   PO462232  37.217   9.825   5.220
 4726POPC   GL162233  37.515   9.870   5.724
 4726POPC   GL262234  37.891   9.934   5.864
 4726POPC   C1A62235  37.585   9.737   6.224
 4726POPC   D2A62236  37.375   9.719   6.654
 4726POPC   C3A62237  37.433   9.632   7.097
 4726POPC   C4A62238  37.320   9.680   7.521
 4726POPC   C1B62239  38.067  10.173   6.289
 4726POPC   C2B62240  38.079  10.225   6.754
 4726POPC   C3B62241  37.824   9.965   7.041
 4726POPC   C4B62242  37.807   9.796   7.452
 4727POPC   NC362243  10.785  35.108   5.528
 4727POPC   PO462244  10.153  35.303   5.369
 4727POPC   GL162245  10.380  35.328   5.791
 4727POPC   GL262246  10.571  35.069   5.977
 4727POPC   C1A62247  10.462  35.498   6.209
 4727POPC   D2A62248  10.613  35.313   6.571
 4727POPC   C3A62249  10.444  35.557   6.872
 4727POPC   C4A62250  10.371  35.528   7.281
 4727POPC   C1B62251  10.213  35.013   6.235
 4727POPC   C2B62252  10.140  35.157   6.625
 4727POPC   C3B62253  10.289  35.099   7.014
 4727POPC   C4B62254  10.033  35.178   7.358
 4728POPC   NC362255   1.061  30.142   5.479
 4728POPC   PO462256   1.158  30.768   5.535
 4728POPC   GL162257   1.305  30.628   5.898
 4728POPC   GL262258   1.065  30.354   5.979
 4728POPC   C1A62259   1.261  30.682   6.338
 4728POPC   D2A62260   1.438  30.589   6.722
 4728POPC   C3A62261   1.297  30.850   7.054
 4728POPC   C4A62262   1.054  31.245   7.203
 4728POPC   C1B62263   0.790  30.388   6.368
 4728POPC   C2B62264   0.898  30.576   6.789
 4728POPC   C3B62265   0.816  30.771   7.216
 4728POPC   C4B62266   0.849  30.583   7.643
 4729POPC   NC362267  13.554   3.645   5.335
 4729POPC   PO462268  14.094   3.355   5.094
 4729POPC   GL162269  13.929   3.492   5.617
 4729POPC   GL262270  13.584   3.407   5.778
 4729POPC   C1A62271  13.916   3.659   6.114
 4729POPC   D2A62272  13.929   3.508   6.594
 4729POPC   C3A62273  13.750   3.685   7.006
 4729POPC   C4A62274  13.679   3.556   7.447
 4729POPC   C1B62275  13.390   3.629   6.121
 4729POPC   C2B62276  13.444   3.699   6.560
 4729POPC   C3B62277  13.227   3.712   6.953
 4729POPC   C4B62278  13.270   3.884   7.340
 4730POPC   NC362279  11.921  19.341   5.542
 4730POPC   PO462280  12.378  18.919   5.381
 4730POPC   GL162281  12.248  18.990   5.760
 4730POPC   GL262282  11.946  18.815   5.789
 4730POPC   C1A62283  12.164  19.187   6.159
 4730POPC   D2A62284  11.936  19.230   6.526
 4730POPC   C3A62285  12.092  19.179   6.923
 4730POPC   C4A62286  11.766  19.240   7.194
 4730POPC   C1B62287  12.221  18.660   6.145
 4730POPC   C2B62288  12.208  18.737   6.572
 4730POPC   C3B62289  11.997  18.657   6.930
 4730POPC   C4B62290  12.004  18.828   7.329
 4731POPC   NC362291  20.915  30.047   5.531
 4731POPC   PO462292  20.345  29.835   5.370
 4731POPC   GL162293  20.526  29.845   5.801
 4731POPC   GL262294  20.753  29.578   5.867
 4731POPC   C1A62295  20.709  30.107   6.141
 4731POPC   D2A62296  21.036  30.178   6.478
 4731POPC   C3A62297  20.837  30.263   6.869
 4731POPC   C4A62298  20.721  30.163   7.268
 4731POPC   C1B62299  20.585  29.592   6.265
 4731POPC   C2B62300  20.622  29.884   6.578
 4731POPC   C3B62301  20.416  29.937   6.920
 4731POPC   C4B62302  20.441  29.603   7.219
 4732POPC   NC362303  44.622  16.973   5.310
 4732POPC   PO462304  44.883  16.357   5.196
 4732POPC   GL162305  44.868  16.637   5.588
 4732POPC   GL262306  44.500  16.669   5.723
 4732POPC   C1A62307  44.921  16.715   6.046
 4732POPC   D2A62308  44.686  16.659   6.416
 4732POPC   C3A62309  44.716  16.778   6.858
 4732POPC   C4A62310  44.833  16.711   7.279
 4732POPC   C1B62311  44.503  17.046   6.042
 4732POPC   C2B62312  44.534  17.145   6.517
 4732POPC   C3B62313  44.394  17.150   6.974
 4732POPC   C4B62314  44.452  17.022   7.412
 4733POPC   NC362315  14.169   0.228   5.375
 4733POPC   PO462316  14.531   0.728   5.459
 4733POPC   GL162317  14.512   0.478   5.799
 4733POPC   GL262318  14.151   0.527   5.838
 4733POPC   C1A62319  14.483   0.508   6.272
 4733POPC   D2A62320  14.666   0.458   6.709
 4733POPC   C3A62321  14.509   0.518   7.127
 4733POPC   C4A62322  14.064   0.505   7.205
 4733POPC   C1B62323  14.249   0.121   6.020
 4733POPC   C2B62324  14.280   0.056   6.415
 4733POPC   C3B62325  14.258   0.143   6.846
 4733POPC   C4B62326  14.278   0.054   7.260
 4734POPC   NC362327  25.872  26.540   5.266
 4734POPC   PO462328  26.008  25.920   5.453
 4734POPC   GL162329  25.914  25.972   5.891
 4734POPC   GL262330  26.252  25.942   5.951
 4734POPC   C1A62331  25.888  26.029   6.372
 4734POPC   D2A62332  26.040  26.139   6.810
 4734POPC   C3A62333  25.841  26.100   7.181
 4734POPC   C4A62334  25.575  25.760   7.278
 4734POPC   C1B62335  26.303  26.270   6.215
 4734POPC   C2B62336  26.489  26.161   6.592
 4734POPC   C3B62337  26.485  25.932   6.956
 4734POPC   C4B62338  26.349  26.088   7.279
 4735POPC   NC362339  23.854  44.952   4.953
 4735POPC   PO462340  23.588  44.541   5.376
 4735POPC   GL162341  23.660  44.759   5.749
 4735POPC   GL262342  23.726  44.474   5.874
 4735POPC   C1A62343  23.730  44.872   6.206
 4735POPC   D2A62344  23.794   0.143   6.541
 4735POPC   C3A62345  23.705  44.892   6.896
 4735POPC   C4A62346  23.671  44.786   7.333
 4735POPC   C1B62347  23.485  44.411   6.234
 4735POPC   C2B62348  23.695  44.444   6.607
 4735POPC   C3B62349  23.546  44.384   7.024
 4735POPC   C4B62350  23.765  44.292   7.396
 4736POPC   NC362351  12.875   8.610   5.132
 4736POPC   PO462352  13.001   9.125   5.488
 4736POPC   GL162353  12.872   8.854   5.843
 4736POPC   GL262354  13.233   8.795   6.066
 4736POPC   C1A62355  12.784   8.816   6.269
 4736POPC   D2A62356  13.078   8.879   6.594
 4736POPC   C3A62357  12.914   8.703   6.971
 4736POPC   C4A62358  12.775   8.824   7.393
 4736POPC   C1B62359  13.049   9.229   6.148
 4736POPC   C2B62360  12.773   9.303   6.516
 4736POPC   C3B62361  12.712   9.180   6.960
 4736POPC   C4B62362  13.048   9.252   7.235
 4737POPC   NC362363  23.201   1.652   5.044
 4737POPC   PO462364  22.784   2.000   5.429
 4737POPC   GL162365  22.651   1.986   5.839
 4737POPC   GL262366  23.013   1.998   5.900
 4737POPC   C1A62367  22.674   2.027   6.293
 4737POPC   D2A62368  22.843   2.136   6.680
 4737POPC   C3A62369  22.693   1.931   7.036
 4737POPC   C4A62370  22.447   1.791   7.365
 4737POPC   C1B62371  23.181   2.155   6.292
 4737POPC   C2B62372  23.303   1.852   6.614
 4737POPC   C3B62373  23.449   1.716   7.020
 4737POPC   C4B62374  23.159   1.962   7.272
 4738POPC   NC362375  41.279  41.235   5.118
 4738POPC   PO462376  41.486  40.658   5.437
 4738POPC   GL162377  41.566  40.775   5.850
 4738POPC   GL262378  41.647  41.143   5.826
 4738POPC   C1A62379  41.583  40.576   6.228
 4738POPC   D2A62380  41.394  40.654   6.602
 4738POPC   C3A62381  41.601  40.602   6.988
 4738POPC   C4A62382  41.620  40.658   7.421
 4738POPC   C1B62383  41.534  41.085   6.286
 4738POPC   C2B62384  41.494  41.139   6.734
 4738POPC   C3B62385  41.544  41.099   7.159
 4738POPC   C4B62386  41.309  41.092   7.491
 4739POPC   NC362387  37.519  14.185   5.510
 4739POPC   PO462388  38.149  14.012   5.765
 4739POPC   GL162389  37.783  14.259   5.954
 4739POPC   GL262390  37.971  14.558   5.963
 4739POPC   C1A62391  37.547  14.332   6.387
 4739POPC   D2A62392  37.723  14.239   6.808
 4739POPC   C3A62393  37.615  14.407   7.224
 4739POPC   C4A62394  37.455  14.181   7.585
 4739POPC   C1B62395  37.671  14.788   6.219
 4739POPC   C2B62396  37.568  14.813   6.651
 4739POPC   C3B62397  37.912  14.717   6.926
 4739POPC   C4B62398  37.970  14.783   7.353
 4740POPC   NC362399  19.427  30.946   5.517
 4740POPC   PO462400  19.967  31.350   5.403
 4740POPC   GL162401  19.779  31.410   5.809
 4740POPC   GL262402  19.482  31.247   5.906
 4740POPC   C1A62403  19.802  31.448   6.250
 4740POPC   D2A62404  19.911  31.655   6.588
 4740POPC   C3A62405  19.950  31.499   6.980
 4740POPC   C4A62406  19.975  31.881   7.199
 4740POPC   C1B62407  19.492  31.061   6.310
 4740POPC   C2B62408  19.468  31.335   6.636
 4740POPC   C3B62409  19.506  31.188   6.971
 4740POPC   C4B62410  19.546  31.382   7.305
 4741POPC   NC362411  15.813  31.073   5.374
 4741POPC   PO462412  15.869  30.378   5.255
 4741POPC   GL162413  15.784  30.370   5.703
 4741POPC   GL262414  15.706  30.709   5.744
 4741POPC   C1A62415  15.959  30.466   6.133
 4741POPC   D2A62416  15.865  30.661   6.529
 4741POPC   C3A62417  16.039  30.534   6.931
 4741POPC   C4A62418  16.254  30.817   7.215
 4741POPC   C1B62419  15.489  30.794   6.117
 4741POPC   C2B62420  15.401  30.897   6.531
 4741POPC   C3B62421  15.502  30.716   6.904
 4741POPC   C4B62422  15.729  30.865   7.232
 4742POPC   NC362423   8.060   7.569   5.517
 4742POPC   PO462424   8.564   7.056   5.500
 4742POPC   GL162425   8.363   7.316   5.847
 4742POPC   GL262426   8.302   7.686   5.941
 4742POPC   C1A62427   8.407   7.242   6.280
 4742POPC   D2A62428   8.524   7.356   6.683
 4742POPC   C3A62429   8.224   7.388   7.029
 4742POPC   C4A62430   8.397   7.282   7.445
 4742POPC   C1B62431   7.959   7.463   6.178
 4742POPC   C2B62432   7.839   7.554   6.629
 4742POPC   C3B62433   7.780   7.728   7.064
 4742POPC   C4B62434   8.063   7.663   7.438
 4743POPC   NC362435  12.046  11.566   5.086
 4743POPC   PO462436  12.331  11.090   5.484
 4743POPC   GL162437  12.206  11.224   5.912
 4743POPC   GL262438  12.260  11.580   5.841
 4743POPC   C1A62439  12.323  11.258   6.388
 4743POPC   D2A62440  12.252  11.492   6.769
 4743POPC   C3A62441  12.085  11.214   7.157
 4743POPC   C4A62442  12.301  11.009   7.589
 4743POPC   C1B62443  12.001  11.606   6.220
 4743POPC   C2B62444  11.751  11.536   6.577
 4743POPC   C3B62445  11.822  11.636   6.989
 4743POPC   C4B62446  12.181  11.729   7.219
 4744POPC   NC362447  30.589   5.852   5.040
 4744POPC   PO462448  31.138   5.785   5.383
 4744POPC   GL162449  30.824   5.950   5.683
 4744POPC   GL262450  30.715   5.673   5.857
 4744POPC   C1A62451  30.600   6.104   6.076
 4744POPC   D2A62452  30.691   5.904   6.453
 4744POPC   C3A62453  30.637   6.103   6.833
 4744POPC   C4A62454  30.482   6.095   7.243
 4744POPC   C1B62455  30.886   5.478   6.262
 4744POPC   C2B62456  31.049   5.638   6.677
 4744POPC   C3B62457  30.870   5.716   7.096
 4744POPC   C4B62458  30.969   5.468   7.468
 4745POPC   NC362459  37.207   6.294   5.561
 4745POPC   PO462460  36.813   6.918   5.370
 4745POPC   GL162461  36.959   6.726   5.737
 4745POPC   GL262462  36.810   6.400   5.849
 4745POPC   C1A62463  37.147   6.893   6.107
 4745POPC   D2A62464  37.096   6.895   6.549
 4745POPC   C3A62465  37.177   6.492   6.764
 4745POPC   C4A62466  37.060   6.455   7.187
 4745POPC   C1B62467  36.919   6.457   6.295
 4745POPC   C2B62468  36.688   6.583   6.664
 4745POPC   C3B62469  36.817   6.865   6.983
 4745POPC   C4B62470  36.737   6.848   7.423
 4746POPC   NC362471   5.525  20.706   5.458
 4746POPC   PO462472   6.185  20.475   5.485
 4746POPC   GL162473   5.923  20.561   5.827
 4746POPC   GL262474   5.717  20.852   5.884
 4746POPC   C1A62475   5.694  20.429   6.181
 4746POPC   D2A62476   5.638  20.579   6.590
 4746POPC   C3A62477   5.708  20.326   6.952
 4746POPC   C4A62478   5.699  20.395   7.364
 4746POPC   C1B62479   5.889  20.948   6.250
 4746POPC   C2B62480   5.983  21.006   6.661
 4746POPC   C3B62481   5.783  20.858   7.053
 4746POPC   C4B62482   5.867  20.850   7.528
 4747POPC   NC362483  11.777   6.228   5.526
 4747POPC   PO462484  12.267   6.782   5.440
 4747POPC   GL162485  11.974   6.651   5.751
 4747POPC   GL262486  11.616   6.739   5.662
 4747POPC   C1A62487  11.897   6.496   6.179
 4747POPC   D2A62488  11.827   6.701   6.574
 4747POPC   C3A62489  11.951   6.621   7.031
 4747POPC   C4A62490  11.931   6.681   7.498
 4747POPC   C1B62491  11.570   6.904   6.084
 4747POPC   C2B62492  11.390   6.986   6.480
 4747POPC   C3B62493  11.568   6.997   6.882
 4747POPC   C4B62494  11.532   7.005   7.284
 4748POPC   NC362495   6.467  30.440   5.417
 4748POPC   PO462496   6.252  31.041   5.421
 4748POPC   GL162497   6.030  30.872   5.800
 4748POPC   GL262498   6.245  30.606   5.870
 4748POPC   C1A62499   5.836  30.870   6.263
 4748POPC   D2A62500   5.766  31.129   6.683
 4748POPC   C3A62501   5.820  30.931   7.119
 4748POPC   C4A62502   5.880  30.657   7.499
 4748POPC   C1B62503   6.342  30.852   6.253
 4748POPC   C2B62504   6.197  30.834   6.688
 4748POPC   C3B62505   6.245  30.634   7.109
 4748POPC   C4B62506   6.428  30.689   7.519
 4749POPC   NC362507   3.545   5.372   5.479
 4749POPC   PO462508   3.785   5.973   5.256
 4749POPC   GL162509   3.713   5.834   5.666
 4749POPC   GL262510   4.009   5.611   5.706
 4749POPC   C1A62511   3.458   5.930   6.041
 4749POPC   D2A62512   3.275   6.026   6.425
 4749POPC   C3A62513   3.518   6.056   6.762
 4749POPC   C4A62514   3.344   5.891   7.117
 4749POPC   C1B62515   3.889   5.680   6.149
 4749POPC   C2B62516   3.619   5.607   6.520
 4749POPC   C3B62517   3.426   5.438   6.901
 4749POPC   C4B62518   3.606   5.506   7.310
 4750POPC   NC362519   6.339  34.600   5.374
 4750POPC   PO462520   5.761  34.309   5.035
 4750POPC   GL162521   5.864  34.550   5.481
 4750POPC   GL262522   6.078  34.274   5.678
 4750POPC   C1A62523   5.900  34.677   5.969
 4750POPC   D2A62524   6.039  34.641   6.437
 4750POPC   C3A62525   5.884  34.869   6.822
 4750POPC   C4A62526   5.769  34.750   7.245
 4750POPC   C1B62527   6.006  34.190   6.136
 4750POPC   C2B62528   5.745  34.189   6.504
 4750POPC   C3B62529   5.895  34.357   6.872
 4750POPC   C4B62530   5.850  34.238   7.265
 4751POPC   NC362531  28.403   4.873   5.405
 4751POPC   PO462532  28.817   5.329   5.134
 4751POPC   GL162533  28.406   5.306   5.602
 4751POPC   GL262534  28.556   5.044   5.849
 4751POPC   C1A62535  28.352   5.460   6.060
 4751POPC   D2A62536  28.209   5.206   6.414
 4751POPC   C3A62537  28.426   5.303   6.774
 4751POPC   C4A62538  28.366   5.350   7.185
 4751POPC   C1B62539  28.348   4.760   6.148
 4751POPC   C2B62540  28.490   4.791   6.581
 4751POPC   C3B62541  28.357   4.862   6.988
 4751POPC   C4B62542  28.137   4.939   7.351
 4752POPC   NC362543  26.248  20.526   5.386
 4752POPC   PO462544  25.778  20.179   5.461
 4752POPC   GL162545  26.118  20.277   5.851
 4752POPC   GL262546  26.490  20.257   5.823
 4752POPC   C1A62547  26.273  20.542   6.273
 4752POPC   D2A62548  26.234  20.730   6.757
 4752POPC   C3A62549  26.078  20.703   7.218
 4752POPC   C4A62550  25.870  20.992   7.532
 4752POPC   C1B62551  26.439  20.064   6.241
 4752POPC   C2B62552  26.311  20.215   6.666
 4752POPC   C3B62553  26.380  20.306   7.082
 4752POPC   C4B62554  26.464  20.367   7.514
 4753POPC   NC362555   1.522   3.424   5.465
 4753POPC   PO462556   1.054   3.758   5.217
 4753POPC   GL162557   1.054   3.528   5.702
 4753POPC   GL262558   1.319   3.471   5.919
 4753POPC   C1A62559   0.877   3.419   6.158
 4753POPC   D2A62560   0.870   3.543   6.626
 4753POPC   C3A62561   0.991   3.324   7.027
 4753POPC   C4A62562   0.825   3.184   7.397
 4753POPC   C1B62563   1.345   3.498   6.343
 4753POPC   C2B62564   1.406   3.318   6.707
 4753POPC   C3B62565   1.486   3.455   7.095
 4753POPC   C4B62566   1.580   3.875   7.140
 4754POPC   NC362567  14.142   0.977   5.529
 4754POPC   PO462568  14.602   1.497   5.486
 4754POPC   GL162569  14.419   1.307   5.862
 4754POPC   GL262570  14.508   0.968   5.911
 4754POPC   C1A62571  14.603   1.282   6.297
 4754POPC   D2A62572  14.524   1.342   6.743
 4754POPC   C3A62573  14.568   1.072   7.123
 4754POPC   C4A62574  14.273   0.883   7.446
 4754POPC   C1B62575  14.171   0.909   6.236
 4754POPC   C2B62576  14.118   0.920   6.698
 4754POPC   C3B62577  14.089   1.251   7.007
 4754POPC   C4B62578  13.945   1.257   7.399
 4755POPC   NC362579  32.181  16.968   5.234
 4755POPC   PO462580  31.720  16.649   5.607
 4755POPC   GL162581  32.124  16.761   5.787
 4755POPC   GL262582  32.453  16.979   5.670
 4755POPC   C1A62583  32.160  16.634   6.218
 4755POPC   D2A62584  31.920  16.600   6.607
 4755POPC   C3A62585  32.067  16.386   6.965
 4755POPC   C4A62586  32.103  16.720   7.215
 4755POPC   C1B62587  32.596  16.906   6.091
 4755POPC   C2B62588  32.636  16.617   6.418
 4755POPC   C3B62589  32.451  16.681   6.800
 4755POPC   C4B62590  32.577  16.530   7.179
 4756POPC   NC362591   5.433  44.113   5.268
 4756POPC   PO462592   4.975  43.593   5.163
 4756POPC   GL162593   5.068  43.871   5.568
 4756POPC   GL262594   4.745  44.027   5.629
 4756POPC   C1A62595   5.277  43.938   6.031
 4756POPC   D2A62596   5.355  43.814   6.511
 4756POPC   C3A62597   5.148  43.954   6.921
 4756POPC   C4A62598   5.297  44.068   7.361
 4756POPC   C1B62599   4.772  43.915   6.049
 4756POPC   C2B62600   4.853  43.968   6.457
 4756POPC   C3B62601   4.840  44.334   6.694
 4756POPC   C4B62602   4.888  44.367   7.115
 4757POPC   NC362603  26.495  19.358   5.501
 4757POPC   PO462604  26.687  18.645   5.370
 4757POPC   GL162605  26.765  18.940   5.745
 4757POPC   GL262606  26.566  19.168   5.972
 4757POPC   C1A62607  27.007  19.002   6.138
 4757POPC   D2A62608  27.017  19.314   6.465
 4757POPC   C3A62609  27.021  19.092   6.854
 4757POPC   C4A62610  26.939  18.726   7.093
 4757POPC   C1B62611  26.553  19.097   6.416
 4757POPC   C2B62612  26.567  19.364   6.793
 4757POPC   C3B62613  26.835  19.468   7.134
 4757POPC   C4B62614  26.806  19.150   7.418
 4758POPC   NC362615   8.103  44.675   5.351
 4758POPC   PO462616   8.706  44.991   5.578
 4758POPC   GL162617   8.346  44.890   5.789
 4758POPC   GL262618   8.352  44.546   5.785
 4758POPC   C1A62619   8.368  44.837   6.218
 4758POPC   D2A62620   8.189  44.807   6.600
 4758POPC   C3A62621   8.370  44.851   7.000
 4758POPC   C4A62622   8.359  44.674   7.429
 4758POPC   C1B62623   8.293  44.324   6.182
 4758POPC   C2B62624   8.162  44.218   6.603
 4758POPC   C3B62625   8.147  44.376   7.017
 4758POPC   C4B62626   8.012  44.265   7.441
 4759POPC   NC362627   9.844  14.069   5.410
 4759POPC   PO462628   9.345  14.497   5.324
 4759POPC   GL162629   9.544  14.379   5.751
 4759POPC   GL262630   9.906  14.518   5.808
 4759POPC   C1A62631   9.627  14.337   6.226
 4759POPC   D2A62632   9.831  14.586   6.595
 4759POPC   C3A62633   9.570  14.492   6.933
 4759POPC   C4A62634   9.598  14.315   7.324
 4759POPC   C1B62635  10.117  14.408   6.218
 4759POPC   C2B62636  10.006  14.094   6.567
 4759POPC   C3B62637  10.010  14.258   6.994
 4759POPC   C4B62638   9.993  14.611   7.293
 4760POPC   NC362639  36.692  33.940   5.472
 4760POPC   PO462640  37.317  33.541   5.367
 4760POPC   GL162641  37.053  33.629   5.786
 4760POPC   GL262642  36.905  33.925   5.931
 4760POPC   C1A62643  36.908  33.535   6.268
 4760POPC   D2A62644  36.749  33.635   6.654
 4760POPC   C3A62645  37.048  33.686   6.934
 4760POPC   C4A62646  37.109  33.496   7.294
 4760POPC   C1B62647  36.674  33.997   6.299
 4760POPC   C2B62648  36.532  34.152   6.675
 4760POPC   C3B62649  36.438  34.017   7.061
 4760POPC   C4B62650  36.576  33.604   7.140
 4761POPC   NC362651  31.121   3.384   5.282
 4761POPC   PO462652  30.519   3.641   5.331
 4761POPC   GL162653  30.409   3.702   5.775
 4761POPC   GL262654  30.577   3.385   5.861
 4761POPC   C1A62655  30.533   3.740   6.242
 4761POPC   D2A62656  30.728   3.632   6.671
 4761POPC   C3A62657  30.441   3.586   7.038
 4761POPC   C4A62658  30.182   3.315   7.306
 4761POPC   C1B62659  30.972   3.651   5.996
 4761POPC   C2B62660  31.044   3.960   6.371
 4761POPC   C3B62661  30.994   4.034   6.861
 4761POPC   C4B62662  30.878   3.760   7.218
 4762POPC   NC362663  32.467  34.117   5.353
 4762POPC   PO462664  32.121  33.605   5.422
 4762POPC   GL162665  32.164  33.701   5.847
 4762POPC   GL262666  32.266  34.031   5.815
 4762POPC   C1A62667  32.037  33.742   6.286
 4762POPC   D2A62668  32.309  33.631   6.622
 4762POPC   C3A62669  32.205  33.692   7.058
 4762POPC   C4A62670  32.106  34.028   7.320
 4762POPC   C1B62671  32.510  33.941   6.158
 4762POPC   C2B62672  32.548  34.143   6.517
 4762POPC   C3B62673  32.573  33.972   6.891
 4762POPC   C4B62674  32.589  33.871   7.332
 4763POPC   NC362675   1.653  27.331   5.427
 4763POPC   PO462676   1.168  27.840   5.360
 4763POPC   GL162677   1.043  27.748   5.806
 4763POPC   GL262678   1.218  27.425   5.840
 4763POPC   C1A62679   1.008  27.658   6.267
 4763POPC   D2A62680   1.289  27.682   6.616
 4763POPC   C3A62681   1.300  27.533   7.029
 4763POPC   C4A62682   0.963  27.531   7.223
 4763POPC   C1B62683   1.448  27.366   6.223
 4763POPC   C2B62684   1.496  27.225   6.651
 4763POPC   C3B62685   1.765  27.375   7.005
 4763POPC   C4B62686   1.670  27.275   7.403
 4764POPC   NC362687   2.565   8.197   5.733
 4764POPC   PO462688   3.152   8.177   5.411
 4764POPC   GL162689   3.042   8.035   5.844
 4764POPC   GL262690   2.772   7.751   5.848
 4764POPC   C1A62691   2.915   8.199   6.268
 4764POPC   D2A62692   2.586   8.326   6.556
 4764POPC   C3A62693   2.601   8.329   7.019
 4764POPC   C4A62694   2.935   8.454   7.318
 4764POPC   C1B62695   2.538   7.827   6.248
 4764POPC   C2B62696   2.232   7.937   6.550
 4764POPC   C3B62697   2.369   7.855   6.954
 4764POPC   C4B62698   2.365   7.947   7.384
 4765POPC   NC362699  27.053  31.467   5.468
 4765POPC   PO462700  27.727  31.699   5.478
 4765POPC   GL162701  27.632  31.464   5.820
 4765POPC   GL262702  27.418  31.190   5.747
 4765POPC   C1A62703  27.473  31.492   6.220
 4765POPC   D2A62704  27.590  31.648   6.615
 4765POPC   C3A62705  27.305  31.731   6.926
 4765POPC   C4A62706  27.148  31.397   7.176
 4765POPC   C1B62707  27.622  31.025   6.111
 4765POPC   C2B62708  27.595  31.125   6.553
 4765POPC   C3B62709  27.706  31.167   6.982
 4765POPC   C4B62710  27.968  31.196   7.384
 4766POPC   NC362711  28.814   2.464   5.311
 4766POPC   PO462712  28.268   2.757   5.560
 4766POPC   GL162713  28.439   2.655   5.891
 4766POPC   GL262714  28.621   2.379   5.845
 4766POPC   C1A62715  28.375   2.876   6.256
 4766POPC   D2A62716  28.191   2.805   6.619
 4766POPC   C3A62717  28.449   2.829   6.958
 4766POPC   C4A62718  28.278   2.897   7.344
 4766POPC   C1B62719  28.320   2.349   6.263
 4766POPC   C2B62720  28.013   2.298   6.591
 4766POPC   C3B62721  28.055   2.472   6.992
 4766POPC   C4B62722  28.391   2.404   7.291
 4767POPC   NC362723  21.569  29.706   5.457
 4767POPC   PO462724  21.248  30.369   5.499
 4767POPC   GL162725  21.469  30.161   5.811
 4767POPC   GL262726  21.165  30.151   5.974
 4767POPC   C1A62727  21.552  29.986   6.238
 4767POPC   D2A62728  21.380  29.818   6.639
 4767POPC   C3A62729  21.635  29.925   7.003
 4767POPC   C4A62730  21.608  30.229   7.347
 4767POPC   C1B62731  21.075  29.752   6.208
 4767POPC   C2B62732  20.988  29.485   6.575
 4767POPC   C3B62733  20.890  29.702   6.959
 4767POPC   C4B62734  21.166  29.984   7.124
 4768POPC   NC362735   8.561  26.355   5.482
 4768POPC   PO462736   8.728  25.750   5.421
 4768POPC   GL162737   8.580  25.985   5.854
 4768POPC   GL262738   8.738  26.312   5.960
 4768POPC   C1A62739   8.382  26.103   6.306
 4768POPC   D2A62740   8.427  26.315   6.761
 4768POPC   C3A62741   8.154  26.198   7.139
 4768POPC   C4A62742   7.819  25.889   7.271
 4768POPC   C1B62743   8.882  26.128   6.362
 4768POPC   C2B62744   8.717  25.896   6.726
 4768POPC   C3B62745   8.594  25.915   7.167
 4768POPC   C4B62746   8.583  26.255   7.479
 4769POPC   NC362747  12.323  22.513   5.377
 4769POPC   PO462748  11.880  22.087   5.139
 4769POPC   GL162749  12.016  22.153   5.614
 4769POPC   GL262750  11.932  22.497   5.710
 4769POPC   C1A62751  12.268  22.045   6.037
 4769POPC   D2A62752  12.442  22.084   6.484
 4769POPC   C3A62753  12.215  22.083   6.905
 4769POPC   C4A62754  12.155  21.756   7.211
 4769POPC   C1B62755  12.147  22.537   6.118
 4769POPC   C2B62756  12.007  22.371   6.506
 4769POPC   C3B62757  11.761  22.380   6.869
 4769POPC   C4B62758  11.864  22.419   7.286
 4770POPC   NC362759  31.755   1.195   5.667
 4770POPC   PO462760  31.196   1.049   5.439
 4770POPC   GL162761  31.217   1.209   5.861
 4770POPC   GL262762  31.226   1.544   5.845
 4770POPC   C1A62763  31.400   1.077   6.251
 4770POPC   D2A62764  31.622   0.960   6.595
 4770POPC   C3A62765  31.749   1.216   6.914
 4770POPC   C4A62766  31.734   1.277   7.331
 4770POPC   C1B62767  31.450   1.577   6.223
 4770POPC   C2B62768  31.376   1.425   6.648
 4770POPC   C3B62769  31.282   1.425   7.083
 4770POPC   C4B62770  31.308   1.656   7.452
 4771POPC   NC362771  42.052  26.888   5.369
 4771POPC   PO462772  42.787  26.895   5.366
 4771POPC   GL162773  42.436  26.922   5.735
 4771POPC   GL262774  42.095  27.104   5.833
 4771POPC   C1A62775  42.223  26.751   6.143
 4771POPC   D2A62776  42.382  26.881   6.540
 4771POPC   C3A62777  42.213  26.754   6.934
 4771POPC   C4A62778  42.356  26.752   7.368
 4771POPC   C1B62779  42.081  27.286   6.271
 4771POPC   C2B62780  42.116  27.263   6.757
 4771POPC   C3B62781  41.980  27.123   7.211
 4771POPC   C4B62782  42.165  27.093   7.672
 4772POPC   NC362783  34.206   9.050   5.533
 4772POPC   PO462784  33.731   9.337   5.120
 4772POPC   GL162785  33.737   8.999   5.634
 4772POPC   GL262786  33.652   8.661   5.728
 4772POPC   C1A62787  33.633   9.031   6.116
 4772POPC   D2A62788  33.538   8.785   6.527
 4772POPC   C3A62789  33.667   9.047   6.890
 4772POPC   C4A62790  34.018   9.049   7.190
 4772POPC   C1B62791  33.956   8.653   6.117
 4772POPC   C2B62792  34.043   8.803   6.572
 4772POPC   C3B62793  33.888   8.601   6.977
 4772POPC   C4B62794  33.852   8.614   7.442
 4773POPC   NC362795  38.047  13.449   5.403
 4773POPC   PO462796  37.579  13.838   5.196
 4773POPC   GL162797  37.572  13.668   5.663
 4773POPC   GL262798  37.281  13.434   5.788
 4773POPC   C1A62799  37.735  13.532   6.111
 4773POPC   D2A62800  37.883  13.346   6.541
 4773POPC   C3A62801  37.987  13.615   6.929
 4773POPC   C4A62802  37.808  13.944   7.229
 4773POPC   C1B62803  37.236  13.522   6.261
 4773POPC   C2B62804  37.441  13.676   6.657
 4773POPC   C3B62805  37.502  13.535   7.085
 4773POPC   C4B62806  37.431  13.700   7.501
 4774POPC   NC362807   7.000  19.665   5.466
 4774POPC   PO462808   7.655  19.687   5.289
 4774POPC   GL162809   7.458  19.678   5.694
 4774POPC   GL262810   7.320  20.018   5.669
 4774POPC   C1A62811   7.256  19.572   6.103
 4774POPC   D2A62812   7.431  19.698   6.526
 4774POPC   C3A62813   7.334  19.839   6.940
 4774POPC   C4A62814   7.462  19.679   7.314
 4774POPC   C1B62815   7.396  20.057   6.109
 4774POPC   C2B62816   7.647  20.162   6.459
 4774POPC   C3B62817   7.716  20.198   6.902
 4774POPC   C4B62818   7.590  20.158   7.341
 4775POPC   NC362819  38.833  20.885   5.615
 4775POPC   PO462820  39.127  20.373   5.253
 4775POPC   GL162821  39.224  20.427   5.731
 4775POPC   GL262822  39.571  20.318   5.833
 4775POPC   C1A62823  39.173  20.663   6.146
 4775POPC   D2A62824  38.873  20.847   6.471
 4775POPC   C3A62825  38.920  20.694   6.906
 4775POPC   C4A62826  39.173  20.850   7.233
 4775POPC   C1B62827  39.468  20.253   6.240
 4775POPC   C2B62828  39.362  20.436   6.625
 4775POPC   C3B62829  39.379  20.206   6.996
 4775POPC   C4B62830  39.294  20.367   7.373
 4776POPC   NC362831  38.958   0.451   5.117
 4776POPC   PO462832  39.434   0.734   5.497
 4776POPC   GL162833  39.331   0.515   5.856
 4776POPC   GL262834  39.013   0.329   5.871
 4776POPC   C1A62835  39.326   0.432   6.275
 4776POPC   D2A62836  39.492   0.332   6.682
 4776POPC   C3A62837  39.246   0.601   6.942
 4776POPC   C4A62838  39.308   0.835   7.278
 4776POPC   C1B62839  38.973   0.076   6.244
 4776POPC   C2B62840  38.969   0.229   6.647
 4776POPC   C3B62841  39.150   0.117   7.036
 4776POPC   C4B62842  39.020   0.378   7.368
 4777POPC   NC362843  38.360  11.194   5.353
 4777POPC   PO462844  38.921  11.137   5.165
 4777POPC   GL162845  38.685  10.955   5.689
 4777POPC   GL262846  38.323  11.084   5.836
 4777POPC   C1A62847  38.679  11.104   6.186
 4777POPC   D2A62848  38.640  11.463   6.545
 4777POPC   C3A62849  38.521  11.426   7.010
 4777POPC   C4A62850  38.700  11.394   7.477
 4777POPC   C1B62851  38.257  11.390   6.181
 4777POPC   C2B62852  38.142  11.299   6.584
 4777POPC   C3B62853  38.070  11.088   6.948
 4777POPC   C4B62854  38.247  11.142   7.329
 4778POPC   NC362855   7.504  12.359   5.740
 4778POPC   PO462856   7.566  11.746   5.449
 4778POPC   GL162857   7.434  11.815   5.868
 4778POPC   GL262858   7.106  12.013   5.885
 4778POPC   C1A62859   7.590  11.966   6.268
 4778POPC   D2A62860   7.389  12.134   6.602
 4778POPC   C3A62861   7.615  12.126   6.956
 4778POPC   C4A62862   7.605  12.129   7.366
 4778POPC   C1B62863   7.023  12.348   6.221
 4778POPC   C2B62864   7.007  12.464   6.661
 4778POPC   C3B62865   7.121  12.265   7.048
 4778POPC   C4B62866   7.224  12.466   7.411
 4779POPC   NC362867   9.903  25.462   5.459
 4779POPC   PO462868   9.384  25.003   5.532
 4779POPC   GL162869   9.726  25.093   5.799
 4779POPC   GL262870  10.029  24.949   5.886
 4779POPC   C1A62871   9.793  25.335   6.183
 4779POPC   D2A62872   9.569  25.628   6.461
 4779POPC   C3A62873   9.497  25.536   6.865
 4779POPC   C4A62874   9.527  25.380   7.251
 4779POPC   C1B62875  10.072  24.896   6.324
 4779POPC   C2B62876  10.125  25.273   6.572
 4779POPC   C3B62877   9.986  25.407   6.951
 4779POPC   C4B62878   9.967  25.121   7.243
 4780POPC   NC362879  38.636  41.844   5.223
 4780POPC   PO462880  38.099  41.489   5.340
 4780POPC   GL162881  38.328  41.417   5.755
 4780POPC   GL262882  38.694  41.445   5.725
 4780POPC   C1A62883  38.367  41.641   6.158
 4780POPC   D2A62884  38.342  41.926   6.505
 4780POPC   C3A62885  38.273  41.770   6.906
 4780POPC   C4A62886  38.207  41.874   7.308
 4780POPC   C1B62887  38.765  41.301   6.140
 4780POPC   C2B62888  38.668  41.143   6.568
 4780POPC   C3B62889  38.658  41.390   6.943
 4780POPC   C4B62890  38.560  41.509   7.354
 4781POPC   NC362891   1.725  25.095   5.510
 4781POPC   PO462892   2.303  24.945   5.654
 4781POPC   GL162893   1.967  25.017   6.012
 4781POPC   GL262894   1.697  25.267   5.985
 4781POPC   C1A62895   1.963  25.050   6.490
 4781POPC   D2A62896   2.009  24.932   6.968
 4781POPC   C3A62897   2.217  25.230   7.295
 4781POPC   C4A62898   2.259  25.436   7.721
 4781POPC   C1B62899   1.593  25.428   6.388
 4781POPC   C2B62900   1.647  25.485   6.814
 4781POPC   C3B62901   1.723  25.314   7.190
 4781POPC   C4B62902   1.780  25.548   7.556
 4782POPC   NC362903  39.500  40.356   5.498
 4782POPC   PO462904  39.150  39.742   5.384
 4782POPC   GL162905  39.228  39.972   5.744
 4782POPC   GL262906  39.015  40.264   5.767
 4782POPC   C1A62907  39.221  39.872   6.176
 4782POPC   D2A62908  38.965  39.848   6.549
 4782POPC   C3A62909  39.122  39.914   6.967
 4782POPC   C4A62910  39.378  40.217   7.215
 4782POPC   C1B62911  38.954  40.295   6.246
 4782POPC   C2B62912  39.129  40.348   6.679
 4782POPC   C3B62913  38.928  40.433   7.099
 4782POPC   C4B62914  38.999  40.346   7.573
 4783POPC   NC362915  36.750   8.176   5.292
 4783POPC   PO462916  37.432   7.975   5.389
 4783POPC   GL162917  37.101   8.120   5.725
 4783POPC   GL262918  36.713   8.064   5.784
 4783POPC   C1A62919  37.044   8.124   6.202
 4783POPC   D2A62920  37.021   7.842   6.611
 4783POPC   C3A62921  36.980   8.122   6.989
 4783POPC   C4A62922  37.011   8.475   7.284
 4783POPC   C1B62923  36.497   8.001   6.192
 4783POPC   C2B62924  36.523   7.927   6.653
 4783POPC   C3B62925  36.306   7.985   7.018
 4783POPC   C4B62926  36.556   8.191   7.338
 4784POPC   NC362927   5.625  10.806   5.290
 4784POPC   PO462928   4.909  10.718   5.273
 4784POPC   GL162929   5.007  10.475   5.695
 4784POPC   GL262930   5.328  10.495   5.591
 4784POPC   C1A62931   4.970  10.534   6.217
 4784POPC   D2A62932   5.024  10.315   6.661
 4784POPC   C3A62933   5.022  10.446   7.133
 4784POPC   C4A62934   4.938  10.718   7.537
 4784POPC   C1B62935   5.401  10.378   6.027
 4784POPC   C2B62936   5.498  10.338   6.470
 4784POPC   C3B62937   5.468  10.240   6.899
 4784POPC   C4B62938   5.580  10.513   7.214
 4785POPC   NC362939  38.970  28.581   5.424
 4785POPC   PO462940  39.394  28.162   5.547
 4785POPC   GL162941  39.154  28.346   5.846
 4785POPC   GL262942  39.309  28.648   5.844
 4785POPC   C1A62943  39.140  28.394   6.275
 4785POPC   D2A62944  38.954  28.200   6.569
 4785POPC   C3A62945  39.098  28.195   6.984
 4785POPC   C4A62946  38.842  27.948   7.214
 4785POPC   C1B62947  39.398  28.817   6.264
 4785POPC   C2B62948  39.333  28.661   6.729
 4785POPC   C3B62949  39.471  28.537   7.179
 4785POPC   C4B62950  39.585  28.592   7.633
 4786POPC   NC362951  29.247  16.484   5.413
 4786POPC   PO462952  29.054  17.071   5.280
 4786POPC   GL162953  29.026  16.867   5.694
 4786POPC   GL262954  29.409  16.874   5.734
 4786POPC   C1A62955  28.803  16.923   6.118
 4786POPC   D2A62956  29.029  16.929   6.511
 4786POPC   C3A62957  28.906  16.746   6.901
 4786POPC   C4A62958  28.982  16.911   7.306
 4786POPC   C1B62959  29.269  16.646   6.123
 4786POPC   C2B62960  29.193  16.453   6.557
 4786POPC   C3B62961  29.353  16.398   6.991
 4786POPC   C4B62962  29.403  16.611   7.404
 4787POPC   NC362963   0.916   6.920   5.499
 4787POPC   PO462964   1.356   6.443   5.465
 4787POPC   GL162965   1.179   6.626   5.836
 4787POPC   GL262966   1.365   6.953   5.744
 4787POPC   C1A62967   1.080   6.538   6.297
 4787POPC   D2A62968   0.920   6.695   6.703
 4787POPC   C3A62969   1.180   6.449   6.985
 4787POPC   C4A62970   1.479   6.123   7.096
 4787POPC   C1B62971   1.196   7.014   6.162
 4787POPC   C2B62972   1.370   6.918   6.567
 4787POPC   C3B62973   1.310   6.962   7.005
 4787POPC   C4B62974   0.946   6.816   7.231
 4788POPC   NC362975  18.728  11.156   5.498
 4788POPC   PO462976  19.393  11.123   5.381
 4788POPC   GL162977  19.211  11.326   5.798
 4788POPC   GL262978  18.843  11.303   5.944
 4788POPC   C1A62979  19.194  11.126   6.240
 4788POPC   D2A62980  18.974  11.104   6.670
 4788POPC   C3A62981  19.228  11.035   7.085
 4788POPC   C4A62982  19.387  11.126   7.523
 4788POPC   C1B62983  18.658  11.379   6.326
 4788POPC   C2B62984  18.838  11.592   6.690
 4788POPC   C3B62985  18.843  11.416   7.080
 4788POPC   C4B62986  18.656  11.609   7.448
 4789POPC   NC362987  27.319  17.821   5.052
 4789POPC   PO462988  27.640  17.510   5.563
 4789POPC   GL162989  27.760  17.514   5.924
 4789POPC   GL262990  27.436  17.518   6.053
 4789POPC   C1A62991  27.826  17.672   6.319
 4789POPC   D2A62992  27.732  17.498   6.706
 4789POPC   C3A62993  27.759  17.721   7.074
 4789POPC   C4A62994  27.575  17.548   7.453
 4789POPC   C1B62995  27.227  17.606   6.396
 4789POPC   C2B62996  27.312  17.801   6.745
 4789POPC   C3B62997  27.295  17.496   7.021
 4789POPC   C4B62998  27.088  17.539   7.359
 4790POPC   NC362999  24.240   7.134   5.502
 4790POPC   PO463000  24.588   7.741   5.346
 4790POPC   GL163001  24.518   7.531   5.760
 4790POPC   GL263002  24.245   7.340   5.970
 4790POPC   C1A63003  24.574   7.654   6.186
 4790POPC   D2A63004  24.307   7.487   6.489
 4790POPC   C3A63005  24.410   7.584   6.892
 4790POPC   C4A63006  24.633   7.400   7.198
 4790POPC   C1B63007  24.616   7.153   6.157
 4790POPC   C2B63008  24.679   7.161   6.602
 4790POPC   C3B63009  24.281   7.088   6.810
 4790POPC   C4B63010  24.223   7.099   7.234
 4791POPC   NC363011  37.476   8.442   5.382
 4791POPC   PO463012  38.004   8.218   5.707
 4791POPC   GL163013  37.857   8.011   6.029
 4791POPC   GL263014  37.534   7.895   5.902
 4791POPC   C1A63015  37.733   8.224   6.412
 4791POPC   D2A63016  37.359   8.255   6.659
 4791POPC   C3A63017  37.479   8.451   7.037
 4791POPC   C4A63018  37.903   8.390   7.209
 4791POPC   C1B63019  37.434   7.820   6.321
 4791POPC   C2B63020  37.549   7.772   6.753
 4791POPC   C3B63021  37.465   7.932   7.174
 4791POPC   C4B63022  37.492   7.792   7.627
 4792POPC   NC363023  13.454  40.478   5.395
 4792POPC   PO463024  13.710  39.979   5.300
 4792POPC   GL163025  13.639  40.074   5.788
 4792POPC   GL263026  13.553  40.430   5.904
 4792POPC   C1A63027  13.659  40.013   6.293
 4792POPC   D2A63028  13.762  39.842   6.752
 4792POPC   C3A63029  13.600  40.013   7.145
 4792POPC   C4A63030  13.341  40.240   7.436
 4792POPC   C1B63031  13.679  40.531   6.347
 4792POPC   C2B63032  13.771  40.387   6.791
 4792POPC   C3B63033  13.758  40.509   7.241
 4792POPC   C4B63034  13.660  40.581   7.690
 4793POPC   NC363035   9.928  34.812   5.264
 4793POPC   PO463036  10.619  34.662   5.434
 4793POPC   GL163037  10.586  34.574   5.882
 4793POPC   GL263038  10.251  34.685   5.849
 4793POPC   C1A63039  10.648  34.750   6.364
 4793POPC   D2A63040  10.884  34.914   6.738
 4793POPC   C3A63041  10.946  34.641   7.086
 4793POPC   C4A63042  10.811  34.518   7.491
 4793POPC   C1B63043  10.233  34.466   6.255
 4793POPC   C2B63044  10.236  34.650   6.659
 4793POPC   C3B63045  10.431  34.618   7.050
 4793POPC   C4B63046  10.112  34.690   7.293
 4794POPC   NC363047  40.531  17.931   5.528
 4794POPC   PO463048  41.052  17.608   5.370
 4794POPC   GL163049  40.967  17.380   5.777
 4794POPC   GL263050  40.598  17.329   5.792
 4794POPC   C1A63051  40.829  17.556   6.204
 4794POPC   D2A63052  40.899  17.809   6.593
 4794POPC   C3A63053  41.003  17.663   7.025
 4794POPC   C4A63054  40.935  17.308   7.305
 4794POPC   C1B63055  40.378  17.295   6.199
 4794POPC   C2B63056  40.558  17.394   6.623
 4794POPC   C3B63057  40.510  17.454   7.064
 4794POPC   C4B63058  40.447  17.397   7.516
 4795POPC   NC363059  28.730  20.601   5.258
 4795POPC   PO463060  28.144  20.366   5.317
 4795POPC   GL163061  28.182  20.360   5.756
 4795POPC   GL263062  28.513  20.412   5.707
 4795POPC   C1A63063  28.090  20.472   6.187
 4795POPC   D2A63064  28.268  20.449   6.589
 4795POPC   C3A63065  27.985  20.560   6.886
 4795POPC   C4A63066  27.913  20.264   7.154
 4795POPC   C1B63067  28.621  20.371   6.122
 4795POPC   C2B63068  28.741  20.592   6.468
 4795POPC   C3B63069  28.716  20.467   6.904
 4795POPC   C4B63070  28.390  20.512   7.175
 4796POPC   NC363071  36.572  34.795   5.243
 4796POPC   PO463072  35.930  34.703   5.406
 4796POPC   GL163073  36.094  34.498   5.783
 4796POPC   GL263074  36.429  34.427   5.660
 4796POPC   C1A63075  35.935  34.593   6.199
 4796POPC   D2A63076  36.105  34.789   6.551
 4796POPC   C3A63077  35.866  34.735   6.901
 4796POPC   C4A63078  36.057  34.776   7.287
 4796POPC   C1B63079  36.549  34.539   6.096
 4796POPC   C2B63080  36.598  34.634   6.546
 4796POPC   C3B63081  36.386  34.555   6.958
 4796POPC   C4B63082  36.380  34.411   7.410
 4797POPC   NC363083   5.868  37.357   5.459
 4797POPC   PO463084   5.684  36.709   5.500
 4797POPC   GL163085   5.579  36.866   5.895
 4797POPC   GL263086   5.504  37.217   5.847
 4797POPC   C1A63087   5.692  36.770   6.338
 4797POPC   D2A63088   6.083  36.595   6.564
 4797POPC   C3A63089   6.065  36.601   7.014
 4797POPC   C4A63090   6.052  36.862   7.407
 4797POPC   C1B63091   5.880  37.224   6.124
 4797POPC   C2B63092   6.050  37.112   6.533
 4797POPC   C3B63093   5.922  37.171   6.957
 4797POPC   C4B63094   6.122  37.354   7.293
 4798POPC   NC363095  17.137  35.253   5.428
 4798POPC   PO463096  17.902  35.285   5.432
 4798POPC   GL163097  17.716  35.116   5.825
 4798POPC   GL263098  17.358  35.209   5.875
 4798POPC   C1A63099  17.717  35.313   6.238
 4798POPC   D2A63100  17.685  35.636   6.548
 4798POPC   C3A63101  17.877  35.483   6.883
 4798POPC   C4A63102  17.745  35.159   7.118
 4798POPC   C1B63103  17.247  35.530   6.173
 4798POPC   C2B63104  17.234  35.437   6.591
 4798POPC   C3B63105  17.346  35.463   6.989
 4798POPC   C4B63106  17.012  35.288   7.185
 4799POPC   NC363107  35.003  44.693   5.722
 4799POPC   PO463108  35.649  44.925   5.579
 4799POPC   GL163109  35.494  44.688   5.904
 4799POPC   GL263110  35.472  44.373   5.727
 4799POPC   C1A63111  35.245  44.671   6.298
 4799POPC   D2A63112  34.937  44.770   6.599
 4799POPC   C3A63113  35.054  44.552   6.970
 4799POPC   C4A63114  35.342  44.478   7.299
 4799POPC   C1B63115  35.478  44.237   6.165
 4799POPC   C2B63116  35.242  44.236   6.573
 4799POPC   C3B63117  35.246  44.022   6.957
 4799POPC   C4B63118  35.557  44.026   7.242
 4800POPC   NC363119  16.841  12.846   5.268
 4800POPC   PO463120  16.179  12.987   5.483
 4800POPC   GL163121  16.554  12.926   5.791
 4800POPC   GL263122  16.941  12.880   5.781
 4800POPC   C1A63123  16.546  12.890   6.263
 4800POPC   D2A63124  16.804  12.634   6.606
 4800POPC   C3A63125  16.672  12.641   7.062
 4800POPC   C4A63126  16.367  12.885   7.330
 4800POPC   C1B63127  17.012  13.073   6.205
 4800POPC   C2B63128  16.802  13.159   6.639
 4800POPC   C3B63129  16.752  13.147   7.073
 4800POPC   C4B63130  16.932  12.925   7.419
 4801POPC   NC363131  36.769  25.318   5.334
 4801POPC   PO463132  37.350  24.968   5.494
 4801POPC   GL163133  37.097  25.310   5.725
 4801POPC   GL263134  36.757  25.259   5.848
 4801POPC   C1A63135  37.089  25.483   6.144
 4801POPC   D2A63136  37.288  25.282   6.479
 4801POPC   C3A63137  37.054  25.220   6.872
 4801POPC   C4A63138  36.788  25.463   7.136
 4801POPC   C1B63139  36.588  25.115   6.257
 4801POPC   C2B63140  36.541  25.125   6.709
 4801POPC   C3B63141  36.662  24.914   7.076
 4801POPC   C4B63142  36.638  24.874   7.532
 4802POPC   NC363143  10.117  38.545   5.600
 4802POPC   PO463144   9.503  38.251   5.395
 4802POPC   GL163145   9.650  38.452   5.783
 4802POPC   GL263146   9.869  38.208   5.941
 4802POPC   C1A63147   9.762  38.666   6.182
 4802POPC   D2A63148  10.053  38.602   6.529
 4802POPC   C3A63149   9.922  38.814   6.899
 4802POPC   C4A63150   9.983  38.677   7.321
 4802POPC   C1B63151   9.525  38.211   6.229
 4802POPC   C2B63152   9.562  38.378   6.630
 4802POPC   C3B63153   9.711  38.362   7.034
 4802POPC   C4B63154   9.567  38.092   7.400
 4803POPC   NC363155  18.816  34.759   5.225
 4803POPC   PO463156  19.359  34.362   5.417
 4803POPC   GL163157  19.101  34.632   5.650
 4803POPC   GL263158  18.775  34.449   5.659
 4803POPC   C1A63159  19.042  34.566   6.095
 4803POPC   D2A63160  19.158  34.763   6.475
 4803POPC   C3A63161  19.162  34.539   6.854
 4803POPC   C4A63162  19.031  34.844   7.113
 4803POPC   C1B63163  18.611  34.310   6.087
 4803POPC   C2B63164  18.789  34.382   6.513
 4803POPC   C3B63165  18.707  34.325   6.958
 4803POPC   C4B63166  18.907  34.411   7.339
 4804POPC   NC363167  23.818  33.321   5.473
 4804POPC   PO463168  23.389  33.867   5.497
 4804POPC   GL163169  23.546  33.634   5.820
 4804POPC   GL263170  23.892  33.727   5.812
 4804POPC   C1A63171  23.700  33.479   6.235
 4804POPC   D2A63172  23.712  33.721   6.621
 4804POPC   C3A63173  23.699  33.795   7.065
 4804POPC   C4A63174  23.655  33.712   7.486
 4804POPC   C1B63175  23.880  33.998   6.220
 4804POPC   C2B63176  23.955  34.159   6.684
 4804POPC   C3B63177  24.060  34.132   7.143
 4804POPC   C4B63178  24.014  34.037   7.628
 4805POPC   NC363179  28.725  28.300   5.484
 4805POPC   PO463180  29.426  28.580   5.454
 4805POPC   GL163181  29.125  28.465   5.745
 4805POPC   GL263182  28.870  28.740   5.751
 4805POPC   C1A63183  29.002  28.343   6.164
 4805POPC   D2A63184  29.152  28.165   6.556
 4805POPC   C3A63185  29.120  28.282   6.986
 4805POPC   C4A63186  29.454  28.086   7.227
 4805POPC   C1B63187  29.177  28.822   6.102
 4805POPC   C2B63188  29.262  28.692   6.544
 4805POPC   C3B63189  29.272  28.762   6.992
 4805POPC   C4B63190  28.904  28.719   7.256
 4806POPC   NC363191  21.157  10.869   5.201
 4806POPC   PO463192  21.559  11.287   5.627
 4806POPC   GL163193  21.310  11.375   5.977
 4806POPC   GL263194  21.113  11.633   5.928
 4806POPC   C1A63195  21.257  11.170   6.384
 4806POPC   D2A63196  21.346  10.880   6.723
 4806POPC   C3A63197  21.496  11.028   7.124
 4806POPC   C4A63198  21.476  11.417   7.358
 4806POPC   C1B63199  21.237  11.686   6.371
 4806POPC   C2B63200  21.428  11.500   6.755
 4806POPC   C3B63201  21.109  11.353   7.004
 4806POPC   C4B63202  20.962  11.751   7.065
 4807POPC   NC363203  17.848   7.863   5.502
 4807POPC   PO463204  17.161   7.807   5.572
 4807POPC   GL163205  17.233   8.106   5.877
 4807POPC   GL263206  17.554   8.264   5.769
 4807POPC   C1A63207  17.415   8.100   6.268
 4807POPC   D2A63208  17.658   8.090   6.632
 4807POPC   C3A63209  17.466   8.234   6.991
 4807POPC   C4A63210  17.337   8.112   7.417
 4807POPC   C1B63211  17.764   8.499   6.137
 4807POPC   C2B63212  18.059   8.450   6.509
 4807POPC   C3B63213  17.995   8.379   6.942
 4807POPC   C4B63214  17.736   8.571   7.264
 4808POPC   NC363215   3.110  21.409   5.241
 4808POPC   PO463216   2.592  21.067   5.399
 4808POPC   GL163217   2.895  21.242   5.727
 4808POPC   GL263218   3.039  21.588   5.792
 4808POPC   C1A63219   2.860  21.301   6.188
 4808POPC   D2A63220   2.814  21.461   6.611
 4808POPC   C3A63221   2.642  21.194   6.971
 4808POPC   C4A63222   2.825  21.021   7.345
 4808POPC   C1B63223   2.726  21.781   6.119
 4808POPC   C2B63224   2.396  21.707   6.437
 4808POPC   C3B63225   2.433  21.699   6.904
 4808POPC   C4B63226   2.861  21.655   7.087
 4809POPC   NC363227  22.159  33.956   5.349
 4809POPC   PO463228  22.570  33.378   5.427
 4809POPC   GL163229  22.320  33.691   5.758
 4809POPC   GL263230  21.952  33.846   5.806
 4809POPC   C1A63231  22.350  33.915   6.184
 4809POPC   D2A63232  22.392  33.688   6.591
 4809POPC   C3A63233  22.463  33.935   6.951
 4809POPC   C4A63234  22.283  33.897   7.323
 4809POPC   C1B63235  21.902  34.125   6.172
 4809POPC   C2B63236  22.076  34.123   6.592
 4809POPC   C3B63237  21.967  33.848   6.912
 4809POPC   C4B63238  21.781  33.686   7.250
 4810POPC   NC363239   9.746  44.594   5.416
 4810POPC   PO463240   9.541   0.133   5.754
 4810POPC   GL163241   9.734  44.852   6.014
 4810POPC   GL263242   9.710  44.526   5.941
 4810POPC   C1A63243   9.626  44.742   6.417
 4810POPC   D2A63244   9.665  44.393   6.630
 4810POPC   C3A63245   9.845  44.639   6.936
 4810POPC   C4A63246   9.650  44.916   7.216
 4810POPC   C1B63247  10.052  44.456   6.289
 4810POPC   C2B63248  10.142  44.214   6.706
 4810POPC   C3B63249   9.833  44.161   7.060
 4810POPC   C4B63250   9.515  44.415   7.265
 4811POPC   NC363251   2.438  24.508   5.560
 4811POPC   PO463252   3.060  24.306   5.534
 4811POPC   GL163253   2.826  24.426   5.917
 4811POPC   GL263254   2.618  24.726   5.982
 4811POPC   C1A63255   2.604  24.298   6.292
 4811POPC   D2A63256   2.689  24.044   6.657
 4811POPC   C3A63257   2.667  24.212   7.081
 4811POPC   C4A63258   2.554  24.398   7.492
 4811POPC   C1B63259   2.896  24.750   6.316
 4811POPC   C2B63260   2.779  24.561   6.705
 4811POPC   C3B63261   2.515  24.702   7.036
 4811POPC   C4B63262   2.635  24.936   7.394
 4812POPC   NC363263  17.184   7.346   5.532
 4812POPC   PO463264  17.870   7.302   5.526
 4812POPC   GL163265  17.599   7.311   5.862
 4812POPC   GL263266  17.535   7.671   5.907
 4812POPC   C1A63267  17.549   7.314   6.295
 4812POPC   D2A63268  17.675   7.535   6.629
 4812POPC   C3A63269  17.486   7.258   6.890
 4812POPC   C4A63270  17.520   7.131   7.295
 4812POPC   C1B63271  17.164   7.629   6.210
 4812POPC   C2B63272  17.230   7.775   6.636
 4812POPC   C3B63273  17.396   7.729   7.054
 4812POPC   C4B63274  17.141   7.450   7.296
 4813POPC   NC363275   9.434  28.844   5.393
 4813POPC   PO463276   9.679  28.181   5.289
 4813POPC   GL163277   9.752  28.243   5.749
 4813POPC   GL263278   9.715  28.612   5.796
 4813POPC   C1A63279   9.805  28.234   6.196
 4813POPC   D2A63280   9.783  28.466   6.581
 4813POPC   C3A63281   9.762  28.161   6.840
 4813POPC   C4A63282   9.749  28.283   7.234
 4813POPC   C1B63283   9.503  28.659   6.204
 4813POPC   C2B63284   9.339  28.707   6.658
 4813POPC   C3B63285   9.469  28.683   7.118
 4813POPC   C4B63286   9.524  28.581   7.600
 4814POPC   NC363287  43.337   3.921   5.651
 4814POPC   PO463288  43.077   3.522   5.208
 4814POPC   GL163289  42.983   3.512   5.696
 4814POPC   GL263290  42.864   3.825   5.884
 4814POPC   C1A63291  43.080   3.474   6.172
 4814POPC   D2A63292  42.872   3.666   6.531
 4814POPC   C3A63293  42.816   3.408   6.846
 4814POPC   C4A63294  43.009   3.537   7.172
 4814POPC   C1B63295  43.140   3.992   6.253
 4814POPC   C2B63296  43.068   4.141   6.638
 4814POPC   C3B63297  43.131   4.005   7.017
 4814POPC   C4B63298  43.297   3.899   7.388
 4815POPC   NC363299  18.100   3.731   5.372
 4815POPC   PO463300  18.696   3.455   5.502
 4815POPC   GL163301  18.335   3.474   5.793
 4815POPC   GL263302  18.227   3.821   5.863
 4815POPC   C1A63303  18.317   3.293   6.226
 4815POPC   D2A63304  18.603   3.305   6.611
 4815POPC   C3A63305  18.418   3.240   7.041
 4815POPC   C4A63306  18.019   3.182   7.271
 4815POPC   C1B63307  18.274   3.803   6.300
 4815POPC   C2B63308  18.030   3.712   6.675
 4815POPC   C3B63309  18.099   3.664   7.107
 4815POPC   C4B63310  18.094   3.860   7.480
 4816POPC   NC363311   3.917   9.115   5.427
 4816POPC   PO463312   4.623   8.909   5.272
 4816POPC   GL163313   4.347   8.904   5.671
 4816POPC   GL263314   4.523   9.161   5.756
 4816POPC   C1A63315   4.291   8.885   6.156
 4816POPC   D2A63316   4.121   9.026   6.600
 4816POPC   C3A63317   4.411   8.938   6.959
 4816POPC   C4A63318   4.547   8.723   7.339
 4816POPC   C1B63319   4.683   9.268   6.132
 4816POPC   C2B63320   4.580   9.272   6.563
 4816POPC   C3B63321   4.725   9.381   6.976
 4816POPC   C4B63322   4.659   9.443   7.402
 4817POPC   NC363323  33.143  13.890   5.656
 4817POPC   PO463324  32.766  13.364   5.466
 4817POPC   GL163325  32.843  13.225   5.882
 4817POPC   GL263326  32.897  13.580   5.963
 4817POPC   C1A63327  32.812  13.273   6.358
 4817POPC   D2A63328  32.903  13.648   6.625
 4817POPC   C3A63329  32.989  13.527   7.064
 4817POPC   C4A63330  32.720  13.219   7.288
 4817POPC   C1B63331  33.244  13.542   6.243
 4817POPC   C2B63332  33.297  13.315   6.644
 4817POPC   C3B63333  33.511  13.458   7.015
 4817POPC   C4B63334  33.364  13.630   7.406
 4818POPC   NC363335  43.052   0.803   5.493
 4818POPC   PO463336  43.190   0.153   5.472
 4818POPC   GL163337  43.200   0.479   5.862
 4818POPC   GL263338  42.894   0.643   5.985
 4818POPC   C1A63339  43.346   0.659   6.277
 4818POPC   D2A63340  43.168   0.674   6.719
 4818POPC   C3A63341  43.410   0.834   7.084
 4818POPC   C4A63342  43.275   0.752   7.506
 4818POPC   C1B63343  42.969   0.288   6.263
 4818POPC   C2B63344  42.882   0.177   6.654
 4818POPC   C3B63345  43.077   0.142   7.009
 4818POPC   C4B63346  42.961   0.492   7.211
 4819POPC   NC363347  21.745  40.877   5.396
 4819POPC   PO463348  21.169  41.035   5.477
 4819POPC   GL163349  21.202  40.829   5.811
 4819POPC   GL263350  21.511  40.625   5.806
 4819POPC   C1A63351  21.312  40.891   6.223
 4819POPC   D2A63352  21.480  40.702   6.609
 4819POPC   C3A63353  21.318  40.882   6.971
 4819POPC   C4A63354  21.191  40.848   7.370
 4819POPC   C1B63355  21.792  40.741   6.172
 4819POPC   C2B63356  21.854  41.028   6.531
 4819POPC   C3B63357  21.757  41.142   6.931
 4819POPC   C4B63358  21.769  40.846   7.217
 4820POPC   NC363359   1.734  32.685   5.385
 4820POPC   PO463360   1.880  32.029   5.428
 4820POPC   GL163361   1.826  32.313   5.765
 4820POPC   GL263362   2.166  32.428   5.800
 4820POPC   C1A63363   1.655  32.312   6.193
 4820POPC   D2A63364   1.516  32.470   6.603
 4820POPC   C3A63365   1.714  32.332   6.993
 4820POPC   C4A63366   1.824  32.039   7.369
 4820POPC   C1B63367   2.162  32.189   6.185
 4820POPC   C2B63368   2.075  32.338   6.613
 4820POPC   C3B63369   2.214  32.323   7.040
 4820POPC   C4B63370   2.317  31.890   7.201
 4821POPC   NC363371   0.194   2.819   5.363
 4821POPC   PO463372   0.805   3.111   5.515
 4821POPC   GL163373   0.642   2.962   5.895
 4821POPC   GL263374   0.315   2.758   5.877
 4821POPC   C1A63375   0.549   3.046   6.321
 4821POPC   D2A63376   0.506   2.753   6.674
 4821POPC   C3A63377   0.507   2.824   7.122
 4821POPC   C4A63378   0.561   2.784   7.553
 4821POPC   C1B63379   0.106   2.774   6.305
 4821POPC   C2B63380   0.009   2.787   6.762
 4821POPC   C3B63381   0.135   2.451   7.004
 4821POPC   C4B63382   0.166   2.443   7.416
 4822POPC   NC363383  39.807  42.816   5.369
 4822POPC   PO463384  40.099  43.376   5.631
 4822POPC   GL163385  40.040  42.984   5.790
 4822POPC   GL263386  40.387  42.860   5.732
 4822POPC   C1A63387  39.797  42.978   6.164
 4822POPC   D2A63388  39.750  43.275   6.483
 4822POPC   C3A63389  39.646  43.049   6.838
 4822POPC   C4A63390  39.676  43.162   7.262
 4822POPC   C1B63391  40.319  42.919   6.213
 4822POPC   C2B63392  40.109  42.927   6.621
 4822POPC   C3B63393  40.101  43.235   6.965
 4822POPC   C4B63394  40.197  43.138   7.387
 4823POPC   NC363395  41.061  13.878   5.278
 4823POPC   PO463396  40.838  14.481   5.374
 4823POPC   GL163397  40.692  14.443   5.769
 4823POPC   GL263398  40.670  14.089   5.745
 4823POPC   C1A63399  40.624  14.674   6.167
 4823POPC   D2A63400  40.519  14.734   6.620
 4823POPC   C3A63401  40.847  14.686   6.931
 4823POPC   C4A63402  40.884  14.561   7.358
 4823POPC   C1B63403  40.655  14.149   6.198
 4823POPC   C2B63404  40.820  14.269   6.611
 4823POPC   C3B63405  40.825  14.053   7.007
 4823POPC   C4B63406  40.839  14.070   7.431
 4824POPC   NC363407  37.478  32.482   5.277
 4824POPC   PO463408  37.962  32.097   5.410
 4824POPC   GL163409  37.848  32.318   5.797
 4824POPC   GL263410  37.481  32.435   5.818
 4824POPC   C1A63411  37.718  32.189   6.221
 4824POPC   D2A63412  37.909  32.087   6.598
 4824POPC   C3A63413  37.985  32.359   6.936
 4824POPC   C4A63414  37.694  32.116   7.158
 4824POPC   C1B63415  37.724  32.693   6.125
 4824POPC   C2B63416  37.785  32.634   6.533
 4824POPC   C3B63417  37.496  32.466   6.821
 4824POPC   C4B63418  37.590  32.615   7.210
 4825POPC   NC363419  23.977  13.347   5.069
 4825POPC   PO463420  23.502  13.490   5.337
 4825POPC   GL163421  23.514  13.704   5.789
 4825POPC   GL263422  23.354  14.036   5.846
 4825POPC   C1A63423  23.723  13.673   6.226
 4825POPC   D2A63424  23.703  13.443   6.637
 4825POPC   C3A63425  23.747  13.654   7.049
 4825POPC   C4A63426  23.935  14.081   7.194
 4825POPC   C1B63427  23.517  14.138   6.260
 4825POPC   C2B63428  23.652  13.997   6.672
 4825POPC   C3B63429  23.437  14.050   7.082
 4825POPC   C4B63430  23.203  13.730   7.299
 4826POPC   NC363431  18.694  32.460   5.499
 4826POPC   PO463432  18.042  32.616   5.649
 4826POPC   GL163433  18.324  32.325   5.871
 4826POPC   GL263434  18.254  31.948   5.832
 4826POPC   C1A63435  18.227  32.245   6.312
 4826POPC   D2A63436  17.880  32.187   6.617
 4826POPC   C3A63437  17.950  32.394   7.026
 4826POPC   C4A63438  18.280  32.380   7.343
 4826POPC   C1B63439  18.512  31.844   6.195
 4826POPC   C2B63440  18.622  32.043   6.587
 4826POPC   C3B63441  18.616  32.096   7.023
 4826POPC   C4B63442  18.641  31.801   7.349
 4827POPC   NC363443  18.158  11.522   5.386
 4827POPC   PO463444  18.353  10.912   5.384
 4827POPC   GL163445  18.308  11.081   5.790
 4827POPC   GL263446  18.344  11.414   5.863
 4827POPC   C1A63447  18.230  10.952   6.190
 4827POPC   D2A63448  18.336  10.837   6.589
 4827POPC   C3A63449  18.452  11.208   6.777
 4827POPC   C4A63450  18.405  11.169   7.178
 4827POPC   C1B63451  18.157  11.501   6.242
 4827POPC   C2B63452  18.343  11.727   6.575
 4827POPC   C3B63453  18.420  11.745   7.003
 4827POPC   C4B63454  18.101  11.557   7.225
 4828POPC   NC363455  21.174   7.575   5.530
 4828POPC   PO463456  21.574   6.986   5.363
 4828POPC   GL163457  21.508   7.245   5.719
 4828POPC   GL263458  21.173   7.127   5.782
 4828POPC   C1A63459  21.436   7.460   6.142
 4828POPC   D2A63460  21.252   7.647   6.521
 4828POPC   C3A63461  21.400   7.488   6.909
 4828POPC   C4A63462  21.266   7.543   7.309
 4828POPC   C1B63463  21.212   6.993   6.187
 4828POPC   C2B63464  21.160   7.145   6.619
 4828POPC   C3B63465  21.114   7.083   7.070
 4828POPC   C4B63466  21.165   7.062   7.529
 4829POPC   NC363467  16.114  14.222   5.470
 4829POPC   PO463468  16.190  14.787   5.579
 4829POPC   GL163469  15.932  14.500   5.871
 4829POPC   GL263470  15.925  14.108   5.925
 4829POPC   C1A63471  15.755  14.437   6.284
 4829POPC   D2A63472  15.738  14.294   6.737
 4829POPC   C3A63473  15.927  14.537   7.087
 4829POPC   C4A63474  15.737  14.689   7.488
 4829POPC   C1B63475  16.235  14.257   6.246
 4829POPC   C2B63476  16.248  14.348   6.700
 4829POPC   C3B63477  16.321  14.204   7.134
 4829POPC   C4B63478  16.440  14.229   7.573
 4830POPC   NC363479  36.629   0.498   5.487
 4830POPC   PO463480  37.223   0.440   5.315
 4830POPC   GL163481  37.028   0.437   5.809
 4830POPC   GL263482  36.771   0.701   5.936
 4830POPC   C1A63483  37.077   0.526   6.298
 4830POPC   D2A63484  36.873   0.685   6.678
 4830POPC   C3A63485  37.105   0.648   7.052
 4830POPC   C4A63486  37.166   0.237   7.251
 4830POPC   C1B63487  36.555   0.395   6.214
 4830POPC   C2B63488  36.414   0.393   6.659
 4830POPC   C3B63489  36.683   0.295   7.011
 4830POPC   C4B63490  36.750   0.496   7.367
 4831POPC   NC363491  41.049  18.564   5.527
 4831POPC   PO463492  40.437  18.377   5.456
 4831POPC   GL163493  40.626  18.378   5.833
 4831POPC   GL263494  40.615  18.727   5.784
 4831POPC   C1A63495  40.654  18.079   6.203
 4831POPC   D2A63496  40.398  17.896   6.566
 4831POPC   C3A63497  40.594  18.030   6.961
 4831POPC   C4A63498  40.853  18.121   7.308
 4831POPC   C1B63499  40.648  18.703   6.227
 4831POPC   C2B63500  40.744  18.789   6.653
 4831POPC   C3B63501  40.801  18.551   7.041
 4831POPC   C4B63502  40.837  18.599   7.510
 4832POPC   NC363503  29.746  32.453   5.099
 4832POPC   PO463504  30.098  31.931   5.370
 4832POPC   GL163505  29.989  31.974   5.790
 4832POPC   GL263506  30.002  32.285   5.954
 4832POPC   C1A63507  29.953  31.849   6.216
 4832POPC   D2A63508  30.127  31.827   6.610
 4832POPC   C3A63509  29.922  31.976   6.964
 4832POPC   C4A63510  30.074  32.103   7.337
 4832POPC   C1B63511  30.138  32.373   6.309
 4832POPC   C2B63512  30.038  32.347   6.660
 4832POPC   C3B63513  30.130  32.508   7.007
 4832POPC   C4B63514  29.853  32.570   7.308
 4833POPC   NC363515   9.170  41.378   5.483
 4833POPC   PO463516   9.821  41.439   5.334
 4833POPC   GL163517   9.913  41.616   5.758
 4833POPC   GL263518   9.586  41.604   5.810
 4833POPC   C1A63519   9.911  41.578   6.249
 4833POPC   D2A63520   9.915  41.574   6.742
 4833POPC   C3A63521  10.004  41.403   7.207
 4833POPC   C4A63522  10.077  41.389   7.695
 4833POPC   C1B63523   9.405  41.638   6.231
 4833POPC   C2B63524   9.444  41.385   6.582
 4833POPC   C3B63525   9.505  41.426   6.998
 4833POPC   C4B63526   9.505  41.788   7.222
 4834POPC   NC363527  40.909  16.235   5.204
 4834POPC   PO463528  40.317  15.926   5.456
 4834POPC   GL163529  40.549  15.950   5.846
 4834POPC   GL263530  40.925  16.016   5.786
 4834POPC   C1A63531  40.488  15.718   6.238
 4834POPC   D2A63532  40.670  15.719   6.652
 4834POPC   C3A63533  40.438  15.635   7.022
 4834POPC   C4A63534  40.466  15.773   7.453
 4834POPC   C1B63535  40.865  16.073   6.248
 4834POPC   C2B63536  40.845  16.208   6.689
 4834POPC   C3B63537  40.763  16.028   7.090
 4834POPC   C4B63538  40.724  16.223   7.482
 4835POPC   NC363539  30.074  42.797   5.029
 4835POPC   PO463540  29.692  43.230   5.348
 4835POPC   GL163541  29.983  43.191   5.696
 4835POPC   GL263542  29.642  43.147   5.857
 4835POPC   C1A63543  30.046  43.076   6.139
 4835POPC   D2A63544  30.039  43.239   6.540
 4835POPC   C3A63545  30.008  42.954   6.884
 4835POPC   C4A63546  29.916  42.989   7.307
 4835POPC   C1B63547  29.694  43.443   6.174
 4835POPC   C2B63548  29.567  43.636   6.518
 4835POPC   C3B63549  29.653  43.467   6.901
 4835POPC   C4B63550  29.614  43.356   7.291
 4836POPC   NC363551  24.314  30.318   5.099
 4836POPC   PO463552  24.629  30.821   5.443
 4836POPC   GL163553  24.611  30.571   5.828
 4836POPC   GL263554  24.323  30.698   6.002
 4836POPC   C1A63555  24.744  30.476   6.240
 4836POPC   D2A63556  24.518  30.586   6.615
 4836POPC   C3A63557  24.680  30.487   7.019
 4836POPC   C4A63558  24.598  30.426   7.455
 4836POPC   C1B63559  24.526  30.978   6.198
 4836POPC   C2B63560  24.477  31.098   6.572
 4836POPC   C3B63561  24.714  31.006   6.893
 4836POPC   C4B63562  24.568  30.931   7.268
 4837POPC   NC363563  14.997  25.298   5.470
 4837POPC   PO463564  15.696  25.437   5.363
 4837POPC   GL163565  15.443  25.444   5.752
 4837POPC   GL263566  15.393  25.137   5.753
 4837POPC   C1A63567  15.154  25.373   6.153
 4837POPC   D2A63568  15.090  25.563   6.597
 4837POPC   C3A63569  14.967  25.316   6.976
 4837POPC   C4A63570  14.895  25.210   7.420
 4837POPC   C1B63571  15.519  25.008   6.163
 4837POPC   C2B63572  15.481  25.219   6.563
 4837POPC   C3B63573  15.434  25.082   6.986
 4837POPC   C4B63574  15.523  25.290   7.393
 4838POPC   NC363575  14.483   3.986   5.468
 4838POPC   PO463576  14.637   4.681   5.349
 4838POPC   GL163577  14.554   4.446   5.761
 4838POPC   GL263578  14.182   4.314   5.787
 4838POPC   C1A63579  14.657   4.346   6.214
 4838POPC   D2A63580  14.753   4.088   6.565
 4838POPC   C3A63581  14.556   4.268   6.925
 4838POPC   C4A63582  14.568   4.229   7.354
 4838POPC   C1B63583  14.123   4.235   6.254
 4838POPC   C2B63584  13.964   4.246   6.703
 4838POPC   C3B63585  14.109   4.056   7.124
 4838POPC   C4B63586  14.130   3.818   7.552
 4839POPC   NC363587  19.995  28.791   5.119
 4839POPC   PO463588  20.025  28.156   5.468
 4839POPC   GL163589  19.911  28.480   5.846
 4839POPC   GL263590  20.234  28.689   5.984
 4839POPC   C1A63591  19.681  28.480   6.270
 4839POPC   D2A63592  19.482  28.503   6.709
 4839POPC   C3A63593  19.719  28.477   7.108
 4839POPC   C4A63594  19.986  28.238   7.421
 4839POPC   C1B63595  20.240  28.261   6.163
 4839POPC   C2B63596  20.067  28.280   6.574
 4839POPC   C3B63597  20.080  28.677   6.811
 4839POPC   C4B63598  20.158  28.717   7.282
 4840POPC   NC363599  24.668  16.029   5.502
 4840POPC   PO463600  24.044  15.936   5.629
 4840POPC   GL163601  24.296  15.998   5.951
 4840POPC   GL263602  24.505  15.742   5.933
 4840POPC   C1A63603  24.421  15.978   6.401
 4840POPC   D2A63604  24.417  15.645   6.732
 4840POPC   C3A63605  24.372  15.823   7.127
 4840POPC   C4A63606  24.491  16.198   7.332
 4840POPC   C1B63607  24.844  16.005   6.133
 4840POPC   C2B63608  24.975  16.051   6.566
 4840POPC   C3B63609  24.825  16.021   6.983
 4840POPC   C4B63610  24.948  15.934   7.426
 4841POPC   NC363611   8.915   5.355   5.365
 4841POPC   PO463612   8.742   4.684   5.480
 4841POPC   GL163613   8.865   4.940   5.851
 4841POPC   GL263614   8.754   5.301   5.852
 4841POPC   C1A63615   9.029   5.152   6.253
 4841POPC   D2A63616   9.037   5.120   6.706
 4841POPC   C3A63617   9.318   5.275   7.025
 4841POPC   C4A63618   9.131   5.138   7.403
 4841POPC   C1B63619   8.511   5.352   6.246
 4841POPC   C2B63620   8.553   5.358   6.702
 4841POPC   C3B63621   8.826   5.438   7.066
 4841POPC   C4B63622   8.812   5.503   7.532
 4842POPC   NC363623  35.635  20.922   5.521
 4842POPC   PO463624  35.108  20.517   5.506
 4842POPC   GL163625  35.101  20.390   5.910
 4842POPC   GL263626  35.472  20.387   5.893
 4842POPC   C1A63627  35.196  20.213   6.290
 4842POPC   D2A63628  35.401  20.410   6.599
 4842POPC   C3A63629  35.142  20.408   6.939
 4842POPC   C4A63630  35.283  20.460   7.337
 4842POPC   C1B63631  35.383  20.750   6.170
 4842POPC   C2B63632  35.606  20.902   6.530
 4842POPC   C3B63633  35.576  20.746   6.953
 4842POPC   C4B63634  35.514  21.007   7.298
 4843POPC   NC363635   3.626  36.518   5.589
 4843POPC   PO463636   3.846  37.198   5.492
 4843POPC   GL163637   3.680  36.950   5.834
 4843POPC   GL263638   3.346  36.920   5.757
 4843POPC   C1A63639   3.688  36.666   6.235
 4843POPC   D2A63640   3.819  36.748   6.669
 4843POPC   C3A63641   3.791  36.797   7.125
 4843POPC   C4A63642   3.692  37.208   7.226
 4843POPC   C1B63643   3.351  37.056   6.193
 4843POPC   C2B63644   3.275  37.027   6.615
 4843POPC   C3B63645   3.318  36.927   7.012
 4843POPC   C4B63646   3.174  36.540   7.152
 4844POPC   NC363647  25.856   4.635   5.398
 4844POPC   PO463648  26.138   4.022   5.343
 4844POPC   GL163649  26.056   4.127   5.744
 4844POPC   GL263650  26.370   3.953   5.805
 4844POPC   C1A63651  26.055   4.319   6.154
 4844POPC   D2A63652  26.201   4.266   6.592
 4844POPC   C3A63653  26.167   4.581   6.932
 4844POPC   C4A63654  25.843   4.550   7.271
 4844POPC   C1B63655  26.287   3.844   6.207
 4844POPC   C2B63656  26.492   3.802   6.578
 4844POPC   C3B63657  26.252   3.872   6.930
 4844POPC   C4B63658  26.187   4.177   7.241
 4845POPC   NC363659  43.307  11.349   5.374
 4845POPC   PO463660  42.823  11.674   5.663
 4845POPC   GL163661  42.942  11.250   5.805
 4845POPC   GL263662  43.257  11.117   5.936
 4845POPC   C1A63663  42.853  11.180   6.237
 4845POPC   D2A63664  42.970  11.131   6.671
 4845POPC   C3A63665  42.774  11.372   6.998
 4845POPC   C4A63666  42.730  11.423   7.430
 4845POPC   C1B63667  43.221  10.825   6.297
 4845POPC   C2B63668  43.374  10.794   6.718
 4845POPC   C3B63669  43.261  10.914   7.076
 4845POPC   C4B63670  43.195  11.274   7.257
 4846POPC   NC363671  40.514   1.190   5.416
 4846POPC   PO463672  41.095   1.008   5.509
 4846POPC   GL163673  40.915   1.202   5.858
 4846POPC   GL263674  40.620   1.084   5.967
 4846POPC   C1A63675  40.997   1.290   6.267
 4846POPC   D2A63676  41.065   1.000   6.650
 4846POPC   C3A63677  40.747   1.058   6.955
 4846POPC   C4A63678  40.849   1.341   7.257
 4846POPC   C1B63679  40.569   1.092   6.451
 4846POPC   C2B63680  40.399   1.378   6.754
 4846POPC   C3B63681  40.333   1.378   7.187
 4846POPC   C4B63682  40.459   0.990   7.413
 4847POPC   NC363683  26.498  29.931   5.395
 4847POPC   PO463684  27.102  29.763   5.144
 4847POPC   GL163685  26.991  29.686   5.626
 4847POPC   GL263686  26.651  29.698   5.813
 4847POPC   C1A63687  27.080  29.743   6.107
 4847POPC   D2A63688  27.220  29.713   6.571
 4847POPC   C3A63689  26.931  29.938   6.868
 4847POPC   C4A63690  26.620  30.151   7.206
 4847POPC   C1B63691  26.635  30.072   6.103
 4847POPC   C2B63692  26.550  30.137   6.553
 4847POPC   C3B63693  26.434  29.831   6.878
 4847POPC   C4B63694  26.714  29.655   7.272
 4848POPC   NC363695  29.449   6.454   5.443
 4848POPC   PO463696  29.921   6.943   5.379
 4848POPC   GL163697  30.107   6.615   5.675
 4848POPC   GL263698  30.109   6.888   5.871
 4848POPC   C1A63699  30.110   6.320   6.089
 4848POPC   D2A63700  29.858   6.256   6.515
 4848POPC   C3A63701  30.059   6.207   6.922
 4848POPC   C4A63702  30.027   6.292   7.361
 4848POPC   C1B63703  29.995   6.777   6.292
 4848POPC   C2B63704  30.124   6.676   6.681
 4848POPC   C3B63705  29.966   6.728   7.077
 4848POPC   C4B63706  30.227   6.771   7.412
 4849POPC   NC363707  41.160  38.680   5.512
 4849POPC   PO463708  41.491  38.248   5.706
 4849POPC   GL163709  41.375  38.631   5.971
 4849POPC   GL263710  41.018  38.738   5.990
 4849POPC   C1A63711  41.402  38.704   6.421
 4849POPC   D2A63712  41.610  38.892   6.788
 4849POPC   C3A63713  41.371  38.667   7.078
 4849POPC   C4A63714  41.517  38.259   7.231
 4849POPC   C1B63715  41.031  38.366   6.238
 4849POPC   C2B63716  41.153  38.317   6.689
 4849POPC   C3B63717  41.028  38.274   7.101
 4849POPC   C4B63718  41.066  37.901   7.346
 4850POPC   NC363719  26.207  27.137   5.579
 4850POPC   PO463720  26.398  26.564   5.369
 4850POPC   GL163721  26.316  26.667   5.794
 4850POPC   GL263722  26.040  26.450   5.766
 4850POPC   C1A63723  26.218  26.829   6.222
 4850POPC   D2A63724  26.004  27.063   6.581
 4850POPC   C3A63725  26.223  26.892   6.923
 4850POPC   C4A63726  26.157  26.539   7.173
 4850POPC   C1B63727  25.835  26.505   6.153
 4850POPC   C2B63728  25.912  26.573   6.605
 4850POPC   C3B63729  25.733  26.792   6.992
 4850POPC   C4B63730  25.676  26.608   7.416
 4851POPC   NC363731  21.403  28.153   5.415
 4851POPC   PO463732  21.510  28.865   5.362
 4851POPC   GL163733  21.254  28.695   5.731
 4851POPC   GL263734  21.148  28.333   5.805
 4851POPC   C1A63735  21.254  28.632   6.195
 4851POPC   D2A63736  21.019  28.489   6.542
 4851POPC   C3A63737  21.246  28.387   6.917
 4851POPC   C4A63738  21.062  28.281   7.298
 4851POPC   C1B63739  21.319  28.106   6.140
 4851POPC   C2B63740  21.553  27.871   6.452
 4851POPC   C3B63741  21.618  27.994   6.871
 4851POPC   C4B63742  21.451  27.972   7.278
 4852POPC   NC363743  24.062  34.137   5.561
 4852POPC   PO463744  24.312  33.484   5.507
 4852POPC   GL163745  24.570  33.477   5.870
 4852POPC   GL263746  24.450  33.811   5.913
 4852POPC   C1A63747  24.675  33.612   6.323
 4852POPC   D2A63748  24.573  33.917   6.642
 4852POPC   C3A63749  24.627  33.797   7.074
 4852POPC   C4A63750  24.493  34.006   7.454
 4852POPC   C1B63751  24.189  33.559   6.173
 4852POPC   C2B63752  24.171  33.415   6.551
 4852POPC   C3B63753  24.162  33.690   6.879
 4852POPC   C4B63754  24.141  33.656   7.311
 4853POPC   NC363755  32.283  30.235   5.549
 4853POPC   PO463756  32.218  29.597   5.422
 4853POPC   GL163757  32.245  29.784   5.831
 4853POPC   GL263758  32.557  29.627   5.938
 4853POPC   C1A63759  32.133  30.002   6.243
 4853POPC   D2A63760  31.823  30.232   6.504
 4853POPC   C3A63761  31.869  30.040   6.917
 4853POPC   C4A63762  32.162  30.192   7.215
 4853POPC   C1B63763  32.500  29.678   6.407
 4853POPC   C2B63764  32.475  29.986   6.795
 4853POPC   C3B63765  32.614  29.907   7.228
 4853POPC   C4B63766  32.534  29.520   7.562
 4854POPC   NC363767  27.748  20.488   5.111
 4854POPC   PO463768  27.468  21.097   5.224
 4854POPC   GL163769  27.584  20.828   5.610
 4854POPC   GL263770  27.452  20.480   5.740
 4854POPC   C1A63771  27.724  20.831   6.054
 4854POPC   D2A63772  27.670  20.666   6.495
 4854POPC   C3A63773  27.538  20.817   6.934
 4854POPC   C4A63774  27.796  20.754   7.333
 4854POPC   C1B63775  27.284  20.621   6.174
 4854POPC   C2B63776  27.194  20.482   6.589
 4854POPC   C3B63777  27.401  20.332   6.919
 4854POPC   C4B63778  27.391  20.457   7.284
 4855POPC   NC363779  37.704  16.093   5.320
 4855POPC   PO463780  37.642  15.532   5.666
 4855POPC   GL163781  37.949  15.815   5.838
 4855POPC   GL263782  37.939  16.173   5.772
 4855POPC   C1A63783  37.955  15.988   6.255
 4855POPC   D2A63784  37.628  15.874   6.540
 4855POPC   C3A63785  37.786  15.691   6.899
 4855POPC   C4A63786  37.715  15.951   7.217
 4855POPC   C1B63787  37.595  16.392   6.030
 4855POPC   C2B63788  37.322  16.271   6.375
 4855POPC   C3B63789  37.370  16.280   6.808
 4855POPC   C4B63790  37.691  16.436   7.076
 4856POPC   NC363791  17.783  37.358   5.088
 4856POPC   PO463792  18.398  37.388   5.401
 4856POPC   GL163793  18.383  37.457   5.890
 4856POPC   GL263794  18.160  37.715   6.079
 4856POPC   C1A63795  18.351  37.353   6.366
 4856POPC   D2A63796  17.971  37.496   6.638
 4856POPC   C3A63797  18.135  37.679   7.060
 4856POPC   C4A63798  17.967  37.862   7.465
 4856POPC   C1B63799  18.320  37.824   6.544
 4856POPC   C2B63800  18.288  38.155   6.826
 4856POPC   C3B63801  18.358  38.135   7.256
 4856POPC   C4B63802  18.758  38.063   7.419
 4857POPC   NC363803  40.157  38.004   5.449
 4857POPC   PO463804  39.946  37.351   5.493
 4857POPC   GL163805  40.040  37.582   5.880
 4857POPC   GL263806  39.884  37.930   5.877
 4857POPC   C1A63807  39.981  37.487   6.338
 4857POPC   D2A63808  39.656  37.483   6.680
 4857POPC   C3A63809  39.902  37.579   7.029
 4857POPC   C4A63810  40.359  37.609   7.054
 4857POPC   C1B63811  40.135  37.985   6.251
 4857POPC   C2B63812  40.141  38.145   6.698
 4857POPC   C3B63813  40.078  38.045   7.135
 4857POPC   C4B63814  39.825  37.882   7.440
 4858POPC   NC363815   4.740  43.990   5.095
 4858POPC   PO463816   4.236  43.674   5.434
 4858POPC   GL163817   4.334  43.749   5.838
 4858POPC   GL263818   4.103  43.572   5.948
 4858POPC   C1A63819   4.332  43.863   6.287
 4858POPC   D2A63820   4.376  44.073   6.629
 4858POPC   C3A63821   4.589  43.928   6.953
 4858POPC   C4A63822   4.335  43.970   7.298
 4858POPC   C1B63823   3.891  43.594   6.300
 4858POPC   C2B63824   4.054  43.620   6.710
 4858POPC   C3B63825   4.032  43.570   7.153
 4858POPC   C4B63826   3.887  43.328   7.466
 4859POPC   NC363827  13.028  28.815   5.466
 4859POPC   PO463828  12.500  29.208   5.484
 4859POPC   GL163829  12.814  29.149   5.816
 4859POPC   GL263830  12.672  28.832   5.861
 4859POPC   C1A63831  13.003  29.008   6.234
 4859POPC   D2A63832  13.172  29.193   6.617
 4859POPC   C3A63833  13.048  29.136   7.039
 4859POPC   C4A63834  13.264  29.433   7.296
 4859POPC   C1B63835  12.512  29.077   6.238
 4859POPC   C2B63836  12.666  29.118   6.665
 4859POPC   C3B63837  12.446  29.087   7.039
 4859POPC   C4B63838  12.524  28.997   7.451
 4860POPC   NC363839  11.637   7.984   5.503
 4860POPC   PO463840  10.958   8.144   5.255
 4860POPC   GL163841  11.179   8.056   5.712
 4860POPC   GL263842  11.388   8.314   5.911
 4860POPC   C1A63843  11.272   7.918   6.179
 4860POPC   D2A63844  11.382   8.186   6.559
 4860POPC   C3A63845  11.278   8.009   6.994
 4860POPC   C4A63846  11.341   8.000   7.463
 4860POPC   C1B63847  11.695   8.488   6.247
 4860POPC   C2B63848  11.926   8.611   6.636
 4860POPC   C3B63849  11.840   8.545   7.099
 4860POPC   C4B63850  11.748   8.290   7.538
 4861POPC   NC363851  34.192  34.444   5.457
 4861POPC   PO463852  33.548  34.649   5.370
 4861POPC   GL163853  33.780  34.515   5.762
 4861POPC   GL263854  33.860  34.792   5.956
 4861POPC   C1A63855  33.973  34.357   6.186
 4861POPC   D2A63856  34.025  34.180   6.625
 4861POPC   C3A63857  33.903  34.474   6.959
 4861POPC   C4A63858  33.842  34.619   7.362
 4861POPC   C1B63859  33.719  34.903   6.370
 4861POPC   C2B63860  33.631  34.900   6.808
 4861POPC   C3B63861  33.461  34.882   7.192
 4861POPC   C4B63862  33.420  34.740   7.622
 4862POPC   NC363863  35.127  28.139   5.151
 4862POPC   PO463864  35.635  28.533   5.379
 4862POPC   GL163865  35.290  28.494   5.678
 4862POPC   GL263866  35.156  28.135   5.690
 4862POPC   C1A63867  35.002  28.539   6.041
 4862POPC   D2A63868  35.107  28.443   6.468
 4862POPC   C3A63869  35.078  28.727   6.796
 4862POPC   C4A63870  35.172  28.573   7.208
 4862POPC   C1B63871  35.363  28.160   6.107
 4862POPC   C2B63872  35.487  28.110   6.557
 4862POPC   C3B63873  35.332  28.115   7.002
 4862POPC   C4B63874  35.495  28.002   7.418
 4863POPC   NC363875  25.430   3.152   5.464
 4863POPC   PO463876  24.987   2.723   5.267
 4863POPC   GL163877  25.194   2.753   5.702
 4863POPC   GL263878  25.568   2.660   5.697
 4863POPC   C1A63879  25.054   2.924   6.126
 4863POPC   D2A63880  24.935   2.922   6.570
 4863POPC   C3A63881  25.203   3.080   6.909
 4863POPC   C4A63882  25.100   2.997   7.352
 4863POPC   C1B63883  25.550   2.790   6.132
 4863POPC   C2B63884  25.390   2.712   6.529
 4863POPC   C3B63885  25.278   2.545   6.903
 4863POPC   C4B63886  25.504   2.723   7.222
 4864POPC   NC363887  10.079   5.979   5.339
 4864POPC   PO463888  10.654   5.640   5.125
 4864POPC   GL163889  10.459   5.703   5.598
 4864POPC   GL263890  10.715   5.806   5.815
 4864POPC   C1A63891  10.294   5.585   6.072
 4864POPC   D2A63892  10.340   5.456   6.524
 4864POPC   C3A63893  10.306   5.666   6.937
 4864POPC   C4A63894  10.131   5.605   7.342
 4864POPC   C1B63895  10.748   5.715   6.240
 4864POPC   C2B63896  10.698   5.826   6.631
 4864POPC   C3B63897  10.892   5.798   7.035
 4864POPC   C4B63898  10.598   5.809   7.351
 4865POPC   NC363899  13.077  37.121   5.310
 4865POPC   PO463900  12.381  37.097   5.236
 4865POPC   GL163901  12.646  36.972   5.548
 4865POPC   GL263902  12.624  37.299   5.670
 4865POPC   C1A63903  12.775  36.932   5.995
 4865POPC   D2A63904  12.689  36.721   6.411
 4865POPC   C3A63905  12.857  36.930   6.798
 4865POPC   C4A63906  13.132  36.882   7.166
 4865POPC   C1B63907  12.472  37.317   6.091
 4865POPC   C2B63908  12.564  37.251   6.517
 4865POPC   C3B63909  12.496  37.293   6.952
 4865POPC   C4B63910  12.702  37.133   7.270
 4866POPC   NC363911  36.056  19.366   5.177
 4866POPC   PO463912  36.093  18.882   5.679
 4866POPC   GL163913  36.199  19.091   6.020
 4866POPC   GL263914  35.851  19.238   6.128
 4866POPC   C1A63915  36.392  18.895   6.377
 4866POPC   D2A63916  36.522  18.956   6.798
 4866POPC   C3A63917  36.284  18.836   7.126
 4866POPC   C4A63918  36.076  18.873   7.485
 4866POPC   C1B63919  35.860  18.903   6.347
 4866POPC   C2B63920  35.947  18.903   6.745
 4866POPC   C3B63921  35.791  19.070   7.121
 4866POPC   C4B63922  35.932  19.384   7.377
 4867POPC   NC363923  30.299   0.312   5.116
 4867POPC   PO463924  30.616  44.679   5.104
 4867POPC   GL163925  30.801  44.721   5.625
 4867POPC   GL263926  30.482  44.709   5.808
 4867POPC   C1A63927  30.861  44.620   6.140
 4867POPC   D2A63928  31.140  44.487   6.539
 4867POPC   C3A63929  30.923  44.311   6.956
 4867POPC   C4A63930  30.542  44.355   7.237
 4867POPC   C1B63931  30.338  44.640   6.247
 4867POPC   C2B63932  30.422  44.731   6.702
 4867POPC   C3B63933  30.719  44.810   7.061
 4867POPC   C4B63934  30.621  44.873   7.533
 4868POPC   NC363935  25.785  31.954   5.465
 4868POPC   PO463936  26.265  32.394   5.342
 4868POPC   GL163937  26.123  32.237   5.765
 4868POPC   GL263938  26.314  31.965   5.862
 4868POPC   C1A63939  25.891  32.400   6.154
 4868POPC   D2A63940  25.599  32.550   6.518
 4868POPC   C3A63941  25.753  32.442   6.947
 4868POPC   C4A63942  25.652  32.176   7.307
 4868POPC   C1B63943  26.402  32.216   6.241
 4868POPC   C2B63944  26.130  32.265   6.610
 4868POPC   C3B63945  25.933  31.977   6.910
 4868POPC   C4B63946  26.120  32.136   7.283
 4869POPC   NC363947   1.144   8.646   5.475
 4869POPC   PO463948   0.852   9.241   5.431
 4869POPC   GL163949   1.101   9.056   5.797
 4869POPC   GL263950   1.394   9.253   5.884
 4869POPC   C1A63951   1.207   8.849   6.240
 4869POPC   D2A63952   1.078   8.661   6.671
 4869POPC   C3A63953   1.277   8.794   7.107
 4869POPC   C4A63954   1.133   9.139   7.355
 4869POPC   C1B63955   1.485   9.254   6.327
 4869POPC   C2B63956   1.356   9.134   6.737
 4869POPC   C3B63957   1.556   9.297   7.117
 4869POPC   C4B63958   1.620   9.151   7.566
 4870POPC   NC363959  33.401  35.341   5.188
 4870POPC   PO463960  32.773  35.282   5.255
 4870POPC   GL163961  32.754  35.216   5.717
 4870POPC   GL263962  32.571  35.517   5.807
 4870POPC   C1A63963  32.995  35.356   6.113
 4870POPC   D2A63964  33.061  35.487   6.554
 4870POPC   C3A63965  33.148  35.187   6.870
 4870POPC   C4A63966  33.035  35.133   7.284
 4870POPC   C1B63967  32.641  35.709   6.221
 4870POPC   C2B63968  32.550  35.545   6.598
 4870POPC   C3B63969  32.675  35.679   6.982
 4870POPC   C4B63970  33.088  35.632   7.160
 4871POPC   NC363971  31.411   1.774   5.410
 4871POPC   PO463972  31.505   2.401   5.580
 4871POPC   GL163973  31.363   2.053   5.840
 4871POPC   GL263974  31.698   1.831   5.833
 4871POPC   C1A63975  31.162   2.017   6.253
 4871POPC   D2A63976  31.149   2.249   6.661
 4871POPC   C3A63977  31.175   1.995   7.052
 4871POPC   C4A63978  31.088   2.111   7.497
 4871POPC   C1B63979  31.684   2.045   6.227
 4871POPC   C2B63980  31.538   1.896   6.628
 4871POPC   C3B63981  31.681   1.741   7.010
 4871POPC   C4B63982  31.643   2.019   7.316
 4872POPC   NC363983  28.053  27.737   5.353
 4872POPC   PO463984  28.387  27.202   5.401
 4872POPC   GL163985  28.273  27.492   5.759
 4872POPC   GL263986  28.415  27.859   5.709
 4872POPC   C1A63987  28.283  27.398   6.227
 4872POPC   D2A63988  28.054  27.312   6.668
 4872POPC   C3A63989  28.282  27.360   7.085
 4872POPC   C4A63990  28.569  27.715   7.207
 4872POPC   C1B63991  28.133  27.893   6.065
 4872POPC   C2B63992  28.178  27.808   6.503
 4872POPC   C3B63993  28.046  27.787   6.932
 4872POPC   C4B63994  28.167  28.037   7.275
 4873POPC   NC363995  13.423  19.244   5.006
 4873POPC   PO463996  13.342  18.656   5.404
 4873POPC   GL163997  13.427  19.028   5.704
 4873POPC   GL263998  13.798  19.108   5.704
 4873POPC   C1A63999  13.506  19.079   6.164
 4873POPC   D2A64000  13.694  18.854   6.514
 4873POPC   C3A64001  13.427  18.752   6.861
 4873POPC   C4A64002  13.364  18.977   7.235
 4873POPC   C1B64003  14.010  19.092   6.108
 4873POPC   C2B64004  13.927  19.315   6.503
 4873POPC   C3B64005  13.762  19.198   6.921
 4873POPC   C4B64006  13.809  19.455   7.269
 4874POPC   NC364007  19.108   8.563   5.474
 4874POPC   PO464008  19.163   7.945   5.397
 4874POPC   GL164009  19.101   8.141   5.782
 4874POPC   GL264010  19.429   8.310   5.809
 4874POPC   C1A64011  18.939   8.313   6.196
 4874POPC   D2A64012  19.101   8.416   6.611
 4874POPC   C3A64013  18.934   8.209   7.006
 4874POPC   C4A64014  18.702   8.400   7.314
 4874POPC   C1B64015  19.451   8.094   6.207
 4874POPC   C2B64016  19.612   8.243   6.611
 4874POPC   C3B64017  19.432   8.338   7.005
 4874POPC   C4B64018  19.329   7.997   7.314
 4875POPC   NC364019  33.131  13.034   5.379
 4875POPC   PO464020  33.024  12.411   5.511
 4875POPC   GL164021  33.039  12.720   5.803
 4875POPC   GL264022  33.377  12.837   5.779
 4875POPC   C1A64023  32.786  12.727   6.185
 4875POPC   D2A64024  32.728  12.492   6.596
 4875POPC   C3A64025  32.657  12.755   6.951
 4875POPC   C4A64026  32.868  12.739   7.328
 4875POPC   C1B64027  33.234  13.030   6.168
 4875POPC   C2B64028  33.149  12.800   6.541
 4875POPC   C3B64029  33.222  12.741   6.961
 4875POPC   C4B64030  33.243  13.090   7.226
 4876POPC   NC364031   9.575   7.920   5.605
 4876POPC   PO464032   9.794   8.436   5.207
 4876POPC   GL164033   9.613   8.469   5.635
 4876POPC   GL264034   9.894   8.313   5.803
 4876POPC   C1A64035   9.457   8.406   6.090
 4876POPC   D2A64036   9.458   8.221   6.511
 4876POPC   C3A64037   9.689   8.371   6.870
 4876POPC   C4A64038   9.477   8.190   7.198
 4876POPC   C1B64039   9.921   8.221   6.261
 4876POPC   C2B64040   9.893   7.949   6.600
 4876POPC   C3B64041  10.055   7.817   6.944
 4876POPC   C4B64042  10.292   8.101   7.194
 4877POPC   NC364043   6.366  32.264   5.546
 4877POPC   PO464044   5.740  32.474   5.378
 4877POPC   GL164045   5.725  32.421   5.844
 4877POPC   GL264046   5.987  32.190   5.940
 4877POPC   C1A64047   5.705  32.419   6.314
 4877POPC   D2A64048   5.975  32.243   6.666
 4877POPC   C3A64049   5.906  32.320   7.137
 4877POPC   C4A64050   5.975  31.959   7.392
 4877POPC   C1B64051   5.603  31.962   6.139
 4877POPC   C2B64052   5.509  32.034   6.580
 4877POPC   C3B64053   5.592  31.960   7.018
 4877POPC   C4B64054   5.460  31.755   7.388
 4878POPC   NC364055  43.177  23.320   5.356
 4878POPC   PO464056  43.581  22.775   5.251
 4878POPC   GL164057  43.373  22.913   5.684
 4878POPC   GL264058  43.027  23.001   5.733
 4878POPC   C1A64059  43.301  23.097   6.144
 4878POPC   D2A64060  43.038  23.068   6.539
 4878POPC   C3A64061  43.266  23.027   6.966
 4878POPC   C4A64062  43.574  23.051   7.312
 4878POPC   C1B64063  43.057  22.628   5.971
 4878POPC   C2B64064  42.958  22.525   6.393
 4878POPC   C3B64065  42.938  22.653   6.826
 4878POPC   C4B64066  42.717  22.554   7.207
 4879POPC   NC364067  39.783   2.939   5.299
 4879POPC   PO464068  40.115   2.350   5.500
 4879POPC   GL164069  39.882   2.638   5.808
 4879POPC   GL264070  39.992   2.989   5.795
 4879POPC   C1A64071  39.705   2.604   6.274
 4879POPC   D2A64072  39.761   2.397   6.709
 4879POPC   C3A64073  40.119   2.511   7.027
 4879POPC   C4A64074  40.172   2.748   7.435
 4879POPC   C1B64075  40.065   2.947   6.202
 4879POPC   C2B64076  40.126   2.794   6.597
 4879POPC   C3B64077  40.009   3.011   6.955
 4879POPC   C4B64078  40.181   3.243   7.283
 4880POPC   NC364079  19.192  12.856   5.422
 4880POPC   PO464080  19.388  12.225   5.456
 4880POPC   GL164081  19.097  12.491   5.783
 4880POPC   GL264082  19.243  12.805   5.920
 4880POPC   C1A64083  18.881  12.604   6.205
 4880POPC   D2A64084  18.995  12.904   6.540
 4880POPC   C3A64085  19.005  12.831   6.980
 4880POPC   C4A64086  19.043  12.926   7.433
 4880POPC   C1B64087  19.401  12.668   6.316
 4880POPC   C2B64088  19.456  12.710   6.761
 4880POPC   C3B64089  19.483  13.020   7.097
 4880POPC   C4B64090  19.523  13.075   7.542
 4881POPC   NC364091   7.615   8.447   5.339
 4881POPC   PO464092   7.272   7.942   5.465
 4881POPC   GL164093   7.434   8.258   5.775
 4881POPC   GL264094   7.161   8.475   5.937
 4881POPC   C1A64095   7.510   8.219   6.196
 4881POPC   D2A64096   7.142   8.266   6.423
 4881POPC   C3A64097   7.220   8.307   6.841
 4881POPC   C4A64098   7.480   8.163   7.169
 4881POPC   C1B64099   7.499   8.728   6.136
 4881POPC   C2B64100   7.665   8.795   6.545
 4881POPC   C3B64101   7.715   8.556   6.931
 4881POPC   C4B64102   7.744   8.661   7.357
 4882POPC   NC364103   6.358   3.157   5.376
 4882POPC   PO464104   6.926   2.807   5.451
 4882POPC   GL164105   6.711   2.826   5.854
 4882POPC   GL264106   6.375   2.781   5.753
 4882POPC   C1A64107   6.761   2.663   6.295
 4882POPC   D2A64108   6.963   2.560   6.690
 4882POPC   C3A64109   6.864   2.846   7.043
 4882POPC   C4A64110   6.594   2.817   7.381
 4882POPC   C1B64111   6.272   2.579   6.141
 4882POPC   C2B64112   6.172   2.516   6.571
 4882POPC   C3B64113   6.290   2.619   6.991
 4882POPC   C4B64114   6.132   2.579   7.388
 4883POPC   NC364115  14.546  32.047   5.475
 4883POPC   PO464116  13.935  32.256   5.292
 4883POPC   GL164117  14.230  32.312   5.753
 4883POPC   GL264118  14.383  32.002   5.955
 4883POPC   C1A64119  14.493  32.480   6.082
 4883POPC   D2A64120  14.419  32.652   6.473
 4883POPC   C3A64121  14.486  32.328   6.817
 4883POPC   C4A64122  14.190  32.210   7.134
 4883POPC   C1B64123  14.514  31.924   6.369
 4883POPC   C2B64124  14.762  31.888   6.734
 4883POPC   C3B64125  14.536  31.839   7.100
 4883POPC   C4B64126  14.535  32.047   7.492
 4884POPC   NC364127  30.811  15.811   5.506
 4884POPC   PO464128  30.349  16.305   5.526
 4884POPC   GL164129  30.627  16.148   5.847
 4884POPC   GL264130  31.026  16.110   5.871
 4884POPC   C1A64131  30.670  16.019   6.276
 4884POPC   D2A64132  30.880  15.796   6.620
 4884POPC   C3A64133  30.751  15.969   7.015
 4884POPC   C4A64134  30.683  16.164   7.427
 4884POPC   C1B64135  31.149  16.252   6.298
 4884POPC   C2B64136  31.087  16.278   6.757
 4884POPC   C3B64137  31.114  16.321   7.218
 4884POPC   C4B64138  31.002  16.493   7.661
 4885POPC   NC364139  36.408   6.664   5.369
 4885POPC   PO464140  36.014   7.010   5.550
 4885POPC   GL164141  36.184   6.949   5.918
 4885POPC   GL264142  36.376   6.653   5.886
 4885POPC   C1A64143  36.014   6.700   6.250
 4885POPC   D2A64144  36.151   6.529   6.644
 4885POPC   C3A64145  35.912   6.665   6.999
 4885POPC   C4A64146  35.922   6.491   7.372
 4885POPC   C1B64147  36.634   6.876   6.183
 4885POPC   C2B64148  36.522   7.047   6.573
 4885POPC   C3B64149  36.333   6.932   6.930
 4885POPC   C4B64150  36.429   6.527   7.123
 4886POPC   NC364151  40.454   0.137   5.530
 4886POPC   PO464152  41.144   0.203   5.553
 4886POPC   GL164153  40.952   0.575   5.799
 4886POPC   GL264154  40.577   0.564   5.847
 4886POPC   C1A64155  40.933   0.756   6.207
 4886POPC   D2A64156  40.717   0.630   6.579
 4886POPC   C3A64157  40.864   0.560   6.956
 4886POPC   C4A64158  40.813   0.626   7.391
 4886POPC   C1B64159  40.651   0.272   6.228
 4886POPC   C2B64160  40.548   0.140   6.700
 4886POPC   C3B64161  40.331  44.931   7.083
 4886POPC   C4B64162  40.411   0.005   7.540
 4887POPC   NC364163  21.443  32.509   5.403
 4887POPC   PO464164  21.641  31.888   5.330
 4887POPC   GL164165  21.707  32.165   5.684
 4887POPC   GL264166  21.915  31.961   5.819
 4887POPC   C1A64167  21.566  32.438   6.050
 4887POPC   D2A64168  21.420  32.411   6.492
 4887POPC   C3A64169  21.644  32.427   6.910
 4887POPC   C4A64170  21.340  32.453   7.277
 4887POPC   C1B64171  21.759  32.015   6.263
 4887POPC   C2B64172  21.577  31.946   6.700
 4887POPC   C3B64173  21.547  32.004   7.186
 4887POPC   C4B64174  21.243  32.019   7.552
 4888POPC   NC364175  25.931  44.522   5.184
 4888POPC   PO464176  26.345  44.832   5.607
 4888POPC   GL164177  26.098  44.683   5.918
 4888POPC   GL264178  25.826  44.949   5.893
 4888POPC   C1A64179  26.279  44.598   6.330
 4888POPC   D2A64180  26.376  44.842   6.704
 4888POPC   C3A64181  26.334  44.571   7.035
 4888POPC   C4A64182  25.952  44.436   7.051
 4888POPC   C1B64183  26.026   0.080   6.305
 4888POPC   C2B64184  25.958   0.183   6.751
 4888POPC   C3B64185  25.958  44.943   7.091
 4888POPC   C4B64186  26.073  44.999   7.496
 4889POPC   NC364187  35.927  32.653   5.339
 4889POPC   PO464188  36.179  32.048   5.295
 4889POPC   GL164189  36.131  32.305   5.691
 4889POPC   GL264190  36.440  32.395   5.882
 4889POPC   C1A64191  35.983  32.359   6.117
 4889POPC   D2A64192  35.713  32.223   6.419
 4889POPC   C3A64193  35.725  32.366   6.857
 4889POPC   C4A64194  35.752  32.143   7.226
 4889POPC   C1B64195  36.451  32.374   6.346
 4889POPC   C2B64196  36.252  32.295   6.756
 4889POPC   C3B64197  36.242  32.351   7.221
 4889POPC   C4B64198  36.430  32.422   7.632
 4890POPC   NC364199  11.899  21.069   5.477
 4890POPC   PO464200  12.269  20.474   5.417
 4890POPC   GL164201  12.198  20.724   5.792
 4890POPC   GL264202  12.488  20.921   5.828
 4890POPC   C1A64203  11.966  20.711   6.221
 4890POPC   D2A64204  11.906  20.840   6.687
 4890POPC   C3A64205  11.784  20.527   6.989
 4890POPC   C4A64206  12.005  20.337   7.309
 4890POPC   C1B64207  12.451  20.891   6.278
 4890POPC   C2B64208  12.346  20.573   6.584
 4890POPC   C3B64209  12.288  20.627   7.004
 4890POPC   C4B64210  12.477  20.870   7.311
 4891POPC   NC364211  24.253  26.482   5.476
 4891POPC   PO464212  24.165  25.859   5.513
 4891POPC   GL164213  24.384  26.105   5.838
 4891POPC   GL264214  24.171  26.363   5.982
 4891POPC   C1A64215  24.567  26.156   6.253
 4891POPC   D2A64216  24.640  26.019   6.657
 4891POPC   C3A64217  24.521  26.144   7.074
 4891POPC   C4A64218  24.686  25.832   7.296
 4891POPC   C1B64219  24.087  26.044   6.329
 4891POPC   C2B64220  24.126  26.026   6.791
 4891POPC   C3B64221  24.035  26.063   7.259
 4891POPC   C4B64222  23.926  25.991   7.711
 4892POPC   NC364223  10.088  19.699   5.416
 4892POPC   PO464224  10.709  20.040   5.358
 4892POPC   GL164225  10.604  19.779   5.731
 4892POPC   GL264226  10.853  19.556   5.913
 4892POPC   C1A64227  10.616  19.918   6.159
 4892POPC   D2A64228  10.775  20.082   6.517
 4892POPC   C3A64229  10.537  19.916   6.839
 4892POPC   C4A64230  10.495  20.014   7.245
 4892POPC   C1B64231  10.989  19.641   6.369
 4892POPC   C2B64232  10.748  19.447   6.726
 4892POPC   C3B64233  10.600  19.480   7.164
 4892POPC   C4B64234  10.160  19.597   7.259
 4893POPC   NC364235  13.702   8.048   5.128
 4893POPC   PO464236  13.280   8.337   5.448
 4893POPC   GL164237  13.435   8.245   5.819
 4893POPC   GL264238  13.751   8.120   5.725
 4893POPC   C1A64239  13.512   8.381   6.231
 4893POPC   D2A64240  13.391   8.187   6.604
 4893POPC   C3A64241  13.413   8.430   6.950
 4893POPC   C4A64242  13.650   8.399   7.304
 4893POPC   C1B64243  13.723   7.920   6.139
 4893POPC   C2B64244  13.770   7.836   6.568
 4893POPC   C3B64245  13.783   7.987   6.988
 4893POPC   C4B64246  13.954   7.696   7.326
 4894POPC   NC364247  22.596   8.500   5.272
 4894POPC   PO464248  22.173   8.959   5.364
 4894POPC   GL164249  22.093   9.038   5.860
 4894POPC   GL264250  22.248   8.759   6.037
 4894POPC   C1A64251  21.864   9.027   6.274
 4894POPC   D2A64252  21.989   9.144   6.689
 4894POPC   C3A64253  22.082   8.813   6.950
 4894POPC   C4A64254  22.347   8.835   7.298
 4894POPC   C1B64255  22.396   9.082   6.361
 4894POPC   C2B64256  22.558   9.277   6.773
 4894POPC   C3B64257  22.657   9.238   7.244
 4894POPC   C4B64258  22.889   9.303   7.644
 4895POPC   NC364259  32.023   5.104   5.305
 4895POPC   PO464260  32.588   4.730   5.286
 4895POPC   GL164261  32.528   5.040   5.648
 4895POPC   GL264262  32.194   5.131   5.776
 4895POPC   C1A64263  32.542   5.150   6.130
 4895POPC   D2A64264  32.289   5.125   6.492
 4895POPC   C3A64265  32.510   5.084   6.869
 4895POPC   C4A64266  32.319   5.167   7.246
 4895POPC   C1B64267  31.997   4.883   6.113
 4895POPC   C2B64268  32.080   4.661   6.520
 4895POPC   C3B64269  32.061   4.836   6.934
 4895POPC   C4B64270  31.922   4.792   7.362
 4896POPC   NC364271  18.029  30.616   5.304
 4896POPC   PO464272  18.554  30.353   5.587
 4896POPC   GL164273  18.150  30.502   5.807
 4896POPC   GL264274  18.082  30.890   5.787
 4896POPC   C1A64275  17.986  30.453   6.247
 4896POPC   D2A64276  18.054  30.662   6.636
 4896POPC   C3A64277  18.313  30.491   6.960
 4896POPC   C4A64278  18.225  30.470   7.408
 4896POPC   C1B64279  18.342  30.854   6.176
 4896POPC   C2B64280  18.502  30.951   6.588
 4896POPC   C3B64281  18.352  30.989   7.000
 4896POPC   C4B64282  18.593  30.802   7.328
 4897POPC   NC364283  14.843  23.123   5.032
 4897POPC   PO464284  15.340  23.207   5.445
 4897POPC   GL164285  15.115  23.053   5.824
 4897POPC   GL264286  15.010  22.723   5.889
 4897POPC   C1A64287  15.113  23.275   6.210
 4897POPC   D2A64288  15.371  23.226   6.567
 4897POPC   C3A64289  15.136  23.220   6.935
 4897POPC   C4A64290  15.096  23.079   7.337
 4897POPC   C1B64291  15.282  22.804   6.232
 4897POPC   C2B64292  15.110  22.788   6.635
 4897POPC   C3B64293  15.308  22.738   7.028
 4897POPC   C4B64294  15.483  22.782   7.440
 4898POPC   NC364295   5.546  16.607   5.446
 4898POPC   PO464296   6.180  16.991   5.429
 4898POPC   GL164297   5.922  16.816   5.734
 4898POPC   GL264298   5.607  17.015   5.784
 4898POPC   C1A64299   5.927  16.759   6.159
 4898POPC   D2A64300   5.798  16.818   6.578
 4898POPC   C3A64301   6.060  16.745   6.974
 4898POPC   C4A64302   5.855  16.736   7.382
 4898POPC   C1B64303   5.652  17.200   6.198
 4898POPC   C2B64304   5.511  17.277   6.616
 4898POPC   C3B64305   5.717  17.128   6.975
 4898POPC   C4B64306   5.991  17.217   7.315
 4899POPC   NC364307  17.717  29.195   5.478
 4899POPC   PO464308  17.093  29.039   5.313
 4899POPC   GL164309  17.346  28.960   5.734
 4899POPC   GL264310  17.478  29.243   5.935
 4899POPC   C1A64311  17.514  28.806   6.164
 4899POPC   D2A64312  17.442  29.036   6.529
 4899POPC   C3A64313  17.627  28.943   6.921
 4899POPC   C4A64314  17.621  29.263   7.239
 4899POPC   C1B64315  17.250  29.449   6.258
 4899POPC   C2B64316  17.019  29.366   6.648
 4899POPC   C3B64317  17.127  29.452   7.087
 4899POPC   C4B64318  17.219  29.402   7.536
 4900POPC   NC364319  28.832   6.539   5.640
 4900POPC   PO464320  28.327   6.847   5.262
 4900POPC   GL164321  28.468   6.896   5.716
 4900POPC   GL264322  28.275   6.624   5.843
 4900POPC   C1A64323  28.565   6.788   6.211
 4900POPC   D2A64324  28.427   6.565   6.624
 4900POPC   C3A64325  28.586   6.670   7.050
 4900POPC   C4A64326  28.398   6.646   7.473
 4900POPC   C1B64327  28.136   6.406   6.207
 4900POPC   C2B64328  28.113   6.163   6.609
 4900POPC   C3B64329  28.119   6.346   7.028
 4900POPC   C4B64330  27.981   6.154   7.402
 4901POPC   NC364331  27.613   5.529   5.475
 4901POPC   PO464332  27.950   4.970   5.431
 4901POPC   GL164333  27.691   5.093   5.768
 4901POPC   GL264334  28.018   5.137   5.907
 4901POPC   C1A64335  27.383   5.057   6.120
 4901POPC   D2A64336  27.376   4.798   6.507
 4901POPC   C3A64337  27.294   4.996   6.902
 4901POPC   C4A64338  27.454   4.828   7.248
 4901POPC   C1B64339  27.792   5.384   6.189
 4901POPC   C2B64340  27.625   5.238   6.580
 4901POPC   C3B64341  27.789   5.175   7.009
 4901POPC   C4B64342  27.887   5.528   7.242
 4902POPC   NC364343  23.458   6.316   5.670
 4902POPC   PO464344  23.861   6.847   5.437
 4902POPC   GL164345  23.865   6.996   5.879
 4902POPC   GL264346  23.804   6.651   5.988
 4902POPC   C1A64347  24.119   6.961   6.295
 4902POPC   D2A64348  24.163   6.627   6.615
 4902POPC   C3A64349  23.977   6.687   7.046
 4902POPC   C4A64350  23.733   7.055   7.226
 4902POPC   C1B64351  23.604   6.845   6.352
 4902POPC   C2B64352  23.525   6.847   6.792
 4902POPC   C3B64353  23.431   6.658   7.177
 4902POPC   C4B64354  23.733   6.462   7.460
 4903POPC   NC364355  10.122  13.127   5.220
 4903POPC   PO464356   9.765  12.620   5.418
 4903POPC   GL164357   9.747  12.836   5.810
 4903POPC   GL264358   9.468  12.671   5.991
 4903POPC   C1A64359   9.901  12.789   6.243
 4903POPC   D2A64360   9.669  12.760   6.642
 4903POPC   C3A64361   9.834  12.840   7.082
 4903POPC   C4A64362   9.791  12.655   7.471
 4903POPC   C1B64363   9.450  13.062   6.260
 4903POPC   C2B64364   9.426  13.218   6.673
 4903POPC   C3B64365   9.299  12.942   6.953
 4903POPC   C4B64366   9.373  12.868   7.340
 4904POPC   NC364367  14.526   3.423   5.269
 4904POPC   PO464368  14.260   3.194   5.827
 4904POPC   GL164369  14.392   3.600   5.818
 4904POPC   GL264370  14.690   3.510   5.720
 4904POPC   C1A64371  14.452   3.838   6.195
 4904POPC   D2A64372  14.295   3.885   6.603
 4904POPC   C3A64373  14.533   3.767   6.933
 4904POPC   C4A64374  14.245   3.547   7.138
 4904POPC   C1B64375  14.803   3.439   6.135
 4904POPC   C2B64376  14.773   3.536   6.542
 4904POPC   C3B64377  14.611   3.263   6.862
 4904POPC   C4B64378  14.713   3.258   7.285
 4905POPC   NC364379  24.063  18.351   5.403
 4905POPC   PO464380  23.641  17.943   5.469
 4905POPC   GL164381  23.931  18.074   5.806
 4905POPC   GL264382  23.782  18.379   5.849
 4905POPC   C1A64383  24.150  18.242   6.194
 4905POPC   D2A64384  24.021  18.141   6.659
 4905POPC   C3A64385  24.079  18.314   7.112
 4905POPC   C4A64386  23.848  18.460   7.514
 4905POPC   C1B64387  23.652  18.230   6.266
 4905POPC   C2B64388  23.527  18.347   6.682
 4905POPC   C3B64389  23.555  18.247   7.123
 4905POPC   C4B64390  23.326  18.430   7.465
 4906POPC   NC364391   8.819  28.173   5.243
 4906POPC   PO464392   8.958  28.759   5.410
 4906POPC   GL164393   9.160  28.635   5.796
 4906POPC   GL264394   9.289  28.377   5.590
 4906POPC   C1A64395   9.014  28.544   6.243
 4906POPC   D2A64396   8.899  28.407   6.664
 4906POPC   C3A64397   8.967  28.641   7.043
 4906POPC   C4A64398   9.048  28.474   7.455
 4906POPC   C1B64399   9.322  28.189   6.025
 4906POPC   C2B64400   9.350  28.207   6.508
 4906POPC   C3B64401   9.280  28.210   6.992
 4906POPC   C4B64402   9.346  28.045   7.442
 4907POPC   NC364403  19.871   4.858   5.514
 4907POPC   PO464404  19.597   5.473   5.448
 4907POPC   GL164405  19.824   5.302   5.787
 4907POPC   GL264406  19.491   5.147   5.828
 4907POPC   C1A64407  19.902   5.028   6.176
 4907POPC   D2A64408  19.793   4.717   6.513
 4907POPC   C3A64409  19.859   4.952   6.906
 4907POPC   C4A64410  19.991   4.822   7.287
 4907POPC   C1B64411  19.370   5.053   6.210
 4907POPC   C2B64412  19.521   5.150   6.584
 4907POPC   C3B64413  19.361   4.992   6.963
 4907POPC   C4B64414  19.509   5.085   7.333
 4908POPC   NC364415  38.289  30.193   5.296
 4908POPC   PO464416  38.887  29.814   5.231
 4908POPC   GL164417  38.671  30.076   5.652
 4908POPC   GL264418  38.310  30.018   5.760
 4908POPC   C1A64419  38.600  29.962   6.156
 4908POPC   D2A64420  38.397  29.876   6.554
 4908POPC   C3A64421  38.607  29.966   6.955
 4908POPC   C4A64422  38.694  29.631   7.244
 4908POPC   C1B64423  38.093  30.076   6.143
 4908POPC   C2B64424  38.025  30.266   6.538
 4908POPC   C3B64425  38.058  30.106   6.933
 4908POPC   C4B64426  38.141  29.749   7.172
 4909POPC   NC364427  39.022   3.559   5.492
 4909POPC   PO464428  39.520   3.062   5.654
 4909POPC   GL164429  39.285   3.354   5.931
 4909POPC   GL264430  39.255   3.747   5.897
 4909POPC   C1A64431  39.184   3.329   6.368
 4909POPC   D2A64432  39.076   3.138   6.765
 4909POPC   C3A64433  39.310   3.323   7.085
 4909POPC   C4A64434  39.677   3.239   7.270
 4909POPC   C1B64435  39.536   3.689   6.248
 4909POPC   C2B64436  39.483   3.593   6.692
 4909POPC   C3B64437  39.451   3.831   7.084
 4909POPC   C4B64438  39.217   4.075   7.413
 4910POPC   NC364439  28.291  16.191   5.454
 4910POPC   PO464440  28.295  15.492   5.483
 4910POPC   GL164441  28.453  15.832   5.779
 4910POPC   GL264442  28.180  15.977   5.912
 4910POPC   C1A64443  28.542  15.961   6.246
 4910POPC   D2A64444  28.221  16.025   6.549
 4910POPC   C3A64445  28.400  15.934   6.949
 4910POPC   C4A64446  28.145  15.789   7.307
 4910POPC   C1B64447  28.240  16.374   6.150
 4910POPC   C2B64448  28.068  16.516   6.575
 4910POPC   C3B64449  28.022  16.272   6.975
 4910POPC   C4B64450  27.816  16.226   7.343
 4911POPC   NC364451   7.091  23.219   5.450
 4911POPC   PO464452   7.601  22.746   5.459
 4911POPC   GL164453   7.515  22.706   5.852
 4911POPC   GL264454   7.375  23.040   5.840
 4911POPC   C1A64455   7.582  22.799   6.274
 4911POPC   D2A64456   7.388  22.659   6.625
 4911POPC   C3A64457   7.447  22.953   6.982
 4911POPC   C4A64458   7.825  23.233   7.076
 4911POPC   C1B64459   7.281  23.211   6.223
 4911POPC   C2B64460   7.055  23.083   6.586
 4911POPC   C3B64461   6.926  23.125   7.003
 4911POPC   C4B64462   6.943  23.490   7.249
 4912POPC   NC364463   8.743   1.867   5.093
 4912POPC   PO464464   8.131   2.137   5.354
 4912POPC   GL164465   8.270   2.038   5.745
 4912POPC   GL264466   8.243   1.719   5.735
 4912POPC   C1A64467   8.280   1.962   6.192
 4912POPC   D2A64468   7.934   2.022   6.470
 4912POPC   C3A64469   8.056   1.912   6.865
 4912POPC   C4A64470   7.988   2.147   7.225
 4912POPC   C1B64471   8.422   1.405   6.043
 4912POPC   C2B64472   8.534   1.364   6.491
 4912POPC   C3B64473   8.435   1.562   6.902
 4912POPC   C4B64474   8.492   1.934   7.173
 4913POPC   NC364475  44.315  24.925   5.486
 4913POPC   PO464476  44.454  25.585   5.361
 4913POPC   GL164477  44.503  25.344   5.744
 4913POPC   GL264478  44.846  25.188   5.800
 4913POPC   C1A64479  44.589  25.426   6.180
 4913POPC   D2A64480  44.800  25.341   6.549
 4913POPC   C3A64481  44.619  25.433   6.918
 4913POPC   C4A64482  44.832  25.659   7.166
 4913POPC   C1B64483  44.665  24.929   6.152
 4913POPC   C2B64484  44.484  24.954   6.583
 4913POPC   C3B64485  44.694  24.953   6.981
 4913POPC   C4B64486  44.746  25.172   7.358
 4914POPC   NC364487  42.935   8.487   5.384
 4914POPC   PO464488  43.356   8.014   5.444
 4914POPC   GL164489  43.061   7.968   5.820
 4914POPC   GL264490  43.055   8.315   5.859
 4914POPC   C1A64491  42.904   7.827   6.267
 4914POPC   D2A64492  43.117   7.923   6.669
 4914POPC   C3A64493  43.005   8.088   7.059
 4914POPC   C4A64494  43.353   7.894   7.257
 4914POPC   C1B64495  43.209   8.249   6.281
 4914POPC   C2B64496  43.346   8.398   6.702
 4914POPC   C3B64497  43.442   8.379   7.153
 4914POPC   C4B64498  43.627   8.220   7.536
 4915POPC   NC364499  44.094  12.731   5.547
 4915POPC   PO464500  43.485  12.631   5.395
 4915POPC   GL164501  43.489  12.355   5.815
 4915POPC   GL264502  43.621  12.005   5.937
 4915POPC   C1A64503  43.738  12.367   6.239
 4915POPC   D2A64504  44.000  12.107   6.533
 4915POPC   C3A64505  43.924  12.198   6.984
 4915POPC   C4A64506  44.199  12.192   7.352
 4915POPC   C1B64507  43.569  11.872   6.359
 4915POPC   C2B64508  43.702  11.752   6.775
 4915POPC   C3B64509  44.038  11.716   7.074
 4915POPC   C4B64510  44.054  11.739   7.503
 4916POPC   NC364511  22.296  41.165   5.399
 4916POPC   PO464512  22.403  41.763   5.398
 4916POPC   GL164513  22.269  41.822   5.833
 4916POPC   GL264514  21.969  41.666   5.914
 4916POPC   C1A64515  22.314  41.761   6.296
 4916POPC   D2A64516  22.521  41.850   6.718
 4916POPC   C3A64517  22.426  41.622   7.121
 4916POPC   C4A64518  22.302  41.641   7.574
 4916POPC   C1B64519  21.789  41.636   6.362
 4916POPC   C2B64520  21.729  41.644   6.829
 4916POPC   C3B64521  21.931  41.532   7.230
 4916POPC   C4B64522  21.812  41.529   7.718
 4917POPC   NC364523  37.495  22.148   5.356
 4917POPC   PO464524  38.074  22.384   5.182
 4917POPC   GL164525  37.886  22.095   5.658
 4917POPC   GL264526  37.809  21.802   5.923
 4917POPC   C1A64527  37.817  22.247   6.145
 4917POPC   D2A64528  37.643  22.058   6.547
 4917POPC   C3A64529  37.615  22.310   6.967
 4917POPC   C4A64530  37.365  22.448   7.337
 4917POPC   C1B64531  37.391  21.897   6.059
 4917POPC   C2B64532  37.187  21.757   6.444
 4917POPC   C3B64533  37.255  21.680   6.891
 4917POPC   C4B64534  37.258  21.739   7.347
 4918POPC   NC364535  41.879  32.214   5.649
 4918POPC   PO464536  41.221  32.293   5.427
 4918POPC   GL164537  41.434  32.341   5.834
 4918POPC   GL264538  41.616  32.673   5.811
 4918POPC   C1A64539  41.559  32.170   6.247
 4918POPC   D2A64540  41.489  31.895   6.575
 4918POPC   C3A64541  41.582  32.003   6.962
 4918POPC   C4A64542  41.494  32.344   7.140
 4918POPC   C1B64543  41.774  32.620   6.216
 4918POPC   C2B64544  41.654  32.481   6.646
 4918POPC   C3B64545  41.750  32.745   6.998
 4918POPC   C4B64546  41.826  32.609   7.427
 4919POPC   NC364547  43.109  28.488   5.459
 4919POPC   PO464548  42.747  27.875   5.561
 4919POPC   GL164549  42.954  28.173   5.836
 4919POPC   GL264550  43.290  28.245   5.909
 4919POPC   C1A64551  42.905  28.436   6.185
 4919POPC   D2A64552  43.128  28.368   6.585
 4919POPC   C3A64553  42.946  28.571   6.969
 4919POPC   C4A64554  42.984  28.491   7.429
 4919POPC   C1B64555  43.536  28.039   6.227
 4919POPC   C2B64556  43.566  28.109   6.666
 4919POPC   C3B64557  43.352  28.244   7.049
 4919POPC   C4B64558  43.532  28.482   7.359
 4920POPC   NC364559  36.506  22.178   5.440
 4920POPC   PO464560  36.170  21.769   5.142
 4920POPC   GL164561  36.139  22.031   5.745
 4920POPC   GL264562  35.812  22.149   5.851
 4920POPC   C1A64563  36.170  22.129   6.210
 4920POPC   D2A64564  36.262  21.990   6.639
 4920POPC   C3A64565  36.021  22.189   6.962
 4920POPC   C4A64566  36.200  22.404   7.317
 4920POPC   C1B64567  35.678  22.353   6.210
 4920POPC   C2B64568  35.728  22.446   6.617
 4920POPC   C3B64569  35.639  22.624   6.989
 4920POPC   C4B64570  35.699  22.384   7.318
 4921POPC   NC364571  19.675  34.688   5.511
 4921POPC   PO464572  20.345  34.676   5.438
 4921POPC   GL164573  20.098  34.424   5.757
 4921POPC   GL264574  19.732  34.274   5.809
 4921POPC   C1A64575  20.056  34.455   6.201
 4921POPC   D2A64576  20.232  34.623   6.573
 4921POPC   C3A64577  20.027  34.598   6.980
 4921POPC   C4A64578  20.077  34.394   7.365
 4921POPC   C1B64579  19.557  34.538   6.162
 4921POPC   C2B64580  19.659  34.629   6.604
 4921POPC   C3B64581  19.550  34.835   7.010
 4921POPC   C4B64582  19.393  34.640   7.399
 4922POPC   NC364583  20.577   1.930   5.347
 4922POPC   PO464584  21.248   1.969   5.343
 4922POPC   GL164585  20.966   1.996   5.766
 4922POPC   GL264586  20.597   1.995   5.849
 4922POPC   C1A64587  20.898   1.710   6.170
 4922POPC   D2A64588  20.635   1.718   6.576
 4922POPC   C3A64589  20.808   1.991   6.920
 4922POPC   C4A64590  21.013   1.810   7.260
 4922POPC   C1B64591  20.283   1.944   6.190
 4922POPC   C2B64592  20.128   1.854   6.618
 4922POPC   C3B64593  20.276   2.034   6.998
 4922POPC   C4B64594  20.469   2.437   7.087
 4923POPC   NC364595  31.151   2.610   5.385
 4923POPC   PO464596  30.551   2.644   5.398
 4923POPC   GL164597  30.729   2.655   5.788
 4923POPC   GL264598  30.929   2.354   5.777
 4923POPC   C1A64599  30.733   2.853   6.215
 4923POPC   D2A64600  30.452   3.010   6.568
 4923POPC   C3A64601  30.571   3.088   7.031
 4923POPC   C4A64602  30.814   2.903   7.386
 4923POPC   C1B64603  30.731   2.328   6.185
 4923POPC   C2B64604  30.502   2.498   6.541
 4923POPC   C3B64605  30.684   2.602   6.939
 4923POPC   C4B64606  31.052   2.508   7.189
 4924POPC   NC364607  27.624  34.926   5.233
 4924POPC   PO464608  27.255  34.423   5.317
 4924POPC   GL164609  27.467  34.491   5.739
 4924POPC   GL264610  27.534  34.146   5.866
 4924POPC   C1A64611  27.366  34.701   6.185
 4924POPC   D2A64612  27.674  34.795   6.502
 4924POPC   C3A64613  27.599  34.897   6.929
 4924POPC   C4A64614  27.308  34.771   7.225
 4924POPC   C1B64615  27.757  34.379   6.203
 4924POPC   C2B64616  27.932  34.348   6.608
 4924POPC   C3B64617  27.796  34.437   7.016
 4924POPC   C4B64618  28.030  34.412   7.350
 4925POPC   NC364619  28.083  44.464   5.033
 4925POPC   PO464620  28.615  44.227   5.468
 4925POPC   GL164621  28.307  44.255   5.784
 4925POPC   GL264622  28.094  44.578   5.747
 4925POPC   C1A64623  28.271  44.354   6.207
 4925POPC   D2A64624  28.443  44.602   6.544
 4925POPC   C3A64625  28.448  44.440   6.954
 4925POPC   C4A64626  28.618  44.715   7.280
 4925POPC   C1B64627  28.193  44.863   6.125
 4925POPC   C2B64628  28.136   0.064   6.533
 4925POPC   C3B64629  28.224  44.922   6.956
 4925POPC   C4B64630  28.088  44.653   7.266
 4926POPC   NC364631  16.719   9.290   5.479
 4926POPC   PO464632  16.636   8.658   5.537
 4926POPC   GL164633  16.580   8.940   5.893
 4926POPC   GL264634  16.374   9.248   5.902
 4926POPC   C1A64635  16.872   9.219   6.121
 4926POPC   D2A64636  16.882   9.416   6.505
 4926POPC   C3A64637  17.041   9.199   6.881
 4926POPC   C4A64638  16.964   9.358   7.280
 4926POPC   C1B64639  16.406   9.187   6.353
 4926POPC   C2B64640  16.637   8.932   6.671
 4926POPC   C3B64641  16.712   8.920   7.142
 4926POPC   C4B64642  16.576   8.660   7.477
 4927POPC   NC364643  39.034  24.099   5.571
 4927POPC   PO464644  38.613  24.565   5.365
 4927POPC   GL164645  38.685  24.643   5.760
 4927POPC   GL264646  38.375  24.778   5.831
 4927POPC   C1A64647  38.676  24.475   6.165
 4927POPC   D2A64648  38.475  24.570   6.540
 4927POPC   C3A64649  38.767  24.444   6.838
 4927POPC   C4A64650  38.686  24.502   7.236
 4927POPC   C1B64651  38.157  24.437   6.119
 4927POPC   C2B64652  38.054  24.239   6.549
 4927POPC   C3B64653  38.264  24.223   6.931
 4927POPC   C4B64654  38.265  24.199   7.356
 4928POPC   NC364655  19.949  31.799   5.493
 4928POPC   PO464656  19.497  32.208   5.341
 4928POPC   GL164657  19.667  32.160   5.775
 4928POPC   GL264658  19.331  32.232   5.876
 4928POPC   C1A64659  19.942  32.005   6.196
 4928POPC   D2A64660  20.173  32.101   6.645
 4928POPC   C3A64661  20.036  32.345   7.034
 4928POPC   C4A64662  19.948  32.281   7.533
 4928POPC   C1B64663  19.530  32.284   6.268
 4928POPC   C2B64664  19.645  32.258   6.702
 4928POPC   C3B64665  19.535  32.314   7.137
 4928POPC   C4B64666  19.442  32.359   7.586
 4929POPC   NC364667   0.434   4.693   5.272
 4929POPC   PO464668   0.457   4.043   5.408
 4929POPC   GL164669   0.392   4.280   5.752
 4929POPC   GL264670   0.248   3.955   5.907
 4929POPC   C1A64671   0.390   4.566   6.113
 4929POPC   D2A64672   0.668   4.529   6.496
 4929POPC   C3A64673   0.474   4.624   6.878
 4929POPC   C4A64674   0.564   4.569   7.284
 4929POPC   C1B64675   0.528   4.094   6.231
 4929POPC   C2B64676   0.699   4.019   6.621
 4929POPC   C3B64677   0.652   4.155   7.014
 4929POPC   C4B64678   0.366   4.105   7.381
 4930POPC   NC364679  16.574  11.897   5.432
 4930POPC   PO464680  16.494  12.537   5.228
 4930POPC   GL164681  16.530  12.356   5.712
 4930POPC   GL264682  16.634  11.992   5.911
 4930POPC   C1A64683  16.592  12.392   6.188
 4930POPC   D2A64684  16.760  12.088   6.463
 4930POPC   C3A64685  16.729  12.166   6.863
 4930POPC   C4A64686  16.745  12.149   7.261
 4930POPC   C1B64687  17.079  11.919   6.105
 4930POPC   C2B64688  17.272  11.821   6.508
 4930POPC   C3B64689  17.052  11.763   6.911
 4930POPC   C4B64690  17.130  11.732   7.345
 4931POPC   NC364691   4.802  31.418   5.376
 4931POPC   PO464692   5.454  31.517   5.403
 4931POPC   GL164693   5.113  31.659   5.706
 4931POPC   GL264694   4.887  31.386   5.873
 4931POPC   C1A64695   5.116  31.751   6.154
 4931POPC   D2A64696   5.329  31.554   6.503
 4931POPC   C3A64697   5.205  31.671   6.903
 4931POPC   C4A64698   4.932  31.704   7.222
 4931POPC   C1B64699   4.648  31.520   6.240
 4931POPC   C2B64700   4.729  31.616   6.664
 4931POPC   C3B64701   4.808  31.299   6.938
 4931POPC   C4B64702   4.779  31.137   7.324
 4932POPC   NC364703  14.871   2.599   5.156
 4932POPC   PO464704  15.322   3.030   5.436
 4932POPC   GL164705  15.366   2.872   5.858
 4932POPC   GL264706  15.102   3.108   5.886
 4932POPC   C1A64707  15.207   2.689   6.284
 4932POPC   D2A64708  15.234   2.594   6.723
 4932POPC   C3A64709  14.962   2.479   7.026
 4932POPC   C4A64710  14.939   2.616   7.437
 4932POPC   C1B64711  15.275   3.192   6.266
 4932POPC   C2B64712  15.033   3.079   6.615
 4932POPC   C3B64713  15.068   2.988   7.030
 4932POPC   C4B64714  15.391   3.213   7.158
 4933POPC   NC364715   3.964  29.021   5.434
 4933POPC   PO464716   4.577  29.212   5.497
 4933POPC   GL164717   4.368  29.095   5.897
 4933POPC   GL264718   4.027  29.286   5.979
 4933POPC   C1A64719   4.359  29.074   6.337
 4933POPC   D2A64720   4.552  28.961   6.723
 4933POPC   C3A64721   4.488  29.155   7.142
 4933POPC   C4A64722   4.537  29.406   7.519
 4933POPC   C1B64723   3.874  29.222   6.398
 4933POPC   C2B64724   4.032  28.978   6.742
 4933POPC   C3B64725   4.029  28.893   7.181
 4933POPC   C4B64726   4.237  28.986   7.567
 4934POPC   NC364727  22.424  30.033   5.130
 4934POPC   PO464728  23.012  29.942   5.400
 4934POPC   GL164729  22.839  29.831   5.828
 4934POPC   GL264730  22.604  29.527   5.935
 4934POPC   C1A64731  22.824  30.095   6.221
 4934POPC   D2A64732  22.809  30.433   6.547
 4934POPC   C3A64733  22.936  30.251   6.939
 4934POPC   C4A64734  22.948  29.914   7.224
 4934POPC   C1B64735  22.526  29.700   6.375
 4934POPC   C2B64736  22.562  29.707   6.853
 4934POPC   C3B64737  22.569  29.576   7.326
 4934POPC   C4B64738  22.613  29.297   7.723
 4935POPC   NC364739  11.513  23.040   5.180
 4935POPC   PO464740  11.107  22.435   5.303
 4935POPC   GL164741  11.085  22.863   5.606
 4935POPC   GL264742  11.412  23.072   5.715
 4935POPC   C1A64743  11.008  23.041   6.067
 4935POPC   D2A64744  11.124  22.879   6.498
 4935POPC   C3A64745  11.065  23.035   6.934
 4935POPC   C4A64746  11.042  22.733   7.259
 4935POPC   C1B64747  11.547  22.955   6.161
 4935POPC   C2B64748  11.633  23.016   6.635
 4935POPC   C3B64749  11.532  22.818   7.048
 4935POPC   C4B64750  11.549  22.796   7.502
 4936POPC   NC364751  24.204  27.197   5.354
 4936POPC   PO464752  24.649  26.734   5.497
 4936POPC   GL164753  24.418  26.816   5.868
 4936POPC   GL264754  24.251  27.150   5.858
 4936POPC   C1A64755  24.523  26.663   6.286
 4936POPC   D2A64756  24.453  26.503   6.716
 4936POPC   C3A64757  24.712  26.657   7.085
 4936POPC   C4A64758  24.866  26.787   7.522
 4936POPC   C1B64759  24.389  27.179   6.270
 4936POPC   C2B64760  24.553  27.030   6.646
 4936POPC   C3B64761  24.325  26.948   6.967
 4936POPC   C4B64762  24.462  27.015   7.356
 4937POPC   NC364763   3.384  38.815   5.150
 4937POPC   PO464764   3.347  39.461   5.257
 4937POPC   GL164765   3.406  39.447   5.729
 4937POPC   GL264766   3.751  39.327   5.757
 4937POPC   C1A64767   3.275  39.507   6.177
 4937POPC   D2A64768   3.431  39.398   6.588
 4937POPC   C3A64769   3.332  39.500   6.989
 4937POPC   C4A64770   3.038  39.413   7.298
 4937POPC   C1B64771   3.705  39.221   6.198
 4937POPC   C2B64772   3.896  39.209   6.627
 4937POPC   C3B64773   3.789  39.263   7.064
 4937POPC   C4B64774   3.453  39.102   7.337
 4938POPC   NC364775   1.421  31.957   5.543
 4938POPC   PO464776   1.194  32.623   5.435
 4938POPC   GL164777   1.282  32.394   5.803
 4938POPC   GL264778   1.069  32.076   5.885
 4938POPC   C1A64779   1.157  32.457   6.218
 4938POPC   D2A64780   1.040  32.274   6.602
 4938POPC   C3A64781   1.079  32.636   6.860
 4938POPC   C4A64782   1.119  32.651   7.290
 4938POPC   C1B64783   1.300  31.929   6.284
 4938POPC   C2B64784   1.453  31.955   6.733
 4938POPC   C3B64785   1.326  32.086   7.177
 4938POPC   C4B64786   1.354  31.933   7.608
 4939POPC   NC364787  37.931   2.484   5.417
 4939POPC   PO464788  37.557   3.033   5.262
 4939POPC   GL164789  37.594   2.956   5.705
 4939POPC   GL264790  37.541   2.621   5.759
 4939POPC   C1A64791  37.616   2.909   6.183
 4939POPC   D2A64792  37.752   2.978   6.613
 4939POPC   C3A64793  37.635   2.754   6.981
 4939POPC   C4A64794  37.661   2.999   7.298
 4939POPC   C1B64795  37.794   2.423   6.070
 4939POPC   C2B64796  38.003   2.572   6.398
 4939POPC   C3B64797  38.067   2.581   6.817
 4939POPC   C4B64798  38.097   2.580   7.268
 4940POPC   NC364799  36.168  33.377   5.512
 4940POPC   PO464800  36.427  32.727   5.457
 4940POPC   GL164801  36.138  32.834   5.786
 4940POPC   GL264802  36.023  33.170   5.934
 4940POPC   C1A64803  36.211  32.806   6.210
 4940POPC   D2A64804  36.245  33.034   6.573
 4940POPC   C3A64805  36.205  32.783   6.921
 4940POPC   C4A64806  36.359  32.865   7.300
 4940POPC   C1B64807  35.798  33.209   6.320
 4940POPC   C2B64808  35.868  33.366   6.710
 4940POPC   C3B64809  36.151  33.287   7.028
 4940POPC   C4B64810  35.924  33.123   7.345
 4941POPC   NC364811  44.007  39.286   5.074
 4941POPC   PO464812  43.633  39.623   5.331
 4941POPC   GL164813  43.860  39.412   5.703
 4941POPC   GL264814  43.681  39.101   5.778
 4941POPC   C1A64815  43.999  39.253   6.157
 4941POPC   D2A64816  43.815  39.141   6.608
 4941POPC   C3A64817  43.942  39.435   6.970
 4941POPC   C4A64818  44.055  39.461   7.413
 4941POPC   C1B64819  43.484  39.245   6.175
 4941POPC   C2B64820  43.309  39.245   6.590
 4941POPC   C3B64821  43.481  39.224   7.019
 4941POPC   C4B64822  43.854  38.987   7.185
 4942POPC   NC364823   3.087  32.690   5.368
 4942POPC   PO464824   2.710  33.203   5.374
 4942POPC   GL164825   2.850  32.981   5.717
 4942POPC   GL264826   2.560  32.795   5.797
 4942POPC   C1A64827   2.938  32.880   6.142
 4942POPC   D2A64828   2.774  33.080   6.511
 4942POPC   C3A64829   2.949  33.038   6.866
 4942POPC   C4A64830   3.014  33.103   7.264
 4942POPC   C1B64831   2.413  32.982   6.183
 4942POPC   C2B64832   2.384  32.761   6.614
 4942POPC   C3B64833   2.574  32.735   7.035
 4942POPC   C4B64834   2.440  32.741   7.471
 4943POPC   NC364835  27.147  33.023   5.444
 4943POPC   PO464836  26.627  32.837   5.229
 4943POPC   GL164837  26.728  32.918   5.742
 4943POPC   GL264838  26.867  33.260   5.841
 4943POPC   C1A64839  26.763  33.028   6.266
 4943POPC   D2A64840  27.067  33.052   6.651
 4943POPC   C3A64841  26.842  33.069   7.016
 4943POPC   C4A64842  26.385  33.088   7.087
 4943POPC   C1B64843  27.152  33.349   6.231
 4943POPC   C2B64844  27.319  33.522   6.623
 4943POPC   C3B64845  27.374  33.330   7.001
 4943POPC   C4B64846  27.155  33.209   7.389
 4944POPC   NC364847  38.800  13.385   5.472
 4944POPC   PO464848  38.341  13.803   5.202
 4944POPC   GL164849  38.422  13.613   5.688
 4944POPC   GL264850  38.710  13.652   5.879
 4944POPC   C1A64851  38.313  13.427   6.132
 4944POPC   D2A64852  38.395  13.477   6.592
 4944POPC   C3A64853  38.389  13.245   6.985
 4944POPC   C4A64854  38.366  13.373   7.413
 4944POPC   C1B64855  38.863  13.545   6.235
 4944POPC   C2B64856  38.833  13.733   6.620
 4944POPC   C3B64857  38.839  13.568   7.001
 4944POPC   C4B64858  38.759  13.683   7.434
 4945POPC   NC364859   9.483  27.787   5.138
 4945POPC   PO464860   9.660  27.189   5.414
 4945POPC   GL164861   9.799  27.402   5.804
 4945POPC   GL264862   9.619  27.734   5.819
 4945POPC   C1A64863   9.998  27.641   6.165
 4945POPC   D2A64864   9.998  27.747   6.626
 4945POPC   C3A64865   9.954  27.388   6.926
 4945POPC   C4A64866   9.696  27.153   7.205
 4945POPC   C1B64867   9.532  27.778   6.292
 4945POPC   C2B64868   9.477  27.709   6.756
 4945POPC   C3B64869   9.676  27.757   7.155
 4945POPC   C4B64870  10.099  27.901   7.148
 4946POPC   NC364871  40.887   9.088   5.223
 4946POPC   PO464872  40.331   8.745   5.510
 4946POPC   GL164873  40.592   9.044   5.724
 4946POPC   GL264874  40.947   8.984   5.731
 4946POPC   C1A64875  40.709   9.055   6.185
 4946POPC   D2A64876  40.739   8.821   6.601
 4946POPC   C3A64877  40.462   8.935   6.964
 4946POPC   C4A64878  40.465   8.937   7.417
 4946POPC   C1B64879  41.060   8.687   6.093
 4946POPC   C2B64880  41.269   8.689   6.487
 4946POPC   C3B64881  41.153   8.802   6.911
 4946POPC   C4B64882  40.939   9.072   7.190
 4947POPC   NC364883  17.524  30.159   5.381
 4947POPC   PO464884  17.394  29.536   5.534
 4947POPC   GL164885  17.523  29.862   5.831
 4947POPC   GL264886  17.331  30.192   5.867
 4947POPC   C1A64887  17.546  29.890   6.277
 4947POPC   D2A64888  17.204  29.873   6.587
 4947POPC   C3A64889  17.340  30.000   7.009
 4947POPC   C4A64890  17.511  29.764   7.351
 4947POPC   C1B64891  17.442  30.396   6.271
 4947POPC   C2B64892  17.625  30.291   6.642
 4947POPC   C3B64893  17.817  30.391   7.008
 4947POPC   C4B64894  17.830  30.159   7.349
 4948POPC   NC364895  28.526   3.153   5.477
 4948POPC   PO464896  28.260   3.636   5.082
 4948POPC   GL164897  28.059   3.434   5.541
 4948POPC   GL264898  27.895   3.107   5.578
 4948POPC   C1A64899  28.136   3.566   6.038
 4948POPC   D2A64900  28.495   3.683   6.355
 4948POPC   C3A64901  28.465   3.723   6.822
 4948POPC   C4A64902  28.409   3.851   7.255
 4948POPC   C1B64903  27.875   3.127   6.044
 4948POPC   C2B64904  27.906   3.255   6.505
 4948POPC   C3B64905  28.189   3.283   6.876
 4948POPC   C4B64906  28.498   3.351   7.200
 4949POPC   NC364907  44.698  44.027   5.520
 4949POPC   PO464908  44.364  43.451   5.485
 4949POPC   GL164909  44.581  43.616   5.850
 4949POPC   GL264910  44.530  43.974   5.984
 4949POPC   C1A64911  44.847  43.667   6.214
 4949POPC   D2A64912  44.918  43.865   6.606
 4949POPC   C3A64913  44.718  43.688   6.935
 4949POPC   C4A64914  44.474  43.495   7.267
 4949POPC   C1B64915  44.534  44.315   6.242
 4949POPC   C2B64916  44.441  44.166   6.600
 4949POPC   C3B64917  44.548  44.173   6.956
 4949POPC   C4B64918  44.617  43.991   7.316
 4950POPC   NC364919  27.172  18.670   5.560
 4950POPC   PO464920  27.513  18.083   5.385
 4950POPC   GL164921  27.684  18.316   5.791
 4950POPC   GL264922  27.655  17.993   5.883
 4950POPC   C1A64923  27.874  18.262   6.238
 4950POPC   D2A64924  27.772  18.050   6.649
 4950POPC   C3A64925  27.764  18.257   7.036
 4950POPC   C4A64926  27.504  18.530   7.255
 4950POPC   C1B64927  27.430  18.035   6.249
 4950POPC   C2B64928  27.175  18.266   6.526
 4950POPC   C3B64929  27.183  18.280   6.961
 4950POPC   C4B64930  27.339  17.977   7.249
 4951POPC   NC364931  40.440  41.515   5.129
 4951POPC   PO464932  41.004  41.409   5.453
 4951POPC   GL164933  40.900  41.365   5.878
 4951POPC   GL264934  40.872  41.740   5.947
 4951POPC   C1A64935  40.734  41.371   6.291
 4951POPC   D2A64936  40.683  41.629   6.631
 4951POPC   C3A64937  40.594  41.362   6.957
 4951POPC   C4A64938  40.462  41.457   7.356
 4951POPC   C1B64939  40.530  41.934   6.220
 4951POPC   C2B64940  40.265  41.950   6.608
 4951POPC   C3B64941  40.439  41.858   7.036
 4951POPC   C4B64942  40.893  41.777   7.095
 4952POPC   NC364943   3.990  35.608   5.392
 4952POPC   PO464944   4.626  35.237   5.483
 4952POPC   GL164945   4.462  35.401   5.823
 4952POPC   GL264946   4.129  35.332   5.808
 4952POPC   C1A64947   4.586  35.550   6.224
 4952POPC   D2A64948   4.416  35.544   6.643
 4952POPC   C3A64949   4.478  35.177   6.878
 4952POPC   C4A64950   4.870  35.234   7.075
 4952POPC   C1B64951   4.151  35.265   6.249
 4952POPC   C2B64952   3.938  35.371   6.630
 4952POPC   C3B64953   4.037  35.425   7.067
 4952POPC   C4B64954   4.059  35.499   7.532
 4953POPC   NC364955  13.720  24.114   5.439
 4953POPC   PO464956  13.770  23.403   5.413
 4953POPC   GL164957  13.838  23.675   5.761
 4953POPC   GL264958  13.522  23.757   5.731
 4953POPC   C1A64959  13.701  23.779   6.202
 4953POPC   D2A64960  13.485  23.772   6.601
 4953POPC   C3A64961  13.681  23.902   6.989
 4953POPC   C4A64962  13.482  23.962   7.364
 4953POPC   C1B64963  13.367  23.436   6.025
 4953POPC   C2B64964  13.278  23.322   6.431
 4953POPC   C3B64965  13.248  23.314   6.847
 4953POPC   C4B64966  13.146  23.586   7.180
 4954POPC   NC364967  17.157   3.655   5.380
 4954POPC   PO464968  17.770   3.401   5.353
 4954POPC   GL164969  17.764   3.437   5.814
 4954POPC   GL264970  17.407   3.563   5.900
 4954POPC   C1A64971  17.792   3.478   6.277
 4954POPC   D2A64972  17.521   3.574   6.647
 4954POPC   C3A64973  17.598   3.460   7.068
 4954POPC   C4A64974  17.244   3.323   7.316
 4954POPC   C1B64975  17.283   3.842   6.272
 4954POPC   C2B64976  17.151   3.949   6.723
 4954POPC   C3B64977  17.206   3.828   7.163
 4954POPC   C4B64978  17.085   3.752   7.619
 4955POPC   NC364979  35.651   7.295   5.592
 4955POPC   PO464980  35.070   7.199   5.261
 4955POPC   GL164981  35.151   7.364   5.729
 4955POPC   GL264982  34.996   7.185   6.000
 4955POPC   C1A64983  35.401   7.466   6.168
 4955POPC   D2A64984  35.511   7.261   6.569
 4955POPC   C3A64985  35.433   7.452   6.975
 4955POPC   C4A64986  35.199   7.634   7.297
 4955POPC   C1B64987  34.993   7.303   6.444
 4955POPC   C2B64988  35.008   7.149   6.842
 4955POPC   C3B64989  35.102   7.119   7.263
 4955POPC   C4B64990  35.239   6.958   7.637
 4956POPC   NC364991   1.962  11.053   5.047
 4956POPC   PO464992   1.761  11.254   5.419
 4956POPC   GL164993   1.921  11.280   5.865
 4956POPC   GL264994   2.251  11.140   5.909
 4956POPC   C1A64995   1.860  11.444   6.321
 4956POPC   D2A64996   1.681  11.525   6.734
 4956POPC   C3A64997   1.926  11.449   7.108
 4956POPC   C4A64998   1.938  11.608   7.530
 4956POPC   C1B64999   2.032  10.974   6.285
 4956POPC   C2B65000   2.007  11.114   6.718
 4956POPC   C3B65001   2.082  10.950   7.148
 4956POPC   C4B65002   2.199  10.957   7.595
 4957POPC   NC365003  38.414  23.390   5.234
 4957POPC   PO465004  38.776  23.709   5.657
 4957POPC   GL165005  38.358  23.686   5.810
 4957POPC   GL265006  38.272  23.344   5.745
 4957POPC   C1A65007  38.275  23.913   6.203
 4957POPC   D2A65008  38.550  24.060   6.518
 4957POPC   C3A65009  38.784  23.807   6.795
 4957POPC   C4A65010  38.695  24.015   7.152
 4957POPC   C1B65011  38.161  23.414   6.201
 4957POPC   C2B65012  38.402  23.500   6.586
 4957POPC   C3B65013  38.321  23.691   7.006
 4957POPC   C4B65014  38.072  23.704   7.408
 4958POPC   NC365015  21.022  39.263   5.350
 4958POPC   PO465016  21.509  39.546   5.431
 4958POPC   GL165017  21.324  39.314   5.772
 4958POPC   GL265018  21.088  39.587   5.783
 4958POPC   C1A65019  21.408  39.080   6.185
 4958POPC   D2A65020  21.572  38.846   6.560
 4958POPC   C3A65021  21.468  38.951   6.990
 4958POPC   C4A65022  21.615  39.305   7.183
 4958POPC   C1B65023  21.221  39.554   6.226
 4958POPC   C2B65024  21.262  39.323   6.631
 4958POPC   C3B65025  21.116  39.339   7.057
 4958POPC   C4B65026  21.139  39.139   7.420
 4959POPC   NC365027  17.264  26.896   5.412
 4959POPC   PO465028  17.933  26.580   5.418
 4959POPC   GL165029  17.640  26.740   5.757
 4959POPC   GL265030  17.509  27.065   5.820
 4959POPC   C1A65031  17.665  26.848   6.228
 4959POPC   D2A65032  17.491  26.682   6.590
 4959POPC   C3A65033  17.634  26.856   6.959
 4959POPC   C4A65034  17.527  26.839   7.400
 4959POPC   C1B65035  17.274  27.176   6.203
 4959POPC   C2B65036  17.096  27.054   6.623
 4959POPC   C3B65037  17.173  27.018   7.074
 4959POPC   C4B65038  17.271  27.297   7.440
 4960POPC   NC365039  41.202  14.704   5.565
 4960POPC   PO465040  41.787  14.429   5.474
 4960POPC   GL165041  41.503  14.320   5.817
 4960POPC   GL265042  41.167  14.212   5.721
 4960POPC   C1A65043  41.591  14.374   6.270
 4960POPC   D2A65044  41.594  14.163   6.685
 4960POPC   C3A65045  41.797  14.392   7.024
 4960POPC   C4A65046  41.736  14.487   7.462
 4960POPC   C1B65047  41.093  14.410   6.159
 4960POPC   C2B65048  41.231  14.554   6.600
 4960POPC   C3B65049  41.285  14.432   7.056
 4960POPC   C4B65050  41.294  14.260   7.496
 4961POPC   NC365051   6.874  13.123   5.596
 4961POPC   PO465052   6.328  12.731   5.455
 4961POPC   GL165053   6.593  12.810   5.878
 4961POPC   GL265054   6.600  13.128   6.025
 4961POPC   C1A65055   6.780  12.809   6.351
 4961POPC   D2A65056   6.582  12.874   6.780
 4961POPC   C3A65057   6.689  12.568   7.113
 4961POPC   C4A65058   6.752  12.587   7.615
 4961POPC   C1B65059   6.992  13.269   6.223
 4961POPC   C2B65060   7.012  13.488   6.602
 4961POPC   C3B65061   6.911  13.266   6.978
 4961POPC   C4B65062   6.829  12.997   7.341
 4962POPC   NC365063  30.417  39.806   5.245
 4962POPC   PO465064  30.991  39.918   5.180
 4962POPC   GL165065  30.882  39.926   5.695
 4962POPC   GL265066  30.576  39.708   5.815
 4962POPC   C1A65067  30.746  40.022   6.190
 4962POPC   D2A65068  30.660  39.879   6.641
 4962POPC   C3A65069  30.798  40.078   7.050
 4962POPC   C4A65070  30.983  40.271   7.437
 4962POPC   C1B65071  30.280  39.782   6.217
 4962POPC   C2B65072  30.163  40.013   6.603
 4962POPC   C3B65073  30.305  39.914   7.040
 4962POPC   C4B65074  30.463  40.053   7.448
 4963POPC   NC365075  40.204  32.794   5.474
 4963POPC   PO465076  39.873  33.306   5.362
 4963POPC   GL165077  39.913  33.115   5.809
 4963POPC   GL265078  40.239  33.114   5.873
 4963POPC   C1A65079  39.907  32.960   6.294
 4963POPC   D2A65080  39.846  32.613   6.642
 4963POPC   C3A65081  39.879  32.777   7.072
 4963POPC   C4A65082  39.893  33.078   7.411
 4963POPC   C1B65083  40.417  32.981   6.252
 4963POPC   C2B65084  40.311  32.817   6.656
 4963POPC   C3B65085  40.414  32.803   7.058
 4963POPC   C4B65086  40.269  32.674   7.430
 4964POPC   NC365087  25.247  32.760   5.497
 4964POPC   PO465088  24.929  33.324   5.525
 4964POPC   GL165089  25.030  33.151   5.882
 4964POPC   GL265090  25.375  33.170   5.781
 4964POPC   C1A65091  25.051  33.277   6.323
 4964POPC   D2A65092  24.981  33.455   6.751
 4964POPC   C3A65093  24.952  33.096   7.053
 4964POPC   C4A65094  24.916  32.638   7.118
 4964POPC   C1B65095  25.530  33.196   6.174
 4964POPC   C2B65096  25.472  33.069   6.568
 4964POPC   C3B65097  25.432  33.276   6.947
 4964POPC   C4B65098  25.352  33.140   7.348
 4965POPC   NC365099  16.365  24.703   5.545
 4965POPC   PO465100  15.827  24.406   5.220
 4965POPC   GL165101  15.998  24.317   5.624
 4965POPC   GL265102  15.655  24.304   5.744
 4965POPC   C1A65103  16.160  24.380   6.063
 4965POPC   D2A65104  16.069  24.498   6.497
 4965POPC   C3A65105  16.373  24.492   6.815
 4965POPC   C4A65106  16.217  24.426   7.230
 4965POPC   C1B65107  15.673  24.501   6.144
 4965POPC   C2B65108  15.482  24.634   6.513
 4965POPC   C3B65109  15.692  24.618   6.874
 4965POPC   C4B65110  15.667  24.466   7.274
 4966POPC   NC365111  29.367   3.488   5.522
 4966POPC   PO465112  28.685   3.665   5.578
 4966POPC   GL165113  29.007   3.470   5.891
 4966POPC   GL265114  29.267   3.158   5.880
 4966POPC   C1A65115  28.968   3.307   6.312
 4966POPC   D2A65116  28.674   3.271   6.662
 4966POPC   C3A65117  28.945   3.447   6.957
 4966POPC   C4A65118  29.324   3.249   7.155
 4966POPC   C1B65119  29.562   3.389   6.126
 4966POPC   C2B65120  29.369   3.660   6.393
 4966POPC   C3B65121  29.394   3.678   6.829
 4966POPC   C4B65122  29.283   3.824   7.231
 4967POPC   NC365123  36.771  30.803   5.257
 4967POPC   PO465124  36.914  30.143   5.441
 4967POPC   GL165125  36.891  30.572   5.717
 4967POPC   GL265126  37.031  30.920   5.695
 4967POPC   C1A65127  36.652  30.768   6.077
 4967POPC   D2A65128  36.637  30.618   6.538
 4967POPC   C3A65129  36.777  30.785   6.961
 4967POPC   C4A65130  36.996  31.026   7.302
 4967POPC   C1B65131  37.143  30.808   6.134
 4967POPC   C2B65132  37.186  30.880   6.581
 4967POPC   C3B65133  37.300  30.734   6.991
 4967POPC   C4B65134  37.175  30.520   7.353
 4968POPC   NC365135  11.758  34.068   5.268
 4968POPC   PO465136  12.257  33.619   5.182
 4968POPC   GL165137  12.090  33.766   5.621
 4968POPC   GL265138  11.869  34.048   5.750
 4968POPC   C1A65139  12.104  33.789   6.116
 4968POPC   D2A65140  12.008  33.691   6.563
 4968POPC   C3A65141  12.269  33.917   6.840
 4968POPC   C4A65142  12.482  33.906   7.245
 4968POPC   C1B65143  12.000  34.300   6.089
 4968POPC   C2B65144  12.035  34.254   6.504
 4968POPC   C3B65145  11.812  34.186   6.875
 4968POPC   C4B65146  12.030  34.155   7.242
 4969POPC   NC365147  19.333  30.196   5.373
 4969POPC   PO465148  18.913  29.683   5.484
 4969POPC   GL165149  19.226  29.702   5.832
 4969POPC   GL265150  19.203  30.053   5.849
 4969POPC   C1A65151  19.206  29.829   6.303
 4969POPC   D2A65152  18.909  30.118   6.581
 4969POPC   C3A65153  18.800  29.891   6.966
 4969POPC   C4A65154  19.134  29.671   7.148
 4969POPC   C1B65155  19.407  30.297   6.183
 4969POPC   C2B65156  19.417  30.178   6.628
 4969POPC   C3B65157  19.211  30.279   7.026
 4969POPC   C4B65158  19.454  30.335   7.405
 4970POPC   NC365159  16.798   9.934   5.374
 4970POPC   PO465160  16.287   9.450   5.435
 4970POPC   GL165161  16.592   9.704   5.782
 4970POPC   GL265162  16.625  10.105   5.818
 4970POPC   C1A65163  16.957   9.766   6.099
 4970POPC   D2A65164  16.942   9.940   6.532
 4970POPC   C3A65165  16.918   9.725   6.911
 4970POPC   C4A65166  17.066   9.920   7.245
 4970POPC   C1B65167  16.529   9.997   6.235
 4970POPC   C2B65168  16.480   9.740   6.634
 4970POPC   C3B65169  16.499   9.977   7.048
 4970POPC   C4B65170  16.668  10.184   7.438
 4971POPC   NC365171  41.504  26.371   5.373
 4971POPC   PO465172  41.379  25.653   5.359
 4971POPC   GL165173  41.516  25.928   5.669
 4971POPC   GL265174  41.271  26.167   5.785
 4971POPC   C1A65175  41.646  25.916   6.077
 4971POPC   D2A65176  41.536  25.780   6.484
 4971POPC   C3A65177  41.784  25.982   6.811
 4971POPC   C4A65178  41.704  26.281   7.156
 4971POPC   C1B65179  41.282  26.233   6.251
 4971POPC   C2B65180  41.274  26.172   6.683
 4971POPC   C3B65181  41.305  25.925   7.015
 4971POPC   C4B65182  41.210  26.008   7.420
 4972POPC   NC365183  34.832   9.770   5.181
 4972POPC   PO465184  35.425   9.399   5.295
 4972POPC   GL165185  35.338   9.579   5.742
 4972POPC   GL265186  34.999   9.724   5.799
 4972POPC   C1A65187  35.510   9.782   6.101
 4972POPC   D2A65188  35.471   9.967   6.516
 4972POPC   C3A65189  35.324   9.651   6.795
 4972POPC   C4A65190  35.433   9.625   7.214
 4972POPC   C1B65191  35.048  10.000   6.180
 4972POPC   C2B65192  34.966  10.043   6.647
 4972POPC   C3B65193  35.118  10.072   7.086
 4972POPC   C4B65194  35.029   9.862   7.476
 4973POPC   NC365195  43.379  13.935   5.136
 4973POPC   PO465196  42.965  13.424   5.345
 4973POPC   GL165197  43.132  13.557   5.714
 4973POPC   GL265198  43.272  13.882   5.637
 4973POPC   C1A65199  43.002  13.463   6.144
 4973POPC   D2A65200  42.754  13.470   6.525
 4973POPC   C3A65201  43.025  13.446   6.884
 4973POPC   C4A65202  43.290  13.684   7.197
 4973POPC   C1B65203  43.030  13.968   6.018
 4973POPC   C2B65204  42.965  13.923   6.448
 4973POPC   C3B65205  43.047  13.993   6.878
 4973POPC   C4B65206  43.451  14.169   7.057
 4974POPC   NC365207  15.988  31.663   5.342
 4974POPC   PO465208  16.355  31.115   5.469
 4974POPC   GL165209  16.023  31.366   5.778
 4974POPC   GL265210  15.671  31.227   5.842
 4974POPC   C1A65211  15.868  31.565   6.214
 4974POPC   D2A65212  15.975  31.742   6.646
 4974POPC   C3A65213  16.119  31.759   7.099
 4974POPC   C4A65214  15.843  31.722   7.501
 4974POPC   C1B65215  15.912  31.054   6.193
 4974POPC   C2B65216  15.822  31.190   6.628
 4974POPC   C3B65217  15.749  31.384   7.030
 4974POPC   C4B65218  16.054  31.290   7.332
 4975POPC   NC365219  39.346   9.244   5.567
 4975POPC   PO465220  39.263   8.612   5.511
 4975POPC   GL165221  38.970   8.781   5.823
 4975POPC   GL265222  38.860   9.121   5.674
 4975POPC   C1A65223  39.062   8.806   6.310
 4975POPC   D2A65224  39.383   9.027   6.555
 4975POPC   C3A65225  39.400   9.176   6.980
 4975POPC   C4A65226  39.471   8.978   7.373
 4975POPC   C1B65227  38.774   9.189   6.106
 4975POPC   C2B65228  38.941   9.273   6.519
 4975POPC   C3B65229  38.934   9.008   6.862
 4975POPC   C4B65230  38.973   9.065   7.309
 4976POPC   NC365231   7.211   0.969   5.482
 4976POPC   PO465232   7.687   1.346   5.412
 4976POPC   GL165233   7.468   1.153   5.870
 4976POPC   GL265234   7.084   1.133   5.941
 4976POPC   C1A65235   7.598   1.195   6.332
 4976POPC   D2A65236   7.594   1.120   6.803
 4976POPC   C3A65237   7.426   1.399   7.141
 4976POPC   C4A65238   7.609   1.490   7.591
 4976POPC   C1B65239   7.197   0.843   6.281
 4976POPC   C2B65240   7.271   0.707   6.698
 4976POPC   C3B65241   7.197   0.933   7.075
 4976POPC   C4B65242   6.807   1.139   7.215
 4977POPC   NC365243  11.175   7.099   5.571
 4977POPC   PO465244  11.116   6.464   5.452
 4977POPC   GL165245  11.112   6.639   5.841
 4977POPC   GL265246  10.798   6.825   5.820
 4977POPC   C1A65247  11.300   6.492   6.235
 4977POPC   D2A65248  11.553   6.258   6.516
 4977POPC   C3A65249  11.476   6.463   6.868
 4977POPC   C4A65250  11.522   6.493   7.275
 4977POPC   C1B65251  10.893   6.811   6.267
 4977POPC   C2B65252  11.014   6.679   6.673
 4977POPC   C3B65253  11.094   6.778   7.091
 4977POPC   C4B65254  11.097   6.605   7.512
 4978POPC   NC365255  23.579   4.723   5.258
 4978POPC   PO465256  23.569   4.100   5.211
 4978POPC   GL165257  23.510   4.312   5.647
 4978POPC   GL265258  23.371   3.993   5.768
 4978POPC   C1A65259  23.617   4.554   6.064
 4978POPC   D2A65260  23.515   4.493   6.521
 4978POPC   C3A65261  23.585   4.615   6.963
 4978POPC   C4A65262  23.878   4.522   7.266
 4978POPC   C1B65263  23.608   4.035   6.154
 4978POPC   C2B65264  23.491   3.983   6.573
 4978POPC   C3B65265  23.664   4.121   6.952
 4978POPC   C4B65266  23.531   4.144   7.362
 4979POPC   NC365267   5.710   6.738   5.532
 4979POPC   PO465268   6.236   6.457   5.261
 4979POPC   GL165269   6.165   6.669   5.746
 4979POPC   GL265270   5.824   6.493   5.953
 4979POPC   C1A65271   6.144   6.761   6.220
 4979POPC   D2A65272   5.921   6.499   6.568
 4979POPC   C3A65273   6.074   6.622   6.989
 4979POPC   C4A65274   6.456   6.898   7.023
 4979POPC   C1B65275   5.469   6.364   6.260
 4979POPC   C2B65276   5.283   6.447   6.686
 4979POPC   C3B65277   5.497   6.415   7.088
 4979POPC   C4B65278   5.470   6.465   7.548
 4980POPC   NC365279  21.591   5.030   5.672
 4980POPC   PO465280  22.149   5.373   5.451
 4980POPC   GL165281  22.201   5.160   5.886
 4980POPC   GL265282  21.865   5.052   6.082
 4980POPC   C1A65283  22.266   4.788   6.192
 4980POPC   D2A65284  22.062   4.734   6.597
 4980POPC   C3A65285  22.292   4.876   6.934
 4980POPC   C4A65286  22.367   4.903   7.372
 4980POPC   C1B65287  22.089   5.250   6.401
 4980POPC   C2B65288  22.346   5.360   6.710
 4980POPC   C3B65289  22.268   5.351   7.129
 4980POPC   C4B65290  21.962   5.219   7.433
 4981POPC   NC365291  33.849   6.462   5.544
 4981POPC   PO465292  33.565   6.976   5.185
 4981POPC   GL165293  33.697   6.951   5.749
 4981POPC   GL265294  34.010   6.837   5.871
 4981POPC   C1A65295  33.616   6.844   6.230
 4981POPC   D2A65296  33.726   6.706   6.687
 4981POPC   C3A65297  33.497   6.384   6.964
 4981POPC   C4A65298  33.565   6.299   7.444
 4981POPC   C1B65299  34.074   6.432   6.164
 4981POPC   C2B65300  34.265   6.328   6.555
 4981POPC   C3B65301  34.188   6.598   6.884
 4981POPC   C4B65302  33.930   6.528   7.199
 4982POPC   NC365303  23.408   5.638   4.980
 4982POPC   PO465304  23.673   6.020   5.390
 4982POPC   GL165305  23.759   5.844   5.794
 4982POPC   GL265306  23.419   5.693   5.750
 4982POPC   C1A65307  23.873   5.926   6.254
 4982POPC   D2A65308  23.888   6.187   6.642
 4982POPC   C3A65309  23.990   5.994   7.045
 4982POPC   C4A65310  23.766   5.922   7.472
 4982POPC   C1B65311  23.473   5.601   6.190
 4982POPC   C2B65312  23.502   5.822   6.614
 4982POPC   C3B65313  23.576   5.691   7.037
 4982POPC   C4B65314  23.611   5.422   7.391
 4983POPC   NC365315   6.296   1.303   5.446
 4983POPC   PO465316   5.644   1.468   5.385
 4983POPC   GL165317   5.869   1.525   5.769
 4983POPC   GL265318   6.033   1.207   5.871
 4983POPC   C1A65319   5.883   1.550   6.221
 4983POPC   D2A65320   6.133   1.246   6.461
 4983POPC   C3A65321   6.048   1.394   6.846
 4983POPC   C4A65322   5.689   1.468   7.085
 4983POPC   C1B65323   6.119   0.840   6.130
 4983POPC   C2B65324   5.917   0.686   6.483
 4983POPC   C3B65325   5.964   0.770   6.923
 4983POPC   C4B65326   6.024   1.099   7.250
 4984POPC   NC365327   6.518  20.793   5.383
 4984POPC   PO465328   6.853  20.202   5.485
 4984POPC   GL165329   6.800  20.445   5.873
 4984POPC   GL265330   6.468  20.629   5.898
 4984POPC   C1A65331   6.641  20.287   6.282
 4984POPC   D2A65332   6.674  20.190   6.699
 4984POPC   C3A65333   6.604  20.520   6.942
 4984POPC   C4A65334   6.601  20.342   7.325
 4984POPC   C1B65335   6.194  20.539   6.271
 4984POPC   C2B65336   6.134  20.518   6.724
 4984POPC   C3B65337   6.153  20.546   7.183
 4984POPC   C4B65338   6.383  20.788   7.471
 4985POPC   NC365339  13.372   6.316   5.316
 4985POPC   PO465340  13.880   6.714   5.416
 4985POPC   GL165341  13.688   6.653   5.808
 4985POPC   GL265342  13.384   6.466   5.791
 4985POPC   C1A65343  13.794   6.574   6.208
 4985POPC   D2A65344  13.764   6.745   6.597
 4985POPC   C3A65345  14.003   6.495   6.844
 4985POPC   C4A65346  13.860   6.512   7.228
 4985POPC   C1B65347  13.298   6.626   6.183
 4985POPC   C2B65348  13.254   6.724   6.594
 4985POPC   C3B65349  13.391   6.578   6.971
 4985POPC   C4B65350  13.275   6.666   7.385
 4986POPC   NC365351  32.585   4.307   5.085
 4986POPC   PO465352  32.084   4.037   5.399
 4986POPC   GL165353  32.280   4.228   5.726
 4986POPC   GL265354  32.240   4.598   5.700
 4986POPC   C1A65355  32.498   4.075   6.115
 4986POPC   D2A65356  32.408   4.236   6.508
 4986POPC   C3A65357  32.380   4.033   6.890
 4986POPC   C4A65358  32.237   4.167   7.311
 4986POPC   C1B65359  32.402   4.590   6.135
 4986POPC   C2B65360  32.617   4.712   6.509
 4986POPC   C3B65361  32.511   4.555   6.922
 4986POPC   C4B65362  32.463   4.621   7.347
 4987POPC   NC365363  11.664  42.201   5.344
 4987POPC   PO465364  10.989  42.173   5.398
 4987POPC   GL165365  11.269  42.345   5.705
 4987POPC   GL265366  11.397  42.006   5.763
 4987POPC   C1A65367  11.388  42.546   6.158
 4987POPC   D2A65368  11.297  42.363   6.565
 4987POPC   C3A65369  11.338  42.519   7.005
 4987POPC   C4A65370  11.119  42.401   7.397
 4987POPC   C1B65371  11.133  42.074   6.125
 4987POPC   C2B65372  11.241  41.849   6.473
 4987POPC   C3B65373  11.174  41.978   6.867
 4987POPC   C4B65374  11.210  41.941   7.257
 4988POPC   NC365375   3.914  16.558   5.399
 4988POPC   PO465376   3.438  16.923   5.401
 4988POPC   GL165377   3.539  16.963   5.821
 4988POPC   GL265378   3.898  16.922   5.804
 4988POPC   C1A65379   3.415  17.138   6.242
 4988POPC   D2A65380   3.433  17.243   6.710
 4988POPC   C3A65381   3.346  16.854   6.989
 4988POPC   C4A65382   3.488  16.475   7.236
 4988POPC   C1B65383   3.925  17.037   6.256
 4988POPC   C2B65384   3.749  16.846   6.654
 4988POPC   C3B65385   3.853  16.807   7.114
 4988POPC   C4B65386   3.751  16.796   7.575
 4989POPC   NC365387  36.698  11.040   5.653
 4989POPC   PO465388  36.788  10.401   5.428
 4989POPC   GL165389  36.957  10.572   5.774
 4989POPC   GL265390  36.651  10.577   5.900
 4989POPC   C1A65391  37.143  10.513   6.170
 4989POPC   D2A65392  37.440  10.670   6.459
 4989POPC   C3A65393  37.302  10.624   6.875
 4989POPC   C4A65394  37.243  10.602   7.311
 4989POPC   C1B65395  36.663  10.357   6.272
 4989POPC   C2B65396  36.800  10.567   6.630
 4989POPC   C3B65397  36.848  10.442   7.041
 4989POPC   C4B65398  36.732  10.687   7.409
 4990POPC   NC365399   1.897   8.176   5.489
 4990POPC   PO465400   2.445   8.594   5.538
 4990POPC   GL165401   2.131   8.455   5.872
 4990POPC   GL265402   2.117   8.080   5.953
 4990POPC   C1A65403   2.068   8.415   6.333
 4990POPC   D2A65404   2.185   8.586   6.731
 4990POPC   C3A65405   2.059   8.259   6.988
 4990POPC   C4A65406   1.627   8.344   7.109
 4990POPC   C1B65407   1.803   7.787   6.123
 4990POPC   C2B65408   1.652   7.842   6.538
 4990POPC   C3B65409   1.730   7.869   6.955
 4990POPC   C4B65410   1.956   7.690   7.238
 4991POPC   NC365411  42.453  32.446   5.394
 4991POPC   PO465412  42.034  31.851   5.412
 4991POPC   GL165413  42.254  31.919   5.810
 4991POPC   GL265414  42.557  31.787   5.909
 4991POPC   C1A65415  42.078  32.037   6.238
 4991POPC   D2A65416  41.973  32.066   6.645
 4991POPC   C3A65417  42.031  32.311   6.999
 4991POPC   C4A65418  41.905  32.087   7.366
 4991POPC   C1B65419  42.549  32.190   6.148
 4991POPC   C2B65420  42.420  32.308   6.576
 4991POPC   C3B65421  42.551  32.395   6.992
 4991POPC   C4B65422  42.745  32.172   7.345
 4992POPC   NC365423  15.516  35.261   5.515
 4992POPC   PO465424  14.959  35.503   5.483
 4992POPC   GL165425  15.165  35.464   5.837
 4992POPC   GL265426  15.100  35.104   5.839
 4992POPC   C1A65427  15.294  35.689   6.186
 4992POPC   D2A65428  15.196  35.511   6.579
 4992POPC   C3A65429  15.211  35.668   6.965
 4992POPC   C4A65430  15.156  35.541   7.386
 4992POPC   C1B65431  15.445  34.950   6.093
 4992POPC   C2B65432  15.449  34.904   6.521
 4992POPC   C3B65433  15.411  35.152   6.873
 4992POPC   C4B65434  15.327  35.064   7.277
 4993POPC   NC365435   5.561  15.053   5.041
 4993POPC   PO465436   5.230  15.399   5.550
 4993POPC   GL165437   5.245  15.411   5.983
 4993POPC   GL265438   5.554  15.326   6.050
 4993POPC   C1A65439   5.192  15.540   6.423
 4993POPC   D2A65440   5.213  15.486   6.895
 4993POPC   C3A65441   5.096  15.099   7.166
 4993POPC   C4A65442   5.108  14.681   7.411
 4993POPC   C1B65443   5.491  15.111   6.429
 4993POPC   C2B65444   5.536  15.089   6.878
 4993POPC   C3B65445   5.561  15.245   7.297
 4993POPC   C4B65446   5.382  15.026   7.669
 4994POPC   NC365447  34.468  29.479   5.393
 4994POPC   PO465448  34.877  29.980   5.607
 4994POPC   GL165449  34.700  29.658   5.840
 4994POPC   GL265450  34.370  29.819   5.753
 4994POPC   C1A65451  34.784  29.642   6.293
 4994POPC   D2A65452  34.655  30.021   6.533
 4994POPC   C3A65453  34.859  30.076   6.890
 4994POPC   C4A65454  34.716  30.056   7.312
 4994POPC   C1B65455  34.333  29.822   6.182
 4994POPC   C2B65456  34.370  29.599   6.604
 4994POPC   C3B65457  34.411  29.765   7.009
 4994POPC   C4B65458  34.271  30.202   7.020
 4995POPC   NC365459  16.035  12.457   5.582
 4995POPC   PO465460  15.703  12.937   5.146
 4995POPC   GL165461  15.740  12.882   5.719
 4995POPC   GL265462  16.072  12.812   5.942
 4995POPC   C1A65463  15.770  13.153   6.120
 4995POPC   D2A65464  16.102  13.110   6.436
 4995POPC   C3A65465  16.044  12.885   6.834
 4995POPC   C4A65466  15.831  13.009   7.208
 4995POPC   C1B65467  15.764  12.633   6.215
 4995POPC   C2B65468  15.928  12.383   6.536
 4995POPC   C3B65469  16.265  12.381   6.817
 4995POPC   C4B65470  16.246  12.410   7.250
 4996POPC   NC365471  29.228  26.390   5.239
 4996POPC   PO465472  29.247  27.025   5.286
 4996POPC   GL165473  29.265  26.937   5.706
 4996POPC   GL265474  29.152  26.607   5.799
 4996POPC   C1A65475  29.165  26.991   6.137
 4996POPC   D2A65476  29.315  26.781   6.503
 4996POPC   C3A65477  29.203  26.967   6.877
 4996POPC   C4A65478  29.271  26.985   7.308
 4996POPC   C1B65479  28.945  26.525   6.232
 4996POPC   C2B65480  28.936  26.537   6.726
 4996POPC   C3B65481  29.173  26.511   7.140
 4996POPC   C4B65482  29.336  26.563   7.587
 4997POPC   NC365483   8.220  43.683   5.304
 4997POPC   PO465484   8.370  44.302   5.312
 4997POPC   GL165485   8.204  44.062   5.714
 4997POPC   GL265486   8.554  44.066   5.779
 4997POPC   C1A65487   7.964  43.943   6.161
 4997POPC   D2A65488   7.931  43.754   6.624
 4997POPC   C3A65489   8.166  43.845   7.018
 4997POPC   C4A65490   8.312  43.721   7.437
 4997POPC   C1B65491   8.450  43.810   6.108
 4997POPC   C2B65492   8.448  43.789   6.559
 4997POPC   C3B65493   8.603  44.066   6.899
 4997POPC   C4B65494   8.512  44.185   7.313
 4998POPC   NC365495  12.373   6.338   5.352
 4998POPC   PO465496  12.999   6.563   5.447
 4998POPC   GL165497  12.873   6.574   5.878
 4998POPC   GL265498  12.582   6.377   5.827
 4998POPC   C1A65499  12.846   6.839   6.274
 4998POPC   D2A65500  12.763   6.708   6.690
 4998POPC   C3A65501  12.872   6.865   7.112
 4998POPC   C4A65502  12.837   6.844   7.594
 4998POPC   C1B65503  12.379   6.689   6.097
 4998POPC   C2B65504  12.309   6.877   6.494
 4998POPC   C3B65505  12.374   6.881   6.938
 4998POPC   C4B65506  12.414   6.696   7.333
 4999POPC   NC365507  38.102  22.522   5.618
 4999POPC   PO465508  38.486  22.929   5.208
 4999POPC   GL165509  38.494  22.862   5.688
 4999POPC   GL265510  38.604  22.579   5.926
 4999POPC   C1A65511  38.380  22.977   6.125
 4999POPC   D2A65512  38.270  22.944   6.577
 4999POPC   C3A65513  38.445  23.137   6.937
 4999POPC   C4A65514  38.286  23.233   7.318
 4999POPC   C1B65515  38.346  22.483   6.300
 4999POPC   C2B65516  38.419  22.484   6.775
 4999POPC   C3B65517  38.334  22.706   7.185
 4999POPC   C4B65518  38.711  22.797   7.439
 5000POPC   NC365519  12.353  24.960   5.434
 5000POPC   PO465520  12.172  25.643   5.574
 5000POPC   GL165521  12.003  25.306   5.853
 5000POPC   GL265522  11.781  25.573   5.935
 5000POPC   C1A65523  12.066  25.106   6.290
 5000POPC   D2A65524  12.167  25.296   6.718
 5000POPC   C3A65525  12.113  25.080   7.113
 5000POPC   C4A65526  12.140  25.032   7.569
 5000POPC   C1B65527  11.989  25.613   6.327
 5000POPC   C2B65528  11.858  25.745   6.720
 5000POPC   C3B65529  11.804  25.517   7.056
 5000POPC   C4B65530  12.063  25.492   7.385
 5001POPC   NC365531  18.778   0.538   5.536
 5001POPC   PO465532  19.232   0.728   5.119
 5001POPC   GL165533  19.238   0.643   5.673
 5001POPC   GL265534  19.286   0.295   5.743
 5001POPC   C1A65535  19.035   0.624   6.118
 5001POPC   D2A65536  19.028   0.817   6.517
 5001POPC   C3A65537  18.916   0.700   6.950
 5001POPC   C4A65538  18.785   0.419   7.294
 5001POPC   C1B65539  19.322   0.214   6.169
 5001POPC   C2B65540  19.059   0.285   6.547
 5001POPC   C3B65541  19.167   0.239   6.981
 5001POPC   C4B65542  19.053  44.976   7.338
 5002POPC   NC365543  12.556  12.656   5.534
 5002POPC   PO465544  12.870  13.257   5.453
 5002POPC   GL165545  12.883  12.927   5.846
 5002POPC   GL265546  12.727  12.562   5.990
 5002POPC   C1A65547  12.809  12.955   6.292
 5002POPC   D2A65548  13.052  12.945   6.631
 5002POPC   C3A65549  12.865  12.895   7.008
 5002POPC   C4A65550  13.084  12.898   7.430
 5002POPC   C1B65551  12.356  12.728   6.191
 5002POPC   C2B65552  12.306  12.863   6.606
 5002POPC   C3B65553  12.394  12.643   6.984
 5002POPC   C4B65554  12.690  12.560   7.329
 5003POPC   NC365555   1.181  29.567   5.584
 5003POPC   PO465556   1.499  30.175   5.355
 5003POPC   GL165557   1.530  30.193   5.779
 5003POPC   GL265558   1.326  29.922   5.906
 5003POPC   C1A65559   1.538  30.261   6.229
 5003POPC   D2A65560   1.216  30.149   6.522
 5003POPC   C3A65561   1.293  30.156   6.958
 5003POPC   C4A65562   1.041  30.331   7.235
 5003POPC   C1B65563   1.195  29.673   6.302
 5003POPC   C2B65564   1.112  29.705   6.768
 5003POPC   C3B65565   1.315  29.689   7.172
 5003POPC   C4B65566   1.584  29.624   7.528
 5004POPC   NC365567  41.033  21.595   5.006
 5004POPC   PO465568  40.673  21.266   5.442
 5004POPC   GL165569  40.764  21.289   5.877
 5004POPC   GL265570  40.794  20.970   5.899
 5004POPC   C1A65571  40.852  21.587   6.241
 5004POPC   D2A65572  40.886  21.489   6.653
 5004POPC   C3A65573  40.886  21.751   7.008
 5004POPC   C4A65574  40.649  21.797   7.361
 5004POPC   C1B65575  40.692  21.070   6.321
 5004POPC   C2B65576  40.947  20.987   6.629
 5004POPC   C3B65577  40.902  21.118   7.019
 5004POPC   C4B65578  40.961  20.874   7.378
 5005POPC   NC365579   2.921  44.489   5.316
 5005POPC   PO465580   2.603   0.102   5.419
 5005POPC   GL165581   2.850  44.825   5.721
 5005POPC   GL265582   2.710  44.474   5.784
 5005POPC   C1A65583   3.020  44.792   6.170
 5005POPC   D2A65584   2.979   0.045   6.560
 5005POPC   C3A65585   2.881  44.831   6.967
 5005POPC   C4A65586   2.496  44.875   7.253
 5005POPC   C1B65587   2.876  44.298   6.191
 5005POPC   C2B65588   2.934  44.415   6.643
 5005POPC   C3B65589   2.600  44.398   6.998
 5005POPC   C4B65590   2.598  44.369   7.462
 5006POPC   NC365591   5.943  21.611   5.386
 5006POPC   PO465592   5.465  21.167   5.540
 5006POPC   GL165593   5.708  21.372   5.876
 5006POPC   GL265594   6.045  21.254   5.808
 5006POPC   C1A65595   5.585  21.547   6.324
 5006POPC   D2A65596   5.548  21.564   6.796
 5006POPC   C3A65597   5.921  21.371   7.007
 5006POPC   C4A65598   6.148  21.304   7.406
 5006POPC   C1B65599   6.084  21.415   6.253
 5006POPC   C2B65600   6.379  21.398   6.611
 5006POPC   C3B65601   6.406  21.563   7.035
 5006POPC   C4B65602   6.473  21.946   7.235
 5007POPC   NC365603  32.546   1.037   5.412
 5007POPC   PO465604  32.022   1.546   5.506
 5007POPC   GL165605  32.114   1.444   5.935
 5007POPC   GL265606  32.415   1.242   5.876
 5007POPC   C1A65607  31.960   1.269   6.342
 5007POPC   D2A65608  32.146   0.985   6.665
 5007POPC   C3A65609  32.239   1.119   7.079
 5007POPC   C4A65610  32.214   1.390   7.455
 5007POPC   C1B65611  32.388   0.944   6.214
 5007POPC   C2B65612  32.592   0.737   6.592
 5007POPC   C3B65613  32.748   0.893   7.029
 5007POPC   C4B65614  32.566   1.004   7.457
 5008POPC   NC365615  43.678  19.331   5.392
 5008POPC   PO465616  44.179  18.938   5.388
 5008POPC   GL165617  43.925  18.949   5.770
 5008POPC   GL265618  43.926  19.288   5.838
 5008POPC   C1A65619  44.018  18.939   6.238
 5008POPC   D2A65620  44.195  18.739   6.633
 5008POPC   C3A65621  44.156  19.032   6.981
 5008POPC   C4A65622  43.766  19.159   7.197
 5008POPC   C1B65623  43.773  19.420   6.241
 5008POPC   C2B65624  43.807  19.341   6.673
 5008POPC   C3B65625  43.713  19.642   6.972
 5008POPC   C4B65626  43.569  19.607   7.383
 5009POPC   NC365627   3.022   1.238   5.485
 5009POPC   PO465628   2.355   1.001   5.610
 5009POPC   GL165629   2.696   1.069   5.848
 5009POPC   GL265630   2.710   1.435   5.870
 5009POPC   C1A65631   2.852   1.099   6.265
 5009POPC   D2A65632   2.671   1.410   6.541
 5009POPC   C3A65633   2.795   1.270   6.919
 5009POPC   C4A65634   2.596   1.072   7.266
 5009POPC   C1B65635   3.020   1.581   6.182
 5009POPC   C2B65636   3.180   1.473   6.568
 5009POPC   C3B65637   3.147   1.657   6.975
 5009POPC   C4B65638   2.875   1.609   7.316
 5010POPC   NC365639  14.598  18.621   5.477
 5010POPC   PO465640  14.018  18.268   5.310
 5010POPC   GL165641  14.242  18.315   5.693
 5010POPC   GL265642  14.131  18.640   5.790
 5010POPC   C1A65643  14.453  18.400   6.120
 5010POPC   D2A65644  14.635  18.574   6.525
 5010POPC   C3A65645  14.511  18.326   6.882
 5010POPC   C4A65646  14.408  18.181   7.288
 5010POPC   C1B65647  13.967  18.550   6.188
 5010POPC   C2B65648  14.129  18.558   6.580
 5010POPC   C3B65649  14.048  18.499   7.008
 5010POPC   C4B65650  13.808  18.734   7.266
 5011POPC   NC365651  42.234  27.953   5.486
 5011POPC   PO465652  42.717  28.372   5.259
 5011POPC   GL165653  42.513  28.379   5.731
 5011POPC   GL265654  42.457  28.083   5.931
 5011POPC   C1A65655  42.451  28.695   6.092
 5011POPC   D2A65656  42.128  28.735   6.445
 5011POPC   C3A65657  42.147  28.433   6.785
 5011POPC   C4A65658  42.352  28.508   7.201
 5011POPC   C1B65659  42.298  28.247   6.298
 5011POPC   C2B65660  42.610  28.341   6.601
 5011POPC   C3B65661  42.698  28.140   6.975
 5011POPC   C4B65662  42.379  28.004   7.257
 5012POPC   NC365663  27.050  23.810   5.558
 5012POPC   PO465664  27.636  23.902   5.241
 5012POPC   GL165665  27.571  23.773   5.684
 5012POPC   GL265666  27.873  23.600   5.833
 5012POPC   C1A65667  27.488  23.729   6.161
 5012POPC   D2A65668  27.639  23.846   6.614
 5012POPC   C3A65669  27.600  23.726   7.085
 5012POPC   C4A65670  27.713  23.913   7.504
 5012POPC   C1B65671  27.950  23.542   6.319
 5012POPC   C2B65672  28.014  23.534   6.810
 5012POPC   C3B65673  28.106  23.699   7.244
 5012POPC   C4B65674  28.067  23.582   7.696
 5013POPC   NC365675  13.385   2.356   5.590
 5013POPC   PO465676  13.789   1.851   5.384
 5013POPC   GL165677  13.722   2.004   5.791
 5013POPC   GL265678  13.393   1.859   5.758
 5013POPC   C1A65679  13.701   2.227   6.211
 5013POPC   D2A65680  13.491   2.131   6.605
 5013POPC   C3A65681  13.707   2.191   7.009
 5013POPC   C4A65682  13.715   2.024   7.432
 5013POPC   C1B65683  13.447   1.750   6.195
 5013POPC   C2B65684  13.232   1.610   6.573
 5013POPC   C3B65685  13.210   1.848   6.941
 5013POPC   C4B65686  13.281   1.766   7.348
 5014POPC   NC365687  43.777  20.903   5.436
 5014POPC   PO465688  44.080  20.393   5.148
 5014POPC   GL165689  44.043  20.471   5.669
 5014POPC   GL265690  43.769  20.394   5.977
 5014POPC   C1A65691  44.130  20.751   6.051
 5014POPC   D2A65692  44.116  20.901   6.494
 5014POPC   C3A65693  44.257  20.711   6.851
 5014POPC   C4A65694  44.083  20.490   7.212
 5014POPC   C1B65695  43.660  20.694   6.311
 5014POPC   C2B65696  43.733  20.647   6.759
 5014POPC   C3B65697  43.551  20.467   7.123
 5014POPC   C4B65698  43.663  20.466   7.538
 5015POPC   NC365699  35.639  22.463   5.155
 5015POPC   PO465700  35.466  21.783   5.210
 5015POPC   GL165701  35.375  22.119   5.554
 5015POPC   GL265702  35.272  22.483   5.544
 5015POPC   C1A65703  35.312  22.055   6.018
 5015POPC   D2A65704  35.288  22.135   6.496
 5015POPC   C3A65705  35.457  22.133   6.938
 5015POPC   C4A65706  35.475  21.909   7.365
 5015POPC   C1B65707  35.224  22.562   6.006
 5015POPC   C2B65708  35.289  22.654   6.465
 5015POPC   C3B65709  35.144  22.562   6.873
 5015POPC   C4B65710  35.202  22.494   7.315
 5016POPC   NC365711  38.845  43.092   5.352
 5016POPC   PO465712  39.520  43.213   5.295
 5016POPC   GL165713  39.504  43.087   5.726
 5016POPC   GL265714  39.169  43.038   5.749
 5016POPC   C1A65715  39.360  43.303   6.142
 5016POPC   D2A65716  39.246  43.111   6.540
 5016POPC   C3A65717  39.221  43.271   6.996
 5016POPC   C4A65718  38.956  43.237   7.380
 5016POPC   C1B65719  39.317  42.779   6.094
 5016POPC   C2B65720  39.474  42.652   6.466
 5016POPC   C3B65721  39.265  42.694   6.855
 5016POPC   C4B65722  39.247  42.839   7.270
 5017POPC   NC365723  30.214   1.295   5.278
 5017POPC   PO465724  29.604   1.571   5.191
 5017POPC   GL165725  29.791   1.438   5.627
 5017POPC   GL265726  29.817   1.109   5.633
 5017POPC   C1A65727  29.989   1.491   6.083
 5017POPC   D2A65728  30.052   1.570   6.583
 5017POPC   C3A65729  29.876   1.310   6.963
 5017POPC   C4A65730  30.013   1.044   7.326
 5017POPC   C1B65731  29.701   1.076   6.064
 5017POPC   C2B65732  29.660   1.105   6.535
 5017POPC   C3B65733  29.445   0.972   6.931
 5017POPC   C4B65734  29.617   0.717   7.266
 5018POPC   NC365735  44.434   8.944   5.499
 5018POPC   PO465736  44.984   9.383   5.349
 5018POPC   GL165737  44.788   9.195   5.772
 5018POPC   GL265738  44.417   9.192   5.938
 5018POPC   C1A65739  44.842   9.167   6.239
 5018POPC   D2A65740  44.843   8.849   6.589
 5018POPC   C3A65741  44.761   9.030   7.009
 5018POPC   C4A65742  44.782   9.238   7.437
 5018POPC   C1B65743  44.485   8.800   6.182
 5018POPC   C2B65744  44.335   8.675   6.582
 5018POPC   C3B65745  44.390   8.652   7.010
 5018POPC   C4B65746  44.365   8.941   7.324
 5019POPC   NC365747  12.230  18.501   5.479
 5019POPC   PO465748  12.240  17.932   5.182
 5019POPC   GL165749  12.244  17.941   5.636
 5019POPC   GL265750  11.950  18.117   5.701
 5019POPC   C1A65751  12.317  18.104   6.088
 5019POPC   D2A65752  12.131  18.239   6.495
 5019POPC   C3A65753  12.213  18.193   6.963
 5019POPC   C4A65754  12.418  18.528   7.187
 5019POPC   C1B65755  11.809  18.365   6.063
 5019POPC   C2B65756  11.716  18.517   6.485
 5019POPC   C3B65757  11.573  18.343   6.876
 5019POPC   C4B65758  11.601  18.543   7.262
 5020POPC   NC365759  11.986   4.442   5.394
 5020POPC   PO465760  12.588   4.277   5.481
 5020POPC   GL165761  12.230   4.255   5.821
 5020POPC   GL265762  11.813   4.216   5.827
 5020POPC   C1A65763  12.097   4.250   6.278
 5020POPC   D2A65764  12.149   4.049   6.717
 5020POPC   C3A65765  12.035   4.274   7.073
 5020POPC   C4A65766  12.216   4.119   7.443
 5020POPC   C1B65767  11.614   4.403   6.176
 5020POPC   C2B65768  11.642   4.570   6.584
 5020POPC   C3B65769  11.469   4.547   6.970
 5020POPC   C4B65770  11.575   4.361   7.330
 5021POPC   NC365771   4.481   8.473   5.431
 5021POPC   PO465772   3.888   8.079   5.336
 5021POPC   GL165773   4.137   8.207   5.680
 5021POPC   GL265774   4.370   7.988   5.791
 5021POPC   C1A65775   4.244   8.356   6.127
 5021POPC   D2A65776   4.196   8.518   6.571
 5021POPC   C3A65777   4.412   8.381   6.945
 5021POPC   C4A65778   4.180   8.378   7.335
 5021POPC   C1B65779   4.152   7.841   6.195
 5021POPC   C2B65780   4.248   7.953   6.638
 5021POPC   C3B65781   4.168   7.938   7.087
 5021POPC   C4B65782   4.285   7.922   7.533
 5022POPC   NC365783  34.127  14.473   5.550
 5022POPC   PO465784  33.531  14.056   5.496
 5022POPC   GL165785  33.707  14.348   5.872
 5022POPC   GL265786  34.045  14.310   6.034
 5022POPC   C1A65787  33.679  14.477   6.351
 5022POPC   D2A65788  33.748  14.272   6.773
 5022POPC   C3A65789  33.520  14.409   7.161
 5022POPC   C4A65790  33.418  14.164   7.547
 5022POPC   C1B65791  34.098  14.729   6.233
 5022POPC   C2B65792  34.121  14.901   6.650
 5022POPC   C3B65793  33.991  14.668   7.011
 5022POPC   C4B65794  33.966  14.414   7.390
 5023POPC   NC365795  12.931  21.721   5.431
 5023POPC   PO465796  13.045  21.070   5.327
 5023POPC   GL165797  13.030  21.212   5.738
 5023POPC   GL265798  12.705  21.397   5.792
 5023POPC   C1A65799  13.064  21.337   6.168
 5023POPC   D2A65800  12.804  21.240   6.520
 5023POPC   C3A65801  12.987  21.279   6.935
 5023POPC   C4A65802  12.677  21.324   7.264
 5023POPC   C1B65803  12.734  21.750   6.111
 5023POPC   C2B65804  12.852  21.780   6.548
 5023POPC   C3B65805  12.731  21.743   6.973
 5023POPC   C4B65806  13.010  21.686   7.313
 5024POPC   NC365807   8.626  17.529   5.327
 5024POPC   PO465808   9.289  17.639   5.350
 5024POPC   GL165809   9.053  17.503   5.745
 5024POPC   GL265810   8.672  17.548   5.836
 5024POPC   C1A65811   9.039  17.524   6.204
 5024POPC   D2A65812   9.193  17.452   6.613
 5024POPC   C3A65813   9.280  17.705   6.947
 5024POPC   C4A65814   9.122  17.467   7.317
 5024POPC   C1B65815   8.569  17.283   6.216
 5024POPC   C2B65816   8.745  17.190   6.628
 5024POPC   C3B65817   8.676  17.336   7.054
 5024POPC   C4B65818   8.631  17.634   7.410
 5025POPC   NC365819  18.616   8.095   5.360
 5025POPC   PO465820  17.995   8.255   5.250
 5025POPC   GL165821  18.065   8.247   5.785
 5025POPC   GL265822  18.426   8.345   5.789
 5025POPC   C1A65823  17.941   8.010   6.190
 5025POPC   D2A65824  18.142   7.938   6.605
 5025POPC   C3A65825  17.934   7.821   6.987
 5025POPC   C4A65826  17.831   8.059   7.332
 5025POPC   C1B65827  18.421   8.202   6.214
 5025POPC   C2B65828  18.590   8.178   6.629
 5025POPC   C3B65829  18.403   8.084   7.047
 5025POPC   C4B65830  18.487   7.946   7.475
 5026POPC   NC365831  26.682   5.662   5.543
 5026POPC   PO465832  26.853   6.282   5.296
 5026POPC   GL165833  26.791   6.136   5.720
 5026POPC   GL265834  27.116   5.996   5.744
 5026POPC   C1A65835  26.637   5.959   6.143
 5026POPC   D2A65836  26.693   5.657   6.504
 5026POPC   C3A65837  26.751   5.828   6.918
 5026POPC   C4A65838  26.994   5.748   7.289
 5026POPC   C1B65839  27.077   6.258   6.135
 5026POPC   C2B65840  26.963   6.141   6.558
 5026POPC   C3B65841  27.203   6.096   6.964
 5026POPC   C4B65842  27.184   6.248   7.416
 5027POPC   NC365843  14.738  15.145   5.304
 5027POPC   PO465844  15.321  14.959   5.270
 5027POPC   GL165845  15.136  15.068   5.662
 5027POPC   GL265846  15.017  14.791   5.817
 5027POPC   C1A65847  15.147  15.220   6.119
 5027POPC   D2A65848  15.133  15.068   6.568
 5027POPC   C3A65849  15.219  15.243   6.987
 5027POPC   C4A65850  15.433  15.085   7.355
 5027POPC   C1B65851  14.794  14.865   6.204
 5027POPC   C2B65852  14.618  15.052   6.588
 5027POPC   C3B65853  14.754  15.030   7.009
 5027POPC   C4B65854  14.952  14.983   7.406
 5028POPC   NC365855  42.567  11.642   5.277
 5028POPC   PO465856  42.257  11.069   5.151
 5028POPC   GL165857  42.185  11.386   5.546
 5028POPC   GL265858  42.426  11.293   5.799
 5028POPC   C1A65859  42.167  11.681   5.972
 5028POPC   D2A65860  42.032  11.701   6.419
 5028POPC   C3A65861  42.271  11.691   6.796
 5028POPC   C4A65862  42.283  11.456   7.179
 5028POPC   C1B65863  42.351  11.277   6.270
 5028POPC   C2B65864  42.390  11.192   6.718
 5028POPC   C3B65865  42.366  10.966   7.117
 5028POPC   C4B65866  42.253  10.846   7.517
 5029POPC   NC365867  10.083  17.520   5.584
 5029POPC   PO465868  10.631  17.721   5.421
 5029POPC   GL165869  10.499  17.637   5.858
 5029POPC   GL265870  10.453  17.274   5.816
 5029POPC   C1A65871  10.362  17.678   6.310
 5029POPC   D2A65872  10.172  17.533   6.708
 5029POPC   C3A65873  10.486  17.595   7.052
 5029POPC   C4A65874  10.770  17.959   7.177
 5029POPC   C1B65875  10.334  17.167   6.235
 5029POPC   C2B65876  10.546  17.210   6.642
 5029POPC   C3B65877  10.389  17.096   7.027
 5029POPC   C4B65878  10.442  17.239   7.444
 5030POPC   NC365879  23.735  19.828   5.374
 5030POPC   PO465880  24.224  19.582   5.416
 5030POPC   GL165881  24.027  19.788   5.822
 5030POPC   GL265882  23.751  20.026   5.864
 5030POPC   C1A65883  23.960  19.792   6.304
 5030POPC   D2A65884  23.741  19.631   6.692
 5030POPC   C3A65885  23.942  19.571   7.114
 5030POPC   C4A65886  23.735  19.532   7.529
 5030POPC   C1B65887  23.557  20.124   6.277
 5030POPC   C2B65888  23.571  20.122   6.745
 5030POPC   C3B65889  23.501  19.872   7.149
 5030POPC   C4B65890  23.362  19.877   7.613
 5031POPC   NC365891  23.399  27.089   5.502
 5031POPC   PO465892  23.959  26.796   5.232
 5031POPC   GL165893  23.914  26.794   5.729
 5031POPC   GL265894  23.621  26.910   5.919
 5031POPC   C1A65895  24.024  26.794   6.221
 5031POPC   D2A65896  23.915  27.009   6.653
 5031POPC   C3A65897  23.867  26.792   7.088
 5031POPC   C4A65898  24.226  26.544   7.275
 5031POPC   C1B65899  23.344  27.195   6.182
 5031POPC   C2B65900  23.261  27.196   6.641
 5031POPC   C3B65901  23.529  27.218   7.047
 5031POPC   C4B65902  23.586  27.144   7.508
 5032POPC   NC365903  15.355   3.501   5.411
 5032POPC   PO465904  14.847   3.762   5.251
 5032POPC   GL165905  15.158   3.623   5.822
 5032POPC   GL265906  15.521   3.715   5.874
 5032POPC   C1A65907  15.222   3.693   6.291
 5032POPC   D2A65908  15.344   3.504   6.686
 5032POPC   C3A65909  15.032   3.543   7.002
 5032POPC   C4A65910  15.119   3.528   7.442
 5032POPC   C1B65911  15.697   3.914   6.284
 5032POPC   C2B65912  15.565   3.990   6.747
 5032POPC   C3B65913  15.481   3.784   7.155
 5032POPC   C4B65914  15.553   3.779   7.616
 5033POPC   NC365915  40.475  41.278   5.617
 5033POPC   PO465916  39.997  41.621   5.158
 5033POPC   GL165917  39.881  41.724   5.633
 5033POPC   GL265918  39.620  41.983   5.690
 5033POPC   C1A65919  40.097  41.678   6.067
 5033POPC   D2A65920  40.233  41.422   6.409
 5033POPC   C3A65921  40.126  41.502   6.826
 5033POPC   C4A65922  39.926  41.282   7.099
 5033POPC   C1B65923  39.617  41.804   6.097
 5033POPC   C2B65924  39.794  41.718   6.510
 5033POPC   C3B65925  39.647  41.738   6.943
 5033POPC   C4B65926  39.534  41.520   7.342
 5034POPC   NC365927  18.473  25.661   5.288
 5034POPC   PO465928  18.055  25.111   5.276
 5034POPC   GL165929  18.238  25.168   5.738
 5034POPC   GL265930  18.519  25.402   5.729
 5034POPC   C1A65931  18.349  25.202   6.221
 5034POPC   D2A65932  18.460  24.956   6.614
 5034POPC   C3A65933  18.412  25.074   7.056
 5034POPC   C4A65934  18.313  25.038   7.517
 5034POPC   C1B65935  18.570  25.662   6.094
 5034POPC   C2B65936  18.444  25.701   6.517
 5034POPC   C3B65937  18.688  25.673   6.864
 5034POPC   C4B65938  18.693  25.452   7.264
 5035POPC   NC365939  44.178  30.421   5.539
 5035POPC   PO465940  43.610  30.813   5.366
 5035POPC   GL165941  43.831  30.736   5.733
 5035POPC   GL265942  43.560  30.586   5.828
 5035POPC   C1A65943  44.008  30.618   6.154
 5035POPC   D2A65944  44.037  30.341   6.515
 5035POPC   C3A65945  44.004  30.593   6.857
 5035POPC   C4A65946  44.134  30.917   7.118
 5035POPC   C1B65947  43.407  30.640   6.203
 5035POPC   C2B65948  43.564  30.646   6.554
 5035POPC   C3B65949  43.450  30.740   6.917
 5035POPC   C4B65950  43.684  30.663   7.236
 5036POPC   NC365951  31.158   4.710   5.624
 5036POPC   PO465952  31.547   5.190   5.424
 5036POPC   GL165953  31.345   5.154   5.829
 5036POPC   GL265954  31.212   5.482   5.857
 5036POPC   C1A65955  31.483   4.910   6.207
 5036POPC   D2A65956  31.734   5.039   6.542
 5036POPC   C3A65957  31.553   4.954   6.929
 5036POPC   C4A65958  31.630   5.229   7.220
 5036POPC   C1B65959  31.414   5.437   6.283
 5036POPC   C2B65960  31.529   5.466   6.755
 5036POPC   C3B65961  31.373   5.653   7.167
 5036POPC   C4B65962  31.431   5.458   7.645
 5037POPC   NC365963  10.260  10.044   5.517
 5037POPC   PO465964  10.830   9.714   5.439
 5037POPC   GL165965  10.598   9.809   5.822
 5037POPC   GL265966  10.799   9.634   6.048
 5037POPC   C1A65967  10.421   9.973   6.215
 5037POPC   D2A65968  10.554   9.790   6.613
 5037POPC   C3A65969  10.413   9.926   7.020
 5037POPC   C4A65970  10.689  10.059   7.339
 5037POPC   C1B65971  10.389   9.465   6.191
 5037POPC   C2B65972  10.246   9.380   6.587
 5037POPC   C3B65973  10.418   9.410   6.997
 5037POPC   C4B65974  10.679   9.572   7.343
 5038POPC   NC365975  10.142  11.069   5.504
 5038POPC   PO465976  10.728  11.344   5.455
 5038POPC   GL165977  10.727  11.419   5.885
 5038POPC   GL265978  10.437  11.218   5.897
 5038POPC   C1A65979  10.487  11.564   6.256
 5038POPC   D2A65980  10.371  11.336   6.618
 5038POPC   C3A65981  10.421  11.577   6.952
 5038POPC   C4A65982  10.337  11.352   7.325
 5038POPC   C1B65983  10.648  11.065   6.274
 5038POPC   C2B65984  10.544  10.841   6.642
 5038POPC   C3B65985  10.412  10.948   7.032
 5038POPC   C4B65986  10.632  10.967   7.456
 5039POPC   NC365987   1.432  44.192   5.613
 5039POPC   PO465988   1.101  43.648   5.610
 5039POPC   GL165989   1.183  43.901   5.964
 5039POPC   GL265990   0.968  44.200   5.891
 5039POPC   C1A65991   1.320  44.196   6.302
 5039POPC   D2A65992   1.459  44.272   6.730
 5039POPC   C3A65993   1.688  43.923   6.905
 5039POPC   C4A65994   1.608  43.690   7.296
 5039POPC   C1B65995   0.840  44.001   6.327
 5039POPC   C2B65996   1.115  43.866   6.694
 5039POPC   C3B65997   1.235  43.991   7.132
 5039POPC   C4B65998   1.071  43.763   7.500
 5040POPC   NC365999  20.363  39.872   5.475
 5040POPC   PO466000  20.574  39.194   5.404
 5040POPC   GL166001  20.739  39.217   5.825
 5040POPC   GL266002  20.415  39.145   5.941
 5040POPC   C1A66003  20.815  39.243   6.295
 5040POPC   D2A66004  20.729  39.318   6.735
 5040POPC   C3A66005  20.628  39.159   7.166
 5040POPC   C4A66006  20.306  39.360   7.449
 5040POPC   C1B66007  20.456  38.874   6.288
 5040POPC   C2B66008  20.568  38.828   6.718
 5040POPC   C3B66009  20.452  38.680   7.103
 5040POPC   C4B66010  20.338  38.865   7.511
 5041POPC   NC366011  23.230  34.287   5.381
 5041POPC   PO466012  23.915  34.585   5.433
 5041POPC   GL166013  23.823  34.459   5.882
 5041POPC   GL266014  23.589  34.191   5.836
 5041POPC   C1A66015  23.942  34.546   6.333
 5041POPC   D2A66016  23.991  34.792   6.745
 5041POPC   C3A66017  23.697  34.738   7.104
 5041POPC   C4A66018  23.741  34.414   7.425
 5041POPC   C1B66019  23.404  34.447   6.196
 5041POPC   C2B66020  23.518  34.521   6.637
 5041POPC   C3B66021  23.503  34.274   7.001
 5041POPC   C4B66022  23.315  34.118   7.369
 5042POPC   NC366023  13.345  23.187   5.435
 5042POPC   PO466024  12.703  22.813   5.371
 5042POPC   GL166025  12.960  22.853   5.712
 5042POPC   GL266026  12.916  23.207   5.760
 5042POPC   C1A66027  13.114  22.890   6.140
 5042POPC   D2A66028  12.942  22.849   6.559
 5042POPC   C3A66029  13.119  22.619   6.919
 5042POPC   C4A66030  12.890  22.574   7.304
 5042POPC   C1B66031  12.837  23.346   6.186
 5042POPC   C2B66032  12.735  23.305   6.637
 5042POPC   C3B66033  12.804  23.189   7.087
 5042POPC   C4B66034  12.931  23.289   7.534
 5043POPC   NC366035  43.428   9.113   5.600
 5043POPC   PO466036  42.751   8.909   5.420
 5043POPC   GL166037  43.031   8.830   5.811
 5043POPC   GL266038  43.081   9.120   6.000
 5043POPC   C1A66039  43.270   8.749   6.259
 5043POPC   D2A66040  43.374   8.927   6.691
 5043POPC   C3A66041  43.092   8.734   7.023
 5043POPC   C4A66042  43.088   8.744   7.447
 5043POPC   C1B66043  43.467   9.239   6.244
 5043POPC   C2B66044  43.416   9.480   6.611
 5043POPC   C3B66045  43.116   9.352   6.913
 5043POPC   C4B66046  43.009   9.228   7.319
 5044POPC   NC366047   9.624   6.305   5.188
 5044POPC   PO466048   9.809   5.586   5.283
 5044POPC   GL166049   9.948   5.696   5.751
 5044POPC   GL266050  10.140   6.037   5.831
 5044POPC   C1A66051   9.805   5.846   6.190
 5044POPC   D2A66052   9.495   6.122   6.457
 5044POPC   C3A66053   9.594   6.054   6.907
 5044POPC   C4A66054   9.674   5.699   7.152
 5044POPC   C1B66055  10.356   6.082   6.189
 5044POPC   C2B66056  10.205   6.033   6.587
 5044POPC   C3B66057  10.069   6.268   6.945
 5044POPC   C4B66058   9.981   6.107   7.296
 5045POPC   NC366059  43.798  27.295   5.458
 5045POPC   PO466060  43.664  27.937   5.398
 5045POPC   GL166061  43.715  27.726   5.779
 5045POPC   GL266062  44.052  27.623   5.812
 5045POPC   C1A66063  43.706  27.548   6.194
 5045POPC   D2A66064  43.874  27.706   6.583
 5045POPC   C3A66065  43.977  27.434   6.923
 5045POPC   C4A66066  43.605  27.393   7.160
 5045POPC   C1B66067  44.093  27.946   6.154
 5045POPC   C2B66068  44.159  28.131   6.568
 5045POPC   C3B66069  44.243  27.872   6.927
 5045POPC   C4B66070  44.257  28.021   7.338
 5046POPC   NC366071  30.584  33.797   5.265
 5046POPC   PO466072  31.171  33.917   5.430
 5046POPC   GL166073  30.841  33.745   5.699
 5046POPC   GL266074  30.641  34.054   5.715
 5046POPC   C1A66075  30.661  33.738   6.121
 5046POPC   D2A66076  30.937  33.654   6.478
 5046POPC   C3A66077  30.774  33.606   6.915
 5046POPC   C4A66078  30.396  33.771   7.161
 5046POPC   C1B66079  30.899  34.183   6.086
 5046POPC   C2B66080  30.935  34.262   6.542
 5046POPC   C3B66081  30.734  34.118   6.902
 5046POPC   C4B66082  30.742  34.076   7.332
 5047POPC   NC366083  18.639  36.190   5.080
 5047POPC   PO466084  18.854  35.841   5.575
 5047POPC   GL166085  19.137  36.042   5.858
 5047POPC   GL266086  18.854  36.063   6.055
 5047POPC   C1A66087  19.244  36.322   6.234
 5047POPC   D2A66088  19.095  36.233   6.628
 5047POPC   C3A66089  19.231  36.433   6.970
 5047POPC   C4A66090  19.209  36.176   7.311
 5047POPC   C1B66091  18.735  36.443   6.205
 5047POPC   C2B66092  18.738  36.581   6.566
 5047POPC   C3B66093  18.716  36.415   6.963
 5047POPC   C4B66094  18.849  36.540   7.365
 5048POPC   NC366095   7.325  38.504   5.277
 5048POPC   PO466096   7.387  39.105   5.459
 5048POPC   GL166097   7.511  38.710   5.734
 5048POPC   GL266098   7.455  38.345   5.734
 5048POPC   C1A66099   7.680  38.580   6.160
 5048POPC   D2A66100   7.468  38.623   6.547
 5048POPC   C3A66101   7.534  38.420   6.909
 5048POPC   C4A66102   7.588  38.582   7.285
 5048POPC   C1B66103   7.237  38.368   6.141
 5048POPC   C2B66104   7.176  38.189   6.559
 5048POPC   C3B66105   7.255  37.994   6.960
 5048POPC   C4B66106   7.152  38.224   7.330
 5049POPC   NC366107  39.552  12.393   5.453
 5049POPC   PO466108  39.972  11.940   5.204
 5049POPC   GL166109  40.092  12.170   5.619
 5049POPC   GL266110  40.139  11.887   5.794
 5049POPC   C1A66111  40.065  12.270   6.119
 5049POPC   D2A66112  39.775  12.151   6.484
 5049POPC   C3A66113  39.891  12.285   6.917
 5049POPC   C4A66114  40.247  12.241   7.203
 5049POPC   C1B66115  40.087  11.755   6.220
 5049POPC   C2B66116  40.257  11.934   6.584
 5049POPC   C3B66117  40.133  11.800   6.972
 5049POPC   C4B66118  39.807  11.893   7.257
 5050POPC   NC366119  17.857   6.878   5.332
 5050POPC   PO466120  17.347   6.556   5.429
 5050POPC   GL166121  17.567   6.788   5.742
 5050POPC   GL266122  17.519   6.499   5.907
 5050POPC   C1A66123  17.795   6.861   6.158
 5050POPC   D2A66124  17.876   7.027   6.604
 5050POPC   C3A66125  17.761   6.769   6.981
 5050POPC   C4A66126  17.765   6.717   7.440
 5050POPC   C1B66127  17.598   6.325   6.257
 5050POPC   C2B66128  17.393   6.179   6.582
 5050POPC   C3B66129  17.544   6.304   6.927
 5050POPC   C4B66130  17.367   6.429   7.311
 5051POPC   NC366131   4.684  43.518   5.529
 5051POPC   PO466132   4.368  42.895   5.392
 5051POPC   GL166133   4.349  43.185   5.725
 5051POPC   GL266134   4.645  43.112   5.888
 5051POPC   C1A66135   4.173  43.124   6.149
 5051POPC   D2A66136   4.359  43.077   6.536
 5051POPC   C3A66137   4.072  43.128   6.855
 5051POPC   C4A66138   4.230  43.027   7.261
 5051POPC   C1B66139   4.570  43.430   6.176
 5051POPC   C2B66140   4.560  43.551   6.601
 5051POPC   C3B66141   4.484  43.401   6.984
 5051POPC   C4B66142   4.556  43.508   7.393
 5052POPC   NC366143  20.219  44.028   5.134
 5052POPC   PO466144  19.629  44.226   5.353
 5052POPC   GL166145  19.846  44.022   5.663
 5052POPC   GL266146  20.158  44.175   5.649
 5052POPC   C1A66147  19.762  43.830   6.077
 5052POPC   D2A66148  19.956  43.817   6.498
 5052POPC   C3A66149  19.757  43.892   6.936
 5052POPC   C4A66150  19.723  43.814   7.403
 5052POPC   C1B66151  20.232  44.021   6.074
 5052POPC   C2B66152  20.256  44.216   6.461
 5052POPC   C3B66153  20.252  44.016   6.870
 5052POPC   C4B66154  20.124  44.095   7.257
 5053POPC   NC366155  34.510   4.577   5.322
 5053POPC   PO466156  34.842   3.979   5.508
 5053POPC   GL166157  34.758   4.072   5.899
 5053POPC   GL266158  34.696   4.437   5.838
 5053POPC   C1A66159  34.697   4.120   6.321
 5053POPC   D2A66160  34.395   4.247   6.599
 5053POPC   C3A66161  34.506   4.148   7.014
 5053POPC   C4A66162  34.908   4.033   7.225
 5053POPC   C1B66163  34.369   4.555   6.164
 5053POPC   C2B66164  34.044   4.612   6.534
 5053POPC   C3B66165  34.203   4.589   6.961
 5053POPC   C4B66166  34.615   4.654   7.149
 5054POPC   NC366167  20.319  11.227   5.529
 5054POPC   PO466168  21.033  11.304   5.422
 5054POPC   GL166169  20.760  11.278   5.804
 5054POPC   GL266170  20.573  11.625   5.789
 5054POPC   C1A66171  20.471  11.176   6.187
 5054POPC   D2A66172  20.298  10.977   6.589
 5054POPC   C3A66173  20.435  11.068   6.994
 5054POPC   C4A66174  20.255  11.126   7.439
 5054POPC   C1B66175  20.729  11.615   6.222
 5054POPC   C2B66176  20.763  11.460   6.623
 5054POPC   C3B66177  20.480  11.599   6.929
 5054POPC   C4B66178  20.452  11.582   7.359
 5055POPC   NC366179  17.413  23.206   5.602
 5055POPC   PO466180  17.545  22.563   5.425
 5055POPC   GL166181  17.706  22.792   5.856
 5055POPC   GL266182  17.673  23.125   6.027
 5055POPC   C1A66183  17.626  22.673   6.307
 5055POPC   D2A66184  17.231  22.570   6.538
 5055POPC   C3A66185  17.167  22.691   6.994
 5055POPC   C4A66186  17.490  22.573   7.266
 5055POPC   C1B66187  17.285  23.028   6.264
 5055POPC   C2B66188  17.397  23.022   6.677
 5055POPC   C3B66189  17.602  23.038   7.069
 5055POPC   C4B66190  17.310  23.019   7.413
 5056POPC   NC366191  39.599   0.236   5.501
 5056POPC   PO466192  40.171   0.630   5.461
 5056POPC   GL166193  39.876   0.560   5.846
 5056POPC   GL266194  39.767   0.226   5.978
 5056POPC   C1A66195  39.777   0.645   6.323
 5056POPC   D2A66196  39.755   0.783   6.767
 5056POPC   C3A66197  39.850   0.522   7.046
 5056POPC   C4A66198  39.524   0.364   7.297
 5056POPC   C1B66199  40.120   0.267   6.243
 5056POPC   C2B66200  40.023   0.169   6.674
 5056POPC   C3B66201  39.814   0.015   7.036
 5056POPC   C4B66202  39.969   0.190   7.438
 5057POPC   NC366203  32.502  43.194   5.458
 5057POPC   PO466204  31.863  43.167   5.203
 5057POPC   GL166205  32.054  43.399   5.588
 5057POPC   GL266206  31.764  43.515   5.688
 5057POPC   C1A66207  32.297  43.485   6.051
 5057POPC   D2A66208  32.553  43.348   6.459
 5057POPC   C3A66209  32.400  43.244   6.909
 5057POPC   C4A66210  32.459  43.115   7.386
 5057POPC   C1B66211  31.861  43.232   6.059
 5057POPC   C2B66212  32.037  43.305   6.490
 5057POPC   C3B66213  31.905  43.142   6.893
 5057POPC   C4B66214  31.959  43.220   7.319
 5058POPC   NC366215  10.976  19.645   5.414
 5058POPC   PO466216  11.408  20.066   5.476
 5058POPC   GL166217  11.286  19.817   5.783
 5058POPC   GL266218  11.034  20.037   5.858
 5058POPC   C1A66219  11.483  19.644   6.148
 5058POPC   D2A66220  11.649  19.821   6.520
 5058POPC   C3A66221  11.350  19.706   6.819
 5058POPC   C4A66222  11.432  19.656   7.251
 5058POPC   C1B66223  11.362  20.163   6.145
 5058POPC   C2B66224  11.316  20.214   6.555
 5058POPC   C3B66225  11.180  20.197   6.941
 5058POPC   C4B66226  10.968  19.861   7.140
 5059POPC   NC366227  37.991  34.474   5.266
 5059POPC   PO466228  37.376  34.398   5.371
 5059POPC   GL166229  37.614  34.585   5.728
 5059POPC   GL266230  37.974  34.723   5.768
 5059POPC   C1A66231  37.490  34.531   6.165
 5059POPC   D2A66232  37.597  34.270   6.497
 5059POPC   C3A66233  37.511  34.397   6.922
 5059POPC   C4A66234  37.755  34.299   7.281
 5059POPC   C1B66235  37.809  34.912   6.157
 5059POPC   C2B66236  37.738  34.773   6.596
 5059POPC   C3B66237  37.831  34.777   7.060
 5059POPC   C4B66238  37.530  34.747   7.345
 5060POPC   NC366239  38.578   9.435   5.354
 5060POPC   PO466240  38.649   8.760   5.349
 5060POPC   GL166241  38.431   8.843   5.735
 5060POPC   GL266242  38.350   9.171   5.797
 5060POPC   C1A66243  38.381   8.713   6.153
 5060POPC   D2A66244  38.594   8.877   6.495
 5060POPC   C3A66245  38.452   8.786   6.872
 5060POPC   C4A66246  38.211   8.808   7.235
 5060POPC   C1B66247  38.279   9.206   6.259
 5060POPC   C2B66248  38.456   9.377   6.664
 5060POPC   C3B66249  38.508   9.220   7.111
 5060POPC   C4B66250  38.543   9.077   7.584
 5061POPC   NC366251  41.060  26.940   5.134
 5061POPC   PO466252  41.687  27.048   5.149
 5061POPC   GL166253  41.592  26.845   5.600
 5061POPC   GL266254  41.243  26.683   5.706
 5061POPC   C1A66255  41.653  26.927   6.075
 5061POPC   D2A66256  41.859  26.882   6.517
 5061POPC   C3A66257  41.665  26.789   6.930
 5061POPC   C4A66258  41.484  26.928   7.310
 5061POPC   C1B66259  41.132  26.723   6.178
 5061POPC   C2B66260  41.209  26.690   6.654
 5061POPC   C3B66261  41.243  26.495   7.102
 5061POPC   C4B66262  41.401  26.466   7.548
 5062POPC   NC366263  31.261   0.415   5.544
 5062POPC   PO466264  30.625   0.622   5.249
 5062POPC   GL166265  30.692   0.571   5.704
 5062POPC   GL266266  30.708   0.210   5.798
 5062POPC   C1A66267  30.638   0.540   6.190
 5062POPC   D2A66268  30.661   0.205   6.542
 5062POPC   C3A66269  30.934   0.333   6.886
 5062POPC   C4A66270  30.895   0.685   7.128
 5062POPC   C1B66271  30.337   0.140   6.095
 5062POPC   C2B66272  30.160   0.353   6.475
 5062POPC   C3B66273  30.212   0.175   6.868
 5062POPC   C4B66274  30.513   0.263   7.161
 5063POPC   NC366275  14.589   8.522   5.390
 5063POPC   PO466276  14.167   8.065   5.038
 5063POPC   GL166277  14.284   8.150   5.553
 5063POPC   GL266278  14.164   8.436   5.687
 5063POPC   C1A66279  14.530   8.193   5.981
 5063POPC   D2A66280  14.472   8.324   6.443
 5063POPC   C3A66281  14.457   8.130   6.895
 5063POPC   C4A66282  14.631   8.065   7.350
 5063POPC   C1B66283  14.051   8.296   6.103
 5063POPC   C2B66284  13.952   8.312   6.533
 5063POPC   C3B66285  14.057   8.449   6.933
 5063POPC   C4B66286  14.124   8.204   7.298
 5064POPC   NC366287  44.342   6.914   5.512
 5064POPC   PO466288   0.037   6.857   5.540
 5064POPC   GL166289  44.722   6.732   5.800
 5064POPC   GL266290  44.606   6.401   5.641
 5064POPC   C1A66291  44.697   6.864   6.225
 5064POPC   D2A66292  44.921   6.773   6.600
 5064POPC   C3A66293  44.629   6.882   6.862
 5064POPC   C4A66294  44.502   6.865   7.255
 5064POPC   C1B66295  44.614   6.340   6.103
 5064POPC   C2B66296  44.499   6.473   6.529
 5064POPC   C3B66297  44.624   6.383   6.936
 5064POPC   C4B66298  44.559   6.318   7.325
 5065POPC   NC366299  18.364  44.041   5.235
 5065POPC   PO466300  18.079  43.545   5.257
 5065POPC   GL166301  18.243  43.570   5.680
 5065POPC   GL266302  18.446  43.895   5.733
 5065POPC   C1A66303  18.083  43.741   6.069
 5065POPC   D2A66304  18.248  43.799   6.477
 5065POPC   C3A66305  18.308  43.762   6.920
 5065POPC   C4A66306  18.091  43.947   7.249
 5065POPC   C1B66307  18.577  44.058   6.149
 5065POPC   C2B66308  18.602  44.137   6.601
 5065POPC   C3B66309  18.489  44.232   7.043
 5065POPC   C4B66310  18.443  44.258   7.498
 5066POPC   NC366311  41.817   6.473   5.231
 5066POPC   PO466312  41.645   7.047   5.442
 5066POPC   GL166313  41.726   6.786   5.812
 5066POPC   GL266314  41.827   6.406   5.827
 5066POPC   C1A66315  41.593   6.774   6.239
 5066POPC   D2A66316  41.825   6.679   6.593
 5066POPC   C3A66317  41.749   6.884   6.974
 5066POPC   C4A66318  42.005   7.160   7.229
 5066POPC   C1B66319  41.545   6.276   6.227
 5066POPC   C2B66320  41.366   6.408   6.655
 5066POPC   C3B66321  41.424   6.507   7.114
 5066POPC   C4B66322  41.803   6.615   7.407
 5067POPC   NC366323  42.440  23.392   5.223
 5067POPC   PO466324  42.255  24.055   5.394
 5067POPC   GL166325  42.387  23.840   5.778
 5067POPC   GL266326  42.272  23.519   5.703
 5067POPC   C1A66327  42.489  23.769   6.234
 5067POPC   D2A66328  42.357  23.801   6.666
 5067POPC   C3A66329  42.570  23.839   7.082
 5067POPC   C4A66330  42.295  23.810   7.464
 5067POPC   C1B66331  42.283  23.302   6.083
 5067POPC   C2B66332  42.070  23.313   6.461
 5067POPC   C3B66333  42.046  23.163   6.859
 5067POPC   C4B66334  42.299  23.401   7.120
 5068POPC   NC366335  42.453  28.729   5.393
 5068POPC   PO466336  42.624  29.435   5.251
 5068POPC   GL166337  42.515  29.185   5.708
 5068POPC   GL266338  42.166  29.113   5.834
 5068POPC   C1A66339  42.543  29.276   6.203
 5068POPC   D2A66340  42.631  29.557   6.620
 5068POPC   C3A66341  42.653  29.359   7.055
 5068POPC   C4A66342  42.708  28.936   7.247
 5068POPC   C1B66343  42.008  29.339   6.199
 5068POPC   C2B66344  42.166  29.233   6.595
 5068POPC   C3B66345  42.209  29.042   6.991
 5068POPC   C4B66346  42.141  29.451   7.137
 5069POPC   NC366347  39.175   5.203   5.156
 5069POPC   PO466348  39.218   5.902   5.334
 5069POPC   GL166349  39.068   5.917   5.775
 5069POPC   GL266350  38.727   5.806   5.774
 5069POPC   C1A66351  39.211   6.032   6.213
 5069POPC   D2A66352  39.357   6.154   6.656
 5069POPC   C3A66353  39.545   5.847   6.907
 5069POPC   C4A66354  39.347   5.704   7.261
 5069POPC   C1B66355  38.851   5.665   6.203
 5069POPC   C2B66356  38.859   5.916   6.601
 5069POPC   C3B66357  38.900   5.940   7.050
 5069POPC   C4B66358  38.819   5.680   7.401
 5070POPC   NC366359  19.668  11.495   5.472
 5070POPC   PO466360  19.968  10.932   5.528
 5070POPC   GL166361  19.816  11.160   5.857
 5070POPC   GL266362  19.968  11.486   5.894
 5070POPC   C1A66363  19.941  11.191   6.293
 5070POPC   D2A66364  19.811  11.129   6.700
 5070POPC   C3A66365  20.018  11.356   7.018
 5070POPC   C4A66366  19.791  11.049   7.237
 5070POPC   C1B66367  19.557  11.504   6.161
 5070POPC   C2B66368  19.374  11.415   6.608
 5070POPC   C3B66369  19.512  11.435   7.020
 5070POPC   C4B66370  19.711  11.504   7.411
 5071POPC   NC366371   5.993  13.155   5.465
 5071POPC   PO466372   5.646  13.821   5.462
 5071POPC   GL166373   5.951  13.667   5.839
 5071POPC   GL266374   6.070  13.304   5.960
 5071POPC   C1A66375   6.043  13.693   6.297
 5071POPC   D2A66376   5.819  13.583   6.718
 5071POPC   C3A66377   6.023  13.646   7.112
 5071POPC   C4A66378   5.907  13.814   7.482
 5071POPC   C1B66379   5.718  13.308   6.279
 5071POPC   C2B66380   5.630  13.118   6.718
 5071POPC   C3B66381   5.667  13.250   7.202
 5071POPC   C4B66382   5.623  13.391   7.673
 5072POPC   NC366383  40.896  32.624   5.442
 5072POPC   PO466384  40.553  33.177   5.452
 5072POPC   GL166385  40.728  33.017   5.784
 5072POPC   GL266386  40.582  32.703   5.838
 5072POPC   C1A66387  40.912  33.037   6.193
 5072POPC   D2A66388  40.805  32.914   6.595
 5072POPC   C3A66389  40.685  33.210   6.881
 5072POPC   C4A66390  40.985  33.088   7.091
 5072POPC   C1B66391  40.733  32.552   6.231
 5072POPC   C2B66392  40.683  32.430   6.670
 5072POPC   C3B66393  40.872  32.584   7.052
 5072POPC   C4B66394  40.782  32.803   7.444
 5073POPC   NC366395  16.503  21.604   5.680
 5073POPC   PO466396  17.019  21.447   5.323
 5073POPC   GL166397  16.977  21.443   5.810
 5073POPC   GL266398  16.803  21.167   5.974
 5073POPC   C1A66399  16.841  21.622   6.236
 5073POPC   D2A66400  16.804  21.858   6.638
 5073POPC   C3A66401  16.890  21.637   7.000
 5073POPC   C4A66402  16.579  21.491   7.233
 5073POPC   C1B66403  16.870  21.089   6.384
 5073POPC   C2B66404  16.668  21.242   6.720
 5073POPC   C3B66405  16.600  21.025   7.068
 5073POPC   C4B66406  16.927  21.152   7.380
 5074POPC   NC366407   5.123  19.929   5.238
 5074POPC   PO466408   4.747  19.529   5.637
 5074POPC   GL166409   4.916  19.795   5.908
 5074POPC   GL266410   4.957  20.068   5.705
 5074POPC   C1A66411   4.996  19.817   6.359
 5074POPC   D2A66412   5.358  19.599   6.523
 5074POPC   C3A66413   5.383  19.522   6.938
 5074POPC   C4A66414   5.220  19.686   7.285
 5074POPC   C1B66415   5.311  20.099   6.027
 5074POPC   C2B66416   5.402  20.126   6.480
 5074POPC   C3B66417   5.250  20.052   6.894
 5074POPC   C4B66418   5.210  20.217   7.311
 5075POPC   NC366419  10.849  39.050   5.342
 5075POPC   PO466420  10.213  39.239   5.129
 5075POPC   GL166421  10.295  39.349   5.595
 5075POPC   GL266422  10.399  39.035   5.735
 5075POPC   C1A66423  10.534  39.471   6.009
 5075POPC   D2A66424  10.631  39.394   6.489
 5075POPC   C3A66425  10.669  39.607   6.928
 5075POPC   C4A66426  10.602  39.301   7.227
 5075POPC   C1B66427  10.556  38.956   6.173
 5075POPC   C2B66428  10.602  38.774   6.600
 5075POPC   C3B66429  10.430  38.857   7.017
 5075POPC   C4B66430  10.407  38.882   7.489
 5076POPC   NC366431  30.195   0.526   5.588
 5076POPC   PO466432  29.582   0.668   5.285
 5076POPC   GL166433  29.728   0.629   5.763
 5076POPC   GL266434  29.825   0.293   5.855
 5076POPC   C1A66435  29.733   0.598   6.233
 5076POPC   D2A66436  29.573   0.598   6.627
 5076POPC   C3A66437  29.915   0.766   6.845
 5076POPC   C4A66438  30.131   0.594   7.141
 5076POPC   C1B66439  29.833   0.068   6.205
 5076POPC   C2B66440  29.712   0.120   6.622
 5076POPC   C3B66441  29.734   0.280   7.038
 5076POPC   C4B66442  29.595   0.227   7.479
 5077POPC   NC366443  35.045   5.271   5.496
 5077POPC   PO466444  34.410   5.024   5.380
 5077POPC   GL166445  34.672   4.987   5.740
 5077POPC   GL266446  34.661   5.360   5.816
 5077POPC   C1A66447  34.631   4.999   6.206
 5077POPC   D2A66448  34.524   4.861   6.638
 5077POPC   C3A66449  34.797   5.078   6.949
 5077POPC   C4A66450  35.127   5.068   7.248
 5077POPC   C1B66451  34.605   5.518   6.229
 5077POPC   C2B66452  34.373   5.363   6.596
 5077POPC   C3B66453  34.311   5.199   7.013
 5077POPC   C4B66454  34.501   5.324   7.410
 5078POPC   NC366455   6.506  14.867   5.311
 5078POPC   PO466456   6.609  14.243   5.470
 5078POPC   GL166457   6.706  14.574   5.789
 5078POPC   GL266458   6.742  14.309   5.973
 5078POPC   C1A66459   6.751  14.732   6.250
 5078POPC   D2A66460   6.702  14.430   6.625
 5078POPC   C3A66461   6.496  14.558   7.024
 5078POPC   C4A66462   6.618  14.649   7.452
 5078POPC   C1B66463   6.393  14.060   6.066
 5078POPC   C2B66464   6.387  14.038   6.461
 5078POPC   C3B66465   6.331  14.101   6.876
 5078POPC   C4B66466   6.230  14.141   7.276
 5079POPC   NC366467   7.279  43.388   5.140
 5079POPC   PO466468   7.585  42.840   5.494
 5079POPC   GL166469   7.362  43.041   5.866
 5079POPC   GL266470   7.695  43.141   6.061
 5079POPC   C1A66471   7.227  43.218   6.281
 5079POPC   D2A66472   7.409  42.932   6.571
 5079POPC   C3A66473   7.545  43.095   6.951
 5079POPC   C4A66474   7.243  43.175   7.263
 5079POPC   C1B66475   7.609  43.559   6.237
 5079POPC   C2B66476   7.473  43.543   6.667
 5079POPC   C3B66477   7.321  43.636   7.071
 5079POPC   C4B66478   7.372  43.596   7.529
 5080POPC   NC366479  10.342  32.702   5.463
 5080POPC   PO466480  10.584  32.064   5.291
 5080POPC   GL166481  10.521  32.208   5.722
 5080POPC   GL266482  10.247  32.058   5.903
 5080POPC   C1A66483  10.618  32.248   6.177
 5080POPC   D2A66484  10.516  32.452   6.577
 5080POPC   C3A66485  10.837  32.351   6.890
 5080POPC   C4A66486  10.806  32.069   7.235
 5080POPC   C1B66487  10.188  32.032   6.365
 5080POPC   C2B66488  10.437  31.964   6.751
 5080POPC   C3B66489  10.349  32.241   7.092
 5080POPC   C4B66490  10.043  32.210   7.392
 5081POPC   NC366491  34.467  12.155   5.371
 5081POPC   PO466492  34.963  11.806   5.631
 5081POPC   GL166493  34.726  12.112   5.814
 5081POPC   GL266494  34.466  11.853   5.840
 5081POPC   C1A66495  34.606  12.326   6.191
 5081POPC   D2A66496  34.494  12.200   6.613
 5081POPC   C3A66497  34.670  12.422   6.971
 5081POPC   C4A66498  34.583  12.274   7.334
 5081POPC   C1B66499  34.602  11.801   6.270
 5081POPC   C2B66500  34.494  11.690   6.696
 5081POPC   C3B66501  34.598  11.754   7.139
 5081POPC   C4B66502  34.370  11.867   7.509
 5082POPC   NC366503  21.351  11.696   5.499
 5082POPC   PO466504  21.635  12.281   5.704
 5082POPC   GL166505  21.418  12.044   5.940
 5082POPC   GL266506  21.641  11.768   5.927
 5082POPC   C1A66507  21.445  12.155   6.359
 5082POPC   D2A66508  21.227  12.063   6.718
 5082POPC   C3A66509  21.270  12.379   6.977
 5082POPC   C4A66510  21.190  12.218   7.320
 5082POPC   C1B66511  21.753  11.740   6.362
 5082POPC   C2B66512  21.735  11.952   6.761
 5082POPC   C3B66513  21.572  11.898   7.170
 5082POPC   C4B66514  21.767  11.771   7.567
 5083POPC   NC366515  17.372  21.678   5.516
 5083POPC   PO466516  17.304  20.996   5.364
 5083POPC   GL166517  17.453  21.246   5.758
 5083POPC   GL266518  17.748  21.504   5.796
 5083POPC   C1A66519  17.310  21.380   6.192
 5083POPC   D2A66520  17.141  21.443   6.609
 5083POPC   C3A66521  17.276  21.246   6.997
 5083POPC   C4A66522  17.602  21.201   7.311
 5083POPC   C1B66523  17.547  21.815   6.112
 5083POPC   C2B66524  17.573  21.706   6.533
 5083POPC   C3B66525  17.394  21.746   6.923
 5083POPC   C4B66526  17.442  21.682   7.327
 5084POPC   NC366527  41.217  40.275   5.391
 5084POPC   PO466528  40.747  39.907   5.516
 5084POPC   GL166529  40.844  40.086   5.865
 5084POPC   GL266530  40.848  39.741   5.987
 5084POPC   C1A66531  40.657  40.160   6.260
 5084POPC   D2A66532  40.698  39.985   6.664
 5084POPC   C3A66533  40.646  40.224   7.060
 5084POPC   C4A66534  40.878  40.197   7.460
 5084POPC   C1B66535  41.066  39.592   6.314
 5084POPC   C2B66536  40.985  39.539   6.723
 5084POPC   C3B66537  40.923  39.788   7.073
 5084POPC   C4B66538  40.642  39.763   7.403
 5085POPC   NC366539  30.560  43.336   5.348
 5085POPC   PO466540  30.204  42.751   5.480
 5085POPC   GL166541  30.525  42.982   5.728
 5085POPC   GL266542  30.889  43.029   5.604
 5085POPC   C1A66543  30.543  43.073   6.174
 5085POPC   D2A66544  30.341  42.816   6.498
 5085POPC   C3A66545  30.531  42.904   6.878
 5085POPC   C4A66546  30.404  42.843   7.272
 5085POPC   C1B66547  31.022  43.082   6.029
 5085POPC   C2B66548  31.013  43.342   6.390
 5085POPC   C3B66549  31.085  43.323   6.826
 5085POPC   C4B66550  30.931  43.088   7.185
 5086POPC   NC366551  19.376   3.008   5.143
 5086POPC   PO466552  19.277   2.412   5.512
 5086POPC   GL166553  19.005   2.464   5.844
 5086POPC   GL266554  18.844   2.795   5.852
 5086POPC   C1A66555  19.085   2.572   6.259
 5086POPC   D2A66556  19.431   2.528   6.548
 5086POPC   C3A66557  19.210   2.617   6.906
 5086POPC   C4A66558  19.251   2.491   7.295
 5086POPC   C1B66559  18.888   3.072   6.188
 5086POPC   C2B66560  18.985   2.960   6.582
 5086POPC   C3B66561  18.887   3.026   6.978
 5086POPC   C4B66562  19.094   2.972   7.336
 5087POPC   NC366563   8.821  44.217   5.357
 5087POPC   PO466564   9.316  44.620   5.244
 5087POPC   GL166565   9.233  44.499   5.686
 5087POPC   GL266566   8.874  44.531   5.757
 5087POPC   C1A66567   9.230  44.650   6.112
 5087POPC   D2A66568   9.071  44.686   6.523
 5087POPC   C3A66569   9.291  44.656   6.880
 5087POPC   C4A66570   9.175  44.823   7.273
 5087POPC   C1B66571   8.802  44.355   6.179
 5087POPC   C2B66572   8.608  44.483   6.597
 5087POPC   C3B66573   8.779  44.553   7.032
 5087POPC   C4B66574   8.845  44.546   7.501
 5088POPC   NC366575  35.650   1.858   5.290
 5088POPC   PO466576  36.157   2.149   5.628
 5088POPC   GL166577  35.996   1.887   5.895
 5088POPC   GL266578  35.851   2.101   6.127
 5088POPC   C1A66579  36.194   1.675   6.229
 5088POPC   D2A66580  36.368   1.852   6.604
 5088POPC   C3A66581  36.107   1.813   6.947
 5088POPC   C4A66582  36.240   1.902   7.330
 5088POPC   C1B66583  36.287   2.216   6.247
 5088POPC   C2B66584  36.455   2.406   6.604
 5088POPC   C3B66585  36.366   2.257   7.004
 5088POPC   C4B66586  36.371   2.363   7.466
 5089POPC   NC366587   8.697  30.646   5.092
 5089POPC   PO466588   9.288  30.874   5.138
 5089POPC   GL166589   9.100  30.634   5.522
 5089POPC   GL266590   8.737  30.565   5.625
 5089POPC   C1A66591   9.103  30.674   6.006
 5089POPC   D2A66592   9.284  30.742   6.436
 5089POPC   C3A66593   9.112  30.748   6.868
 5089POPC   C4A66594   9.191  31.058   7.150
 5089POPC   C1B66595   8.662  30.433   6.086
 5089POPC   C2B66596   8.784  30.644   6.505
 5089POPC   C3B66597   8.592  30.626   6.973
 5089POPC   C4B66598   8.695  30.494   7.402
 5090POPC   NC366599  36.553  27.819   5.412
 5090POPC   PO466600  37.074  27.428   5.282
 5090POPC   GL166601  36.951  27.668   5.694
 5090POPC   GL266602  36.655  27.467   5.796
 5090POPC   C1A66603  37.107  27.729   6.147
 5090POPC   D2A66604  37.161  27.386   6.480
 5090POPC   C3A66605  36.991  27.369   6.901
 5090POPC   C4A66606  36.932  27.727   7.196
 5090POPC   C1B66607  36.627  27.600   6.224
 5090POPC   C2B66608  36.754  27.729   6.613
 5090POPC   C3B66609  36.519  27.607   6.964
 5090POPC   C4B66610  36.456  27.660   7.387
 5091POPC   NC366611  41.271  23.166   5.391
 5091POPC   PO466612  41.985  23.260   5.361
 5091POPC   GL166613  41.773  22.968   5.718
 5091POPC   GL266614  41.418  22.987   5.837
 5091POPC   C1A66615  41.730  23.028   6.201
 5091POPC   D2A66616  41.518  22.804   6.553
 5091POPC   C3A66617  41.572  22.934   6.985
 5091POPC   C4A66618  41.442  23.276   7.265
 5091POPC   C1B66619  41.193  22.743   6.162
 5091POPC   C2B66620  41.007  22.787   6.601
 5091POPC   C3B66621  41.120  22.631   7.020
 5091POPC   C4B66622  41.394  22.650   7.386
 5092POPC   NC366623  43.211  27.936   5.464
 5092POPC   PO466624  43.269  27.215   5.479
 5092POPC   GL166625  43.171  27.437   5.850
 5092POPC   GL266626  43.230  27.744   5.937
 5092POPC   C1A66627  43.103  27.415   6.310
 5092POPC   D2A66628  43.346  27.661   6.579
 5092POPC   C3A66629  43.202  27.727   6.996
 5092POPC   C4A66630  43.074  27.415   7.299
 5092POPC   C1B66631  43.008  27.933   6.291
 5092POPC   C2B66632  42.789  27.726   6.627
 5092POPC   C3B66633  42.680  27.641   7.056
 5092POPC   C4B66634  42.875  27.890   7.395
 5093POPC   NC366635  30.595  44.313   5.389
 5093POPC   PO466636  30.355  43.709   5.536
 5093POPC   GL166637  30.690  43.825   5.744
 5093POPC   GL266638  30.769  43.481   5.814
 5093POPC   C1A66639  30.670  44.131   6.095
 5093POPC   D2A66640  30.650  44.302   6.512
 5093POPC   C3A66641  30.492  44.050   6.843
 5093POPC   C4A66642  30.326  43.871   7.208
 5093POPC   C1B66643  30.597  43.603   6.196
 5093POPC   C2B66644  30.772  43.764   6.551
 5093POPC   C3B66645  30.664  43.578   6.939
 5093POPC   C4B66646  30.870  43.611   7.306
 5094POPC   NC366647  30.996  19.275   5.397
 5094POPC   PO466648  30.742  18.736   5.404
 5094POPC   GL166649  30.765  18.884   5.810
 5094POPC   GL266650  31.035  18.673   5.856
 5094POPC   C1A66651  30.553  18.874   6.225
 5094POPC   D2A66652  30.517  19.197   6.553
 5094POPC   C3A66653  30.566  19.082   6.985
 5094POPC   C4A66654  30.546  18.824   7.347
 5094POPC   C1B66655  31.080  18.895   6.249
 5094POPC   C2B66656  31.005  19.062   6.665
 5094POPC   C3B66657  31.037  18.917   7.079
 5094POPC   C4B66658  31.316  18.909   7.404
 5095POPC   NC366659  19.489  27.656   5.121
 5095POPC   PO466660  19.138  27.774   5.724
 5095POPC   GL166661  19.083  27.427   5.990
 5095POPC   GL266662  18.817  27.205   5.994
 5095POPC   C1A66663  19.046  27.439   6.399
 5095POPC   D2A66664  19.145  27.799   6.611
 5095POPC   C3A66665  19.322  27.682   6.966
 5095POPC   C4A66666  19.038  27.521   7.254
 5095POPC   C1B66667  18.545  27.406   6.284
 5095POPC   C2B66668  18.640  27.443   6.703
 5095POPC   C3B66669  18.623  27.229   7.067
 5095POPC   C4B66670  18.667  27.238   7.502
 5096POPC   NC366671  17.398   5.283   5.342
 5096POPC   PO466672  17.796   4.764   5.326
 5096POPC   GL166673  17.441   4.857   5.665
 5096POPC   GL266674  17.170   5.119   5.781
 5096POPC   C1A66675  17.519   4.918   6.138
 5096POPC   D2A66676  17.769   5.029   6.533
 5096POPC   C3A66677  17.556   4.903   6.935
 5096POPC   C4A66678  17.753   4.756   7.290
 5096POPC   C1B66679  17.222   5.332   6.174
 5096POPC   C2B66680  17.310   5.222   6.597
 5096POPC   C3B66681  17.191   5.306   7.022
 5096POPC   C4B66682  17.076   5.601   7.343
 5097POPC   NC366683   0.209  22.344   5.067
 5097POPC   PO466684   0.665  22.021   5.416
 5097POPC   GL166685   0.464  22.119   5.808
 5097POPC   GL266686   0.082  22.187   5.807
 5097POPC   C1A66687   0.613  22.288   6.206
 5097POPC   D2A66688   0.688  22.113   6.599
 5097POPC   C3A66689   0.717  22.431   6.901
 5097POPC   C4A66690   0.649  22.561   7.315
 5097POPC   C1B66691   0.193  21.961   6.220
 5097POPC   C2B66692   0.220  21.842   6.667
 5097POPC   C3B66693   0.059  22.056   7.046
 5097POPC   C4B66694   0.079  22.058   7.513
 5098POPC   NC366695  30.117  10.826   5.485
 5098POPC   PO466696  30.212  10.143   5.481
 5098POPC   GL166697  30.094  10.439   5.827
 5098POPC   GL266698  29.791  10.615   5.846
 5098POPC   C1A66699  30.141  10.755   6.189
 5098POPC   D2A66700  30.343  10.694   6.601
 5098POPC   C3A66701  30.072  10.587   6.960
 5098POPC   C4A66702  29.824  10.611   7.332
 5098POPC   C1B66703  29.693  10.464   6.285
 5098POPC   C2B66704  29.598  10.473   6.754
 5098POPC   C3B66705  29.356  10.646   7.122
 5098POPC   C4B66706  29.372  10.519   7.575
 5099POPC   NC366707  19.337   2.842   5.662
 5099POPC   PO466708  19.894   2.541   5.345
 5099POPC   GL166709  19.830   2.714   5.769
 5099POPC   GL266710  19.557   2.564   6.021
 5099POPC   C1A66711  19.961   2.905   6.149
 5099POPC   D2A66712  19.827   2.922   6.573
 5099POPC   C3A66713  20.019   3.059   6.931
 5099POPC   C4A66714  20.035   2.696   7.176
 5099POPC   C1B66715  19.422   2.962   6.270
 5099POPC   C2B66716  19.414   3.220   6.641
 5099POPC   C3B66717  19.507   3.025   7.022
 5099POPC   C4B66718  19.732   3.074   7.395
 5100POPC   NC366719  37.874   7.836   5.491
 5100POPC   PO466720  37.772   7.178   5.251
 5100POPC   GL166721  37.549   7.136   5.672
 5100POPC   GL266722  37.683   7.429   5.767
 5100POPC   C1A66723  37.647   7.035   6.140
 5100POPC   D2A66724  37.969   7.110   6.453
 5100POPC   C3A66725  37.889   7.357   6.804
 5100POPC   C4A66726  37.741   7.247   7.210
 5100POPC   C1B66727  37.811   7.521   6.193
 5100POPC   C2B66728  38.023   7.796   6.485
 5100POPC   C3B66729  37.997   8.013   6.858
 5100POPC   C4B66730  37.944   7.739   7.184
 5101POPC   NC366731  13.678  31.860   5.343
 5101POPC   PO466732  13.836  31.273   5.136
 5101POPC   GL166733  13.688  31.368   5.571
 5101POPC   GL266734  13.601  31.028   5.677
 5101POPC   C1A66735  13.652  31.538   6.007
 5101POPC   D2A66736  13.288  31.637   6.305
 5101POPC   C3A66737  13.422  31.655   6.750
 5101POPC   C4A66738  13.369  31.845   7.153
 5101POPC   C1B66739  13.880  31.055   6.025
 5101POPC   C2B66740  13.862  30.943   6.478
 5101POPC   C3B66741  13.664  31.172   6.792
 5101POPC   C4B66742  13.647  31.408   7.163
 5102POPC   NC366743   0.903   4.188   5.286
 5102POPC   PO466744   1.424   3.889   5.618
 5102POPC   GL166745   1.073   4.113   5.755
 5102POPC   GL266746   0.776   3.934   5.811
 5102POPC   C1A66747   0.939   4.411   6.065
 5102POPC   D2A66748   1.203   4.665   6.369
 5102POPC   C3A66749   1.404   4.552   6.790
 5102POPC   C4A66750   1.165   4.326   7.111
 5102POPC   C1B66751   1.029   3.907   6.228
 5102POPC   C2B66752   1.232   3.908   6.674
 5102POPC   C3B66753   1.086   3.831   7.106
 5102POPC   C4B66754   0.869   4.071   7.464
 5103POPC   NC366755  26.282  25.042   5.445
 5103POPC   PO466756  25.742  25.330   5.375
 5103POPC   GL166757  25.998  25.485   5.730
 5103POPC   GL266758  26.336  25.448   5.775
 5103POPC   C1A66759  26.033  25.557   6.198
 5103POPC   D2A66760  26.228  25.699   6.594
 5103POPC   C3A66761  26.062  25.638   7.036
 5103POPC   C4A66762  25.872  25.339   7.361
 5103POPC   C1B66763  26.357  25.167   6.187
 5103POPC   C2B66764  26.157  25.178   6.650
 5103POPC   C3B66765  26.305  25.180   7.119
 5103POPC   C4B66766  26.304  25.204   7.610
 5104POPC   NC366767  19.822  38.346   5.170
 5104POPC   PO466768  19.819  38.879   5.543
 5104POPC   GL166769  19.927  38.495   5.719
 5104POPC   GL266770  20.169  38.638   5.917
 5104POPC   C1A66771  19.778  38.316   6.124
 5104POPC   D2A66772  19.838  38.336   6.575
 5104POPC   C3A66773  19.631  38.555   6.925
 5104POPC   C4A66774  19.425  38.343   7.254
 5104POPC   C1B66775  20.255  38.399   6.287
 5104POPC   C2B66776  20.345  38.326   6.713
 5104POPC   C3B66777  20.075  38.316   7.077
 5104POPC   C4B66778  19.893  38.450   7.480
 5105POPC   NC366779  30.862  14.026   5.474
 5105POPC   PO466780  30.732  13.413   5.155
 5105POPC   GL166781  30.864  13.513   5.601
 5105POPC   GL266782  30.549  13.675   5.763
 5105POPC   C1A66783  30.929  13.529   6.081
 5105POPC   D2A66784  30.772  13.579   6.505
 5105POPC   C3A66785  30.948  13.694   6.900
 5105POPC   C4A66786  31.013  13.491   7.295
 5105POPC   C1B66787  30.369  13.712   6.193
 5105POPC   C2B66788  30.267  13.489   6.564
 5105POPC   C3B66789  30.399  13.486   6.951
 5105POPC   C4B66790  30.536  13.759   7.226
 5106POPC   NC366791  12.552  17.617   5.291
 5106POPC   PO466792  13.181  17.395   5.507
 5106POPC   GL166793  12.993  17.532   5.894
 5106POPC   GL266794  12.656  17.696   5.856
 5106POPC   C1A66795  12.897  17.402   6.320
 5106POPC   D2A66796  12.695  17.425   6.732
 5106POPC   C3A66797  12.936  17.467   7.121
 5106POPC   C4A66798  13.158  17.561   7.517
 5106POPC   C1B66799  12.421  17.617   6.247
 5106POPC   C2B66800  12.363  17.816   6.650
 5106POPC   C3B66801  12.462  17.750   7.092
 5106POPC   C4B66802  12.679  17.745   7.492
 5107POPC   NC366803  36.754  17.093   5.319
 5107POPC   PO466804  36.982  17.749   5.227
 5107POPC   GL166805  37.071  17.497   5.644
 5107POPC   GL266806  37.207  17.738   5.874
 5107POPC   C1A66807  37.068  17.199   6.055
 5107POPC   D2A66808  37.200  17.197   6.546
 5107POPC   C3A66809  36.972  17.220   6.975
 5107POPC   C4A66810  36.910  17.150   7.454
 5107POPC   C1B66811  37.093  17.641   6.301
 5107POPC   C2B66812  36.775  17.553   6.595
 5107POPC   C3B66813  36.766  17.693   6.998
 5107POPC   C4B66814  36.603  17.625   7.394
 5108POPC   NC366815  30.891  31.037   5.502
 5108POPC   PO466816  30.937  31.691   5.327
 5108POPC   GL166817  30.780  31.540   5.752
 5108POPC   GL266818  30.852  31.230   5.963
 5108POPC   C1A66819  30.731  31.668   6.204
 5108POPC   D2A66820  30.543  31.527   6.601
 5108POPC   C3A66821  30.719  31.651   7.011
 5108POPC   C4A66822  30.520  31.828   7.382
 5108POPC   C1B66823  31.053  31.313   6.357
 5108POPC   C2B66824  30.882  31.180   6.751
 5108POPC   C3B66825  30.918  31.200   7.177
 5108POPC   C4B66826  31.160  31.064   7.554
 5109POPC   NC366827  17.937  35.790   5.466
 5109POPC   PO466828  17.388  36.137   5.528
 5109POPC   GL166829  17.613  36.005   5.899
 5109POPC   GL266830  17.822  36.265   5.876
 5109POPC   C1A66831  17.696  36.129   6.359
 5109POPC   D2A66832  17.820  36.204   6.771
 5109POPC   C3A66833  17.630  35.916   6.985
 5109POPC   C4A66834  17.353  35.907   7.254
 5109POPC   C1B66835  17.437  36.466   6.093
 5109POPC   C2B66836  17.214  36.449   6.511
 5109POPC   C3B66837  17.355  36.364   6.932
 5109POPC   C4B66838  17.683  36.349   7.268
 5110POPC   NC366839  34.519   3.147   5.392
 5110POPC   PO466840  34.416   2.467   5.314
 5110POPC   GL166841  34.376   2.518   5.744
 5110POPC   GL266842  34.333   2.855   5.798
 5110POPC   C1A66843  34.470   2.515   6.178
 5110POPC   D2A66844  34.807   2.696   6.463
 5110POPC   C3A66845  34.679   2.593   6.864
 5110POPC   C4A66846  34.512   2.721   7.245
 5110POPC   C1B66847  34.536   3.031   6.189
 5110POPC   C2B66848  34.577   3.169   6.625
 5110POPC   C3B66849  34.811   3.080   7.005
 5110POPC   C4B66850  34.737   3.136   7.462
 5111POPC   NC366851  38.296  32.495   5.191
 5111POPC   PO466852  38.912  32.373   5.402
 5111POPC   GL166853  38.645  32.346   5.762
 5111POPC   GL266854  38.362  32.093   5.751
 5111POPC   C1A66855  38.523  32.538   6.165
 5111POPC   D2A66856  38.283  32.507   6.542
 5111POPC   C3A66857  38.484  32.549   6.948
 5111POPC   C4A66858  38.476  32.194   7.233
 5111POPC   C1B66859  38.262  32.086   6.214
 5111POPC   C2B66860  38.403  32.014   6.667
 5111POPC   C3B66861  38.144  31.888   7.024
 5111POPC   C4B66862  38.062  31.941   7.449
 5112POPC   NC366863   8.182  22.264   5.391
 5112POPC   PO466864   8.764  21.955   5.527
 5112POPC   GL166865   8.498  22.229   5.801
 5112POPC   GL266866   8.170  22.075   5.863
 5112POPC   C1A66867   8.390  22.427   6.209
 5112POPC   D2A66868   8.345  22.629   6.618
 5112POPC   C3A66869   8.225  22.333   6.933
 5112POPC   C4A66870   8.317  22.306   7.377
 5112POPC   C1B66871   8.407  21.908   6.225
 5112POPC   C2B66872   8.501  21.928   6.680
 5112POPC   C3B66873   8.369  21.873   7.120
 5112POPC   C4B66874   8.529  21.903   7.581
 5113POPC   NC366875  15.427  38.822   5.318
 5113POPC   PO466876  15.220  38.340   5.426
 5113POPC   GL166877  15.046  38.296   5.860
 5113POPC   GL266878  15.376  38.279   5.951
 5113POPC   C1A66879  15.026  38.335   6.341
 5113POPC   D2A66880  15.137  38.182   6.776
 5113POPC   C3A66881  15.102  38.425   7.196
 5113POPC   C4A66882  15.157  38.645   7.618
 5113POPC   C1B66883  15.373  37.967   6.281
 5113POPC   C2B66884  15.587  37.995   6.681
 5113POPC   C3B66885  15.632  38.421   6.906
 5113POPC   C4B66886  15.599  38.558   7.359
 5114POPC   NC366887   5.991   4.277   5.402
 5114POPC   PO466888   5.554   4.734   5.616
 5114POPC   GL166889   5.651   4.363   5.807
 5114POPC   GL266890   5.994   4.489   5.862
 5114POPC   C1A66891   5.739   4.174   6.210
 5114POPC   D2A66892   5.866   4.484   6.517
 5114POPC   C3A66893   5.828   4.378   6.922
 5114POPC   C4A66894   5.812   3.956   7.080
 5114POPC   C1B66895   6.271   4.522   6.195
 5114POPC   C2B66896   6.427   4.234   6.549
 5114POPC   C3B66897   6.283   4.068   6.950
 5114POPC   C4B66898   6.089   4.313   7.347
 5115POPC   NC366899  12.132  43.117   5.118
 5115POPC   PO466900  11.776  42.666   5.416
 5115POPC   GL166901  12.002  42.836   5.755
 5115POPC   GL266902  12.051  43.211   5.771
 5115POPC   C1A66903  11.924  42.902   6.205
 5115POPC   D2A66904  11.865  43.116   6.624
 5115POPC   C3A66905  12.018  43.005   7.051
 5115POPC   C4A66906  12.195  42.873   7.463
 5115POPC   C1B66907  11.898  43.431   6.184
 5115POPC   C2B66908  11.976  43.654   6.614
 5115POPC   C3B66909  12.073  43.510   7.060
 5115POPC   C4B66910  11.837  43.324   7.419
 5116POPC   NC366911  37.528  23.832   5.370
 5116POPC   PO466912  37.953  23.331   5.234
 5116POPC   GL166913  37.784  23.520   5.697
 5116POPC   GL266914  37.393  23.520   5.770
 5116POPC   C1A66915  37.783  23.755   6.137
 5116POPC   D2A66916  37.965  23.739   6.588
 5116POPC   C3A66917  37.840  23.893   7.004
 5116POPC   C4A66918  37.780  24.106   7.456
 5116POPC   C1B66919  37.280  23.704   6.171
 5116POPC   C2B66920  37.472  23.617   6.560
 5116POPC   C3B66921  37.456  23.465   6.984
 5116POPC   C4B66922  37.493  23.702   7.340
 5117POPC   NC366923  38.916  35.589   5.498
 5117POPC   PO466924  39.212  35.030   5.406
 5117POPC   GL166925  39.297  35.335   5.734
 5117POPC   GL266926  38.992  35.176   5.853
 5117POPC   C1A66927  39.205  35.478   6.195
 5117POPC   D2A66928  39.274  35.716   6.583
 5117POPC   C3A66929  39.256  35.514   6.974
 5117POPC   C4A66930  39.492  35.308   7.333
 5117POPC   C1B66931  38.877  34.824   6.124
 5117POPC   C2B66932  38.751  34.872   6.545
 5117POPC   C3B66933  38.920  35.137   6.831
 5117POPC   C4B66934  39.041  35.118   7.236
 5118POPC   NC366935  19.445   9.115   5.462
 5118POPC   PO466936  18.761   8.858   5.467
 5118POPC   GL166937  19.039   8.940   5.816
 5118POPC   GL266938  19.050   9.266   5.745
 5118POPC   C1A66939  19.085   8.818   6.259
 5118POPC   D2A66940  18.933   8.902   6.666
 5118POPC   C3A66941  19.025   8.713   7.031
 5118POPC   C4A66942  19.084   8.954   7.367
 5118POPC   C1B66943  19.268   9.369   6.120
 5118POPC   C2B66944  19.313   9.239   6.533
 5118POPC   C3B66945  19.189   9.246   6.940
 5118POPC   C4B66946  19.419   9.364   7.259
 5119POPC   NC366947  41.928   3.251   5.498
 5119POPC   PO466948  41.339   3.668   5.463
 5119POPC   GL166949  41.623   3.538   5.806
 5119POPC   GL266950  41.824   3.852   5.847
 5119POPC   C1A66951  41.514   3.275   6.212
 5119POPC   D2A66952  41.327   3.489   6.595
 5119POPC   C3A66953  41.389   3.438   7.062
 5119POPC   C4A66954  41.694   3.249   7.396
 5119POPC   C1B66955  41.765   3.688   6.292
 5119POPC   C2B66956  41.895   3.351   6.574
 5119POPC   C3B66957  41.920   3.471   6.996
 5119POPC   C4B66958  41.706   3.785   7.259
 5120POPC   NC366959  43.636   6.322   5.421
 5120POPC   PO466960  43.970   5.708   5.328
 5120POPC   GL166961  43.942   5.982   5.698
 5120POPC   GL266962  44.273   6.035   5.854
 5120POPC   C1A66963  43.819   5.871   6.125
 5120POPC   D2A66964  43.939   5.620   6.499
 5120POPC   C3A66965  43.860   5.759   6.909
 5120POPC   C4A66966  43.664   5.972   7.238
 5120POPC   C1B66967  44.274   6.018   6.309
 5120POPC   C2B66968  44.161   6.125   6.714
 5120POPC   C3B66969  44.157   6.099   7.149
 5120POPC   C4B66970  44.055   6.082   7.580
 5121POPC   NC366971  33.500  33.363   5.431
 5121POPC   PO466972  33.754  34.096   5.395
 5121POPC   GL166973  33.675  34.012   5.836
 5121POPC   GL266974  33.483  33.710   5.834
 5121POPC   C1A66975  33.704  33.918   6.287
 5121POPC   D2A66976  33.703  33.732   6.713
 5121POPC   C3A66977  33.825  34.000   7.083
 5121POPC   C4A66978  33.986  34.156   7.492
 5121POPC   C1B66979  33.664  33.412   6.132
 5121POPC   C2B66980  33.687  33.176   6.523
 5121POPC   C3B66981  33.881  33.285   6.920
 5121POPC   C4B66982  33.764  33.514   7.257
 5122POPC   NC366983  36.104  17.726   5.481
 5122POPC   PO466984  36.317  17.134   5.469
 5122POPC   GL166985  36.069  17.302   5.832
 5122POPC   GL266986  36.054  17.688   5.982
 5122POPC   C1A66987  36.015  17.282   6.257
 5122POPC   D2A66988  36.119  17.548   6.587
 5122POPC   C3A66989  36.284  17.300   6.917
 5122POPC   C4A66990  35.978  17.234   7.226
 5122POPC   C1B66991  36.402  17.856   6.256
 5122POPC   C2B66992  36.463  17.991   6.685
 5122POPC   C3B66993  36.254  17.804   7.013
 5122POPC   C4B66994  36.068  17.862   7.362
 5123POPC   NC366995   1.875  34.178   5.584
 5123POPC   PO466996   2.302  34.567   5.668
 5123POPC   GL166997   2.237  34.227   5.946
 5123POPC   GL266998   1.924  34.192   6.098
 5123POPC   C1A66999   2.346  34.114   6.379
 5123POPC   D2A67000   2.377  34.400   6.731
 5123POPC   C3A67001   2.142  34.406   7.092
 5123POPC   C4A67002   1.832  34.431   7.425
 5123POPC   C1B67003   2.082  34.566   6.343
 5123POPC   C2B67004   2.062  34.807   6.756
 5123POPC   C3B67005   2.003  34.927   7.199
 5123POPC   C4B67006   2.285  35.146   7.496
 5124POPC   NC367007  22.301  30.810   5.407
 5124POPC   PO467008  22.287  31.437   5.187
 5124POPC   GL167009  22.279  31.301   5.623
 5124POPC   GL267010  22.284  31.609   5.759
 5124POPC   C1A67011  22.332  31.217   6.098
 5124POPC   D2A67012  22.172  31.111   6.508
 5124POPC   C3A67013  22.204  31.264   6.894
 5124POPC   C4A67014  22.351  31.489   7.221
 5124POPC   C1B67015  22.040  31.610   6.151
 5124POPC   C2B67016  22.017  31.657   6.570
 5124POPC   C3B67017  21.907  31.678   6.981
 5124POPC   C4B67018  22.045  31.895   7.307
 5125POPC   NC367019   4.589  10.440   5.090
 5125POPC   PO467020   3.987  10.263   5.335
 5125POPC   GL167021   4.175  10.401   5.704
 5125POPC   GL267022   4.502  10.519   5.617
 5125POPC   C1A67023   4.124  10.392   6.167
 5125POPC   D2A67024   4.032  10.680   6.503
 5125POPC   C3A67025   4.125  10.633   6.947
 5125POPC   C4A67026   4.023  10.550   7.410
 5125POPC   C1B67027   4.606  10.270   5.984
 5125POPC   C2B67028   4.585  10.216   6.419
 5125POPC   C3B67029   4.551  10.345   6.855
 5125POPC   C4B67030   4.507  10.461   7.263
 5126POPC   NC367031  35.571  35.740   5.400
 5126POPC   PO467032  35.530  36.423   5.376
 5126POPC   GL167033  35.347  36.132   5.700
 5126POPC   GL267034  35.632  35.976   5.852
 5126POPC   C1A67035  35.234  36.025   6.164
 5126POPC   D2A67036  35.128  35.861   6.587
 5126POPC   C3A67037  35.202  36.134   6.970
 5126POPC   C4A67038  35.417  36.462   7.249
 5126POPC   C1B67039  35.799  36.024   6.255
 5126POPC   C2B67040  35.604  36.079   6.644
 5126POPC   C3B67041  35.729  36.101   7.081
 5126POPC   C4B67042  35.737  36.006   7.511
 5127POPC   NC367043  10.922  26.857   5.390
 5127POPC   PO467044  11.586  27.089   5.072
 5127POPC   GL167045  11.382  27.068   5.534
 5127POPC   GL267046  11.485  26.765   5.684
 5127POPC   C1A67047  11.283  27.063   6.038
 5127POPC   D2A67048  11.523  27.026   6.452
 5127POPC   C3A67049  11.329  26.946   6.872
 5127POPC   C4A67050  11.465  26.953   7.302
 5127POPC   C1B67051  11.540  26.611   6.120
 5127POPC   C2B67052  11.272  26.583   6.513
 5127POPC   C3B67053  11.205  26.441   6.956
 5127POPC   C4B67054  11.473  26.440   7.357
 5128POPC   NC367055  41.993  21.866   5.074
 5128POPC   PO467056  42.543  21.555   5.419
 5128POPC   GL167057  42.465  21.351   5.838
 5128POPC   GL267058  42.686  21.061   5.879
 5128POPC   C1A67059  42.294  21.463   6.260
 5128POPC   D2A67060  42.239  21.680   6.681
 5128POPC   C3A67061  42.145  21.563   7.117
 5128POPC   C4A67062  42.440  21.503   7.466
 5128POPC   C1B67063  42.461  20.983   6.283
 5128POPC   C2B67064  42.244  21.127   6.669
 5128POPC   C3B67065  42.490  21.164   7.045
 5128POPC   C4B67066  42.455  20.996   7.492
 5129POPC   NC367067   2.008  39.645   5.463
 5129POPC   PO467068   2.273  40.277   5.361
 5129POPC   GL167069   2.150  40.320   5.786
 5129POPC   GL267070   1.935  40.031   5.845
 5129POPC   C1A67071   2.261  40.170   6.203
 5129POPC   D2A67072   2.045  40.179   6.573
 5129POPC   C3A67073   2.172  40.131   6.946
 5129POPC   C4A67074   2.049  40.207   7.341
 5129POPC   C1B67075   1.820  39.830   6.262
 5129POPC   C2B67076   1.783  39.787   6.742
 5129POPC   C3B67077   1.854  39.741   7.201
 5129POPC   C4B67078   2.026  39.420   7.502
 5130POPC   NC367079  10.172  31.907   5.410
 5130POPC   PO467080  10.598  31.379   5.236
 5130POPC   GL167081  10.533  31.688   5.662
 5130POPC   GL267082  10.764  31.765   5.931
 5130POPC   C1A67083  10.299  31.601   6.117
 5130POPC   D2A67084  10.169  31.312   6.506
 5130POPC   C3A67085  10.153  31.424   6.974
 5130POPC   C4A67086  10.379  31.727   7.252
 5130POPC   C1B67087  10.742  31.553   6.355
 5130POPC   C2B67088  10.629  31.471   6.758
 5130POPC   C3B67089  10.864  31.582   7.098
 5130POPC   C4B67090  10.855  31.419   7.504
 5131POPC   NC367091  12.016  36.014   5.438
 5131POPC   PO467092  12.533  36.462   5.549
 5131POPC   GL167093  12.202  36.307   5.808
 5131POPC   GL267094  12.236  35.931   5.887
 5131POPC   C1A67095  11.912  36.179   6.158
 5131POPC   D2A67096  12.056  35.894   6.492
 5131POPC   C3A67097  11.895  36.026   6.904
 5131POPC   C4A67098  12.003  35.984   7.319
 5131POPC   C1B67099  12.414  36.186   6.254
 5131POPC   C2B67100  12.137  36.403   6.577
 5131POPC   C3B67101  12.171  36.459   7.027
 5131POPC   C4B67102  12.563  36.656   7.198
 5132POPC   NC367103  12.686  10.232   5.376
 5132POPC   PO467104  13.151  10.719   5.206
 5132POPC   GL167105  12.965  10.473   5.692
 5132POPC   GL267106  13.050  10.119   5.825
 5132POPC   C1A67107  12.627  10.507   6.057
 5132POPC   D2A67108  12.454  10.713   6.480
 5132POPC   C3A67109  12.679  10.630   6.879
 5132POPC   C4A67110  12.629  10.373   7.243
 5132POPC   C1B67111  13.067  10.287   6.262
 5132POPC   C2B67112  13.040  10.290   6.754
 5132POPC   C3B67113  13.044  10.085   7.167
 5132POPC   C4B67114  13.262  10.031   7.615
 5133POPC   NC367115   1.017   5.072   5.269
 5133POPC   PO467116   1.510   4.774   5.591
 5133POPC   GL167117   1.134   4.953   5.778
 5133POPC   GL267118   0.805   4.771   5.680
 5133POPC   C1A67119   1.209   5.167   6.187
 5133POPC   D2A67120   1.441   5.065   6.602
 5133POPC   C3A67121   1.196   5.189   6.964
 5133POPC   C4A67122   0.846   5.480   7.093
 5133POPC   C1B67123   0.767   4.902   6.132
 5133POPC   C2B67124   0.899   5.006   6.572
 5133POPC   C3B67125   0.950   4.759   6.932
 5133POPC   C4B67126   0.862   4.989   7.287
 5134POPC   NC367127   3.530  30.013   5.361
 5134POPC   PO467128   3.939  29.473   5.520
 5134POPC   GL167129   3.703  29.767   5.855
 5134POPC   GL267130   3.446  30.081   5.853
 5134POPC   C1A67131   3.820  29.896   6.302
 5134POPC   D2A67132   3.854  29.661   6.677
 5134POPC   C3A67133   3.859  29.885   7.042
 5134POPC   C4A67134   3.461  29.737   7.166
 5134POPC   C1B67135   3.319  29.927   6.259
 5134POPC   C2B67136   3.443  29.987   6.697
 5134POPC   C3B67137   3.495  30.262   7.057
 5134POPC   C4B67138   3.428  30.184   7.468
 5135POPC   NC367139   6.023  36.369   5.454
 5135POPC   PO467140   5.391  36.112   5.482
 5135POPC   GL167141   5.733  36.022   5.781
 5135POPC   GL267142   5.731  36.361   5.898
 5135POPC   C1A67143   6.092  35.983   6.136
 5135POPC   D2A67144   6.293  36.111   6.574
 5135POPC   C3A67145   6.089  36.090   7.030
 5135POPC   C4A67146   6.084  36.366   7.461
 5135POPC   C1B67147   5.710  36.242   6.325
 5135POPC   C2B67148   5.456  36.030   6.606
 5135POPC   C3B67149   5.560  36.179   6.990
 5135POPC   C4B67150   5.286  35.944   7.231
 5136POPC   NC367151   8.583  11.177   5.409
 5136POPC   PO467152   7.954  10.889   5.488
 5136POPC   GL167153   8.220  11.114   5.808
 5136POPC   GL267154   8.567  10.972   5.881
 5136POPC   C1A67155   8.262  11.392   6.166
 5136POPC   D2A67156   8.267  11.653   6.543
 5136POPC   C3A67157   8.204  11.436   6.921
 5136POPC   C4A67158   8.123  11.253   7.321
 5136POPC   C1B67159   8.440  10.918   6.304
 5136POPC   C2B67160   8.471  11.054   6.714
 5136POPC   C3B67161   8.407  10.883   7.126
 5136POPC   C4B67162   8.529  10.942   7.560
 5137POPC   NC367163  41.965  42.201   5.312
 5137POPC   PO467164  41.260  42.375   5.286
 5137POPC   GL167165  41.502  42.457   5.683
 5137POPC   GL267166  41.390  42.132   5.794
 5137POPC   C1A67167  41.727  42.508   6.113
 5137POPC   D2A67168  41.731  42.259   6.523
 5137POPC   C3A67169  41.666  42.392   6.974
 5137POPC   C4A67170  41.575  42.316   7.448
 5137POPC   C1B67171  41.418  41.980   6.219
 5137POPC   C2B67172  41.226  42.133   6.598
 5137POPC   C3B67173  41.232  42.147   7.040
 5137POPC   C4B67174  41.076  42.339   7.377
 5138POPC   NC367175  37.240  36.162   5.690
 5138POPC   PO467176  36.664  36.070   5.373
 5138POPC   GL167177  36.749  36.023   5.815
 5138POPC   GL267178  36.839  36.375   5.916
 5138POPC   C1A67179  36.859  36.028   6.273
 5138POPC   D2A67180  36.760  36.365   6.570
 5138POPC   C3A67181  36.764  36.143   6.932
 5138POPC   C4A67182  37.027  35.788   6.972
 5138POPC   C1B67183  37.193  36.405   6.279
 5138POPC   C2B67184  37.281  36.202   6.687
 5138POPC   C3B67185  37.188  36.367   7.111
 5138POPC   C4B67186  37.086  36.104   7.490
 5139POPC   NC367187  42.450   4.104   5.507
 5139POPC   PO467188  41.808   4.302   5.544
 5139POPC   GL167189  42.138   4.421   5.827
 5139POPC   GL267190  42.516   4.525   5.799
 5139POPC   C1A67191  42.204   4.551   6.247
 5139POPC   D2A67192  42.078   4.683   6.661
 5139POPC   C3A67193  42.271   4.394   6.901
 5139POPC   C4A67194  42.314   4.433   7.296
 5139POPC   C1B67195  42.585   4.193   6.129
 5139POPC   C2B67196  42.551   4.105   6.535
 5139POPC   C3B67197  42.625   3.949   6.902
 5139POPC   C4B67198  42.688   3.899   7.323
 5140POPC   NC367199  34.215  25.963   5.406
 5140POPC   PO467200  34.730  26.386   5.417
 5140POPC   GL167201  34.652  26.008   5.726
 5140POPC   GL267202  34.329  25.916   5.885
 5140POPC   C1A67203  34.774  25.881   6.173
 5140POPC   D2A67204  34.708  26.102   6.597
 5140POPC   C3A67205  34.812  25.967   7.044
 5140POPC   C4A67206  34.628  26.155   7.439
 5140POPC   C1B67207  34.352  26.184   6.214
 5140POPC   C2B67208  34.206  26.255   6.611
 5140POPC   C3B67209  34.325  26.147   6.994
 5140POPC   C4B67210  34.372  25.773   7.252
 5141POPC   NC367211  28.681  16.794   5.286
 5141POPC   PO467212  28.086  16.625   5.441
 5141POPC   GL167213  28.271  16.767   5.810
 5141POPC   GL267214  28.587  16.572   5.795
 5141POPC   C1A67215  28.289  16.872   6.269
 5141POPC   D2A67216  28.539  17.008   6.618
 5141POPC   C3A67217  28.404  16.946   7.019
 5141POPC   C4A67218  28.097  16.719   7.225
 5141POPC   C1B67219  28.780  16.419   6.185
 5141POPC   C2B67220  28.584  16.467   6.578
 5141POPC   C3B67221  28.489  16.441   7.019
 5141POPC   C4B67222  28.484  16.165   7.409
 5142POPC   NC367223  13.208  12.823   5.452
 5142POPC   PO467224  13.777  13.132   5.546
 5142POPC   GL167225  13.726  12.845   5.827
 5142POPC   GL267226  13.423  12.794   5.898
 5142POPC   C1A67227  13.804  12.950   6.230
 5142POPC   D2A67228  13.587  12.819   6.553
 5142POPC   C3A67229  13.743  13.007   6.931
 5142POPC   C4A67230  13.699  12.976   7.367
 5142POPC   C1B67231  13.197  12.601   6.186
 5142POPC   C2B67232  13.211  12.480   6.573
 5142POPC   C3B67233  13.306  12.659   6.967
 5142POPC   C4B67234  13.457  12.542   7.323
 5143POPC   NC367235  20.648  31.550   5.662
 5143POPC   PO467236  20.932  31.166   5.212
 5143POPC   GL167237  20.592  31.030   5.639
 5143POPC   GL267238  20.295  31.207   5.780
 5143POPC   C1A67239  20.555  30.968   6.156
 5143POPC   D2A67240  20.822  31.126   6.535
 5143POPC   C3A67241  20.776  31.298   6.970
 5143POPC   C4A67242  20.903  31.616   7.286
 5143POPC   C1B67243  20.295  31.405   6.203
 5143POPC   C2B67244  20.367  31.400   6.646
 5143POPC   C3B67245  20.425  31.723   6.954
 5143POPC   C4B67246  20.388  31.650   7.368
 5144POPC   NC367247  38.238   4.076   5.321
 5144POPC   PO467248  38.552   3.523   5.474
 5144POPC   GL167249  38.541   3.617   5.851
 5144POPC   GL267250  38.777   3.365   5.928
 5144POPC   C1A67251  38.387   3.445   6.227
 5144POPC   D2A67252  38.674   3.282   6.495
 5144POPC   C3A67253  38.566   3.286   6.911
 5144POPC   C4A67254  38.489   3.536   7.273
 5144POPC   C1B67255  38.866   3.699   6.248
 5144POPC   C2B67256  38.975   3.661   6.699
 5144POPC   C3B67257  38.931   3.758   7.119
 5144POPC   C4B67258  38.920   3.629   7.551
 5145POPC   NC367259  20.345  24.286   5.651
 5145POPC   PO467260  20.215  24.860   5.359
 5145POPC   GL167261  20.246  24.892   5.844
 5145POPC   GL267262  20.484  24.639   5.998
 5145POPC   C1A67263  20.233  24.931   6.335
 5145POPC   D2A67264  20.191  24.654   6.708
 5145POPC   C3A67265  20.311  24.581   7.151
 5145POPC   C4A67266  20.573  24.195   7.240
 5145POPC   C1B67267  20.435  24.353   6.369
 5145POPC   C2B67268  20.315  24.141   6.772
 5145POPC   C3B67269  20.059  24.140   7.140
 5145POPC   C4B67270  20.185  24.195   7.580
 5146POPC   NC367271  19.382   7.579   5.592
 5146POPC   PO467272  19.183   6.951   5.502
 5146POPC   GL167273  19.153   7.182   5.871
 5146POPC   GL267274  18.934   7.475   5.837
 5146POPC   C1A67275  19.272   7.388   6.251
 5146POPC   D2A67276  18.984   7.408   6.567
 5146POPC   C3A67277  19.026   7.173   6.929
 5146POPC   C4A67278  18.754   7.215   7.269
 5146POPC   C1B67279  18.991   7.803   6.157
 5146POPC   C2B67280  19.040   7.913   6.592
 5146POPC   C3B67281  19.045   7.698   7.013
 5146POPC   C4B67282  18.955   7.644   7.464
 5147POPC   NC367283  28.077  26.810   5.428
 5147POPC   PO467284  27.353  26.861   5.403
 5147POPC   GL167285  27.602  26.887   5.775
 5147POPC   GL267286  27.921  26.719   5.895
 5147POPC   C1A67287  27.481  26.930   6.186
 5147POPC   D2A67288  27.560  27.083   6.572
 5147POPC   C3A67289  27.479  26.864   6.941
 5147POPC   C4A67290  27.555  26.973   7.372
 5147POPC   C1B67291  27.976  26.973   6.266
 5147POPC   C2B67292  27.949  26.806   6.688
 5147POPC   C3B67293  28.013  26.863   7.102
 5147POPC   C4B67294  28.182  26.478   7.230
 5148POPC   NC367295   1.628  30.628   5.412
 5148POPC   PO467296   2.326  30.664   5.285
 5148POPC   GL167297   2.216  30.559   5.728
 5148POPC   GL267298   1.857  30.586   5.880
 5148POPC   C1A67299   2.288  30.715   6.144
 5148POPC   D2A67300   2.313  30.915   6.547
 5148POPC   C3A67301   2.274  30.692   6.950
 5148POPC   C4A67302   1.832  30.658   7.036
 5148POPC   C1B67303   1.816  30.694   6.359
 5148POPC   C2B67304   1.786  31.044   6.699
 5148POPC   C3B67305   1.715  31.128   7.162
 5148POPC   C4B67306   1.710  31.097   7.612
 5149POPC   NC367307  26.217  17.185   5.463
 5149POPC   PO467308  25.744  16.681   5.367
 5149POPC   GL167309  25.875  16.775   5.749
 5149POPC   GL267310  25.817  17.096   5.768
 5149POPC   C1A67311  26.099  16.852   6.134
 5149POPC   D2A67312  26.222  16.604   6.477
 5149POPC   C3A67313  26.112  16.718   6.882
 5149POPC   C4A67314  26.199  16.548   7.291
 5149POPC   C1B67315  25.586  16.992   6.156
 5149POPC   C2B67316  25.807  16.979   6.535
 5149POPC   C3B67317  25.855  17.164   6.922
 5149POPC   C4B67318  25.953  16.978   7.288
 5150POPC   NC367319   5.220  39.833   5.387
 5150POPC   PO467320   5.106  40.506   5.461
 5150POPC   GL167321   5.209  40.173   5.771
 5150POPC   GL267322   4.919  39.980   5.921
 5150POPC   C1A67323   5.300  40.183   6.217
 5150POPC   D2A67324   5.009  40.364   6.513
 5150POPC   C3A67325   5.035  40.288   6.958
 5150POPC   C4A67326   5.363  40.060   7.184
 5150POPC   C1B67327   5.047  39.725   6.285
 5150POPC   C2B67328   5.113  39.770   6.757
 5150POPC   C3B67329   5.109  39.588   7.187
 5150POPC   C4B67330   4.937  39.542   7.634
 5151POPC   NC367331  18.841  27.455   5.547
 5151POPC   PO467332  18.252  27.841   5.455
 5151POPC   GL167333  18.314  27.763   5.854
 5151POPC   GL267334  18.641  27.739   5.902
 5151POPC   C1A67335  18.122  27.703   6.235
 5151POPC   D2A67336  18.068  27.486   6.602
 5151POPC   C3A67337  18.252  27.644   6.959
 5151POPC   C4A67338  18.215  27.456   7.334
 5151POPC   C1B67339  18.760  27.908   6.258
 5151POPC   C2B67340  18.514  27.932   6.603
 5151POPC   C3B67341  18.736  27.871   6.973
 5151POPC   C4B67342  18.612  27.750   7.351
 5152POPC   NC367343  36.362  20.267   5.484
 5152POPC   PO467344  36.095  20.870   5.574
 5152POPC   GL167345  36.098  20.534   5.854
 5152POPC   GL267346  35.837  20.744   5.982
 5152POPC   C1A67347  36.389  20.433   6.196
 5152POPC   D2A67348  36.599  20.403   6.597
 5152POPC   C3A67349  36.342  20.145   6.860
 5152POPC   C4A67350  35.970  20.242   7.097
 5152POPC   C1B67351  35.819  20.492   6.303
 5152POPC   C2B67352  36.085  20.533   6.640
 5152POPC   C3B67353  36.245  20.669   7.020
 5152POPC   C4B67354  35.932  20.696   7.344
 5153POPC   NC367355  22.658  12.126   5.352
 5153POPC   PO467356  23.211  12.041   5.504
 5153POPC   GL167357  22.999  12.103   5.901
 5153POPC   GL267358  22.632  12.044   5.879
 5153POPC   C1A67359  22.973  12.310   6.348
 5153POPC   D2A67360  22.721  12.260   6.744
 5153POPC   C3A67361  22.931  12.206   7.125
 5153POPC   C4A67362  23.315  12.419   7.346
 5153POPC   C1B67363  22.735  11.867   6.302
 5153POPC   C2B67364  22.652  11.735   6.728
 5153POPC   C3B67365  22.571  11.799   7.151
 5153POPC   C4B67366  22.574  12.083   7.474
 5154POPC   NC367367  36.654   9.874   5.332
 5154POPC   PO467368  37.169   9.507   5.666
 5154POPC   GL167369  36.756   9.653   5.797
 5154POPC   GL267370  36.840  10.023   5.797
 5154POPC   C1A67371  36.655   9.433   6.182
 5154POPC   D2A67372  36.896   9.619   6.504
 5154POPC   C3A67373  36.994   9.416   6.879
 5154POPC   C4A67374  36.776   9.377   7.261
 5154POPC   C1B67375  37.119   9.993   6.150
 5154POPC   C2B67376  37.065  10.142   6.557
 5154POPC   C3B67377  36.748  10.001   6.822
 5154POPC   C4B67378  36.954   9.835   7.160
 5155POPC   NC367379  32.298   7.783   5.436
 5155POPC   PO467380  31.957   7.156   5.394
 5155POPC   GL167381  32.200   7.387   5.757
 5155POPC   GL267382  32.495   7.622   5.866
 5155POPC   C1A67383  32.110   7.459   6.202
 5155POPC   D2A67384  32.162   7.263   6.617
 5155POPC   C3A67385  31.907   7.457   6.948
 5155POPC   C4A67386  31.902   7.314   7.369
 5155POPC   C1B67387  32.657   7.379   6.179
 5155POPC   C2B67388  32.758   7.321   6.589
 5155POPC   C3B67389  32.539   7.263   6.970
 5155POPC   C4B67390  32.326   7.589   7.210
 5156POPC   NC367391  10.436  39.675   4.945
 5156POPC   PO467392  10.052  39.878   5.415
 5156POPC   GL167393  10.142  39.809   5.842
 5156POPC   GL267394  10.303  40.142   5.795
 5156POPC   C1A67395  10.138  39.609   6.278
 5156POPC   D2A67396  10.357  39.814   6.598
 5156POPC   C3A67397  10.211  39.967   6.977
 5156POPC   C4A67398  10.263  39.690   7.319
 5156POPC   C1B67399  10.481  40.030   6.155
 5156POPC   C2B67400  10.491  40.281   6.499
 5156POPC   C3B67401  10.686  40.231   6.889
 5156POPC   C4B67402  10.617  40.094   7.301
 5157POPC   NC367403  35.022   1.143   5.199
 5157POPC   PO467404  35.525   1.426   5.488
 5157POPC   GL167405  35.392   1.165   5.790
 5157POPC   GL267406  35.222   1.382   6.032
 5157POPC   C1A67407  35.496   0.949   6.164
 5157POPC   D2A67408  35.570   1.206   6.508
 5157POPC   C3A67409  35.555   1.029   6.910
 5157POPC   C4A67410  35.670   1.198   7.272
 5157POPC   C1B67411  34.926   1.033   6.134
 5157POPC   C2B67412  34.807   0.837   6.550
 5157POPC   C3B67413  34.862   0.951   6.999
 5157POPC   C4B67414  35.147   1.325   7.148
 5158POPC   NC367415  11.039  18.797   5.702
 5158POPC   PO467416  11.585  19.025   5.424
 5158POPC   GL167417  11.489  19.051   5.859
 5158POPC   GL267418  11.282  19.302   5.821
 5158POPC   C1A67419  11.534  18.965   6.321
 5158POPC   D2A67420  11.584  18.920   6.798
 5158POPC   C3A67421  11.227  18.811   7.071
 5158POPC   C4A67422  11.196  18.724   7.567
 5158POPC   C1B67423  11.082  19.178   6.213
 5158POPC   C2B67424  11.202  19.231   6.644
 5158POPC   C3B67425  11.099  19.315   7.070
 5158POPC   C4B67426  11.323  19.186   7.406
 5159POPC   NC367427  11.305   1.845   5.429
 5159POPC   PO467428  11.044   2.443   5.413
 5159POPC   GL167429  11.140   2.162   5.803
 5159POPC   GL267430  11.138   1.772   5.894
 5159POPC   C1A67431  10.966   2.119   6.226
 5159POPC   D2A67432  10.856   2.289   6.637
 5159POPC   C3A67433  11.120   2.162   6.992
 5159POPC   C4A67434  11.528   2.233   7.224
 5159POPC   C1B67435  11.434   1.852   6.227
 5159POPC   C2B67436  11.500   2.006   6.639
 5159POPC   C3B67437  11.480   1.773   7.022
 5159POPC   C4B67438  11.657   1.729   7.427
 5160POPC   NC367439   5.191  17.659   5.400
 5160POPC   PO467440   5.231  16.955   5.425
 5160POPC   GL167441   5.142  17.297   5.797
 5160POPC   GL267442   4.987  17.669   5.849
 5160POPC   C1A67443   5.186  17.461   6.246
 5160POPC   D2A67444   5.130  17.729   6.616
 5160POPC   C3A67445   5.101  17.406   6.942
 5160POPC   C4A67446   4.912  17.090   7.231
 5160POPC   C1B67447   4.799  17.892   6.198
 5160POPC   C2B67448   4.619  17.954   6.624
 5160POPC   C3B67449   4.700  17.713   6.966
 5160POPC   C4B67450   4.814  17.584   7.384
 5161POPC   NC367451  41.823  25.531   5.465
 5161POPC   PO467452  41.494  24.953   5.528
 5161POPC   GL167453  41.530  25.224   5.822
 5161POPC   GL267454  41.862  25.153   5.869
 5161POPC   C1A67455  41.478  25.087   6.249
 5161POPC   D2A67456  41.244  24.961   6.606
 5161POPC   C3A67457  41.556  24.946   6.908
 5161POPC   C4A67458  41.541  25.103   7.288
 5161POPC   C1B67459  41.840  25.449   6.200
 5161POPC   C2B67460  41.937  25.506   6.638
 5161POPC   C3B67461  41.591  25.497   6.934
 5161POPC   C4B67462  41.525  25.608   7.362
 5162POPC   NC367463  23.276  30.551   5.239
 5162POPC   PO467464  22.589  30.484   5.196
 5162POPC   GL167465  22.742  30.698   5.641
 5162POPC   GL267466  22.706  31.043   5.737
 5162POPC   C1A67467  22.902  30.656   6.084
 5162POPC   D2A67468  23.139  30.877   6.466
 5162POPC   C3A67469  23.017  30.758   6.908
 5162POPC   C4A67470  23.244  30.636   7.284
 5162POPC   C1B67471  22.823  31.149   6.180
 5162POPC   C2B67472  22.688  31.067   6.636
 5162POPC   C3B67473  22.667  31.106   7.085
 5162POPC   C4B67474  22.519  31.071   7.512
 5163POPC   NC367475  13.009  31.149   5.383
 5163POPC   PO467476  13.213  31.828   5.408
 5163POPC   GL167477  13.035  31.664   5.790
 5163POPC   GL267478  13.214  31.379   5.823
 5163POPC   C1A67479  12.750  31.660   6.164
 5163POPC   D2A67480  12.798  31.933   6.537
 5163POPC   C3A67481  12.914  31.690   6.873
 5163POPC   C4A67482  12.644  31.649   7.202
 5163POPC   C1B67483  13.387  31.144   6.209
 5163POPC   C2B67484  13.176  31.211   6.613
 5163POPC   C3B67485  13.215  31.105   7.055
 5163POPC   C4B67486  13.095  31.439   7.317
 5164POPC   NC367487  15.592  22.063   5.472
 5164POPC   PO467488  16.180  21.925   5.644
 5164POPC   GL167489  16.115  22.220   5.978
 5164POPC   GL267490  15.791  22.184   5.928
 5164POPC   C1A67491  16.047  22.260   6.422
 5164POPC   D2A67492  15.690  22.101   6.644
 5164POPC   C3A67493  15.840  22.072   7.025
 5164POPC   C4A67494  16.232  22.351   7.116
 5164POPC   C1B67495  15.606  22.413   6.245
 5164POPC   C2B67496  15.626  22.649   6.610
 5164POPC   C3B67497  15.780  22.569   7.009
 5164POPC   C4B67498  15.785  22.392   7.411
 5165POPC   NC367499  20.110  26.369   5.672
 5165POPC   PO467500  19.922  25.760   5.351
 5165POPC   GL167501  19.767  25.971   5.731
 5165POPC   GL267502  19.486  26.226   5.752
 5165POPC   C1A67503  19.749  26.090   6.175
 5165POPC   D2A67504  19.666  25.932   6.587
 5165POPC   C3A67505  19.987  25.996   6.885
 5165POPC   C4A67506  19.978  26.038   7.293
 5165POPC   C1B67507  19.277  26.282   6.184
 5165POPC   C2B67508  19.333  26.322   6.673
 5165POPC   C3B67509  19.433  26.161   7.120
 5165POPC   C4B67510  19.638  26.365   7.510
 5166POPC   NC367511  14.510  20.247   5.503
 5166POPC   PO467512  14.735  20.980   5.521
 5166POPC   GL167513  14.487  20.752   5.818
 5166POPC   GL267514  14.707  20.469   5.933
 5166POPC   C1A67515  14.364  20.808   6.254
 5166POPC   D2A67516  14.049  20.807   6.587
 5166POPC   C3A67517  14.166  20.872   7.027
 5166POPC   C4A67518  14.279  20.761   7.466
 5166POPC   C1B67519  14.819  20.554   6.365
 5166POPC   C2B67520  14.547  20.641   6.723
 5166POPC   C3B67521  14.432  20.442   7.094
 5166POPC   C4B67522  14.578  20.332   7.459
 5167POPC   NC367523  22.460  28.324   5.160
 5167POPC   PO467524  21.877  28.288   5.309
 5167POPC   GL167525  22.078  28.377   5.698
 5167POPC   GL267526  21.716  28.460   5.773
 5167POPC   C1A67527  22.329  28.268   6.093
 5167POPC   D2A67528  22.364  28.456   6.490
 5167POPC   C3A67529  22.218  28.268   6.841
 5167POPC   C4A67530  22.298  28.444   7.210
 5167POPC   C1B67531  21.820  28.208   6.136
 5167POPC   C2B67532  21.801  28.383   6.555
 5167POPC   C3B67533  21.776  28.444   7.016
 5167POPC   C4B67534  21.928  28.107   7.293
 5168POPC   NC367535  41.899  13.987   5.579
 5168POPC   PO467536  41.426  13.539   5.325
 5168POPC   GL167537  41.675  13.543   5.704
 5168POPC   GL267538  41.412  13.774   5.812
 5168POPC   C1A67539  41.717  13.591   6.171
 5168POPC   D2A67540  41.480  13.464   6.530
 5168POPC   C3A67541  41.659  13.587   6.904
 5168POPC   C4A67542  41.616  13.477   7.335
 5168POPC   C1B67543  41.308  13.925   6.238
 5168POPC   C2B67544  41.163  13.863   6.669
 5168POPC   C3B67545  41.316  13.926   7.087
 5168POPC   C4B67546  41.716  13.963   7.262
 5169POPC   NC367547   4.716  40.252   5.543
 5169POPC   PO467548   4.234  40.757   5.428
 5169POPC   GL167549   4.533  40.672   5.776
 5169POPC   GL267550   4.659  40.979   5.872
 5169POPC   C1A67551   4.590  40.518   6.219
 5169POPC   D2A67552   4.587  40.558   6.719
 5169POPC   C3A67553   4.212  40.710   6.922
 5169POPC   C4A67554   4.100  40.537   7.307
 5169POPC   C1B67555   4.489  41.161   6.233
 5169POPC   C2B67556   4.365  41.295   6.645
 5169POPC   C3B67557   4.601  41.073   6.932
 5169POPC   C4B67558   4.484  40.875   7.327
 5170POPC   NC367559  21.157  41.492   5.396
 5170POPC   PO467560  21.863  41.337   5.434
 5170POPC   GL167561  21.525  41.517   5.737
 5170POPC   GL267562  21.245  41.790   5.802
 5170POPC   C1A67563  21.350  41.417   6.150
 5170POPC   D2A67564  21.393  41.250   6.573
 5170POPC   C3A67565  21.294  41.394   6.970
 5170POPC   C4A67566  21.449  41.593   7.320
 5170POPC   C1B67567  21.402  41.933   6.197
 5170POPC   C2B67568  21.297  41.826   6.651
 5170POPC   C3B67569  21.258  42.009   7.090
 5170POPC   C4B67570  21.024  41.869   7.479
 5171POPC   NC367571   8.548  19.135   5.598
 5171POPC   PO467572   7.935  18.865   5.345
 5171POPC   GL167573   8.023  19.122   5.713
 5171POPC   GL267574   7.709  19.235   5.825
 5171POPC   C1A67575   8.200  19.363   6.097
 5171POPC   D2A67576   8.414  19.434   6.501
 5171POPC   C3A67577   8.166  19.251   6.841
 5171POPC   C4A67578   8.404  19.131   7.216
 5171POPC   C1B67579   7.814  19.041   6.220
 5171POPC   C2B67580   7.799  18.868   6.647
 5171POPC   C3B67581   8.113  18.752   6.959
 5171POPC   C4B67582   8.024  18.816   7.360
 5172POPC   NC367583  14.661  41.180   5.587
 5172POPC   PO467584  14.307  41.591   5.555
 5172POPC   GL167585  14.056  41.381   5.858
 5172POPC   GL267586  14.239  41.075   5.934
 5172POPC   C1A67587  14.120  41.416   6.321
 5172POPC   D2A67588  14.129  41.634   6.736
 5172POPC   C3A67589  14.090  41.502   7.167
 5172POPC   C4A67590  14.391  41.739   7.422
 5172POPC   C1B67591  14.557  41.170   6.268
 5172POPC   C2B67592  14.615  41.497   6.577
 5172POPC   C3B67593  14.574  41.484   7.016
 5172POPC   C4B67594  14.404  41.106   7.250
 5173POPC   NC367595  16.814  33.385   5.283
 5173POPC   PO467596  16.482  33.899   5.465
 5173POPC   GL167597  16.830  33.918   5.737
 5173POPC   GL267598  17.022  33.626   5.664
 5173POPC   C1A67599  16.799  34.083   6.146
 5173POPC   D2A67600  16.512  34.018   6.490
 5173POPC   C3A67601  16.732  33.781   6.813
 5173POPC   C4A67602  16.598  33.834   7.225
 5173POPC   C1B67603  17.031  33.401   6.027
 5173POPC   C2B67604  17.053  33.444   6.469
 5173POPC   C3B67605  17.060  33.305   6.881
 5173POPC   C4B67606  17.056  33.607   7.218
 5174POPC   NC367607  33.339  44.341   5.527
 5174POPC   PO467608  33.943  44.697   5.411
 5174POPC   GL167609  33.718  44.611   5.769
 5174POPC   GL267610  33.759  44.928   5.880
 5174POPC   C1A67611  33.852  44.562   6.210
 5174POPC   D2A67612  33.613  44.594   6.586
 5174POPC   C3A67613  33.858  44.525   6.973
 5174POPC   C4A67614  33.562  44.696   7.276
 5174POPC   C1B67615  33.678   0.027   6.255
 5174POPC   C2B67616  33.911  44.986   6.615
 5174POPC   C3B67617  33.842   0.025   7.008
 5174POPC   C4B67618  33.961   0.049   7.429
 5175POPC   NC367619   0.525  24.411   5.459
 5175POPC   PO467620  44.850  24.735   5.492
 5175POPC   GL167621   0.208  24.597   5.844
 5175POPC   GL267622   0.399  24.253   5.922
 5175POPC   C1A67623   0.412  24.649   6.284
 5175POPC   D2A67624   0.328  24.472   6.732
 5175POPC   C3A67625   0.377  24.784   7.071
 5175POPC   C4A67626   0.163  24.922   7.442
 5175POPC   C1B67627   0.772  24.278   6.229
 5175POPC   C2B67628   0.820  24.356   6.701
 5175POPC   C3B67629   0.689  24.394   7.150
 5175POPC   C4B67630   0.803  24.333   7.614
 5176POPC   NC367631  25.655  33.531   5.243
 5176POPC   PO467632  26.191  33.970   5.319
 5176POPC   GL167633  26.109  33.916   5.777
 5176POPC   GL267634  26.329  34.161   5.873
 5176POPC   C1A67635  25.996  33.594   6.141
 5176POPC   D2A67636  25.899  33.352   6.540
 5176POPC   C3A67637  25.874  33.526   6.957
 5176POPC   C4A67638  25.653  33.547   7.360
 5176POPC   C1B67639  26.220  34.026   6.291
 5176POPC   C2B67640  25.868  33.884   6.565
 5176POPC   C3B67641  25.858  34.032   7.002
 5176POPC   C4B67642  26.188  34.195   7.285
 5177POPC   NC367643  34.829  31.053   5.116
 5177POPC   PO467644  34.541  31.577   5.213
 5177POPC   GL167645  34.434  31.304   5.641
 5177POPC   GL267646  34.726  31.117   5.812
 5177POPC   C1A67647  34.397  31.354   6.149
 5177POPC   D2A67648  34.369  31.349   6.660
 5177POPC   C3A67649  34.519  31.681   7.025
 5177POPC   C4A67650  34.774  31.766   7.433
 5177POPC   C1B67651  34.882  31.074   6.219
 5177POPC   C2B67652  34.917  31.329   6.574
 5177POPC   C3B67653  34.777  31.233   6.971
 5177POPC   C4B67654  34.813  30.935   7.261
 5178POPC   NC367655   4.175  22.311   5.117
 5178POPC   PO467656   4.627  22.204   5.556
 5178POPC   GL167657   4.203  22.282   5.830
 5178POPC   GL267658   4.130  21.932   6.026
 5178POPC   C1A67659   4.047  22.366   6.242
 5178POPC   D2A67660   4.201  22.109   6.564
 5178POPC   C3A67661   4.094  22.217   6.947
 5178POPC   C4A67662   4.411  22.326   7.246
 5178POPC   C1B67663   4.226  21.655   6.367
 5178POPC   C2B67664   4.569  21.673   6.635
 5178POPC   C3B67665   4.674  21.913   6.962
 5178POPC   C4B67666   4.749  21.782   7.357
 5179POPC   NC367667   9.908  33.559   5.358
 5179POPC   PO467668  10.268  33.841   5.835
 5179POPC   GL167669   9.898  33.643   5.947
 5179POPC   GL267670   9.838  33.284   5.923
 5179POPC   C1A67671   9.950  33.539   6.377
 5179POPC   D2A67672   9.680  33.758   6.627
 5179POPC   C3A67673   9.843  33.772   6.988
 5179POPC   C4A67674   9.994  34.047   7.265
 5179POPC   C1B67675   9.504  33.355   6.241
 5179POPC   C2B67676   9.578  33.258   6.682
 5179POPC   C3B67677   9.541  33.390   7.127
 5179POPC   C4B67678   9.783  33.633   7.468
 5180POPC   NC367679   3.286  28.288   5.484
 5180POPC   PO467680   3.762  28.612   5.426
 5180POPC   GL167681   3.575  28.542   5.845
 5180POPC   GL267682   3.733  28.379   6.133
 5180POPC   C1A67683   3.241  28.569   6.167
 5180POPC   D2A67684   3.170  28.687   6.620
 5180POPC   C3A67685   3.276  28.440   7.034
 5180POPC   C4A67686   3.358  28.100   7.372
 5180POPC   C1B67687   3.656  28.742   6.440
 5180POPC   C2B67688   3.531  28.995   6.816
 5180POPC   C3B67689   3.498  28.866   7.248
 5180POPC   C4B67690   3.750  28.861   7.634
 5181POPC   NC367691  39.147  32.014   5.608
 5181POPC   PO467692  39.489  32.490   5.247
 5181POPC   GL167693  39.315  32.487   5.697
 5181POPC   GL267694  39.488  32.308   5.962
 5181POPC   C1A67695  39.031  32.466   6.104
 5181POPC   D2A67696  38.831  32.329   6.559
 5181POPC   C3A67697  38.954  32.335   7.056
 5181POPC   C4A67698  38.792  32.424   7.545
 5181POPC   C1B67699  39.222  32.024   6.267
 5181POPC   C2B67700  39.174  31.767   6.649
 5181POPC   C3B67701  39.258  31.905   7.069
 5181POPC   C4B67702  39.439  31.885   7.496
 5182POPC   NC367703   0.838  42.087   5.508
 5182POPC   PO467704   1.328  42.585   5.444
 5182POPC   GL167705   1.373  42.423   5.864
 5182POPC   GL267706   1.309  42.093   5.778
 5182POPC   C1A67707   1.086  42.271   6.224
 5182POPC   D2A67708   0.792  42.159   6.586
 5182POPC   C3A67709   0.967  42.242   7.037
 5182POPC   C4A67710   1.371  42.472   7.073
 5182POPC   C1B67711   1.526  41.963   6.148
 5182POPC   C2B67712   1.344  41.930   6.552
 5182POPC   C3B67713   1.449  41.976   6.977
 5182POPC   C4B67714   1.352  42.080   7.407
 5183POPC   NC367715  34.187  27.805   5.086
 5183POPC   PO467716  34.695  28.198   5.325
 5183POPC   GL167717  34.584  28.195   5.735
 5183POPC   GL267718  34.271  28.047   5.709
 5183POPC   C1A67719  34.436  28.418   6.108
 5183POPC   D2A67720  34.641  28.706   6.426
 5183POPC   C3A67721  34.560  28.663   6.872
 5183POPC   C4A67722  34.646  28.460   7.261
 5183POPC   C1B67723  34.371  27.900   6.113
 5183POPC   C2B67724  34.201  27.926   6.515
 5183POPC   C3B67725  34.309  28.191   6.877
 5183POPC   C4B67726  34.374  27.995   7.273
 5184POPC   NC367727  41.472  18.809   5.189
 5184POPC   PO467728  41.436  19.414   5.311
 5184POPC   GL167729  41.534  19.158   5.690
 5184POPC   GL267730  41.522  18.789   5.691
 5184POPC   C1A67731  41.450  19.273   6.137
 5184POPC   D2A67732  41.521  19.083   6.541
 5184POPC   C3A67733  41.470  19.246   6.951
 5184POPC   C4A67734  41.855  19.148   7.171
 5184POPC   C1B67735  41.490  18.763   6.110
 5184POPC   C2B67736  41.359  18.610   6.494
 5184POPC   C3B67737  41.240  18.745   6.854
 5184POPC   C4B67738  41.529  18.785   7.177
 5185POPC   NC367739   8.115  34.970   5.397
 5185POPC   PO467740   8.562  34.515   5.474
 5185POPC   GL167741   8.211  34.560   5.744
 5185POPC   GL267742   8.256  34.240   5.891
 5185POPC   C1A67743   8.000  34.606   6.140
 5185POPC   D2A67744   8.172  34.625   6.561
 5185POPC   C3A67745   7.971  34.657   6.985
 5185POPC   C4A67746   8.002  34.999   7.280
 5185POPC   C1B67747   8.536  34.560   6.124
 5185POPC   C2B67748   8.676  34.480   6.496
 5185POPC   C3B67749   8.459  34.311   6.845
 5185POPC   C4B67750   8.315  34.352   7.236
 5186POPC   NC367751  10.991   7.628   5.105
 5186POPC   PO467752  11.492   7.413   5.433
 5186POPC   GL167753  11.326   7.491   5.869
 5186POPC   GL267754  11.142   7.205   6.056
 5186POPC   C1A67755  11.525   7.480   6.280
 5186POPC   D2A67756  11.548   7.696   6.671
 5186POPC   C3A67757  11.655   7.483   7.051
 5186POPC   C4A67758  11.434   7.510   7.404
 5186POPC   C1B67759  10.983   7.530   6.321
 5186POPC   C2B67760  11.027   7.586   6.758
 5186POPC   C3B67761  11.157   7.286   7.058
 5186POPC   C4B67762  11.074   7.106   7.486
 5187POPC   NC367763  29.725  35.642   5.457
 5187POPC   PO467764  30.307  35.233   5.466
 5187POPC   GL167765  30.083  35.096   5.811
 5187POPC   GL267766  29.751  35.198   5.717
 5187POPC   C1A67767  30.211  35.134   6.240
 5187POPC   D2A67768  30.045  35.318   6.592
 5187POPC   C3A67769  30.152  35.240   6.980
 5187POPC   C4A67770  30.271  35.587   7.261
 5187POPC   C1B67771  29.824  35.453   6.099
 5187POPC   C2B67772  29.626  35.565   6.482
 5187POPC   C3B67773  29.758  35.721   6.867
 5187POPC   C4B67774  29.570  35.648   7.258
 5188POPC   NC367775  15.085   7.770   5.437
 5188POPC   PO467776  15.303   7.234   5.345
 5188POPC   GL167777  15.153   7.141   5.749
 5188POPC   GL267778  15.143   7.490   5.873
 5188POPC   C1A67779  15.238   7.072   6.198
 5188POPC   D2A67780  15.330   7.387   6.521
 5188POPC   C3A67781  15.143   7.299   6.908
 5188POPC   C4A67782  15.303   7.349   7.313
 5188POPC   C1B67783  15.212   7.809   6.205
 5188POPC   C2B67784  15.397   7.911   6.595
 5188POPC   C3B67785  15.480   7.706   6.989
 5188POPC   C4B67786  15.492   7.821   7.412
 5189POPC   NC367787  22.327   0.010   5.458
 5189POPC   PO467788  22.031  44.334   5.583
 5189POPC   GL167789  22.200  44.621   5.868
 5189POPC   GL267790  21.952  44.888   5.808
 5189POPC   C1A67791  22.355  44.603   6.316
 5189POPC   D2A67792  22.228  44.507   6.742
 5189POPC   C3A67793  22.310  44.827   7.049
 5189POPC   C4A67794  22.327   0.057   7.463
 5189POPC   C1B67795  21.895   0.030   6.228
 5189POPC   C2B67796  21.848  44.829   6.614
 5189POPC   C3B67797  21.821  44.723   7.014
 5189POPC   C4B67798  21.897   0.062   7.229
 5190POPC   NC367799   2.198  29.410   5.716
 5190POPC   PO467800   1.590  29.484   5.359
 5190POPC   GL167801   1.693  29.342   5.823
 5190POPC   GL267802   1.817  28.993   5.817
 5190POPC   C1A67803   1.906  29.306   6.282
 5190POPC   D2A67804   2.037  29.368   6.739
 5190POPC   C3A67805   1.711  29.363   7.066
 5190POPC   C4A67806   1.758  29.144   7.475
 5190POPC   C1B67807   1.862  28.789   6.245
 5190POPC   C2B67808   1.860  28.661   6.699
 5190POPC   C3B67809   2.000  28.938   7.068
 5190POPC   C4B67810   2.250  29.039   7.477
 5191POPC   NC367811  38.199   8.512   5.409
 5191POPC   PO467812  37.664   8.932   5.343
 5191POPC   GL167813  37.758   8.690   5.749
 5191POPC   GL267814  37.535   8.410   5.875
 5191POPC   C1A67815  37.874   8.834   6.169
 5191POPC   D2A67816  37.775   9.243   6.404
 5191POPC   C3A67817  37.639   9.245   6.827
 5191POPC   C4A67818  37.857   9.355   7.192
 5191POPC   C1B67819  37.354   8.555   6.232
 5191POPC   C2B67820  37.555   8.748   6.556
 5191POPC   C3B67821  37.868   8.772   6.846
 5191POPC   C4B67822  37.690   8.884   7.241
 5192POPC   NC367823  26.883  20.166   5.496
 5192POPC   PO467824  26.871  19.487   5.731
 5192POPC   GL167825  26.791  19.816   5.920
 5192POPC   GL267826  27.085  19.939   5.873
 5192POPC   C1A67827  26.870  19.803   6.340
 5192POPC   D2A67828  26.822  20.078   6.624
 5192POPC   C3A67829  26.663  19.900   6.905
 5192POPC   C4A67830  26.663  19.945   7.316
 5192POPC   C1B67831  27.235  20.135   6.185
 5192POPC   C2B67832  27.307  19.982   6.567
 5192POPC   C3B67833  27.154  19.873   6.998
 5192POPC   C4B67834  27.110  19.773   7.444
 5193POPC   NC367835  38.565  29.576   5.505
 5193POPC   PO467836  38.607  28.889   5.456
 5193POPC   GL167837  38.768  29.149   5.795
 5193POPC   GL267838  38.865  28.847   5.987
 5193POPC   C1A67839  38.624  29.391   6.181
 5193POPC   D2A67840  38.256  29.361   6.449
 5193POPC   C3A67841  38.392  29.454   6.847
 5193POPC   C4A67842  38.325  29.265   7.229
 5193POPC   C1B67843  38.521  28.895   6.308
 5193POPC   C2B67844  38.414  28.938   6.768
 5193POPC   C3B67845  38.413  28.777   7.217
 5193POPC   C4B67846  38.596  28.813   7.642
 5194POPC   NC367847  37.709   4.480   5.137
 5194POPC   PO467848  37.805   3.900   5.382
 5194POPC   GL167849  37.899   4.230   5.686
 5194POPC   GL267850  37.613   4.218   5.831
 5194POPC   C1A67851  38.006   4.269   6.156
 5194POPC   D2A67852  38.025   3.985   6.555
 5194POPC   C3A67853  37.994   4.218   6.944
 5194POPC   C4A67854  37.848   4.585   7.168
 5194POPC   C1B67855  37.411   4.217   6.189
 5194POPC   C2B67856  37.609   4.297   6.553
 5194POPC   C3B67857  37.474   4.279   6.942
 5194POPC   C4B67858  37.382   4.374   7.331
 5195POPC   NC367859  13.141  26.575   5.641
 5195POPC   PO467860  13.793  26.842   5.447
 5195POPC   GL167861  13.704  27.006   5.859
 5195POPC   GL267862  13.890  27.338   5.943
 5195POPC   C1A67863  13.535  26.821   6.265
 5195POPC   D2A67864  13.308  26.962   6.637
 5195POPC   C3A67865  13.506  26.861   7.002
 5195POPC   C4A67866  13.631  26.473   7.149
 5195POPC   C1B67867  13.983  27.070   6.277
 5195POPC   C2B67868  14.010  26.708   6.480
 5195POPC   C3B67869  14.002  26.764   6.903
 5195POPC   C4B67870  13.930  27.165   7.112
 5196POPC   NC367871  10.046   8.776   5.393
 5196POPC   PO467872   9.485   9.091   5.269
 5196POPC   GL167873   9.684   9.034   5.700
 5196POPC   GL267874  10.075   9.115   5.769
 5196POPC   C1A67875   9.466   8.938   6.112
 5196POPC   D2A67876   9.516   8.742   6.523
 5196POPC   C3A67877   9.486   8.959   6.910
 5196POPC   C4A67878   9.648   8.791   7.247
 5196POPC   C1B67879   9.921   9.194   6.180
 5196POPC   C2B67880   9.755   9.261   6.594
 5196POPC   C3B67881  10.002   9.005   6.883
 5196POPC   C4B67882  10.238   8.998   7.266
 5197POPC   NC367883  23.443  32.708   5.506
 5197POPC   PO467884  23.332  33.337   5.375
 5197POPC   GL167885  23.481  33.122   5.833
 5197POPC   GL267886  23.717  32.846   5.948
 5197POPC   C1A67887  23.459  33.031   6.323
 5197POPC   D2A67888  23.739  33.178   6.683
 5197POPC   C3A67889  23.592  33.302   7.091
 5197POPC   C4A67890  23.507  32.916   7.254
 5197POPC   C1B67891  23.999  32.979   6.285
 5197POPC   C2B67892  24.186  32.877   6.668
 5197POPC   C3B67893  23.923  32.736   6.990
 5197POPC   C4B67894  24.029  32.656   7.392
 5198POPC   NC367895   7.853  11.394   5.550
 5198POPC   PO467896   7.175  11.121   5.397
 5198POPC   GL167897   7.363  11.297   5.751
 5198POPC   GL267898   7.644  11.100   5.905
 5198POPC   C1A67899   7.233  11.277   6.184
 5198POPC   D2A67900   7.445  11.244   6.577
 5198POPC   C3A67901   7.293  11.562   6.860
 5198POPC   C4A67902   7.270  11.275   7.186
 5198POPC   C1B67903   7.741  11.468   6.212
 5198POPC   C2B67904   7.769  11.655   6.664
 5198POPC   C3B67905   7.742  11.560   7.128
 5198POPC   C4B67906   7.817  11.671   7.567
 5199POPC   NC367907  19.444   5.930   5.395
 5199POPC   PO467908  18.771   5.767   5.529
 5199POPC   GL167909  19.070   5.986   5.787
 5199POPC   GL267910  19.401   6.218   5.805
 5199POPC   C1A67911  18.959   6.067   6.184
 5199POPC   D2A67912  18.963   6.270   6.558
 5199POPC   C3A67913  18.946   5.960   6.845
 5199POPC   C4A67914  18.877   5.903   7.251
 5199POPC   C1B67915  19.481   6.115   6.193
 5199POPC   C2B67916  19.484   6.269   6.577
 5199POPC   C3B67917  19.503   5.985   6.881
 5199POPC   C4B67918  19.395   5.843   7.254
 5200POPC   NC367919  30.826  30.051   5.348
 5200POPC   PO467920  30.207  29.890   5.689
 5200POPC   GL167921  30.605  29.919   5.884
 5200POPC   GL267922  30.732  30.234   5.832
 5200POPC   C1A67923  30.865  29.775   6.247
 5200POPC   D2A67924  30.784  29.532   6.635
 5200POPC   C3A67925  30.734  29.734   7.013
 5200POPC   C4A67926  30.639  29.896   7.438
 5200POPC   C1B67927  30.858  30.306   6.264
 5200POPC   C2B67928  30.889  30.103   6.675
 5200POPC   C3B67929  30.839  30.245   7.106
 5200POPC   C4B67930  30.904  30.320   7.569
 5201POPC   NC367931  10.773  14.404   5.567
 5201POPC   PO467932  10.250  14.062   5.622
 5201POPC   GL167933  10.477  14.258   5.926
 5201POPC   GL267934  10.447  14.640   5.887
 5201POPC   C1A67935  10.658  14.371   6.304
 5201POPC   D2A67936  10.385  14.427   6.656
 5201POPC   C3A67937  10.405  14.659   6.994
 5201POPC   C4A67938  10.425  14.339   7.302
 5201POPC   C1B67939  10.761  14.841   6.167
 5201POPC   C2B67940  10.798  14.751   6.621
 5201POPC   C3B67941  10.899  14.596   7.057
 5201POPC   C4B67942  10.724  14.732   7.440
 5202POPC   NC367943  16.276   4.825   5.341
 5202POPC   PO467944  16.939   5.080   5.332
 5202POPC   GL167945  16.654   5.015   5.681
 5202POPC   GL267946  16.430   5.287   5.832
 5202POPC   C1A67947  16.710   4.988   6.121
 5202POPC   D2A67948  16.735   4.834   6.524
 5202POPC   C3A67949  17.027   4.862   6.852
 5202POPC   C4A67950  16.799   4.848   7.258
 5202POPC   C1B67951  16.730   5.475   6.206
 5202POPC   C2B67952  16.821   5.337   6.648
 5202POPC   C3B67953  16.679   5.408   7.073
 5202POPC   C4B67954  16.647   5.256   7.517
 5203POPC   NC367955  33.413  34.296   5.083
 5203POPC   PO467956  32.812  34.431   5.372
 5203POPC   GL167957  32.933  34.697   5.725
 5203POPC   GL267958  33.299  34.728   5.823
 5203POPC   C1A67959  32.946  34.861   6.153
 5203POPC   D2A67960  33.185  34.791   6.537
 5203POPC   C3A67961  32.917  34.727   6.918
 5203POPC   C4A67962  33.045  34.628   7.320
 5203POPC   C1B67963  33.460  34.491   6.177
 5203POPC   C2B67964  33.539  34.337   6.568
 5203POPC   C3B67965  33.390  34.451   6.938
 5203POPC   C4B67966  33.443  34.314   7.325
 5204POPC   NC367967  34.369  19.564   5.556
 5204POPC   PO467968  34.714  18.940   5.437
 5204POPC   GL167969  34.699  19.219   5.781
 5204POPC   GL267970  34.356  19.183   5.928
 5204POPC   C1A67971  34.804  19.322   6.195
 5204POPC   D2A67972  34.611  19.121   6.537
 5204POPC   C3A67973  34.681  19.250   6.964
 5204POPC   C4A67974  34.415  19.153   7.282
 5204POPC   C1B67975  34.273  18.818   6.220
 5204POPC   C2B67976  34.482  18.607   6.547
 5204POPC   C3B67977  34.387  18.676   6.965
 5204POPC   C4B67978  34.092  18.756   7.232
 5205POPC   NC367979   0.124   7.308   5.473
 5205POPC   PO467980  44.397   7.405   5.410
 5205POPC   GL167981  44.689   7.318   5.769
 5205POPC   GL267982   0.023   7.504   5.916
 5205POPC   C1A67983  44.631   7.381   6.196
 5205POPC   D2A67984  44.800   7.289   6.566
 5205POPC   C3A67985  44.601   7.383   6.965
 5205POPC   C4A67986  44.611   7.403   7.406
 5205POPC   C1B67987  44.968   7.750   6.317
 5205POPC   C2B67988  44.966   7.726   6.782
 5205POPC   C3B67989  44.800   7.840   7.180
 5205POPC   C4B67990  44.948   7.704   7.633
 5206POPC   NC367991  35.137  16.258   5.509
 5206POPC   PO467992  35.620  15.850   5.153
 5206POPC   GL167993  35.567  15.879   5.618
 5206POPC   GL267994  35.633  16.208   5.728
 5206POPC   C1A67995  35.580  15.828   6.103
 5206POPC   D2A67996  35.618  16.059   6.523
 5206POPC   C3A67997  35.749  15.809   6.870
 5206POPC   C4A67998  35.451  15.745   7.138
 5206POPC   C1B67999  35.394  16.323   6.119
 5206POPC   C2B68000  35.140  16.285   6.499
 5206POPC   C3B68001  35.271  16.212   6.918
 5206POPC   C4B68002  35.134  16.218   7.351
 5207POPC   NC368003  32.734  19.416   5.428
 5207POPC   PO468004  32.087  19.241   5.331
 5207POPC   GL168005  32.071  19.083   5.737
 5207POPC   GL268006  31.976  18.741   5.612
 5207POPC   C1A68007  32.357  19.096   6.133
 5207POPC   D2A68008  32.449  18.945   6.571
 5207POPC   C3A68009  32.352  19.240   6.912
 5207POPC   C4A68010  32.517  19.217   7.343
 5207POPC   C1B68011  32.029  18.690   6.060
 5207POPC   C2B68012  32.032  18.590   6.498
 5207POPC   C3B68013  31.859  18.666   6.927
 5207POPC   C4B68014  31.912  19.005   7.232
 5208POPC   NC368015  26.519  33.712   5.511
 5208POPC   PO468016  27.201  33.473   5.546
 5208POPC   GL168017  27.075  33.761   5.891
 5208POPC   GL268018  26.737  33.848   5.946
 5208POPC   C1A68019  27.000  33.810   6.361
 5208POPC   D2A68020  27.057  34.038   6.731
 5208POPC   C3A68021  27.055  33.736   7.038
 5208POPC   C4A68022  26.686  33.548   7.190
 5208POPC   C1B68023  26.700  34.195   6.241
 5208POPC   C2B68024  26.512  34.358   6.621
 5208POPC   C3B68025  26.601  34.117   6.999
 5208POPC   C4B68026  26.844  34.061   7.352
 5209POPC   NC368027  31.751  18.051   5.401
 5209POPC   PO468028  31.141  17.822   5.483
 5209POPC   GL168029  31.390  18.162   5.790
 5209POPC   GL268030  31.757  18.296   5.850
 5209POPC   C1A68031  31.377  18.437   6.185
 5209POPC   D2A68032  31.353  18.286   6.624
 5209POPC   C3A68033  31.362  18.520   7.023
 5209POPC   C4A68034  31.237  18.406   7.425
 5209POPC   C1B68035  31.745  17.967   6.179
 5209POPC   C2B68036  31.751  17.953   6.640
 5209POPC   C3B68037  31.671  18.078   7.071
 5209POPC   C4B68038  31.825  17.969   7.480
 5210POPC   NC368039   9.801  37.918   5.498
 5210POPC   PO468040   9.441  37.444   5.665
 5210POPC   GL168041   9.530  37.765   5.920
 5210POPC   GL268042   9.902  37.697   5.952
 5210POPC   C1A68043   9.605  37.715   6.350
 5210POPC   D2A68044   9.889  37.969   6.562
 5210POPC   C3A68045   9.735  37.874   6.941
 5210POPC   C4A68046   9.816  37.652   7.309
 5210POPC   C1B68047  10.087  37.502   6.342
 5210POPC   C2B68048  10.128  37.551   6.809
 5210POPC   C3B68049  10.148  37.308   7.192
 5210POPC   C4B68050  10.131  37.375   7.670
 5211POPC   NC368051   9.628  20.674   5.410
 5211POPC   PO468052   9.854  20.095   5.285
 5211POPC   GL168053   9.742  20.310   5.728
 5211POPC   GL268054  10.027  20.526   5.856
 5211POPC   C1A68055   9.566  20.516   6.132
 5211POPC   D2A68056   9.339  20.738   6.528
 5211POPC   C3A68057   9.468  20.758   6.965
 5211POPC   C4A68058   9.659  20.452   7.201
 5211POPC   C1B68059  10.051  20.714   6.275
 5211POPC   C2B68060   9.907  20.651   6.723
 5211POPC   C3B68061   9.981  20.849   7.154
 5211POPC   C4B68062  10.167  20.767   7.599
 5212POPC   NC368063  17.800  32.888   5.370
 5212POPC   PO468064  17.205  33.159   5.382
 5212POPC   GL168065  17.352  33.085   5.800
 5212POPC   GL268066  17.689  33.147   5.840
 5212POPC   C1A68067  17.295  33.036   6.279
 5212POPC   D2A68068  17.519  33.133   6.666
 5212POPC   C3A68069  17.568  32.812   6.999
 5212POPC   C4A68070  17.185  32.707   7.197
 5212POPC   C1B68071  17.592  33.434   6.208
 5212POPC   C2B68072  17.513  33.651   6.600
 5212POPC   C3B68073  17.773  33.512   6.924
 5212POPC   C4B68074  17.479  33.283   7.191
 5213POPC   NC368075  21.240  12.511   5.687
 5213POPC   PO468076  21.590  13.037   5.344
 5213POPC   GL168077  21.571  12.867   5.824
 5213POPC   GL268078  21.698  13.084   6.022
 5213POPC   C1A68079  21.370  12.707   6.281
 5213POPC   D2A68080  21.055  12.727   6.644
 5213POPC   C3A68081  21.216  12.893   7.070
 5213POPC   C4A68082  21.429  12.653   7.413
 5213POPC   C1B68083  21.792  12.943   6.426
 5213POPC   C2B68084  21.617  12.742   6.770
 5213POPC   C3B68085  21.757  12.910   7.143
 5213POPC   C4B68086  21.691  13.077   7.535
 5214POPC   NC368087   5.708  35.564   5.434
 5214POPC   PO468088   6.226  35.050   5.517
 5214POPC   GL168089   5.981  35.325   5.816
 5214POPC   GL268090   5.614  35.356   5.909
 5214POPC   C1A68091   6.071  35.461   6.219
 5214POPC   D2A68092   5.835  35.302   6.538
 5214POPC   C3A68093   6.056  35.389   6.901
 5214POPC   C4A68094   5.929  35.240   7.311
 5214POPC   C1B68095   5.648  35.734   6.192
 5214POPC   C2B68096   5.889  35.797   6.615
 5214POPC   C3B68097   5.724  35.713   7.067
 5214POPC   C4B68098   5.659  35.652   7.510
 5215POPC   NC368099  17.592   2.978   5.308
 5215POPC   PO468100  17.413   2.483   5.533
 5215POPC   GL168101  17.418   2.746   5.853
 5215POPC   GL268102  17.732   2.917   5.819
 5215POPC   C1A68103  17.431   2.562   6.244
 5215POPC   D2A68104  17.662   2.380   6.558
 5215POPC   C3A68105  17.481   2.512   6.929
 5215POPC   C4A68106  17.115   2.628   7.163
 5215POPC   C1B68107  17.692   2.985   6.285
 5215POPC   C2B68108  17.526   3.018   6.732
 5215POPC   C3B68109  17.567   2.948   7.192
 5215POPC   C4B68110  17.712   3.012   7.641
 5216POPC   NC368111   7.658  37.330   5.552
 5216POPC   PO468112   7.170  37.814   5.298
 5216POPC   GL168113   7.414  37.783   5.708
 5216POPC   GL268114   7.761  37.911   5.643
 5216POPC   C1A68115   7.498  37.556   6.146
 5216POPC   D2A68116   7.298  37.368   6.531
 5216POPC   C3A68117   7.541  37.460   6.922
 5216POPC   C4A68118   7.707  37.565   7.335
 5216POPC   C1B68119   7.648  38.043   6.082
 5216POPC   C2B68120   7.669  38.086   6.530
 5216POPC   C3B68121   7.777  37.923   6.927
 5216POPC   C4B68122   7.671  38.078   7.298
 5217POPC   NC368123  38.207  26.800   5.423
 5217POPC   PO468124  37.573  26.637   5.417
 5217POPC   GL168125  37.577  26.859   5.807
 5217POPC   GL268126  37.894  27.009   5.790
 5217POPC   C1A68127  37.388  26.985   6.205
 5217POPC   D2A68128  37.587  26.948   6.601
 5217POPC   C3A68129  37.590  27.194   6.954
 5217POPC   C4A68130  37.489  26.935   7.306
 5217POPC   C1B68131  37.912  27.117   6.228
 5217POPC   C2B68132  38.108  26.931   6.610
 5217POPC   C3B68133  37.969  26.823   7.054
 5217POPC   C4B68134  37.976  26.847   7.531
 5218POPC   NC368135  25.527  17.792   5.528
 5218POPC   PO468136  25.058  17.258   5.420
 5218POPC   GL168137  25.111  17.517   5.803
 5218POPC   GL268138  25.457  17.432   5.879
 5218POPC   C1A68139  25.160  17.436   6.272
 5218POPC   D2A68140  25.114  17.609   6.664
 5218POPC   C3A68141  25.309  17.386   6.998
 5218POPC   C4A68142  25.053  17.182   7.262
 5218POPC   C1B68143  25.532  17.783   6.178
 5218POPC   C2B68144  25.519  17.943   6.606
 5218POPC   C3B68145  25.357  17.875   7.029
 5218POPC   C4B68146  24.945  17.907   7.222
 5219POPC   NC368147   0.627   0.885   4.987
 5219POPC   PO468148   0.654   1.491   5.401
 5219POPC   GL168149   0.347   1.372   5.685
 5219POPC   GL268150   0.226   1.690   5.825
 5219POPC   C1A68151   0.146   1.169   6.058
 5219POPC   D2A68152   0.244   1.015   6.484
 5219POPC   C3A68153   0.013   0.973   6.886
 5219POPC   C4A68154   0.231   0.838   7.237
 5219POPC   C1B68155   0.439   1.578   6.174
 5219POPC   C2B68156   0.264   1.525   6.573
 5219POPC   C3B68157   0.264   1.616   7.004
 5219POPC   C4B68158   0.256   1.339   7.303
 5220POPC   NC368159  17.978  22.445   5.303
 5220POPC   PO468160  18.522  22.045   5.252
 5220POPC   GL168161  18.575  22.102   5.682
 5220POPC   GL268162  18.365  22.378   5.717
 5220POPC   C1A68163  18.465  22.031   6.117
 5220POPC   D2A68164  18.222  22.110   6.504
 5220POPC   C3A68165  18.351  22.320   6.874
 5220POPC   C4A68166  18.398  21.965   7.121
 5220POPC   C1B68167  18.309  22.521   6.142
 5220POPC   C2B68168  18.066  22.591   6.517
 5220POPC   C3B68169  17.763  22.597   6.834
 5220POPC   C4B68170  17.984  22.481   7.214
 5221POPC   NC368171  43.611   3.002   5.369
 5221POPC   PO468172  44.089   2.500   5.508
 5221POPC   GL168173  43.855   2.623   5.863
 5221POPC   GL268174  43.765   2.974   5.842
 5221POPC   C1A68175  43.884   2.799   6.292
 5221POPC   D2A68176  44.006   2.973   6.668
 5221POPC   C3A68177  43.921   2.659   6.954
 5221POPC   C4A68178  44.216   2.669   7.245
 5221POPC   C1B68179  43.450   3.097   6.126
 5221POPC   C2B68180  43.538   3.186   6.544
 5221POPC   C3B68181  43.688   3.304   6.930
 5221POPC   C4B68182  43.834   3.047   7.249
 5222POPC   NC368183  30.209  36.587   5.580
 5222POPC   PO468184  29.815  36.100   5.383
 5222POPC   GL168185  29.669  36.068   5.784
 5222POPC   GL268186  29.832  36.385   5.847
 5222POPC   C1A68187  29.788  35.963   6.197
 5222POPC   D2A68188  30.124  35.806   6.461
 5222POPC   C3A68189  30.220  35.957   6.893
 5222POPC   C4A68190  29.978  36.035   7.259
 5222POPC   C1B68191  29.938  36.434   6.276
 5222POPC   C2B68192  29.869  36.233   6.666
 5222POPC   C3B68193  29.959  36.478   7.016
 5222POPC   C4B68194  29.767  36.515   7.410
 5223POPC   NC368195  39.651   1.030   5.793
 5223POPC   PO468196  39.082   1.175   5.430
 5223POPC   GL168197  39.162   1.137   5.848
 5223POPC   GL268198  39.289   1.387   6.053
 5223POPC   C1A68199  39.097   0.924   6.222
 5223POPC   D2A68200  39.331   0.875   6.535
 5223POPC   C3A68201  39.370   1.154   6.883
 5223POPC   C4A68202  39.433   1.336   7.286
 5223POPC   C1B68203  38.823   1.372   6.134
 5223POPC   C2B68204  38.754   1.434   6.550
 5223POPC   C3B68205  38.766   1.388   6.956
 5223POPC   C4B68206  38.955   1.187   7.222
 5224POPC   NC368207  44.124  31.944   5.468
 5224POPC   PO468208  43.617  32.372   5.402
 5224POPC   GL168209  43.722  32.110   5.736
 5224POPC   GL268210  44.004  32.294   5.830
 5224POPC   C1A68211  43.874  31.906   6.124
 5224POPC   D2A68212  43.911  31.855   6.575
 5224POPC   C3A68213  44.136  32.052   6.944
 5224POPC   C4A68214  43.818  32.114   7.268
 5224POPC   C1B68215  43.943  32.401   6.241
 5224POPC   C2B68216  43.865  32.383   6.666
 5224POPC   C3B68217  43.931  32.565   7.082
 5224POPC   C4B68218  44.121  32.724   7.455
 5225POPC   NC368219  28.697  43.757   5.384
 5225POPC   PO468220  27.965  43.737   5.290
 5225POPC   GL168221  28.223  43.706   5.695
 5225POPC   GL268222  27.993  43.493   5.899
 5225POPC   C1A68223  28.547  43.710   6.082
 5225POPC   D2A68224  28.465  43.650   6.579
 5225POPC   C3A68225  28.421  43.859   7.019
 5225POPC   C4A68226  28.386  43.730   7.489
 5225POPC   C1B68227  28.080  43.846   6.213
 5225POPC   C2B68228  28.151  44.082   6.616
 5225POPC   C3B68229  27.976  44.234   6.988
 5225POPC   C4B68230  28.162  44.167   7.398
 5226POPC   NC368231  22.112   1.642   5.557
 5226POPC   PO468232  22.260   2.151   5.142
 5226POPC   GL168233  22.164   2.169   5.640
 5226POPC   GL268234  21.809   2.329   5.713
 5226POPC   C1A68235  22.192   2.019   6.107
 5226POPC   D2A68236  22.285   1.746   6.489
 5226POPC   C3A68237  22.178   1.864   6.918
 5226POPC   C4A68238  22.244   2.229   7.199
 5226POPC   C1B68239  21.763   2.304   6.139
 5226POPC   C2B68240  21.834   2.066   6.500
 5226POPC   C3B68241  21.817   2.239   6.895
 5226POPC   C4B68242  21.793   2.013   7.273
 5227POPC   NC368243   1.940  20.123   5.735
 5227POPC   PO468244   2.231  19.571   5.528
 5227POPC   GL168245   2.034  19.636   5.929
 5227POPC   GL268246   1.693  19.530   5.913
 5227POPC   C1A68247   2.046  19.895   6.329
 5227POPC   D2A68248   1.838  19.846   6.735
 5227POPC   C3A68249   2.061  19.831   7.104
 5227POPC   C4A68250   2.303  20.160   7.249
 5227POPC   C1B68251   1.605  19.646   6.308
 5227POPC   C2B68252   1.565  19.408   6.669
 5227POPC   C3B68253   1.635  19.501   7.102
 5227POPC   C4B68254   1.856  19.540   7.474
 5228POPC   NC368255  26.197  36.249   5.377
 5228POPC   PO468256  26.596  35.880   5.432
 5228POPC   GL168257  26.291  35.858   5.815
 5228POPC   GL268258  25.998  36.112   5.857
 5228POPC   C1A68259  26.160  35.872   6.299
 5228POPC   D2A68260  26.078  36.111   6.718
 5228POPC   C3A68261  25.903  35.879   7.076
 5228POPC   C4A68262  26.125  35.549   7.293
 5228POPC   C1B68263  25.783  36.233   6.283
 5228POPC   C2B68264  25.761  36.507   6.667
 5228POPC   C3B68265  25.798  36.391   7.126
 5228POPC   C4B68266  25.684  36.272   7.573
 5229POPC   NC368267  15.777  13.281   5.437
 5229POPC   PO468268  16.231  13.774   5.475
 5229POPC   GL168269  16.042  13.529   5.792
 5229POPC   GL268270  16.270  13.317   5.986
 5229POPC   C1A68271  15.718  13.656   6.076
 5229POPC   D2A68272  15.574  13.512   6.468
 5229POPC   C3A68273  15.841  13.392   6.790
 5229POPC   C4A68274  15.809  13.516   7.227
 5229POPC   C1B68275  16.223  13.737   6.200
 5229POPC   C2B68276  15.987  13.890   6.534
 5229POPC   C3B68277  16.113  13.790   6.940
 5229POPC   C4B68278  16.244  13.319   7.097
 5230POPC   NC368279  18.018  27.438   5.556
 5230POPC   PO468280  17.334  27.381   5.459
 5230POPC   GL168281  17.573  27.565   5.823
 5230POPC   GL268282  17.766  27.892   5.843
 5230POPC   C1A68283  17.742  27.369   6.210
 5230POPC   D2A68284  17.577  27.220   6.607
 5230POPC   C3A68285  17.556  27.385   7.010
 5230POPC   C4A68286  17.796  27.709   7.186
 5230POPC   C1B68287  17.531  27.822   6.262
 5230POPC   C2B68288  17.609  27.789   6.694
 5230POPC   C3B68289  17.329  27.879   7.060
 5230POPC   C4B68290  17.170  28.157   7.370
 5231POPC   NC368291  16.392  10.556   5.145
 5231POPC   PO468292  15.845  10.345   5.494
 5231POPC   GL168293  15.753  10.534   5.855
 5231POPC   GL268294  15.682  10.219   5.977
 5231POPC   C1A68295  15.768  10.647   6.283
 5231POPC   D2A68296  16.016  10.574   6.632
 5231POPC   C3A68297  15.727  10.630   6.962
 5231POPC   C4A68298  15.806  10.585   7.371
 5231POPC   C1B68299  16.055  10.211   6.226
 5231POPC   C2B68300  16.097  10.056   6.618
 5231POPC   C3B68301  16.020  10.201   7.005
 5231POPC   C4B68302  16.171  10.244   7.416
 5232POPC   NC368303  20.754   3.681   5.350
 5232POPC   PO468304  20.354   3.231   5.571
 5232POPC   GL168305  20.686   3.388   5.803
 5232POPC   GL268306  20.531   3.707   5.837
 5232POPC   C1A68307  20.602   3.400   6.254
 5232POPC   D2A68308  20.234   3.330   6.521
 5232POPC   C3A68309  20.405   3.440   6.913
 5232POPC   C4A68310  20.440   3.781   7.193
 5232POPC   C1B68311  20.937   3.790   6.103
 5232POPC   C2B68312  21.094   3.796   6.562
 5232POPC   C3B68313  20.931   3.828   7.001
 5232POPC   C4B68314  20.852   3.840   7.463
 5233POPC   NC368315  22.738   6.960   5.387
 5233POPC   PO468316  22.997   6.373   5.607
 5233POPC   GL168317  22.942   6.730   5.816
 5233POPC   GL268318  23.252   6.728   5.998
 5233POPC   C1A68319  22.765   6.707   6.214
 5233POPC   D2A68320  23.090   6.758   6.524
 5233POPC   C3A68321  22.969   6.723   6.929
 5233POPC   C4A68322  22.565   6.837   7.073
 5233POPC   C1B68323  23.241   6.342   6.299
 5233POPC   C2B68324  23.288   6.304   6.774
 5233POPC   C3B68325  23.402   6.161   7.209
 5233POPC   C4B68326  23.282   6.349   7.669
 5234POPC   NC368327  10.085  15.837   5.380
 5234POPC   PO468328   9.505  16.048   5.438
 5234POPC   GL168329   9.776  16.045   5.758
 5234POPC   GL268330   9.838  15.691   5.799
 5234POPC   C1A68331   9.809  16.046   6.196
 5234POPC   D2A68332   9.727  15.870   6.607
 5234POPC   C3A68333   9.841  16.171   6.919
 5234POPC   C4A68334  10.013  16.071   7.317
 5234POPC   C1B68335  10.089  15.574   6.145
 5234POPC   C2B68336  10.236  15.572   6.551
 5234POPC   C3B68337  10.171  15.750   6.951
 5234POPC   C4B68338  10.219  15.564   7.346
 5235POPC   NC368339   9.614   2.274   5.367
 5235POPC   PO468340  10.104   1.796   5.426
 5235POPC   GL168341   9.978   1.970   5.790
 5235POPC   GL268342   9.661   2.060   5.825
 5235POPC   C1A68343   9.948   1.969   6.240
 5235POPC   D2A68344   9.672   1.946   6.597
 5235POPC   C3A68345   9.853   2.111   6.978
 5235POPC   C4A68346  10.114   1.868   7.231
 5235POPC   C1B68347   9.506   2.279   6.205
 5235POPC   C2B68348   9.208   2.202   6.557
 5235POPC   C3B68349   9.325   2.048   6.955
 5235POPC   C4B68350   9.571   1.699   7.090
 5236POPC   NC368351   4.577  20.309   5.424
 5236POPC   PO468352   5.195  20.384   5.375
 5236POPC   GL168353   5.184  20.544   5.805
 5236POPC   GL268354   4.839  20.579   5.807
 5236POPC   C1A68355   5.198  20.608   6.257
 5236POPC   D2A68356   5.044  20.785   6.639
 5236POPC   C3A68357   5.297  20.619   6.988
 5236POPC   C4A68358   5.323  20.754   7.429
 5236POPC   C1B68359   4.815  20.277   6.137
 5236POPC   C2B68360   4.859  20.278   6.568
 5236POPC   C3B68361   4.800  20.408   6.976
 5236POPC   C4B68362   4.659  20.492   7.382
 5237POPC   NC368363   4.927   5.498   5.099
 5237POPC   PO468364   5.077   4.963   5.332
 5237POPC   GL168365   5.137   5.006   5.754
 5237POPC   GL268366   5.130   5.357   5.696
 5237POPC   C1A68367   5.143   4.854   6.190
 5237POPC   D2A68368   4.892   4.797   6.571
 5237POPC   C3A68369   5.059   4.935   6.974
 5237POPC   C4A68370   5.174   4.706   7.333
 5237POPC   C1B68371   5.009   5.339   6.134
 5237POPC   C2B68372   5.109   5.320   6.581
 5237POPC   C3B68373   4.865   5.465   6.949
 5237POPC   C4B68374   4.631   5.531   7.338
 5238POPC   NC368375  20.087  37.529   5.683
 5238POPC   PO468376  19.679  37.892   5.267
 5238POPC   GL168377  19.774  37.942   5.758
 5238POPC   GL268378  20.137  38.040   5.883
 5238POPC   C1A68379  19.640  37.733   6.188
 5238POPC   D2A68380  19.792  37.401   6.506
 5238POPC   C3A68381  19.727  37.447   6.958
 5238POPC   C4A68382  19.406  37.403   7.255
 5238POPC   C1B68383  20.100  37.897   6.325
 5238POPC   C2B68384  19.914  37.875   6.741
 5238POPC   C3B68385  19.734  37.923   7.158
 5238POPC   C4B68386  19.819  37.604   7.473
 5239POPC   NC368387  28.451   8.689   5.300
 5239POPC   PO468388  28.748   9.259   5.297
 5239POPC   GL168389  28.707   8.950   5.704
 5239POPC   GL268390  28.385   8.811   5.791
 5239POPC   C1A68391  28.659   8.863   6.201
 5239POPC   D2A68392  28.467   8.743   6.615
 5239POPC   C3A68393  28.458   8.888   7.080
 5239POPC   C4A68394  28.092   8.973   7.395
 5239POPC   C1B68395  28.125   8.824   6.180
 5239POPC   C2B68396  27.941   8.811   6.597
 5239POPC   C3B68397  28.026   8.633   7.011
 5239POPC   C4B68398  28.244   8.470   7.384
 5240POPC   NC368399  15.510  19.014   5.362
 5240POPC   PO468400  14.864  19.004   5.439
 5240POPC   GL168401  15.151  19.177   5.739
 5240POPC   GL268402  15.407  18.976   5.853
 5240POPC   C1A68403  15.126  19.235   6.199
 5240POPC   D2A68404  14.978  19.162   6.640
 5240POPC   C3A68405  15.164  19.343   7.056
 5240POPC   C4A68406  15.065  19.201   7.512
 5240POPC   C1B68407  15.588  19.038   6.264
 5240POPC   C2B68408  15.493  19.113   6.701
 5240POPC   C3B68409  15.435  18.899   7.111
 5240POPC   C4B68410  15.405  18.810   7.583
 5241POPC   NC368411  10.556  30.827   5.258
 5241POPC   PO468412  10.722  31.259   5.777
 5241POPC   GL168413  10.692  30.827   5.735
 5241POPC   GL268414  10.398  30.702   5.805
 5241POPC   C1A68415  10.843  30.630   6.072
 5241POPC   D2A68416  10.695  30.830   6.444
 5241POPC   C3A68417  10.552  30.555   6.726
 5241POPC   C4A68418  10.745  30.624   7.101
 5241POPC   C1B68419  10.261  30.859   6.167
 5241POPC   C2B68420  10.131  30.800   6.566
 5241POPC   C3B68421  10.299  30.941   6.945
 5241POPC   C4B68422  10.258  31.050   7.366
 5242POPC   NC368423  24.689   0.133   5.473
 5242POPC   PO468424  24.276   0.646   5.453
 5242POPC   GL168425  24.353   0.392   5.831
 5242POPC   GL268426  24.379   0.023   5.874
 5242POPC   C1A68427  24.275   0.365   6.280
 5242POPC   D2A68428  24.520   0.632   6.550
 5242POPC   C3A68429  24.444   0.573   6.976
 5242POPC   C4A68430  24.669   0.639   7.353
 5242POPC   C1B68431  24.725   0.168   6.175
 5242POPC   C2B68432  24.636   0.152   6.651
 5242POPC   C3B68433  24.807   0.213   7.082
 5242POPC   C4B68434  24.710   0.135   7.539
 5243POPC   NC368435  28.808  17.539   5.349
 5243POPC   PO468436  28.157  17.322   5.084
 5243POPC   GL168437  28.166  17.520   5.582
 5243POPC   GL268438  28.452  17.595   5.729
 5243POPC   C1A68439  28.192  17.336   6.068
 5243POPC   D2A68440  28.265  17.442   6.523
 5243POPC   C3A68441  28.188  17.424   6.999
 5243POPC   C4A68442  28.069  17.533   7.445
 5243POPC   C1B68443  28.603  17.651   6.133
 5243POPC   C2B68444  28.783  17.434   6.463
 5243POPC   C3B68445  28.659  17.568   6.865
 5243POPC   C4B68446  28.678  17.321   7.243
 5244POPC   NC368447  10.200   4.365   5.263
 5244POPC   PO468448  10.931   4.117   5.500
 5244POPC   GL168449  10.608   4.158   5.827
 5244POPC   GL268450  10.359   4.412   5.778
 5244POPC   C1A68451  10.451   4.053   6.225
 5244POPC   D2A68452  10.697   4.037   6.585
 5244POPC   C3A68453  10.488   4.003   6.958
 5244POPC   C4A68454  10.642   4.243   7.290
 5244POPC   C1B68455  10.472   4.564   6.217
 5244POPC   C2B68456  10.358   4.457   6.672
 5244POPC   C3B68457  10.381   4.642   7.130
 5244POPC   C4B68458  10.352   4.523   7.616
 5245POPC   NC368459   9.288  37.084   5.400
 5245POPC   PO468460   8.759  36.751   5.433
 5245POPC   GL168461   8.799  36.806   5.865
 5245POPC   GL268462   8.943  37.126   5.799
 5245POPC   C1A68463   8.752  36.999   6.308
 5245POPC   D2A68464   8.699  36.979   6.763
 5245POPC   C3A68465   8.917  36.609   6.917
 5245POPC   C4A68466   8.908  36.538   7.339
 5245POPC   C1B68467   9.245  37.003   6.108
 5245POPC   C2B68468   9.366  37.239   6.481
 5245POPC   C3B68469   9.145  37.269   6.881
 5245POPC   C4B68470   9.043  37.005   7.223
 5246POPC   NC368471  18.543  34.045   5.314
 5246POPC   PO468472  18.031  33.568   5.346
 5246POPC   GL168473  18.121  33.836   5.692
 5246POPC   GL268474  18.030  33.544   5.862
 5246POPC   C1A68475  18.337  33.880   6.128
 5246POPC   D2A68476  18.360  34.125   6.545
 5246POPC   C3A68477  18.398  33.906   6.936
 5246POPC   C4A68478  18.562  33.942   7.320
 5246POPC   C1B68479  18.123  33.440   6.259
 5246POPC   C2B68480  18.359  33.541   6.591
 5246POPC   C3B68481  18.394  33.381   7.015
 5246POPC   C4B68482  18.308  33.494   7.421
 5247POPC   NC368483   9.437  32.034   5.537
 5247POPC   PO468484  10.046  32.341   5.526
 5247POPC   GL168485   9.759  32.206   5.894
 5247POPC   GL268486   9.491  32.436   5.920
 5247POPC   C1A68487   9.658  32.154   6.355
 5247POPC   D2A68488   9.840  32.292   6.770
 5247POPC   C3A68489   9.608  32.296   7.162
 5247POPC   C4A68490   9.706  32.542   7.583
 5247POPC   C1B68491   9.295  32.546   6.332
 5247POPC   C2B68492   9.359  32.601   6.793
 5247POPC   C3B68493   9.319  32.686   7.252
 5247POPC   C4B68494   9.247  32.352   7.592
 5248POPC   NC368495  22.950  35.248   5.355
 5248POPC   PO468496  22.500  35.761   5.431
 5248POPC   GL168497  22.793  35.589   5.769
 5248POPC   GL268498  22.949  35.254   5.853
 5248POPC   C1A68499  23.076  35.640   6.153
 5248POPC   D2A68500  23.175  35.400   6.572
 5248POPC   C3A68501  22.984  35.494   6.993
 5248POPC   C4A68502  22.775  35.808   7.257
 5248POPC   C1B68503  22.753  35.281   6.272
 5248POPC   C2B68504  22.724  35.144   6.684
 5248POPC   C3B68505  22.818  35.017   7.082
 5248POPC   C4B68506  23.113  35.086   7.409
 5249POPC   NC368507  32.531  34.878   5.354
 5249POPC   PO468508  32.068  34.359   5.402
 5249POPC   GL168509  32.081  34.505   5.831
 5249POPC   GL268510  32.442  34.520   5.756
 5249POPC   C1A68511  32.103  34.267   6.271
 5249POPC   D2A68512  32.084  34.107   6.741
 5249POPC   C3A68513  32.348  34.369   7.057
 5249POPC   C4A68514  32.224  34.520   7.481
 5249POPC   C1B68515  32.489  34.629   6.194
 5249POPC   C2B68516  32.423  34.662   6.637
 5249POPC   C3B68517  32.280  34.852   7.040
 5249POPC   C4B68518  32.591  34.847   7.369
 5250POPC   NC368519  31.720  13.836   5.472
 5250POPC   PO468520  31.269  13.332   5.244
 5250POPC   GL168521  31.480  13.405   5.692
 5250POPC   GL268522  31.326  13.707   5.797
 5250POPC   C1A68523  31.427  13.397   6.199
 5250POPC   D2A68524  31.264  13.344   6.664
 5250POPC   C3A68525  31.496  13.497   7.077
 5250POPC   C4A68526  31.692  13.423   7.528
 5250POPC   C1B68527  31.453  13.942   6.180
 5250POPC   C2B68528  31.375  13.836   6.639
 5250POPC   C3B68529  31.318  14.018   7.044
 5250POPC   C4B68530  30.953  14.046   7.300
 5251POPC   NC368531  30.952  16.654   5.145
 5251POPC   PO468532  31.604  16.644   5.101
 5251POPC   GL168533  31.293  16.858   5.530
 5251POPC   GL268534  31.532  17.067   5.785
 5251POPC   C1A68535  31.244  16.720   6.061
 5251POPC   D2A68536  31.397  16.649   6.529
 5251POPC   C3A68537  31.166  16.766   6.928
 5251POPC   C4A68538  31.337  16.777   7.345
 5251POPC   C1B68539  31.702  16.917   6.191
 5251POPC   C2B68540  31.729  17.083   6.566
 5251POPC   C3B68541  31.677  16.941   6.960
 5251POPC   C4B68542  31.793  17.109   7.327
 5252POPC   NC368543   5.061  36.287   5.194
 5252POPC   PO468544   4.863  36.948   5.330
 5252POPC   GL168545   5.012  37.003   5.772
 5252POPC   GL268546   4.681  37.027   5.921
 5252POPC   C1A68547   5.200  36.945   6.209
 5252POPC   D2A68548   5.293  37.182   6.579
 5252POPC   C3A68549   5.234  36.949   6.943
 5252POPC   C4A68550   5.604  36.782   7.120
 5252POPC   C1B68551   4.804  36.639   6.161
 5252POPC   C2B68552   4.892  36.754   6.605
 5252POPC   C3B68553   4.783  36.668   7.033
 5252POPC   C4B68554   4.723  36.971   7.325
 5253POPC   NC368555   5.271  36.549   5.607
 5253POPC   PO468556   4.698  36.413   5.462
 5253POPC   GL168557   4.946  36.109   5.717
 5253POPC   GL268558   4.767  35.805   5.773
 5253POPC   C1A68559   5.260  36.109   6.103
 5253POPC   D2A68560   5.241  36.444   6.414
 5253POPC   C3A68561   5.085  36.307   6.842
 5253POPC   C4A68562   5.239  36.461   7.262
 5253POPC   C1B68563   4.775  36.015   6.188
 5253POPC   C2B68564   4.950  35.844   6.573
 5253POPC   C3B68565   4.813  35.846   6.992
 5253POPC   C4B68566   4.822  36.180   7.295
 5254POPC   NC368567   7.938  23.042   5.563
 5254POPC   PO468568   8.493  22.648   5.474
 5254POPC   GL168569   8.293  22.766   5.826
 5254POPC   GL268570   8.019  22.578   5.754
 5254POPC   C1A68571   8.102  22.895   6.218
 5254POPC   D2A68572   7.940  22.954   6.639
 5254POPC   C3A68573   8.287  23.040   6.939
 5254POPC   C4A68574   8.251  23.162   7.393
 5254POPC   C1B68575   7.890  22.428   6.114
 5254POPC   C2B68576   7.869  22.429   6.528
 5254POPC   C3B68577   7.781  22.563   6.914
 5254POPC   C4B68578   8.003  22.735   7.204
 5255POPC   NC368579  11.651  13.021   5.315
 5255POPC   PO468580  12.283  13.009   5.565
 5255POPC   GL168581  11.970  12.847   5.852
 5255POPC   GL268582  11.770  12.605   5.674
 5255POPC   C1A68583  11.877  12.914   6.302
 5255POPC   D2A68584  11.796  13.164   6.688
 5255POPC   C3A68585  12.100  13.070   7.038
 5255POPC   C4A68586  12.304  12.872   7.443
 5255POPC   C1B68587  11.678  12.491   6.104
 5255POPC   C2B68588  11.977  12.447   6.450
 5255POPC   C3B68589  11.867  12.650   6.814
 5255POPC   C4B68590  11.871  12.650   7.236
 5256POPC   NC368591   0.023  18.278   5.599
 5256POPC   PO468592  44.386  18.047   5.574
 5256POPC   GL168593  44.577  18.274   5.876
 5256POPC   GL268594  44.751  18.004   5.984
 5256POPC   C1A68595  44.655  18.383   6.326
 5256POPC   D2A68596  44.858  18.409   6.717
 5256POPC   C3A68597  44.512  18.498   7.011
 5256POPC   C4A68598  44.348  18.226   7.325
 5256POPC   C1B68599  44.362  17.976   6.259
 5256POPC   C2B68600  44.403  18.099   6.694
 5256POPC   C3B68601  44.675  17.977   7.017
 5256POPC   C4B68602  44.981  17.715   7.229
 5257POPC   NC368603   9.306  12.557   5.493
 5257POPC   PO468604   8.893  13.108   5.437
 5257POPC   GL168605   9.069  12.929   5.752
 5257POPC   GL268606   9.320  13.140   5.777
 5257POPC   C1A68607   8.991  12.765   6.146
 5257POPC   D2A68608   9.157  12.638   6.540
 5257POPC   C3A68609   8.845  12.716   6.859
 5257POPC   C4A68610   9.010  12.538   7.206
 5257POPC   C1B68611   9.021  13.310   6.099
 5257POPC   C2B68612   8.959  13.129   6.504
 5257POPC   C3B68613   8.908  13.275   6.902
 5257POPC   C4B68614   8.935  13.105   7.286
 5258POPC   NC368615  32.836   0.127   5.287
 5258POPC   PO468616  33.430   0.432   5.425
 5258POPC   GL168617  33.046   0.500   5.693
 5258POPC   GL268618  32.813   0.216   5.775
 5258POPC   C1A68619  32.858   0.581   6.119
 5258POPC   D2A68620  33.002   0.422   6.491
 5258POPC   C3A68621  33.201   0.664   6.807
 5258POPC   C4A68622  33.144   0.626   7.261
 5258POPC   C1B68623  32.674   0.088   6.177
 5258POPC   C2B68624  32.592   0.158   6.606
 5258POPC   C3B68625  32.743   0.395   6.930
 5258POPC   C4B68626  32.744   0.268   7.289
 5259POPC   NC368627  27.651  33.120   5.440
 5259POPC   PO468628  27.245  32.574   5.420
 5259POPC   GL168629  27.471  32.780   5.794
 5259POPC   GL268630  27.390  33.121   5.875
 5259POPC   C1A68631  27.768  32.967   6.149
 5259POPC   D2A68632  27.590  33.078   6.558
 5259POPC   C3A68633  27.793  33.015   6.963
 5259POPC   C4A68634  27.674  33.163   7.385
 5259POPC   C1B68635  27.256  32.822   6.235
 5259POPC   C2B68636  27.369  32.626   6.646
 5259POPC   C3B68637  27.341  32.821   7.066
 5259POPC   C4B68638  27.156  32.697   7.443
 5260POPC   NC368639  22.983  28.253   5.540
 5260POPC   PO468640  23.363  28.746   5.521
 5260POPC   GL168641  22.979  28.628   5.858
 5260POPC   GL268642  22.598  28.551   5.708
 5260POPC   C1A68643  22.858  28.362   6.188
 5260POPC   D2A68644  23.042  28.329   6.587
 5260POPC   C3A68645  22.735  28.249   6.872
 5260POPC   C4A68646  22.837  28.075   7.245
 5260POPC   C1B68647  22.528  28.755   6.097
 5260POPC   C2B68648  22.760  28.764   6.493
 5260POPC   C3B68649  22.594  28.738   6.894
 5260POPC   C4B68650  22.825  28.606   7.235
 5261POPC   NC368651  27.861   8.114   5.556
 5261POPC   PO468652  27.315   8.483   5.452
 5261POPC   GL168653  27.379   8.171   5.787
 5261POPC   GL268654  27.348   8.397   6.015
 5261POPC   C1A68655  27.540   7.975   6.218
 5261POPC   D2A68656  27.756   7.899   6.627
 5261POPC   C3A68657  27.498   8.014   7.017
 5261POPC   C4A68658  27.646   8.132   7.466
 5261POPC   C1B68659  27.708   8.448   6.297
 5261POPC   C2B68660  27.674   8.396   6.733
 5261POPC   C3B68661  27.546   8.510   7.145
 5261POPC   C4B68662  27.613   8.645   7.570
 5262POPC   NC368663  17.817  32.222   5.738
 5262POPC   PO468664  17.515  32.356   5.177
 5262POPC   GL168665  17.411  32.528   5.629
 5262POPC   GL268666  17.347  32.262   5.908
 5262POPC   C1A68667  17.553  32.684   6.065
 5262POPC   D2A68668  17.636  32.643   6.510
 5262POPC   C3A68669  17.415  32.365   6.782
 5262POPC   C4A68670  17.483  32.312   7.211
 5262POPC   C1B68671  17.434  32.061   6.320
 5262POPC   C2B68672  17.421  31.849   6.729
 5262POPC   C3B68673  17.751  31.896   7.020
 5262POPC   C4B68674  18.159  31.916   7.162
 5263POPC   NC368675  29.708  26.986   5.398
 5263POPC   PO468676  29.662  26.299   5.341
 5263POPC   GL168677  29.654  26.583   5.702
 5263POPC   GL268678  29.994  26.666   5.773
 5263POPC   C1A68679  29.648  26.809   6.119
 5263POPC   D2A68680  29.815  26.811   6.578
 5263POPC   C3A68681  29.701  26.997   7.002
 5263POPC   C4A68682  29.752  26.832   7.433
 5263POPC   C1B68683  30.044  26.479   6.221
 5263POPC   C2B68684  30.075  26.387   6.691
 5263POPC   C3B68685  30.155  26.738   6.995
 5263POPC   C4B68686  30.265  26.947   7.415
 5264POPC   NC368687  13.102  32.921   5.452
 5264POPC   PO468688  12.561  33.319   5.579
 5264POPC   GL168689  12.771  33.012   5.885
 5264POPC   GL268690  13.008  32.703   5.891
 5264POPC   C1A68691  12.755  32.988   6.333
 5264POPC   D2A68692  12.947  33.236   6.629
 5264POPC   C3A68693  12.967  33.094   7.059
 5264POPC   C4A68694  13.124  33.166   7.503
 5264POPC   C1B68695  12.954  32.519   6.292
 5264POPC   C2B68696  12.691  32.449   6.628
 5264POPC   C3B68697  12.578  32.717   6.962
 5264POPC   C4B68698  12.493  33.038   7.273
 5265POPC   NC368699  10.995  13.183   5.534
 5265POPC   PO468700  11.382  12.630   5.350
 5265POPC   GL168701  11.296  12.816   5.725
 5265POPC   GL268702  11.507  13.099   5.796
 5265POPC   C1A68703  11.220  12.764   6.152
 5265POPC   D2A68704  11.441  12.775   6.529
 5265POPC   C3A68705  11.203  12.753   6.908
 5265POPC   C4A68706  11.393  12.890   7.284
 5265POPC   C1B68707  11.518  13.255   6.208
 5265POPC   C2B68708  11.235  13.258   6.541
 5265POPC   C3B68709  11.199  13.250   6.968
 5265POPC   C4B68710  10.886  13.112   7.279
 5266POPC   NC368711  43.057  29.391   5.033
 5266POPC   PO468712  42.904  28.912   5.476
 5266POPC   GL168713  42.962  28.850   5.854
 5266POPC   GL268714  43.320  28.895   5.784
 5266POPC   C1A68715  43.047  29.151   6.179
 5266POPC   D2A68716  43.174  29.390   6.526
 5266POPC   C3A68717  43.151  29.277   6.943
 5266POPC   C4A68718  43.150  29.442   7.353
 5266POPC   C1B68719  43.344  28.718   6.181
 5266POPC   C2B68720  43.194  28.872   6.590
 5266POPC   C3B68721  43.379  28.815   6.994
 5266POPC   C4B68722  43.241  28.930   7.375
 5267POPC   NC368723  34.015  30.931   5.369
 5267POPC   PO468724  33.462  30.507   5.356
 5267POPC   GL168725  33.527  30.530   5.790
 5267POPC   GL268726  33.868  30.638   5.782
 5267POPC   C1A68727  33.716  30.378   6.193
 5267POPC   D2A68728  33.836  30.547   6.573
 5267POPC   C3A68729  33.482  30.643   6.782
 5267POPC   C4A68730  33.483  30.459   7.164
 5267POPC   C1B68731  33.853  30.890   6.182
 5267POPC   C2B68732  33.936  31.051   6.645
 5267POPC   C3B68733  33.845  30.880   7.059
 5267POPC   C4B68734  33.506  30.917   7.340
 5268POPC   NC368735   6.860  10.845   5.597
 5268POPC   PO468736   6.572  10.247   5.406
 5268POPC   GL168737   6.570  10.417   5.804
 5268POPC   GL268738   6.430  10.728   5.855
 5268POPC   C1A68739   6.866  10.475   6.140
 5268POPC   D2A68740   6.909  10.752   6.476
 5268POPC   C3A68741   6.638  10.672   6.848
 5268POPC   C4A68742   6.754  10.550   7.269
 5268POPC   C1B68743   6.430  10.711   6.265
 5268POPC   C2B68744   6.303  10.967   6.567
 5268POPC   C3B68745   6.375  11.121   6.906
 5268POPC   C4B68746   6.356  10.900   7.273
 5269POPC   NC368747  36.875  40.753   5.179
 5269POPC   PO468748  37.324  40.443   5.224
 5269POPC   GL168749  37.220  40.653   5.658
 5269POPC   GL268750  36.896  40.842   5.747
 5269POPC   C1A68751  37.167  40.657   6.158
 5269POPC   D2A68752  37.076  40.794   6.625
 5269POPC   C3A68753  36.950  40.538   7.003
 5269POPC   C4A68754  37.110  40.390   7.417
 5269POPC   C1B68755  36.866  41.079   6.186
 5269POPC   C2B68756  36.905  41.279   6.628
 5269POPC   C3B68757  36.901  41.098   7.066
 5269POPC   C4B68758  36.784  40.795   7.414
 5270POPC   NC368759   2.958  41.121   5.496
 5270POPC   PO468760   3.175  40.416   5.496
 5270POPC   GL168761   2.914  40.675   5.790
 5270POPC   GL268762   3.054  40.918   5.973
 5270POPC   C1A68763   2.618  40.739   6.144
 5270POPC   D2A68764   2.374  41.025   6.452
 5270POPC   C3A68765   2.463  40.952   6.912
 5270POPC   C4A68766   2.386  40.558   7.184
 5270POPC   C1B68767   3.111  40.566   6.265
 5270POPC   C2B68768   2.933  40.435   6.673
 5270POPC   C3B68769   2.877  40.611   7.089
 5270POPC   C4B68770   2.776  40.439   7.505
 5271POPC   NC368771   4.662  41.971   5.287
 5271POPC   PO468772   4.419  42.376   5.739
 5271POPC   GL168773   4.319  42.692   5.957
 5271POPC   GL268774   4.013  42.814   5.778
 5271POPC   C1A68775   4.281  42.585   6.402
 5271POPC   D2A68776   4.246  42.216   6.663
 5271POPC   C3A68777   4.513  42.131   7.004
 5271POPC   C4A68778   4.436  42.096   7.455
 5271POPC   C1B68779   3.842  42.673   6.170
 5271POPC   C2B68780   3.822  42.704   6.639
 5271POPC   C3B68781   4.146  42.633   6.949
 5271POPC   C4B68782   4.154  42.512   7.386
 5272POPC   NC368783  39.287  43.968   5.159
 5272POPC   PO468784  39.016  43.481   5.533
 5272POPC   GL168785  39.035  43.822   5.784
 5272POPC   GL268786  39.330  43.984   5.669
 5272POPC   C1A68787  39.022  43.754   6.227
 5272POPC   D2A68788  39.034  43.570   6.610
 5272POPC   C3A68789  39.195  43.774   6.964
 5272POPC   C4A68790  38.961  43.743   7.333
 5272POPC   C1B68791  39.375  44.095   6.087
 5272POPC   C2B68792  39.446  43.899   6.513
 5272POPC   C3B68793  39.624  44.090   6.872
 5272POPC   C4B68794  39.531  44.008   7.258
 5273POPC   NC368795  41.835  23.815   5.447
 5273POPC   PO468796  41.111  23.670   5.456
 5273POPC   GL168797  41.402  23.642   5.813
 5273POPC   GL268798  41.742  23.462   5.801
 5273POPC   C1A68799  41.475  23.477   6.237
 5273POPC   D2A68800  41.570  23.341   6.658
 5273POPC   C3A68801  41.457  23.679   6.940
 5273POPC   C4A68802  41.370  23.798   7.360
 5273POPC   C1B68803  41.952  23.718   6.127
 5273POPC   C2B68804  41.845  23.785   6.567
 5273POPC   C3B68805  41.971  23.799   7.008
 5273POPC   C4B68806  41.883  24.090   7.336
 5274POPC   NC368807  11.488  16.939   5.252
 5274POPC   PO468808  10.912  16.597   5.504
 5274POPC   GL168809  11.150  16.700   5.865
 5274POPC   GL268810  11.221  16.993   5.708
 5274POPC   C1A68811  11.217  16.614   6.305
 5274POPC   D2A68812  11.439  16.648   6.681
 5274POPC   C3A68813  11.231  16.511   7.031
 5274POPC   C4A68814  11.004  16.602   7.396
 5274POPC   C1B68815  11.184  17.126   6.139
 5274POPC   C2B68816  11.164  17.181   6.597
 5274POPC   C3B68817  11.307  17.031   7.015
 5274POPC   C4B68818  11.332  16.995   7.494
 5275POPC   NC368819  12.686  31.880   5.462
 5275POPC   PO468820  13.045  32.459   5.416
 5275POPC   GL168821  13.010  32.197   5.727
 5275POPC   GL268822  12.683  32.277   5.814
 5275POPC   C1A68823  13.052  32.060   6.127
 5275POPC   D2A68824  13.295  32.120   6.522
 5275POPC   C3A68825  13.071  32.219   6.894
 5275POPC   C4A68826  12.914  32.049   7.256
 5275POPC   C1B68827  12.487  32.208   6.203
 5275POPC   C2B68828  12.290  32.084   6.595
 5275POPC   C3B68829  12.516  32.085   6.954
 5275POPC   C4B68830  12.521  32.371   7.319
 5276POPC   NC368831   6.538  31.419   5.517
 5276POPC   PO468832   6.593  31.967   5.257
 5276POPC   GL168833   6.606  31.880   5.778
 5276POPC   GL268834   6.450  31.680   6.016
 5276POPC   C1A68835   6.905  31.796   6.185
 5276POPC   D2A68836   6.956  31.504   6.553
 5276POPC   C3A68837   6.668  31.598   6.899
 5276POPC   C4A68838   6.768  31.820   7.267
 5276POPC   C1B68839   6.567  31.320   6.298
 5276POPC   C2B68840   6.676  31.105   6.738
 5276POPC   C3B68841   6.758  31.204   7.209
 5276POPC   C4B68842   6.625  31.143   7.657
 5277POPC   NC368843  28.827   4.048   5.354
 5277POPC   PO468844  29.507   3.949   5.491
 5277POPC   GL168845  29.247   4.244   5.766
 5277POPC   GL268846  28.895   4.229   5.820
 5277POPC   C1A68847  29.203   4.352   6.206
 5277POPC   D2A68848  29.351   4.163   6.596
 5277POPC   C3A68849  29.216   4.344   6.972
 5277POPC   C4A68850  29.041   4.692   7.224
 5277POPC   C1B68851  28.950   3.909   6.166
 5277POPC   C2B68852  28.932   3.841   6.618
 5277POPC   C3B68853  28.850   3.986   7.045
 5277POPC   C4B68854  28.863   3.962   7.520
 5278POPC   NC368855  30.295  13.259   5.172
 5278POPC   PO468856  29.789  13.686   5.348
 5278POPC   GL168857  30.028  13.507   5.709
 5278POPC   GL268858  30.027  13.833   5.815
 5278POPC   C1A68859  29.926  13.433   6.172
 5278POPC   D2A68860  29.772  13.551   6.618
 5278POPC   C3A68861  29.897  13.321   6.964
 5278POPC   C4A68862  30.063  13.458   7.335
 5278POPC   C1B68863  29.911  13.950   6.226
 5278POPC   C2B68864  30.062  14.002   6.613
 5278POPC   C3B68865  29.964  13.830   6.994
 5278POPC   C4B68866  29.964  13.987   7.381
 5279POPC   NC368867   4.892  35.613   5.300
 5279POPC   PO468868   5.422  35.162   5.433
 5279POPC   GL168869   5.102  35.338   5.699
 5279POPC   GL268870   5.258  35.676   5.711
 5279POPC   C1A68871   4.884  35.158   6.092
 5279POPC   D2A68872   4.889  35.280   6.545
 5279POPC   C3A68873   5.227  35.045   6.764
 5279POPC   C4A68874   5.216  34.854   7.172
 5279POPC   C1B68875   5.135  35.610   6.141
 5279POPC   C2B68876   5.350  35.514   6.529
 5279POPC   C3B68877   5.246  35.547   6.929
 5279POPC   C4B68878   5.289  35.374   7.333
 5280POPC   NC368879  24.773  17.647   5.403
 5280POPC   PO468880  24.210  17.225   5.499
 5280POPC   GL168881  24.462  17.443   5.759
 5280POPC   GL268882  24.254  17.686   5.887
 5280POPC   C1A68883  24.665  17.430   6.153
 5280POPC   D2A68884  24.522  17.408   6.588
 5280POPC   C3A68885  24.722  17.503   7.005
 5280POPC   C4A68886  24.707  17.478   7.483
 5280POPC   C1B68887  24.122  17.348   6.146
 5280POPC   C2B68888  24.074  17.101   6.485
 5280POPC   C3B68889  24.183  17.166   6.878
 5280POPC   C4B68890  24.237  17.453   7.213
 5281POPC   NC368891  12.815  18.869   5.499
 5281POPC   PO468892  13.022  19.491   5.211
 5281POPC   GL168893  12.992  19.356   5.644
 5281POPC   GL268894  12.647  19.330   5.747
 5281POPC   C1A68895  13.050  19.319   6.104
 5281POPC   D2A68896  13.055  18.978   6.433
 5281POPC   C3A68897  13.023  19.110   6.847
 5281POPC   C4A68898  12.911  19.168   7.254
 5281POPC   C1B68899  12.636  19.024   6.104
 5281POPC   C2B68900  12.547  19.106   6.533
 5281POPC   C3B68901  12.542  18.944   6.923
 5281POPC   C4B68902  12.441  19.048   7.323
 5282POPC   NC368903  13.138  16.932   5.635
 5282POPC   PO468904  12.553  16.560   5.558
 5282POPC   GL168905  12.862  16.556   5.887
 5282POPC   GL268906  13.195  16.416   5.980
 5282POPC   C1A68907  12.691  16.689   6.261
 5282POPC   D2A68908  12.467  16.496   6.579
 5282POPC   C3A68909  12.717  16.638   6.890
 5282POPC   C4A68910  12.681  17.019   7.125
 5282POPC   C1B68911  13.201  16.810   6.270
 5282POPC   C2B68912  13.059  17.034   6.669
 5282POPC   C3B68913  13.174  16.843   7.068
 5282POPC   C4B68914  13.103  16.398   7.163
 5283POPC   NC368915  21.140  13.481   5.462
 5283POPC   PO468916  21.074  12.937   5.741
 5283POPC   GL168917  21.203  13.274   5.998
 5283POPC   GL268918  21.449  13.502   5.879
 5283POPC   C1A68919  21.438  13.330   6.388
 5283POPC   D2A68920  21.534  13.265   6.827
 5283POPC   C3A68921  21.182  13.476   7.030
 5283POPC   C4A68922  21.162  13.902   7.224
 5283POPC   C1B68923  21.625  13.776   6.195
 5283POPC   C2B68924  21.536  13.776   6.654
 5283POPC   C3B68925  21.635  13.725   7.105
 5283POPC   C4B68926  21.631  13.974   7.486
 5284POPC   NC368927   8.706  16.886   5.367
 5284POPC   PO468928   9.294  16.640   5.313
 5284POPC   GL168929   9.010  16.619   5.706
 5284POPC   GL268930   8.723  16.854   5.874
 5284POPC   C1A68931   8.984  16.488   6.123
 5284POPC   D2A68932   8.787  16.677   6.483
 5284POPC   C3A68933   8.854  16.476   6.856
 5284POPC   C4A68934   8.983  16.510   7.250
 5284POPC   C1B68935   9.025  17.007   6.176
 5284POPC   C2B68936   9.226  16.946   6.596
 5284POPC   C3B68937   9.048  16.972   7.012
 5284POPC   C4B68938   9.038  16.990   7.484
 5285POPC   NC368939  37.772  33.339   5.413
 5285POPC   PO468940  37.279  32.801   5.527
 5285POPC   GL168941  37.586  33.018   5.782
 5285POPC   GL268942  37.443  33.295   5.798
 5285POPC   C1A68943  37.787  33.216   6.181
 5285POPC   D2A68944  37.952  33.283   6.616
 5285POPC   C3A68945  37.845  32.978   6.962
 5285POPC   C4A68946  37.956  32.944   7.420
 5285POPC   C1B68947  37.383  33.513   6.141
 5285POPC   C2B68948  37.369  33.457   6.569
 5285POPC   C3B68949  37.525  33.393   6.982
 5285POPC   C4B68950  37.477  33.126   7.330
 5286POPC   NC368951  25.670   3.886   5.271
 5286POPC   PO468952  25.116   3.499   5.531
 5286POPC   GL168953  25.462   3.540   5.788
 5286POPC   GL268954  25.544   3.909   5.776
 5286POPC   C1A68955  25.436   3.315   6.199
 5286POPC   D2A68956  25.010   3.413   6.401
 5286POPC   C3A68957  24.944   3.602   6.825
 5286POPC   C4A68958  25.032   3.497   7.267
 5286POPC   C1B68959  25.309   3.823   6.170
 5286POPC   C2B68960  25.432   3.663   6.593
 5286POPC   C3B68961  25.376   3.786   7.035
 5286POPC   C4B68962  25.352   3.808   7.521
 5287POPC   NC368963  36.147  12.385   5.211
 5287POPC   PO468964  36.806  12.262   5.380
 5287POPC   GL168965  36.355  12.082   5.573
 5287POPC   GL268966  36.142  11.756   5.670
 5287POPC   C1A68967  36.206  12.096   6.025
 5287POPC   D2A68968  36.226  12.042   6.485
 5287POPC   C3A68969  35.939  12.257   6.752
 5287POPC   C4A68970  36.087  12.369   7.143
 5287POPC   C1B68971  35.942  11.674   6.121
 5287POPC   C2B68972  35.787  11.748   6.572
 5287POPC   C3B68973  35.983  11.784   6.971
 5287POPC   C4B68974  35.973  11.906   7.395
 5288POPC   NC368975  24.568  33.050   5.560
 5288POPC   PO468976  23.914  32.850   5.501
 5288POPC   GL168977  24.151  33.109   5.835
 5288POPC   GL268978  24.299  32.778   5.912
 5288POPC   C1A68979  24.487  33.135   6.218
 5288POPC   D2A68980  24.685  33.039   6.611
 5288POPC   C3A68981  24.507  33.309   6.919
 5288POPC   C4A68982  24.100  33.210   7.076
 5288POPC   C1B68983  24.501  32.635   6.311
 5288POPC   C2B68984  24.630  32.442   6.689
 5288POPC   C3B68985  24.413  32.549   7.054
 5288POPC   C4B68986  24.500  32.925   7.246
 5289POPC   NC368987  27.156  28.034   5.440
 5289POPC   PO468988  26.889  27.431   5.284
 5289POPC   GL168989  26.921  27.678   5.712
 5289POPC   GL268990  26.873  27.473   5.975
 5289POPC   C1A68991  27.072  27.897   6.144
 5289POPC   D2A68992  26.942  27.719   6.554
 5289POPC   C3A68993  27.062  27.734   7.002
 5289POPC   C4A68994  26.739  27.860   7.299
 5289POPC   C1B68995  26.784  27.249   6.335
 5289POPC   C2B68996  26.619  27.149   6.708
 5289POPC   C3B68997  26.627  27.404   7.059
 5289POPC   C4B68998  26.806  27.376   7.451
 5290POPC   NC368999   1.791   2.365   5.549
 5290POPC   PO469000   2.116   1.767   5.408
 5290POPC   GL169001   2.089   2.003   5.809
 5290POPC   GL269002   1.737   2.035   5.929
 5290POPC   C1A69003   2.148   2.239   6.208
 5290POPC   D2A69004   2.239   2.286   6.641
 5290POPC   C3A69005   1.959   2.042   6.909
 5290POPC   C4A69006   2.154   2.022   7.272
 5290POPC   C1B69007   1.929   1.777   6.239
 5290POPC   C2B69008   1.778   1.653   6.614
 5290POPC   C3B69009   1.946   1.483   6.926
 5290POPC   C4B69010   1.913   1.570   7.313
 5291POPC   NC369011  11.436  22.059   5.228
 5291POPC   PO469012  10.895  21.648   5.323
 5291POPC   GL169013  11.162  21.987   5.657
 5291POPC   GL269014  11.532  21.893   5.726
 5291POPC   C1A69015  11.282  22.197   6.083
 5291POPC   D2A69016  11.433  22.130   6.536
 5291POPC   C3A69017  11.244  22.355   6.912
 5291POPC   C4A69018  11.371  22.365   7.340
 5291POPC   C1B69019  11.760  21.995   6.137
 5291POPC   C2B69020  11.890  21.855   6.570
 5291POPC   C3B69021  11.696  21.898   7.005
 5291POPC   C4B69022  11.680  21.971   7.462
 5292POPC   NC369023  36.370  13.280   5.371
 5292POPC   PO469024  35.967  13.810   5.303
 5292POPC   GL169025  35.913  13.691   5.712
 5292POPC   GL269026  35.810  13.997   5.856
 5292POPC   C1A69027  35.832  13.519   6.119
 5292POPC   D2A69028  35.905  13.783   6.487
 5292POPC   C3A69029  35.839  13.586   6.877
 5292POPC   C4A69030  36.051  13.367   7.156
 5292POPC   C1B69031  36.201  13.976   6.086
 5292POPC   C2B69032  36.328  14.110   6.494
 5292POPC   C3B69033  36.192  14.059   6.904
 5292POPC   C4B69034  35.974  13.956   7.249
 5293POPC   NC369035   9.828  39.476   5.376
 5293POPC   PO469036   9.771  38.798   5.412
 5293POPC   GL169037   9.663  39.037   5.780
 5293POPC   GL269038   9.842  39.379   5.868
 5293POPC   C1A69039   9.530  39.146   6.195
 5293POPC   D2A69040   9.627  39.437   6.535
 5293POPC   C3A69041   9.696  39.293   6.931
 5293POPC   C4A69042   9.617  39.041   7.276
 5293POPC   C1B69043  10.059  39.096   6.124
 5293POPC   C2B69044  10.193  39.114   6.536
 5293POPC   C3B69045  10.203  39.389   6.869
 5293POPC   C4B69046  10.104  39.194   7.238
 5294POPC   NC369047   4.100   3.747   5.544
 5294POPC   PO469048   4.535   3.341   5.255
 5294POPC   GL169049   4.455   3.300   5.713
 5294POPC   GL269050   4.130   3.146   5.829
 5294POPC   C1A69051   4.508   3.385   6.181
 5294POPC   D2A69052   4.600   3.462   6.652
 5294POPC   C3A69053   4.352   3.735   6.929
 5294POPC   C4A69054   4.547   4.038   7.183
 5294POPC   C1B69055   4.087   3.107   6.298
 5294POPC   C2B69056   4.107   3.293   6.734
 5294POPC   C3B69057   4.160   3.333   7.205
 5294POPC   C4B69058   4.114   3.398   7.652
 5295POPC   NC369059   9.747   6.792   5.438
 5295POPC   PO469060   9.698   6.084   5.575
 5295POPC   GL169061   9.591   6.414   5.734
 5295POPC   GL269062   9.901   6.508   5.821
 5295POPC   C1A69063   9.405   6.603   6.080
 5295POPC   D2A69064   9.370   6.744   6.505
 5295POPC   C3A69065   9.637   6.547   6.797
 5295POPC   C4A69066   9.653   6.540   7.238
 5295POPC   C1B69067   9.897   6.350   6.208
 5295POPC   C2B69068  10.096   6.537   6.524
 5295POPC   C3B69069  10.082   6.804   6.870
 5295POPC   C4B69070  10.133   6.671   7.283
 5296POPC   NC369071   8.696  29.129   5.509
 5296POPC   PO469072   9.338  29.381   5.456
 5296POPC   GL169073   9.155  29.151   5.797
 5296POPC   GL269074   8.834  29.272   5.962
 5296POPC   C1A69075   9.155  29.035   6.245
 5296POPC   D2A69076   9.327  29.223   6.571
 5296POPC   C3A69077   9.200  29.111   6.958
 5296POPC   C4A69078   9.300  29.439   7.210
 5296POPC   C1B69079   8.841  29.493   6.361
 5296POPC   C2B69080   8.795  29.328   6.768
 5296POPC   C3B69081   8.698  29.081   7.146
 5296POPC   C4B69082   8.651  28.953   7.602
 5297POPC   NC369083  44.640  24.321   5.400
 5297POPC   PO469084  44.088  24.690   5.135
 5297POPC   GL169085  44.195  24.438   5.579
 5297POPC   GL269086  44.280  24.146   5.788
 5297POPC   C1A69087  44.323  24.555   6.065
 5297POPC   D2A69088  44.615  24.487   6.440
 5297POPC   C3A69089  44.501  24.502   6.892
 5297POPC   C4A69090  44.903  24.529   7.163
 5297POPC   C1B69091  44.618  24.120   6.083
 5297POPC   C2B69092  44.584  23.976   6.539
 5297POPC   C3B69093  44.695  24.052   6.978
 5297POPC   C4B69094  44.568  24.217   7.397
 5298POPC   NC369095  36.760  43.235   5.416
 5298POPC   PO469096  37.321  43.277   5.189
 5298POPC   GL169097  37.184  43.292   5.699
 5298POPC   GL269098  37.027  43.008   5.794
 5298POPC   C1A69099  37.108  43.227   6.208
 5298POPC   D2A69100  36.925  43.192   6.595
 5298POPC   C3A69101  37.148  43.187   6.924
 5298POPC   C4A69102  37.008  43.121   7.294
 5298POPC   C1B69103  36.793  42.837   6.174
 5298POPC   C2B69104  36.564  42.853   6.557
 5298POPC   C3B69105  36.755  42.814   6.946
 5298POPC   C4B69106  36.717  42.716   7.359
 5299POPC   NC369107  44.245   2.917   5.663
 5299POPC   PO469108  44.736   2.721   5.259
 5299POPC   GL169109  44.800   2.742   5.710
 5299POPC   GL269110  44.697   3.018   5.918
 5299POPC   C1A69111  44.692   2.535   6.105
 5299POPC   D2A69112  44.826   2.389   6.504
 5299POPC   C3A69113  44.619   2.495   6.930
 5299POPC   C4A69114  44.690   2.578   7.375
 5299POPC   C1B69115  44.433   2.954   6.323
 5299POPC   C2B69116  44.529   3.006   6.774
 5299POPC   C3B69117  44.547   3.054   7.235
 5299POPC   C4B69118  44.247   3.141   7.543
 5300POPC   NC369119  12.391   3.694   5.518
 5300POPC   PO469120  13.091   3.581   5.357
 5300POPC   GL169121  12.990   3.744   5.766
 5300POPC   GL269122  12.704   3.941   5.830
 5300POPC   C1A69123  12.874   3.582   6.180
 5300POPC   D2A69124  12.995   3.428   6.581
 5300POPC   C3A69125  12.773   3.442   6.963
 5300POPC   C4A69126  12.967   3.450   7.368
 5300POPC   C1B69127  12.493   3.921   6.200
 5300POPC   C2B69128  12.519   3.720   6.589
 5300POPC   C3B69129  12.589   3.916   6.984
 5300POPC   C4B69130  12.574   3.773   7.393
 5301POPC   NC369131   3.317  30.963   5.442
 5301POPC   PO469132   3.721  30.441   5.398
 5301POPC   GL169133   3.518  30.617   5.816
 5301POPC   GL269134   3.788  30.774   6.046
 5301POPC   C1A69135   3.326  30.796   6.242
 5301POPC   D2A69136   3.528  30.705   6.669
 5301POPC   C3A69137   3.429  30.938   7.046
 5301POPC   C4A69138   3.508  31.228   7.382
 5301POPC   C1B69139   3.631  30.377   6.274
 5301POPC   C2B69140   3.848  30.289   6.679
 5301POPC   C3B69141   3.886  30.583   7.034
 5301POPC   C4B69142   3.643  30.647   7.427
 5302POPC   NC369143  28.411   7.312   5.306
 5302POPC   PO469144  28.014   7.797   5.242
 5302POPC   GL169145  28.281   7.538   5.704
 5302POPC   GL269146  28.557   7.620   5.850
 5302POPC   C1A69147  28.235   7.206   6.062
 5302POPC   D2A69148  28.125   6.923   6.429
 5302POPC   C3A69149  28.171   6.981   6.898
 5302POPC   C4A69150  28.421   7.125   7.267
 5302POPC   C1B69151  28.391   7.625   6.308
 5302POPC   C2B69152  28.490   7.401   6.718
 5302POPC   C3B69153  28.604   7.567   7.116
 5302POPC   C4B69154  28.511   7.644   7.560
 5303POPC   NC369155  42.879  41.580   5.529
 5303POPC   PO469156  43.294  41.808   5.057
 5303POPC   GL169157  43.222  41.928   5.622
 5303POPC   GL269158  43.338  41.644   5.860
 5303POPC   C1A69159  42.952  41.862   6.080
 5303POPC   D2A69160  42.952  41.546   6.429
 5303POPC   C3A69161  42.786  41.598   6.860
 5303POPC   C4A69162  42.864  41.869   7.202
 5303POPC   C1B69163  43.412  41.840   6.310
 5303POPC   C2B69164  43.212  41.845   6.743
 5303POPC   C3B69165  43.242  41.532   7.137
 5303POPC   C4B69166  43.263  41.335   7.578
 5304POPC   NC369167  26.360  34.419   5.404
 5304POPC   PO469168  25.756  34.712   5.300
 5304POPC   GL169169  25.935  34.474   5.690
 5304POPC   GL269170  26.227  34.666   5.849
 5304POPC   C1A69171  25.848  34.345   6.141
 5304POPC   D2A69172  25.973  34.376   6.603
 5304POPC   C3A69173  25.870  34.559   7.000
 5304POPC   C4A69174  26.088  34.698   7.380
 5304POPC   C1B69175  26.160  34.747   6.307
 5304POPC   C2B69176  26.014  34.955   6.706
 5304POPC   C3B69177  25.889  35.104   7.134
 5304POPC   C4B69178  25.985  35.155   7.601
 5305POPC   NC369179  42.027  44.378   5.453
 5305POPC   PO469180  42.300  43.730   5.501
 5305POPC   GL169181  42.307  43.748   5.912
 5305POPC   GL269182  42.413  43.423   5.916
 5305POPC   C1A69183  42.358  43.971   6.290
 5305POPC   D2A69184  42.105  44.285   6.516
 5305POPC   C3A69185  42.056  44.206   6.922
 5305POPC   C4A69186  42.306  44.107   7.263
 5305POPC   C1B69187  42.218  43.362   6.269
 5305POPC   C2B69188  42.410  43.538   6.600
 5305POPC   C3B69189  42.501  43.933   6.785
 5305POPC   C4B69190  42.634  43.748   7.126
 5306POPC   NC369191   4.417  30.473   5.378
 5306POPC   PO469192   4.471  31.102   5.397
 5306POPC   GL169193   4.259  30.829   5.763
 5306POPC   GL269194   4.100  30.460   5.792
 5306POPC   C1A69195   4.390  30.783   6.206
 5306POPC   D2A69196   4.524  31.066   6.555
 5306POPC   C3A69197   4.411  30.911   6.980
 5306POPC   C4A69198   4.429  30.732   7.393
 5306POPC   C1B69199   4.140  30.348   6.250
 5306POPC   C2B69200   4.324  30.485   6.656
 5306POPC   C3B69201   4.285  30.287   7.072
 5306POPC   C4B69202   3.963  30.235   7.408
 5307POPC   NC369203  35.575  12.767   5.551
 5307POPC   PO469204  36.205  12.838   5.320
 5307POPC   GL169205  36.052  12.850   5.743
 5307POPC   GL269206  36.000  12.480   5.733
 5307POPC   C1A69207  35.984  12.986   6.217
 5307POPC   D2A69208  36.085  13.123   6.675
 5307POPC   C3A69209  35.956  12.881   7.081
 5307POPC   C4A69210  35.791  13.060   7.466
 5307POPC   C1B69211  36.312  12.587   6.080
 5307POPC   C2B69212  36.403  12.631   6.526
 5307POPC   C3B69213  36.453  12.822   6.929
 5307POPC   C4B69214  36.398  12.722   7.339
 5308POPC   NC369215  14.144   6.005   5.294
 5308POPC   PO469216  13.427   5.834   5.275
 5308POPC   GL169217  13.599   5.853   5.687
 5308POPC   GL269218  13.812   6.163   5.699
 5308POPC   C1A69219  13.560   5.626   6.117
 5308POPC   D2A69220  13.430   5.778   6.542
 5308POPC   C3A69221  13.753   5.666   6.829
 5308POPC   C4A69222  13.900   5.503   7.248
 5308POPC   C1B69223  13.578   6.136   6.116
 5308POPC   C2B69224  13.526   6.286   6.549
 5308POPC   C3B69225  13.638   6.138   6.957
 5308POPC   C4B69226  13.534   5.838   7.251
 5309POPC   NC369227  41.549  32.610   5.306
 5309POPC   PO469228  41.346  33.232   5.318
 5309POPC   GL169229  41.235  33.042   5.718
 5309POPC   GL269230  41.115  32.712   5.885
 5309POPC   C1A69231  41.414  33.065   6.118
 5309POPC   D2A69232  41.611  32.999   6.517
 5309POPC   C3A69233  41.518  33.195   6.938
 5309POPC   C4A69234  41.713  33.096   7.378
 5309POPC   C1B69235  41.244  32.634   6.340
 5309POPC   C2B69236  41.262  32.774   6.796
 5309POPC   C3B69237  41.311  32.780   7.271
 5309POPC   C4B69238  41.136  32.423   7.513
 5310POPC   NC369239  34.003  25.329   5.302
 5310POPC   PO469240  34.185  24.666   5.414
 5310POPC   GL169241  34.149  25.089   5.755
 5310POPC   GL269242  33.990  25.460   5.814
 5310POPC   C1A69243  34.095  25.190   6.227
 5310POPC   D2A69244  34.161  25.538   6.546
 5310POPC   C3A69245  34.161  25.377   6.981
 5310POPC   C4A69246  34.050  25.419   7.418
 5310POPC   C1B69247  33.708  25.505   6.256
 5310POPC   C2B69248  33.683  25.466   6.761
 5310POPC   C3B69249  33.567  25.478   7.241
 5310POPC   C4B69250  33.410  25.550   7.689
 5311POPC   NC369251  44.806  13.172   5.493
 5311POPC   PO469252  44.790  13.720   5.335
 5311POPC   GL169253  44.702  13.613   5.776
 5311POPC   GL269254  44.972  13.425   5.931
 5311POPC   C1A69255  44.709  13.757   6.244
 5311POPC   D2A69256  44.793  13.652   6.704
 5311POPC   C3A69257  44.636  13.879   7.114
 5311POPC   C4A69258  44.392  13.812   7.492
 5311POPC   C1B69259   0.220  13.658   6.259
 5311POPC   C2B69260   0.366  13.628   6.701
 5311POPC   C3B69261   0.121  13.423   7.033
 5311POPC   C4B69262  44.652  13.374   7.116
 5312POPC   NC369263  16.191  17.678   5.347
 5312POPC   PO469264  15.641  17.737   5.477
 5312POPC   GL169265  15.736  17.441   5.784
 5312POPC   GL269266  16.103  17.386   5.766
 5312POPC   C1A69267  15.598  17.297   6.203
 5312POPC   D2A69268  15.777  17.316   6.638
 5312POPC   C3A69269  15.648  17.316   7.084
 5312POPC   C4A69270  15.704  17.499   7.517
 5312POPC   C1B69271  16.099  17.478   6.242
 5312POPC   C2B69272  16.268  17.406   6.695
 5312POPC   C3B69273  16.145  17.468   7.146
 5312POPC   C4B69274  16.341  17.449   7.577
 5313POPC   NC369275   7.117  44.059   5.466
 5313POPC   PO469276   7.652  43.651   5.310
 5313POPC   GL169277   7.596  43.883   5.713
 5313POPC   GL269278   7.264  43.745   5.871
 5313POPC   C1A69279   7.528  44.204   6.056
 5313POPC   D2A69280   7.548  44.051   6.464
 5313POPC   C3A69281   7.674  44.198   6.832
 5313POPC   C4A69282   7.699  43.957   7.178
 5313POPC   C1B69283   7.099  43.976   6.249
 5313POPC   C2B69284   7.096  44.125   6.692
 5313POPC   C3B69285   7.156  44.112   7.136
 5313POPC   C4B69286   6.961  43.928   7.501
 5314POPC   NC369287  10.596  21.289   5.372
 5314POPC   PO469288  10.070  20.849   5.458
 5314POPC   GL169289  10.326  21.103   5.791
 5314POPC   GL269290  10.715  21.156   5.831
 5314POPC   C1A69291  10.277  21.221   6.226
 5314POPC   D2A69292  10.509  21.256   6.589
 5314POPC   C3A69293  10.289  21.237   6.971
 5314POPC   C4A69294  10.348  21.591   7.223
 5314POPC   C1B69295  10.772  21.431   6.167
 5314POPC   C2B69296  10.913  21.577   6.559
 5314POPC   C3B69297  10.790  21.468   6.988
 5314POPC   C4B69298  10.804  21.602   7.440
 5315POPC   NC369299  12.856  26.461   5.227
 5315POPC   PO469300  12.848  25.847   5.179
 5315POPC   GL169301  12.724  26.010   5.693
 5315POPC   GL269302  12.673  26.362   5.705
 5315POPC   C1A69303  12.959  26.005   6.119
 5315POPC   D2A69304  13.009  25.662   6.441
 5315POPC   C3A69305  12.970  25.736   6.895
 5315POPC   C4A69306  12.916  25.978   7.279
 5315POPC   C1B69307  12.577  26.371   6.125
 5315POPC   C2B69308  12.668  26.155   6.516
 5315POPC   C3B69309  12.588  26.163   6.932
 5315POPC   C4B69310  12.752  26.450   7.219
 5316POPC   NC369311   2.321  28.529   5.585
 5316POPC   PO469312   2.866  28.138   5.425
 5316POPC   GL169313   2.721  28.291   5.838
 5316POPC   GL269314   2.715  28.657   5.908
 5316POPC   C1A69315   2.774  28.348   6.303
 5316POPC   D2A69316   2.687  28.573   6.678
 5316POPC   C3A69317   2.660  28.315   7.052
 5316POPC   C4A69318   2.904  28.318   7.434
 5316POPC   C1B69319   2.386  28.708   6.257
 5316POPC   C2B69320   2.318  28.920   6.672
 5316POPC   C3B69321   2.489  28.793   7.098
 5316POPC   C4B69322   2.431  28.524   7.481
 5317POPC   NC369323  42.199  21.104   5.468
 5317POPC   PO469324  42.682  20.574   5.523
 5317POPC   GL169325  42.399  20.631   5.862
 5317POPC   GL269326  42.141  20.892   5.913
 5317POPC   C1A69327  42.281  20.487   6.244
 5317POPC   D2A69328  42.511  20.394   6.601
 5317POPC   C3A69329  42.356  20.678   6.890
 5317POPC   C4A69330  42.241  20.577   7.282
 5317POPC   C1B69331  41.952  20.884   6.303
 5317POPC   C2B69332  41.896  20.598   6.607
 5317POPC   C3B69333  41.843  20.734   6.995
 5317POPC   C4B69334  42.038  21.050   7.208
 5318POPC   NC369335   7.667  15.967   5.467
 5318POPC   PO469336   7.149  16.406   5.436
 5318POPC   GL169337   7.281  16.143   5.851
 5318POPC   GL269338   7.486  15.830   5.913
 5318POPC   C1A69339   7.314  16.024   6.332
 5318POPC   D2A69340   7.221  15.820   6.744
 5318POPC   C3A69341   7.440  16.070   7.049
 5318POPC   C4A69342   7.834  16.014   7.221
 5318POPC   C1B69343   7.728  15.673   6.277
 5318POPC   C2B69344   7.714  15.584   6.714
 5318POPC   C3B69345   7.543  15.562   7.115
 5318POPC   C4B69346   7.181  15.709   7.304
 5319POPC   NC369347  38.012  22.875   5.139
 5319POPC   PO469348  37.570  22.565   5.567
 5319POPC   GL169349  37.676  22.779   5.884
 5319POPC   GL269350  37.891  23.010   5.743
 5319POPC   C1A69351  37.912  22.771   6.247
 5319POPC   D2A69352  37.941  22.524   6.620
 5319POPC   C3A69353  37.890  22.824   6.936
 5319POPC   C4A69354  37.476  22.887   7.075
 5319POPC   C1B69355  37.676  23.233   6.124
 5319POPC   C2B69356  37.831  23.228   6.549
 5319POPC   C3B69357  37.952  23.348   6.940
 5319POPC   C4B69358  37.782  23.240   7.328
 5320POPC   NC369359  25.546  27.852   5.451
 5320POPC   PO469360  24.955  28.255   5.492
 5320POPC   GL169361  25.140  28.299   5.843
 5320POPC   GL269362  25.477  28.276   5.749
 5320POPC   C1A69363  25.119  28.182   6.263
 5320POPC   D2A69364  25.291  28.338   6.629
 5320POPC   C3A69365  25.100  28.197   7.004
 5320POPC   C4A69366  24.969  28.371   7.367
 5320POPC   C1B69367  25.513  28.572   6.083
 5320POPC   C2B69368  25.740  28.591   6.435
 5320POPC   C3B69369  25.672  28.573   6.855
 5320POPC   C4B69370  25.437  28.548   7.221
 5321POPC   NC369371  31.460  42.905   5.292
 5321POPC   PO469372  31.045  43.466   5.355
 5321POPC   GL169373  31.265  43.409   5.719
 5321POPC   GL269374  31.448  43.095   5.763
 5321POPC   C1A69375  31.422  43.472   6.112
 5321POPC   D2A69376  31.537  43.327   6.491
 5321POPC   C3A69377  31.553  43.501   6.872
 5321POPC   C4A69378  31.455  43.215   7.181
 5321POPC   C1B69379  31.474  42.906   6.210
 5321POPC   C2B69380  31.516  42.864   6.703
 5321POPC   C3B69381  31.675  42.738   7.142
 5321POPC   C4B69382  31.617  42.456   7.530
 5322POPC   NC369383   7.719  39.409   5.415
 5322POPC   PO469384   8.387  39.288   5.450
 5322POPC   GL169385   8.107  39.281   5.763
 5322POPC   GL269386   7.956  38.948   5.644
 5322POPC   C1A69387   8.188  39.429   6.223
 5322POPC   D2A69388   8.439  39.446   6.639
 5322POPC   C3A69389   8.312  39.214   7.047
 5322POPC   C4A69390   8.354  39.190   7.526
 5322POPC   C1B69391   8.013  38.946   6.110
 5322POPC   C2B69392   8.132  38.995   6.552
 5322POPC   C3B69393   7.870  38.908   6.909
 5322POPC   C4B69394   7.967  38.904   7.324
 5323POPC   NC369395   0.397   9.177   5.364
 5323POPC   PO469396   0.665   8.554   5.481
 5323POPC   GL169397   0.377   8.794   5.722
 5323POPC   GL269398   0.554   9.115   5.836
 5323POPC   C1A69399   0.188   8.781   6.146
 5323POPC   D2A69400   0.402   8.684   6.541
 5323POPC   C3A69401   0.234   8.737   6.953
 5323POPC   C4A69402   0.515   8.463   7.107
 5323POPC   C1B69403   0.711   8.877   6.153
 5323POPC   C2B69404   0.792   9.044   6.557
 5323POPC   C3B69405   0.782   8.960   6.986
 5323POPC   C4B69406   0.632   9.246   7.279
 5324POPC   NC369407  26.443   7.374   5.489
 5324POPC   PO469408  27.017   7.570   5.174
 5324POPC   GL169409  26.902   7.463   5.672
 5324POPC   GL269410  26.585   7.628   5.905
 5324POPC   C1A69411  26.802   7.245   6.093
 5324POPC   D2A69412  26.800   7.550   6.418
 5324POPC   C3A69413  26.878   7.494   6.839
 5324POPC   C4A69414  26.879   7.125   7.082
 5324POPC   C1B69415  26.336   7.465   6.243
 5324POPC   C2B69416  26.342   7.564   6.694
 5324POPC   C3B69417  26.455   7.395   7.092
 5324POPC   C4B69418  26.767   7.538   7.369
 5325POPC   NC369419   9.598  24.606   5.420
 5325POPC   PO469420  10.100  24.222   5.430
 5325POPC   GL169421   9.825  24.208   5.812
 5325POPC   GL269422   9.731  24.549   5.897
 5325POPC   C1A69423   9.946  24.329   6.284
 5325POPC   D2A69424   9.962  24.538   6.690
 5325POPC   C3A69425   9.757  24.324   7.053
 5325POPC   C4A69426   9.514  24.417   7.428
 5325POPC   C1B69427   9.587  24.832   6.227
 5325POPC   C2B69428   9.668  25.022   6.659
 5325POPC   C3B69429   9.575  24.839   7.075
 5325POPC   C4B69430   9.339  24.919   7.448
 5326POPC   NC369431  12.233  35.037   5.432
 5326POPC   PO469432  12.028  34.406   5.423
 5326POPC   GL169433  12.198  34.645   5.762
 5326POPC   GL269434  11.906  34.830   5.833
 5326POPC   C1A69435  12.404  34.605   6.147
 5326POPC   D2A69436  12.397  34.721   6.563
 5326POPC   C3A69437  12.323  34.454   6.914
 5326POPC   C4A69438  12.450  34.687   7.261
 5326POPC   C1B69439  11.961  34.837   6.287
 5326POPC   C2B69440  11.905  34.694   6.721
 5326POPC   C3B69441  11.889  34.646   7.154
 5326POPC   C4B69442  11.598  34.393   7.334
 5327POPC   NC369443  25.551   0.223   5.524
 5327POPC   PO469444  26.004   0.616   5.189
 5327POPC   GL169445  25.920   0.550   5.669
 5327POPC   GL269446  25.603   0.737   5.672
 5327POPC   C1A69447  26.067   0.581   6.143
 5327POPC   D2A69448  26.256   0.848   6.505
 5327POPC   C3A69449  26.237   0.699   6.944
 5327POPC   C4A69450  25.969   0.436   7.221
 5327POPC   C1B69451  25.532   0.646   6.092
 5327POPC   C2B69452  25.647   0.466   6.471
 5327POPC   C3B69453  25.718   0.680   6.859
 5327POPC   C4B69454  25.571   0.754   7.279
 5328POPC   NC369455  10.386   0.172   5.586
 5328POPC   PO469456  10.527   0.892   5.490
 5328POPC   GL169457  10.379   0.642   5.821
 5328POPC   GL269458  10.698   0.487   5.821
 5328POPC   C1A69459  10.394   0.408   6.242
 5328POPC   D2A69460  10.384   0.315   6.684
 5328POPC   C3A69461  10.289   0.495   7.096
 5328POPC   C4A69462  10.585   0.207   7.243
 5328POPC   C1B69463  10.709   0.795   6.170
 5328POPC   C2B69464  10.583   0.778   6.587
 5328POPC   C3B69465  10.768   0.602   6.976
 5328POPC   C4B69466  10.769   0.643   7.441
 5329POPC   NC369467  32.493  13.804   5.382
 5329POPC   PO469468  31.969  13.341   5.461
 5329POPC   GL169469  32.124  13.660   5.718
 5329POPC   GL269470  32.403  13.516   5.829
 5329POPC   C1A69471  32.011  13.847   6.095
 5329POPC   D2A69472  31.811  13.673   6.432
 5329POPC   C3A69473  31.862  13.780   6.834
 5329POPC   C4A69474  32.026  13.562   7.157
 5329POPC   C1B69475  32.489  13.692   6.229
 5329POPC   C2B69476  32.334  13.724   6.612
 5329POPC   C3B69477  32.484  13.544   6.958
 5329POPC   C4B69478  32.572  13.691   7.355
 5330POPC   NC369479  29.612  33.918   5.403
 5330POPC   PO469480  30.187  33.635   5.419
 5330POPC   GL169481  29.980  33.826   5.799
 5330POPC   GL269482  29.861  34.175   5.795
 5330POPC   C1A69483  30.091  34.007   6.214
 5330POPC   D2A69484  30.439  34.140   6.463
 5330POPC   C3A69485  30.225  34.152   6.868
 5330POPC   C4A69486  29.895  33.878   6.999
 5330POPC   C1B69487  29.554  34.057   6.111
 5330POPC   C2B69488  29.620  34.084   6.562
 5330POPC   C3B69489  29.413  34.014   6.946
 5330POPC   C4B69490  29.535  34.037   7.385
 5331POPC   NC369491  44.817  43.350   5.440
 5331POPC   PO469492  44.551  42.685   5.534
 5331POPC   GL169493  44.721  42.997   5.817
 5331POPC   GL269494  44.996  43.244   5.894
 5331POPC   C1A69495  44.580  43.203   6.187
 5331POPC   D2A69496  44.610  43.338   6.587
 5331POPC   C3A69497  44.306  43.188   6.889
 5331POPC   C4A69498  44.395  42.892   7.213
 5331POPC   C1B69499   0.197  43.311   6.291
 5331POPC   C2B69500   0.105  43.383   6.732
 5331POPC   C3B69501  44.835  43.195   7.066
 5331POPC   C4B69502  44.735  43.144   7.523
 5332POPC   NC369503  25.307  31.089   5.311
 5332POPC   PO469504  24.967  31.622   5.522
 5332POPC   GL169505  25.115  31.358   5.836
 5332POPC   GL269506  24.792  31.340   5.964
 5332POPC   C1A69507  25.197  31.386   6.284
 5332POPC   D2A69508  25.169  31.156   6.643
 5332POPC   C3A69509  25.263  31.469   6.890
 5332POPC   C4A69510  25.414  31.596   7.261
 5332POPC   C1B69511  24.887  31.792   6.163
 5332POPC   C2B69512  24.902  31.991   6.616
 5332POPC   C3B69513  24.974  31.860   7.058
 5332POPC   C4B69514  25.000  31.756   7.510
 5333POPC   NC369515  15.044   1.685   5.505
 5333POPC   PO469516  15.316   2.382   5.471
 5333POPC   GL169517  15.348   2.054   5.759
 5333POPC   GL269518  14.997   2.059   5.838
 5333POPC   C1A69519  15.482   1.819   6.120
 5333POPC   D2A69520  15.532   1.995   6.539
 5333POPC   C3A69521  15.584   1.762   6.911
 5333POPC   C4A69522  15.248   1.813   7.213
 5333POPC   C1B69523  15.123   2.170   6.238
 5333POPC   C2B69524  14.916   2.197   6.601
 5333POPC   C3B69525  14.811   1.981   6.965
 5333POPC   C4B69526  14.834   2.117   7.358
 5334POPC   NC369527  42.971   7.691   5.393
 5334POPC   PO469528  43.455   7.329   4.981
 5334POPC   GL169529  43.346   7.353   5.507
 5334POPC   GL269530  43.499   7.633   5.734
 5334POPC   C1A69531  43.131   7.402   5.999
 5334POPC   D2A69532  42.907   7.277   6.437
 5334POPC   C3A69533  42.933   7.477   6.896
 5334POPC   C4A69534  43.140   7.447   7.331
 5334POPC   C1B69535  43.417   7.784   6.172
 5334POPC   C2B69536  43.358   7.515   6.528
 5334POPC   C3B69537  43.434   7.348   6.912
 5334POPC   C4B69538  43.635   7.452   7.282
 5335POPC   NC369539  31.684  28.351   5.416
 5335POPC   PO469540  31.104  28.647   5.238
 5335POPC   GL169541  31.308  28.645   5.693
 5335POPC   GL269542  31.579  28.384   5.908
 5335POPC   C1A69543  31.302  28.715   6.165
 5335POPC   D2A69544  31.548  28.456   6.465
 5335POPC   C3A69545  31.327  28.482   6.852
 5335POPC   C4A69546  31.392  28.590   7.287
 5335POPC   C1B69547  31.762  28.052   6.228
 5335POPC   C2B69548  31.825  28.043   6.700
 5335POPC   C3B69549  31.643  28.155   7.120
 5335POPC   C4B69550  31.471  27.843   7.399
 5336POPC   NC369551  18.125   1.654   5.404
 5336POPC   PO469552  17.865   1.111   5.078
 5336POPC   GL169553  18.054   1.212   5.658
 5336POPC   GL269554  18.370   1.367   5.752
 5336POPC   C1A69555  18.104   1.133   6.129
 5336POPC   D2A69556  18.313   1.233   6.510
 5336POPC   C3A69557  18.166   1.156   6.933
 5336POPC   C4A69558  18.229   1.395   7.302
 5336POPC   C1B69559  18.676   1.315   6.085
 5336POPC   C2B69560  18.822   1.295   6.505
 5336POPC   C3B69561  18.680   1.187   6.929
 5336POPC   C4B69562  18.611   1.044   7.366
 5337POPC   NC369563   3.773  40.550   5.401
 5337POPC   PO469564   3.454  41.201   5.299
 5337POPC   GL169565   3.492  41.031   5.747
 5337POPC   GL269566   3.477  40.659   5.817
 5337POPC   C1A69567   3.505  40.926   6.242
 5337POPC   D2A69568   3.726  40.710   6.633
 5337POPC   C3A69569   3.702  40.844   7.091
 5337POPC   C4A69570   3.477  41.066   7.439
 5337POPC   C1B69571   3.621  40.413   6.192
 5337POPC   C2B69572   3.441  40.282   6.575
 5337POPC   C3B69573   3.363  40.480   6.949
 5337POPC   C4B69574   3.258  40.389   7.354
 5338POPC   NC369575   3.442  26.720   5.436
 5338POPC   PO469576   3.934  26.745   5.714
 5338POPC   GL169577   3.500  26.860   5.920
 5338POPC   GL269578   3.227  26.606   5.886
 5338POPC   C1A69579   3.266  26.898   6.315
 5338POPC   D2A69580   3.420  26.843   6.723
 5338POPC   C3A69581   3.352  27.027   7.150
 5338POPC   C4A69582   3.091  27.206   7.524
 5338POPC   C1B69583   3.524  26.451   6.232
 5338POPC   C2B69584   3.619  26.375   6.695
 5338POPC   C3B69585   3.747  26.638   7.052
 5338POPC   C4B69586   3.936  26.705   7.453
 5339POPC   NC369587  40.362  39.700   5.649
 5339POPC   PO469588  39.948  40.243   5.565
 5339POPC   GL169589  40.010  39.962   5.927
 5339POPC   GL269590  39.691  39.775   5.884
 5339POPC   C1A69591  40.196  39.970   6.369
 5339POPC   D2A69592  40.021  39.801   6.762
 5339POPC   C3A69593  40.157  39.877   7.211
 5339POPC   C4A69594  40.378  40.172   7.503
 5339POPC   C1B69595  39.698  39.915   6.331
 5339POPC   C2B69596  39.546  40.011   6.722
 5339POPC   C3B69597  39.625  39.787   7.109
 5339POPC   C4B69598  39.724  39.672   7.542
 5340POPC   NC369599  14.735  24.646   5.471
 5340POPC   PO469600  14.125  24.327   5.371
 5340POPC   GL169601  14.366  24.281   5.814
 5340POPC   GL269602  14.735  24.295   5.892
 5340POPC   C1A69603  14.461  24.562   6.227
 5340POPC   D2A69604  14.601  24.707   6.665
 5340POPC   C3A69605  14.385  24.574   7.057
 5340POPC   C4A69606  14.169  24.185   7.148
 5340POPC   C1B69607  14.634  24.076   6.299
 5340POPC   C2B69608  14.564  24.113   6.760
 5340POPC   C3B69609  14.775  24.278   7.119
 5340POPC   C4B69610  14.701  24.224   7.551
 5341POPC   NC369611  43.308  15.475   5.483
 5341POPC   PO469612  42.768  15.163   5.635
 5341POPC   GL169613  43.003  15.393   5.918
 5341POPC   GL269614  43.270  15.196   5.904
 5341POPC   C1A69615  43.050  15.306   6.370
 5341POPC   D2A69616  42.960  15.319   6.781
 5341POPC   C3A69617  43.071  15.108   7.148
 5341POPC   C4A69618  43.129  15.393   7.516
 5341POPC   C1B69619  43.526  15.341   6.262
 5341POPC   C2B69620  43.456  15.495   6.692
 5341POPC   C3B69621  43.533  15.363   7.120
 5341POPC   C4B69622  43.486  15.030   7.438
 5342POPC   NC369623  27.180   2.112   5.478
 5342POPC   PO469624  26.562   2.160   5.602
 5342POPC   GL169625  26.882   2.023   5.884
 5342POPC   GL269626  26.984   1.688   5.768
 5342POPC   C1A69627  26.874   2.122   6.316
 5342POPC   D2A69628  26.676   2.080   6.700
 5342POPC   C3A69629  26.995   2.067   6.977
 5342POPC   C4A69630  27.028   2.329   7.312
 5342POPC   C1B69631  26.712   1.628   6.147
 5342POPC   C2B69632  26.845   1.624   6.571
 5342POPC   C3B69633  26.770   1.585   6.991
 5342POPC   C4B69634  26.557   1.905   7.194
 5343POPC   NC369635  19.964  13.491   5.418
 5343POPC   PO469636  20.646  13.367   5.339
 5343POPC   GL169637  20.698  13.294   5.800
 5343POPC   GL269638  20.339  13.245   5.864
 5343POPC   C1A69639  20.778  13.464   6.252
 5343POPC   D2A69640  20.931  13.728   6.635
 5343POPC   C3A69641  20.685  13.779   7.052
 5343POPC   C4A69642  20.484  13.933   7.470
 5343POPC   C1B69643  20.279  13.375   6.309
 5343POPC   C2B69644  20.490  13.450   6.714
 5343POPC   C3B69645  20.715  13.245   7.069
 5343POPC   C4B69646  20.697  13.075   7.513
 5344POPC   NC369647  36.851   9.197   5.562
 5344POPC   PO469648  37.024   8.539   5.426
 5344POPC   GL169649  37.089   8.705   5.816
 5344POPC   GL269650  37.293   8.953   5.681
 5344POPC   C1A69651  36.890   8.932   6.201
 5344POPC   D2A69652  36.683   9.104   6.611
 5344POPC   C3A69653  36.732   8.879   7.034
 5344POPC   C4A69654  36.841   8.915   7.480
 5344POPC   C1B69655  37.401   9.050   6.096
 5344POPC   C2B69656  37.243   9.171   6.496
 5344POPC   C3B69657  37.221   8.944   6.890
 5344POPC   C4B69658  37.250   9.162   7.246
 5345POPC   NC369659  28.056  42.128   5.556
 5345POPC   PO469660  28.694  42.198   5.221
 5345POPC   GL169661  28.594  42.452   5.702
 5345POPC   GL269662  28.298  42.429   5.889
 5345POPC   C1A69663  28.704  42.337   6.178
 5345POPC   D2A69664  28.491  42.238   6.568
 5345POPC   C3A69665  28.591  42.340   7.006
 5345POPC   C4A69666  28.400  42.101   7.359
 5345POPC   C1B69667  28.100  42.439   6.305
 5345POPC   C2B69668  28.183  42.642   6.707
 5345POPC   C3B69669  28.084  42.427   7.086
 5345POPC   C4B69670  28.017  42.455   7.521
 5346POPC   NC369671  12.706   6.920   5.554
 5346POPC   PO469672  13.213   7.352   5.606
 5346POPC   GL169673  12.852   7.530   5.838
 5346POPC   GL269674  12.494   7.403   5.725
 5346POPC   C1A69675  12.901   7.503   6.288
 5346POPC   D2A69676  12.947   7.223   6.638
 5346POPC   C3A69677  13.023   7.458   6.997
 5346POPC   C4A69678  12.974   7.287   7.387
 5346POPC   C1B69679  12.516   7.213   6.141
 5346POPC   C2B69680  12.455   7.366   6.559
 5346POPC   C3B69681  12.534   7.351   7.014
 5346POPC   C4B69682  12.467   7.192   7.435
 5347POPC   NC369683  38.347  18.234   5.406
 5347POPC   PO469684  37.924  18.750   5.701
 5347POPC   GL169685  38.200  18.395   5.896
 5347POPC   GL269686  38.559  18.339   5.913
 5347POPC   C1A69687  38.279  18.280   6.338
 5347POPC   D2A69688  38.422  18.481   6.708
 5347POPC   C3A69689  38.351  18.290   7.125
 5347POPC   C4A69690  38.692  18.344   7.407
 5347POPC   C1B69691  38.573  17.937   6.088
 5347POPC   C2B69692  38.450  17.797   6.432
 5347POPC   C3B69693  38.479  17.898   6.816
 5347POPC   C4B69694  38.705  17.896   7.181
 5348POPC   NC369695  32.794   3.482   5.257
 5348POPC   PO469696  33.345   3.791   5.551
 5348POPC   GL169697  33.229   3.536   5.869
 5348POPC   GL269698  32.935   3.344   5.811
 5348POPC   C1A69699  33.351   3.499   6.269
 5348POPC   D2A69700  33.209   3.307   6.637
 5348POPC   C3A69701  33.202   3.461   7.041
 5348POPC   C4A69702  33.401   3.607   7.426
 5348POPC   C1B69703  32.865   3.384   6.270
 5348POPC   C2B69704  32.766   3.745   6.621
 5348POPC   C3B69705  32.685   3.628   7.032
 5348POPC   C4B69706  32.673   3.195   7.140
 5349POPC   NC369707  11.861  10.590   5.197
 5349POPC   PO469708  11.350  10.894   5.488
 5349POPC   GL169709  11.586  10.604   5.717
 5349POPC   GL269710  11.275  10.521   5.856
 5349POPC   C1A69711  11.684  10.519   6.165
 5349POPC   D2A69712  11.492  10.597   6.599
 5349POPC   C3A69713  11.589  10.336   6.966
 5349POPC   C4A69714  11.902  10.311   7.278
 5349POPC   C1B69715  11.248  10.827   6.174
 5349POPC   C2B69716  11.053  10.927   6.575
 5349POPC   C3B69717  10.957  10.740   6.964
 5349POPC   C4B69718  11.287  10.653   7.235
 5350POPC   NC369719   1.422  31.110   5.668
 5350POPC   PO469720   1.047  31.680   5.535
 5350POPC   GL169721   1.277  31.561   5.857
 5350POPC   GL269722   0.977  31.290   5.873
 5350POPC   C1A69723   1.342  31.371   6.254
 5350POPC   D2A69724   1.278  31.128   6.616
 5350POPC   C3A69725   1.425  31.423   6.880
 5350POPC   C4A69726   1.490  31.599   7.262
 5350POPC   C1B69727   0.894  31.635   6.164
 5350POPC   C2B69728   0.992  31.564   6.585
 5350POPC   C3B69729   1.037  31.745   6.941
 5350POPC   C4B69730   0.964  31.749   7.341
 5351POPC   NC369731  40.642  20.777   5.456
 5351POPC   PO469732  41.096  20.263   5.373
 5351POPC   GL169733  40.971  20.484   5.768
 5351POPC   GL269734  40.624  20.423   5.864
 5351POPC   C1A69735  40.979  20.641   6.221
 5351POPC   D2A69736  40.971  20.430   6.599
 5351POPC   C3A69737  41.022  20.603   6.956
 5351POPC   C4A69738  41.264  20.487   7.269
 5351POPC   C1B69739  40.547  20.372   6.316
 5351POPC   C2B69740  40.534  20.690   6.652
 5351POPC   C3B69741  40.551  20.777   7.087
 5351POPC   C4B69742  40.673  20.439   7.333
 5352POPC   NC369743  12.365  26.980   5.095
 5352POPC   PO469744  12.975  26.900   5.352
 5352POPC   GL169745  13.028  27.054   5.776
 5352POPC   GL269746  12.698  26.915   5.796
 5352POPC   C1A69747  13.029  26.874   6.202
 5352POPC   D2A69748  12.945  26.597   6.535
 5352POPC   C3A69749  12.857  26.821   6.904
 5352POPC   C4A69750  13.086  26.842   7.277
 5352POPC   C1B69751  12.506  26.928   6.198
 5352POPC   C2B69752  12.433  26.624   6.540
 5352POPC   C3B69753  12.325  26.625   6.950
 5352POPC   C4B69754  12.380  26.943   7.232
 5353POPC   NC369755  14.385  11.762   5.472
 5353POPC   PO469756  14.682  11.117   5.595
 5353POPC   GL169757  14.503  11.401   5.896
 5353POPC   GL269758  14.135  11.500   5.863
 5353POPC   C1A69759  14.535  11.330   6.350
 5353POPC   D2A69760  14.562  11.370   6.780
 5353POPC   C3A69761  14.529  11.277   7.177
 5353POPC   C4A69762  14.719  11.604   7.412
 5353POPC   C1B69763  14.115  11.127   6.148
 5353POPC   C2B69764  14.176  11.063   6.611
 5353POPC   C3B69765  14.048  11.396   6.893
 5353POPC   C4B69766  14.225  11.695   7.182
 5354POPC   NC369767  44.760  17.963   5.294
 5354POPC   PO469768  44.411  17.386   5.306
 5354POPC   GL169769  44.595  17.586   5.662
 5354POPC   GL269770  44.301  17.646   5.869
 5354POPC   C1A69771  44.724  17.508   6.094
 5354POPC   D2A69772  44.742  17.733   6.480
 5354POPC   C3A69773  44.763  17.491   6.837
 5354POPC   C4A69774  44.873  17.202   7.146
 5354POPC   C1B69775  44.242  17.482   6.273
 5354POPC   C2B69776  44.284  17.605   6.695
 5354POPC   C3B69777  44.233  17.749   7.108
 5354POPC   C4B69778  44.523  17.530   7.351
 5355POPC   NC369779   3.412  34.883   5.473
 5355POPC   PO469780   3.535  35.481   5.260
 5355POPC   GL169781   3.639  35.476   5.726
 5355POPC   GL269782   3.545  35.183   5.905
 5355POPC   C1A69783   3.746  35.592   6.164
 5355POPC   D2A69784   3.448  35.559   6.517
 5355POPC   C3A69785   3.494  35.401   6.936
 5355POPC   C4A69786   3.250  35.443   7.312
 5355POPC   C1B69787   3.724  34.964   6.251
 5355POPC   C2B69788   3.629  34.981   6.668
 5355POPC   C3B69789   3.800  34.937   7.031
 5355POPC   C4B69790   3.692  35.177   7.355
 5356POPC   NC369791  15.802  23.211   5.340
 5356POPC   PO469792  15.704  22.531   5.454
 5356POPC   GL169793  15.727  22.719   5.859
 5356POPC   GL269794  15.911  23.027   5.802
 5356POPC   C1A69795  16.010  22.743   6.249
 5356POPC   D2A69796  16.205  22.702   6.695
 5356POPC   C3A69797  16.157  22.888   7.141
 5356POPC   C4A69798  15.986  22.814   7.571
 5356POPC   C1B69799  15.685  23.146   6.159
 5356POPC   C2B69800  15.863  23.116   6.568
 5356POPC   C3B69801  15.682  23.060   6.961
 5356POPC   C4B69802  15.758  23.209   7.353
 5357POPC   NC369803  43.595  29.783   5.400
 5357POPC   PO469804  44.180  29.960   5.554
 5357POPC   GL169805  43.836  29.842   5.853
 5357POPC   GL269806  43.532  30.087   5.794
 5357POPC   C1A69807  43.939  29.613   6.247
 5357POPC   D2A69808  44.103  29.380   6.607
 5357POPC   C3A69809  44.025  29.545   7.025
 5357POPC   C4A69810  43.938  29.890   7.319
 5357POPC   C1B69811  43.687  30.207   6.172
 5357POPC   C2B69812  43.554  30.140   6.574
 5357POPC   C3B69813  43.726  30.188   6.959
 5357POPC   C4B69814  43.553  30.195   7.353
 5358POPC   NC369815  20.502  11.978   5.368
 5358POPC   PO469816  21.134  12.150   5.415
 5358POPC   GL169817  20.906  12.076   5.790
 5358POPC   GL269818  20.561  12.158   5.848
 5358POPC   C1A69819  20.940  12.094   6.242
 5358POPC   D2A69820  20.723  11.984   6.639
 5358POPC   C3A69821  20.753  12.209   7.048
 5358POPC   C4A69822  20.774  11.982   7.470
 5358POPC   C1B69823  20.389  11.988   6.244
 5358POPC   C2B69824  20.198  11.997   6.690
 5358POPC   C3B69825  20.274  12.025   7.159
 5358POPC   C4B69826  20.301  12.001   7.634
 5359POPC   NC369827  29.907  16.383   5.612
 5359POPC   PO469828  29.845  16.974   5.425
 5359POPC   GL169829  30.099  16.999   5.795
 5359POPC   GL269830  30.245  16.634   5.920
 5359POPC   C1A69831  30.232  17.035   6.205
 5359POPC   D2A69832  30.319  16.678   6.456
 5359POPC   C3A69833  30.099  16.749   6.825
 5359POPC   C4A69834  30.198  16.994   7.197
 5359POPC   C1B69835  29.872  16.629   6.184
 5359POPC   C2B69836  29.695  16.334   6.454
 5359POPC   C3B69837  29.842  16.271   6.858
 5359POPC   C4B69838  29.858  16.536   7.217
 5360POPC   NC369839  16.285  32.305   5.555
 5360POPC   PO469840  15.739  31.884   5.640
 5360POPC   GL169841  15.941  32.062   5.962
 5360POPC   GL269842  15.842  32.385   5.915
 5360POPC   C1A69843  15.922  32.198   6.395
 5360POPC   D2A69844  15.984  32.210   6.853
 5360POPC   C3A69845  15.668  32.043   7.123
 5360POPC   C4A69846  15.771  32.236   7.519
 5360POPC   C1B69847  16.187  32.600   6.159
 5360POPC   C2B69848  16.392  32.654   6.562
 5360POPC   C3B69849  16.179  32.678   6.962
 5360POPC   C4B69850  16.197  32.499   7.400
 5361POPC   NC369851  39.821  31.370   5.366
 5361POPC   PO469852  40.418  31.697   5.299
 5361POPC   GL169853  40.255  31.466   5.640
 5361POPC   GL269854  40.280  31.773   5.805
 5361POPC   C1A69855  39.982  31.411   6.024
 5361POPC   D2A69856  40.160  31.310   6.429
 5361POPC   C3A69857  39.990  31.277   6.843
 5361POPC   C4A69858  40.134  31.284   7.250
 5361POPC   C1B69859  40.136  31.825   6.274
 5361POPC   C2B69860  40.102  31.754   6.695
 5361POPC   C3B69861  40.022  31.766   7.106
 5361POPC   C4B69862  40.409  31.720   7.341
 5362POPC   NC369863  35.982  44.555   5.741
 5362POPC   PO469864  36.513  44.935   5.488
 5362POPC   GL169865  36.320  44.910   5.922
 5362POPC   GL269866  35.944  44.966   6.003
 5362POPC   C1A69867  36.336  44.922   6.379
 5362POPC   D2A69868  36.415  44.903   6.822
 5362POPC   C3A69869  36.099  44.680   7.030
 5362POPC   C4A69870  36.015  44.259   7.182
 5362POPC   C1B69871  35.767  44.699   6.356
 5362POPC   C2B69872  35.594  44.567   6.771
 5362POPC   C3B69873  35.611  44.871   7.084
 5362POPC   C4B69874  35.944   0.106   7.286
 5363POPC   NC369875   6.812   4.599   5.179
 5363POPC   PO469876   6.358   4.045   5.236
 5363POPC   GL169877   6.478   4.227   5.812
 5363POPC   GL269878   6.811   4.438   5.763
 5363POPC   C1A69879   6.765   4.472   6.244
 5363POPC   D2A69880   6.837   4.571   6.686
 5363POPC   C3A69881   6.485   4.527   7.017
 5363POPC   C4A69882   6.562   4.184   7.362
 5363POPC   C1B69883   6.872   4.026   6.081
 5363POPC   C2B69884   6.957   4.067   6.520
 5363POPC   C3B69885   6.807   4.139   6.928
 5363POPC   C4B69886   6.946   4.467   7.222
 5364POPC   NC369887  38.085  41.054   5.493
 5364POPC   PO469888  38.653  40.691   5.435
 5364POPC   GL169889  38.626  40.914   5.798
 5364POPC   GL269890  38.311  40.812   5.900
 5364POPC   C1A69891  38.797  40.797   6.204
 5364POPC   D2A69892  38.718  40.632   6.632
 5364POPC   C3A69893  38.456  40.814   6.923
 5364POPC   C4A69894  38.555  41.000   7.306
 5364POPC   C1B69895  38.291  41.132   6.212
 5364POPC   C2B69896  38.209  41.361   6.618
 5364POPC   C3B69897  38.158  41.233   7.086
 5364POPC   C4B69898  38.095  40.770   7.298
 5365POPC   NC369899   6.339  10.703   5.338
 5365POPC   PO469900   5.755  10.339   5.313
 5365POPC   GL169901   5.769  10.257   5.715
 5365POPC   GL269902   5.988  10.524   5.745
 5365POPC   C1A69903   5.870  10.235   6.141
 5365POPC   D2A69904   6.007  10.504   6.454
 5365POPC   C3A69905   5.949  10.385   6.838
 5365POPC   C4A69906   6.248  10.419   7.145
 5365POPC   C1B69907   5.775  10.765   6.082
 5365POPC   C2B69908   5.803  10.963   6.540
 5365POPC   C3B69909   5.931  10.870   6.969
 5365POPC   C4B69910   5.854  10.913   7.415
 5366POPC   NC369911  15.214  17.581   5.422
 5366POPC   PO469912  14.683  18.023   5.498
 5366POPC   GL169913  14.925  17.720   5.816
 5366POPC   GL269914  15.307  17.765   5.888
 5366POPC   C1A69915  15.061  17.429   6.189
 5366POPC   D2A69916  14.898  17.501   6.612
 5366POPC   C3A69917  14.978  17.306   7.012
 5366POPC   C4A69918  14.871  17.440   7.431
 5366POPC   C1B69919  15.439  17.757   6.340
 5366POPC   C2B69920  15.385  17.634   6.776
 5366POPC   C3B69921  15.295  17.658   7.224
 5366POPC   C4B69922  15.256  17.761   7.662
 5367POPC   NC369923  17.790  20.018   5.573
 5367POPC   PO469924  18.208  19.613   5.239
 5367POPC   GL169925  18.177  19.701   5.729
 5367POPC   GL269926  18.489  19.826   5.912
 5367POPC   C1A69927  18.087  19.738   6.192
 5367POPC   D2A69928  18.145  19.511   6.585
 5367POPC   C3A69929  18.071  19.652   7.012
 5367POPC   C4A69930  18.042  20.012   7.227
 5367POPC   C1B69931  18.532  19.853   6.376
 5367POPC   C2B69932  18.377  19.983   6.784
 5367POPC   C3B69933  18.558  19.878   7.170
 5367POPC   C4B69934  18.769  19.686   7.562
 5368POPC   NC369935  21.185  27.251   5.537
 5368POPC   PO469936  21.598  27.753   5.556
 5368POPC   GL169937  21.348  27.639   5.843
 5368POPC   GL269938  21.016  27.748   5.721
 5368POPC   C1A69939  21.388  27.430   6.216
 5368POPC   D2A69940  21.181  27.470   6.568
 5368POPC   C3A69941  21.429  27.535   6.855
 5368POPC   C4A69942  21.338  27.473   7.232
 5368POPC   C1B69943  20.985  27.735   6.174
 5368POPC   C2B69944  21.058  27.964   6.579
 5368POPC   C3B69945  21.023  27.812   7.004
 5368POPC   C4B69946  21.018  27.791   7.476
 5369POPC   NC369947  24.017   1.289   5.318
 5369POPC   PO469948  23.455   0.989   5.485
 5369POPC   GL169949  23.808   1.123   5.762
 5369POPC   GL269950  23.773   1.475   5.821
 5369POPC   C1A69951  24.008   1.220   6.167
 5369POPC   D2A69952  23.873   1.116   6.553
 5369POPC   C3A69953  23.902   1.383   6.876
 5369POPC   C4A69954  23.845   1.245   7.260
 5369POPC   C1B69955  23.507   1.281   6.189
 5369POPC   C2B69956  23.413   1.360   6.609
 5369POPC   C3B69957  23.432   1.186   6.971
 5369POPC   C4B69958  23.277   1.113   7.344
 5370POPC   NC369959  12.723  24.091   5.512
 5370POPC   PO469960  13.053  23.531   5.343
 5370POPC   GL169961  13.032  23.736   5.753
 5370POPC   GL269962  12.764  23.708   5.844
 5370POPC   C1A69963  13.094  23.823   6.239
 5370POPC   D2A69964  12.980  23.745   6.710
 5370POPC   C3A69965  13.043  24.069   7.095
 5370POPC   C4A69966  13.018  24.051   7.550
 5370POPC   C1B69967  12.582  23.908   6.201
 5370POPC   C2B69968  12.441  23.847   6.617
 5370POPC   C3B69969  12.510  23.624   6.992
 5370POPC   C4B69970  12.690  23.696   7.401
 5371POPC   NC369971  37.158   7.262   5.313
 5371POPC   PO469972  36.591   7.663   5.318
 5371POPC   GL169973  36.908   7.604   5.644
 5371POPC   GL269974  36.885   7.255   5.786
 5371POPC   C1A69975  36.862   7.660   6.104
 5371POPC   D2A69976  36.900   7.342   6.410
 5371POPC   C3A69977  36.804   7.389   6.851
 5371POPC   C4A69978  36.724   7.718   7.151
 5371POPC   C1B69979  37.275   7.386   6.050
 5371POPC   C2B69980  37.425   7.329   6.492
 5371POPC   C3B69981  37.317   7.303   6.919
 5371POPC   C4B69982  37.216   7.000   7.247
 5372POPC   NC369983   4.077  31.393   5.359
 5372POPC   PO469984   4.522  31.782   5.316
 5372POPC   GL169985   4.478  31.675   5.752
 5372POPC   GL269986   4.355  31.353   5.829
 5372POPC   C1A69987   4.205  31.750   6.146
 5372POPC   D2A69988   4.016  31.576   6.548
 5372POPC   C3A69989   4.282  31.408   6.862
 5372POPC   C4A69990   4.323  31.338   7.296
 5372POPC   C1B69991   4.131  31.212   6.208
 5372POPC   C2B69992   4.016  30.978   6.608
 5372POPC   C3B69993   3.933  31.075   7.056
 5372POPC   C4B69994   3.979  31.029   7.489
 5373POPC   NC369995  35.819   5.388   5.526
 5373POPC   PO469996  35.375   4.918   5.456
 5373POPC   GL169997  35.452   5.145   5.799
 5373POPC   GL269998  35.759   4.975   5.835
 5373POPC   C1A69999  35.248   5.356   6.154
 5373POPC   D2A70000  34.967   5.275   6.503
 5373POPC   C3A70001  35.189   5.412   6.849
 5373POPC   C4A70002  35.557   5.317   7.113
 5373POPC   C1B70003  35.581   4.923   6.235
 5373POPC   C2B70004  35.591   5.075   6.636
 5373POPC   C3B70005  35.815   4.905   6.966
 5373POPC   C4B70006  35.584   4.797   7.325
 5374POPC   NC370007  14.275  14.314   5.526
 5374POPC   PO470008  14.907  14.326   5.661
 5374POPC   GL170009  14.587  14.444   6.006
 5374POPC   GL270010  14.239  14.550   5.961
 5374POPC   C1A70011  14.412  14.585   6.445
 5374POPC   D2A70012  14.352  14.722   6.876
 5374POPC   C3A70013  14.680  14.519   7.103
 5374POPC   C4A70014  14.645  14.098   7.230
 5374POPC   C1B70015  14.047  14.294   6.236
 5374POPC   C2B70016  13.920  14.351   6.641
 5374POPC   C3B70017  14.114  14.281   7.023
 5374POPC   C4B70018  14.126  14.504   7.381
 5375POPC   NC370019  19.087  32.288   5.169
 5375POPC   PO470020  18.464  31.957   5.361
 5375POPC   GL170021  18.783  32.003   5.753
 5375POPC   GL270022  18.839  32.354   5.954
 5375POPC   C1A70023  19.010  31.941   6.160
 5375POPC   D2A70024  19.064  32.252   6.448
 5375POPC   C3A70025  19.133  32.103   6.836
 5375POPC   C4A70026  19.075  32.101   7.252
 5375POPC   C1B70027  18.857  32.691   6.239
 5375POPC   C2B70028  18.685  32.572   6.629
 5375POPC   C3B70029  18.878  32.531   6.993
 5375POPC   C4B70030  19.154  32.639   7.294
 5376POPC   NC370031  33.765   0.124   5.420
 5376POPC   PO470032  34.039   0.712   5.554
 5376POPC   GL170033  33.931   0.448   5.884
 5376POPC   GL270034  33.577   0.428   5.901
 5376POPC   C1A70035  33.991   0.566   6.315
 5376POPC   D2A70036  33.825   0.483   6.718
 5376POPC   C3A70037  33.806   0.487   7.160
 5376POPC   C4A70038  34.127   0.544   7.507
 5376POPC   C1B70039  33.475   0.482   6.317
 5376POPC   C2B70040  33.426   0.185   6.658
 5376POPC   C3B70041  33.340   0.204   7.043
 5376POPC   C4B70042  33.485   0.207   7.434
 5377POPC   NC370043  10.925   0.939   5.238
 5377POPC   PO470044  11.408   1.365   5.498
 5377POPC   GL170045  11.135   1.246   5.815
 5377POPC   GL270046  11.008   0.911   5.758
 5377POPC   C1A70047  11.118   1.386   6.241
 5377POPC   D2A70048  11.303   1.518   6.608
 5377POPC   C3A70049  11.446   1.269   6.935
 5377POPC   C4A70050  11.275   1.389   7.355
 5377POPC   C1B70051  11.194   0.886   6.209
 5377POPC   C2B70052  11.054   1.029   6.659
 5377POPC   C3B70053  11.057   0.984   7.136
 5377POPC   C4B70054  11.120   0.992   7.632
 5378POPC   NC370055  39.835   0.879   5.271
 5378POPC   PO470056  40.128   1.421   5.284
 5378POPC   GL170057  40.237   1.402   5.751
 5378POPC   GL270058  40.153   1.043   5.772
 5378POPC   C1A70059  40.217   1.330   6.195
 5378POPC   D2A70060  40.011   1.140   6.533
 5378POPC   C3A70061  39.844   1.447   6.843
 5378POPC   C4A70062  39.853   1.590   7.295
 5378POPC   C1B70063  40.243   0.790   6.161
 5378POPC   C2B70064  40.223   0.652   6.597
 5378POPC   C3B70065  40.229   0.897   6.964
 5378POPC   C4B70066  39.867   1.077   7.177
 5379POPC   NC370067  28.952  42.024   5.575
 5379POPC   PO470068  29.070  41.352   5.233
 5379POPC   GL170069  29.254  41.346   5.705
 5379POPC   GL270070  29.209  41.683   5.812
 5379POPC   C1A70071  29.311  41.432   6.221
 5379POPC   D2A70072  29.278  41.703   6.613
 5379POPC   C3A70073  29.277  41.507   7.034
 5379POPC   C4A70074  29.269  41.377   7.488
 5379POPC   C1B70075  29.044  41.908   6.198
 5379POPC   C2B70076  28.786  41.821   6.576
 5379POPC   C3B70077  28.882  41.912   6.972
 5379POPC   C4B70078  28.930  41.725   7.346
 5380POPC   NC370079   2.478   2.079   5.463
 5380POPC   PO470080   3.068   1.698   5.531
 5380POPC   GL170081   3.173   1.998   5.855
 5380POPC   GL270082   2.802   1.945   5.915
 5380POPC   C1A70083   3.104   2.100   6.307
 5380POPC   D2A70084   2.824   1.897   6.610
 5380POPC   C3A70085   2.633   2.108   6.965
 5380POPC   C4A70086   2.632   2.043   7.422
 5380POPC   C1B70087   2.475   1.824   6.197
 5380POPC   C2B70088   2.299   1.770   6.608
 5380POPC   C3B70089   2.440   1.631   6.990
 5380POPC   C4B70090   2.388   1.580   7.401
 5381POPC   NC370091  43.714   9.461   5.299
 5381POPC   PO470092  43.741   8.771   5.461
 5381POPC   GL170093  43.975   8.958   5.762
 5381POPC   GL270094  44.141   8.672   5.830
 5381POPC   C1A70095  44.000   8.997   6.223
 5381POPC   D2A70096  43.853   9.226   6.583
 5381POPC   C3A70097  43.711   9.310   6.996
 5381POPC   C4A70098  43.914   9.183   7.338
 5381POPC   C1B70099  43.770   8.563   6.102
 5381POPC   C2B70100  43.815   8.624   6.556
 5381POPC   C3B70101  43.897   8.847   6.926
 5381POPC   C4B70102  43.543   8.870   7.204
 5382POPC   NC370103  30.351   6.808   5.217
 5382POPC   PO470104  30.544   6.202   5.332
 5382POPC   GL170105  30.738   6.500   5.640
 5382POPC   GL270106  30.598   6.846   5.693
 5382POPC   C1A70107  30.862   6.537   6.078
 5382POPC   D2A70108  30.595   6.484   6.463
 5382POPC   C3A70109  30.807   6.575   6.863
 5382POPC   C4A70110  30.693   6.621   7.288
 5382POPC   C1B70111  30.516   6.907   6.151
 5382POPC   C2B70112  30.621   7.010   6.575
 5382POPC   C3B70113  30.470   6.957   6.976
 5382POPC   C4B70114  30.564   7.150   7.370
 5383POPC   NC370115  36.843  11.788   5.455
 5383POPC   PO470116  37.364  12.281   5.473
 5383POPC   GL170117  37.145  11.991   5.815
 5383POPC   GL270118  36.746  12.004   5.882
 5383POPC   C1A70119  37.026  12.034   6.281
 5383POPC   D2A70120  36.828  12.309   6.590
 5383POPC   C3A70121  37.087  12.174   6.903
 5383POPC   C4A70122  36.971  11.872   7.164
 5383POPC   C1B70123  36.577  11.762   6.222
 5383POPC   C2B70124  36.693  11.820   6.638
 5383POPC   C3B70125  36.475  11.890   6.972
 5383POPC   C4B70126  36.498  11.724   7.356
 5384POPC   NC370127   5.244   8.385   5.458
 5384POPC   PO470128   4.650   7.960   5.334
 5384POPC   GL170129   4.887   8.023   5.729
 5384POPC   GL270130   5.229   8.102   5.868
 5384POPC   C1A70131   4.827   8.133   6.176
 5384POPC   D2A70132   5.143   8.104   6.517
 5384POPC   C3A70133   4.997   8.228   6.936
 5384POPC   C4A70134   5.155   8.002   7.276
 5384POPC   C1B70135   5.262   8.477   6.177
 5384POPC   C2B70136   5.250   8.593   6.638
 5384POPC   C3B70137   5.421   8.537   7.054
 5384POPC   C4B70138   5.578   8.630   7.499
 5385POPC   NC370139   9.391  14.923   5.152
 5385POPC   PO470140   8.912  15.449   5.120
 5385POPC   GL170141   8.844  15.358   5.726
 5385POPC   GL270142   8.707  15.574   5.997
 5385POPC   C1A70143   9.026  15.053   6.090
 5385POPC   D2A70144   8.883  14.841   6.481
 5385POPC   C3A70145   9.033  15.036   6.851
 5385POPC   C4A70146   8.832  15.104   7.218
 5385POPC   C1B70147   9.048  15.545   6.210
 5385POPC   C2B70148   9.314  15.352   6.490
 5385POPC   C3B70149   9.282  15.507   6.880
 5385POPC   C4B70150   9.286  15.328   7.258
 5386POPC   NC370151  34.635  20.340   5.427
 5386POPC   PO470152  34.844  19.704   5.534
 5386POPC   GL170153  34.829  19.929   5.925
 5386POPC   GL270154  34.491  19.964   5.945
 5386POPC   C1A70155  34.749  19.949   6.378
 5386POPC   D2A70156  34.831  19.684   6.733
 5386POPC   C3A70157  34.702  19.925   7.082
 5386POPC   C4A70158  34.394  20.070   7.328
 5386POPC   C1B70159  34.359  19.629   6.234
 5386POPC   C2B70160  34.267  19.528   6.670
 5386POPC   C3B70161  34.293  19.616   7.095
 5386POPC   C4B70162  34.089  19.676   7.488
 5387POPC   NC370163  27.997  18.112   5.457
 5387POPC   PO470164  28.613  17.952   5.427
 5387POPC   GL170165  28.442  18.133   5.816
 5387POPC   GL270166  28.153  17.959   5.922
 5387POPC   C1A70167  28.369  18.421   6.189
 5387POPC   D2A70168  28.511  18.516   6.624
 5387POPC   C3A70169  28.256  18.401   6.955
 5387POPC   C4A70170  28.149  18.506   7.358
 5387POPC   C1B70171  28.245  17.941   6.344
 5387POPC   C2B70172  28.246  17.892   6.771
 5387POPC   C3B70173  28.236  17.943   7.187
 5387POPC   C4B70174  27.907  18.028   7.478
 5388POPC   NC370175  36.164  22.967   5.595
 5388POPC   PO470176  36.103  22.321   5.267
 5388POPC   GL170177  36.258  22.504   5.749
 5388POPC   GL270178  36.573  22.677   5.779
 5388POPC   C1A70179  36.109  22.647   6.178
 5388POPC   D2A70180  36.225  22.510   6.585
 5388POPC   C3A70181  36.140  22.732   6.931
 5388POPC   C4A70182  35.980  22.843   7.312
 5388POPC   C1B70183  36.512  22.971   6.180
 5388POPC   C2B70184  36.189  23.071   6.520
 5388POPC   C3B70185  36.279  23.233   6.963
 5388POPC   C4B70186  36.278  23.241   7.430
 5389POPC   NC370187   9.113  19.079   5.407
 5389POPC   PO470188   8.539  18.678   5.572
 5389POPC   GL170189   8.887  18.857   5.864
 5389POPC   GL270190   8.987  19.229   5.870
 5389POPC   C1A70191   8.764  19.022   6.289
 5389POPC   D2A70192   8.521  18.900   6.655
 5389POPC   C3A70193   8.803  18.828   6.970
 5389POPC   C4A70194   8.910  18.969   7.344
 5389POPC   C1B70195   9.016  19.467   6.232
 5389POPC   C2B70196   8.921  19.503   6.645
 5389POPC   C3B70197   8.828  19.358   7.036
 5389POPC   C4B70198   8.792  19.463   7.489
 5390POPC   NC370199  41.442  43.871   5.330
 5390POPC   PO470200  40.746  43.904   5.446
 5390POPC   GL170201  40.769  43.851   5.882
 5390POPC   GL270202  40.996  44.145   5.998
 5390POPC   C1A70203  40.725  43.851   6.332
 5390POPC   D2A70204  40.852  44.104   6.676
 5390POPC   C3A70205  40.711  43.941   7.051
 5390POPC   C4A70206  40.601  44.037   7.480
 5390POPC   C1B70207  41.220  43.787   6.174
 5390POPC   C2B70208  41.282  43.658   6.601
 5390POPC   C3B70209  41.157  43.665   7.029
 5390POPC   C4B70210  40.926  43.639   7.421
 5391POPC   NC370211   7.671  41.652   5.223
 5391POPC   PO470212   7.027  41.565   5.447
 5391POPC   GL170213   7.297  41.584   5.825
 5391POPC   GL270214   7.665  41.704   5.754
 5391POPC   C1A70215   7.161  41.667   6.259
 5391POPC   D2A70216   7.068  41.436   6.631
 5391POPC   C3A70217   7.116  41.672   7.010
 5391POPC   C4A70218   7.343  41.741   7.390
 5391POPC   C1B70219   7.679  41.505   6.185
 5391POPC   C2B70220   7.602  41.318   6.621
 5391POPC   C3B70221   7.662  41.530   7.045
 5391POPC   C4B70222   7.781  41.497   7.515
 5392POPC   NC370223  29.168  37.152   5.196
 5392POPC   PO470224  29.399  36.543   5.161
 5392POPC   GL170225  29.406  36.721   5.601
 5392POPC   GL270226  29.333  36.444   5.758
 5392POPC   C1A70227  29.149  36.770   6.076
 5392POPC   D2A70228  29.014  36.584   6.526
 5392POPC   C3A70229  29.132  36.793   6.961
 5392POPC   C4A70230  29.274  37.194   7.233
 5392POPC   C1B70231  29.444  36.369   6.191
 5392POPC   C2B70232  29.513  36.576   6.597
 5392POPC   C3B70233  29.457  36.374   6.995
 5392POPC   C4B70234  29.240  36.465   7.365
 5393POPC   NC370235  30.722   7.848   5.411
 5393POPC   PO470236  30.546   7.205   5.302
 5393POPC   GL170237  30.752   7.368   5.735
 5393POPC   GL270238  30.872   7.729   5.871
 5393POPC   C1A70239  30.622   7.403   6.201
 5393POPC   D2A70240  30.338   7.634   6.479
 5393POPC   C3A70241  30.524   7.476   6.852
 5393POPC   C4A70242  30.755   7.604   7.202
 5393POPC   C1B70243  31.118   7.533   6.187
 5393POPC   C2B70244  31.013   7.378   6.608
 5393POPC   C3B70245  30.944   7.182   7.010
 5393POPC   C4B70246  31.043   7.289   7.466
 5394POPC   NC370247   0.320  40.654   5.436
 5394POPC   PO470248   0.917  40.978   5.481
 5394POPC   GL170249   0.662  40.864   5.852
 5394POPC   GL270250   0.312  41.014   5.917
 5394POPC   C1A70251   0.653  40.777   6.315
 5394POPC   D2A70252   0.673  40.732   6.786
 5394POPC   C3A70253   0.382  40.542   7.104
 5394POPC   C4A70254   0.516  40.536   7.541
 5394POPC   C1B70255   0.226  41.086   6.389
 5394POPC   C2B70256   0.240  40.996   6.864
 5394POPC   C3B70257   0.533  41.006   7.229
 5394POPC   C4B70258   0.579  41.204   7.636
 5395POPC   NC370259  37.487  11.853   5.391
 5395POPC   PO470260  38.014  11.448   5.517
 5395POPC   GL170261  37.863  11.814   5.827
 5395POPC   GL270262  37.839  12.180   5.745
 5395POPC   C1A70263  37.540  11.972   6.170
 5395POPC   D2A70264  37.366  11.793   6.612
 5395POPC   C3A70265  37.567  11.895   7.065
 5395POPC   C4A70266  37.663  12.221   7.414
 5395POPC   C1B70267  38.026  12.183   6.180
 5395POPC   C2B70268  38.097  12.386   6.589
 5395POPC   C3B70269  37.967  12.255   6.983
 5395POPC   C4B70270  38.082  11.985   7.295
 5396POPC   NC370271  34.705  14.797   4.946
 5396POPC   PO470272  34.498  14.317   5.286
 5396POPC   GL170273  34.639  14.477   5.686
 5396POPC   GL270274  34.956  14.309   5.687
 5396POPC   C1A70275  34.548  14.356   6.132
 5396POPC   D2A70276  34.399  14.463   6.564
 5396POPC   C3A70277  34.627  14.307   6.917
 5396POPC   C4A70278  34.483  14.357   7.311
 5396POPC   C1B70279  34.994  14.607   6.053
 5396POPC   C2B70280  34.914  14.494   6.493
 5396POPC   C3B70281  34.992  14.654   6.899
 5396POPC   C4B70282  34.890  14.622   7.313
 5397POPC   NC370283  21.603   5.033   5.125
 5397POPC   PO470284  21.231   5.315   5.660
 5397POPC   GL170285  21.185   5.134   6.018
 5397POPC   GL270286  20.904   4.950   6.029
 5397POPC   C1A70287  21.269   5.212   6.442
 5397POPC   D2A70288  21.627   5.012   6.552
 5397POPC   C3A70289  21.857   5.139   6.891
 5397POPC   C4A70290  21.817   4.812   7.148
 5397POPC   C1B70291  21.141   4.728   6.360
 5397POPC   C2B70292  21.159   4.796   6.787
 5397POPC   C3B70293  21.340   5.085   7.052
 5397POPC   C4B70294  21.553   5.441   7.211
 5398POPC   NC370295  29.460   1.129   5.280
 5398POPC   PO470296  29.102   1.487   5.598
 5398POPC   GL170297  29.343   1.408   5.895
 5398POPC   GL270298  29.031   1.285   6.060
 5398POPC   C1A70299  29.471   1.495   6.270
 5398POPC   D2A70300  29.201   1.348   6.552
 5398POPC   C3A70301  29.399   1.472   6.888
 5398POPC   C4A70302  29.359   1.321   7.299
 5398POPC   C1B70303  28.668   1.468   6.291
 5398POPC   C2B70304  28.763   1.598   6.673
 5398POPC   C3B70305  28.920   1.355   6.993
 5398POPC   C4B70306  28.775   1.206   7.331
 5399POPC   NC370307  12.331  16.130   5.554
 5399POPC   PO470308  12.997  15.793   5.477
 5399POPC   GL170309  12.771  16.007   5.821
 5399POPC   GL270310  12.432  15.834   5.946
 5399POPC   C1A70311  12.700  16.165   6.236
 5399POPC   D2A70312  12.534  15.986   6.619
 5399POPC   C3A70313  12.694  16.064   7.037
 5399POPC   C4A70314  13.089  15.878   7.174
 5399POPC   C1B70315  12.559  15.567   6.266
 5399POPC   C2B70316  12.806  15.506   6.625
 5399POPC   C3B70317  12.699  15.540   7.050
 5399POPC   C4B70318  12.637  15.694   7.456
 5400POPC   NC370319   3.768  32.609   5.436
 5400POPC   PO470320   3.343  33.086   5.474
 5400POPC   GL170321   3.676  33.044   5.760
 5400POPC   GL270322   3.768  33.403   5.727
 5400POPC   C1A70323   3.599  32.876   6.189
 5400POPC   D2A70324   3.287  32.896   6.517
 5400POPC   C3A70325   3.344  32.754   6.939
 5400POPC   C4A70326   3.462  32.902   7.353
 5400POPC   C1B70327   3.495  33.380   6.103
 5400POPC   C2B70328   3.598  33.315   6.529
 5400POPC   C3B70329   3.439  33.256   6.938
 5400POPC   C4B70330   3.421  33.482   7.296
 5401POPC   NC370331   4.439  37.085   5.461
 5401POPC   PO470332   3.949  36.710   5.335
 5401POPC   GL170333   4.154  36.757   5.758
 5401POPC   GL270334   4.158  37.112   5.875
 5401POPC   C1A70335   4.312  36.752   6.202
 5401POPC   D2A70336   4.423  36.567   6.608
 5401POPC   C3A70337   4.267  36.729   6.999
 5401POPC   C4A70338   4.221  37.062   7.312
 5401POPC   C1B70339   3.959  37.106   6.266
 5401POPC   C2B70340   4.218  37.061   6.612
 5401POPC   C3B70341   4.553  37.149   6.882
 5401POPC   C4B70342   4.556  37.468   7.210
 5402POPC   NC370343  27.552  21.504   5.429
 5402POPC   PO470344  28.056  21.674   5.725
 5402POPC   GL170345  27.765  21.325   5.893
 5402POPC   GL270346  27.384  21.252   5.827
 5402POPC   C1A70347  27.802  21.254   6.341
 5402POPC   D2A70348  27.945  21.049   6.708
 5402POPC   C3A70349  27.785  21.235   7.101
 5402POPC   C4A70350  27.629  21.570   7.398
 5402POPC   C1B70351  27.329  21.122   6.253
 5402POPC   C2B70352  27.421  21.253   6.696
 5402POPC   C3B70353  27.270  21.274   7.132
 5402POPC   C4B70354  27.454  21.090   7.485
 5403POPC   NC370355  30.242  18.626   5.302
 5403POPC   PO470356  29.844  19.155   5.268
 5403POPC   GL170357  29.891  18.896   5.716
 5403POPC   GL270358  30.221  18.728   5.794
 5403POPC   C1A70359  29.967  18.874   6.209
 5403POPC   D2A70360  29.838  18.912   6.669
 5403POPC   C3A70361  29.677  19.246   6.951
 5403POPC   C4A70362  29.815  19.448   7.359
 5403POPC   C1B70363  30.262  18.441   6.142
 5403POPC   C2B70364  30.428  18.365   6.564
 5403POPC   C3B70365  30.278  18.516   6.978
 5403POPC   C4B70366  30.060  18.913   7.128
 5404POPC   NC370367  16.603   2.932   5.443
 5404POPC   PO470368  16.908   2.414   5.272
 5404POPC   GL170369  16.919   2.611   5.709
 5404POPC   GL270370  16.563   2.624   5.838
 5404POPC   C1A70371  16.947   2.742   6.167
 5404POPC   D2A70372  17.104   2.712   6.617
 5404POPC   C3A70373  17.031   3.073   6.910
 5404POPC   C4A70374  16.829   3.011   7.307
 5404POPC   C1B70375  16.395   2.869   6.163
 5404POPC   C2B70376  16.634   3.005   6.518
 5404POPC   C3B70377  16.650   2.737   6.880
 5404POPC   C4B70378  16.401   2.778   7.229
 5405POPC   NC370379  27.460  42.699   5.606
 5405POPC   PO470380  27.577  42.043   5.506
 5405POPC   GL170381  27.512  42.256   5.882
 5405POPC   GL270382  27.787  42.464   5.913
 5405POPC   C1A70383  27.617  42.163   6.310
 5405POPC   D2A70384  27.785  42.269   6.700
 5405POPC   C3A70385  27.607  42.097   7.054
 5405POPC   C4A70386  27.900  41.996   7.346
 5405POPC   C1B70387  27.547  42.672   6.260
 5405POPC   C2B70388  27.683  42.752   6.687
 5405POPC   C3B70389  27.614  42.602   7.137
 5405POPC   C4B70390  27.491  42.355   7.518
 5406POPC   NC370391  40.142  21.304   5.373
 5406POPC   PO470392  39.644  21.741   5.647
 5406POPC   GL170393  39.984  21.486   5.840
 5406POPC   GL270394  40.357  21.561   5.746
 5406POPC   C1A70395  39.960  21.170   6.189
 5406POPC   D2A70396  40.201  21.075   6.568
 5406POPC   C3A70397  40.028  21.166   6.973
 5406POPC   C4A70398  40.230  21.092   7.369
 5406POPC   C1B70399  40.373  21.448   6.169
 5406POPC   C2B70400  40.392  21.581   6.587
 5406POPC   C3B70401  40.478  21.426   6.998
 5406POPC   C4B70402  40.191  21.603   7.271
 5407POPC   NC370403   8.947  24.930   5.442
 5407POPC   PO470404   9.203  24.410   5.273
 5407POPC   GL170405   9.299  24.325   5.742
 5407POPC   GL270406   9.227  24.652   5.868
 5407POPC   C1A70407   9.417  24.314   6.219
 5407POPC   D2A70408   9.457  24.540   6.640
 5407POPC   C3A70409   9.220  24.449   7.019
 5407POPC   C4A70410   8.954  24.323   7.380
 5407POPC   C1B70411   9.092  24.724   6.312
 5407POPC   C2B70412   8.944  24.781   6.755
 5407POPC   C3B70413   8.862  24.804   7.236
 5407POPC   C4B70414   8.876  24.983   7.674
 5408POPC   NC370415   1.189  21.011   5.356
 5408POPC   PO470416   1.442  21.657   5.365
 5408POPC   GL170417   1.234  21.391   5.707
 5408POPC   GL270418   1.403  21.080   5.797
 5408POPC   C1A70419   1.067  21.342   6.139
 5408POPC   D2A70420   1.178  21.132   6.523
 5408POPC   C3A70421   1.050  21.364   6.907
 5408POPC   C4A70422   1.096  21.653   7.242
 5408POPC   C1B70423   1.557  21.206   6.191
 5408POPC   C2B70424   1.656  21.299   6.611
 5408POPC   C3B70425   1.496  21.114   6.993
 5408POPC   C4B70426   1.168  21.112   7.343
 5409POPC   NC370427  19.133   5.464   5.551
 5409POPC   PO470428  18.734   4.949   5.407
 5409POPC   GL170429  18.864   4.943   5.834
 5409POPC   GL270430  18.938   5.264   5.966
 5409POPC   C1A70431  18.884   4.853   6.270
 5409POPC   D2A70432  19.017   5.070   6.605
 5409POPC   C3A70433  18.873   4.829   6.970
 5409POPC   C4A70434  18.944   4.961   7.360
 5409POPC   C1B70435  19.152   5.538   6.259
 5409POPC   C2B70436  19.250   5.565   6.701
 5409POPC   C3B70437  19.134   5.423   7.124
 5409POPC   C4B70438  18.834   5.440   7.447
 5410POPC   NC370439  24.488  16.832   5.514
 5410POPC   PO470440  23.866  16.592   5.320
 5410POPC   GL170441  24.111  16.544   5.730
 5410POPC   GL270442  24.126  16.909   5.865
 5410POPC   C1A70443  24.392  16.459   6.108
 5410POPC   D2A70444  24.707  16.447   6.409
 5410POPC   C3A70445  24.594  16.462   6.852
 5410POPC   C4A70446  24.818  16.628   7.179
 5410POPC   C1B70447  24.456  16.961   6.159
 5410POPC   C2B70448  24.527  16.888   6.566
 5410POPC   C3B70449  24.808  17.012   6.839
 5410POPC   C4B70450  24.556  17.060   7.199
 5411POPC   NC370451  44.263  34.991   5.469
 5411POPC   PO470452  44.458  34.479   5.460
 5411POPC   GL170453  44.629  34.611   5.824
 5411POPC   GL270454  44.547  34.310   5.978
 5411POPC   C1A70455  44.583  34.749   6.276
 5411POPC   D2A70456  44.656  34.578   6.692
 5411POPC   C3A70457  44.648  34.823   7.082
 5411POPC   C4A70458  44.715  35.116   7.447
 5411POPC   C1B70459  44.881  34.314   6.287
 5411POPC   C2B70460  44.998  34.168   6.714
 5411POPC   C3B70461  44.831  34.329   7.106
 5411POPC   C4B70462  44.896  34.594   7.476
 5412POPC   NC370463  12.940   2.863   5.435
 5412POPC   PO470464  12.472   3.300   5.305
 5412POPC   GL170465  12.699   3.300   5.724
 5412POPC   GL270466  13.081   3.242   5.746
 5412POPC   C1A70467  12.702   3.005   6.095
 5412POPC   D2A70468  12.456   2.714   6.393
 5412POPC   C3A70469  12.627   2.643   6.805
 5412POPC   C4A70470  12.653   2.795   7.211
 5412POPC   C1B70471  13.175   3.162   6.174
 5412POPC   C2B70472  12.992   2.923   6.508
 5412POPC   C3B70473  13.017   2.984   6.920
 5412POPC   C4B70474  13.158   2.823   7.304
 5413POPC   NC370475  15.444  10.269   5.286
 5413POPC   PO470476  14.979  10.745   5.195
 5413POPC   GL170477  14.938  10.646   5.678
 5413POPC   GL270478  15.215  10.390   5.780
 5413POPC   C1A70479  15.031  10.744   6.152
 5413POPC   D2A70480  15.299  10.694   6.570
 5413POPC   C3A70481  15.198  10.622   7.037
 5413POPC   C4A70482  15.332  10.402   7.454
 5413POPC   C1B70483  15.259  10.276   6.232
 5413POPC   C2B70484  15.574  10.257   6.572
 5413POPC   C3B70485  15.472  10.185   7.001
 5413POPC   C4B70486  15.679  10.033   7.336
 5414POPC   NC370487   7.149   6.052   5.410
 5414POPC   PO470488   7.641   5.678   5.141
 5414POPC   GL170489   7.577   5.778   5.633
 5414POPC   GL270490   7.510   6.116   5.813
 5414POPC   C1A70491   7.572   5.739   6.127
 5414POPC   D2A70492   7.695   5.998   6.518
 5414POPC   C3A70493   7.517   6.027   6.955
 5414POPC   C4A70494   7.670   6.011   7.363
 5414POPC   C1B70495   7.232   6.117   6.252
 5414POPC   C2B70496   7.026   6.053   6.682
 5414POPC   C3B70497   7.069   6.257   7.109
 5414POPC   C4B70498   7.166   6.038   7.503
 5415POPC   NC370499  30.413  38.370   5.276
 5415POPC   PO470500  30.916  38.599   5.313
 5415POPC   GL170501  30.638  38.565   5.708
 5415POPC   GL270502  30.461  38.241   5.801
 5415POPC   C1A70503  30.508  38.651   6.168
 5415POPC   D2A70504  30.330  38.642   6.624
 5415POPC   C3A70505  30.581  38.528   7.022
 5415POPC   C4A70506  30.515  38.532   7.484
 5415POPC   C1B70507  30.261  38.201   6.246
 5415POPC   C2B70508  30.267  38.129   6.718
 5415POPC   C3B70509  30.366  38.068   7.160
 5415POPC   C4B70510  30.791  38.121   7.326
 5416POPC   NC370511  26.282  28.508   5.339
 5416POPC   PO470512  25.836  27.983   5.106
 5416POPC   GL170513  25.955  28.141   5.581
 5416POPC   GL270514  25.833  27.932   5.866
 5416POPC   C1A70515  26.008  28.380   6.029
 5416POPC   D2A70516  26.242  28.407   6.446
 5416POPC   C3A70517  26.149  28.331   6.896
 5416POPC   C4A70518  26.015  28.571   7.219
 5416POPC   C1B70519  25.635  28.090   6.230
 5416POPC   C2B70520  25.777  28.115   6.618
 5416POPC   C3B70521  25.596  28.092   6.997
 5416POPC   C4B70522  25.772  28.153   7.384
 5417POPC   NC370523  10.281  20.364   5.426
 5417POPC   PO470524  10.789  20.848   5.404
 5417POPC   GL170525  10.555  20.659   5.757
 5417POPC   GL270526  10.612  20.314   5.798
 5417POPC   C1A70527  10.610  20.841   6.202
 5417POPC   D2A70528  10.443  20.751   6.611
 5417POPC   C3A70529  10.716  20.920   6.929
 5417POPC   C4A70530  10.480  20.719   7.212
 5417POPC   C1B70531  10.427  20.382   6.197
 5417POPC   C2B70532  10.188  20.251   6.516
 5417POPC   C3B70533  10.228  20.332   6.933
 5417POPC   C4B70534  10.140  20.359   7.322
 5418POPC   NC370535  14.016  15.270   5.659
 5418POPC   PO470536  13.481  15.101   5.253
 5418POPC   GL170537  13.473  15.244   5.726
 5418POPC   GL270538  13.322  15.595   5.831
 5418POPC   C1A70539  13.587  14.999   6.132
 5418POPC   D2A70540  13.921  14.805   6.407
 5418POPC   C3A70541  13.883  14.936   6.835
 5418POPC   C4A70542  13.553  15.027   7.102
 5418POPC   C1B70543  13.630  15.512   6.157
 5418POPC   C2B70544  13.611  15.308   6.554
 5418POPC   C3B70545  13.790  15.475   6.899
 5418POPC   C4B70546  13.855  15.397   7.297
 5419POPC   NC370547  44.318  44.881   5.077
 5419POPC   PO470548  44.701  44.446   5.321
 5419POPC   GL170549  44.770  44.501   5.785
 5419POPC   GL270550  44.793  44.866   5.744
 5419POPC   C1A70551  44.862  44.710   6.215
 5419POPC   D2A70552  44.587  44.788   6.586
 5419POPC   C3A70553  44.779  44.665   6.983
 5419POPC   C4A70554  44.644  44.514   7.344
 5419POPC   C1B70555  44.462   0.016   6.076
 5419POPC   C2B70556  44.235   0.176   6.442
 5419POPC   C3B70557  44.219   0.087   6.888
 5419POPC   C4B70558  44.537   0.054   7.222
 5420POPC   NC370559  10.778  27.786   5.609
 5420POPC   PO470560  11.453  27.937   5.417
 5420POPC   GL170561  11.396  27.566   5.679
 5420POPC   GL270562  11.125  27.547   5.911
 5420POPC   C1A70563  11.615  27.446   6.074
 5420POPC   D2A70564  11.344  27.494   6.429
 5420POPC   C3A70565  11.488  27.443   6.827
 5420POPC   C4A70566  11.221  27.377   7.144
 5420POPC   C1B70567  11.313  27.905   6.148
 5420POPC   C2B70568  11.191  27.986   6.582
 5420POPC   C3B70569  11.301  27.878   7.022
 5420POPC   C4B70570  11.622  27.856   7.373
 5421POPC   NC370571  18.281   4.842   5.471
 5421POPC   PO470572  18.073   4.225   5.364
 5421POPC   GL170573  18.277   4.335   5.737
 5421POPC   GL270574  18.600   4.510   5.716
 5421POPC   C1A70575  18.165   4.307   6.165
 5421POPC   D2A70576  18.147   4.215   6.594
 5421POPC   C3A70577  17.911   4.456   6.891
 5421POPC   C4A70578  18.199   4.216   7.144
 5421POPC   C1B70579  18.424   4.738   6.092
 5421POPC   C2B70580  18.195   4.714   6.490
 5421POPC   C3B70581  18.395   4.614   6.882
 5421POPC   C4B70582  18.302   4.703   7.294
 5422W        W70583  35.211   5.393  14.486
 5423W        W70584  12.371   1.820   2.699
 5424W        W70585   1.726  13.219   4.070
 5425W        W70586  29.595   2.848   3.424
 5426W        W70587   2.560   6.420   2.881
 5427W        W70588  28.450  42.313  13.424
 5428W        W70589  18.155  28.510   0.404
 5429W        W70590  24.260  17.603   3.291
 5430W        W70591  21.331  36.174   5.029
 5431W        W70592  41.020  10.088  12.323
 5432W        W70593   5.928  18.329   3.583
 5433W        W70594  37.030  11.929  14.495
 5434W        W70595  10.340  16.903   3.108
 5435W        W70596  13.430  20.029  13.100
 5436W        W70597  29.450  10.212  10.285
 5437W        W70598  36.376  15.190  13.027
 5438W        W70599  26.206  11.304  12.509
 5439W        W70600  10.373  17.549   5.001
 5440W        W70601   0.253  16.368   0.893
 5441W        W70602  27.444  19.587  13.731
 5442W        W70603  30.564  15.741  14.454
 5443W        W70604   1.159  38.379   1.973
 5444W        W70605  17.577   7.381  11.604
 5445W        W70606  33.850   9.443   1.377
 5446W        W70607  36.828  25.098  11.119
 5447W        W70608  21.176  37.310  12.665
 5448W        W70609  33.805  26.570  12.434
 5449W        W70610  32.960  19.718   0.755
 5450W        W70611  14.439  40.839   1.938
 5451W        W70612   8.872  39.441   4.567
 5452W        W70613  27.036  34.976  11.078
 5453W        W70614  39.459  11.621   2.583
 5454W        W70615  16.699  40.486   0.188
 5455W        W70616  44.849  13.446  14.882
 5456W        W70617  18.159  27.687   3.799
 5457W        W70618  34.289  23.718   0.685
 5458W        W70619   9.871  16.018  10.403
 5459W        W70620  24.180   0.550  13.566
 5460W        W70621  44.484  36.840   3.209
 5461W        W70622  16.763  40.547  12.469
 5462W        W70623  32.157  24.017   1.285
 5463W        W70624  28.261   9.149   5.418
 5464W        W70625  11.737   8.641   1.443
 5465W        W70626  19.102  24.768   4.241
 5466W        W70627  34.899  17.135  11.669
 5467W        W70628  19.981  21.412   3.662
 5468W        W70629  35.887   0.883  11.318
 5469W        W70630  11.697   7.736   5.039
 5470W        W70631  28.441  38.067   3.471
 5471W        W70632  28.620  15.643  14.383
 5472W        W70633  33.874  27.266   3.786
 5473W        W70634  29.618  14.414   2.646
 5474W        W70635  33.986  24.793  10.662
 5475W        W70636  38.348  27.038  12.798
 5476W        W70637   3.214  37.753  11.464
 5477W        W70638  32.998  21.517   1.208
 5478W        W70639   2.003  38.241  11.218
 5479W        W70640  39.628  34.519  11.655
 5480W        W70641  13.858  33.678   4.116
 5481W        W70642  28.197  40.552  14.919
 5482W        W70643  14.632  15.745  11.920
 5483W        W70644  25.914  15.093   0.009
 5484W        W70645   9.410   6.317  14.543
 5485W        W70646  10.173   9.168   4.595
 5486W        W70647  40.334  34.495  12.623
 5487W        W70648  34.273  34.043   0.468
 5488W        W70649  28.629  24.696  10.630
 5489W        W70650  18.441  18.378   1.706
 5490W        W70651  29.923  39.274   3.879
 5491W        W70652  17.279  22.111   1.430
 5492W        W70653  38.945   1.609   4.865
 5493W        W70654  21.789   6.006  14.258
 5494W        W70655  44.859   1.450   1.579
 5495W        W70656  17.441  28.441  12.796
 5496W        W70657  42.543  18.978  13.406
 5497W        W70658  26.145  35.972   3.158
 5498W        W70659   5.533  20.711  12.254
 5499W        W70660   8.835  36.477   1.734
 5500W        W70661  25.627   4.790   0.976
 5501W        W70662   4.852  11.733  10.606
 5502W        W70663   7.191  31.967   4.649
 5503W        W70664   0.390  20.167  10.904
 5504W        W70665  34.156   6.336  11.757
 5505W        W70666  25.551  42.382   2.216
 5506W        W70667  28.143   2.946   1.494
 5507W        W70668  30.292  21.422  10.311
 5508W        W70669  14.487  39.196   0.676
 5509W        W70670   3.527  22.581   4.669
 5510W        W70671  33.986  14.597  12.264
 5511W        W70672  18.452  16.984  13.080
 5512W        W70673  24.563   1.376  13.507
 5513W        W70674  42.142  25.221  14.666
 5514W        W70675   0.815  36.639   0.808
 5515W        W70676   0.444  25.814   2.370
 5516W        W70677  10.819   5.488  11.093
 5517W        W70678   5.492  19.511  13.346
 5518W        W70679  35.857  21.167   2.969
 5519W        W70680  28.348  32.881   2.063
 5520W        W70681  17.961  11.659   3.641
 5521W        W70682  19.618  21.641  10.462
 5522W        W70683  30.399  42.321  14.851
 5523W        W70684  32.595  37.096  13.306
 5524W        W70685   4.941  11.086   4.351
 5525W        W70686  21.101  38.037   3.605
 5526W        W70687  33.728  27.773   3.162
 5527W        W70688  20.577  28.640  11.766
 5528W        W70689   7.909   2.874   2.631
 5529W        W70690  14.087  42.521  11.135
 5530W        W70691  22.091   0.962   3.082
 5531W        W70692  25.597  30.413  11.518
 5532W        W70693  38.382  31.461  10.867
 5533W        W70694  20.541  15.785  12.653
 5534W        W70695   2.288  39.988  13.928
 5535W        W70696  39.501   1.202   4.116
 5536W        W70697  24.653  44.986  13.895
 5537W        W70698   0.046  28.670   4.140
 5538W        W70699  11.639  40.257  11.554
 5539W        W70700  17.334  32.144   0.795
 5540W        W70701  43.359  42.332  14.043
 5541W        W70702  33.039  32.262   2.350
 5542W        W70703   6.001   0.444   2.817
 5543W        W70704   3.888  37.920   1.665
 5544W        W70705  12.347  32.336   0.544
 5545W        W70706  10.401   2.176   4.921
 5546W        W70707   2.965   8.971  11.584
 5547W        W70708  36.437   8.290  12.453
 5548W        W70709   7.163  11.028  14.915
 5549W        W70710  14.727   4.784  13.344
 5550W        W70711  31.989  37.597  12.950
 5551W        W70712   1.938  15.815  11.459
 5552W        W70713  42.744  42.042   3.813
 5553W        W70714  26.465  17.791  12.899
 5554W        W70715   2.686  26.543   5.029
 5555W        W70716  42.213  28.185   0.773
 5556W        W70717   7.190  18.610   3.206
 5557W        W70718  44.993  10.446  12.962
 5558W        W70719  32.341  35.936  10.994
 5559W        W70720   2.134  42.465  14.792
 5560W        W70721  43.982  15.097  12.497
 5561W        W70722  18.733   8.576   5.033
 5562W        W70723   7.448   1.271   2.959
 5563W        W70724  15.354  17.065  14.888
 5564W        W70725  40.882   4.400   2.848
 5565W        W70726  40.395  23.704  12.982
 5566W        W70727   2.383  35.270   4.074
 5567W        W70728   4.199  41.513  12.453
 5568W        W70729  38.479   7.062  12.530
 5569W        W70730   4.891   3.783   3.698
 5570W        W70731   2.408  44.750   1.899
 5571W        W70732   4.206  30.666   1.020
 5572W        W70733  10.950  12.856   3.565
 5573W        W70734  10.430  35.866  11.693
 5574W        W70735  38.025  39.872   1.287
 5575W        W70736  10.195  33.059   3.668
 5576W        W70737  26.656  41.453   3.579
 5577W        W70738  11.108   6.741  10.499
 5578W        W70739  35.877  23.381  14.380
 5579W        W70740  19.743  24.286   2.844
 5580W        W70741  18.794  42.416   0.894
 5581W        W70742  13.295  14.707  13.935
 5582W        W70743   1.749  32.138   0.942
 5583W        W70744  40.087  24.090   2.027
 5584W        W70745  16.248   0.034   4.905
 5585W        W70746  12.887   2.536   4.642
 5586W        W70747  14.129  16.720   3.203
 5587W        W70748  23.301  15.273   3.159
 5588W        W70749   8.286  11.329   4.361
 5589W        W70750   7.940  15.627   2.070
 5590W        W70751  27.665  26.000  13.941
 5591W        W70752  17.280   0.954   2.312
 5592W        W70753  42.645  12.323  12.456
 5593W        W70754  10.207  43.422  10.171
 5594W        W70755  42.637  40.801  10.691
 5595W        W70756  40.865   7.004  12.464
 5596W        W70757  29.565  31.191  14.407
 5597W        W70758  22.251  10.930   0.788
 5598W        W70759  31.702  20.180   4.029
 5599W        W70760  27.136  31.699   2.207
 5600W        W70761  24.226   9.017  10.640
 5601W        W70762  14.503  14.413  11.113
 5602W        W70763  35.966   7.192  12.296
 5603W        W70764   7.327   5.856   4.166
 5604W        W70765  29.598   6.770  11.209
 5605W        W70766  21.035  17.952  13.033
 5606W        W70767  12.119  36.818  12.193
 5607W        W70768  36.871  40.248  14.336
 5608W        W70769   9.982   8.948  13.268
 5609W        W70770  13.741  13.796   1.338
 5610W        W70771  29.425   9.133  14.644
 5611W        W70772  27.340  40.988  11.186
 5612W        W70773  16.164  20.207  14.778
 5613W        W70774  27.966   8.078  13.815
 5614W        W70775   7.233  28.410   2.083
 5615W        W70776   2.170  33.464   3.216
 5616W        W70777  27.691   4.972   3.137
 5617W        W70778  29.596  28.644   4.657
 5618W        W70779  24.774  19.766   3.644
 5619W        W70780  15.062  23.592   1.418
 5620W        W70781   0.597  44.401  13.799
 5621W        W70782  19.560  28.606  13.849
 5622W        W70783   8.252  14.197   2.117
 5623W        W70784  44.843  41.409  13.744
 5624W        W70785  12.301  24.660   2.805
 5625W        W70786  34.209   5.767   4.517
 5626W        W70787  16.842  33.835  10.959
 5627W        W70788  25.121  38.591  13.999
 5628W        W70789   5.156  13.882   2.386
 5629W        W70790  25.048  35.905   3.709
 5630W        W70791   4.534  24.195   5.474
 5631W        W70792  23.293  20.456  11.516
 5632W        W70793  39.818  22.183  13.620
 5633W        W70794  43.589  20.969   3.302
 5634W        W70795  27.139  23.884  14.342
 5635W        W70796  41.820  36.417  13.649
 5636W        W70797  35.931  30.020   2.218
 5637W        W70798  13.523  22.548  12.419
 5638W        W70799  38.863  16.566  11.573
 5639W        W70800  35.116  44.320  10.820
 5640W        W70801   8.165   7.243  14.992
 5641W        W70802  36.486  37.431  12.945
 5642W        W70803  11.296  34.051  10.861
 5643W        W70804  10.802  35.632  11.016
 5644W        W70805  14.611  25.904  12.466
 5645W        W70806  40.793  16.511  12.050
 5646W        W70807  14.268  25.602   0.297
 5647W        W70808  24.415  28.515  14.422
 5648W        W70809  19.659  20.555  11.118
 5649W        W70810  13.105  11.163   1.214
 5650W        W70811  29.079   9.309  11.435
 5651W        W70812  33.896   8.256   3.852
 5652W        W70813  29.397   8.817  11.897
 5653W        W70814  31.353  17.652  11.697
 5654W        W70815  14.781  44.438  14.763
 5655W        W70816   8.494  19.844   5.067
 5656W        W70817  16.532  27.733  12.135
 5657W        W70818  31.840   9.973  14.837
 5658W        W70819  19.991  22.315  13.363
 5659W        W70820  13.784  42.434   3.809
 5660W        W70821  39.016   1.088   1.080
 5661W        W70822  44.234  23.213  11.487
 5662W        W70823   6.837  12.625   2.066
 5663W        W70824  43.931  21.064   4.307
 5664W        W70825  20.153  43.834  10.639
 5665W        W70826  38.448  28.702   4.169
 5666W        W70827  29.114  17.195  11.184
 5667W        W70828  27.147  14.634   2.775
 5668W        W70829  15.845  44.496   1.839
 5669W        W70830   9.325   1.729  12.059
 5670W        W70831  30.493  12.113   1.254
 5671W        W70832  35.362  16.565   0.728
 5672W        W70833   5.563  20.159   4.142
 5673W        W70834  35.926   0.329  14.182
 5674W        W70835  29.523  27.768   2.828
 5675W        W70836  33.995  23.014  11.110
 5676W        W70837  17.845   0.339  11.534
 5677W        W70838  39.344  41.284   0.770
 5678W        W70839  16.819   6.240  14.355
 5679W        W70840  41.376  20.026   0.326
 5680W        W70841  11.341  44.241  12.314
 5681W        W70842   3.996  31.687  14.418
 5682W        W70843  11.598  15.402   1.489
 5683W        W70844  33.995  33.011  14.471
 5684W        W70845  26.643  15.631  12.868
 5685W        W70846  22.001  28.148   2.667
 5686W        W70847   5.719   2.023   2.575
 5687W        W70848  29.950  42.744  13.009
 5688W        W70849   1.402   3.872  12.468
 5689W        W70850  13.816  30.735   4.054
 5690W        W70851   5.882  44.284   1.920
 5691W        W70852  34.912   3.203   2.175
 5692W        W70853  28.513  22.740  14.993
 5693W        W70854  21.062  43.995   4.162
 5694W        W70855  44.374  24.622  10.886
 5695W        W70856  23.997  44.602  10.204
 5696W        W70857  20.255  18.723   1.429
 5697W        W70858  42.255  38.934  14.777
 5698W        W70859  34.372  28.486  12.592
 5699W        W70860  44.142   0.392   1.811
 5700W        W70861   4.722  24.611  11.593
 5701W        W70862  29.402   5.908  11.192
 5702W        W70863   7.772  25.395  13.799
 5703W        W70864  31.376  20.261  11.508
 5704W        W70865   8.037   2.884  14.814
 5705W        W70866  28.861  44.966   1.262
 5706W        W70867  39.432  21.984   1.452
 5707W        W70868   9.530  39.933  12.563
 5708W        W70869   6.530  17.734   0.133
 5709W        W70870  16.145  39.383  13.030
 5710W        W70871  44.855   8.729   1.799
 5711W        W70872  16.153   9.637  11.199
 5712W        W70873  20.181  42.771  10.608
 5713W        W70874  23.033  44.777  11.082
 5714W        W70875  43.035  10.644   3.777
 5715W        W70876  23.133  16.790  14.324
 5716W        W70877  30.080  18.316  13.833
 5717W        W70878  42.926  19.485  10.719
 5718W        W70879   1.343   9.707   1.324
 5719W        W70880  14.351  16.820   3.678
 5720W        W70881  16.320  21.540  12.931
 5721W        W70882  20.818  42.849  11.863
 5722W        W70883  18.319  20.732   1.167
 5723W        W70884  44.019  38.811   1.762
 5724W        W70885  29.717  42.267  13.092
 5725W        W70886  44.480  11.159   3.189
 5726W        W70887  20.835  41.519   1.084
 5727W        W70888  30.324  30.597  11.553
 5728W        W70889  31.173   7.220   4.142
 5729W        W70890  27.978  28.711  12.049
 5730W        W70891  44.272  35.608   4.161
 5731W        W70892  26.278  23.450   5.391
 5732W        W70893  40.664   9.572   2.607
 5733W        W70894   1.795  34.037   4.502
 5734W        W70895  28.173  27.453  11.621
 5735W        W70896  34.274   2.310  14.394
 5736W        W70897  36.587  13.137  12.408
 5737W        W70898  32.434   9.611   2.098
 5738W        W70899  31.665  42.840   2.260
 5739W        W70900  32.374  10.719  10.696
 5740W        W70901  32.637  42.578  11.007
 5741W        W70902  21.028  18.043   1.456
 5742W        W70903  17.234  31.988  10.200
 5743W        W70904  37.014   6.723   3.398
 5744W        W70905   4.181  16.915   3.685
 5745W        W70906   4.423   6.616  12.666
 5746W        W70907  41.539  30.111   1.319
 5747W        W70908  42.887  30.135   0.843
 5748W        W70909  29.667  24.411  12.373
 5749W        W70910  41.468  22.293   1.669
 5750W        W70911  12.138  23.792  14.959
 5751W        W70912  39.590  15.457   1.463
 5752W        W70913  34.140  29.421   2.284
 5753W        W70914  37.794   4.389  12.403
 5754W        W70915  15.609   3.715  12.974
 5755W        W70916  17.634  38.422  11.123
 5756W        W70917  35.206  38.507   0.369
 5757W        W70918  12.173  23.307  13.231
 5758W        W70919  28.231  29.664  13.883
 5759W        W70920   0.766  17.372  11.109
 5760W        W70921  44.453  18.071  12.009
 5761W        W70922   0.252  13.080  11.992
 5762W        W70923  24.162  12.286   2.806
 5763W        W70924  40.050  11.080   0.430
 5764W        W70925   3.084  27.095   0.334
 5765W        W70926   4.096  11.850  12.366
 5766W        W70927  23.574  43.318   4.540
 5767W        W70928   1.408  32.549  11.490
 5768W        W70929   5.936  33.882  11.650
 5769W        W70930  22.181  34.572  12.946
 5770W        W70931  31.908  23.787  11.578
 5771W        W70932  26.637   8.666  11.938
 5772W        W70933  26.461  40.852  14.807
 5773W        W70934   7.196  28.466   4.304
 5774W        W70935   0.720  44.497  14.948
 5775W        W70936  34.120  42.787   0.927
 5776W        W70937   7.414   3.713   0.672
 5777W        W70938   6.297   0.725  13.838
 5778W        W70939  11.706  32.240   1.278
 5779W        W70940   7.399  29.109  11.603
 5780W        W70941  30.422  19.591  12.137
 5781W        W70942  38.947  13.089   3.373
 5782W        W70943  35.000  31.441  14.426
 5783W        W70944  20.737  35.621   4.356
 5784W        W70945  43.459  32.103   4.419
 5785W        W70946  11.207   8.670   3.664
 5786W        W70947  39.307  28.719  11.964
 5787W        W70948  42.082  27.281   3.293
 5788W        W70949  26.070   2.218   3.280
 5789W        W70950   6.536   7.353   4.845
 5790W        W70951  31.366  40.338  13.777
 5791W        W70952  44.258  44.901   0.534
 5792W        W70953  30.070  16.112   2.134
 5793W        W70954  44.477  15.600   2.506
 5794W        W70955  22.267  18.551  11.465
 5795W        W70956   5.328  17.546  12.576
 5796W        W70957  30.127  16.195   1.248
 5797W        W70958  32.061  30.717   2.262
 5798W        W70959  26.880  37.394  14.005
 5799W        W70960  23.277  36.785  12.175
 5800W        W70961   1.491  31.141   3.662
 5801W        W70962  20.268  13.784   3.334
 5802W        W70963  33.066   1.216  13.911
 5803W        W70964   0.805  32.866   0.325
 5804W        W70965  31.357  40.639   1.505
 5805W        W70966  11.217  41.801   1.790
 5806W        W70967   1.260   3.448   3.568
 5807W        W70968  27.932  40.409   4.584
 5808W        W70969  22.443   6.838   1.667
 5809W        W70970  41.366   5.568   3.575
 5810W        W70971  23.579  34.965  13.396
 5811W        W70972   2.476  29.960  11.307
 5812W        W70973   2.856   7.092  11.184
 5813W        W70974  15.638  33.934   4.238
 5814W        W70975  25.490  17.088   2.080
 5815W        W70976  13.566  20.569   2.945
 5816W        W70977   4.450  35.944   3.308
 5817W        W70978  25.150  13.133  14.781
 5818W        W70979   1.974   9.429   3.310
 5819W        W70980   0.736  24.521  10.517
 5820W        W70981  39.896   4.358  13.989
 5821W        W70982   6.278  23.291   1.570
 5822W        W70983  43.570  28.185  13.942
 5823W        W70984  22.733  13.087   4.570
 5824W        W70985  42.342  20.624  10.825
 5825W        W70986  43.085  28.053  14.010
 5826W        W70987  42.804   3.398   1.274
 5827W        W70988   3.795  19.719   2.928
 5828W        W70989  44.074  40.638   4.650
 5829W        W70990   0.263  24.119  13.404
 5830W        W70991  36.065  24.715   0.037
 5831W        W70992  22.065  42.766   4.000
 5832W        W70993   3.450  29.233  11.163
 5833W        W70994   6.319   3.782  13.612
 5834W        W70995  31.409  38.894   9.764
 5835W        W70996  27.531   6.680  12.918
 5836W        W70997  39.557  35.626  10.782
 5837W        W70998  12.693  22.698   4.499
 5838W        W70999  43.077  20.081   1.744
 5839W        W71000  36.640  43.514  12.575
 5840W        W71001   0.421  19.872   1.451
 5841W        W71002  39.837  20.777   4.554
 5842W        W71003  26.621  27.020   1.253
 5843W        W71004  27.418   4.858  12.058
 5844W        W71005   2.273  22.004   4.129
 5845W        W71006  27.020  21.942  13.875
 5846W        W71007  41.030  21.715  14.380
 5847W        W71008   0.326  30.660  13.061
 5848W        W71009  23.271   8.875   4.150
 5849W        W71010   3.430  29.154  14.857
 5850W        W71011  31.374  38.585   4.984
 5851W        W71012  31.548  18.319  12.797
 5852W        W71013  11.231  38.302   3.580
 5853W        W71014  14.577  39.037   3.967
 5854W        W71015  37.254  42.223   0.742
 5855W        W71016  25.324   1.478  11.561
 5856W        W71017  11.184   4.698  14.585
 5857W        W71018  41.852  20.746  12.083
 5858W        W71019  11.186   4.003   4.353
 5859W        W71020  29.402  32.084   1.904
 5860W        W71021  15.596  24.347  13.546
 5861W        W71022  20.498   3.484  13.947
 5862W        W71023  24.738  41.985   2.342
 5863W        W71024  17.342  21.832   3.387
 5864W        W71025  10.360  42.053  14.268
 5865W        W71026  14.027  33.827  12.955
 5866W        W71027   8.183  31.675   2.300
 5867W        W71028  12.616  21.967  14.920
 5868W        W71029  12.183  13.107   4.063
 5869W        W71030   2.388  26.344  10.498
 5870W        W71031  22.476  37.266  12.542
 5871W        W71032  23.854  12.597  12.979
 5872W        W71033  18.760   3.199   2.852
 5873W        W71034   9.010  14.913   3.681
 5874W        W71035   3.603  16.069  14.918
 5875W        W71036   8.436  42.867   3.054
 5876W        W71037  22.405   0.955  11.699
 5877W        W71038  24.591  32.919  12.067
 5878W        W71039  41.497  30.881   0.857
 5879W        W71040  21.600   3.310  12.183
 5880W        W71041  29.567  39.330  10.735
 5881W        W71042  19.103  28.124   2.767
 5882W        W71043  32.188  18.837   2.353
 5883W        W71044  14.715  38.889   2.128
 5884W        W71045  41.546  13.151  11.677
 5885W        W71046  14.302  18.114  11.662
 5886W        W71047  15.212  35.726  14.874
 5887W        W71048  35.616  15.051  11.610
 5888W        W71049  40.024  38.391  13.093
 5889W        W71050  25.042  11.448   1.951
 5890W        W71051  22.593  17.279  11.079
 5891W        W71052  34.525  27.547   2.607
 5892W        W71053  23.952  16.927   0.161
 5893W        W71054  17.402  16.117  12.765
 5894W        W71055   1.389  21.061  11.078
 5895W        W71056  13.582   1.426   2.560
 5896W        W71057  24.735  11.400  13.589
 5897W        W71058  36.328   4.880  13.861
 5898W        W71059  29.618  18.196   4.724
 5899W        W71060   2.879  13.887   0.371
 5900W        W71061   8.641  35.439   0.961
 5901W        W71062  32.622  33.299  14.494
 5902W        W71063   5.368  37.414  13.811
 5903W        W71064  22.541  12.342  14.419
 5904W        W71065  22.481  23.565   3.529
 5905W        W71066  12.671  28.517  14.592
 5906W        W71067  23.542  26.747  12.031
 5907W        W71068  44.825  14.675   3.071
 5908W        W71069  11.661  10.459   3.643
 5909W        W71070  23.411  20.079   0.678
 5910W        W71071  43.812   2.640  12.017
 5911W        W71072  35.861  14.399  12.085
 5912W        W71073  28.207  41.622  13.897
 5913W        W71074   8.559   8.306   4.613
 5914W        W71075  29.611  22.718  12.914
 5915W        W71076   7.617  38.148  14.357
 5916W        W71077  14.740   8.643   0.370
 5917W        W71078  37.577  18.034   1.350
 5918W        W71079  19.364   9.245   0.932
 5919W        W71080  17.302   4.878   2.836
 5920W        W71081  38.288  18.940  11.121
 5921W        W71082  19.829  42.777   0.861
 5922W        W71083  34.656  27.296  10.817
 5923W        W71084  13.059   7.690  12.109
 5924W        W71085  22.688  18.151  14.916
 5925W        W71086  28.676  22.068   4.270
 5926W        W71087  13.152   1.804   0.576
 5927W        W71088  14.671  43.799   1.470
 5928W        W71089  34.336  13.211   3.140
 5929W        W71090  35.035  12.224   0.734
 5930W        W71091  21.581  34.413   3.272
 5931W        W71092   0.568  16.092   4.143
 5932W        W71093   5.165  36.995  13.577
 5933W        W71094  39.864  39.533   3.100
 5934W        W71095  36.256  10.283  11.790
 5935W        W71096   2.072  39.492  10.464
 5936W        W71097  14.212  26.064   4.855
 5937W        W71098  33.268  32.104   2.804
 5938W        W71099   8.269  41.050  13.572
 5939W        W71100  27.576  19.054   3.003
 5940W        W71101  35.358  16.889  11.636
 5941W        W71102   2.234   2.168  10.472
 5942W        W71103   4.842  39.027   5.004
 5943W        W71104  37.051  44.557  12.349
 5944W        W71105  23.854  16.410  12.403
 5945W        W71106  32.586  35.105  14.817
 5946W        W71107  19.091  29.668  11.540
 5947W        W71108  37.315  23.067  13.887
 5948W        W71109  41.235  42.915   2.716
 5949W        W71110  12.855   6.279   0.023
 5950W        W71111   5.892   4.912   9.889
 5951W        W71112  25.175  29.331   3.670
 5952W        W71113  28.486  25.003   3.558
 5953W        W71114  41.549   9.233   4.190
 5954W        W71115  42.757   3.321  12.500
 5955W        W71116   5.458  10.378   2.079
 5956W        W71117   1.157  37.226  12.068
 5957W        W71118  17.348   2.899   0.404
 5958W        W71119  37.857  35.811  11.509
 5959W        W71120   9.381   3.508  11.624
 5960W        W71121  30.092  23.062  12.626
 5961W        W71122  14.223  35.444  14.865
 5962W        W71123  36.517  14.044   4.384
 5963W        W71124  25.114  29.427   1.699
 5964W        W71125  43.439   3.829  11.849
 5965W        W71126  17.853  13.768   3.428
 5966W        W71127   2.362  18.217   3.450
 5967W        W71128  37.511  30.927   2.467
 5968W        W71129  19.227   1.491   0.005
 5969W        W71130  28.610  38.247   3.027
 5970W        W71131  15.385  37.631  13.491
 5971W        W71132  17.822  36.204  12.009
 5972W        W71133  15.793  36.979  12.358
 5973W        W71134  15.745  37.052   1.245
 5974W        W71135  32.017   7.728  11.484
 5975W        W71136   9.706  34.360  11.520
 5976W        W71137  41.891  34.780   2.825
 5977W        W71138   0.417  40.850   4.597
 5978W        W71139  21.965   7.855  14.114
 5979W        W71140   3.524  23.636  14.804
 5980W        W71141  38.574  36.273  14.774
 5981W        W71142  41.593  13.310  13.956
 5982W        W71143  27.971  43.003   4.478
 5983W        W71144  32.998  12.389  14.901
 5984W        W71145  40.005   2.400  12.154
 5985W        W71146  32.155  26.776   2.580
 5986W        W71147  18.270  33.542  12.919
 5987W        W71148  25.674  36.847   5.146
 5988W        W71149  40.443  44.380  12.176
 5989W        W71150  39.316  38.094   3.024
 5990W        W71151  28.473  41.985   0.543
 5991W        W71152  39.789  27.042  11.182
 5992W        W71153  30.922  17.238   3.191
 5993W        W71154   2.164   7.530   4.532
 5994W        W71155   2.301  26.257  13.122
 5995W        W71156  10.628  35.513  13.520
 5996W        W71157  18.570  27.258   2.599
 5997W        W71158  17.610  18.618  13.347
 5998W        W71159   4.643   3.175  12.568
 5999W        W71160  33.099  11.758   4.369
 6000W        W71161  43.408  19.939  11.171
 6001W        W71162  34.585  41.591  13.181
 6002W        W71163  15.769   1.501   4.298
 6003W        W71164  16.060  30.040  12.558
 6004W        W71165  35.011   4.074   2.282
 6005W        W71166  21.258  44.256  14.891
 6006W        W71167  26.401  17.638  13.973
 6007W        W71168   6.175  25.074   0.767
 6008W        W71169   3.827  30.510   4.149
 6009W        W71170  22.164   0.500  11.582
 6010W        W71171   1.103  19.563  11.608
 6011W        W71172   7.208  12.274  11.614
 6012W        W71173  43.914  34.442  10.546
 6013W        W71174  42.588  42.871  10.998
 6014W        W71175  31.527   9.336   2.309
 6015W        W71176  23.387  39.633  11.623
 6016W        W71177  14.659  29.444   0.937
 6017W        W71178  35.860   1.918  14.382
 6018W        W71179  11.084   4.354  12.297
 6019W        W71180  26.023   9.815   3.590
 6020W        W71181   5.459  29.713  14.398
 6021W        W71182  44.131  20.088   0.548
 6022W        W71183  37.462  12.911  12.402
 6023W        W71184  26.504  14.017  11.592
 6024W        W71185  11.975  23.172   1.107
 6025W        W71186  22.598  41.936  10.219
 6026W        W71187  23.093  24.489   4.092
 6027W        W71188  40.853  35.867   2.401
 6028W        W71189  27.092  31.470   1.680
 6029W        W71190  27.983   8.898  12.872
 6030W        W71191  13.329  37.833   4.163
 6031W        W71192   4.802  41.040  10.591
 6032W        W71193   9.931  32.973  12.651
 6033W        W71194  39.901  14.615  10.612
 6034W        W71195  30.124  21.721   1.285
 6035W        W71196  19.007  31.921   1.942
 6036W        W71197  26.075   6.441  13.976
 6037W        W71198   5.866  12.380   3.647
 6038W        W71199  37.653   8.757   1.378
 6039W        W71200  18.710   1.221   3.130
 6040W        W71201  15.838  23.607  11.070
 6041W        W71202  16.757   4.411  12.196
 6042W        W71203  40.462  22.681  14.808
 6043W        W71204  41.052  17.642  14.244
 6044W        W71205  19.418  42.357   2.571
 6045W        W71206  36.362   2.143   1.127
 6046W        W71207  11.932  22.047   3.723
 6047W        W71208  39.555  35.511  13.355
 6048W        W71209  43.251  23.770   1.792
 6049W        W71210  26.073   1.448   3.770
 6050W        W71211  27.710  33.033   3.869
 6051W        W71212  32.390  42.934   5.013
 6052W        W71213  31.387  28.247   4.354
 6053W        W71214  10.724   4.266  11.720
 6054W        W71215   9.865  12.895   0.798
 6055W        W71216   2.261   6.427  14.923
 6056W        W71217  23.469  19.931  13.522
 6057W        W71218  29.867  11.757  10.390
 6058W        W71219  28.581  44.400  14.927
 6059W        W71220  17.170  12.390  11.199
 6060W        W71221  21.970  43.852  13.966
 6061W        W71222   6.688  34.660   0.459
 6062W        W71223  44.995   5.460  12.535
 6063W        W71224  38.950  22.568  11.960
 6064W        W71225  26.541  24.962   2.710
 6065W        W71226  21.506  44.559  12.037
 6066W        W71227   3.499  25.055   1.830
 6067W        W71228  29.189  40.868   1.893
 6068W        W71229  28.016  31.888   3.193
 6069W        W71230  10.793   6.167  12.938
 6070W        W71231  35.442  36.461  10.414
 6071W        W71232  13.469  13.814   4.626
 6072W        W71233  34.500  31.460   1.244
 6073W        W71234  27.503  14.151  14.984
 6074W        W71235  40.922   0.784   4.137
 6075W        W71236  23.164  31.809   3.953
 6076W        W71237  30.969  38.662   9.876
 6077W        W71238  18.542  27.409  13.378
 6078W        W71239  30.884  37.957  11.610
 6079W        W71240  19.280  23.765   1.833
 6080W        W71241  12.684  33.660  13.960
 6081W        W71242  33.052  22.659  13.576
 6082W        W71243  17.668  40.176  14.106
 6083W        W71244   9.358  40.067   3.381
 6084W        W71245   0.885  33.648  13.357
 6085W        W71246   6.268  34.450  13.302
 6086W        W71247  31.956  26.698   1.580
 6087W        W71248  17.326  19.626  11.474
 6088W        W71249  43.460  13.864  13.547
 6089W        W71250  30.039  42.825  10.611
 6090W        W71251  41.728  14.587  11.678
 6091W        W71252   8.912  44.355  14.338
 6092W        W71253  40.517  39.298  12.923
 6093W        W71254  37.574  27.542   3.170
 6094W        W71255  13.994   6.359  12.884
 6095W        W71256   8.144  37.342   0.434
 6096W        W71257   5.136  44.427   4.434
 6097W        W71258   5.270  22.660   1.956
 6098W        W71259   6.410  13.219   2.135
 6099W        W71260   5.232  17.043  13.434
 6100W        W71261  17.129  25.066  14.461
 6101W        W71262  41.924  21.590   4.568
 6102W        W71263  10.189  32.318   5.017
 6103W        W71264  34.569  26.802  11.009
 6104W        W71265  27.504  33.603  14.899
 6105W        W71266  16.720   4.529   0.046
 6106W        W71267  17.210  13.542   2.864
 6107W        W71268  33.568   1.707  10.610
 6108W        W71269  28.062  10.142   0.863
 6109W        W71270   6.676  19.148   2.247
 6110W        W71271   8.424   3.191   3.351
 6111W        W71272   8.145  35.076  12.425
 6112W        W71273   5.417  17.517   3.009
 6113W        W71274  17.706  17.656   2.438
 6114W        W71275  28.930  12.346  11.158
 6115W        W71276  25.271  38.349  13.130
 6116W        W71277  29.109  43.468   1.250
 6117W        W71278  35.448  37.215   0.726
 6118W        W71279  42.114  44.824  14.219
 6119W        W71280  33.504  38.488   3.545
 6120W        W71281  25.495  42.037  13.624
 6121W        W71282  18.760  26.402  12.057
 6122W        W71283  13.350  42.433   1.595
 6123W        W71284  18.777   5.176   0.277
 6124W        W71285   0.184   3.836   2.130
 6125W        W71286   3.889  27.226   2.250
 6126W        W71287   2.969  20.719  13.498
 6127W        W71288  44.164  23.364  14.581
 6128W        W71289  15.217  37.565   4.491
 6129W        W71290  18.801   7.626   1.812
 6130W        W71291  41.278  24.488  12.187
 6131W        W71292  32.576   1.053  13.738
 6132W        W71293  26.413  22.233  10.294
 6133W        W71294  28.018  43.211   2.770
 6134W        W71295  10.770  24.157  10.688
 6135W        W71296  19.639  21.491   3.134
 6136W        W71297  35.666  26.699   4.007
 6137W        W71298  38.919  33.676  14.962
 6138W        W71299  37.297  17.270   5.235
 6139W        W71300  40.284  34.979  14.316
 6140W        W71301  20.724  41.123  12.570
 6141W        W71302   4.384   7.671   0.917
 6142W        W71303  21.638  40.428   4.532
 6143W        W71304  36.852  10.499  12.972
 6144W        W71305   4.544  18.727  13.192
 6145W        W71306  17.731   7.477   3.860
 6146W        W71307  41.897  33.524   4.167
 6147W        W71308  28.951  29.559   2.316
 6148W        W71309  27.687   8.183   2.320
 6149W        W71310  14.948  39.414  10.450
 6150W        W71311  33.962  27.019   2.783
 6151W        W71312  17.390  13.748  14.221
 6152W        W71313  27.190  15.809   3.710
 6153W        W71314  17.954  35.245   3.672
 6154W        W71315  22.734  16.125  13.499
 6155W        W71316  44.474  40.224  14.482
 6156W        W71317  18.155  21.259   2.345
 6157W        W71318  29.432  37.126  12.066
 6158W        W71319  37.535  44.961  14.418
 6159W        W71320  26.191   9.278  11.504
 6160W        W71321   7.366  28.415  13.054
 6161W        W71322  10.434  12.660  13.605
 6162W        W71323  22.631  17.773  12.330
 6163W        W71324  25.656   0.497  10.642
 6164W        W71325  44.015  38.494  14.773
 6165W        W71326  18.701   9.542   4.576
 6166W        W71327  22.288  10.265  12.075
 6167W        W71328  14.917   3.173   4.143
 6168W        W71329  18.027  20.766  13.859
 6169W        W71330  28.229  40.437   4.163
 6170W        W71331   5.294  28.072   2.238
 6171W        W71332  12.400  27.958  12.497
 6172W        W71333  11.725  21.059   2.147
 6173W        W71334  30.036   6.228   3.832
 6174W        W71335   3.294  40.512   3.371
 6175W        W71336   6.532  16.703   3.362
 6176W        W71337  41.247  43.974  14.113
 6177W        W71338  26.136  39.783   3.422
 6178W        W71339  22.379  20.978   2.350
 6179W        W71340   2.447  38.082   2.728
 6180W        W71341  12.960  43.226  11.198
 6181W        W71342  36.810  15.146  11.179
 6182W        W71343  17.797   5.179  12.153
 6183W        W71344  30.870   3.180  14.325
 6184W        W71345   4.145   4.418   2.643
 6185W        W71346  10.793  21.321  12.556
 6186W        W71347   1.020  42.846   3.316
 6187W        W71348  11.693  36.863  11.379
 6188W        W71349  40.594  36.552  13.810
 6189W        W71350  21.059  36.934   4.458
 6190W        W71351  29.164  11.909  12.016
 6191W        W71352  17.551  11.198  11.595
 6192W        W71353  20.996  13.477   3.630
 6193W        W71354  30.289  36.645   2.884
 6194W        W71355  12.204  28.493  14.327
 6195W        W71356  42.019  23.605   4.085
 6196W        W71357  13.617  13.201   0.349
 6197W        W71358  32.167  40.438  13.380
 6198W        W71359  23.739  26.851   0.842
 6199W        W71360   3.475  12.506  14.455
 6200W        W71361  33.996  18.535   3.635
 6201W        W71362  16.105   6.412  13.773
 6202W        W71363  34.626  41.411   1.658
 6203W        W71364   8.420  31.520  11.092
 6204W        W71365  11.298  37.087  13.620
 6205W        W71366  44.687   6.217   4.059
 6206W        W71367  35.624  20.618  14.321
 6207W        W71368  15.640  42.942  13.780
 6208W        W71369  36.512  40.952  14.802
 6209W        W71370  27.227  15.809   2.165
 6210W        W71371  20.277  42.971   2.816
 6211W        W71372  37.593  18.257   0.363
 6212W        W71373   3.198  29.555  10.720
 6213W        W71374   7.681  26.202  13.892
 6214W        W71375   4.845   0.919  14.757
 6215W        W71376   0.274   3.482  12.010
 6216W        W71377  10.630  41.955  10.439
 6217W        W71378  41.230  41.354  10.587
 6218W        W71379  38.307  24.194   1.928
 6219W        W71380  16.231  43.763   4.122
 6220W        W71381  24.235  42.560  12.511
 6221W        W71382  40.040  22.111  12.471
 6222W        W71383  36.868  12.221  12.598
 6223W        W71384  23.639  24.452   4.595
 6224W        W71385  43.534   7.840   2.674
 6225W        W71386  30.142  29.543   2.800
 6226W        W71387  30.454  36.024   1.692
 6227W        W71388  25.272  17.289  13.375
 6228W        W71389  31.537  24.906  13.646
 6229W        W71390   4.219  31.983  10.724
 6230W        W71391  43.120  14.111   0.958
 6231W        W71392  40.998  11.117   1.763
 6232W        W71393  18.689  20.481  11.246
 6233W        W71394  23.052  26.485   1.376
 6234W        W71395  41.845  12.089   4.933
 6235W        W71396  21.531  40.259  14.832
 6236W        W71397  44.243  24.491   4.632
 6237W        W71398   0.295   5.737   4.606
 6238W        W71399  12.989  13.447  13.665
 6239W        W71400  23.519  37.139   1.368
 6240W        W71401   2.621  40.437  14.691
 6241W        W71402  13.208  31.145  11.673
 6242W        W71403  44.253   2.785   3.880
 6243W        W71404  12.979  23.439  11.613
 6244W        W71405   7.254  25.478  12.129
 6245W        W71406  32.727  38.494  13.635
 6246W        W71407  39.990  12.615  11.167
 6247W        W71408   3.365  40.330   2.439
 6248W        W71409  29.540  14.052   5.046
 6249W        W71410  20.836   9.450   3.210
 6250W        W71411  35.487  22.206  11.188
 6251W        W71412  14.154  31.700  12.618
 6252W        W71413  16.877  30.619  10.669
 6253W        W71414  26.090  13.320   4.998
 6254W        W71415  22.485   0.007   3.161
 6255W        W71416  32.171  22.021  10.981
 6256W        W71417   7.384  30.334   1.360
 6257W        W71418  17.595   9.201  13.453
 6258W        W71419  10.739  43.899   1.452
 6259W        W71420  16.548  25.687   0.820
 6260W        W71421   8.194  15.063   1.484
 6261W        W71422  17.913  18.180  13.349
 6262W        W71423  27.502  28.044   0.545
 6263W        W71424  21.963  17.989   3.170
 6264W        W71425   9.678  29.549   4.891
 6265W        W71426  31.346  38.202  10.300
 6266W        W71427   0.382  31.487  12.426
 6267W        W71428   1.308   8.651  13.704
 6268W        W71429  33.697  38.420  11.669
 6269W        W71430  20.527  33.022   2.471
 6270W        W71431  21.858   8.796  11.632
 6271W        W71432  28.596  26.675  11.527
 6272W        W71433   5.716  29.416  14.853
 6273W        W71434  17.433  11.435   3.178
 6274W        W71435   5.213  41.502   4.057
 6275W        W71436  37.937  34.235  14.794
 6276W        W71437  22.695  11.248  10.800
 6277W        W71438  36.488   1.028   1.879
 6278W        W71439  21.606  43.743   2.158
 6279W        W71440  29.592  17.335   2.574
 6280W        W71441  16.061  33.903   4.582
 6281W        W71442   6.834   2.699   1.445
 6282W        W71443  38.737  37.516   0.912
 6283W        W71444   5.293  39.873   2.602
 6284W        W71445  22.563  20.801   4.100
 6285W        W71446  32.639  10.250  11.404
 6286W        W71447  26.538  42.738   3.903
 6287W        W71448  12.170   1.876  11.609
 6288W        W71449  30.011  36.512   4.180
 6289W        W71450   8.734  21.998  11.428
 6290W        W71451  39.389  36.348  12.944
 6291W        W71452  44.306   6.673   1.418
 6292W        W71453  11.006  17.754   2.221
 6293W        W71454  43.383  11.858   4.050
 6294W        W71455  28.898  13.471   0.047
 6295W        W71456  22.216  44.598  12.322
 6296W        W71457  26.697  24.451  12.103
 6297W        W71458  44.945  27.485   3.708
 6298W        W71459  30.684  36.080   4.107
 6299W        W71460   7.928  24.642  10.655
 6300W        W71461  10.772  41.835  12.494
 6301W        W71462  40.638   6.414  11.455
 6302W        W71463  34.135  38.532  13.874
 6303W        W71464  19.802  29.976  13.564
 6304W        W71465  35.813  38.558  14.386
 6305W        W71466  35.492  17.757  10.637
 6306W        W71467  39.532  21.662  12.125
 6307W        W71468  44.080  39.963  13.813
 6308W        W71469   4.761  21.132  12.481
 6309W        W71470  32.012   1.496  14.487
 6310W        W71471   3.507  26.420  12.922
 6311W        W71472  22.012   9.311   3.754
 6312W        W71473  32.051  16.567   3.267
 6313W        W71474  19.696  27.428  11.993
 6314W        W71475  26.736   0.489  14.520
 6315W        W71476   0.112  32.124  11.075
 6316W        W71477  41.384  37.990  12.104
 6317W        W71478  33.144  30.931   3.900
 6318W        W71479  17.453  32.587  14.167
 6319W        W71480  34.486  36.828   4.818
 6320W        W71481  14.311  24.603   1.145
 6321W        W71482  16.524  37.017   2.816
 6322W        W71483  13.575  10.324  14.523
 6323W        W71484  28.157   0.085   3.816
 6324W        W71485  10.464  29.184   4.811
 6325W        W71486  23.112  20.340  13.246
 6326W        W71487  41.763  15.812   2.628
 6327W        W71488  17.159  39.015  14.919
 6328W        W71489  15.814  42.477  12.559
 6329W        W71490  26.719   7.784   1.726
 6330W        W71491  22.533   3.117   1.124
 6331W        W71492   7.130  29.691   1.033
 6332W        W71493  44.928  34.965   1.415
 6333W        W71494  38.012  42.422   2.418
 6334W        W71495   0.538   5.484  14.934
 6335W        W71496  26.388  26.746   2.610
 6336W        W71497   1.213  41.577  13.647
 6337W        W71498  31.943   6.063   5.255
 6338W        W71499  33.336  24.761  11.635
 6339W        W71500   1.404  32.695   4.531
 6340W        W71501  14.048  35.573  13.324
 6341W        W71502  38.960  27.154   1.304
 6342W        W71503  17.138   0.400  10.243
 6343W        W71504   2.782  25.411   1.885
 6344W        W71505  36.523  17.795   3.260
 6345W        W71506  32.522   3.915  13.400
 6346W        W71507  24.223  11.243  14.478
 6347W        W71508  34.992   0.393   9.916
 6348W        W71509  19.944  35.527  11.350
 6349W        W71510   1.054  11.767   9.866
 6350W        W71511  33.883   6.281  10.822
 6351W        W71512  21.816  17.100   2.961
 6352W        W71513  14.541  36.916   0.968
 6353W        W71514  17.091   7.895   3.635
 6354W        W71515  13.142  16.793   3.015
 6355W        W71516  22.568   9.184   4.606
 6356W        W71517  42.256  20.134   3.801
 6357W        W71518   6.377  10.099  13.573
 6358W        W71519  42.236  30.115  14.409
 6359W        W71520  32.620  43.492  14.401
 6360W        W71521  14.643  32.119   0.873
 6361W        W71522  18.191  25.913  10.804
 6362W        W71523  25.731  30.490   2.724
 6363W        W71524   3.226  20.816   3.237
 6364W        W71525  13.340   8.656   2.167
 6365W        W71526  37.536  15.666   1.915
 6366W        W71527  33.982  17.353   0.045
 6367W        W71528  29.987  15.880   1.678
 6368W        W71529  38.312   7.582  12.489
 6369W        W71530  26.536   6.161   2.943
 6370W        W71531  26.755   4.186   1.830
 6371W        W71532  28.178  11.816  12.840
 6372W        W71533  29.711  40.748   1.081
 6373W        W71534  18.093  14.178   0.035
 6374W        W71535   1.171  41.524  13.121
 6375W        W71536  39.806  29.496   3.357
 6376W        W71537  44.349   2.041  12.522
 6377W        W71538  22.126  12.752  12.059
 6378W        W71539  25.111  37.394  10.276
 6379W        W71540  25.957  37.330   1.766
 6380W        W71541  19.052  15.073  10.234
 6381W        W71542  38.173  28.902  10.745
 6382W        W71543  44.357   1.684   1.696
 6383W        W71544  25.631  37.533  13.084
 6384W        W71545  20.004   2.830   3.135
 6385W        W71546  27.708  33.569   2.122
 6386W        W71547  19.158  30.204  10.496
 6387W        W71548  25.618  11.592  11.645
 6388W        W71549  37.882  39.296   3.499
 6389W        W71550  42.839  26.763  12.090
 6390W        W71551   1.170  16.191  11.530
 6391W        W71552  31.083   5.888   1.210
 6392W        W71553  42.459  29.751   1.907
 6393W        W71554   7.585   7.040   3.979
 6394W        W71555  15.770  25.670  11.577
 6395W        W71556   1.336  10.255  11.464
 6396W        W71557   0.175  28.423  11.412
 6397W        W71558   5.921  25.100  10.619
 6398W        W71559  15.524  41.996   0.496
 6399W        W71560  11.051  12.123  14.881
 6400W        W71561  29.359  29.705   1.403
 6401W        W71562   3.162   2.337  10.912
 6402W        W71563  26.464  34.127  13.273
 6403W        W71564  42.644  20.496  11.220
 6404W        W71565  26.635   4.660   4.973
 6405W        W71566  42.053  30.138   2.895
 6406W        W71567  25.166   4.600  11.215
 6407W        W71568  25.997   8.750  14.130
 6408W        W71569  23.642  29.149   3.435
 6409W        W71570  31.575  22.693  13.944
 6410W        W71571  16.678  23.042   3.896
 6411W        W71572  42.125  38.332   4.157
 6412W        W71573  38.415  27.965   2.147
 6413W        W71574  42.860  24.610  12.835
 6414W        W71575  26.046   2.721  13.172
 6415W        W71576  25.018  36.674  12.665
 6416W        W71577   6.248  42.822   0.842
 6417W        W71578   3.280  17.535  14.082
 6418W        W71579  31.196  16.734  10.603
 6419W        W71580  14.715  25.176  14.264
 6420W        W71581  31.100   2.299   4.531
 6421W        W71582   6.212  37.152   2.227
 6422W        W71583  25.569  32.287   2.759
 6423W        W71584   1.808  17.087   2.703
 6424W        W71585   4.701  26.657  14.753
 6425W        W71586  29.968  31.640  12.049
 6426W        W71587  40.823  42.436   4.124
 6427W        W71588  19.742  26.179  14.041
 6428W        W71589   3.918   5.119   3.709
 6429W        W71590  11.229  25.515  13.410
 6430W        W71591   2.692  16.127  13.023
 6431W        W71592  37.403   4.791  10.691
 6432W        W71593  38.739  23.552   4.628
 6433W        W71594  17.249  44.036  14.450
 6434W        W71595  37.916  32.304   0.352
 6435W        W71596  39.725   0.101  14.919
 6436W        W71597  44.481  20.238  10.874
 6437W        W71598  19.166  35.465   0.035
 6438W        W71599  27.681  39.498   3.699
 6439W        W71600  26.558  38.364  13.622
 6440W        W71601  13.073   5.127  12.378
 6441W        W71602  28.392  26.269  10.754
 6442W        W71603  23.679  18.666  13.575
 6443W        W71604  24.088  19.811  14.923
 6444W        W71605  25.593  10.661  12.125
 6445W        W71606   7.818  26.048   1.711
 6446W        W71607  12.665  41.951  14.683
 6447W        W71608  23.558   1.203  12.079
 6448W        W71609  41.982  21.708  11.151
 6449W        W71610  23.507  41.315  12.864
 6450W        W71611   5.790  43.854  13.606
 6451W        W71612   2.336   4.894   4.944
 6452W        W71613  43.945   2.018  10.753
 6453W        W71614  23.493  16.694   4.721
 6454W        W71615  41.543   9.319   3.073
 6455W        W71616   1.472   2.395  13.514
 6456W        W71617  20.877  32.525   1.796
 6457W        W71618  25.599  26.948   4.146
 6458W        W71619  30.948  41.501   4.086
 6459W        W71620  38.368  44.181   3.378
 6460W        W71621  44.993  38.574  11.871
 6461W        W71622   3.846  23.031  12.107
 6462W        W71623  20.764   8.507   2.317
 6463W        W71624  30.545  39.945  12.146
 6464W        W71625  24.682  27.468   3.138
 6465W        W71626  40.412   6.680  10.402
 6466W        W71627  19.970  23.408  10.136
 6467W        W71628  15.949  18.104   1.307
 6468W        W71629   0.906   3.808   3.675
 6469W        W71630  15.302  33.918   0.193
 6470W        W71631  19.575  38.802   3.163
 6471W        W71632  14.510  25.506   0.774
 6472W        W71633  24.365   9.768  12.113
 6473W        W71634  42.403  24.099   4.135
 6474W        W71635  11.221  21.191   0.738
 6475W        W71636  43.942  39.809   1.421
 6476W        W71637  18.553  32.657  11.161
 6477W        W71638  11.579  19.511   3.591
 6478W        W71639  34.855  36.991  11.499
 6479W        W71640   5.762  12.680  14.911
 6480W        W71641  39.886   2.733   1.373
 6481W        W71642  25.500  16.789   1.668
 6482W        W71643  33.388  43.223  11.970
 6483W        W71644  35.012   2.371   0.029
 6484W        W71645  15.642  25.924  11.134
 6485W        W71646   0.305  36.685   0.763
 6486W        W71647  36.560  19.523   1.663
 6487W        W71648  11.673  34.921   1.933
 6488W        W71649  34.958  34.662   0.924
 6489W        W71650  26.655  41.496   3.075
 6490W        W71651   7.117  16.170   2.211
 6491W        W71652  31.363  43.714   3.645
 6492W        W71653  36.401   2.707  10.733
 6493W        W71654  15.823  42.415  13.465
 6494W        W71655  36.666  38.853   3.262
 6495W        W71656  42.799  12.628  10.735
 6496W        W71657  28.149  44.792  10.577
 6497W        W71658  15.274  23.021  13.636
 6498W        W71659  35.985   7.207   2.941
 6499W        W71660  26.964  39.992  11.628
 6500W        W71661  12.594   0.402   4.595
 6501W        W71662  34.920  28.290   0.809
 6502W        W71663  35.128  11.975   3.204
 6503W        W71664   3.425  39.316   0.880
 6504W        W71665  34.549  30.947   2.617
 6505W        W71666  29.638  32.294  14.920
 6506W        W71667  25.005  26.413  11.168
 6507W        W71668  29.404  33.073   2.797
 6508W        W71669  38.946  16.022  12.427
 6509W        W71670  29.861   6.864   4.585
 6510W        W71671   9.051  42.377  12.430
 6511W        W71672  15.644  19.106   0.936
 6512W        W71673  43.819  20.131   4.762
 6513W        W71674  32.114  34.765   5.065
 6514W        W71675   0.308  25.020   0.486
 6515W        W71676  41.919  32.450   2.159
 6516W        W71677  19.631  24.684   3.808
 6517W        W71678  29.730  29.096   2.308
 6518W        W71679  19.217  26.673  12.027
 6519W        W71680  12.859  24.427   4.585
 6520W        W71681  19.205  28.253   3.250
 6521W        W71682  11.797  20.576   4.482
 6522W        W71683   1.973  31.494   2.962
 6523W        W71684  23.958  43.819   4.542
 6524W        W71685  28.281   7.129   1.411
 6525W        W71686  44.952  43.615  13.490
 6526W        W71687  35.751  26.203   4.215
 6527W        W71688  37.299  13.882   2.347
 6528W        W71689  42.865  24.596  10.698
 6529W        W71690  25.076  33.621   3.083
 6530W        W71691  28.671  34.834   3.615
 6531W        W71692   4.743  30.348  11.579
 6532W        W71693  21.045   5.882  12.396
 6533W        W71694  41.354  35.400   0.423
 6534W        W71695  22.099  44.383  12.769
 6535W        W71696  26.788  43.852   3.182
 6536W        W71697  15.707  15.014   4.023
 6537W        W71698  29.203   3.717   4.862
 6538W        W71699  27.543  19.997   4.836
 6539W        W71700  21.148  27.002  13.776
 6540W        W71701  34.665  31.677   2.444
 6541W        W71702   4.107   5.229  14.324
 6542W        W71703  38.533  42.222  14.881
 6543W        W71704  12.137  15.107  12.475
 6544W        W71705   8.833  16.049  11.366
 6545W        W71706   6.327  13.342  11.620
 6546W        W71707  23.713   1.313  11.129
 6547W        W71708  28.629  16.400  11.130
 6548W        W71709  44.798  12.310  11.918
 6549W        W71710   7.886  10.173   0.689
 6550W        W71711  17.618  43.894   1.218
 6551W        W71712   2.473  35.995  10.282
 6552W        W71713  20.046  21.668  14.440
 6553W        W71714  11.392  27.051  11.136
 6554W        W71715  25.902  38.746   1.246
 6555W        W71716  31.065  35.966  14.273
 6556W        W71717  40.847  15.886  14.545
 6557W        W71718   5.032  26.628   1.571
 6558W        W71719  17.177   2.213   0.784
 6559W        W71720  18.763  22.549  14.075
 6560W        W71721  29.569  30.774   1.922
 6561W        W71722   7.287  35.113  12.489
 6562W        W71723  38.043  14.131   2.225
 6563W        W71724   3.149  41.788  11.121
 6564W        W71725  17.564   1.165  11.427
 6565W        W71726  24.112  24.073  13.139
 6566W        W71727   0.393   6.431  11.185
 6567W        W71728  41.866  28.504  14.936
 6568W        W71729  26.187   0.223   0.335
 6569W        W71730  20.588  44.798   4.620
 6570W        W71731  32.933  43.058   1.805
 6571W        W71732  41.122   1.528   0.476
 6572W        W71733  11.640  34.546  11.625
 6573W        W71734  28.529  26.266   4.100
 6574W        W71735   8.653  24.544  13.401
 6575W        W71736  32.919  12.583  14.335
 6576W        W71737   0.521  31.156  11.140
 6577W        W71738  37.733  37.172  12.043
 6578W        W71739   3.548   7.239   3.166
 6579W        W71740  15.136   3.895  13.086
 6580W        W71741  26.786  42.089  12.129
 6581W        W71742  10.161   4.823   4.090
 6582W        W71743  18.977   1.997  13.901
 6583W        W71744   6.132  41.271  10.784
 6584W        W71745   8.456  25.131   1.389
 6585W        W71746   4.917   8.770   4.732
 6586W        W71747  18.142  28.103  14.571
 6587W        W71748  36.754  22.212   0.474
 6588W        W71749   4.390   4.456  10.965
 6589W        W71750   1.047   1.836  10.695
 6590W        W71751  38.362   3.243   2.369
 6591W        W71752  21.340  24.009  12.924
 6592W        W71753  26.566  36.884   0.017
 6593W        W71754  31.937   0.784   3.283
 6594W        W71755  37.566   6.131  11.084
 6595W        W71756  30.161  15.029   2.276
 6596W        W71757   2.664  35.592  13.059
 6597W        W71758  26.581   7.377  11.637
 6598W        W71759  33.996   8.874   0.804
 6599W        W71760  37.825  26.211   0.870
 6600W        W71761  39.728  39.998   3.334
 6601W        W71762  15.079  36.295   3.886
 6602W        W71763  21.668  41.667  10.630
 6603W        W71764  28.671  37.321  10.264
 6604W        W71765  33.158   1.829   2.161
 6605W        W71766  38.959  25.305   0.695
 6606W        W71767  13.086  34.460   3.606
 6607W        W71768   0.290   0.875   3.131
 6608W        W71769  39.858   2.225  13.325
 6609W        W71770  44.439  29.670   2.871
 6610W        W71771  31.609  19.059   4.010
 6611W        W71772  39.752  16.356   4.087
 6612W        W71773  27.801  15.916  10.239
 6613W        W71774  36.559  38.009   3.717
 6614W        W71775  32.890  43.049   2.724
 6615W        W71776  43.588  40.578  13.412
 6616W        W71777  16.574  42.885   4.960
 6617W        W71778  28.408   8.271  13.600
 6618W        W71779  14.583   3.372   0.846
 6619W        W71780  13.341  10.236  12.895
 6620W        W71781  22.065  38.261  10.616
 6621W        W71782  31.397  14.059  12.328
 6622W        W71783   0.829   8.145   4.575
 6623W        W71784  11.585  21.698  14.566
 6624W        W71785  33.038  43.907   0.013
 6625W        W71786  22.470   1.391  11.985
 6626W        W71787  31.561  37.301  13.825
 6627W        W71788  28.694   4.161   4.175
 6628W        W71789  22.775  18.420   3.566
 6629W        W71790  20.363   8.244  10.775
 6630W        W71791  38.294  43.863  11.043
 6631W        W71792  24.414  24.221  11.196
 6632W        W71793  25.094  33.034   4.162
 6633W        W71794  44.510  44.020   0.470
 6634W        W71795  33.381  41.255   2.833
 6635W        W71796   9.861   0.850   3.433
 6636W        W71797  15.683  26.723  11.501
 6637W        W71798  10.213  36.632   0.499
 6638W        W71799  41.861   3.269   3.130
 6639W        W71800  10.212  31.701  13.446
 6640W        W71801  15.423  17.660   1.860
 6641W        W71802  14.078  30.056  14.411
 6642W        W71803  19.802  19.536  14.071
 6643W        W71804  29.080  41.261  14.939
 6644W        W71805  42.556  27.539  12.487
 6645W        W71806  25.100  36.312   0.874
 6646W        W71807   6.905   4.756   3.572
 6647W        W71808  38.477  43.753  14.841
 6648W        W71809   9.126  27.458   2.793
 6649W        W71810   7.784  17.513  10.766
 6650W        W71811   3.918   7.255  11.647
 6651W        W71812  43.746  25.724  11.617
 6652W        W71813  25.228  10.921  14.040
 6653W        W71814   2.505   5.922   2.810
 6654W        W71815  19.300   0.370   0.307
 6655W        W71816  20.583   6.865  10.770
 6656W        W71817  40.454   9.634  14.420
 6657W        W71818  20.590  34.390  13.350
 6658W        W71819   9.263  17.387  14.488
 6659W        W71820  41.976  21.530  12.538
 6660W        W71821  34.318   9.857  12.940
 6661W        W71822  28.891  28.196   1.743
 6662W        W71823  44.424  39.764   4.732
 6663W        W71824  16.791  39.850   3.567
 6664W        W71825   5.241  31.890  11.558
 6665W        W71826  26.232  22.630   3.730
 6666W        W71827  20.141   0.991  13.934
 6667W        W71828  14.425   3.750   2.138
 6668W        W71829  42.951  41.253  12.008
 6669W        W71830   1.196   4.345  12.597
 6670W        W71831  32.153  24.741  14.505
 6671W        W71832  38.461  28.419   2.378
 6672W        W71833   1.361  12.054   2.327
 6673W        W71834   0.408  31.190   1.662
 6674W        W71835  29.344  10.092   0.397
 6675W        W71836   3.867  10.073   3.638
 6676W        W71837  25.058  25.355  12.125
 6677W        W71838  26.512  36.344   4.199
 6678W        W71839  34.923  36.506   2.188
 6679W        W71840  40.899  35.678   0.380
 6680W        W71841  31.925  38.764   3.284
 6681W        W71842  22.964  40.397  12.412
 6682W        W71843  30.900  22.298  10.706
 6683W        W71844  24.215  30.417  11.236
 6684W        W71845   9.873  20.116   4.789
 6685W        W71846  43.631  26.183   4.676
 6686W        W71847   7.164  18.677   4.136
 6687W        W71848  29.807  18.883  12.058
 6688W        W71849  36.269   1.272   2.278
 6689W        W71850  22.973  12.123  11.175
 6690W        W71851   0.718  24.213  14.767
 6691W        W71852   1.449  35.819  12.857
 6692W        W71853   0.924  37.249  12.888
 6693W        W71854  16.804  10.671   3.323
 6694W        W71855  16.779   7.192   0.413
 6695W        W71856  29.426  18.517  13.315
 6696W        W71857   1.350  32.641  12.733
 6697W        W71858   2.126   1.458   0.765
 6698W        W71859  28.202  21.103   3.475
 6699W        W71860   0.377  18.079  12.283
 6700W        W71861  25.887   1.308   4.255
 6701W        W71862  35.020  43.878  11.059
 6702W        W71863  19.940   0.767  11.401
 6703W        W71864  10.906  37.902  11.104
 6704W        W71865  24.833  29.760  12.961
 6705W        W71866   4.956   1.483   4.239
 6706W        W71867  25.584   6.472  10.611
 6707W        W71868  40.549   6.168  12.508
 6708W        W71869  13.709  39.235  11.069
 6709W        W71870   7.796  20.454   3.436
 6710W        W71871  16.659  22.033  12.077
 6711W        W71872  37.890   7.449  13.414
 6712W        W71873   8.229   1.944   2.718
 6713W        W71874  18.864  14.674   9.958
 6714W        W71875  24.416  34.944  10.962
 6715W        W71876  30.754  17.600  13.019
 6716W        W71877  38.444  11.195  12.305
 6717W        W71878   0.025   1.608   4.959
 6718W        W71879  25.884  33.419   1.370
 6719W        W71880  23.999  10.085   0.863
 6720W        W71881  12.151  20.247   0.980
 6721W        W71882  28.896  17.092   1.287
 6722W        W71883  40.502  27.568  12.448
 6723W        W71884  27.716  39.486  14.308
 6724W        W71885   6.225  12.687  12.450
 6725W        W71886  39.081  43.498   2.168
 6726W        W71887  22.164  15.547  13.784
 6727W        W71888  18.423  23.259   4.553
 6728W        W71889  29.864  26.815  14.442
 6729W        W71890  18.309   3.234   2.121
 6730W        W71891  20.736  30.139   3.718
 6731W        W71892  40.652   7.135  10.289
 6732W        W71893  41.781  40.968  13.616
 6733W        W71894  34.834  25.008   1.165
 6734W        W71895  39.563  44.916   1.316
 6735W        W71896   4.222  37.078  11.123
 6736W        W71897  43.962  39.312   1.572
 6737W        W71898  31.045  22.573  14.010
 6738W        W71899  39.340  30.460  14.903
 6739W        W71900  29.775  28.092   2.518
 6740W        W71901  28.338  12.821  14.550
 6741W        W71902   9.807  34.345  11.007
 6742W        W71903  26.000   3.115  10.586
 6743W        W71904   3.284   9.357   3.038
 6744W        W71905  38.738   3.934   0.831
 6745W        W71906  41.036  23.432   3.265
 6746W        W71907   5.746  32.330  12.908
 6747W        W71908  19.204  33.859  12.880
 6748W        W71909   8.575  26.477   4.201
 6749W        W71910  21.098  29.516  11.159
 6750W        W71911   6.485   4.749  12.528
 6751W        W71912  36.561  39.939   4.798
 6752W        W71913   7.418  24.510  14.749
 6753W        W71914  41.699   3.608  12.697
 6754W        W71915   2.957  30.254   4.033
 6755W        W71916  42.354  24.124  12.262
 6756W        W71917   0.217  18.563  10.983
 6757W        W71918  18.790  34.509  11.712
 6758W        W71919   5.403  41.427   0.402
 6759W        W71920  38.510   0.686  12.545
 6760W        W71921  28.144  19.754  11.120
 6761W        W71922   1.170  37.526  13.978
 6762W        W71923   9.367   1.379   4.587
 6763W        W71924  33.649   1.977   2.275
 6764W        W71925  30.666   2.112   1.859
 6765W        W71926  18.244  15.231  10.815
 6766W        W71927  38.527   6.223   3.404
 6767W        W71928  15.122  25.169  10.741
 6768W        W71929   8.827  18.421  11.660
 6769W        W71930  42.807  19.772   2.636
 6770W        W71931  30.556  34.443  12.379
 6771W        W71932  39.983  30.658  14.272
 6772W        W71933  10.606  15.615   0.344
 6773W        W71934  40.441   5.411  10.264
 6774W        W71935  27.666   1.526  12.914
 6775W        W71936  19.578  33.113   1.363
 6776W        W71937   3.895   4.309  11.294
 6777W        W71938  22.930  35.938  13.058
 6778W        W71939  29.345  37.945  14.880
 6779W        W71940  10.527  34.583   3.838
 6780W        W71941  23.974  30.018   3.361
 6781W        W71942  29.283  29.567  13.829
 6782W        W71943  31.147   1.399   1.432
 6783W        W71944  32.911  26.969   3.771
 6784W        W71945  43.063  31.398   2.903
 6785W        W71946  25.183  11.595   0.896
 6786W        W71947  20.583  21.548  14.308
 6787W        W71948  35.101  35.023   1.283
 6788W        W71949  20.092  25.276   2.289
 6789W        W71950   5.866  27.260  12.478
 6790W        W71951  39.963   1.834  10.781
 6791W        W71952  27.190  43.647  14.788
 6792W        W71953   3.009   9.887  14.259
 6793W        W71954  33.431  22.490  12.046
 6794W        W71955  12.556   5.298   3.781
 6795W        W71956  17.811   8.329   2.298
 6796W        W71957  39.802  37.433  14.939
 6797W        W71958   8.356  29.133   4.046
 6798W        W71959  12.334   5.038   1.821
 6799W        W71960  24.686  25.998  13.452
 6800W        W71961  16.602  29.919   3.867
 6801W        W71962  17.832  28.059   0.999
 6802W        W71963  25.626  13.336   1.339
 6803W        W71964  36.028  35.357   4.721
 6804W        W71965  40.768  43.683   0.471
 6805W        W71966  18.964  36.963   1.399
 6806W        W71967   6.500  32.995   4.053
 6807W        W71968  26.568  29.473   2.523
 6808W        W71969  35.642  16.677   4.263
 6809W        W71970  13.228  38.758  14.983
 6810W        W71971   3.289  28.751  11.199
 6811W        W71972  39.998  31.091   3.966
 6812W        W71973  35.452  35.660  14.290
 6813W        W71974  29.201  35.339  11.554
 6814W        W71975  30.888  29.593   1.275
 6815W        W71976   9.896  31.332   3.569
 6816W        W71977  15.179   6.291   3.189
 6817W        W71978  11.324  44.105  13.983
 6818W        W71979  12.653  13.155  13.977
 6819W        W71980  36.820  19.597  12.881
 6820W        W71981  40.505  34.644  13.524
 6821W        W71982  22.579  39.870   4.066
 6822W        W71983  31.727  38.034  12.901
 6823W        W71984   1.499   5.005  14.383
 6824W        W71985   6.195  12.054  11.178
 6825W        W71986  40.064  28.854   1.161
 6826W        W71987  44.265  17.098  12.190
 6827W        W71988  26.567   5.348   1.878
 6828W        W71989  12.692   2.253  12.525
 6829W        W71990  41.424  21.082   3.862
 6830W        W71991   0.997  26.514   4.603
 6831W        W71992  14.540  34.376  13.600
 6832W        W71993   1.829   9.776   0.490
 6833W        W71994  11.656  39.479  10.344
 6834W        W71995   5.255   5.937  14.875
 6835W        W71996  13.281  32.890   4.620
 6836W        W71997  19.786   1.305   1.170
 6837W        W71998   8.619  32.041   3.597
 6838W        W71999   6.356  44.565   0.447
 6839W        W72000  37.395  30.005   0.395
 6840W        W72001  12.328   2.723  10.755
 6841W        W72002  38.015  26.229   2.573
 6842W        W72003  35.220   1.076  12.881
 6843W        W72004   2.505  44.576  12.791
 6844W        W72005  22.660  32.464   0.387
 6845W        W72006  19.243  41.983  14.827
 6846W        W72007  17.921  23.451  11.095
 6847W        W72008  43.503   1.921  14.953
 6848W        W72009  24.289  27.863  11.910
 6849W        W72010   7.385  43.004  10.709
 6850W        W72011  43.305  24.714  14.441
 6851W        W72012  27.588   3.163   3.751
 6852W        W72013   2.734   9.425  11.500
 6853W        W72014  36.932  30.532  12.515
 6854W        W72015   3.890   6.834  12.393
 6855W        W72016  34.581  27.166   1.532
 6856W        W72017  39.960   3.310  11.986
 6857W        W72018   3.399  27.507   2.163
 6858W        W72019  17.531  32.059   1.764
 6859W        W72020  19.960  13.864   2.929
 6860W        W72021  35.858   8.144  11.146
 6861W        W72022  24.740  12.755  10.787
 6862W        W72023  44.917  15.742  14.251
 6863W        W72024   5.020  41.810   3.598
 6864W        W72025   8.747  33.647  14.427
 6865W        W72026  40.087  35.089  13.835
 6866W        W72027   7.888  30.163  10.668
 6867W        W72028  29.898   6.337  13.858
 6868W        W72029  44.021  10.755   1.448
 6869W        W72030   5.065  44.571  12.488
 6870W        W72031  33.170  17.106   0.804
 6871W        W72032  23.873  14.855   0.844
 6872W        W72033  39.292   0.810  11.141
 6873W        W72034  17.279  16.665   1.858
 6874W        W72035  35.060   5.765   3.217
 6875W        W72036  37.635  20.943   2.918
 6876W        W72037   4.166   1.892  14.675
 6877W        W72038  22.236  42.541  13.337
 6878W        W72039  36.953  24.270  14.534
 6879W        W72040  28.943   4.438   1.412
 6880W        W72041  19.442  29.698   3.224
 6881W        W72042   8.059  24.756  12.449
 6882W        W72043  44.284   1.296  13.759
 6883W        W72044  37.009  34.622   0.318
 6884W        W72045   2.242  30.054  11.878
 6885W        W72046  10.379  11.622  13.915
 6886W        W72047  44.888  15.687   0.290
 6887W        W72048  31.596  33.413   2.229
 6888W        W72049  26.026   0.049  11.421
 6889W        W72050  25.958  40.958   3.454
 6890W        W72051  35.452  42.299  14.026
 6891W        W72052   0.804  42.826  13.602
 6892W        W72053   0.246  20.778   1.752
 6893W        W72054  23.417  18.229   3.416
 6894W        W72055  37.925  30.712   3.668
 6895W        W72056  28.429  44.963   0.321
 6896W        W72057  15.777  13.345  10.631
 6897W        W72058  40.053  34.496  10.677
 6898W        W72059  17.025  32.087   1.892
 6899W        W72060  42.160  15.759  14.486
 6900W        W72061  13.276   4.455  14.966
 6901W        W72062  10.631  14.077   2.298
 6902W        W72063  33.832  24.110  12.955
 6903W        W72064  43.609  23.931  12.118
 6904W        W72065  23.152   1.545   4.313
 6905W        W72066  33.857  15.635   4.575
 6906W        W72067  19.013   2.422  13.466
 6907W        W72068   1.961  29.641  12.079
 6908W        W72069  38.795  31.834  14.586
 6909W        W72070  16.124   7.639   0.895
 6910W        W72071  17.128  30.484   5.272
 6911W        W72072   7.227  20.823  12.041
 6912W        W72073   9.256   6.931   4.617
 6913W        W72074  24.119  14.863   1.866
 6914W        W72075   0.478  35.617  14.332
 6915W        W72076  40.480  30.111  12.477
 6916W        W72077   8.448  29.521  14.842
 6917W        W72078  41.913   4.255  12.083
 6918W        W72079  41.523   8.902  11.620
 6919W        W72080  18.178  27.055  11.530
 6920W        W72081   4.235  28.353  11.175
 6921W        W72082  41.853  24.195  13.011
 6922W        W72083   8.464   7.865   3.729
 6923W        W72084  24.485  29.221  13.826
 6924W        W72085  34.845  12.400   1.395
 6925W        W72086  23.313  36.920  11.201
 6926W        W72087  17.187  22.078  10.804
 6927W        W72088  24.384  19.172  10.174
 6928W        W72089   7.424  15.823  14.429
 6929W        W72090  30.996  12.677   2.431
 6930W        W72091  16.135  42.942   4.014
 6931W        W72092  24.135  19.813  13.971
 6932W        W72093  29.019   3.192   2.787
 6933W        W72094  10.358  43.777  13.423
 6934W        W72095  25.489  29.865  12.432
 6935W        W72096  43.341  10.619  10.206
 6936W        W72097   3.306  42.802  11.171
 6937W        W72098  21.196  34.541   1.775
 6938W        W72099   4.239   8.326   2.153
 6939W        W72100  39.101  32.468   1.873
 6940W        W72101  23.629   1.534   1.806
 6941W        W72102  38.472   5.430   0.825
 6942W        W72103   7.328  31.320   0.441
 6943W        W72104   7.837  16.707  14.562
 6944W        W72105  11.938  44.000  14.999
 6945W        W72106   9.423  15.861  14.577
 6946W        W72107   2.295  44.063   0.721
 6947W        W72108  19.451  26.760   1.847
 6948W        W72109   4.708  36.035   2.187
 6949W        W72110   2.393  17.869   4.994
 6950W        W72111  35.090   3.033  14.411
 6951W        W72112   0.309  44.395   3.750
 6952W        W72113  29.178   0.394   0.331
 6953W        W72114  36.868   4.526   2.251
 6954W        W72115  37.920  16.795   2.419
 6955W        W72116  21.175   9.555   1.135
 6956W        W72117  15.870   6.878   2.910
 6957W        W72118  15.581  40.992  12.592
 6958W        W72119   2.693  42.906   4.742
 6959W        W72120   5.854  37.452  13.550
 6960W        W72121  23.533  11.285  10.186
 6961W        W72122  38.311   2.595  14.532
 6962W        W72123  22.471  16.561  13.463
 6963W        W72124  37.587  13.232  13.326
 6964W        W72125  10.765   8.897   3.790
 6965W        W72126  44.996  40.784  12.297
 6966W        W72127  17.586  31.161   1.290
 6967W        W72128   5.769  13.418  11.270
 6968W        W72129  40.293  14.625   3.855
 6969W        W72130  20.225  37.458  13.238
 6970W        W72131  17.297   7.693  12.011
 6971W        W72132  43.354  22.716   3.644
 6972W        W72133   0.976   6.615  14.680
 6973W        W72134  42.986   1.689   4.592
 6974W        W72135  13.392  42.463   2.140
 6975W        W72136  37.566  21.123  11.152
 6976W        W72137  13.606   4.919  12.166
 6977W        W72138   9.289  19.616   4.724
 6978W        W72139  12.393   5.435   2.374
 6979W        W72140  43.488  14.283   0.587
 6980W        W72141   4.281  10.340  13.289
 6981W        W72142  26.164  31.753  14.361
 6982W        W72143  12.264  25.692   3.663
 6983W        W72144   6.478  43.021   1.322
 6984W        W72145   7.351  44.544   2.485
 6985W        W72146  12.547  34.885  12.502
 6986W        W72147   2.786  28.080   3.827
 6987W        W72148   5.288  27.772   5.249
 6988W        W72149  42.036  24.790  11.624
 6989W        W72150   3.245  26.696  12.044
 6990W        W72151  38.669   3.366  11.601
 6991W        W72152   6.754  17.046   4.111
 6992W        W72153  17.875   7.671   1.589
 6993W        W72154  23.860  43.419  11.662
 6994W        W72155  35.985  42.954   3.466
 6995W        W72156  10.436   4.901  13.548
 6996W        W72157  44.404  43.075   2.393
 6997W        W72158  21.565  23.993   1.241
 6998W        W72159  24.295  12.567  14.017
 6999W        W72160   3.822  13.968   4.558
 7000W        W72161  12.915   2.723  12.454
 7001W        W72162  31.103  17.095   1.840
 7002W        W72163   1.801  43.887  11.553
 7003W        W72164  38.578   2.880  11.463
 7004W        W72165  34.364  21.976  13.446
 7005W        W72166   8.886  10.214  12.336
 7006W        W72167  20.579  41.928   4.880
 7007W        W72168   6.084   6.950   2.394
 7008W        W72169  41.945   9.220   0.550
 7009W        W72170  31.644   7.831  14.048
 7010W        W72171  14.377  31.324   3.953
 7011W        W72172  33.235  11.904  11.302
 7012W        W72173  21.166   4.484   4.296
 7013W        W72174  31.579   2.419   2.906
 7014W        W72175   8.606  39.998   0.257
 7015W        W72176  17.686  36.613   3.343
 7016W        W72177  19.803  17.773  13.599
 7017W        W72178   9.285   8.743   1.994
 7018W        W72179   6.237   3.838  12.137
 7019W        W72180  44.855  34.611  13.904
 7020W        W72181  21.477  34.016   2.499
 7021W        W72182   7.806   7.829  12.478
 7022W        W72183  19.721   2.774   2.248
 7023W        W72184  30.961  39.686   2.228
 7024W        W72185  12.830  39.639  10.270
 7025W        W72186   2.755   5.636   4.910
 7026W        W72187   4.238  43.056   0.888
 7027W        W72188  13.198  38.603  10.701
 7028W        W72189  25.526  30.873  12.500
 7029W        W72190  19.546   3.264   1.726
 7030W        W72191   1.393  21.778   4.159
 7031W        W72192   3.158  27.474   0.839
 7032W        W72193  44.454   6.120  14.037
 7033W        W72194  42.956  36.016  12.270
 7034W        W72195  13.425   9.840   0.846
 7035W        W72196  30.204  39.316  11.934
 7036W        W72197  22.330  39.919   3.620
 7037W        W72198  33.952  23.789  13.430
 7038W        W72199   0.732  14.383   3.204
 7039W        W72200  19.801  25.673   4.024
 7040W        W72201  38.539  22.263  12.504
 7041W        W72202  41.392  31.697   1.221
 7042W        W72203  33.129  29.673  12.143
 7043W        W72204  35.872  38.559   1.139
 7044W        W72205  30.409  15.645   4.212
 7045W        W72206  32.029  30.302  14.630
 7046W        W72207  37.058  21.669  11.936
 7047W        W72208  26.543   1.267   2.614
 7048W        W72209  12.611  18.228  12.546
 7049W        W72210  30.081  24.215  12.130
 7050W        W72211  30.722  41.494   3.623
 7051W        W72212  26.338   4.167   0.851
 7052W        W72213  33.979   9.823   2.481
 7053W        W72214  25.430  33.453   3.934
 7054W        W72215   2.147  44.008   4.212
 7055W        W72216  42.501   8.280   3.207
 7056W        W72217  42.476  19.706  10.709
 7057W        W72218  28.691  11.850   3.139
 7058W        W72219  31.638  23.936   1.944
 7059W        W72220   2.006  34.348   3.667
 7060W        W72221  13.093  12.259   0.673
 7061W        W72222   4.338  13.643   0.185
 7062W        W72223  42.104  26.773   4.097
 7063W        W72224  24.650  26.137  11.496
 7064W        W72225  44.547  36.330   3.141
 7065W        W72226  35.684   9.686  13.882
 7066W        W72227  29.394   9.043   5.085
 7067W        W72228   0.217   5.299  13.502
 7068W        W72229  23.084  24.523   1.897
 7069W        W72230   8.471   8.401   3.729
 7070W        W72231  39.478  32.986  14.267
 7071W        W72232  28.002  28.621  14.462
 7072W        W72233  28.057   5.942  12.161
 7073W        W72234   8.800   3.708   3.695
 7074W        W72235  31.434   3.705  11.486
 7075W        W72236  18.326  40.495  14.544
 7076W        W72237  41.916  11.147  12.548
 7077W        W72238  36.329  40.229   1.005
 7078W        W72239  40.530   5.375   2.281
 7079W        W72240  16.175  42.125  11.147
 7080W        W72241   7.637   6.290   1.717
 7081W        W72242  21.979   3.249   0.413
 7082W        W72243  21.585  39.439  11.910
 7083W        W72244  28.049   4.145   2.300
 7084W        W72245  10.090   3.769   1.871
 7085W        W72246  20.259  26.899  10.739
 7086W        W72247  13.759  11.950   0.756
 7087W        W72248  33.377  32.976   1.277
 7088W        W72249  10.691  26.924   2.781
 7089W        W72250  43.178  38.570   4.268
 7090W        W72251  13.888  24.622  13.840
 7091W        W72252  28.537   8.634  10.708
 7092W        W72253  18.277  15.262  13.417
 7093W        W72254  25.163  21.742   5.489
 7094W        W72255   7.383  30.921  13.491
 7095W        W72256  13.096  43.138  12.897
 7096W        W72257  29.086  34.351   0.022
 7097W        W72258  22.997  12.412  12.576
 7098W        W72259  11.632   0.321  14.475
 7099W        W72260  16.447  27.127   4.163
 7100W        W72261  44.989   3.156   0.411
 7101W        W72262  16.603  38.286  14.812
 7102W        W72263  33.350  29.114  13.176
 7103W        W72264   9.888  39.984  11.207
 7104W        W72265  31.941  13.657   2.340
 7105W        W72266  29.002  22.154  11.589
 7106W        W72267  13.351  14.797   4.439
 7107W        W72268  36.055  22.063   4.319
 7108W        W72269   9.877  42.071  14.115
 7109W        W72270  22.461   3.201  12.452
 7110W        W72271  40.068  24.673  13.475
 7111W        W72272  23.666  18.329   2.395
 7112W        W72273  37.955   0.297  14.213
 7113W        W72274  21.757  25.665  12.022
 7114W        W72275  37.276  17.584   2.212
 7115W        W72276  13.607   6.312  12.559
 7116W        W72277  37.504  28.153  12.814
 7117W        W72278   5.196  24.106   3.273
 7118W        W72279   7.951  41.249   4.981
 7119W        W72280  43.806   4.821  13.962
 7120W        W72281  10.844  36.587  10.601
 7121W        W72282  32.997   9.192  10.709
 7122W        W72283   8.318  23.600   1.285
 7123W        W72284  34.824  26.200   0.738
 7124W        W72285  11.913  30.242   2.255
 7125W        W72286   2.214   7.630   1.835
 7126W        W72287   8.697  41.048  14.788
 7127W        W72288  22.006  12.607   2.408
 7128W        W72289  19.076  16.258  10.879
 7129W        W72290  17.856   4.858  12.988
 7130W        W72291  33.514  19.019  12.490
 7131W        W72292  44.009   7.908  12.521
 7132W        W72293  13.918  35.757  14.094
 7133W        W72294  16.581   3.153   1.754
 7134W        W72295  18.860  41.471  11.730
 7135W        W72296   7.658  20.911   3.207
 7136W        W72297   1.998  13.647  10.935
 7137W        W72298  12.396  18.228   2.743
 7138W        W72299   2.932  42.965   0.064
 7139W        W72300  13.882   4.735  10.653
 7140W        W72301  11.597   9.748   0.355
 7141W        W72302  41.414  19.243   0.580
 7142W        W72303  24.745  40.325  14.254
 7143W        W72304   2.905  15.219   1.909
 7144W        W72305  36.777  28.349   2.824
 7145W        W72306   9.416  42.474  12.850
 7146W        W72307   2.113  11.754  11.544
 7147W        W72308  14.051  32.460   1.668
 7148W        W72309  25.641  41.046   0.170
 7149W        W72310  10.747  24.471  12.130
 7150W        W72311  19.137  39.408   3.138
 7151W        W72312   6.736   4.360  11.715
 7152W        W72313  16.047  26.173  10.929
 7153W        W72314  32.048  35.115  11.578
 7154W        W72315  12.057  14.093  11.984
 7155W        W72316   5.283  36.895   3.708
 7156W        W72317  34.118   7.218  14.953
 7157W        W72318  30.660  34.988  14.383
 7158W        W72319  26.178  22.194  11.198
 7159W        W72320  27.774  33.970  13.811
 7160W        W72321  23.004  12.714  11.481
 7161W        W72322  17.740  29.092  13.289
 7162W        W72323  39.399  32.471  14.510
 7163W        W72324  20.462  28.724   2.841
 7164W        W72325  20.146  11.701  11.856
 7165W        W72326  25.177   6.424  14.102
 7166W        W72327   3.294  37.796   3.205
 7167W        W72328  24.512  23.148   5.284
 7168W        W72329   1.223   2.025   2.573
 7169W        W72330  18.021   8.882   0.824
 7170W        W72331  17.035  35.573   2.807
 7171W        W72332  26.480  34.037   3.668
 7172W        W72333   0.917   7.409  13.488
 7173W        W72334  23.708  41.933  13.561
 7174W        W72335  22.704  33.701   4.564
 7175W        W72336  12.137  30.929  11.196
 7176W        W72337  10.747  13.584  10.671
 7177W        W72338   6.411  29.525   2.654
 7178W        W72339  26.198  18.877  10.813
 7179W        W72340   0.632   3.370   3.800
 7180W        W72341  29.504   5.194   4.515
 7181W        W72342  34.945  25.510   0.969
 7182W        W72343  12.166   7.235  10.672
 7183W        W72344   8.159  19.142   1.291
 7184W        W72345  13.595  19.289   2.879
 7185W        W72346   0.854   3.931   0.796
 7186W        W72347  38.098  26.556  10.766
 7187W        W72348  12.698  16.869   4.337
 7188W        W72349  20.109  41.484   0.345
 7189W        W72350  27.369  44.809   2.252
 7190W        W72351  38.339  12.005   4.097
 7191W        W72352   0.998  20.874  14.249
 7192W        W72353  18.103  25.652   3.400
 7193W        W72354   5.912  39.857   3.220
 7194W        W72355  28.395  43.595  10.967
 7195W        W72356   5.451  27.255   4.373
 7196W        W72357  29.546   4.447  12.875
 7197W        W72358  27.088  38.285   0.336
 7198W        W72359   1.022   2.415  13.737
 7199W        W72360  26.259  13.687   2.550
 7200W        W72361  39.831   5.349  11.607
 7201W        W72362  20.027   1.414  13.422
 7202W        W72363   0.397  22.285   4.544
 7203W        W72364   8.822   8.450  13.409
 7204W        W72365   7.246   4.328   4.685
 7205W        W72366  32.474   6.987  11.547
 7206W        W72367  17.233   9.742  14.611
 7207W        W72368  18.760  39.637   5.290
 7208W        W72369  21.274  34.405  10.717
 7209W        W72370  19.540   6.607   2.287
 7210W        W72371   2.431  43.881  10.745
 7211W        W72372   3.400  40.734  13.904
 7212W        W72373  26.504  30.913  14.519
 7213W        W72374   1.350  13.852   0.792
 7214W        W72375  42.618  42.660   4.971
 7215W        W72376  15.253  15.714   0.521
 7216W        W72377   3.368   8.783   0.668
 7217W        W72378  28.042  12.562  13.811
 7218W        W72379  25.659  13.651  14.414
 7219W        W72380   5.677  18.651  12.454
 7220W        W72381   2.778  31.050   2.810
 7221W        W72382  21.316  25.838  10.139
 7222W        W72383   8.739  41.557   2.101
 7223W        W72384  22.099  30.612   2.833
 7224W        W72385   2.772  28.671   4.141
 7225W        W72386   7.227  26.952  11.712
 7226W        W72387   8.005  35.785  13.472
 7227W        W72388   2.316  32.536   2.620
 7228W        W72389   5.950   3.490  11.900
 7229W        W72390  20.091  33.917   0.912
 7230W        W72391  39.933  11.305  14.967
 7231W        W72392   1.884  13.095   3.587
 7232W        W72393  15.146   0.244   2.627
 7233W        W72394  21.180  18.537   2.352
 7234W        W72395  11.717  18.947   4.368
 7235W        W72396   9.356  43.467  12.934
 7236W        W72397  10.565  11.704   4.106
 7237W        W72398   9.218  26.253   0.670
 7238W        W72399  12.180  34.405   2.677
 7239W        W72400   3.478  25.059   2.341
 7240W        W72401  43.807  26.470   3.241
 7241W        W72402  24.286   0.426   3.341
 7242W        W72403  38.732  16.239   4.848
 7243W        W72404  39.345  30.938   2.809
 7244W        W72405  41.774  30.555  10.715
 7245W        W72406  32.008  12.567  14.759
 7246W        W72407   1.977  28.040  10.691
 7247W        W72408  11.611  19.496   4.474
 7248W        W72409  29.775  14.681  11.151
 7249W        W72410  25.647  12.386  14.870
 7250W        W72411  23.067  41.418   1.702
 7251W        W72412  21.147  43.730   3.728
 7252W        W72413  12.272  16.654   0.254
 7253W        W72414   3.394   7.133  11.704
 7254W        W72415  10.354  17.658  13.785
 7255W        W72416  31.225  34.688  13.941
 7256W        W72417   6.833  26.735  10.927
 7257W        W72418  35.202  17.111   3.279
 7258W        W72419  30.960  24.457  14.209
 7259W        W72420  44.305  32.071   5.001
 7260W        W72421  38.518  26.616  11.463
 7261W        W72422  16.923  41.141   5.321
 7262W        W72423   1.877  17.500   1.870
 7263W        W72424   6.392  18.859  13.488
 7264W        W72425  41.948  30.614  13.593
 7265W        W72426   0.247  28.598  14.608
 7266W        W72427  18.606  39.263   4.537
 7267W        W72428  22.113  26.417   9.784
 7268W        W72429  40.341  39.996  11.307
 7269W        W72430  17.760   1.432   3.661
 7270W        W72431  34.050  13.593   1.408
 7271W        W72432  23.659  11.488   0.753
 7272W        W72433  19.113  41.604   4.630
 7273W        W72434   7.166  35.469  13.430
 7274W        W72435   5.089  42.200  12.288
 7275W        W72436  10.574  26.713  13.697
 7276W        W72437  36.830   0.458  10.986
 7277W        W72438  37.877  30.608   1.775
 7278W        W72439  18.674   6.051   2.295
 7279W        W72440  24.496  21.572  11.794
 7280W        W72441  34.056  34.845  14.511
 7281W        W72442  43.782  25.474  14.756
 7282W        W72443   7.172  32.365   1.281
 7283W        W72444  35.654  10.728   4.959
 7284W        W72445  42.149  19.018  11.203
 7285W        W72446  27.525  31.436   1.981
 7286W        W72447  14.383  32.052   1.762
 7287W        W72448  26.937  19.123  12.903
 7288W        W72449  43.748   6.497   4.250
 7289W        W72450   6.155  10.041  12.392
 7290W        W72451  36.901  17.561  12.050
 7291W        W72452  20.166  36.511  14.235
 7292W        W72453  30.348   9.856   2.236
 7293W        W72454  22.543   2.951  12.004
 7294W        W72455  43.879  41.267   5.529
 7295W        W72456   2.045  17.200   4.345
 7296W        W72457   7.860  14.459  14.899
 7297W        W72458  14.790  11.420   3.729
 7298W        W72459   1.571  40.886   1.870
 7299W        W72460  42.967  39.238  14.026
 7300W        W72461  29.922   1.202  13.116
 7301W        W72462  42.011  16.875  14.977
 7302W        W72463  14.349   6.719  13.777
 7303W        W72464  11.606  18.062  13.346
 7304W        W72465  33.761  37.132   2.744
 7305W        W72466  33.133  30.898  14.017
 7306W        W72467   6.854  16.110   4.534
 7307W        W72468   5.356  43.294  14.866
 7308W        W72469  38.273   9.184  11.641
 7309W        W72470  33.289  39.498  13.568
 7310W        W72471  37.577   9.090   2.710
 7311W        W72472  26.178   3.518   0.343
 7312W        W72473  31.731   9.865   0.445
 7313W        W72474  43.058  29.481   2.222
 7314W        W72475  40.420  43.033  14.748
 7315W        W72476   4.725  13.642  12.948
 7316W        W72477   2.961   0.830  12.986
 7317W        W72478  23.983  34.507  11.594
 7318W        W72479  28.245  16.570   0.672
 7319W        W72480  39.830  28.655   2.407
 7320W        W72481  13.335  26.380   0.855
 7321W        W72482  32.002  23.599   3.530
 7322W        W72483  16.675  23.167  13.387
 7323W        W72484   7.423  42.540  10.502
 7324W        W72485  22.664  41.617  10.625
 7325W        W72486  22.328  21.204  11.894
 7326W        W72487  23.059   4.687   0.239
 7327W        W72488  22.547  20.604   2.709
 7328W        W72489  35.938  24.018  11.069
 7329W        W72490  15.635  30.539   2.455
 7330W        W72491  27.461  31.443   1.016
 7331W        W72492  29.946  27.457   2.701
 7332W        W72493  40.867  20.817   0.070
 7333W        W72494  36.947  11.107   0.833
 7334W        W72495  36.258  21.008  12.183
 7335W        W72496   9.280   4.467  14.957
 7336W        W72497  34.501   4.875  14.872
 7337W        W72498   7.962  23.893  13.509
 7338W        W72499  16.408  44.939  13.456
 7339W        W72500   2.298   4.180   3.469
 7340W        W72501  41.788  36.925   2.187
 7341W        W72502  37.633  15.733  11.961
 7342W        W72503  10.830   1.670   3.314
 7343W        W72504   6.805  29.488   3.277
 7344W        W72505   7.717  13.169  11.924
 7345W        W72506  39.531  43.507  12.432
 7346W        W72507  40.118  19.562  10.709
 7347W        W72508  26.835  23.693  13.522
 7348W        W72509   6.710  19.340  14.265
 7349W        W72510   3.091  44.581   1.104
 7350W        W72511  16.281  20.763  13.371
 7351W        W72512  22.339  37.092  11.221
 7352W        W72513  38.809   1.683   0.452
 7353W        W72514  19.750  19.166  11.040
 7354W        W72515  39.853   7.123   3.676
 7355W        W72516  43.376  20.056   3.205
 7356W        W72517  22.358   9.719  10.479
 7357W        W72518  41.048   5.325  12.027
 7358W        W72519  27.510  25.916  14.810
 7359W        W72520  41.510  44.855   3.617
 7360W        W72521  43.339  23.663  13.522
 7361W        W72522  25.539  23.487  11.405
 7362W        W72523  27.429  16.068  12.146
 7363W        W72524  36.500  35.864   4.383
 7364W        W72525  31.960   5.822   4.317
 7365W        W72526  11.371  29.061  14.350
 7366W        W72527  41.212  27.387  11.947
 7367W        W72528  19.586  34.103  12.023
 7368W        W72529  34.328  31.599   3.295
 7369W        W72530  18.270   2.264   1.294
 7370W        W72531  34.590  19.928   1.005
 7371W        W72532  10.693  35.932  10.427
 7372W        W72533   2.163  17.914   0.704
 7373W        W72534  21.992  16.696   3.716
 7374W        W72535  27.108   2.794  13.028
 7375W        W72536   4.354  14.328  12.046
 7376W        W72537  24.547  39.847  12.946
 7377W        W72538  37.108   5.686  11.873
 7378W        W72539  29.487   9.854   0.894
 7379W        W72540   0.890  25.430  13.862
 7380W        W72541  34.516  11.105   3.113
 7381W        W72542   7.229   9.301  13.047
 7382W        W72543   9.910  20.464  13.110
 7383W        W72544  18.316   1.167   1.367
 7384W        W72545  28.223  37.381   3.923
 7385W        W72546  18.133  21.628  14.937
 7386W        W72547   9.683  40.040   1.717
 7387W        W72548  42.603  19.990  12.020
 7388W        W72549  36.666   9.688  12.499
 7389W        W72550  23.667   2.461  10.612
 7390W        W72551  38.352   0.594  13.941
 7391W        W72552  13.085  40.204   4.162
 7392W        W72553  33.403   4.084  11.654
 7393W        W72554  27.679   1.013  12.952
 7394W        W72555  36.831  21.722   0.049
 7395W        W72556  32.370   2.753   3.110
 7396W        W72557  16.025  37.808   0.849
 7397W        W72558  14.331  34.362  11.967
 7398W        W72559  13.946  43.215  11.455
 7399W        W72560  21.573  36.756   0.361
 7400W        W72561  16.852  13.733  10.453
 7401W        W72562  40.018  15.162   1.281
 7402W        W72563  29.036   4.761  12.285
 7403W        W72564  22.635  27.427   0.383
 7404W        W72565   7.373  29.109  13.960
 7405W        W72566   0.523  31.927   4.995
 7406W        W72567  41.523  29.884  14.945
 7407W        W72568  29.880   8.758  11.730
 7408W        W72569  30.447   7.182   1.827
 7409W        W72570  15.196  13.346   3.409
 7410W        W72571  30.647   6.341  11.490
 7411W        W72572  11.711   1.217  12.667
 7412W        W72573  27.072   4.501   4.664
 7413W        W72574  29.498  39.772  14.346
 7414W        W72575  38.835  13.120  12.490
 7415W        W72576  25.073   1.525  12.032
 7416W        W72577  27.134   4.003   3.743
 7417W        W72578  22.505  17.966  11.869
 7418W        W72579   5.196  34.489   0.050
 7419W        W72580  37.094  18.048   2.145
 7420W        W72581  38.522  42.818  13.387
 7421W        W72582   6.723  23.900   1.861
 7422W        W72583   9.311  29.386   1.744
 7423W        W72584  19.241  16.562  14.518
 7424W        W72585   0.929  15.880  11.196
 7425W        W72586  33.956  44.281   2.873
 7426W        W72587  39.186  37.811   4.454
 7427W        W72588  38.115  17.733  10.727
 7428W        W72589  18.032  22.191  14.109
 7429W        W72590   6.167  41.699  11.712
 7430W        W72591  44.640   4.904   1.314
 7431W        W72592  17.279  33.048  13.918
 7432W        W72593  10.071   7.703   1.653
 7433W        W72594  25.345  21.300   3.146
 7434W        W72595  19.142   6.072  13.552
 7435W        W72596   8.814   4.445   4.129
 7436W        W72597  35.310  25.962  11.071
 7437W        W72598  11.103   3.984  14.760
 7438W        W72599  35.991  28.725   3.301
 7439W        W72600  28.494   4.684   2.709
 7440W        W72601  27.011  20.299  10.754
 7441W        W72602  24.601  21.542  12.297
 7442W        W72603  16.322   2.385   4.100
 7443W        W72604  20.935  10.296  12.989
 7444W        W72605  17.677  11.708   0.699
 7445W        W72606  28.761  44.902  14.303
 7446W        W72607  30.120  14.822   4.585
 7447W        W72608   9.413   4.143  13.967
 7448W        W72609  36.291  28.535   1.641
 7449W        W72610  22.518  20.813   3.186
 7450W        W72611  31.883  40.212   3.802
 7451W        W72612  38.889  21.268   3.124
 7452W        W72613  42.886  37.013  12.946
 7453W        W72614  33.649  32.553  14.805
 7454W        W72615  11.832   1.982   0.730
 7455W        W72616   6.303  16.301  13.784
 7456W        W72617   3.076  37.458   1.836
 7457W        W72618   6.367   1.484  12.900
 7458W        W72619  19.999  31.468   3.258
 7459W        W72620  18.222   0.310   4.656
 7460W        W72621  39.523  12.621  13.794
 7461W        W72622  13.489  44.482  12.793
 7462W        W72623  41.313  35.876  12.886
 7463W        W72624  35.799  18.133   3.750
 7464W        W72625   5.145   8.364  11.016
 7465W        W72626  29.560  21.974  13.342
 7466W        W72627  44.899  37.062   2.306
 7467W        W72628  37.581   7.692  13.859
 7468W        W72629  16.121  24.934   4.584
 7469W        W72630   2.878  37.808  14.890
 7470W        W72631  14.897   7.020   5.075
 7471W        W72632   1.741  42.579  11.190
 7472W        W72633  26.205  16.161   2.815
 7473W        W72634  20.342   0.951   3.267
 7474W        W72635  22.618  18.193  14.325
 7475W        W72636  25.936  30.529   1.681
 7476W        W72637  11.724  35.322   4.488
 7477W        W72638  20.537  25.052   4.115
 7478W        W72639  10.133  35.934   2.814
 7479W        W72640  12.814  18.335  13.917
 7480W        W72641   3.765  35.638  12.488
 7481W        W72642  25.910  13.154   4.537
 7482W        W72643  35.543  11.510   1.790
 7483W        W72644  13.862  42.060  14.558
 7484W        W72645  39.598   5.747  10.710
 7485W        W72646  35.480  37.123  13.469
 7486W        W72647  12.382  27.155  11.446
 7487W        W72648  10.874  40.064  11.123
 7488W        W72649  35.197  29.829   0.761
 7489W        W72650  22.564  17.139   0.037
 7490W        W72651  12.566  15.387  14.960
 7491W        W72652  25.609  24.159  12.167
 7492W        W72653  16.618  10.256  13.067
 7493W        W72654  26.589  37.358  14.820
 7494W        W72655   0.611   6.070   1.835
 7495W        W72656  21.296  23.748   4.036
 7496W        W72657  29.077  11.228  10.670
 7497W        W72658  11.230  26.102   0.722
 7498W        W72659  26.430  11.770  13.219
 7499W        W72660  11.062   3.502   1.496
 7500W        W72661  38.759  27.804  12.036
 7501W        W72662   2.315  27.078  14.830
 7502W        W72663   4.810  19.774  14.324
 7503W        W72664   1.426  17.884  14.884
 7504W        W72665  33.091   3.687   1.993
 7505W        W72666  44.782  44.068  10.953
 7506W        W72667  22.476  14.911   2.224
 7507W        W72668  17.802  11.147   4.097
 7508W        W72669  38.464  34.022  13.088
 7509W        W72670  41.836  22.218  10.615
 7510W        W72671  22.311  34.940   4.943
 7511W        W72672  24.224  40.588  11.516
 7512W        W72673   1.534  23.580  13.100
 7513W        W72674   7.790  14.847  11.315
 7514W        W72675  28.439  36.542  13.357
 7515W        W72676  32.689  20.237  11.138
 7516W        W72677  23.579   5.378   0.715
 7517W        W72678  14.879  17.277  14.952
 7518W        W72679  19.477   0.582  11.683
 7519W        W72680  40.989  32.952   3.592
 7520W        W72681  37.388  32.497   3.674
 7521W        W72682  15.965  43.921  10.590
 7522W        W72683  21.003  35.038  13.882
 7523W        W72684  26.326   4.191  11.820
 7524W        W72685  29.905  15.045  12.468
 7525W        W72686  26.660   1.920  11.586
 7526W        W72687   1.083  24.477  13.444
 7527W        W72688  42.938  14.585   1.833
 7528W        W72689   4.243   2.538   0.270
 7529W        W72690   4.929  43.116  11.392
 7530W        W72691  10.103  37.761  11.574
 7531W        W72692  40.508  32.715  12.083
 7532W        W72693  17.175  33.355  13.471
 7533W        W72694  11.122   4.693   2.199
 7534W        W72695  19.156   5.443   0.018
 7535W        W72696  33.387  30.831  14.941
 7536W        W72697  31.908  33.343   3.993
 7537W        W72698  34.354  26.645   2.783
 7538W        W72699  14.392  22.987   4.193
 7539W        W72700  28.620  19.236   0.006
 7540W        W72701  14.974  41.158   4.071
 7541W        W72702  12.375  18.561  13.510
 7542W        W72703   3.504  28.559  12.900
 7543W        W72704   7.270  23.706  12.569
 7544W        W72705  41.289  16.639   3.114
 7545W        W72706  22.808  44.937   2.150
 7546W        W72707  24.245  41.895   3.222
 7547W        W72708  12.032  24.624   0.982
 7548W        W72709   1.962   1.002  11.167
 7549W        W72710  44.274   1.080   4.710
 7550W        W72711  29.585  40.809   2.268
 7551W        W72712  12.345  37.921   4.292
 7552W        W72713  29.689  30.686  12.759
 7553W        W72714  15.496  17.435  11.731
 7554W        W72715  11.734  10.276  11.186
 7555W        W72716  41.909   6.830  12.763
 7556W        W72717  41.967  28.610   1.499
 7557W        W72718   9.131  26.625  10.534
 7558W        W72719  35.760  15.748  11.523
 7559W        W72720  25.045  42.321  14.799
 7560W        W72721   8.156   9.240   1.752
 7561W        W72722  19.830   1.892  11.116
 7562W        W72723  40.101  22.117   3.174
 7563W        W72724  36.360  34.189  14.732
 7564W        W72725  11.691  30.953  12.098
 7565W        W72726  32.246  40.174   5.186
 7566W        W72727  18.949   6.934   2.198
 7567W        W72728  40.449  31.161   4.695
 7568W        W72729  40.659  28.257   4.441
 7569W        W72730  35.604  18.069  14.410
 7570W        W72731  35.067  22.301   4.585
 7571W        W72732   1.011   1.377  14.060
 7572W        W72733  23.532  16.675  11.597
 7573W        W72734  43.175  12.866   2.239
 7574W        W72735  33.896  39.935   4.113
 7575W        W72736  22.135  22.532  14.733
 7576W        W72737  11.253  29.759   0.811
 7577W        W72738   1.445   4.881  13.506
 7578W        W72739  34.958  13.047   2.355
 7579W        W72740  17.170  24.092  10.796
 7580W        W72741  37.315  27.047  11.128
 7581W        W72742  30.685  15.407   1.311
 7582W        W72743   6.964  37.011   3.271
 7583W        W72744  43.832  40.142   3.274
 7584W        W72745  30.483  29.154   4.098
 7585W        W72746  28.156  42.531   3.150
 7586W        W72747  14.352  39.341  11.657
 7587W        W72748  43.873  36.165   3.656
 7588W        W72749  21.322  18.123  13.926
 7589W        W72750  39.552  14.103  13.826
 7590W        W72751  26.011  16.342  12.179
 7591W        W72752  40.205  37.277  14.627
 7592W        W72753   0.791  17.902  14.488
 7593W        W72754  18.750  12.053  11.888
 7594W        W72755  13.820  11.822  11.237
 7595W        W72756   4.321  37.761  10.353
 7596W        W72757  40.474  32.459  11.076
 7597W        W72758   5.283  16.709  10.777
 7598W        W72759  24.506  26.647  14.885
 7599W        W72760  10.213  19.037  12.560
 7600W        W72761  14.849   5.279  14.391
 7601W        W72762  31.312  35.273  13.841
 7602W        W72763  22.621  37.135   0.327
 7603W        W72764   6.226  12.399   2.182
 7604W        W72765  30.340  37.904  11.640
 7605W        W72766  39.763  14.240  10.945
 7606W        W72767  41.968  31.578  12.017
 7607W        W72768  13.587  35.056   2.343
 7608W        W72769  28.075  33.955   4.170
 7609W        W72770  31.332  11.843   3.196
 7610W        W72771  28.968   1.731  12.013
 7611W        W72772  14.301  28.193  13.371
 7612W        W72773  33.861   6.766   2.745
 7613W        W72774  26.677  44.552   2.718
 7614W        W72775   9.791   8.875  12.406
 7615W        W72776  21.399  15.776   1.586
 7616W        W72777   5.250  42.315  10.977
 7617W        W72778  23.183  23.726   2.369
 7618W        W72779  39.010   7.724   0.867
 7619W        W72780   2.888  23.105  11.246
 7620W        W72781   0.720   4.504  12.471
 7621W        W72782  21.320  40.715  14.809
 7622W        W72783  35.944  33.912  14.967
 7623W        W72784   7.497  21.668  13.336
 7624W        W72785  42.414  33.698  14.838
 7625W        W72786  10.871  18.511   0.706
 7626W        W72787  10.309  41.760  13.853
 7627W        W72788  35.630  16.206   4.567
 7628W        W72789  22.099   5.523   1.937
 7629W        W72790  23.279  17.144  11.531
 7630W        W72791  24.471  36.776   0.448
 7631W        W72792   9.445   9.786  13.873
 7632W        W72793  17.334  27.903   3.044
 7633W        W72794  24.094  27.683  14.506
 7634W        W72795  13.349  38.925   3.057
 7635W        W72796  21.241  17.627  14.006
 7636W        W72797  21.006  18.165   0.316
 7637W        W72798  18.707  36.012   4.211
 7638W        W72799  44.042  29.910   3.677
 7639W        W72800  33.065  15.652   4.941
 7640W        W72801  31.540   7.459   2.320
 7641W        W72802   0.049   1.626  11.929
 7642W        W72803  40.810  16.380  14.726
 7643W        W72804   7.427   1.862  12.097
 7644W        W72805  32.730  26.970  10.771
 7645W        W72806  22.512   9.723  14.369
 7646W        W72807  34.882  20.574  14.086
 7647W        W72808  20.885  22.164   0.369
 7648W        W72809  19.093  41.254   1.375
 7649W        W72810  35.874  37.493  12.088
 7650W        W72811  41.579  27.205   0.353
 7651W        W72812  18.090  14.991  12.100
 7652W        W72813  27.990  13.633  13.980
 7653W        W72814  41.888  23.661  14.974
 7654W        W72815  28.752   3.306   1.971
 7655W        W72816  41.301  18.756   0.765
 7656W        W72817  25.168   7.706   0.366
 7657W        W72818  21.127  36.985   0.548
 7658W        W72819   9.200   8.459  10.885
 7659W        W72820  31.296  40.392  10.655
 7660W        W72821  21.355   9.863   0.358
 7661W        W72822  29.126  20.984  14.725
 7662W        W72823  13.295  12.068   4.378
 7663W        W72824   6.439  40.284  11.488
 7664W        W72825  25.351  41.308   0.961
 7665W        W72826  41.815  40.359   0.287
 7666W        W72827   4.658  27.693   0.808
 7667W        W72828  11.712  21.708  10.926
 7668W        W72829   8.905   8.631   4.380
 7669W        W72830  30.480   6.178   4.175
 7670W        W72831   4.918  11.064  14.000
 7671W        W72832  30.106  12.170   2.757
 7672W        W72833  23.429  27.822  10.929
 7673W        W72834   0.224  35.913   2.052
 7674W        W72835  35.825  29.679  13.900
 7675W        W72836   9.745  41.765   2.878
 7676W        W72837  20.992   6.740   4.523
 7677W        W72838  22.686  30.116  13.446
 7678W        W72839  21.064  36.021   2.770
 7679W        W72840  38.010  18.320   4.691
 7680W        W72841  41.281  26.677   2.374
 7681W        W72842   2.334  10.216   5.177
 7682W        W72843  31.624   1.170   1.325
 7683W        W72844  24.491  37.678  13.764
 7684W        W72845  10.326  39.126   2.384
 7685W        W72846  11.657   3.312  14.773
 7686W        W72847  39.138  30.617  10.501
 7687W        W72848   6.640  18.208   2.681
 7688W        W72849  10.164  14.096  12.533
 7689W        W72850  17.165  18.611  14.790
 7690W        W72851  11.581  37.547  14.318
 7691W        W72852  14.508   8.972   5.121
 7692W        W72853  37.448  44.896  11.643
 7693W        W72854  11.689   4.401  14.351
 7694W        W72855  34.635  35.633  12.420
 7695W        W72856   9.799   0.202  13.728
 7696W        W72857  28.173  40.301  10.906
 7697W        W72858  22.967  30.439  12.488
 7698W        W72859  20.922  41.834  14.289
 7699W        W72860  43.272  27.947   3.142
 7700W        W72861  23.554   8.320  14.712
 7701W        W72862  20.834  44.857   2.302
 7702W        W72863   4.486  37.922   4.409
 7703W        W72864  34.165   3.985   4.183
 7704W        W72865  16.552  19.537   4.526
 7705W        W72866   7.370  25.749   1.746
 7706W        W72867  31.625  27.505   0.833
 7707W        W72868   1.261  31.847  11.394
 7708W        W72869  43.124  27.953   0.866
 7709W        W72870   0.437  28.314   3.124
 7710W        W72871   8.445  41.452  14.484
 7711W        W72872  29.542  39.437   4.575
 7712W        W72873  20.595  13.320  11.008
 7713W        W72874  25.278  27.662   0.617
 7714W        W72875  14.163  12.108  11.495
 7715W        W72876  21.010  43.915  13.682
 7716W        W72877   6.486   8.814  13.057
 7717W        W72878   5.000  31.149   3.362
 7718W        W72879   4.659   3.419   1.758
 7719W        W72880  39.107   5.304  12.322
 7720W        W72881  16.968  21.972   3.697
 7721W        W72882  30.979   1.825  11.965
 7722W        W72883   9.587  37.007   4.938
 7723W        W72884  26.984  34.283  13.419
 7724W        W72885   8.437  19.799   0.668
 7725W        W72886  31.262  13.617  12.032
 7726W        W72887  42.575   5.528  11.883
 7727W        W72888  39.725  23.563  11.839
 7728W        W72889   7.673   5.664   0.529
 7729W        W72890  34.434  36.530  10.450
 7730W        W72891  40.308  43.975   1.786
 7731W        W72892  37.218  18.954   2.052
 7732W        W72893  25.450  37.128   3.011
 7733W        W72894   0.288   8.756  11.542
 7734W        W72895   9.329   0.709  10.736
 7735W        W72896  34.183  10.966  11.185
 7736W        W72897  21.140  23.250  13.986
 7737W        W72898   2.374  27.668   0.494
 7738W        W72899  40.490  24.581   1.216
 7739W        W72900  43.806  33.968  10.757
 7740W        W72901  27.413  19.400   3.668
 7741W        W72902  28.130  15.941  12.437
 7742W        W72903  20.195  10.558  11.029
 7743W        W72904   6.733   8.733  13.502
 7744W        W72905  19.524   3.736   3.391
 7745W        W72906  39.525  12.411  11.181
 7746W        W72907   9.273  35.042  14.957
 7747W        W72908  18.053  37.390  11.154
 7748W        W72909  36.712  24.600   1.785
 7749W        W72910  13.112   7.394  11.184
 7750W        W72911   5.863  22.201  14.263
 7751W        W72912  10.549  25.223   0.350
 7752W        W72913  13.723  36.426  14.578
 7753W        W72914  13.754  44.824   3.268
 7754W        W72915   5.215  20.349  13.617
 7755W        W72916  17.451  20.198  13.940
 7756W        W72917   3.683  35.738   1.408
 7757W        W72918  38.767  34.843   4.551
 7758W        W72919  34.733   4.108   2.753
 7759W        W72920  37.500  19.306   1.807
 7760W        W72921   0.433  11.193  11.336
 7761W        W72922  42.106   8.950  11.099
 7762W        W72923  39.481  39.402  10.796
 7763W        W72924  28.386  26.078   0.855
 7764W        W72925  19.122  43.639   0.840
 7765W        W72926  29.518  40.040   1.173
 7766W        W72927  20.078  31.052  14.730
 7767W        W72928  25.522  43.350   3.228
 7768W        W72929  27.236  10.705   1.874
 7769W        W72930  20.344  22.616   2.383
 7770W        W72931  32.392   7.926  12.253
 7771W        W72932  43.980  20.063  13.057
 7772W        W72933  12.721  12.077   3.170
 7773W        W72934   7.354  26.053   2.594
 7774W        W72935  25.480  36.453  14.746
 7775W        W72936  30.446   5.373  14.851
 7776W        W72937   0.761  12.183   3.123
 7777W        W72938  13.317  42.366  11.680
 7778W        W72939  30.846   9.138  14.763
 7779W        W72940  25.892  22.120  13.111
 7780W        W72941   4.955  24.040  13.284
 7781W        W72942  36.383   1.834  12.631
 7782W        W72943  33.492  43.422   5.296
 7783W        W72944  41.534  42.095   3.099
 7784W        W72945  38.015  21.071  13.478
 7785W        W72946  22.855  23.952  14.449
 7786W        W72947  32.092  42.271   1.801
 7787W        W72948   0.997  40.416  12.888
 7788W        W72949  16.577   5.751   4.076
 7789W        W72950  12.730   9.152  10.723
 7790W        W72951  13.806   5.074   3.335
 7791W        W72952  38.008  12.349  11.466
 7792W        W72953  23.017  12.434   1.813
 7793W        W72954  25.452   1.496   2.175
 7794W        W72955  19.126  41.799   0.337
 7795W        W72956  27.282  32.999   3.585
 7796W        W72957  23.022  34.443   3.287
 7797W        W72958  29.875  34.590  11.997
 7798W        W72959  36.991   9.820  10.768
 7799W        W72960  25.221  42.491   4.537
 7800W        W72961  23.614   6.716   0.437
 7801W        W72962  35.087  17.467  13.387
 7802W        W72963   1.797   7.708  11.693
 7803W        W72964   6.177  33.543  10.045
 7804W        W72965   8.630  37.780   3.802
 7805W        W72966  26.109  15.296  14.434
 7806W        W72967   7.630  32.593   1.373
 7807W        W72968  41.301  19.824  13.394
 7808W        W72969  25.540   9.722   2.696
 7809W        W72970  20.304  37.642  11.889
 7810W        W72971  21.726  15.631  13.032
 7811W        W72972  30.357  12.903   1.200
 7812W        W72973   7.293  17.806  13.297
 7813W        W72974  23.870   7.771  11.999
 7814W        W72975   1.909  43.485   3.100
 7815W        W72976  35.802  15.637   0.386
 7816W        W72977  17.159  43.633   2.356
 7817W        W72978  38.130   1.259  11.886
 7818W        W72979  31.541  39.712   3.121
 7819W        W72980  24.653  36.228   3.171
 7820W        W72981  12.692  44.421   1.644
 7821W        W72982  28.657  11.391  11.367
 7822W        W72983  42.254   4.125  14.744
 7823W        W72984  39.872  38.664  14.771
 7824W        W72985  10.089  15.360  11.921
 7825W        W72986   1.969   3.387   1.890
 7826W        W72987  29.472  12.926   3.105
 7827W        W72988  38.092  21.533  11.911
 7828W        W72989  35.351  15.403   3.685
 7829W        W72990  22.601  44.981   4.714
 7830W        W72991  30.115  10.960   0.336
 7831W        W72992   6.896  26.868   0.273
 7832W        W72993  30.265  14.635   0.687
 7833W        W72994  18.777  27.056   3.551
 7834W        W72995  25.767   0.187  14.464
 7835W        W72996  40.160  30.024   4.064
 7836W        W72997   2.801  18.086   4.190
 7837W        W72998  37.951  19.541   1.845
 7838W        W72999   5.486  18.524  14.411
 7839W        W73000  18.320   2.541   0.338
 7840W        W73001  13.197   4.951   1.558
 7841W        W73002  44.762  25.366   4.662
 7842W        W73003  31.216  13.996   0.573
 7843W        W73004  35.073   8.751   5.317
 7844W        W73005  16.780  24.555  10.846
 7845W        W73006   6.179  32.992   2.674
 7846W        W73007  42.405  42.366   4.079
 7847W        W73008  43.402  25.968   2.383
 7848W        W73009  21.230  24.638  14.973
 7849W        W73010  41.592  42.343   2.144
 7850W        W73011  39.207  16.883  11.311
 7851W        W73012  37.621  35.833   3.548
 7852W        W73013  29.379   0.271   2.642
 7853W        W73014  41.040  20.497  11.218
 7854W        W73015  26.799  26.519  12.026
 7855W        W73016  39.964  32.389  10.664
 7856W        W73017   9.740  36.564   4.689
 7857W        W73018   3.440  29.344   2.939
 7858W        W73019  19.734  33.585   2.976
 7859W        W73020  22.225  17.331   3.156
 7860W        W73021  20.335  14.261   2.267
 7861W        W73022  40.417  44.235   1.307
 7862W        W73023  30.826  38.323   4.324
 7863W        W73024  40.460  36.501   2.853
 7864W        W73025  36.932  22.441  13.035
 7865W        W73026  26.973  31.578   3.575
 7866W        W73027   4.917  16.281   4.478
 7867W        W73028  30.960  21.047   2.079
 7868W        W73029  16.197  28.008   2.345
 7869W        W73030  13.871  34.647   0.078
 7870W        W73031  20.580  19.755   0.831
 7871W        W73032  35.419  23.930   1.920
 7872W        W73033  27.961  44.881   1.515
 7873W        W73034  17.723  31.625  11.429
 7874W        W73035  21.281   5.968  14.319
 7875W        W73036  24.047  42.258  12.869
 7876W        W73037  10.130  39.045   0.435
 7877W        W73038  15.683  37.741  10.712
 7878W        W73039  33.356  17.354  10.314
 7879W        W73040  38.999  35.042  13.875
 7880W        W73041  15.718  21.944   2.248
 7881W        W73042  44.327  19.680  13.192
 7882W        W73043  40.298   7.361  11.636
 7883W        W73044  25.862   4.322  14.941
 7884W        W73045  31.413  25.736  13.998
 7885W        W73046  14.086  31.423  14.445
 7886W        W73047   0.768   3.388  14.619
 7887W        W73048  14.625  23.199   4.591
 7888W        W73049  18.595  31.521  13.812
 7889W        W73050  21.468  43.286   4.364
 7890W        W73051  19.149  43.761  14.500
 7891W        W73052  40.422   4.776  12.328
 7892W        W73053  23.620  21.505  11.987
 7893W        W73054  26.521  39.661  13.384
 7894W        W73055  30.056   0.697   2.795
 7895W        W73056  19.328  43.067   2.214
 7896W        W73057   0.136  29.178   3.164
 7897W        W73058  20.525  22.385  10.134
 7898W        W73059  23.599  21.493  13.408
 7899W        W73060   4.970  40.232   1.886
 7900W        W73061  27.551  31.220  10.772
 7901W        W73062   5.184   2.686  13.114
 7902W        W73063  21.614   7.622  12.137
 7903W        W73064  29.526  15.440   2.753
 7904W        W73065  13.808  31.437   0.544
 7905W        W73066  17.606  32.945  12.622
 7906W        W73067  12.448  22.188  14.446
 7907W        W73068  28.123  28.754   4.721
 7908W        W73069  44.018   0.142   2.263
 7909W        W73070  18.565  29.680  11.441
 7910W        W73071   1.031   8.406  10.678
 7911W        W73072  34.196   3.116  10.996
 7912W        W73073  28.996  16.354   3.669
 7913W        W73074  29.627  33.469   4.074
 7914W        W73075  17.565  22.529  12.066
 7915W        W73076   8.409  42.458   4.486
 7916W        W73077  37.922  18.955  14.317
 7917W        W73078  38.360   3.946   2.792
 7918W        W73079  16.836  35.045   4.169
 7919W        W73080  22.547   9.438   3.278
 7920W        W73081  31.419  26.829  10.795
 7921W        W73082  23.004  15.608   1.811
 7922W        W73083   6.794  24.953   4.480
 7923W        W73084  34.074   2.997   2.893
 7924W        W73085  44.235  17.215  13.851
 7925W        W73086  35.608  22.805   0.384
 7926W        W73087  38.985  11.075  12.120
 7927W        W73088  39.945   8.113   2.344
 7928W        W73089  44.409  36.553  13.574
 7929W        W73090  25.062   7.592  14.458
 7930W        W73091  26.084  26.406  13.545
 7931W        W73092   9.184  32.148   3.137
 7932W        W73093  34.591  18.406   1.171
 7933W        W73094  25.011  44.749   4.240
 7934W        W73095  21.042  21.503  10.602
 7935W        W73096  31.694  24.881   1.170
 7936W        W73097  39.119  28.237  12.034
 7937W        W73098  23.160   8.401  14.365
 7938W        W73099  15.586  11.681  13.807
 7939W        W73100  11.431  11.742  12.477
 7940W        W73101   3.431  34.821   2.214
 7941W        W73102  10.691  40.517   4.640
 7942W        W73103   1.715   1.144  12.530
 7943W        W73104  21.293  21.043  11.547
 7944W        W73105  44.895  26.488  14.529
 7945W        W73106  23.103  42.071  10.121
 7946W        W73107  34.065  25.307  13.516
 7947W        W73108  20.998  29.410   4.127
 7948W        W73109  30.172  22.571  14.417
 7949W        W73110  28.651  41.373  11.516
 7950W        W73111  30.936  16.243   1.518
 7951W        W73112  25.104   7.398   0.789
 7952W        W73113  43.848   1.817   3.816
 7953W        W73114  30.585  37.193  14.914
 7954W        W73115   7.328  44.458  14.485
 7955W        W73116  42.177  19.048  13.004
 7956W        W73117   3.881  29.876  14.775
 7957W        W73118  28.396  44.890  13.341
 7958W        W73119   7.340  35.855   0.439
 7959W        W73120  10.873  42.081   3.064
 7960W        W73121  28.432   5.035  10.680
 7961W        W73122  30.471   6.739   2.728
 7962W        W73123   4.937  20.916   3.258
 7963W        W73124  15.819  29.702   0.413
 7964W        W73125   3.364  12.124  12.835
 7965W        W73126   4.143  38.871  14.384
 7966W        W73127   0.481  13.637   2.768
 7967W        W73128   1.303  42.307   1.664
 7968W        W73129   2.288   1.890   0.494
 7969W        W73130  20.931  11.121   3.108
 7970W        W73131  26.434  35.606   3.685
 7971W        W73132   6.879  37.831   0.778
 7972W        W73133  32.071  19.701  14.822
 7973W        W73134  32.319  44.807   4.177
 7974W        W73135   4.699  21.178  13.441
 7975W        W73136  10.972  38.449  14.299
 7976W        W73137  27.404  26.511   2.043
 7977W        W73138   2.015  34.447   1.768
 7978W        W73139  39.745  16.320   2.267
 7979W        W73140   4.306  37.051   4.612
 7980W        W73141  43.431  41.499  14.544
 7981W        W73142  30.339  26.442  12.442
 7982W        W73143  36.537  22.099  10.959
 7983W        W73144  41.901   1.800   2.304
 7984W        W73145   6.183   6.393   4.026
 7985W        W73146   8.936  27.084  12.459
 7986W        W73147   9.729  16.181  12.854
 7987W        W73148   7.412  10.707   4.121
 7988W        W73149  11.147  14.969   2.959
 7989W        W73150  33.425   6.563  10.801
 7990W        W73151  32.666  30.726  12.924
 7991W        W73152  35.391   5.557   0.390
 7992W        W73153  38.901  25.772   0.528
 7993W        W73154  43.383   0.489   3.804
 7994W        W73155  33.545  28.053   0.271
 7995W        W73156  32.687  44.141   0.800
 7996W        W73157  28.922  13.276   3.735
 7997W        W73158   1.296  14.854   3.442
 7998W        W73159  27.087  18.566   1.232
 7999W        W73160  35.477  13.007   4.074
 8000W        W73161  14.992  23.576   4.654
 8001W        W73162   5.722   5.329   2.338
 8002W        W73163  17.970  27.748  12.586
 8003W        W73164  31.654  41.790   0.835
 8004W        W73165  31.990  15.020   2.223
 8005W        W73166  35.380  33.411   3.099
 8006W        W73167  30.370  29.361   3.229
 8007W        W73168   6.808  16.751   0.430
 8008W        W73169  37.328  38.782  14.082
 8009W        W73170  29.063  17.168  12.104
 8010W        W73171  15.742   5.655   0.061
 8011W        W73172  38.234  35.592   4.626
 8012W        W73173  32.478   5.743  11.201
 8013W        W73174  16.813  21.310  12.498
 8014W        W73175   5.032  33.595   0.769
 8015W        W73176  20.735  13.456   4.787
 8016W        W73177   6.303  20.549   2.649
 8017W        W73178  19.706   7.902   0.797
 8018W        W73179  29.201  33.918   0.695
 8019W        W73180  10.667  40.338   3.289
 8020W        W73181  30.813  36.501   4.884
 8021W        W73182  19.660  14.489  14.705
 8022W        W73183  10.864  34.953  10.608
 8023W        W73184  14.260  12.124   3.534
 8024W        W73185   4.144   2.268   4.209
 8025W        W73186  26.673  40.068  14.766
 8026W        W73187   5.500  35.633  13.766
 8027W        W73188   1.277  11.295   9.873
 8028W        W73189  38.317  12.495   1.265
 8029W        W73190  44.312  39.612  11.670
 8030W        W73191  43.755  21.470   4.609
 8031W        W73192  43.588  34.291  12.960
 8032W        W73193   5.349  24.676   0.905
 8033W        W73194  43.939  22.829   3.339
 8034W        W73195  36.357  36.492  10.683
 8035W        W73196   3.417   0.549   4.591
 8036W        W73197  12.213   1.939   0.404
 8037W        W73198   9.181   6.659   3.653
 8038W        W73199  18.730  33.478   1.977
 8039W        W73200  25.756  14.717   0.344
 8040W        W73201  31.182  19.794  11.758
 8041W        W73202  22.989   3.304   2.729
 8042W        W73203  27.529  27.463  13.952
 8043W        W73204  21.510  17.863  14.370
 8044W        W73205  41.018  16.621  10.744
 8045W        W73206  13.181  16.692   1.282
 8046W        W73207  35.786   6.724   4.024
 8047W        W73208  11.474  33.359   1.081
 8048W        W73209   0.560  37.879  13.646
 8049W        W73210  24.958  28.097  12.582
 8050W        W73211  11.702  40.818   0.348
 8051W        W73212   5.407  33.476   3.680
 8052W        W73213   1.876   1.769   4.081
 8053W        W73214  12.050  16.415  11.721
 8054W        W73215  43.649  16.609  12.891
 8055W        W73216   0.439  12.937   2.224
 8056W        W73217  23.923  10.241  12.441
 8057W        W73218  32.901  33.140   2.171
 8058W        W73219   6.276  24.026  14.316
 8059W        W73220  37.032  43.171   1.370
 8060W        W73221  34.032   1.440   0.307
 8061W        W73222   1.481  38.923   4.045
 8062W        W73223  41.216  44.657   3.203
 8063W        W73224  41.359   7.394   2.838
 8064W        W73225   9.259  25.685   0.709
 8065W        W73226  30.903  10.993  13.430
 8066W        W73227  35.045  14.114   4.634
 8067W        W73228  21.046  30.457  11.245
 8068W        W73229  33.677  22.955   4.466
 8069W        W73230  25.094  23.617   1.880
 8070W        W73231  21.554  21.553   0.433
 8071W        W73232   4.864  33.833   2.021
 8072W        W73233  29.380  23.682   1.728
 8073W        W73234  43.387  22.530   1.685
 8074W        W73235   9.000  44.267  10.227
 8075W        W73236   8.191  41.019   0.480
 8076W        W73237  37.963  27.259   3.352
 8077W        W73238  20.443  18.703  13.935
 8078W        W73239   1.764   7.197  14.920
 8079W        W73240  35.343  19.200   1.929
 8080W        W73241  28.085  33.876   1.943
 8081W        W73242  38.038  29.420  12.017
 8082W        W73243  19.105   6.226   1.833
 8083W        W73244  27.042  27.415  13.772
 8084W        W73245  37.754  30.935  10.857
 8085W        W73246  29.913  12.591  10.705
 8086W        W73247   3.669  24.990  11.131
 8087W        W73248  38.999  11.265   4.668
 8088W        W73249  19.848  37.903   1.441
 8089W        W73250  17.050   2.170  13.802
 8090W        W73251  24.917   7.107  14.352
 8091W        W73252  11.782  17.634   0.429
 8092W        W73253   0.506  28.110  12.487
 8093W        W73254  37.671  20.184  12.016
 8094W        W73255   0.263  10.739  14.977
 8095W        W73256  43.765   6.577   0.777
 8096W        W73257  20.769  10.354  12.136
 8097W        W73258  10.502  13.785   4.129
 8098W        W73259   2.847  42.956  14.504
 8099W        W73260  42.208  32.977  14.191
 8100W        W73261  28.946   6.411   1.276
 8101W        W73262  39.916  25.266  12.794
 8102W        W73263  24.046  28.150  12.509
 8103W        W73264  38.720  17.662  11.281
 8104W        W73265  43.917  39.471  10.519
 8105W        W73266  33.331  34.591  11.050
 8106W        W73267  18.354  40.559   0.425
 8107W        W73268  23.146  28.888   1.160
 8108W        W73269   1.311  22.619  13.561
 8109W        W73270  22.283  28.148  14.344
 8110W        W73271  43.555  34.541  14.801
 8111W        W73272  12.343  24.636  11.737
 8112W        W73273   0.741  42.193   2.874
 8113W        W73274   7.250  12.137   4.110
 8114W        W73275  22.043   0.274   3.592
 8115W        W73276  33.478   2.865   5.282
 8116W        W73277  27.620  14.343   0.867
 8117W        W73278   7.625   3.002  13.421
 8118W        W73279  13.124  39.010  10.388
 8119W        W73280  28.462  43.358  14.218
 8120W        W73281  20.661   5.835   2.742
 8121W        W73282  38.478  27.570   3.404
 8122W        W73283  43.458   0.759  12.281
 8123W        W73284  32.966   8.775   3.707
 8124W        W73285  23.643  11.114  13.602
 8125W        W73286  31.311  30.651  14.427
 8126W        W73287  31.397  40.457   4.722
 8127W        W73288  14.340  16.218  13.077
 8128W        W73289  12.208   2.377  12.504
 8129W        W73290  27.394  13.241  12.923
 8130W        W73291  19.995  37.894   4.879
 8131W        W73292  40.823  28.912   2.851
 8132W        W73293  24.522  39.489  12.055
 8133W        W73294  22.493  10.892   2.834
 8134W        W73295  37.854  29.138  11.123
 8135W        W73296  21.976  44.807  11.044
 8136W        W73297  12.752  10.890  12.513
 8137W        W73298   5.913  13.689  14.871
 8138W        W73299  27.876  34.919  10.494
 8139W        W73300  14.104  34.149   4.347
 8140W        W73301  15.702   3.730  13.925
 8141W        W73302  33.564  23.075   1.516
 8142W        W73303  39.797  20.792   3.218
 8143W        W73304  41.971  40.081  14.324
 8144W        W73305  33.102  35.669   3.259
 8145W        W73306   5.231  41.025  14.058
 8146W        W73307  24.172   8.952  14.167
 8147W        W73308  10.573  33.635  10.900
 8148W        W73309  10.410  17.986   9.849
 8149W        W73310   4.723  25.250   0.923
 8150W        W73311  24.039  42.036  14.968
 8151W        W73312  42.311  31.980  13.484
 8152W        W73313  38.006  23.298  10.726
 8153W        W73314  40.011   9.781   4.884
 8154W        W73315  13.598  31.042  12.322
 8155W        W73316   2.839  10.328  12.405
 8156W        W73317  18.617  11.044   3.756
 8157W        W73318  24.219  44.437  12.695
 8158W        W73319  23.427  33.896  12.016
 8159W        W73320  26.528   1.355   3.154
 8160W        W73321  38.145  13.620   3.450
 8161W        W73322  42.027  14.133   2.489
 8162W        W73323  37.370  20.807   1.624
 8163W        W73324  24.938  29.861   0.877
 8164W        W73325  24.037  40.806   3.966
 8165W        W73326  23.604  42.245  13.133
 8166W        W73327  35.761   8.925  13.030
 8167W        W73328  23.758  22.605   1.387
 8168W        W73329  30.744  38.856  11.663
 8169W        W73330  38.373   4.251  11.746
 8170W        W73331  21.741  27.624   0.989
 8171W        W73332  36.289  40.824  13.297
 8172W        W73333  19.695  13.893   4.140
 8173W        W73334  15.750   6.333  12.434
 8174W        W73335  26.057  29.556  14.784
 8175W        W73336  31.094   7.720   3.360
 8176W        W73337  23.989   9.649  12.449
 8177W        W73338  14.376  21.535   2.773
 8178W        W73339  16.173   3.514  13.808
 8179W        W73340  40.145   2.660  14.823
 8180W        W73341  11.804  24.249   2.243
 8181W        W73342  22.120  13.378   2.680
 8182W        W73343  43.775  34.138  11.235
 8183W        W73344   1.231  17.378   4.481
 8184W        W73345  26.029  43.248   0.366
 8185W        W73346  16.621   5.652   4.703
 8186W        W73347  28.826  22.483   2.870
 8187W        W73348  42.879  17.653   1.901
 8188W        W73349  40.960  44.717   3.685
 8189W        W73350  41.842  13.774  10.665
 8190W        W73351   4.793  20.136   1.249
 8191W        W73352   6.755  20.488   0.933
 8192W        W73353  38.000  43.403   2.381
 8193W        W73354  32.678   1.377  13.347
 8194W        W73355  22.361  38.505  13.582
 8195W        W73356  20.639  19.284  14.827
 8196W        W73357   9.676  38.763  14.000
 8197W        W73358   8.956   9.690  12.951
 8198W        W73359   6.287   4.040   2.691
 8199W        W73360  36.664  42.943   4.096
 8200W        W73361   8.160  31.846  14.352
 8201W        W73362  33.121  30.997   0.920
 8202W        W73363  11.684   7.320  11.881
 8203W        W73364  40.252  11.813   4.380
 8204W        W73365  31.346   6.627   1.700
 8205W        W73366   9.348  33.872   4.681
 8206W        W73367  28.038  17.965   9.874
 8207W        W73368   1.642  17.096   3.591
 8208W        W73369  19.717   2.400  12.105
 8209W        W73370  19.241  34.318  13.504
 8210W        W73371  43.733  10.570  12.554
 8211W        W73372  32.154  34.940  13.337
 8212W        W73373  28.409  12.161   2.111
 8213W        W73374  34.975  20.052  10.923
 8214W        W73375  23.741   2.554  13.060
 8215W        W73376  15.101  44.013   3.692
 8216W        W73377  39.905  29.686   0.892
 8217W        W73378  19.448  39.307   9.820
 8218W        W73379  44.061   7.836   1.233
 8219W        W73380  26.430  23.256  12.998
 8220W        W73381   3.535   9.820  14.261
 8221W        W73382  13.625   6.355   1.802
 8222W        W73383  32.423  44.938  12.994
 8223W        W73384  33.284  20.782  10.723
 8224W        W73385  30.474  43.752  12.848
 8225W        W73386  29.905  20.458  11.071
 8226W        W73387  36.957  11.832   4.256
 8227W        W73388  13.478  23.794  10.357
 8228W        W73389  24.260  11.445  11.795
 8229W        W73390  16.182  34.081   3.605
 8230W        W73391  30.157  42.278  13.920
 8231W        W73392  43.290  16.818  11.654
 8232W        W73393  22.036   5.363   0.738
 8233W        W73394  34.882  30.612   3.509
 8234W        W73395  34.397  17.161  10.563
 8235W        W73396  35.295   3.341   1.171
 8236W        W73397  14.131  41.975  12.958
 8237W        W73398   2.742  37.273   3.728
 8238W        W73399  22.101  20.232  12.361
 8239W        W73400  43.592  42.323   0.829
 8240W        W73401  23.181  24.222   4.532
 8241W        W73402  25.576  36.678  11.929
 8242W        W73403  24.710  43.130  11.429
 8243W        W73404  38.429  36.532  10.670
 8244W        W73405  41.097  27.146  11.511
 8245W        W73406  23.155  36.909  13.121
 8246W        W73407   7.823  31.842  11.591
 8247W        W73408  17.764   6.441   0.513
 8248W        W73409   3.791  15.508   2.758
 8249W        W73410  32.481  11.148   2.818
 8250W        W73411  25.143  33.200   2.732
 8251W        W73412  31.903   5.256  10.637
 8252W        W73413  33.597  25.362  14.211
 8253W        W73414  32.461   9.198  11.603
 8254W        W73415  18.585  43.544   0.310
 8255W        W73416  21.934  10.869   1.775
 8256W        W73417   0.504  21.090   3.222
 8257W        W73418  41.754  17.849  14.724
 8258W        W73419  37.168   3.380   5.309
 8259W        W73420  14.169   3.373  11.993
 8260W        W73421  15.683   1.506  11.851
 8261W        W73422   4.467  17.044   4.376
 8262W        W73423  12.987   9.949  11.571
 8263W        W73424   5.585  31.545   2.809
 8264W        W73425  42.820  36.766   2.411
 8265W        W73426  13.848  43.494   2.758
 8266W        W73427  10.392  37.910   4.496
 8267W        W73428  43.662  23.643   4.615
 8268W        W73429  28.034  19.785   4.094
 8269W        W73430  34.941   9.378  12.466
 8270W        W73431  25.214  22.548   2.696
 8271W        W73432  31.910  43.494  13.823
 8272W        W73433  19.168  31.416   2.087
 8273W        W73434  24.215   7.858   4.277
 8274W        W73435  11.804   9.797   0.845
 8275W        W73436  42.958  37.127   2.751
 8276W        W73437  43.899  24.430   4.256
 8277W        W73438  25.027   3.201   5.100
 8278W        W73439   7.833  27.412  11.640
 8279W        W73440  11.359   4.747  11.489
 8280W        W73441   1.022  33.995  13.892
 8281W        W73442  34.129   3.728   1.933
 8282W        W73443   3.976  13.542   2.834
 8283W        W73444  41.347  28.401   4.819
 8284W        W73445  21.704  29.383   3.653
 8285W        W73446  28.219  28.179  14.350
 8286W        W73447   3.455   2.975  14.100
 8287W        W73448   5.758  37.551   0.450
 8288W        W73449  20.573  14.139  14.976
 8289W        W73450  43.862  27.575  14.361
 8290W        W73451   3.816  27.577  12.542
 8291W        W73452   4.917  37.438  11.148
 8292W        W73453  32.920  42.996   4.631
 8293W        W73454  17.080  23.344  13.112
 8294W        W73455  30.981  16.443  12.446
 8295W        W73456   7.845  41.423  12.440
 8296W        W73457   2.532  28.138   0.349
 8297W        W73458  29.112   6.254  11.927
 8298W        W73459   2.499  13.536   9.815
 8299W        W73460  17.763   7.803   2.615
 8300W        W73461  23.507   6.784   3.037
 8301W        W73462  37.847  21.532  12.357
 8302W        W73463  44.202  16.531   4.104
 8303W        W73464  11.712  40.396   1.910
 8304W        W73465   6.293  23.868  10.218
 8305W        W73466  10.770  30.180   3.193
 8306W        W73467   2.210  22.155  13.760
 8307W        W73468  11.218   8.872   2.144
 8308W        W73469   4.404  17.639  11.212
 8309W        W73470  11.140  44.255  14.795
 8310W        W73471  26.083  23.692  14.344
 8311W        W73472  28.425   3.701   4.249
 8312W        W73473  41.813  15.067  12.117
 8313W        W73474  43.386   8.189  10.822
 8314W        W73475  21.428  26.018   4.362
 8315W        W73476  32.251  34.742  11.999
 8316W        W73477  23.010  23.654   3.647
 8317W        W73478   6.219  37.804   0.407
 8318W        W73479  37.999  35.889   1.387
 8319W        W73480  43.342  40.046  12.421
 8320W        W73481  42.281  34.009  13.326
 8321W        W73482  31.525  28.007   5.035
 8322W        W73483  18.902  25.480  11.702
 8323W        W73484  26.546  13.310   0.011
 8324W        W73485  14.267  29.253  12.639
 8325W        W73486  20.271  38.476  14.245
 8326W        W73487   3.843  15.151  14.749
 8327W        W73488   2.964  34.636   2.101
 8328W        W73489   2.360  31.016   1.268
 8329W        W73490   3.834  34.523   3.757
 8330W        W73491  32.865  12.285  13.913
 8331W        W73492  35.845  24.280  12.460
 8332W        W73493   9.894   0.881  13.072
 8333W        W73494   1.853   4.083   3.728
 8334W        W73495   9.579  21.164   3.533
 8335W        W73496  18.643   6.524  12.732
 8336W        W73497  23.024   5.269   0.975
 8337W        W73498  28.273  40.825  11.038
 8338W        W73499   5.715   1.682   1.626
 8339W        W73500  13.593  23.703  12.138
 8340W        W73501  43.408  37.010   1.806
 8341W        W73502  24.019  35.211  11.196
 8342W        W73503  16.112  38.401  12.129
 8343W        W73504  22.685  31.045   3.808
 8344W        W73505  26.041  27.700  11.048
 8345W        W73506  32.142   3.328  14.908
 8346W        W73507  38.067   6.459  11.194
 8347W        W73508  19.180   2.454  10.863
 8348W        W73509  30.917   0.476   2.735
 8349W        W73510   1.950   7.135  13.304
 8350W        W73511  34.147  19.723  12.534
 8351W        W73512  24.433  44.716   0.212
 8352W        W73513  36.333  19.174   4.752
 8353W        W73514  12.374   0.558   4.137
 8354W        W73515  18.129  22.021   1.728
 8355W        W73516  22.553   9.930   3.198
 8356W        W73517  22.156   4.538   1.762
 8357W        W73518  38.881   8.745  14.778
 8358W        W73519  26.670  22.119   0.277
 8359W        W73520  14.504   0.915  10.267
 8360W        W73521  23.439  10.459  12.407
 8361W        W73522  42.292  36.526   9.796
 8362W        W73523  12.005   1.692  11.130
 8363W        W73524   1.209  21.125   2.379
 8364W        W73525  11.720  20.801  11.390
 8365W        W73526  20.126  34.730  11.136
 8366W        W73527  38.056  23.798   3.968
 8367W        W73528  43.145  19.026   1.856
 8368W        W73529  43.800   3.270   3.618
 8369W        W73530  20.697  24.690  11.259
 8370W        W73531  27.967  25.825   1.784
 8371W        W73532  42.709   1.779  11.193
 8372W        W73533  15.710  14.203   2.248
 8373W        W73534   0.345   6.354  13.500
 8374W        W73535  15.728  14.172   3.194
 8375W        W73536  28.219  19.624   1.811
 8376W        W73537  18.619  22.387   2.807
 8377W        W73538  35.488   4.853  11.018
 8378W        W73539  28.140  14.289   0.897
 8379W        W73540  41.537  17.052   2.851
 8380W        W73541   8.166   6.141  11.971
 8381W        W73542  12.801   8.770   2.176
 8382W        W73543   1.774  31.626   0.890
 8383W        W73544   5.627   9.644  11.466
 8384W        W73545   2.091  10.737   3.313
 8385W        W73546  20.495   9.270   4.676
 8386W        W73547   1.242  21.068   0.883
 8387W        W73548   1.746  10.268   4.087
 8388W        W73549  20.205  19.219   1.280
 8389W        W73550  38.127  15.171  10.783
 8390W        W73551  29.139  15.236  11.316
 8391W        W73552  16.069  40.549   0.075
 8392W        W73553  27.645  15.785  12.517
 8393W        W73554  38.984  24.052   0.192
 8394W        W73555   5.378  30.943  11.000
 8395W        W73556  42.272   5.664   4.620
 8396W        W73557  24.552  19.915  13.380
 8397W        W73558  27.493   7.937   0.997
 8398W        W73559  22.535   9.861   0.839
 8399W        W73560  26.161  21.607   2.752
 8400W        W73561   7.403   0.795   1.778
 8401W        W73562   7.664  16.547   3.261
 8402W        W73563  14.846  24.516  11.613
 8403W        W73564  15.219  21.976  11.985
 8404W        W73565  14.083  36.356   2.747
 8405W        W73566  22.214  15.570  14.699
 8406W        W73567  41.766   5.952  13.467
 8407W        W73568  29.383  29.960   0.949
 8408W        W73569  22.526  27.956  13.054
 8409W        W73570   1.119  20.724  12.094
 8410W        W73571   9.518  37.328   3.714
 8411W        W73572  41.852  20.027  12.549
 8412W        W73573  12.169  35.450   3.769
 8413W        W73574   3.447  32.186  10.331
 8414W        W73575  38.088  19.753  12.962
 8415W        W73576  26.491  18.061  11.560
 8416W        W73577  15.164  17.571  11.292
 8417W        W73578  33.463   2.230   4.550
 8418W        W73579   2.768  33.483  12.547
 8419W        W73580  21.240   1.772  13.654
 8420W        W73581  24.995  15.269   1.030
 8421W        W73582  24.666   4.894   0.255
 8422W        W73583  35.877  31.094  10.525
 8423W        W73584  18.456   0.922   0.757
 8424W        W73585  44.768   5.410   2.613
 8425W        W73586  43.219  20.421  12.095
 8426W        W73587   3.941   3.314   4.556
 8427W        W73588  10.922  18.626   4.856
 8428W        W73589   2.579  26.563  10.071
 8429W        W73590  19.319  10.290  14.955
 8430W        W73591   5.919  40.553   5.264
 8431W        W73592  12.331  27.948   3.141
 8432W        W73593  34.441  38.072  14.797
 8433W        W73594  15.707  15.828   5.033
 8434W        W73595   3.944  11.681  10.507
 8435W        W73596  12.903  19.406  11.188
 8436W        W73597  31.060  25.956   3.446
 8437W        W73598   1.936  23.269  12.987
 8438W        W73599   6.780  20.526   4.178
 8439W        W73600   6.473  22.177   1.784
 8440W        W73601  31.597  11.224   4.653
 8441W        W73602  15.823  41.282  14.312
 8442W        W73603  29.051  34.062  13.411
 8443W        W73604  37.381  18.969   4.585
 8444W        W73605  38.014  42.728  10.788
 8445W        W73606  12.888  12.851   3.622
 8446W        W73607  23.488  40.985  13.342
 8447W        W73608  41.002  40.186  13.937
 8448W        W73609  38.868  27.483   0.391
 8449W        W73610  22.528  38.579   4.550
 8450W        W73611   2.053   5.136   0.608
 8451W        W73612  14.171  42.500   4.364
 8452W        W73613  40.812  29.176  13.530
 8453W        W73614  26.390  15.293  14.875
 8454W        W73615  14.007  11.226   0.482
 8455W        W73616  43.649  29.934  13.459
 8456W        W73617  21.545   1.401  10.784
 8457W        W73618  15.942   2.045   4.269
 8458W        W73619   7.266  32.359   3.522
 8459W        W73620  30.797  29.274  11.136
 8460W        W73621  28.024  35.628  11.561
 8461W        W73622  31.831  13.836  12.527
 8462W        W73623  24.824  38.385   1.910
 8463W        W73624  23.545  24.694  11.110
 8464W        W73625  32.025   6.746   0.915
 8465W        W73626  15.044  30.687  11.194
 8466W        W73627  15.316  34.790  11.632
 8467W        W73628  10.261  26.099   3.112
 8468W        W73629  19.059  39.446   3.637
 8469W        W73630  33.398   4.175  11.095
 8470W        W73631  33.485   8.327  13.696
 8471W        W73632  33.153   2.492  13.534
 8472W        W73633  42.838  42.255  12.060
 8473W        W73634  30.226  26.405  14.472
 8474W        W73635  21.072   5.598  14.015
 8475W        W73636   2.075   0.757   2.626
 8476W        W73637  30.714  11.670   3.752
 8477W        W73638  35.124  25.724  11.515
 8478W        W73639  11.281  36.074  13.417
 8479W        W73640  30.180  36.168  13.827
 8480W        W73641  13.251  32.360  13.899
 8481W        W73642  13.823  20.745  10.752
 8482W        W73643  14.294  38.346  14.153
 8483W        W73644  29.633   4.734  13.667
 8484W        W73645  15.469   3.385   1.379
 8485W        W73646  24.712  35.778   5.045
 8486W        W73647   5.171  23.130   0.411
 8487W        W73648  15.079  12.847  13.166
 8488W        W73649   3.972  13.708   9.887
 8489W        W73650   2.988  44.278  14.813
 8490W        W73651  28.378  35.030   2.269
 8491W        W73652  35.606  30.967  12.014
 8492W        W73653   3.278  26.880   3.340
 8493W        W73654  32.909   7.644   3.740
 8494W        W73655  21.074  15.072   0.839
 8495W        W73656  27.752  18.690   0.738
 8496W        W73657  43.566  34.854   9.870
 8497W        W73658  31.387  23.807  14.039
 8498W        W73659  39.923   3.689   5.209
 8499W        W73660  34.073  29.028  13.792
 8500W        W73661   6.764   1.996   0.010
 8501W        W73662  38.182  22.912  13.484
 8502W        W73663  13.141  26.105  11.560
 8503W        W73664  36.357   8.441   4.642
 8504W        W73665   2.199  38.854   2.276
 8505W        W73666  17.654  41.958  13.532
 8506W        W73667  14.050   0.366  14.065
 8507W        W73668   7.698  39.059  12.594
 8508W        W73669  39.266  16.373   4.732
 8509W        W73670  15.069   9.247   0.634
 8510W        W73671  10.082   0.106   4.034
 8511W        W73672  28.806  17.552   2.433
 8512W        W73673   0.001  34.997   3.161
 8513W        W73674  14.728  30.401   4.991
 8514W        W73675  41.151  39.575   3.655
 8515W        W73676   8.202  44.446  10.796
 8516W        W73677  30.454  41.736   3.270
 8517W        W73678  15.592  40.857   2.631
 8518W        W73679   6.259  23.714   1.233
 8519W        W73680  15.570  12.742  13.037
 8520W        W73681  21.536  20.647   4.181
 8521W        W73682  17.927   9.512  11.502
 8522W        W73683  34.497   1.596   1.285
 8523W        W73684  43.897   5.142   0.823
 8524W        W73685  32.915  19.589  11.111
 8525W        W73686  26.891  35.732  12.475
 8526W        W73687   9.732  40.009  13.569
 8527W        W73688   1.517   0.784  13.367
 8528W        W73689  29.085  33.810  11.499
 8529W        W73690  17.521  17.211  12.525
 8530W        W73691   7.464   9.262   3.821
 8531W        W73692  39.078   9.684  13.636
 8532W        W73693   0.769  42.576   0.960
 8533W        W73694  12.778  10.351  11.188
 8534W        W73695  11.656   9.334   4.123
 8535W        W73696  17.650  13.386  11.432
 8536W        W73697  40.431  44.221  12.687
 8537W        W73698  39.392  21.653  13.068
 8538W        W73699   0.689  10.342   5.410
 8539W        W73700  22.006  20.728  14.913
 8540W        W73701  14.346  40.824  11.510
 8541W        W73702  41.376  38.535  14.976
 8542W        W73703  31.338  22.337   3.588
 8543W        W73704  37.347   7.410  13.508
 8544W        W73705  43.739  11.484   1.940
 8545W        W73706  21.622   6.303   1.307
 8546W        W73707  28.264  20.592  13.416
 8547W        W73708  36.018   7.676  12.134
 8548W        W73709  31.893   9.866  10.475
 8549W        W73710  29.426  12.643  11.565
 8550W        W73711  12.389  26.726  13.357
 8551W        W73712   5.737   9.492   4.039
 8552W        W73713  39.885  32.041   2.162
 8553W        W73714   0.499  41.468   0.721
 8554W        W73715  14.637  28.463   2.788
 8555W        W73716  12.327  34.049  11.523
 8556W        W73717  34.112  10.495  11.026
 8557W        W73718   6.075  42.507   0.028
 8558W        W73719  15.749  41.522   0.262
 8559W        W73720   4.008  33.705   2.737
 8560W        W73721  11.953  17.208  14.687
 8561W        W73722   1.611   8.140   3.534
 8562W        W73723  39.102   7.502   1.344
 8563W        W73724   7.415  33.184   3.280
 8564W        W73725  10.674  28.054  13.588
 8565W        W73726  22.124  37.841  11.582
 8566W        W73727  36.693   8.020  12.093
 8567W        W73728  20.126  18.026   0.854
 8568W        W73729  11.319  29.580  13.345
 8569W        W73730  37.057  37.389  14.710
 8570W        W73731  10.188   8.753   2.964
 8571W        W73732  25.931  10.857   2.803
 8572W        W73733  18.347  15.213   3.970
 8573W        W73734  11.746  30.189  14.042
 8574W        W73735  11.628  15.503  11.183
 8575W        W73736  12.097  12.155  12.041
 8576W        W73737  23.090   0.417  13.987
 8577W        W73738   3.394  43.445   0.914
 8578W        W73739  41.984  23.550  11.562
 8579W        W73740  29.488  34.032  14.788
 8580W        W73741  21.295  44.619  12.722
 8581W        W73742  28.031  35.034  12.938
 8582W        W73743  22.598   6.291  11.410
 8583W        W73744  14.334  26.423  11.621
 8584W        W73745  28.454   0.026   2.797
 8585W        W73746   1.028  22.696   2.269
 8586W        W73747  18.634  30.088  12.710
 8587W        W73748  28.710  37.806   9.478
 8588W        W73749  14.300  26.387  14.323
 8589W        W73750  16.056  11.436  13.011
 8590W        W73751  26.091  42.514  11.603
 8591W        W73752  39.483   5.873   3.840
 8592W        W73753  31.494   0.404  13.500
 8593W        W73754  18.612  37.666  10.407
 8594W        W73755  15.127  11.385   2.327
 8595W        W73756  41.471   2.946  11.999
 8596W        W73757  15.120   4.194   2.473
 8597W        W73758   4.461   7.970  13.968
 8598W        W73759   8.547  30.312  13.384
 8599W        W73760  22.730  34.117  10.623
 8600W        W73761   5.756   9.626  10.692
 8601W        W73762  11.910  34.526  14.024
 8602W        W73763   2.608  29.413   1.881
 8603W        W73764  21.643  20.198  11.578
 8604W        W73765   1.762  11.588  13.483
 8605W        W73766  15.652  33.452   3.268
 8606W        W73767  16.588   5.836   0.720
 8607W        W73768  43.161  14.772   2.264
 8608W        W73769  28.138  13.295  14.357
 8609W        W73770  13.923  30.154  11.101
 8610W        W73771  10.573  18.922   2.545
 8611W        W73772   4.672  10.254  12.943
 8612W        W73773  41.084  35.413   2.325
 8613W        W73774  32.087  27.208  13.180
 8614W        W73775   3.458   1.825  13.610
 8615W        W73776   1.178  44.823   2.218
 8616W        W73777  37.789  30.424   0.756
 8617W        W73778  31.649   0.388  12.494
 8618W        W73779   1.081  16.181   0.279
 8619W        W73780  15.671  39.119   1.345
 8620W        W73781  33.566  30.028   1.011
 8621W        W73782  24.511  32.979   4.557
 8622W        W73783  17.018  28.871   1.481
 8623W        W73784  15.052  14.819   0.265
 8624W        W73785  16.589   0.895   0.678
 8625W        W73786  31.538  24.018   1.451
 8626W        W73787  42.364   1.223   4.069
 8627W        W73788  17.521   8.262   2.742
 8628W        W73789  23.022  35.556  11.439
 8629W        W73790  33.379  37.398  13.557
 8630W        W73791  41.071  14.558   4.122
 8631W        W73792   7.733   7.715   3.249
 8632W        W73793  18.118   6.325   1.393
 8633W        W73794  24.008  23.286   5.291
 8634W        W73795   1.211  33.835   2.779
 8635W        W73796  26.672  23.170   9.567
 8636W        W73797  25.196  19.207  14.974
 8637W        W73798  19.434  38.314   0.602
 8638W        W73799  11.210  43.807  12.563
 8639W        W73800  37.545  35.333   0.723
 8640W        W73801  41.457  38.439   2.884
 8641W        W73802  27.830  12.388  12.025
 8642W        W73803  28.694  11.848   1.756
 8643W        W73804  20.133  22.644   0.245
 8644W        W73805  19.695  41.551   2.728
 8645W        W73806  34.965  14.769  10.662
 8646W        W73807  26.004   6.975  11.070
 8647W        W73808  35.233  21.244   2.219
 8648W        W73809  11.201  15.297   0.701
 8649W        W73810  33.671  26.171  14.494
 8650W        W73811  33.390  43.395  11.478
 8651W        W73812  22.694  15.730  12.458
 8652W        W73813  28.615   4.038  14.975
 8653W        W73814  30.978  35.535  11.272
 8654W        W73815  16.989  24.851   0.422
 8655W        W73816  25.472  15.953   4.302
 8656W        W73817   6.684  41.391  14.270
 8657W        W73818   8.907   2.703  14.390
 8658W        W73819  31.922  32.091   4.809
 8659W        W73820  16.105   4.264  13.359
 8660W        W73821  28.473  43.777   2.197
 8661W        W73822  26.637  36.995  12.892
 8662W        W73823   0.620  37.462   2.692
 8663W        W73824  40.593  12.760  13.332
 8664W        W73825   9.184  39.050  13.758
 8665W        W73826   2.935   5.405   0.433
 8666W        W73827  15.823   4.226   0.539
 8667W        W73828  33.844  24.445   9.828
 8668W        W73829  13.269  21.178  13.936
 8669W        W73830  38.748   4.487  12.611
 8670W        W73831  12.086  32.888  11.137
 8671W        W73832   0.036  10.370  13.479
 8672W        W73833  21.615  16.721  12.893
 8673W        W73834   2.480  11.186   2.212
 8674W        W73835   5.688  12.095  12.447
 8675W        W73836  35.909  39.832  13.123
 8676W        W73837  31.391  26.876  13.452
 8677W        W73838  22.434   8.935  10.952
 8678W        W73839  36.350  44.551  11.163
 8679W        W73840   8.601   2.386  11.145
 8680W        W73841  12.218  43.852   4.698
 8681W        W73842  33.404  20.037   2.728
 8682W        W73843  43.422  34.150  13.828
 8683W        W73844  36.831   2.338   1.197
 8684W        W73845  14.251  40.060  12.852
 8685W        W73846  13.905  32.089   3.857
 8686W        W73847  15.733  41.314  11.352
 8687W        W73848   7.675  40.853  13.292
 8688W        W73849   5.629  35.270   2.852
 8689W        W73850  20.471   6.762  13.556
 8690W        W73851  33.936  36.243  13.396
 8691W        W73852   0.852  36.416  14.481
 8692W        W73853   8.148  35.312  13.276
 8693W        W73854  32.776  20.772  10.756
 8694W        W73855  12.231   7.356   1.433
 8695W        W73856  20.843  10.254  14.961
 8696W        W73857  26.128  13.092   0.373
 8697W        W73858  32.035  16.956   4.597
 8698W        W73859  17.092  25.209   3.278
 8699W        W73860  31.675   8.410   1.456
 8700W        W73861  43.808  25.583   1.664
 8701W        W73862  38.354  31.484  11.527
 8702W        W73863   5.253  26.381   3.923
 8703W        W73864  10.561  44.411   3.604
 8704W        W73865  32.944  28.611   2.038
 8705W        W73866  43.785   3.410  12.477
 8706W        W73867  20.156   4.967   5.046
 8707W        W73868   0.305  38.268   4.224
 8708W        W73869  13.842   3.233  11.600
 8709W        W73870  33.884  10.378  10.570
 8710W        W73871  12.610   0.881  10.696
 8711W        W73872  36.818   3.468  13.300
 8712W        W73873  39.393  23.021  13.624
 8713W        W73874  11.426  30.001   4.129
 8714W        W73875  30.168   8.462  12.007
 8715W        W73876  28.488  42.988   4.583
 8716W        W73877  19.643   5.295  14.508
 8717W        W73878  39.391  12.639   4.145
 8718W        W73879  10.158  25.958   2.247
 8719W        W73880  31.429  16.303  10.789
 8720W        W73881  18.545  21.276   1.975
 8721W        W73882  18.651  27.086   4.079
 8722W        W73883  10.133   5.915   1.990
 8723W        W73884  29.981   8.737   4.092
 8724W        W73885  17.431  33.001  10.536
 8725W        W73886  25.272  31.467  11.548
 8726W        W73887  14.353  11.583   4.592
 8727W        W73888  14.635  26.797  14.303
 8728W        W73889  19.149  26.891   1.439
 8729W        W73890   7.498  22.136  13.051
 8730W        W73891  39.296  33.900   0.246
 8731W        W73892  43.463  17.142  10.192
 8732W        W73893  19.007  25.723  13.000
 8733W        W73894  15.958  11.688  14.874
 8734W        W73895  10.832  31.517   3.725
 8735W        W73896  23.394  22.506  11.184
 8736W        W73897  43.525  33.662   5.412
 8737W        W73898  33.370  11.738  12.915
 8738W        W73899  25.488  21.472   0.950
 8739W        W73900   2.004  15.294  11.312
 8740W        W73901  13.551  44.317  10.754
 8741W        W73902  34.074  19.074  11.681
 8742W        W73903   5.977  23.544   4.139
 8743W        W73904  18.852  40.268   3.126
 8744W        W73905   2.863  44.667   2.153
 8745W        W73906   5.219  29.773   0.651
 8746W        W73907  19.966   2.959   1.809
 8747W        W73908   0.264  33.680  13.027
 8748W        W73909  24.586  15.275  10.542
 8749W        W73910   0.680  40.955   3.371
 8750W        W73911   1.002  33.106  13.049
 8751W        W73912  20.312  19.719  10.568
 8752W        W73913   4.955  12.423  10.003
 8753W        W73914  16.866  29.426   1.479
 8754W        W73915  25.287   4.400   0.819
 8755W        W73916  19.800  19.201  11.941
 8756W        W73917  11.807  26.888   1.364
 8757W        W73918  29.926  10.976  14.460
 8758W        W73919  42.784  15.694   4.756
 8759W        W73920  41.993  11.944  13.954
 8760W        W73921  26.477   7.350  10.246
 8761W        W73922  25.161  43.444  12.162
 8762W        W73923  10.850  33.220   4.462
 8763W        W73924  41.854  35.812  12.951
 8764W        W73925   8.387  38.148  12.248
 8765W        W73926  12.708  40.714  11.188
 8766W        W73927   1.577  31.458   4.071
 8767W        W73928  27.663  42.528  12.965
 8768W        W73929  22.126  33.606  11.026
 8769W        W73930  39.955   8.109   4.754
 8770W        W73931  22.677  37.173  13.808
 8771W        W73932  37.092  30.605  11.578
 8772W        W73933  13.645   4.328   3.602
 8773W        W73934   4.216  39.810   3.750
 8774W        W73935  22.548   9.388  12.934
 8775W        W73936  15.871  26.445   0.375
 8776W        W73937  29.872  41.938   0.184
 8777W        W73938  29.741  24.741   2.199
 8778W        W73939  23.598  13.932   0.444
 8779W        W73940  35.026   6.354   1.502
 8780W        W73941  13.109  44.343  12.245
 8781W        W73942  27.154  30.571   4.563
 8782W        W73943  33.128  16.179  13.736
 8783W        W73944  41.650  42.696  11.653
 8784W        W73945  36.222  36.011   5.108
 8785W        W73946  40.657   2.162  12.985
 8786W        W73947   5.443  26.007  11.595
 8787W        W73948  31.312   2.228   1.951
 8788W        W73949  42.253  33.341   0.803
 8789W        W73950   0.777  32.587   4.873
 8790W        W73951  10.135  16.622   2.681
 8791W        W73952  16.236  34.786   4.223
 8792W        W73953  35.502  14.344   4.497
 8793W        W73954  37.985  31.602   0.954
 8794W        W73955   9.929  36.480  12.672
 8795W        W73956  40.106  35.984   4.031
 8796W        W73957   3.770   6.289   4.477
 8797W        W73958  21.271  34.629   4.752
 8798W        W73959  10.587  23.118  10.509
 8799W        W73960  27.883  20.914  13.557
 8800W        W73961  29.459  15.796  13.515
 8801W        W73962  16.310  28.148  12.503
 8802W        W73963  32.028   3.024   3.944
 8803W        W73964  38.897  14.304  11.161
 8804W        W73965   5.725  41.480   4.408
 8805W        W73966  42.918  26.659  10.344
 8806W        W73967  42.554  23.180   0.849
 8807W        W73968  42.168  26.412   2.814
 8808W        W73969  14.628  13.867   2.750
 8809W        W73970  40.435  23.509   1.239
 8810W        W73971  13.098  22.116   4.632
 8811W        W73972   3.252  43.522  14.451
 8812W        W73973  14.135  29.535  13.075
 8813W        W73974  37.943  16.296   1.362
 8814W        W73975   8.179   6.486  10.480
 8815W        W73976   1.882  27.060  13.529
 8816W        W73977  17.372  19.251  13.573
 8817W        W73978   5.242  21.628   0.284
 8818W        W73979   1.309  28.139  12.900
 8819W        W73980  37.992   7.126  11.466
 8820W        W73981  34.643   7.227  12.874
 8821W        W73982  34.672  41.536  10.873
 8822W        W73983  27.444  18.845   4.789
 8823W        W73984  17.808  20.515  10.932
 8824W        W73985  24.120  16.237   2.808
 8825W        W73986  19.411  18.641  13.953
 8826W        W73987  17.749  12.889  12.491
 8827W        W73988   1.758  19.527   2.219
 8828W        W73989  22.756  18.682  11.647
 8829W        W73990   3.904   8.186  14.569
 8830W        W73991  17.344  34.627  12.975
 8831W        W73992  29.930  11.321   4.064
 8832W        W73993   2.985  22.698   0.437
 8833W        W73994  23.012  31.328  11.068
 8834W        W73995  10.185  26.424  10.741
 8835W        W73996  37.376  43.524   3.115
 8836W        W73997   2.447   5.030  14.844
 8837W        W73998   3.000  12.147   5.020
 8838W        W73999  16.753  43.291  11.945
 8839W        W74000   6.985  39.854   3.332
 8840W        W74001  43.951  25.213  13.012
 8841W        W74002   6.861  20.104   3.186
 8842W        W74003  32.228  19.955  13.848
 8843W        W74004  32.596  32.541   2.322
 8844W        W74005  13.312  20.776   4.811
 8845W        W74006  37.815  43.011   0.682
 8846W        W74007   2.326  41.830   1.290
 8847W        W74008  40.977  40.341  14.431
 8848W        W74009  37.529  32.390  10.556
 8849W        W74010   1.921  39.667   0.070
 8850W        W74011  10.422   9.156   2.227
 8851W        W74012  18.231  26.549   4.986
 8852W        W74013   1.276  31.337  11.526
 8853W        W74014  22.570  24.488  11.946
 8854W        W74015  19.742  19.060   1.925
 8855W        W74016  15.435  24.380  14.815
 8856W        W74017   1.891   1.307  14.812
 8857W        W74018  39.232   9.404  10.735
 8858W        W74019  30.703   4.322   2.237
 8859W        W74020  22.009  16.160   1.780
 8860W        W74021  18.836  34.174   0.859
 8861W        W74022  12.194  44.389   2.355
 8862W        W74023  43.570   1.829   2.333
 8863W        W74024  40.317  24.613   4.916
 8864W        W74025  19.697  28.991   3.433
 8865W        W74026  20.237  39.239   0.675
 8866W        W74027  18.341  21.872   0.372
 8867W        W74028  16.730  21.381   2.275
 8868W        W74029  17.057  17.731  12.020
 8869W        W74030  44.911  24.237   1.393
 8870W        W74031  35.372  31.926  10.702
 8871W        W74032  44.270  29.890  12.859
 8872W        W74033   9.145   6.207   5.138
 8873W        W74034  35.103   3.252  12.135
 8874W        W74035  15.372  23.969   1.220
 8875W        W74036  11.669  26.924  12.048
 8876W        W74037  10.275  38.286   1.628
 8877W        W74038   4.855  36.594   3.718
 8878W        W74039   4.693  22.071   2.644
 8879W        W74040  32.981  17.609   4.932
 8880W        W74041  26.575   2.462  13.874
 8881W        W74042  24.982   3.243   4.576
 8882W        W74043  24.528   0.332  12.589
 8883W        W74044  29.558  15.614   4.704
 8884W        W74045  33.624  42.609   3.733
 8885W        W74046  30.467   7.413   2.290
 8886W        W74047  24.147   5.932   4.519
 8887W        W74048   8.766   1.342   0.179
 8888W        W74049  36.836  18.559   3.659
 8889W        W74050  33.531   8.702  11.597
 8890W        W74051  15.665  26.980   1.053
 8891W        W74052   5.935  21.118   1.278
 8892W        W74053  43.857  11.984   4.229
 8893W        W74054  26.693  28.434   4.272
 8894W        W74055  23.005  14.835  14.787
 8895W        W74056  14.362   7.678  14.598
 8896W        W74057  32.524   4.163  12.137
 8897W        W74058  19.151  10.430  10.347
 8898W        W74059   4.361  22.990  11.198
 8899W        W74060   2.782  12.728  13.866
 8900W        W74061  34.118  43.831  14.448
 8901W        W74062  17.094  28.465   0.707
 8902W        W74063  42.199   2.645  14.707
 8903W        W74064  15.664   2.595   5.060
 8904W        W74065  33.736  13.697   2.707
 8905W        W74066  30.015   3.476   3.855
 8906W        W74067  22.135   1.673   3.896
 8907W        W74068  32.006  17.052  11.899
 8908W        W74069  41.072  39.552   4.516
 8909W        W74070  10.728   9.981   0.366
 8910W        W74071   7.238  34.631   3.685
 8911W        W74072  20.204  31.549  12.685
 8912W        W74073  37.861   0.066  13.029
 8913W        W74074  40.389  44.771   2.217
 8914W        W74075  38.446  36.433   3.602
 8915W        W74076   4.097   2.702   1.271
 8916W        W74077  21.259  44.252   4.561
 8917W        W74078  15.864   2.690   4.183
 8918W        W74079   8.922  21.801   2.282
 8919W        W74080   7.063   3.526  12.284
 8920W        W74081  14.752  25.548  11.468
 8921W        W74082   4.570   4.111  12.578
 8922W        W74083  31.197  33.865   4.585
 8923W        W74084  40.468  26.718   1.963
 8924W        W74085  11.251  14.593   3.314
 8925W        W74086  29.627  27.205  11.523
 8926W        W74087  31.644  17.090   1.851
 8927W        W74088  37.544  33.376   0.674
 8928W        W74089  16.020  31.044  13.437
 8929W        W74090  29.136  13.106  14.295
 8930W        W74091  27.151  10.316  11.056
 8931W        W74092  35.082  42.389  13.119
 8932W        W74093  31.372  28.329  12.566
 8933W        W74094  19.123  44.097   5.409
 8934W        W74095  10.692  13.679   1.194
 8935W        W74096  17.555  27.571  11.050
 8936W        W74097   4.708  34.872   4.746
 8937W        W74098   1.559   0.925   2.614
 8938W        W74099  25.658   4.979   1.490
 8939W        W74100   0.226  11.747  13.611
 8940W        W74101  22.599  14.306   3.743
 8941W        W74102  30.836  44.220   4.946
 8942W        W74103   7.131  22.161  13.463
 8943W        W74104   0.259  17.233  11.097
 8944W        W74105  19.642  23.572   5.002
 8945W        W74106  34.587   5.908   3.071
 8946W        W74107  13.271  32.640   4.160
 8947W        W74108  31.869  41.043  11.252
 8948W        W74109  44.475  37.627   5.693
 8949W        W74110   8.847  41.328  12.949
 8950W        W74111  40.623   2.972   3.694
 8951W        W74112  27.387  22.779  14.063
 8952W        W74113  24.366  25.647   0.910
 8953W        W74114  37.976  19.099  12.101
 8954W        W74115  27.970   5.485   2.816
 8955W        W74116  39.149  15.114   3.239
 8956W        W74117   1.797  43.277  13.769
 8957W        W74118   3.759  31.680   0.306
 8958W        W74119  33.945  37.554   4.560
 8959W        W74120  14.167  41.449   4.572
 8960W        W74121  24.285   2.254  11.864
 8961W        W74122  28.229   7.397   0.975
 8962W        W74123  36.514  21.769   2.692
 8963W        W74124   7.378  23.558  13.060
 8964W        W74125  17.273  33.380   1.659
 8965W        W74126  17.904   4.024  11.175
 8966W        W74127  43.458  28.904   0.730
 8967W        W74128   8.383  21.628  10.665
 8968W        W74129  30.415  38.470  13.895
 8969W        W74130  12.359   3.910   0.796
 8970W        W74131  16.561   6.639  13.686
 8971W        W74132  35.442  19.064  11.171
 8972W        W74133  23.428  44.654   0.841
 8973W        W74134  30.980  11.571   2.965
 8974W        W74135   7.257  14.477   0.609
 8975W        W74136   0.677   5.758  11.623
 8976W        W74137   7.916  18.308  11.144
 8977W        W74138   7.912   2.833   0.726
 8978W        W74139   6.276  16.658   9.912
 8979W        W74140  40.760  39.344  13.408
 8980W        W74141  33.188  20.205   1.392
 8981W        W74142  38.588  43.799   4.679
 8982W        W74143  23.570  35.300   4.530
 8983W        W74144   0.688  16.092  12.931
 8984W        W74145  31.552   8.443   0.517
 8985W        W74146   8.191  41.309   2.153
 8986W        W74147  23.838   4.019   3.536
 8987W        W74148  21.065  31.081   0.796
 8988W        W74149  20.087  36.915  11.545
 8989W        W74150  40.759   8.391   1.402
 8990W        W74151   2.209   8.561   3.717
 8991W        W74152  18.534  42.935   1.750
 8992W        W74153   6.784   4.789   2.642
 8993W        W74154   4.008  11.412   4.607
 8994W        W74155  22.213   9.777   3.621
 8995W        W74156  19.789  44.748  12.297
 8996W        W74157  18.044  19.354   4.085
 8997W        W74158   9.173  20.290   3.624
 8998W        W74159  10.395  40.536   0.296
 8999W        W74160  33.418   8.399   1.351
 9000W        W74161  12.925  39.747  14.887
 9001W        W74162   5.789   4.824  11.179
 9002W        W74163  32.072  15.846   2.531
 9003W        W74164  18.594  21.526   3.181
 9004W        W74165  12.401  37.446  11.626
 9005W        W74166  28.348  29.165   2.582
 9006W        W74167  16.294  29.955   0.447
 9007W        W74168  15.149  25.629  13.554
 9008W        W74169  31.553   4.959   2.237
 9009W        W74170  31.006  17.248  13.813
 9010W        W74171   8.794  38.249  14.924
 9011W        W74172  29.109  31.390   1.303
 9012W        W74173  11.168  12.402  11.175
 9013W        W74174  22.804  31.417  13.057
 9014W        W74175   5.905  29.904  12.140
 9015W        W74176   6.890  18.999   0.246
 9016W        W74177  32.450  36.079   0.856
 9017W        W74178  16.214  44.187  13.910
 9018W        W74179   7.867   3.451   3.329
 9019W        W74180   5.505  24.609   4.151
 9020W        W74181  23.044   8.913   1.629
 9021W        W74182  42.126   1.523  14.000
 9022W        W74183  23.515   0.069   4.091
 9023W        W74184  17.669   4.902   3.608
 9024W        W74185  13.042  24.152   3.322
 9025W        W74186  20.134   4.482  14.322
 9026W        W74187  13.608   6.302  14.087
 9027W        W74188  36.192  42.958   1.109
 9028W        W74189  27.873  41.289   0.866
 9029W        W74190   3.874  31.507  12.093
 9030W        W74191  35.846  36.499  13.051
 9031W        W74192  15.134  27.540  10.496
 9032W        W74193  16.235  23.192  12.616
 9033W        W74194   0.882  16.826   2.441
 9034W        W74195   6.487  43.296   0.871
 9035W        W74196   3.396  11.854   1.210
 9036W        W74197  36.520  35.010   2.484
 9037W        W74198  38.485  18.040   3.281
 9038W        W74199   8.350   4.946   0.830
 9039W        W74200   1.928  23.251   2.346
 9040W        W74201  31.755  14.141   2.340
 9041W        W74202   7.788  44.042   3.678
 9042W        W74203   2.625   5.264  12.584
 9043W        W74204  30.276  12.710   2.994
 9044W        W74205  10.931  15.148   0.289
 9045W        W74206  32.936  40.750  11.196
 9046W        W74207   7.891  16.092  10.903
 9047W        W74208  17.818  14.619   0.767
 9048W        W74209  11.360  18.026   1.593
 9049W        W74210  24.087  11.787   0.758
 9050W        W74211   9.800  44.922   3.308
 9051W        W74212  33.126   0.904  10.799
 9052W        W74213  31.005  14.241  14.056
 9053W        W74214  32.642  39.834   0.219
 9054W        W74215  17.721   9.470   1.712
 9055W        W74216   4.335  28.713  12.156
 9056W        W74217  17.836  10.290   0.783
 9057W        W74218  12.643  35.410   3.595
 9058W        W74219  33.139  30.465  14.664
 9059W        W74220   0.777  20.703   2.577
 9060W        W74221  16.853  42.499  13.353
 9061W        W74222   7.653   5.897  14.410
 9062W        W74223  41.531  21.368  11.142
 9063W        W74224  10.690  17.341   2.299
 9064W        W74225  29.112   4.837   4.637
 9065W        W74226  30.917  19.641  14.814
 9066W        W74227  16.559  33.925  14.038
 9067W        W74228  36.492   2.187   2.088
 9068W        W74229  41.944  17.562   3.849
 9069W        W74230  22.553   4.670  13.558
 9070W        W74231   6.577  12.179  14.321
 9071W        W74232  31.361  31.950  11.706
 9072W        W74233   7.203  44.369  10.532
 9073W        W74234  21.610   8.939  12.945
 9074W        W74235   2.897  33.334  13.028
 9075W        W74236  25.080  27.265  12.885
 9076W        W74237  19.243  31.996  12.518
 9077W        W74238  42.001   6.815   4.319
 9078W        W74239  16.665  26.597   3.144
 9079W        W74240  20.745  23.603   1.251
 9080W        W74241   7.156  35.847  14.272
 9081W        W74242  41.042  27.219   3.519
 9082W        W74243  39.030  21.688   4.856
 9083W        W74244   9.728  21.808  10.529
 9084W        W74245  23.148  43.361  12.957
 9085W        W74246  22.763  44.715  12.482
 9086W        W74247   4.996  22.489   3.420
 9087W        W74248  22.427  34.590  11.520
 9088W        W74249  13.827   5.250  11.824
 9089W        W74250  38.472  18.059   4.712
 9090W        W74251  29.532  24.539   2.610
 9091W        W74252   8.872  24.492   4.372
 9092W        W74253   8.723  18.706  14.388
 9093W        W74254  12.168  36.551  13.785
 9094W        W74255  34.444  29.918   0.429
 9095W        W74256  33.396   9.717   4.182
 9096W        W74257  34.334  22.529  14.434
 9097W        W74258  28.371  12.344  11.162
 9098W        W74259  32.625  44.379  14.907
 9099W        W74260  15.589  11.610   2.232
 9100W        W74261  24.644  24.527   2.742
 9101W        W74262  32.605  25.553  13.140
 9102W        W74263  36.638  40.434   1.381
 9103W        W74264  42.220  21.370   0.247
 9104W        W74265  14.828  21.564   4.161
 9105W        W74266   9.807   5.838  13.927
 9106W        W74267   6.769   4.967  14.850
 9107W        W74268   0.441  10.233  12.825
 9108W        W74269  28.480   8.835   3.605
 9109W        W74270  43.343  31.498  10.788
 9110W        W74271  10.389  36.909  10.582
 9111W        W74272   6.710   4.168  13.589
 9112W        W74273  19.631   7.928  13.291
 9113W        W74274   4.856  30.168   0.554
 9114W        W74275  29.953  14.909  11.572
 9115W        W74276  35.982  20.308  11.157
 9116W        W74277   3.238  16.369   3.627
 9117W        W74278  28.738  13.710   3.502
 9118W        W74279   1.010   8.121  11.508
 9119W        W74280  21.258  13.715   3.180
 9120W        W74281  38.564  28.906   2.855
 9121W        W74282  11.619  14.176  14.293
 9122W        W74283  27.514   8.666   2.285
 9123W        W74284   5.851  27.711   4.981
 9124W        W74285  34.951  20.090   1.863
 9125W        W74286   3.327  25.717  14.822
 9126W        W74287  43.638   3.059  14.300
 9127W        W74288   2.306  19.736  12.059
 9128W        W74289  34.459  25.561   4.347
 9129W        W74290  18.686   1.291  11.441
 9130W        W74291  36.929  29.178  11.583
 9131W        W74292  23.958  35.948   2.793
 9132W        W74293  44.039  21.072  14.492
 9133W        W74294   3.910   2.417  12.043
 9134W        W74295  20.730  29.155  11.204
 9135W        W74296  38.780  41.387   2.755
 9136W        W74297  24.166  30.480   3.584
 9137W        W74298   4.449  14.441   4.160
 9138W        W74299   4.285  41.690   3.257
 9139W        W74300  32.328  11.033   0.870
 9140W        W74301   5.564   7.180   2.422
 9141W        W74302   9.619   2.746   4.529
 9142W        W74303  40.624   2.880  11.758
 9143W        W74304   5.280   3.510  11.539
 9144W        W74305  18.363  14.886  10.324
 9145W        W74306  35.169  24.677  11.916
 9146W        W74307  33.884   1.208   0.798
 9147W        W74308  36.944   6.188  14.760
 9148W        W74309   2.796   2.550   1.382
 9149W        W74310  25.484  12.121   2.411
 9150W        W74311   5.421  19.332  14.827
 9151W        W74312   5.855  36.032  14.864
 9152W        W74313   5.730  35.523   1.518
 9153W        W74314  10.355  26.383  13.046
 9154W        W74315  19.775  26.915   3.781
 9155W        W74316   3.913  18.630  12.464
 9156W        W74317  38.892  17.794  14.540
 9157W        W74318  32.050  29.124  12.646
 9158W        W74319  38.873  38.344   3.624
 9159W        W74320   2.295  32.638   0.896
 9160W        W74321  20.179  30.503   2.693
 9161W        W74322  18.827  43.775   4.185
 9162W        W74323  11.274  34.121   3.669
 9163W        W74324   4.681   8.812   1.660
 9164W        W74325  22.732  29.817   4.394
 9165W        W74326  38.313  40.568  10.647
 9166W        W74327  11.642   8.196  12.955
 9167W        W74328  42.895  14.175  12.336
 9168W        W74329   6.509   0.280   3.818
 9169W        W74330  39.421  33.110  11.692
 9170W        W74331   3.866  44.718   3.716
 9171W        W74332  23.661  34.320   0.154
 9172W        W74333  37.277  20.175   4.166
 9173W        W74334  36.505  38.830   2.337
 9174W        W74335  11.401  17.516   0.783
 9175W        W74336  15.781  21.761  11.646
 9176W        W74337   7.457  41.348   4.092
 9177W        W74338  28.624  10.639   0.131
 9178W        W74339  37.138  13.657  13.513
 9179W        W74340  36.210   1.489   1.808
 9180W        W74341   3.929  24.238  11.629
 9181W        W74342   9.348  42.988  13.655
 9182W        W74343  40.813  22.609  14.225
 9183W        W74344  27.765  10.042  12.783
 9184W        W74345  32.656  24.587   0.750
 9185W        W74346  39.576  30.983  14.348
 9186W        W74347   6.917  36.310  13.497
 9187W        W74348  34.428  18.079  14.719
 9188W        W74349   3.220  18.386   4.063
 9189W        W74350   1.349  28.504   0.356
 9190W        W74351  18.613   1.951   2.002
 9191W        W74352  24.224   2.200  10.519
 9192W        W74353  28.833   5.546   2.682
 9193W        W74354   2.395  18.003  13.416
 9194W        W74355  10.186  31.691  11.689
 9195W        W74356  36.516   6.815   1.422
 9196W        W74357  40.339  37.616  11.497
 9197W        W74358  13.797  25.052  10.929
 9198W        W74359  10.785   3.482  12.013
 9199W        W74360  19.303   9.451   3.773
 9200W        W74361  21.139   1.418  12.824
 9201W        W74362   8.449  16.402   3.677
 9202W        W74363  34.978  11.366   4.223
 9203W        W74364  20.719  38.213   3.958
 9204W        W74365  27.247  29.576   2.001
 9205W        W74366  40.708  11.219   0.071
 9206W        W74367  21.433  43.978  11.032
 9207W        W74368  38.136   1.804  12.098
 9208W        W74369  20.609  44.547   3.310
 9209W        W74370  12.098  35.489  11.522
 9210W        W74371  19.341   3.980   3.810
 9211W        W74372  19.785  33.455  10.870
 9212W        W74373  44.342   0.682  12.478
 9213W        W74374  36.920  37.287  11.350
 9214W        W74375  28.639  11.684   0.858
 9215W        W74376  27.057  36.374   0.657
 9216W        W74377  44.086  23.233  14.085
 9217W        W74378  10.697  20.574   4.371
 9218W        W74379  24.713  20.097   1.349
 9219W        W74380  25.037  24.785  12.292
 9220W        W74381  32.984  26.112   1.840
 9221W        W74382  24.988  44.408  13.303
 9222W        W74383  43.237   0.580  11.286
 9223W        W74384  27.519  31.938   0.861
 9224W        W74385  10.134  27.628  12.448
 9225W        W74386  31.944  42.899  13.743
 9226W        W74387  10.048  24.682   0.779
 9227W        W74388   8.942  10.711  10.640
 9228W        W74389  13.159  44.666   1.750
 9229W        W74390  34.466  31.997  11.543
 9230W        W74391  20.550  31.089   0.988
 9231W        W74392  14.255  19.445   1.055
 9232W        W74393   4.677   8.638  11.642
 9233W        W74394  23.774  19.846   2.213
 9234W        W74395  30.470  42.973   1.379
 9235W        W74396   2.084   1.792  10.800
 9236W        W74397  20.851  25.114  12.098
 9237W        W74398  28.064  43.052  14.584
 9238W        W74399  36.244   9.332   4.562
 9239W        W74400  25.539   3.767   3.800
 9240W        W74401  43.925  29.949   1.340
 9241W        W74402  32.247   6.378   4.976
 9242W        W74403  41.359  40.866  12.215
 9243W        W74404  34.151   6.090   1.300
 9244W        W74405  28.166  36.604   3.634
 9245W        W74406   0.989  19.817  13.033
 9246W        W74407  38.748  26.921  13.115
 9247W        W74408  20.119  39.247   4.759
 9248W        W74409  26.440  11.789   2.784
 9249W        W74410  25.742  36.793   9.762
 9250W        W74411  13.672   7.272  13.434
 9251W        W74412   5.901  39.082   3.753
 9252W        W74413   4.921  18.747   2.831
 9253W        W74414   1.935  41.643  14.773
 9254W        W74415   5.743  42.342   1.969
 9255W        W74416  15.849  11.655  11.131
 9256W        W74417  21.132  40.392   4.307
 9257W        W74418  25.654  38.797   2.682
 9258W        W74419  21.026  21.757  14.565
 9259W        W74420  14.684  44.783  13.164
 9260W        W74421  23.192  18.047  13.867
 9261W        W74422  23.120  34.393   2.013
 9262W        W74423  38.004  44.314  13.687
 9263W        W74424  38.327  30.355   1.942
 9264W        W74425  19.972  42.303  13.860
 9265W        W74426   8.644  25.096  10.474
 9266W        W74427  34.055  24.220   0.662
 9267W        W74428  32.679  26.195   0.956
 9268W        W74429  25.921  35.825  13.349
 9269W        W74430  23.207   0.677   0.300
 9270W        W74431  37.524  43.518  11.539
 9271W        W74432  34.491  26.928  10.499
 9272W        W74433  26.773   1.745   0.502
 9273W        W74434  11.903   9.153   2.670
 9274W        W74435   6.356   1.436   1.658
 9275W        W74436  19.172  12.101  14.944
 9276W        W74437  21.221   8.824  10.786
 9277W        W74438  35.033   0.514  11.197
 9278W        W74439  13.722  43.494  11.036
 9279W        W74440   0.488  17.573   1.761
 9280W        W74441   6.493  30.106   2.217
 9281W        W74442   2.581  22.886   4.271
 9282W        W74443   5.355  28.838   0.393
 9283W        W74444  17.923  38.127   1.319
 9284W        W74445  19.725  28.067  13.764
 9285W        W74446   8.817   7.486   3.649
 9286W        W74447  25.770   1.905   2.123
 9287W        W74448  11.835  33.093   4.787
 9288W        W74449  44.329  14.542   3.030
 9289W        W74450  16.062   1.814   4.721
 9290W        W74451  43.444  40.584  12.045
 9291W        W74452  42.745  10.141  10.560
 9292W        W74453  43.043   9.425  12.065
 9293W        W74454   0.943   9.327   1.350
 9294W        W74455  26.505  12.554   3.294
 9295W        W74456  22.665  38.563  10.680
 9296W        W74457  11.205  17.991   0.692
 9297W        W74458  19.603   9.175   0.123
 9298W        W74459  24.634  29.063   0.215
 9299W        W74460  20.996  24.108  13.292
 9300W        W74461  25.199  25.948  14.987
 9301W        W74462  12.088   2.435   3.905
 9302W        W74463  22.128   6.841   0.189
 9303W        W74464   1.770  36.615  13.525
 9304W        W74465  44.403  23.416   2.731
 9305W        W74466  20.141   5.933  12.877
 9306W        W74467  18.556  44.558   3.526
 9307W        W74468  36.870  43.217  14.603
 9308W        W74469  44.542  34.929  11.472
 9309W        W74470  14.730  18.874   2.431
 9310W        W74471   1.488  21.891   4.652
 9311W        W74472   2.727  16.108   1.895
 9312W        W74473   3.479  22.192  12.599
 9313W        W74474  15.077  24.216  13.216
 9314W        W74475  38.946  31.555  13.906
 9315W        W74476  40.446  20.214  13.863
 9316W        W74477   3.004   7.854  13.855
 9317W        W74478  38.863  19.681   1.827
 9318W        W74479  13.204  40.614   2.211
 9319W        W74480  27.763  13.688  13.526
 9320W        W74481  14.831   7.822  14.792
 9321W        W74482  13.625   9.649   3.697
 9322W        W74483   3.225  16.296   9.995
 9323W        W74484  26.725  22.089   3.779
 9324W        W74485  30.502   1.028   3.711
 9325W        W74486  43.096  29.510   3.709
 9326W        W74487   4.330  12.317  13.098
 9327W        W74488  29.439  41.235  14.560
 9328W        W74489  15.951   5.251  13.105
 9329W        W74490  30.101  22.812   2.218
 9330W        W74491  22.654  29.041  10.605
 9331W        W74492   6.149  18.888  12.448
 9332W        W74493  28.545  10.547   2.844
 9333W        W74494  36.400  33.904   2.770
 9334W        W74495   8.975  43.949  13.674
 9335W        W74496  40.973  32.578  10.944
 9336W        W74497  40.996   3.853  11.477
 9337W        W74498  11.590   3.882  12.026
 9338W        W74499  14.639  36.358   3.593
 9339W        W74500  21.009  37.357   2.867
 9340W        W74501  28.022   2.427  13.983
 9341W        W74502   8.589   9.780   2.145
 9342W        W74503   2.998  27.590   3.736
 9343W        W74504  27.764   4.032  12.727
 9344W        W74505  41.920  16.688   3.740
 9345W        W74506  25.699  31.486   2.460
 9346W        W74507  40.965  34.390  13.380
 9347W        W74508  34.075  15.143   4.626
 9348W        W74509  24.484  14.063   0.479
 9349W        W74510  22.252  12.292   2.723
 9350W        W74511  42.915  17.079  12.831
 9351W        W74512  18.097  20.796   3.636
 9352W        W74513  38.816  13.840  13.450
 9353W        W74514  39.455  22.570   2.312
 9354W        W74515  22.048  38.058   4.144
 9355W        W74516  28.191  36.240  10.941
 9356W        W74517  17.516   7.450   1.913
 9357W        W74518  22.878  28.033   2.416
 9358W        W74519  34.077   1.433  12.200
 9359W        W74520  17.124  26.570  14.905
 9360W        W74521  15.869  34.170   2.830
 9361W        W74522  17.805  15.648  14.049
 9362W        W74523   7.100  36.120  12.545
 9363W        W74524   3.222  38.633   2.924
 9364W        W74525  35.186  40.077   2.419
 9365W        W74526  13.042  40.509  13.772
 9366W        W74527  34.353  31.160   3.594
 9367W        W74528  37.445   3.286   4.295
 9368W        W74529  31.314  24.102   0.985
 9369W        W74530  12.217  24.206   1.881
 9370W        W74531  16.124  11.556  11.598
 9371W        W74532  16.045  33.855  13.988
 9372W        W74533   4.880  39.390  12.532
 9373W        W74534  36.458   0.745  12.102
 9374W        W74535  16.115  30.547  13.950
 9375W        W74536  40.295   8.586  11.006
 9376W        W74537  36.441  24.611  10.579
 9377W        W74538  37.881   8.567   0.968
 9378W        W74539  21.950  24.798   0.255
 9379W        W74540  33.608  12.636   1.795
 9380W        W74541   2.888  27.159  11.804
 9381W        W74542   5.196  43.936  12.307
 9382W        W74543  10.114   0.629   0.351
 9383W        W74544  23.845  15.514  12.891
 9384W        W74545  24.251  24.183  14.037
 9385W        W74546  15.529  25.430  11.149
 9386W        W74547  25.687  25.065  12.566
 9387W        W74548  27.430  29.481   3.350
 9388W        W74549  10.560  30.682  14.834
 9389W        W74550  21.810  40.591  11.840
 9390W        W74551  33.393  28.039   4.768
 9391W        W74552  34.046  41.571   3.166
 9392W        W74553   6.945  33.444   2.695
 9393W        W74554  37.724  30.656   2.832
 9394W        W74555   9.197  31.658  13.403
 9395W        W74556  19.770  31.971   4.167
 9396W        W74557  37.456   7.390   3.773
 9397W        W74558  27.199  35.042   4.724
 9398W        W74559  24.492  43.367   0.428
 9399W        W74560  36.160   0.927   3.255
 9400W        W74561   1.205  14.094   2.283
 9401W        W74562  28.175  27.565   0.742
 9402W        W74563  29.635  10.678  10.530
 9403W        W74564  30.030  27.897   2.946
 9404W        W74565  22.537  35.970   4.925
 9405W        W74566  36.061  41.799   0.774
 9406W        W74567   1.448  28.470   1.467
 9407W        W74568  16.699  41.534   5.065
 9408W        W74569  32.956   8.351  13.350
 9409W        W74570  19.985  13.801  10.541
 9410W        W74571  35.568  27.881  10.881
 9411W        W74572  42.735  26.693   2.215
 9412W        W74573   3.743  38.772   0.389
 9413W        W74574   6.822  28.529   2.382
 9414W        W74575  18.281  27.129  12.032
 9415W        W74576  12.587  15.714  12.893
 9416W        W74577  28.972   4.405  11.548
 9417W        W74578  36.895   8.231   1.266
 9418W        W74579   2.427  19.667  11.165
 9419W        W74580  43.411  11.938   2.107
 9420W        W74581  26.234  12.579  13.007
 9421W        W74582   8.963  14.649   5.010
 9422W        W74583   0.439  40.482  10.621
 9423W        W74584  18.157  10.613   2.701
 9424W        W74585  28.442  13.162   1.389
 9425W        W74586  39.853   5.831  11.848
 9426W        W74587  15.780  41.808  14.242
 9427W        W74588  38.556  10.951  11.873
 9428W        W74589   1.298   1.860   1.605
 9429W        W74590  29.910  16.080  10.734
 9430W        W74591  15.832  20.628   3.266
 9431W        W74592  36.802  23.251  12.603
 9432W        W74593  41.457  39.771   1.407
 9433W        W74594  40.040   0.452  14.693
 9434W        W74595  10.915   3.379  13.578
 9435W        W74596  13.255   0.923   0.358
 9436W        W74597  19.505  40.836   0.300
 9437W        W74598  44.290   5.027  12.654
 9438W        W74599  35.027  24.020  14.252
 9439W        W74600  35.067  39.698  11.588
 9440W        W74601  22.280  21.190  13.947
 9441W        W74602  38.997  44.655  10.656
 9442W        W74603  12.224  21.803   1.397
 9443W        W74604  16.693  21.224  11.542
 9444W        W74605  34.419  35.415  14.775
 9445W        W74606  35.128   6.400  11.631
 9446W        W74607  44.097  21.029   3.338
 9447W        W74608   2.339  39.586   1.264
 9448W        W74609  32.871  29.207  14.840
 9449W        W74610  40.799   2.266   1.912
 9450W        W74611  34.660   6.150   4.610
 9451W        W74612  39.358  25.975   2.840
 9452W        W74613  11.690  24.271   0.403
 9453W        W74614  40.908   4.862   3.590
 9454W        W74615   1.366  17.050  13.444
 9455W        W74616  38.433   2.775  13.346
 9456W        W74617  38.596  37.003   0.825
 9457W        W74618  28.447  34.684   2.717
 9458W        W74619  39.573  38.893  14.397
 9459W        W74620  41.940  41.317  12.411
 9460W        W74621  10.668  39.079   1.457
 9461W        W74622  40.766   8.961   2.538
 9462W        W74623   9.241  12.027  12.917
 9463W        W74624  19.549   6.162   4.139
 9464W        W74625  44.933  23.018  10.903
 9465W        W74626  11.617  43.474   3.328
 9466W        W74627  27.577  43.968   0.870
 9467W        W74628  43.293  33.580   0.002
 9468W        W74629   9.883   9.765   0.397
 9469W        W74630  28.625  26.182   9.779
 9470W        W74631  35.705   9.930   1.264
 9471W        W74632   8.012  12.811   4.315
 9472W        W74633  11.118  30.881  14.269
 9473W        W74634   2.738  30.831   1.937
 9474W        W74635  31.449  27.730  14.081
 9475W        W74636  42.414  17.714   4.226
 9476W        W74637  16.033  30.559   3.251
 9477W        W74638  32.596   8.359   1.941
 9478W        W74639  18.262  28.664   2.135
 9479W        W74640  29.148   8.332   4.055
 9480W        W74641  13.654  39.766  11.126
 9481W        W74642  12.043  37.171  13.131
 9482W        W74643  19.036  22.816   5.070
 9483W        W74644  38.547   3.317   3.116
 9484W        W74645   7.296   6.430  10.983
 9485W        W74646   3.348  41.051   4.821
 9486W        W74647  23.139   2.198  11.200
 9487W        W74648  32.161   9.793  12.926
 9488W        W74649  29.403  19.109  13.888
 9489W        W74650  28.499  18.032  14.953
 9490W        W74651  32.188  44.800  11.800
 9491W        W74652  25.062  30.280  11.484
 9492W        W74653   4.717   4.351   1.376
 9493W        W74654   4.308  25.518   0.190
 9494W        W74655  35.909  15.194   3.383
 9495W        W74656  32.589  16.040  14.369
 9496W        W74657   0.866  19.266   4.552
 9497W        W74658   2.297  39.360  11.528
 9498W        W74659   2.339  17.223  12.344
 9499W        W74660  18.842  40.975  11.562
 9500W        W74661  37.226   7.940   2.291
 9501W        W74662  25.032  16.616   3.605
 9502W        W74663  14.617   6.217   4.562
 9503W        W74664  39.851  20.550   0.794
 9504W        W74665  10.906  40.806  11.534
 9505W        W74666  29.040  39.130   2.719
 9506W        W74667  42.403  36.395   0.422
 9507W        W74668  27.185  42.291   0.297
 9508W        W74669  33.166   6.210  11.521
 9509W        W74670   3.156  26.284   5.482
 9510W        W74671  42.684  41.060  13.295
 9511W        W74672  37.210  41.295   1.838
 9512W        W74673  41.780   7.282   4.395
 9513W        W74674   3.450  34.848   1.423
 9514W        W74675   2.473  13.691  11.139
 9515W        W74676  41.226  11.665   0.838
 9516W        W74677  13.733  31.845  11.517
 9517W        W74678  40.263  40.364   0.810
 9518W        W74679  34.615  37.118  13.420
 9519W        W74680  34.223  44.910   1.348
 9520W        W74681   9.247  25.489  11.013
 9521W        W74682   1.774  31.524  13.306
 9522W        W74683  34.217  26.417  11.154
 9523W        W74684  17.584  42.074   1.291
 9524W        W74685  34.870  23.682   0.615
 9525W        W74686  41.455  35.924   0.285
 9526W        W74687   6.667  38.042   0.349
 9527W        W74688  33.820  34.294   4.442
 9528W        W74689  32.490   8.192   4.156
 9529W        W74690  44.287  11.684   4.269
 9530W        W74691  33.584   3.977  13.964
 9531W        W74692   3.331  33.609   1.495
 9532W        W74693  32.884  11.267   3.131
 9533W        W74694  26.479   6.210  10.155
 9534W        W74695   0.076  21.487  11.752
 9535W        W74696  32.946  22.585   3.563
 9536W        W74697  18.124  29.149  14.392
 9537W        W74698  22.057  10.582   2.181
 9538W        W74699  26.685   3.254  12.156
 9539W        W74700  15.280   1.469  13.056
 9540W        W74701   8.925  43.390  11.426
 9541W        W74702  41.815  25.571  11.721
 9542W        W74703  22.744   4.637  14.053
 9543W        W74704   9.398  27.467  11.164
 9544W        W74705  23.141  29.904  13.275
 9545W        W74706  26.782   2.315   4.164
 9546W        W74707  20.540  36.548   2.982
 9547W        W74708  22.546  23.563  13.727
 9548W        W74709   2.447   2.937   1.310
 9549W        W74710  38.282  24.721   4.445
 9550W        W74711  38.106  19.806  13.833
 9551W        W74712  26.476  19.334  12.988
 9552W        W74713  12.761  33.031   2.923
 9553W        W74714  39.549   2.258  12.381
 9554W        W74715  14.581  42.395   4.653
 9555W        W74716  10.078  43.604  10.978
 9556W        W74717  31.021  33.381  12.903
 9557W        W74718  22.173  44.320   2.407
 9558W        W74719  39.782  38.366  11.644
 9559W        W74720  25.658  23.881  10.758
 9560W        W74721  10.794  25.233  12.570
 9561W        W74722  26.998  36.291  13.537
 9562W        W74723  14.182  37.871   2.856
 9563W        W74724  16.645  28.862   2.882
 9564W        W74725  41.523  23.751   4.137
 9565W        W74726  39.563   1.525  10.722
 9566W        W74727  31.051  39.006   4.122
 9567W        W74728  38.911  34.322  12.452
 9568W        W74729  15.150  43.634  11.100
 9569W        W74730  17.617  10.275  12.607
 9570W        W74731   8.707  43.931   4.914
 9571W        W74732   7.678   6.357  13.943
 9572W        W74733   8.676   5.296  13.498
 9573W        W74734  17.756   4.309  13.107
 9574W        W74735   6.140  21.620  13.054
 9575W        W74736  42.137   1.673   3.186
 9576W        W74737  23.660  15.706  13.336
 9577W        W74738  17.319  25.469  11.628
 9578W        W74739  43.862   0.036  14.031
 9579W        W74740  30.860  38.550  12.952
 9580W        W74741   4.945  17.048   4.161
 9581W        W74742  26.213  22.089  14.365
 9582W        W74743  25.985  19.059   3.631
 9583W        W74744   4.317  31.891  12.854
 9584W        W74745  44.515   9.290   2.706
 9585W        W74746  27.447   9.086   0.281
 9586W        W74747  35.594  33.767  13.927
 9587W        W74748  10.822  13.045  10.678
 9588W        W74749  42.483  18.661   4.252
 9589W        W74750  17.567  12.210  14.660
 9590W        W74751  42.963   5.829  12.921
 9591W        W74752  43.877  29.125  10.604
 9592W        W74753  39.353  41.920  12.015
 9593W        W74754  24.109  25.221  10.764
 9594W        W74755  27.677  15.529  12.950
 9595W        W74756  15.008  32.141  11.211
 9596W        W74757   0.443   9.302  13.826
 9597W        W74758  26.032  24.749   2.760
 9598W        W74759  15.338  14.208  14.051
 9599W        W74760  43.802   7.268  11.765
 9600W        W74761  29.700   9.556  14.547
 9601W        W74762  29.960  40.750  12.129
 9602W        W74763   7.204   1.950  10.793
 9603W        W74764  42.425  16.676  12.223
 9604W        W74765  17.531  40.700   1.323
 9605W        W74766  39.037  34.485   3.626
 9606W        W74767  40.400   7.339  14.020
 9607W        W74768   9.730  27.031   4.904
 9608W        W74769  16.919  40.055   4.031
 9609W        W74770   9.347  17.773   4.116
 9610W        W74771  20.345   5.460   1.337
 9611W        W74772   0.708  17.133   0.472
 9612W        W74773  44.477  38.576  15.000
 9613W        W74774  27.616  24.005  12.872
 9614W        W74775  39.617   3.324   5.023
 9615W        W74776   3.320  24.965  14.332
 9616W        W74777  15.230  11.084  11.935
 9617W        W74778   8.881  11.362   4.134
 9618W        W74779  19.105  41.248  14.501
 9619W        W74780  14.256   1.647   4.835
 9620W        W74781  13.839  15.315   1.690
 9621W        W74782  31.012  23.543  10.309
 9622W        W74783  24.725  17.270  13.429
 9623W        W74784  15.195  22.628   3.222
 9624W        W74785  13.784  18.797   2.379
 9625W        W74786  23.582  33.174   4.614
 9626W        W74787  28.587  41.522   3.591
 9627W        W74788  42.457  16.592   3.762
 9628W        W74789   2.005   4.205  11.575
 9629W        W74790  44.289  17.614  12.546
 9630W        W74791  23.601  37.346   1.844
 9631W        W74792  20.645  29.132  11.688
 9632W        W74793   7.138   9.430   0.824
 9633W        W74794   5.737  41.767  14.855
 9634W        W74795  19.860  34.401   4.541
 9635W        W74796  39.607  30.015   1.835
 9636W        W74797  17.743  13.608   1.911
 9637W        W74798   3.763  18.523   0.180
 9638W        W74799  28.489  37.343   0.695
 9639W        W74800  10.604  12.183   3.102
 9640W        W74801  19.310  25.594   0.767
 9641W        W74802   6.934  25.488   0.468
 9642W        W74803  18.055  26.005  12.870
 9643W        W74804  38.410  32.175  13.701
 9644W        W74805  43.445  32.832  12.661
 9645W        W74806  25.417  36.577   2.175
 9646W        W74807  21.596  26.259  14.707
 9647W        W74808  29.406   4.405   3.125
 9648W        W74809  13.267   2.063   3.112
 9649W        W74810   0.694  31.062   2.704
 9650W        W74811  33.293  20.659   3.234
 9651W        W74812  22.993  44.372   3.109
 9652W        W74813  27.565   5.948  10.426
 9653W        W74814  21.774  26.909   1.771
 9654W        W74815  23.328   9.370   4.076
 9655W        W74816   6.322  28.147  11.786
 9656W        W74817  34.983   6.236   4.097
 9657W        W74818  24.272  44.238   3.543
 9658W        W74819  43.738  29.492   1.068
 9659W        W74820  25.709  22.738   2.368
 9660W        W74821   1.810  43.330   0.985
 9661W        W74822  44.782   4.232   3.331
 9662W        W74823  22.377  35.567   0.112
 9663W        W74824   5.349  18.355  14.884
 9664W        W74825  14.638  15.831   5.299
 9665W        W74826  43.999   4.178  13.278
 9666W        W74827   4.979  19.210   0.065
 9667W        W74828   7.452  27.658   1.622
 9668W        W74829   9.375   2.222   1.767
 9669W        W74830  20.149   5.018  13.393
 9670W        W74831  42.349  25.596   1.696
 9671W        W74832   1.256  10.149   2.995
 9672W        W74833   5.984  28.208  12.587
 9673W        W74834  26.646   6.562  12.919
 9674W        W74835  13.627  25.489  11.124
 9675W        W74836  13.416  29.180  12.451
 9676W        W74837  26.179  35.328  11.157
 9677W        W74838   2.312   1.774  14.288
 9678W        W74839  43.556  39.417   3.253
 9679W        W74840  12.714  21.297   4.351
 9680W        W74841  24.300  16.147   3.676
 9681W        W74842   3.783  36.534  12.849
 9682W        W74843  30.585  41.540   1.192
 9683W        W74844   7.864  23.029  11.607
 9684W        W74845   3.886  24.590   0.688
 9685W        W74846  17.827  26.744  14.455
 9686W        W74847  28.662  39.293   4.590
 9687W        W74848  34.222  19.971   1.380
 9688W        W74849  18.614  32.149  11.162
 9689W        W74850  18.528  34.552  14.361
 9690W        W74851  44.800  27.911   2.700
 9691W        W74852   2.816   0.243  12.090
 9692W        W74853  16.306  17.839   0.351
 9693W        W74854  19.682   2.328  10.806
 9694W        W74855  19.128  38.038  14.792
 9695W        W74856   2.970  13.663  13.550
 9696W        W74857  35.476  31.394  10.689
 9697W        W74858  14.967  18.012  11.064
 9698W        W74859  10.588  42.915  12.885
 9699W        W74860  43.993  12.494   4.213
 9700W        W74861  20.059  28.591   4.641
 9701W        W74862  37.355  35.586   2.604
 9702W        W74863  25.438   3.484   1.363
 9703W        W74864   0.907  42.316  13.437
 9704W        W74865  37.257  34.981   4.620
 9705W        W74866  34.601  42.170   1.194
 9706W        W74867  29.468  42.743  11.349
 9707W        W74868  37.657  38.385  14.072
 9708W        W74869  19.730  23.644  14.635
 9709W        W74870  38.126  44.539   4.310
 9710W        W74871  11.112  14.237   2.361
 9711W        W74872  36.642  23.883  10.258
 9712W        W74873  37.497   6.715  13.090
 9713W        W74874  36.278  15.211   3.751
 9714W        W74875   2.974   6.141  10.956
 9715W        W74876  23.972  36.226  11.093
 9716W        W74877   6.967  20.892  13.996
 9717W        W74878   1.493  29.984  13.508
 9718W        W74879  32.473  27.603   2.669
 9719W        W74880  21.698  32.018   1.528
 9720W        W74881  14.198  34.371   0.358
 9721W        W74882  27.293  33.308  13.263
 9722W        W74883  18.634  11.262  11.580
 9723W        W74884  36.363  26.776   2.900
 9724W        W74885   4.435  21.756  12.885
 9725W        W74886  21.969   1.928  13.971
 9726W        W74887  37.837  12.167   0.851
 9727W        W74888  40.902  27.085   3.054
 9728W        W74889   9.858  35.061  13.011
 9729W        W74890   2.220   3.451   4.200
 9730W        W74891  43.615   0.360   1.841
 9731W        W74892  16.100  35.439  14.983
 9732W        W74893  10.806   9.988   2.787
 9733W        W74894  14.301  10.583  10.528
 9734W        W74895  21.073  39.975  13.312
 9735W        W74896   6.890  38.311  13.423
 9736W        W74897   4.550  11.061   4.041
 9737W        W74898  17.837  19.530  11.399
 9738W        W74899   4.825  43.898   3.042
 9739W        W74900  29.073   2.954   0.479
 9740W        W74901  43.904  31.397  12.546
 9741W        W74902  37.870  26.867  12.934
 9742W        W74903  15.423  18.633  14.727
 9743W        W74904  30.727  35.381   0.705
 9744W        W74905  30.605  32.989  11.631
 9745W        W74906   1.187  43.219  11.616
 9746W        W74907  42.729   7.872  14.494
 9747W        W74908  26.434  33.718  11.238
 9748W        W74909  18.355   0.813   2.141
 9749W        W74910  39.261  16.805  11.823
 9750W        W74911  32.691  23.705   9.958
 9751W        W74912  33.886  38.805   0.033
 9752W        W74913   3.721   9.531   4.484
 9753W        W74914  33.649  26.337   0.018
 9754W        W74915   0.177  43.979   0.893
 9755W        W74916  40.409  31.397  14.584
 9756W        W74917  22.735   4.777   2.845
 9757W        W74918  27.006  13.504   0.280
 9758W        W74919  39.473   9.374  13.873
 9759W        W74920   1.372  24.245  14.472
 9760W        W74921  44.351  41.486  11.518
 9761W        W74922  20.273  13.326   2.444
 9762W        W74923  17.538  22.742   1.792
 9763W        W74924  32.596  30.828   3.216
 9764W        W74925  14.670  44.751   3.190
 9765W        W74926  16.145  27.632   0.728
 9766W        W74927  17.264   1.353   4.178
 9767W        W74928   6.232  30.876  12.378
 9768W        W74929  13.527  38.065  14.298
 9769W        W74930  36.039  41.049  12.106
 9770W        W74931  42.189   4.367  12.537
 9771W        W74932  16.461  35.535  12.620
 9772W        W74933   8.776  34.309   4.089
 9773W        W74934   6.317  43.542   2.851
 9774W        W74935  22.627  40.080   3.170
 9775W        W74936   7.193   3.073  12.461
 9776W        W74937  31.831   0.455  12.979
 9777W        W74938   1.102  10.670  13.935
 9778W        W74939  22.805  21.185  13.887
 9779W        W74940  32.664  30.172   1.253
 9780W        W74941  15.528   9.248  11.941
 9781W        W74942  20.244  29.011  11.372
 9782W        W74943   5.034  39.060  10.756
 9783W        W74944  33.508  14.784  11.040
 9784W        W74945  13.012  31.036   3.160
 9785W        W74946  27.008  20.210   3.267
 9786W        W74947  20.003  43.710  12.884
 9787W        W74948   9.832  28.734   3.748
 9788W        W74949  30.961  17.091  12.810
 9789W        W74950  28.505  22.152  12.544
 9790W        W74951   5.860   2.656   0.027
 9791W        W74952  19.564  38.399   2.330
 9792W        W74953   9.187   6.429  10.583
 9793W        W74954  12.760  40.111   2.821
 9794W        W74955  29.252  18.308   3.696
 9795W        W74956  40.102  21.545  13.094
 9796W        W74957  42.264  17.751  11.542
 9797W        W74958  19.343   0.968  13.538
 9798W        W74959   9.315   4.350   1.016
 9799W        W74960  33.977   3.347  13.045
 9800W        W74961  43.081  34.417   0.371
 9801W        W74962  18.564   1.958  14.828
 9802W        W74963  40.374  26.360   4.201
 9803W        W74964  43.299  18.137   2.344
 9804W        W74965  21.627  37.412   1.666
 9805W        W74966   3.415   3.437  13.338
 9806W        W74967  28.411  35.536  13.770
 9807W        W74968  27.021  16.188   0.427
 9808W        W74969  42.718  31.058  14.039
 9809W        W74970  15.363  28.783   4.933
 9810W        W74971  27.489  32.039   4.588
 9811W        W74972  44.445   5.077   1.793
 9812W        W74973  33.203  26.445  11.842
 9813W        W74974  35.409  23.069  11.016
 9814W        W74975  34.676  27.164  14.641
 9815W        W74976  44.138  44.581  13.308
 9816W        W74977   1.532   2.624  12.612
 9817W        W74978   1.885  26.758   1.573
 9818W        W74979  43.086  23.167   0.859
 9819W        W74980  13.274  25.730   0.265
 9820W        W74981  24.486   4.870   3.146
 9821W        W74982  42.389  44.785  12.593
 9822W        W74983  32.325  39.281  13.376
 9823W        W74984  20.111  22.173  10.398
 9824W        W74985   7.434   7.833  13.312
 9825W        W74986  12.404  44.166  14.858
 9826W        W74987  18.721   3.903   1.757
 9827W        W74988  26.016   2.802   1.206
 9828W        W74989  29.622   9.122  10.992
 9829W        W74990  25.295  34.608  10.750
 9830W        W74991   5.563  22.943  14.953
 9831W        W74992  38.306   6.361  14.761
 9832W        W74993  37.932   4.871   4.361
 9833W        W74994  32.129   8.740   0.436
 9834W        W74995  13.875   6.855   4.809
 9835W        W74996  10.327  20.591  13.454
 9836W        W74997  24.910  29.802   3.743
 9837W        W74998  30.522  18.826  14.816
 9838W        W74999  35.816  43.545  13.814
 9839W        W75000  25.378  11.843   0.436
 9840W        W75001  13.248   9.110  12.484
 9841W        W75002  40.579   9.076  12.114
 9842W        W75003  42.337  23.325   2.239
 9843W        W75004  33.111  33.814   3.262
 9844W        W75005  32.035   8.597  13.863
 9845W        W75006  16.175  26.725   3.035
 9846W        W75007  17.104  27.909  12.031
 9847W        W75008   7.267  36.734   2.718
 9848W        W75009  43.896  35.854   2.350
 9849W        W75010  26.450  34.714   4.991
 9850W        W75011  43.367  33.912  13.312
 9851W        W75012  29.813  16.481   4.192
 9852W        W75013  26.566  16.383   5.114
 9853W        W75014  14.241  30.840   3.718
 9854W        W75015  40.558  10.344   1.245
 9855W        W75016  38.838  17.384   5.367
 9856W        W75017  27.065  30.996  11.565
 9857W        W75018   8.502  27.379  11.112
 9858W        W75019   7.534  27.004   5.432
 9859W        W75020  32.136  12.801   1.878
 9860W        W75021   1.966  33.927  10.661
 9861W        W75022   5.480  37.303   1.770
 9862W        W75023  25.684  41.231   1.872
 9863W        W75024  14.563   6.369   1.917
 9864W        W75025   9.351   1.894  13.050
 9865W        W75026  27.200  40.280  12.874
 9866W        W75027  12.228  22.335  11.158
 9867W        W75028  16.018  17.600  12.559
 9868W        W75029  23.113   9.168  14.880
 9869W        W75030  34.180  37.958  13.074
 9870W        W75031  38.033  16.524   2.828
 9871W        W75032  37.398  27.351  14.358
 9872W        W75033   6.427  31.844  12.529
 9873W        W75034  30.641  20.694  10.983
 9874W        W75035  39.896  24.072   2.908
 9875W        W75036  10.741   9.533  10.583
 9876W        W75037  39.026  24.244   2.627
 9877W        W75038  36.829  36.593   0.418
 9878W        W75039  26.532  43.399   5.547
 9879W        W75040   5.647  41.328  12.133
 9880W        W75041  40.769  15.335  12.001
 9881W        W75042  21.583  34.509  11.118
 9882W        W75043  30.123   2.693   2.774
 9883W        W75044  32.309  10.120   1.265
 9884W        W75045   2.435   2.341  13.419
 9885W        W75046  13.800  44.431  14.534
 9886W        W75047  35.376  33.828   1.198
 9887W        W75048   4.266  24.906  14.364
 9888W        W75049  34.427   8.926   2.778
 9889W        W75050  39.462   0.977  11.584
 9890W        W75051  19.671   9.610   1.816
 9891W        W75052   1.974  10.029   2.812
 9892W        W75053  36.583  21.174   3.861
 9893W        W75054   0.620   7.479  13.069
 9894W        W75055  28.985  17.746  14.292
 9895W        W75056  37.443  31.725  11.139
 9896W        W75057  11.741  32.540  12.799
 9897W        W75058   5.770   9.688  12.422
 9898W        W75059  34.964  41.935  12.464
 9899W        W75060  13.338  15.677  10.956
 9900W        W75061  43.341  30.569   0.206
 9901W        W75062  18.234  13.654   0.906
 9902W        W75063  35.054   0.021  13.865
 9903W        W75064   8.731  20.024   4.197
 9904W        W75065  23.270  16.216  11.548
 9905W        W75066   6.682   0.134   3.355
 9906W        W75067  11.575  36.582   0.478
 9907W        W75068  13.816  20.656  13.512
 9908W        W75069  42.574   9.169  11.113
 9909W        W75070   0.964  43.300   3.026
 9910W        W75071  26.112   1.962   3.739
 9911W        W75072  31.513  33.610   4.196
 9912W        W75073   3.220  23.452  11.046
 9913W        W75074   2.037  18.588   3.555
 9914W        W75075  35.395   7.139   1.847
 9915W        W75076  35.696  23.529  11.120
 9916W        W75077  37.680  27.852   3.589
 9917W        W75078  24.982   5.510  13.800
 9918W        W75079  24.458  42.325  12.114
 9919W        W75080  20.188  20.931   1.305
 9920W        W75081   6.241   5.013  14.523
 9921W        W75082  34.794  16.714  12.932
 9922W        W75083   1.885  34.349  11.547
 9923W        W75084  14.387  13.344  11.925
 9924W        W75085   7.802  32.687   2.258
 9925W        W75086  16.800  30.230  11.382
 9926W        W75087  24.680  27.591  11.667
 9927W        W75088  35.819  32.994   1.749
 9928W        W75089  17.313  31.989  10.713
 9929W        W75090  42.932  21.796  12.340
 9930W        W75091  34.310  36.472  14.949
 9931W        W75092   6.175  20.293   0.961
 9932W        W75093  16.068  21.214  14.925
 9933W        W75094  40.778  13.285  12.082
 9934W        W75095  33.679  10.254  10.067
 9935W        W75096  18.208  33.726   2.639
 9936W        W75097  21.895  10.802   1.164
 9937W        W75098   6.334   2.799   1.650
 9938W        W75099  13.236   5.648  13.785
 9939W        W75100  13.325  11.540  13.345
 9940W        W75101  35.340  43.037  10.729
 9941W        W75102   5.199   5.794   4.786
 9942W        W75103  10.442  43.410  11.326
 9943W        W75104   5.208  16.511   0.744
 9944W        W75105   8.368  29.657   4.360
 9945W        W75106  14.308  44.538  12.880
 9946W        W75107   8.659  37.486   3.326
 9947W        W75108  16.913  16.940   5.385
 9948W        W75109  13.629  24.522   0.740
 9949W        W75110  20.631  27.205  11.607
 9950W        W75111  19.995  29.013   0.526
 9951W        W75112  41.073   8.666  11.617
 9952W        W75113  22.831  27.097  11.372
 9953W        W75114  38.881  42.174   3.306
 9954W        W75115   9.808  24.614   4.945
 9955W        W75116  33.957   8.403   4.883
 9956W        W75117   2.989  40.559   4.112
 9957W        W75118  29.053   3.289   4.609
 9958W        W75119   4.081  14.213  11.603
 9959W        W75120  17.787  12.690  14.778
 9960W        W75121  34.391  20.032   2.713
 9961W        W75122  17.762  32.995   3.327
 9962W        W75123  41.360  30.881   2.628
 9963W        W75124  24.229   5.836   0.474
 9964W        W75125  34.508   9.001  11.239
 9965W        W75126  37.236   7.279  10.745
 9966W        W75127   9.186  32.175  14.713
 9967W        W75128  35.949   1.363  14.074
 9968W        W75129   6.284  22.151  10.709
 9969W        W75130  29.743   0.714  14.945
 9970W        W75131  12.768   4.432  14.239
 9971W        W75132  27.322  33.859   0.313
 9972W        W75133  15.479  16.605  10.737
 9973W        W75134  42.022  11.804   3.058
 9974W        W75135   0.806  37.495  14.404
 9975W        W75136  17.100   9.093  13.371
 9976W        W75137  16.695  24.645   2.721
 9977W        W75138  12.823  33.974  11.405
 9978W        W75139  17.006  44.512  14.478
 9979W        W75140   6.642  25.264  11.085
 9980W        W75141   4.106  35.598  13.477
 9981W        W75142  24.279   3.403  14.046
 9982W        W75143  11.651  31.592   0.771
 9983W        W75144  43.887  41.099   3.167
 9984W        W75145  41.061  16.273   2.836
 9985W        W75146   5.775   7.713   4.735
 9986W        W75147  12.896  24.126  12.391
 9987W        W75148  13.849  11.749  14.852
 9988W        W75149  31.239   7.244  14.896
 9989W        W75150   2.671  25.527  13.828
 9990W        W75151  16.995  43.354  12.938
 9991W        W75152  20.622  40.064   0.097
 9992W        W75153  42.040  39.256   1.801
 9993W        W75154  15.562   5.065   4.153
 9994W        W75155   1.062  25.076  11.695
 9995W        W75156  38.345  19.079   1.344
 9996W        W75157   6.375  40.733  12.923
 9997W        W75158  27.685  28.179  11.553
 9998W        W75159  40.920  21.510  11.929
 9999W        W75160   2.949  36.214  11.816
10000W        W75161   6.507   9.871   3.228
10001W        W75162   1.930  37.140   3.206
10002W        W75163  39.438  32.538  13.988
10003W        W75164   7.671  11.581  12.970
10004W        W75165   2.405  23.996  13.039
10005W        W75166  11.594  30.510  13.027
10006W        W75167  30.527  39.415  13.385
10007W        W75168  26.791  23.922   4.494
10008W        W75169  20.667  41.969  13.846
10009W        W75170  26.637  43.918   0.664
10010W        W75171  37.869   0.879  14.937
10011W        W75172   0.991   7.211   2.257
10012W        W75173  29.513  14.538  10.695
10013W        W75174   4.736  25.019  12.307
10014W        W75175   2.484   5.151   0.337
10015W        W75176   4.945  21.218  11.017
10016W        W75177   0.272  10.525   1.329
10017W        W75178  44.348  36.436   3.627
10018W        W75179  31.968   9.311  14.248
10019W        W75180  25.919  26.129  12.014
10020W        W75181  31.418  40.837   2.880
10021W        W75182  32.141  43.698   1.049
10022W        W75183  44.933  23.133   4.549
10023W        W75184  10.394  19.517  12.708
10024W        W75185  44.432   0.466   4.972
10025W        W75186   4.192  31.433  13.988
10026W        W75187  28.423  32.989  14.120
10027W        W75188  37.838  36.957  13.580
10028W        W75189  10.398  30.030   4.381
10029W        W75190  31.847  10.804  10.773
10030W        W75191  36.853   6.980  11.515
10031W        W75192   6.817  42.344   0.867
10032W        W75193  16.455  13.596  13.709
10033W        W75194   5.974  23.300  14.912
10034W        W75195  29.982  26.755  12.201
10035W        W75196  24.942  14.373   3.587
10036W        W75197  14.483   7.758  10.932
10037W        W75198   9.402  28.091  14.196
10038W        W75199  13.086  29.999  14.161
10039W        W75200  37.437  43.464  10.620
10040W        W75201  16.533   9.132   3.870
10041W        W75202  11.084  26.237  14.354
10042W        W75203  18.472  39.393   1.972
10043W        W75204  15.629  21.670  13.585
10044W        W75205  31.360  35.612   1.826
10045W        W75206  18.065   7.168  11.522
10046W        W75207  42.510  16.697  13.664
10047W        W75208  32.689  13.164  13.051
10048W        W75209  31.115   0.859  12.047
10049W        W75210  40.882  11.181  14.550
10050W        W75211  27.984  37.659   4.630
10051W        W75212  42.102  41.857  10.786
10052W        W75213  13.746  13.772   5.101
10053W        W75214  31.590  27.043  12.981
10054W        W75215  32.561  13.811  14.806
10055W        W75216   6.781  38.452  11.654
10056W        W75217   1.402  30.129  10.590
10057W        W75218   1.443  11.695   2.786
10058W        W75219  30.513   1.715  12.136
10059W        W75220  29.613  14.538   1.738
10060W        W75221  15.085  23.779  11.366
10061W        W75222   5.399   4.275  12.854
10062W        W75223  17.447   9.459  14.981
10063W        W75224   6.967   2.194   1.416
10064W        W75225  14.596   7.768  12.772
10065W        W75226  39.358  22.624  12.932
10066W        W75227   5.315  23.887  14.581
10067W        W75228  23.731   2.960  14.868
10068W        W75229  22.407  27.065  10.919
10069W        W75230   4.717  17.744  12.398
10070W        W75231  43.318  42.893  13.921
10071W        W75232  37.854  11.312  13.037
10072W        W75233   2.617  18.457  13.607
10073W        W75234  44.484  29.355   4.239
10074W        W75235  40.285   7.083   3.345
10075W        W75236  40.286  39.832  12.048
10076W        W75237  22.991  28.279   2.882
10077W        W75238  26.195  23.946   0.253
10078W        W75239  44.428  27.252   4.114
10079W        W75240  30.142  25.913   1.379
10080W        W75241  32.565  27.504  10.428
10081W        W75242   8.186  33.611  14.843
10082W        W75243  24.004  28.793   4.670
10083W        W75244   9.432  35.420  14.221
10084W        W75245   6.125  11.197  14.376
10085W        W75246  22.481  37.554  10.761
10086W        W75247   5.548  28.786   0.859
10087W        W75248  17.550  36.827  13.956
10088W        W75249  11.143  30.215  12.166
10089W        W75250   9.880  13.202   2.172
10090W        W75251  20.388  34.343   1.048
10091W        W75252  10.697  15.641   3.654
10092W        W75253  10.299  10.297   2.106
10093W        W75254  18.618  14.084   0.462
10094W        W75255  18.078  28.225  12.908
10095W        W75256  37.403  44.811   4.067
10096W        W75257  38.854   9.834   1.886
10097W        W75258  31.107  27.774  10.921
10098W        W75259  18.692  38.002   2.905
10099W        W75260  31.545  32.689   3.774
10100W        W75261   0.715  38.463   0.348
10101W        W75262  38.458  30.620  11.965
10102W        W75263  27.675  41.295  14.927
10103W        W75264  15.677  19.316   4.386
10104W        W75265  20.847  17.229   9.813
10105W        W75266   5.172  14.301  10.442
10106W        W75267   5.248   1.258   2.380
10107W        W75268  14.712  42.345  14.585
10108W        W75269  19.009  34.660  12.434
10109W        W75270   3.388  15.659   0.845
10110W        W75271  16.806  31.027   4.509
10111W        W75272  28.188  41.867  10.466
10112W        W75273   1.291  12.051  11.494
10113W        W75274  36.459  33.685  13.388
10114W        W75275  37.144  15.824  12.867
10115W        W75276  41.942  29.007   2.367
10116W        W75277   6.877  31.873  14.948
10117W        W75278  32.839  35.495   4.318
10118W        W75279  26.124  38.278  12.846
10119W        W75280  26.986  24.118   4.053
10120W        W75281   8.714   5.833  13.562
10121W        W75282   6.996  41.867  14.483
10122W        W75283  31.790  37.379  12.516
10123W        W75284  30.403  43.443  12.437
10124W        W75285   6.199  21.235  13.496
10125W        W75286  37.583  15.126   3.174
10126W        W75287  24.001  32.323  12.348
10127W        W75288   2.503  18.739  10.747
10128W        W75289  22.905  42.524   3.224
10129W        W75290  23.654   1.060  10.678
10130W        W75291  34.688  43.872  11.465
10131W        W75292  38.018  43.816  13.505
10132W        W75293  36.576  17.255   3.182
10133W        W75294  36.595  39.506   4.195
10134W        W75295  31.345  16.200   0.341
10135W        W75296  44.649   5.426  14.764
10136W        W75297  31.869  17.141   2.619
10137W        W75298  14.573   3.322   4.773
10138W        W75299  44.986  44.536  11.584
10139W        W75300  28.176  42.333   1.310
10140W        W75301  43.898   3.622  12.017
10141W        W75302  23.544  39.017   5.166
10142W        W75303   2.756   4.175   3.704
10143W        W75304  24.330   6.076   3.158
10144W        W75305  36.022   3.165  11.635
10145W        W75306  25.389  22.268  13.073
10146W        W75307  35.006  24.222  13.774
10147W        W75308   1.537   6.003  11.913
10148W        W75309   8.935  14.006   2.759
10149W        W75310  33.727   7.385  11.171
10150W        W75311  13.312  40.981   1.362
10151W        W75312  36.682   7.236   1.814
10152W        W75313  22.819  37.023   3.869
10153W        W75314   6.943   2.896   4.531
10154W        W75315  11.377  20.098  10.899
10155W        W75316  15.160  34.001   2.375
10156W        W75317   0.052  30.492   4.298
10157W        W75318  30.482  15.174   0.868
10158W        W75319  40.457  11.119   1.724
10159W        W75320  12.601  39.904  11.560
10160W        W75321   4.515  31.829  13.903
10161W        W75322  15.125   6.709   2.399
10162W        W75323  21.099  23.288  14.494
10163W        W75324   8.128  41.807  11.155
10164W        W75325  43.404  41.276  13.986
10165W        W75326  27.631   7.792   1.491
10166W        W75327  43.658  15.524  10.776
10167W        W75328  19.975   9.745   2.242
10168W        W75329   9.251  44.164   4.650
10169W        W75330  36.792  23.601  14.431
10170W        W75331  18.820   2.382  12.065
10171W        W75332  29.897   6.771  13.062
10172W        W75333  24.083   2.211   1.648
10173W        W75334   5.683  24.966   3.362
10174W        W75335  35.952  13.216  12.840
10175W        W75336  11.109  11.255  14.732
10176W        W75337  39.911  10.728  14.108
10177W        W75338  32.172  28.998   2.002
10178W        W75339  37.919  18.250  10.167
10179W        W75340   1.250  30.410  12.909
10180W        W75341  18.054  18.656   0.510
10181W        W75342  25.272  23.462  12.006
10182W        W75343  34.148  12.947  11.780
10183W        W75344  17.005   3.282   1.469
10184W        W75345  34.128  42.131  12.426
10185W        W75346   0.777  32.596  11.890
10186W        W75347  11.409  43.973   2.693
10187W        W75348  10.200  25.421  13.746
10188W        W75349  15.875   6.134  14.903
10189W        W75350  17.750  31.769   3.988
10190W        W75351  26.496   8.728   4.882
10191W        W75352  10.613  23.345  14.475
10192W        W75353  20.894  18.299   4.625
10193W        W75354  28.860  37.899  11.213
10194W        W75355  27.036  32.846  13.297
10195W        W75356  15.249  18.938  10.071
10196W        W75357  38.127   7.372   3.258
10197W        W75358  43.452  32.489   1.827
10198W        W75359   5.006  32.424  12.437
10199W        W75360  36.017   5.917  12.710
10200W        W75361   8.235  26.132   5.153
10201W        W75362  12.593   8.834  11.113
10202W        W75363  32.628  29.439   1.035
10203W        W75364  27.700  15.572   4.608
10204W        W75365  39.992  15.236   0.743
10205W        W75366   8.790  14.166   4.482
10206W        W75367  21.287  20.485  13.330
10207W        W75368   5.137   4.729  12.906
10208W        W75369   3.574  25.181   3.151
10209W        W75370  25.440  35.849   1.751
10210W        W75371  21.981  38.319   3.123
10211W        W75372   8.216  12.506   3.197
10212W        W75373  31.484   6.043   3.870
10213W        W75374  20.266  12.966  10.739
10214W        W75375  15.198  20.973   3.644
10215W        W75376  27.197   8.924  11.079
10216W        W75377  38.987  32.562  12.942
10217W        W75378  33.133  42.482  14.961
10218W        W75379   8.356  37.567  14.441
10219W        W75380  11.671  26.992   3.640
10220W        W75381  34.591  17.598   4.424
10221W        W75382  43.974  20.286  10.730
10222W        W75383  37.157  20.986   3.780
10223W        W75384  11.611  12.176  14.518
10224W        W75385  34.881  24.247   2.175
10225W        W75386  13.293  33.775   3.247
10226W        W75387  18.614  35.739   3.379
10227W        W75388   0.404  41.800   2.824
10228W        W75389  17.445  29.460   4.824
10229W        W75390  25.628  36.918  14.509
10230W        W75391  25.634  21.585  14.831
10231W        W75392  28.559   3.175  14.429
10232W        W75393  29.171   7.921  10.694
10233W        W75394  20.120  36.396  11.014
10234W        W75395  27.938  15.207  11.900
10235W        W75396  26.558  40.189   3.989
10236W        W75397  18.091  39.074   1.287
10237W        W75398   9.969  10.014  11.192
10238W        W75399  19.246  15.084   4.865
10239W        W75400   7.658  13.034   2.834
10240W        W75401   3.153  11.748   1.651
10241W        W75402  18.658  34.336   2.741
10242W        W75403  23.159  42.624   4.112
10243W        W75404   5.121  33.610   3.264
10244W        W75405  22.225  15.089  14.993
10245W        W75406   8.881  13.928   1.738
10246W        W75407   4.798  35.172  12.852
10247W        W75408  44.436  30.561   3.106
10248W        W75409  26.263  21.200  13.882
10249W        W75410  37.852  14.610   0.190
10250W        W75411  33.949  28.470  12.901
10251W        W75412  40.964  18.874  11.487
10252W        W75413  27.683  19.172  12.450
10253W        W75414   9.713  36.221  11.109
10254W        W75415  13.117  31.571   1.622
10255W        W75416  39.024  21.066  10.225
10256W        W75417   4.976  36.586   2.849
10257W        W75418   9.206  12.160  12.396
10258W        W75419  31.333  10.718  14.437
10259W        W75420   3.256  41.928   1.360
10260W        W75421  43.752   6.352  14.000
10261W        W75422  38.929  41.127   4.171
10262W        W75423   4.665  42.946   1.809
10263W        W75424  15.755  44.520  14.786
10264W        W75425  23.615  20.340   2.372
10265W        W75426  21.691  41.258   2.897
10266W        W75427  44.934  20.159  11.687
10267W        W75428  15.843  18.512  12.557
10268W        W75429  30.907  32.735  14.348
10269W        W75430  17.676   7.190   2.892
10270W        W75431  29.563  17.599   3.639
10271W        W75432  21.806   2.950  14.974
10272W        W75433  18.260  10.273   4.672
10273W        W75434  28.761  29.622  13.834
10274W        W75435   4.481  39.632   2.259
10275W        W75436  30.118  12.445   1.437
10276W        W75437  38.333  13.644  12.898
10277W        W75438  33.856  13.883  13.376
10278W        W75439   0.490  25.595  11.033
10279W        W75440  23.061  40.697  10.968
10280W        W75441   0.292  32.254   1.995
10281W        W75442  30.934  14.321  12.416
10282W        W75443   6.682  42.946   2.882
10283W        W75444  37.008  32.007  12.904
10284W        W75445  32.820  30.630  12.057
10285W        W75446  35.724  25.881   3.775
10286W        W75447   1.300  13.358  12.576
10287W        W75448  36.505  20.724   3.195
10288W        W75449  19.498  20.012   0.417
10289W        W75450   5.377  23.182   1.464
10290W        W75451   8.237  42.995  14.428
10291W        W75452  44.854  32.924   4.209
10292W        W75453   5.690  18.776  14.882
10293W        W75454  22.570  17.622  11.481
10294W        W75455  18.340  30.813   2.341
10295W        W75456  11.226  41.968  11.932
10296W        W75457  15.522  35.546  12.934
10297W        W75458  38.877  36.744  14.289
10298W        W75459  31.720  41.811  10.873
10299W        W75460  25.693  19.756   3.136
10300W        W75461  43.288   4.869  13.964
10301W        W75462  18.307   0.407   2.970
10302W        W75463  19.331  31.398  13.168
10303W        W75464  34.154  37.891   0.931
10304W        W75465  10.951  25.261   2.840
10305W        W75466  15.829  17.857   2.654
10306W        W75467   9.754  30.975  12.942
10307W        W75468  11.365  12.866  11.185
10308W        W75469  18.773  29.107  12.464
10309W        W75470  32.877  38.337   0.769
10310W        W75471  27.074  43.000   0.889
10311W        W75472  21.509  13.423   4.150
10312W        W75473   3.791  23.646   2.965
10313W        W75474  40.797  37.010   0.373
10314W        W75475  15.780  40.524  12.457
10315W        W75476  37.630  14.204   2.556
10316W        W75477   6.129  35.021   1.965
10317W        W75478  28.560   4.437   3.177
10318W        W75479  20.099  25.986   4.287
10319W        W75480  13.606  27.816  14.375
10320W        W75481  12.073   3.847  14.410
10321W        W75482  36.125  20.735   1.673
10322W        W75483   5.304  14.080   1.921
10323W        W75484  38.470  23.022   0.923
10324W        W75485  13.463  31.902  13.991
10325W        W75486  25.813  44.586  13.590
10326W        W75487   5.792  25.159   3.814
10327W        W75488   5.192  18.053  13.378
10328W        W75489  22.147  14.415   2.643
10329W        W75490   2.424  16.636   1.573
10330W        W75491  18.801  18.554   3.512
10331W        W75492  39.961   0.635   3.137
10332W        W75493  28.883  21.247  12.513
10333W        W75494  20.548   4.189  14.472
10334W        W75495   9.945  42.381   0.377
10335W        W75496  26.481  44.285   5.194
10336W        W75497  26.435  29.095   3.877
10337W        W75498  41.555  29.575  12.950
10338W        W75499  43.349  44.051   0.413
10339W        W75500  35.449  18.795  13.903
10340W        W75501  17.886  39.824  13.818
10341W        W75502  31.571  20.613   4.300
10342W        W75503  17.265   3.673   3.586
10343W        W75504  16.751  41.195   4.281
10344W        W75505   4.721  29.971  13.220
10345W        W75506  27.891  44.847  13.302
10346W        W75507  43.831  21.863   3.764
10347W        W75508  17.131  23.624   3.497
10348W        W75509  28.606  20.257  14.958
10349W        W75510  10.719  21.757   3.614
10350W        W75511  14.308  19.046   3.265
10351W        W75512   2.873  36.987  10.676
10352W        W75513  11.316  19.598   0.832
10353W        W75514   3.486  12.624   0.454
10354W        W75515  22.249  43.374  13.225
10355W        W75516  29.042  19.106  10.701
10356W        W75517  41.227   2.626   2.771
10357W        W75518  11.691  29.931   4.573
10358W        W75519  19.306  35.182   4.210
10359W        W75520  41.792  17.458  12.929
10360W        W75521  36.304  17.096  10.696
10361W        W75522  40.344  39.501   1.229
10362W        W75523  17.031  23.143  10.487
10363W        W75524  28.688   1.982   3.123
10364W        W75525  40.855  39.193   4.804
10365W        W75526  17.127   8.239   0.942
10366W        W75527  27.939  22.974   2.133
10367W        W75528   9.778   5.333   3.654
10368W        W75529   8.954  35.070  13.397
10369W        W75530  23.826  18.695  14.842
10370W        W75531  24.178  25.565  10.156
10371W        W75532  24.154  16.066  11.615
10372W        W75533  35.988   1.015   1.798
10373W        W75534  31.610  20.229   0.477
10374W        W75535  22.781  21.819  12.401
10375W        W75536  26.535  14.666  14.066
10376W        W75537  25.608  38.989   3.164
10377W        W75538  19.697   6.102   0.860
10378W        W75539  37.163  37.902   9.898
10379W        W75540   0.023  44.887  10.363
10380W        W75541  10.619  16.706   1.235
10381W        W75542   6.384  44.899   2.244
10382W        W75543   6.257   8.592   2.865
10383W        W75544  25.034  14.134   0.800
10384W        W75545   8.871  28.731  11.177
10385W        W75546  27.406  25.697   1.100
10386W        W75547  23.098  21.452   4.466
10387W        W75548   4.072  41.473  11.117
10388W        W75549  22.598  44.256   0.435
10389W        W75550  18.518  13.521   4.561
10390W        W75551   1.313  22.186   0.038
10391W        W75552  24.973  37.890  14.549
10392W        W75553   4.683   0.560   0.080
10393W        W75554   8.877  24.772  11.982
10394W        W75555   7.423   6.185  12.908
10395W        W75556   1.093   3.739  11.109
10396W        W75557  30.080  31.045   1.336
10397W        W75558   8.886  39.400  12.854
10398W        W75559  22.202  30.821   1.172
10399W        W75560  25.013  42.424   2.182
10400W        W75561  37.808   6.928   0.792
10401W        W75562   4.243   7.299   5.033
10402W        W75563  14.848  35.047   0.221
10403W        W75564  30.179  21.083   0.813
10404W        W75565  21.205  33.048  10.084
10405W        W75566  12.719  35.635  12.059
10406W        W75567   8.611  29.008  14.869
10407W        W75568  17.973  19.043  11.646
10408W        W75569  13.978   8.532   3.828
10409W        W75570  37.902  17.676  13.776
10410W        W75571   4.429   8.713   2.434
10411W        W75572   9.656   3.288   2.360
10412W        W75573  36.817  12.835   2.721
10413W        W75574  43.427   3.307  13.646
10414W        W75575  25.859  43.883  11.462
10415W        W75576  13.217  31.966   0.746
10416W        W75577   5.009  20.637  12.379
10417W        W75578  36.320  17.213   4.051
10418W        W75579  19.883  37.570  11.555
10419W        W75580  21.495   0.933  10.581
10420W        W75581  38.502  28.982  10.348
10421W        W75582  25.776   9.710   3.144
10422W        W75583  43.693  38.778  12.040
10423W        W75584  33.546  19.268  10.358
10424W        W75585  22.950  28.162  11.575
10425W        W75586  15.234  23.061  11.553
10426W        W75587   3.834  14.540  11.931
10427W        W75588  10.496  39.324   4.167
10428W        W75589  23.288  24.994   1.246
10429W        W75590  38.496  27.057   2.645
10430W        W75591   5.437  31.133   5.048
10431W        W75592  33.964  34.856   1.914
10432W        W75593   3.978  27.149   1.760
10433W        W75594  12.750   7.483  12.601
10434W        W75595  22.557  30.483   3.761
10435W        W75596   9.011  34.929   1.755
10436W        W75597   3.446  18.991  12.768
10437W        W75598  27.518  43.883   4.823
10438W        W75599  29.996   7.343   1.596
10439W        W75600  14.055  13.182   4.281
10440W        W75601   3.346  26.971   3.863
10441W        W75602  29.624   3.481   2.153
10442W        W75603  32.198  21.803   0.919
10443W        W75604   0.048   5.299  11.320
10444W        W75605  14.785  10.893   3.724
10445W        W75606  29.042  39.637  14.073
10446W        W75607  33.558   5.104   2.116
10447W        W75608  43.881  27.935  14.853
10448W        W75609  25.115  29.697  12.065
10449W        W75610   4.221  19.664   3.198
10450W        W75611   0.903  35.023  11.099
10451W        W75612  31.865  29.071  11.102
10452W        W75613  10.054  23.231  13.368
10453W        W75614  14.782  39.677   2.721
10454W        W75615  41.959  27.116  10.555
10455W        W75616  41.104  31.185  12.501
10456W        W75617  25.753  34.828  13.376
10457W        W75618   3.611   4.051   4.584
10458W        W75619   0.557   9.178   4.221
10459W        W75620  19.696  28.633   4.265
10460W        W75621  29.920   4.605  13.253
10461W        W75622  26.087   5.842  13.805
10462W        W75623  37.525  35.082  13.839
10463W        W75624  20.634  41.947   3.002
10464W        W75625  31.196  25.539   4.078
10465W        W75626  13.411  13.611   3.155
10466W        W75627  13.973  11.327  10.374
10467W        W75628  15.385  24.680  13.904
10468W        W75629  38.827   9.922  14.493
10469W        W75630  20.054  39.918  11.073
10470W        W75631  39.933  12.589   3.197
10471W        W75632  26.536  17.525  11.533
10472W        W75633   0.144   5.436  14.610
10473W        W75634  22.271  16.161   2.228
10474W        W75635   5.870  31.104   3.728
10475W        W75636  26.992   2.331   1.887
10476W        W75637   8.444  10.913   0.812
10477W        W75638   2.934  35.556   4.182
10478W        W75639   7.040  30.688   4.245
10479W        W75640   1.790  35.478  11.906
10480W        W75641  20.805   3.980   1.803
10481W        W75642  37.774  25.970   2.203
10482W        W75643   8.930  36.487  10.675
10483W        W75644   3.944  11.371   0.394
10484W        W75645  37.286  13.676  14.007
10485W        W75646  27.125  16.704   0.001
10486W        W75647  19.278  13.873  12.952
10487W        W75648  21.081  21.542  11.576
10488W        W75649  15.195  43.034   3.688
10489W        W75650  44.554  43.539  13.985
10490W        W75651  29.534  27.113   1.594
10491W        W75652  14.261   8.200   2.648
10492W        W75653  20.835   3.858  13.705
10493W        W75654  41.833  40.368   2.654
10494W        W75655  27.107  39.504  10.887
10495W        W75656  12.774  43.296  10.727
10496W        W75657   0.534  31.898   2.840
10497W        W75658  10.290   8.739  10.252
10498W        W75659  41.353  23.217  11.753
10499W        W75660  29.359  12.759   2.622
10500W        W75661  16.827  40.972  14.613
10501W        W75662  17.730  21.268   4.687
10502W        W75663  24.735  16.849   2.215
10503W        W75664   1.766  19.646   4.903
10504W        W75665   9.825  23.119  14.696
10505W        W75666   8.724  42.516   3.353
10506W        W75667  14.630  43.854   0.961
10507W        W75668  28.727  31.314  13.469
10508W        W75669  28.264  33.169  12.089
10509W        W75670  14.794  14.215   4.238
10510W        W75671   4.377  28.544   3.155
10511W        W75672  12.573  44.275   4.527
10512W        W75673  12.085  17.555   1.448
10513W        W75674  30.046  29.889   0.267
10514W        W75675  33.581  37.959  14.541
10515W        W75676   6.142  18.012   1.766
10516W        W75677  22.822   8.915  11.329
10517W        W75678   3.862  20.150  12.174
10518W        W75679  11.157  15.726  10.456
10519W        W75680  16.287  43.073  11.937
10520W        W75681  14.644  43.050  13.903
10521W        W75682   0.990   5.703   2.444
10522W        W75683   5.711  23.181   3.276
10523W        W75684  33.645  44.546  14.992
10524W        W75685  30.328  16.548   4.312
10525W        W75686  36.600  33.439   2.861
10526W        W75687  44.982  27.635  12.293
10527W        W75688  12.923  32.015   4.079
10528W        W75689  44.668  40.374  11.050
10529W        W75690  16.249  17.694   1.197
10530W        W75691  16.116  41.820   0.754
10531W        W75692  12.417   6.160  10.783
10532W        W75693  27.665  18.823  12.033
10533W        W75694  17.714   9.889  14.785
10534W        W75695  16.193  14.890   2.757
10535W        W75696  14.106  15.677   5.080
10536W        W75697  16.634  12.889  11.583
10537W        W75698  25.180   6.707   3.230
10538W        W75699  28.281  11.108  13.843
10539W        W75700  23.189  44.563   2.108
10540W        W75701  11.560  44.612  13.158
10541W        W75702  28.891  19.367  13.913
10542W        W75703  27.458  17.749  14.173
10543W        W75704   2.175  40.906   2.158
10544W        W75705   2.922  30.978  12.004
10545W        W75706  26.683  40.338  12.939
10546W        W75707  19.127  23.498   0.250
10547W        W75708  22.099  30.441   5.106
10548W        W75709  41.351   4.139  11.139
10549W        W75710  22.512  17.354   9.628
10550W        W75711   6.565   2.857   3.209
10551W        W75712  17.599  10.114  11.076
10552W        W75713  11.267  31.963   2.442
10553W        W75714   6.404   5.387   3.966
10554W        W75715   4.764  27.648  11.502
10555W        W75716   4.240  18.293   1.167
10556W        W75717  38.317  30.884   1.940
10557W        W75718  17.504  34.399   0.675
10558W        W75719  21.653   2.421   4.223
10559W        W75720  36.365  27.166   0.837
10560W        W75721  35.272  19.839   4.120
10561W        W75722  27.012  15.209   3.000
10562W        W75723  20.670  20.760   2.716
10563W        W75724  44.926  21.721  13.422
10564W        W75725  13.349  17.208   3.265
10565W        W75726   6.038   1.359   0.001
10566W        W75727  40.709  40.111  11.907
10567W        W75728  17.905  30.954   0.921
10568W        W75729  41.949   4.887   1.596
10569W        W75730  17.801   3.363  12.605
10570W        W75731  39.703  25.697   0.303
10571W        W75732  13.052  17.633   1.216
10572W        W75733  23.203  31.093   3.779
10573W        W75734   1.652   9.130  11.494
10574W        W75735   1.882  35.345   1.781
10575W        W75736  10.882  13.605  11.507
10576W        W75737  44.055   9.794   3.591
10577W        W75738  28.608  27.214   0.344
10578W        W75739  37.614   1.647  12.858
10579W        W75740  37.371  10.433  14.212
10580W        W75741  25.995   5.299  14.018
10581W        W75742  33.396  28.139   3.290
10582W        W75743  16.784  32.089  14.004
10583W        W75744   6.534  34.792   9.919
10584W        W75745   0.771  24.985   2.154
10585W        W75746  20.581  14.713   4.382
10586W        W75747  29.423  36.605   0.439
10587W        W75748   1.847  26.522   0.383
10588W        W75749  36.128  16.903   4.416
10589W        W75750   9.206  36.446   3.473
10590W        W75751  34.002  30.481   4.256
10591W        W75752  23.938  18.240   3.753
10592W        W75753  11.673   1.631  13.765
10593W        W75754  16.538  16.846  13.001
10594W        W75755  28.441  11.390  11.939
10595W        W75756  42.331  22.678   3.283
10596W        W75757   1.867   5.858   4.143
10597W        W75758  34.584   2.525   3.601
10598W        W75759   9.398  42.668   0.856
10599W        W75760  43.298  16.046   0.815
10600W        W75761  16.998  30.846  14.379
10601W        W75762   9.702   9.377  13.349
10602W        W75763  15.091  22.213   0.972
10603W        W75764  44.854  14.833   2.165
10604W        W75765  22.578  40.351   3.825
10605W        W75766   6.697  40.592   2.757
10606W        W75767  24.001  43.880   1.743
10607W        W75768   2.086   5.266  11.613
10608W        W75769   2.747  16.336   9.764
10609W        W75770  27.828  25.501  14.825
10610W        W75771  24.195   3.002   1.196
10611W        W75772  31.811  12.921  11.935
10612W        W75773  30.943  28.567   1.950
10613W        W75774  19.824  20.629  13.477
10614W        W75775  17.253  12.388  12.039
10615W        W75776  14.373  37.631  13.389
10616W        W75777  26.105  41.716  12.518
10617W        W75778  19.401  18.703   1.701
10618W        W75779  43.238   0.268   3.353
10619W        W75780   1.005  14.644  13.931
10620W        W75781   5.709  41.100  13.310
10621W        W75782  22.804  42.071   0.684
10622W        W75783  29.174  24.623   3.576
10623W        W75784   7.168  38.060  11.552
10624W        W75785  19.798  33.977   3.319
10625W        W75786  30.932  13.233  14.510
10626W        W75787  33.091   0.972  12.012
10627W        W75788  29.822  42.420  11.529
10628W        W75789  11.203   8.420   2.379
10629W        W75790  41.968  30.373   3.828
10630W        W75791  44.237   6.135   0.841
10631W        W75792  39.466  44.424  11.791
10632W        W75793  38.309  12.316   1.773
10633W        W75794   9.100  31.982  12.989
10634W        W75795  39.354  11.571  14.987
10635W        W75796   7.883  43.302  12.403
10636W        W75797  24.673  36.881   1.851
10637W        W75798  33.563   6.948  13.374
10638W        W75799  19.589  41.633   2.229
10639W        W75800  32.198  22.196  13.462
10640W        W75801  30.407   5.908  13.399
10641W        W75802  25.233  26.996   3.384
10642W        W75803   8.762  18.243   1.372
10643W        W75804  44.414  42.359   0.387
10644W        W75805   3.425  22.060   1.247
10645W        W75806   8.372  34.627  13.884
10646W        W75807   6.230   7.163   3.632
10647W        W75808  12.048   2.468   2.908
10648W        W75809  27.638  17.246   0.575
10649W        W75810  40.392  14.775  13.878
10650W        W75811  12.689  15.564   3.517
10651W        W75812  28.440  32.561  11.661
10652W        W75813  36.142  19.535   1.301
10653W        W75814  37.578  15.647  11.160
10654W        W75815   5.411  19.063   0.345
10655W        W75816  21.360  40.428  13.498
10656W        W75817  34.786   9.072   0.530
10657W        W75818  19.487  30.182   1.949
10658W        W75819   8.322  34.477   3.872
10659W        W75820  38.064  39.402  14.518
10660W        W75821   0.582   3.848   1.215
10661W        W75822  40.363  30.403  14.002
10662W        W75823  29.440  34.399  10.727
10663W        W75824  31.656  29.463   0.819
10664W        W75825  22.556  22.316  13.984
10665W        W75826  34.337  32.554   2.299
10666W        W75827  31.330   0.674  13.094
10667W        W75828  31.856  36.049  12.869
10668W        W75829  40.378  34.559  14.991
10669W        W75830  25.146  32.392  14.364
10670W        W75831  12.477  29.882   0.154
10671W        W75832  20.707  44.917   3.667
10672W        W75833  33.722  38.234  13.774
10673W        W75834  38.485  24.635   3.025
10674W        W75835  13.639  40.533   2.488
10675W        W75836  12.578  42.884  13.997
10676W        W75837  41.017  41.061   1.319
10677W        W75838   8.384  30.201  12.904
10678W        W75839  26.971  17.621   2.678
10679W        W75840  43.552  19.935   4.230
10680W        W75841  42.594  40.542  12.407
10681W        W75842  17.813  41.908  14.026
10682W        W75843  14.281   3.335  10.618
10683W        W75844  10.413  30.440  12.644
10684W        W75845  44.801  11.999  10.598
10685W        W75846   4.694  39.800   1.824
10686W        W75847  11.180   4.302   0.640
10687W        W75848  27.070  25.736  11.112
10688W        W75849  43.275   2.712   0.590
10689W        W75850  36.568   1.353   1.450
10690W        W75851  41.615  37.367   2.644
10691W        W75852  10.773   1.989  12.077
10692W        W75853  30.455   1.247   4.239
10693W        W75854  33.209  19.321   0.138
10694W        W75855  38.467  39.517   2.904
10695W        W75856  23.449  18.046  11.518
10696W        W75857  10.544  33.170  13.908
10697W        W75858  24.983  16.507   2.803
10698W        W75859  34.207   2.007  13.916
10699W        W75860  29.959   2.512   4.038
10700W        W75861  26.916  39.303  13.364
10701W        W75862   2.231  42.965  13.724
10702W        W75863   0.804  27.974  14.045
10703W        W75864  21.831  33.272   2.905
10704W        W75865  28.320  19.632  12.892
10705W        W75866  22.573  43.845  13.554
10706W        W75867  44.887  26.502  10.534
10707W        W75868  19.403   8.893  12.794
10708W        W75869  35.825  21.606  12.967
10709W        W75870  34.613  27.805   3.596
10710W        W75871  16.585   3.668   1.676
10711W        W75872  34.740  27.517  11.629
10712W        W75873  41.235  11.568   2.652
10713W        W75874  22.815   7.873   0.253
10714W        W75875  30.173   6.371  13.297
10715W        W75876  37.146  29.985  14.375
10716W        W75877   6.457  15.754   5.089
10717W        W75878  26.506   2.689  13.412
10718W        W75879  43.195  33.935   1.936
10719W        W75880  35.788  28.880  14.762
10720W        W75881  21.285  37.688  13.943
10721W        W75882  21.489  41.567  13.920
10722W        W75883   9.695  40.333  10.572
10723W        W75884  39.275   1.509   0.818
10724W        W75885   4.365  18.657   2.281
10725W        W75886  15.778  29.158   3.105
10726W        W75887  29.211  44.705  12.997
10727W        W75888   4.522  32.938  11.148
10728W        W75889  23.131  36.938  14.127
10729W        W75890  27.606  39.682  10.877
10730W        W75891   4.363   9.630  11.180
10731W        W75892  12.665  15.440  11.110
10732W        W75893   9.299  20.613   2.297
10733W        W75894   9.748  13.729   0.448
10734W        W75895   6.157  11.955   3.643
10735W        W75896  12.997  30.661   3.762
10736W        W75897   4.778  13.017  12.135
10737W        W75898  14.185  33.602  10.666
10738W        W75899   6.389  16.177   0.201
10739W        W75900  11.687  34.273  11.140
10740W        W75901  26.689  29.038  14.286
10741W        W75902  36.659  44.764   2.767
10742W        W75903  12.136  35.834  12.144
10743W        W75904  21.250   4.744  11.607
10744W        W75905   7.735   6.373  10.181
10745W        W75906   9.419   7.367  12.316
10746W        W75907  29.671  41.025   2.735
10747W        W75908   8.890  15.190  11.155
10748W        W75909  44.588  35.443  12.859
10749W        W75910  43.223  13.101   1.226
10750W        W75911  20.498  10.613   4.442
10751W        W75912  14.576  16.502   4.709
10752W        W75913  37.271  28.458   2.858
10753W        W75914  24.046  32.705   1.459
10754W        W75915  17.586   7.209   1.472
10755W        W75916  18.605  19.042  12.075
10756W        W75917  32.402  12.105  11.349
10757W        W75918  29.003  29.145  13.897
10758W        W75919  42.862   9.319  13.485
10759W        W75920  17.758  33.144   3.827
10760W        W75921  18.198  29.472  12.629
10761W        W75922   0.769  10.725  14.938
10762W        W75923  19.379  26.959   2.367
10763W        W75924  43.997  19.642  12.586
10764W        W75925  34.376   5.203  12.080
10765W        W75926  29.903  26.779  10.661
10766W        W75927  25.774   7.650   3.617
10767W        W75928  24.235  17.635  10.821
10768W        W75929   1.023  32.399  13.044
10769W        W75930  31.070  21.304  11.437
10770W        W75931  39.783   8.707  11.048
10771W        W75932  19.505  34.103  10.779
10772W        W75933  26.033  21.267  11.912
10773W        W75934  33.542  16.684  13.438
10774W        W75935   9.387  21.549  10.811
10775W        W75936   7.787  44.530  13.192
10776W        W75937   6.509  16.657   2.826
10777W        W75938  38.182  13.155   0.748
10778W        W75939  11.376   6.190   4.582
10779W        W75940   6.126  21.634   3.208
10780W        W75941  14.748  22.269   3.884
10781W        W75942  25.826  12.890  11.619
10782W        W75943  19.550   8.793   0.804
10783W        W75944  39.940  37.043   1.909
10784W        W75945  38.436   2.354  12.949
10785W        W75946  28.372  34.999   4.029
10786W        W75947  40.733  40.507   3.426
10787W        W75948  27.424   0.825  13.390
10788W        W75949   0.435  21.600   3.420
10789W        W75950  21.202  43.506  11.117
10790W        W75951  11.712  41.460  11.514
10791W        W75952  31.068  11.139   2.658
10792W        W75953  22.266  27.378  12.468
10793W        W75954  30.337  30.238   3.756
10794W        W75955  24.515  40.845  11.846
10795W        W75956  20.032   5.916  11.485
10796W        W75957   9.650  39.269  13.928
10797W        W75958  29.834  21.650   2.331
10798W        W75959  28.141   5.936   4.569
10799W        W75960  44.998  25.902   3.952
10800W        W75961   2.474  39.325  10.737
10801W        W75962  39.086  28.023  11.555
10802W        W75963   0.803  21.156  12.409
10803W        W75964  33.651  27.282   3.258
10804W        W75965   5.916  22.335  13.782
10805W        W75966  14.674   4.718   4.576
10806W        W75967  22.591   4.002   1.460
10807W        W75968  28.113  32.923   3.112
10808W        W75969  26.028  10.603  10.594
10809W        W75970  10.182   1.352  11.026
10810W        W75971  32.875  12.674  13.027
10811W        W75972  16.163  29.897  11.581
10812W        W75973  38.138  43.537  12.532
10813W        W75974   8.367   9.281  14.443
10814W        W75975  43.769  36.877  13.478
10815W        W75976  12.358  36.353  14.722
10816W        W75977  27.608  17.828  11.067
10817W        W75978  32.148  39.929   0.372
10818W        W75979  24.970  24.163   0.894
10819W        W75980  26.994  11.346  11.987
10820W        W75981  24.930  17.624   0.839
10821W        W75982  17.723   5.318  11.640
10822W        W75983  33.960  24.697   2.125
10823W        W75984  38.363  31.312   0.259
10824W        W75985   7.320  15.284   1.968
10825W        W75986  28.966  42.784  12.183
10826W        W75987  22.963  20.682  12.217
10827W        W75988   7.353   7.160  13.744
10828W        W75989  13.440  18.272   2.809
10829W        W75990  30.428  32.208  13.598
10830W        W75991  13.294  33.680   1.005
10831W        W75992  37.114  15.391   1.864
10832W        W75993  40.422  35.895   4.474
10833W        W75994  39.805  17.253   2.145
10834W        W75995  27.444   1.436   1.876
10835W        W75996  20.247  40.196   1.046
10836W        W75997  40.121  39.984   1.888
10837W        W75998  27.518  40.373   0.794
10838W        W75999  42.387  32.027   5.062
10839W        W76000  35.934  16.998  13.419
10840W        W76001  41.884   0.972  12.004
10841W        W76002   1.096  31.267  12.001
10842W        W76003  13.817  42.906  13.492
10843W        W76004  23.725  43.275   3.727
10844W        W76005  43.916  15.808  11.910
10845W        W76006  18.826  29.570  11.960
10846W        W76007  35.831  35.943  11.961
10847W        W76008   5.856  28.933   4.898
10848W        W76009  10.792  44.871   3.670
10849W        W76010  33.099  42.052   1.803
10850W        W76011  23.503  43.411   2.308
10851W        W76012   3.767   4.463   1.853
10852W        W76013  36.350  27.713   3.912
10853W        W76014   2.727   8.882   2.426
10854W        W76015   0.870   6.364  11.987
10855W        W76016   8.708  33.075  12.442
10856W        W76017  35.382  36.557  10.954
10857W        W76018  10.408  40.312  14.499
10858W        W76019   4.057   6.859   1.494
10859W        W76020  11.753  17.544  13.450
10860W        W76021   9.733  42.303  11.130
10861W        W76022   8.895   4.960   3.594
10862W        W76023  17.346  34.277  11.574
10863W        W76024  24.746  31.009  13.730
10864W        W76025  30.347  22.654  13.448
10865W        W76026  37.283  36.123   3.199
10866W        W76027  27.288  41.807   1.488
10867W        W76028  40.620  22.241   1.019
10868W        W76029   5.141  38.050  13.340
10869W        W76030  23.052  32.287  12.359
10870W        W76031  24.732  33.182  14.076
10871W        W76032   8.682  36.082  12.767
10872W        W76033  42.140  33.133  11.627
10873W        W76034   3.259  42.295  12.853
10874W        W76035  42.488  36.864   1.764
10875W        W76036  41.313  37.167   2.154
10876W        W76037  30.383   4.709   4.085
10877W        W76038   5.128  25.090   0.601
10878W        W76039  22.228   0.947   4.341
10879W        W76040  15.746   4.322   3.321
10880W        W76041  29.719  42.506   1.257
10881W        W76042   0.811  14.674   4.148
10882W        W76043  30.979   2.684  11.881
10883W        W76044  28.052  35.436   1.181
10884W        W76045  35.054  18.268   4.814
10885W        W76046  30.194  34.458  13.856
10886W        W76047  18.542  35.874  12.498
10887W        W76048  36.297  19.497  14.772
10888W        W76049  39.525  14.620   3.280
10889W        W76050  39.621  33.367   3.870
10890W        W76051  29.913  25.745  11.557
10891W        W76052  30.145  21.256   3.088
10892W        W76053  38.828  31.084   0.107
10893W        W76054  40.003  27.636   2.753
10894W        W76055  41.933  30.728   4.201
10895W        W76056  13.442   7.597  12.442
10896W        W76057  29.646  27.690  12.364
10897W        W76058   4.971  38.314  14.678
10898W        W76059  11.752  44.002   4.946
10899W        W76060   5.639  34.441   2.277
10900W        W76061   7.404  35.663   4.620
10901W        W76062  26.692   9.564   2.756
10902W        W76063   2.324  29.094   4.517
10903W        W76064  44.568  34.214   5.028
10904W        W76065  18.772   2.115   2.969
10905W        W76066  19.112  37.552  14.551
10906W        W76067  44.222  18.187   4.133
10907W        W76068  10.894  28.987   0.630
10908W        W76069   2.744  25.607  10.874
10909W        W76070  17.290  24.168  12.941
10910W        W76071  37.874  31.532   4.218
10911W        W76072  42.925  21.991  13.109
10912W        W76073  36.208  27.649   1.968
10913W        W76074  10.651  38.048  12.879
10914W        W76075  19.547  41.985   2.987
10915W        W76076  14.279  27.679  12.530
10916W        W76077  16.279   0.677  13.867
10917W        W76078  28.487  18.542   1.662
10918W        W76079  15.757  15.707   1.892
10919W        W76080  43.513  15.812   1.696
10920W        W76081  17.710  16.851  14.038
10921W        W76082  15.312  36.279   0.829
10922W        W76083  24.452   6.281   0.278
10923W        W76084  10.879  42.825  12.457
10924W        W76085  39.499  11.492   1.250
10925W        W76086  40.368  42.403  12.613
10926W        W76087  44.715  20.240  13.376
10927W        W76088  44.302   6.371   1.846
10928W        W76089  38.122   5.882  12.032
10929W        W76090  19.081  29.644   1.338
10930W        W76091  20.267   2.926   4.136
10931W        W76092   1.959  35.446   2.740
10932W        W76093  35.919  37.754  14.875
10933W        W76094  25.689  29.417   3.601
10934W        W76095  17.836  22.076   3.601
10935W        W76096  13.347  14.293   2.600
10936W        W76097  25.573   8.139   3.591
10937W        W76098  22.106  13.682   4.837
10938W        W76099  38.581  29.907  11.946
10939W        W76100  41.338   4.767   3.185
10940W        W76101  21.126  24.244  13.788
10941W        W76102   9.332  44.359  14.014
10942W        W76103  37.332   4.127   0.816
10943W        W76104  18.789   8.394  12.511
10944W        W76105  28.124  21.875  11.356
10945W        W76106   4.045   9.134   1.558
10946W        W76107  36.872  32.136  11.530
10947W        W76108  44.217  20.571  14.337
10948W        W76109  11.636  26.568   1.931
10949W        W76110  38.024  25.882   1.258
10950W        W76111  30.870  42.166  14.495
10951W        W76112  30.458  43.299   0.401
10952W        W76113   6.151  12.811  10.731
10953W        W76114   5.465  12.731  11.878
10954W        W76115  30.868  22.106   1.413
10955W        W76116   1.906  34.701   3.256
10956W        W76117  20.606  32.128   4.679
10957W        W76118  33.106  28.125  11.725
10958W        W76119   4.199  10.260   2.337
10959W        W76120   3.422   0.004  10.647
10960W        W76121  28.387   6.403  12.429
10961W        W76122  31.398  24.486  13.328
10962W        W76123  15.575   6.198  12.905
10963W        W76124  22.234  11.934   1.138
10964W        W76125   3.895  42.305  11.202
10965W        W76126  32.368  40.018   1.818
10966W        W76127  28.196  37.830   4.194
10967W        W76128  23.498  29.634   3.261
10968W        W76129  19.783  11.095  14.376
10969W        W76130   3.401  15.681  13.132
10970W        W76131  24.716  11.371  14.417
10971W        W76132  32.409   2.845  12.371
10972W        W76133   7.984  41.402   0.787
10973W        W76134  40.355   8.866  13.843
10974W        W76135   5.823  43.707   0.487
10975W        W76136  26.656  28.628   4.766
10976W        W76137  28.664   2.962   2.398
10977W        W76138  10.608  18.630  12.416
10978W        W76139  18.480   4.850  12.142
10979W        W76140  15.713  32.120   2.867
10980W        W76141   5.862   9.786   0.575
10981W        W76142  25.512  15.560  10.663
10982W        W76143  40.553  25.197   2.826
10983W        W76144  23.762   5.161   1.146
10984W        W76145  32.842  30.859   4.313
10985W        W76146  36.588  44.316   0.438
10986W        W76147  42.583  18.151  14.854
10987W        W76148   3.285   9.690   4.768
10988W        W76149  21.124  29.208  11.965
10989W        W76150  43.765  33.073   1.976
10990W        W76151  17.633  13.238   0.031
10991W        W76152  27.667  27.393  12.189
10992W        W76153  19.138  25.156  13.127
10993W        W76154  21.549  35.128  14.765
10994W        W76155  15.244   2.160   2.218
10995W        W76156  11.989  22.711  12.530
10996W        W76157  37.679  41.925  11.001
10997W        W76158  21.796  36.333  12.936
10998W        W76159  17.106   4.798  11.650
10999W        W76160   3.284  16.988  11.821
11000W        W76161  39.277   0.815  12.033
11001W        W76162  10.097  39.673  11.690
11002W        W76163  13.066  41.623  14.813
11003W        W76164  31.522  43.050   1.814
11004W        W76165  15.743  31.999   0.191
11005W        W76166  17.766   3.240   0.400
11006W        W76167  29.570  39.094   2.784
11007W        W76168  35.189  17.757  12.957
11008W        W76169   3.165  30.508  12.904
11009W        W76170   4.126  18.864   2.714
11010W        W76171  42.541   6.974  13.270
11011W        W76172  36.364  19.089   0.111
11012W        W76173   1.624  34.608   2.464
11013W        W76174   3.784  34.431  12.980
11014W        W76175  37.971  30.981   3.213
11015W        W76176  27.017  32.199   2.260
11016W        W76177  25.942  10.367  12.331
11017W        W76178  31.394   8.520  13.526
11018W        W76179  18.455   2.697   1.024
11019W        W76180  31.899  38.506   0.622
11020W        W76181  28.421   5.247   2.740
11021W        W76182  44.286   8.704  14.023
11022W        W76183  42.632  28.642  14.331
11023W        W76184  23.194  36.042  10.141
11024W        W76185  16.302  14.748  13.985
11025W        W76186  31.005  17.298   4.513
11026W        W76187  16.325   2.201   3.622
11027W        W76188  33.522  24.543  11.219
11028W        W76189  20.290  12.608  13.373
11029W        W76190  12.041  23.903   0.478
11030W        W76191   0.908  21.183  13.294
11031W        W76192  36.247   8.110   2.186
11032W        W76193  21.020   2.648   0.290
11033W        W76194  13.504  39.828  13.347
11034W        W76195  27.124  12.620   0.480
11035W        W76196  40.557  19.821  11.593
11036W        W76197  36.900  43.740  14.592
11037W        W76198  38.398   7.099   2.327
11038W        W76199  31.289  19.616   3.409
11039W        W76200  24.951  22.447  12.856
11040W        W76201   1.297  29.887   2.387
11041W        W76202  26.689  30.746   1.349
11042W        W76203  31.946  42.523  14.102
11043W        W76204  23.070  10.075   0.843
11044W        W76205  17.052  11.106  11.456
11045W        W76206  38.352  25.105   1.620
11046W        W76207   0.414   2.390   0.920
11047W        W76208  40.821   3.424  13.462
11048W        W76209  42.975  33.355  11.512
11049W        W76210  26.276  22.123   2.693
11050W        W76211  23.152  19.761   4.339
11051W        W76212   4.327  39.866   0.853
11052W        W76213  13.314  18.835   0.690
11053W        W76214  15.273  38.298  14.296
11054W        W76215  25.501  19.247   4.525
11055W        W76216  44.781   3.049   2.188
11056W        W76217  14.895   5.534   2.758
11057W        W76218  28.396  18.320  12.068
11058W        W76219  23.251  38.374  12.864
11059W        W76220  35.017  23.189  12.150
11060W        W76221   8.363  30.117  14.188
11061W        W76222   5.586  28.610   4.112
11062W        W76223  22.448   2.641   5.094
11063W        W76224  42.763  13.845   2.298
11064W        W76225  18.825  12.135   2.325
11065W        W76226  12.871   2.249  11.188
11066W        W76227  40.545  20.258   0.743
11067W        W76228   4.926  25.173  10.808
11068W        W76229   0.725   1.894  12.608
11069W        W76230   0.655  44.916   2.313
11070W        W76231  35.961  13.593  14.491
11071W        W76232  31.158  34.125  10.675
11072W        W76233  11.274   3.807  13.809
11073W        W76234  37.055  37.535   2.582
11074W        W76235  31.808  10.559  13.499
11075W        W76236  10.697  19.533  14.958
11076W        W76237  17.659   6.157  12.094
11077W        W76238  31.811  27.058   5.572
11078W        W76239  14.869  13.906  14.520
11079W        W76240  32.936   0.454  12.092
11080W        W76241  37.347  26.685   1.904
11081W        W76242  44.817  31.141   0.992
11082W        W76243  28.172  25.443  11.120
11083W        W76244  16.131   1.223   0.755
11084W        W76245  15.010  38.373  11.133
11085W        W76246  21.049  42.324  14.275
11086W        W76247  36.182  21.629  11.090
11087W        W76248  20.800   6.764  12.177
11088W        W76249   1.412  37.899  12.596
11089W        W76250  42.899  36.294   1.690
11090W        W76251  33.042  32.505   4.339
11091W        W76252  33.364   5.808  14.281
11092W        W76253  18.608   6.487  11.396
11093W        W76254  15.300  16.206  11.022
11094W        W76255  28.571  35.380   0.461
11095W        W76256  21.740  20.752   3.675
11096W        W76257   7.016   7.315   4.666
11097W        W76258  25.007   2.257   3.607
11098W        W76259  18.359  34.673  13.115
11099W        W76260  20.244  12.452   2.943
11100W        W76261   3.911  38.843  13.890
11101W        W76262  24.220  41.767  12.896
11102W        W76263  25.486  12.462   0.839
11103W        W76264  11.171  12.067  12.909
11104W        W76265  13.591   9.710   2.202
11105W        W76266  33.210  12.332   3.143
11106W        W76267  30.551   9.286  13.262
11107W        W76268  38.983   0.653   3.738
11108W        W76269  20.818  44.541  14.761
11109W        W76270  34.968   7.178   3.124
11110W        W76271   7.592   9.252  12.200
11111W        W76272  36.298   9.383  10.620
11112W        W76273  12.822   4.849  10.585
11113W        W76274   5.138   9.392  10.640
11114W        W76275  25.704  30.593  11.025
11115W        W76276  40.473   5.740  10.704
11116W        W76277  33.387  16.605  13.965
11117W        W76278  25.980  31.440  13.967
11118W        W76279   4.694   1.243   3.717
11119W        W76280  33.561   9.591   4.703
11120W        W76281  33.446  33.034   2.353
11121W        W76282  14.388  27.092  10.733
11122W        W76283   9.642  42.824  11.175
11123W        W76284   6.355  13.479  14.003
11124W        W76285  26.493   6.269  14.291
11125W        W76286   1.760  23.581   4.630
11126W        W76287  43.809  22.169  13.658
11127W        W76288  31.452  22.699   3.197
11128W        W76289  12.861  26.890  12.521
11129W        W76290  24.656  27.602  13.543
11130W        W76291   4.812  16.802   3.056
11131W        W76292   5.337   2.877  13.910
11132W        W76293  21.999  34.150  13.375
11133W        W76294  42.203   1.729  14.969
11134W        W76295   4.837  43.750   9.676
11135W        W76296   8.829  11.601   0.461
11136W        W76297  36.326  43.502  13.834
11137W        W76298  28.754  16.019   0.462
11138W        W76299  41.312  42.125  12.628
11139W        W76300  41.619  38.543   0.935
11140W        W76301   8.186  36.937   2.369
11141W        W76302  17.751  28.080  14.254
11142W        W76303  27.623   0.332  13.380
11143W        W76304  38.214  44.508  11.754
11144W        W76305  27.089  29.979   1.698
11145W        W76306  10.619  34.093   2.947
11146W        W76307   8.679  37.332   4.159
11147W        W76308  27.349  12.378   2.224
11148W        W76309   1.101  23.192   2.126
11149W        W76310  12.115   9.782   0.411
11150W        W76311   8.596  21.778   4.540
11151W        W76312  38.860  10.941   1.799
11152W        W76313  19.079  10.412   0.413
11153W        W76314   6.802  19.109  13.309
11154W        W76315  22.910  26.392  12.576
11155W        W76316  14.811  14.749  12.967
11156W        W76317  41.998  37.620  11.609
11157W        W76318  14.758   0.690   1.238
11158W        W76319  20.924  31.593   3.227
11159W        W76320  27.927  40.282  13.610
11160W        W76321  26.800  33.347   5.238
11161W        W76322  30.198  34.115   2.736
11162W        W76323   7.149  34.907  13.103
11163W        W76324  16.116  14.321  11.943
11164W        W76325  43.562  42.882   1.369
11165W        W76326   0.747  44.800   4.046
11166W        W76327  12.432   6.864   2.218
11167W        W76328   6.196  12.402  13.746
11168W        W76329  18.665   9.111   4.990
11169W        W76330   9.045  30.958   1.954
11170W        W76331  23.477  42.159  11.785
11171W        W76332  26.842  19.301  11.097
11172W        W76333  22.789  20.820   5.328
11173W        W76334   0.305   4.526  14.064
11174W        W76335  21.890  34.612   2.876
11175W        W76336   1.245  11.236  12.773
11176W        W76337  37.384  11.240  11.980
11177W        W76338  22.018  42.988  12.477
11178W        W76339  40.482  21.544   5.018
11179W        W76340  12.704  12.171  12.996
11180W        W76341  39.322  14.999   2.415
11181W        W76342  19.351   7.897   4.722
11182W        W76343  39.797  28.451  13.046
11183W        W76344  38.322  23.087  14.956
11184W        W76345  44.694  25.060  10.375
11185W        W76346  39.838   5.404   0.315
11186W        W76347   5.979  35.050  11.111
11187W        W76348   4.129  35.942   1.245
11188W        W76349  14.608   3.982   3.573
11189W        W76350  21.040  11.687   1.926
11190W        W76351   0.813  31.073  11.568
11191W        W76352  32.964   5.662   0.250
11192W        W76353  12.549  30.197   3.163
11193W        W76354  19.162  15.552  13.103
11194W        W76355   2.762  19.139   2.737
11195W        W76356   0.414   5.919  11.205
11196W        W76357  33.156  17.402   3.320
11197W        W76358  22.233   0.065  12.528
11198W        W76359  12.783   2.732   3.348
11199W        W76360  34.493  24.091  14.368
11200W        W76361   1.370  38.105   0.857
11201W        W76362  25.327  17.605  10.767
11202W        W76363  33.092  17.715   2.842
11203W        W76364  23.540  12.198   4.446
11204W        W76365  13.165   0.389   4.527
11205W        W76366   2.776  16.088  10.214
11206W        W76367  25.446  35.913   4.650
11207W        W76368  10.336  19.283  14.004
11208W        W76369  34.071  40.203  10.726
11209W        W76370   1.909  33.528   4.620
11210W        W76371  39.474   3.879  14.152
11211W        W76372   9.095   2.367  13.193
11212W        W76373   4.858   4.916  14.623
11213W        W76374  11.946  13.472   0.837
11214W        W76375  13.509  23.878   2.379
11215W        W76376  20.244   5.004   1.772
11216W        W76377  16.718  36.693  11.787
11217W        W76378  15.995  16.082   2.222
11218W        W76379   7.653  39.875   3.960
11219W        W76380  37.986  17.428  10.111
11220W        W76381  32.001   6.583   1.406
11221W        W76382  42.410  12.171  14.881
11222W        W76383   4.701  11.597   3.787
11223W        W76384  16.744  15.845   0.222
11224W        W76385  10.065  25.884  13.510
11225W        W76386  14.172  29.965   3.375
11226W        W76387  19.078  40.353   0.034
11227W        W76388   2.231  24.113   4.929
11228W        W76389  38.468  39.498   1.884
11229W        W76390  16.093  26.730   4.897
11230W        W76391  26.068  36.783  12.786
11231W        W76392  10.385   7.604  11.683
11232W        W76393   6.716  30.440  10.681
11233W        W76394  23.898  20.392   4.516
11234W        W76395  31.879  13.679  11.150
11235W        W76396  31.999  38.401  12.388
11236W        W76397  15.621  24.092   3.152
11237W        W76398  12.371  37.558  10.647
11238W        W76399  29.383   2.914   4.459
11239W        W76400  37.111  10.797   2.752
11240W        W76401  21.581   9.335   2.819
11241W        W76402  33.847  28.954  11.986
11242W        W76403  35.060  37.913   1.161
11243W        W76404  21.329  34.474   3.746
11244W        W76405  20.632  35.194   0.259
11245W        W76406  22.645  18.060  13.447
11246W        W76407   8.238  17.207   4.248
11247W        W76408  15.268  16.210   0.342
11248W        W76409  32.993  43.496   5.383
11249W        W76410  42.157  11.091  13.907
11250W        W76411  23.104  31.921   4.844
11251W        W76412  30.043  36.274  10.522
11252W        W76413  15.700  27.204  11.672
11253W        W76414  32.423  16.761  11.119
11254W        W76415  43.369  39.540   5.770
11255W        W76416   2.746   5.370  13.578
11256W        W76417  42.500  26.319  10.387
11257W        W76418  35.439   1.932   1.726
11258W        W76419  16.516  39.387  11.199
11259W        W76420   7.278  24.059   0.054
11260W        W76421  18.686  12.753  10.784
11261W        W76422   0.360   0.975   2.636
11262W        W76423  14.355  35.107   4.100
11263W        W76424  37.825  16.674  11.333
11264W        W76425  14.371  12.540   1.849
11265W        W76426  19.584  22.487   1.895
11266W        W76427  15.269  11.221  14.766
11267W        W76428  10.153  37.020  14.582
11268W        W76429  11.934   0.832   4.129
11269W        W76430   1.923  30.128   3.122
11270W        W76431   4.280  43.091  13.865
11271W        W76432  13.336  15.912  13.412
11272W        W76433  42.260  31.690   3.216
11273W        W76434   2.980  18.377   2.248
11274W        W76435   1.725  12.080  14.662
11275W        W76436  25.194  26.626   4.216
11276W        W76437  18.795  27.950   0.780
11277W        W76438  27.100  12.261  12.547
11278W        W76439  21.293  36.353   1.279
11279W        W76440  39.258  27.743  12.097
11280W        W76441  34.858  30.659   0.826
11281W        W76442  30.997  44.451   3.093
11282W        W76443  11.862  41.442   3.423
11283W        W76444  22.474  19.805   2.324
11284W        W76445  37.997  37.780  10.572
11285W        W76446  30.054  37.782   3.735
11286W        W76447  42.521  22.146  14.347
11287W        W76448  28.741  13.729  11.714
11288W        W76449   6.771  28.434   1.820
11289W        W76450  37.385  19.474   4.670
11290W        W76451  13.873  23.178   3.289
11291W        W76452  19.290  18.181  14.554
11292W        W76453  18.881  44.537  11.896
11293W        W76454  25.479   6.149  13.163
11294W        W76455  20.502  20.211  10.583
11295W        W76456  43.643  10.362  14.370
11296W        W76457  31.392  38.102   3.798
11297W        W76458  26.367  19.670   0.197
11298W        W76459  25.966   3.233   1.992
11299W        W76460  32.568  28.625   3.835
11300W        W76461  21.015  20.294   1.234
11301W        W76462  10.156  17.722  11.597
11302W        W76463   9.740   9.885  12.519
11303W        W76464   3.811  14.242   2.477
11304W        W76465  18.491  40.188  13.240
11305W        W76466  27.705  16.676   1.352
11306W        W76467  20.534  13.391   1.390
11307W        W76468  30.104  38.698   2.055
11308W        W76469  36.278  10.695   3.804
11309W        W76470  20.654  33.117  12.123
11310W        W76471  23.529  34.904   2.828
11311W        W76472  35.999  25.183  13.321
11312W        W76473  39.303  37.093  12.526
11313W        W76474   1.213  23.106  13.376
11314W        W76475  25.985   4.934  10.954
11315W        W76476  17.166   1.199   0.664
11316W        W76477  18.321  29.797   0.487
11317W        W76478   7.318  20.362  10.632
11318W        W76479  36.406  19.486  12.038
11319W        W76480  24.967   1.739  14.353
11320W        W76481  38.532  13.795  11.122
11321W        W76482  10.444  36.359   3.402
11322W        W76483  38.008  13.248  11.300
11323W        W76484   8.391   7.279  12.597
11324W        W76485  15.638  12.174   1.351
11325W        W76486   2.986  42.492  11.433
11326W        W76487  20.471   8.514   3.255
11327W        W76488  15.184   1.526  12.552
11328W        W76489  35.132   0.939  13.365
11329W        W76490   0.335  19.629   4.227
11330W        W76491   4.739  31.921   2.812
11331W        W76492  12.630  31.595   3.350
11332W        W76493   7.747   9.272   3.023
11333W        W76494  13.246  41.500   4.719
11334W        W76495   0.008   9.885   4.838
11335W        W76496   1.875  30.625  11.211
11336W        W76497  37.608  35.368  11.446
11337W        W76498   3.417  42.239   2.251
11338W        W76499  39.478   6.792   4.837
11339W        W76500   7.704  31.050   0.740
11340W        W76501  27.433  32.554  12.559
11341W        W76502  41.747  16.533  10.279
11342W        W76503  12.057  37.505  11.070
11343W        W76504   3.202  35.535   0.273
11344W        W76505  23.980  11.721  13.416
11345W        W76506  11.759  35.803   0.796
11346W        W76507  36.666  20.019   0.709
11347W        W76508  40.242  16.175   4.096
11348W        W76509  31.866  21.691   2.874
11349W        W76510  35.655   4.710   1.828
11350W        W76511  32.060  39.517   0.939
11351W        W76512  24.803  31.960  13.519
11352W        W76513  29.938  39.095   1.156
11353W        W76514  24.287  24.920   3.254
11354W        W76515  27.493  40.736  12.977
11355W        W76516  11.296  35.485   4.733
11356W        W76517  43.390   1.458   4.912
11357W        W76518  38.292  38.253  14.929
11358W        W76519   5.356  19.795  12.919
11359W        W76520  30.936  11.928   4.137
11360W        W76521  35.238  12.018   2.257
11361W        W76522  25.267  14.694  11.138
11362W        W76523  30.687   4.050  12.980
11363W        W76524   1.533  32.803   2.169
11364W        W76525  21.344  36.846  13.495
11365W        W76526  28.033  21.327  11.218
11366W        W76527  25.092   7.137   0.231
11367W        W76528  24.807  33.146   0.483
11368W        W76529  11.584  36.796  14.996
11369W        W76530  24.434   4.745   4.202
11370W        W76531  38.597   6.201  12.002
11371W        W76532  19.702   0.161  12.599
11372W        W76533  22.646  10.267  14.405
11373W        W76534   0.525   0.345  12.098
11374W        W76535  14.668  44.005   0.070
11375W        W76536   7.698  14.768  10.828
11376W        W76537  22.087  34.650  11.136
11377W        W76538  33.422  14.690  13.535
11378W        W76539  19.703  26.894   3.277
11379W        W76540   1.705   3.344  14.833
11380W        W76541  23.291  16.652  12.056
11381W        W76542  11.022   7.532   2.574
11382W        W76543  41.593  25.817   2.729
11383W        W76544  22.621  37.113  11.673
11384W        W76545  25.614  14.580  10.726
11385W        W76546  23.706  20.388   5.109
11386W        W76547   1.888   2.629   3.650
11387W        W76548  24.153   7.870   2.901
11388W        W76549  30.037  43.388  11.687
11389W        W76550   1.594  31.417  12.117
11390W        W76551  20.988  23.332   4.056
11391W        W76552  34.555  38.954  13.131
11392W        W76553   9.277   5.120  13.774
11393W        W76554  37.531  35.977  12.285
11394W        W76555  17.977  25.643   2.460
11395W        W76556  13.324  44.089   3.851
11396W        W76557  22.661  10.419  10.562
11397W        W76558   4.345  16.787   2.412
11398W        W76559  25.908   8.414   0.953
11399W        W76560  39.882  24.067   1.143
11400W        W76561  15.725   9.270   5.060
11401W        W76562  15.122  43.761  14.801
11402W        W76563  10.110  11.526   3.535
11403W        W76564  37.321  22.742   1.501
11404W        W76565  38.502   3.767   2.215
11405W        W76566  22.877  14.749   0.961
11406W        W76567   4.496  35.365  11.551
11407W        W76568  29.963  34.096  12.195
11408W        W76569  29.634  28.119   1.480
11409W        W76570  30.504   6.249   0.302
11410W        W76571   7.847  13.348   3.227
11411W        W76572  23.678  40.980  14.494
11412W        W76573   1.329   1.694  13.343
11413W        W76574  43.966  12.598  12.562
11414W        W76575  33.261  23.128  10.409
11415W        W76576  31.314  44.939   1.616
11416W        W76577  18.373   5.662  11.066
11417W        W76578  29.046  42.664   0.928
11418W        W76579  35.055  43.396   0.367
11419W        W76580  37.268  41.298   4.071
11420W        W76581  22.210  32.065   3.852
11421W        W76582  36.641   3.179   0.398
11422W        W76583   6.755  24.183   4.332
11423W        W76584  37.576  43.944  14.332
11424W        W76585  40.293   0.813  11.894
11425W        W76586  43.968  40.777   1.792
11426W        W76587  18.782  25.738   4.211
11427W        W76588  23.484  16.290  13.993
11428W        W76589  43.843  30.549   4.302
11429W        W76590  43.381  25.457   0.092
11430W        W76591   7.806  36.606  13.062
11431W        W76592   4.729  34.394  14.799
11432W        W76593  23.178  36.947   2.361
11433W        W76594  36.048  25.986   2.954
11434W        W76595   5.170  42.587  11.964
11435W        W76596   9.709  41.557  12.883
11436W        W76597  43.798  37.488  13.167
11437W        W76598  12.929   0.194  12.595
11438W        W76599  27.316  22.037  10.881
11439W        W76600  15.110  17.283  14.467
11440W        W76601  18.305  36.364  14.923
11441W        W76602  19.169  29.714   3.676
11442W        W76603  44.066  14.770  11.143
11443W        W76604  18.540  33.740   0.915
11444W        W76605  24.586   3.672  10.726
11445W        W76606  39.315  18.252   0.147
11446W        W76607  35.903   5.451   3.242
11447W        W76608   0.839  32.391   1.721
11448W        W76609  12.155  44.686   3.670
11449W        W76610  30.887  42.548   2.864
11450W        W76611  15.516  33.946   4.921
11451W        W76612   6.180  36.314  14.029
11452W        W76613  13.396   0.213   3.187
11453W        W76614  20.773  34.908   3.214
11454W        W76615   9.875   1.366  12.630
11455W        W76616  34.608  34.789   4.193
11456W        W76617  43.453  29.435  10.533
11457W        W76618  27.641  33.548   2.629
11458W        W76619   7.360  16.387   2.857
11459W        W76620  24.450  19.800   4.091
11460W        W76621  17.408  11.372  12.057
11461W        W76622  35.946  14.388  10.743
11462W        W76623  37.060   6.244  13.855
11463W        W76624  25.052  27.404  11.058
11464W        W76625  14.236  21.778  12.820
11465W        W76626  20.375   0.275   4.621
11466W        W76627  13.740  21.161  13.709
11467W        W76628   9.168   0.783  12.564
11468W        W76629  37.042  29.713   3.311
11469W        W76630  19.980  17.285   2.410
11470W        W76631   2.315  26.742  13.431
11471W        W76632  18.721  32.784  12.517
11472W        W76633  13.322  40.084  14.966
11473W        W76634  25.043  30.699   1.206
11474W        W76635   0.160   4.334   4.607
11475W        W76636  10.829  43.038  10.645
11476W        W76637  25.126  22.651  11.849
11477W        W76638  44.296  44.024  14.035
11478W        W76639  40.817  41.936   3.288
11479W        W76640  41.415   8.425   0.312
11480W        W76641   0.495  38.534  13.037
11481W        W76642  11.070  14.107   3.259
11482W        W76643   5.040  37.940  12.069
11483W        W76644  44.738  21.974   0.867
11484W        W76645  31.057  12.688  11.846
11485W        W76646   2.177   5.924   0.016
11486W        W76647  41.990  27.282  11.035
11487W        W76648   6.771  22.587  13.256
11488W        W76649   6.169  19.808   1.247
11489W        W76650   8.888  18.496   3.942
11490W        W76651  43.807  42.591  13.950
11491W        W76652   4.823  10.777   4.746
11492W        W76653  33.904  23.808   0.328
11493W        W76654   1.700  28.634   3.342
11494W        W76655  11.335  35.553   2.293
11495W        W76656   1.123  42.846  13.156
11496W        W76657  31.745  23.470  14.276
11497W        W76658  38.984  11.580  12.216
11498W        W76659  30.981   0.244  11.770
11499W        W76660  44.740  18.132  13.143
11500W        W76661  33.346  14.026  11.686
11501W        W76662  27.393  23.466   1.061
11502W        W76663  22.667  32.690  14.930
11503W        W76664  26.159  35.096  10.663
11504W        W76665  36.788  44.787   0.445
11505W        W76666  39.481  22.817   1.841
11506W        W76667  11.099   7.128  13.845
11507W        W76668  13.136   0.255   0.794
11508W        W76669  19.331  16.585   3.601
11509W        W76670  16.537  16.211   1.403
11510W        W76671   2.241   9.396   2.165
11511W        W76672  10.878  24.152   4.886
11512W        W76673  34.970   2.239   4.510
11513W        W76674  33.911  22.759  13.510
11514W        W76675  15.608   8.922  14.348
11515W        W76676  34.685  37.323   0.185
11516W        W76677  29.936   7.377   0.316
11517W        W76678  10.415   9.090   0.408
11518W        W76679   5.288  19.614   2.874
11519W        W76680  42.779  17.069   0.531
11520W        W76681  12.606  16.049  11.584
11521W        W76682  36.558  25.035   3.286
11522W        W76683  22.806  11.172   3.127
11523W        W76684  44.038  43.654  11.209
11524W        W76685  29.742  43.435   4.328
11525W        W76686   5.206  12.163  13.932
11526W        W76687   9.706  19.145   4.483
11527W        W76688  32.066  14.040   0.675
11528W        W76689  13.202  10.394   2.794
11529W        W76690   7.795   7.384  13.915
11530W        W76691   2.818  14.061  10.372
11531W        W76692  31.448  36.010   3.736
11532W        W76693  10.152  39.414  12.156
11533W        W76694   3.280   1.714  14.495
11534W        W76695   7.940  17.182   1.372
11535W        W76696  28.468  23.717   5.022
11536W        W76697   3.174  26.850   2.827
11537W        W76698  14.727  42.430  12.703
11538W        W76699   5.038  34.161  11.948
11539W        W76700  28.526  40.577  10.658
11540W        W76701  43.209  30.338   1.646
11541W        W76702  35.856  44.773   2.263
11542W        W76703  24.451  21.081   3.215
11543W        W76704  15.243   8.702  12.106
11544W        W76705  15.069  24.710   2.252
11545W        W76706  15.862   0.848  13.631
11546W        W76707  15.317   2.444   2.774
11547W        W76708  15.279  28.048   3.695
11548W        W76709  13.171  19.541   0.327
11549W        W76710  18.015   3.946  14.361
11550W        W76711  10.809  43.413  14.472
11551W        W76712  14.361  21.639  10.542
11552W        W76713  43.381  17.024   0.771
11553W        W76714   9.756  19.668   0.230
11554W        W76715  42.636  22.536  13.998
11555W        W76716  39.597   4.778  13.970
11556W        W76717  42.334   6.603  12.945
11557W        W76718  43.637  15.563  14.410
11558W        W76719   4.255  12.488  11.599
11559W        W76720   9.899  26.202  12.867
11560W        W76721  36.442   7.226  12.470
11561W        W76722  35.656   8.373   1.821
11562W        W76723  33.955   2.768   3.335
11563W        W76724  11.075  44.673  12.412
11564W        W76725  17.732  32.086   2.241
11565W        W76726  27.205   9.877  12.073
11566W        W76727  10.715  23.779   0.431
11567W        W76728  22.974  26.121   4.629
11568W        W76729  12.852  22.966  12.047
11569W        W76730  17.335  40.982  14.607
11570W        W76731   9.247  15.595  12.813
11571W        W76732  10.075  19.355   0.736
11572W        W76733  34.585  21.465   0.794
11573W        W76734  32.145  15.235  12.539
11574W        W76735  39.834  19.643   0.865
11575W        W76736  21.242  34.945  12.055
11576W        W76737  32.113  36.511   3.127
11577W        W76738  11.911  19.310   4.069
11578W        W76739  23.821  18.067   1.956
11579W        W76740  12.171  44.545  14.078
11580W        W76741   2.957  27.496   4.543
11581W        W76742  20.530  21.994   3.275
11582W        W76743  44.396  41.128   5.555
11583W        W76744  23.472  37.141   3.236
11584W        W76745   3.365  32.598  14.939
11585W        W76746  20.716  42.198  13.367
11586W        W76747  36.594  44.428  12.193
11587W        W76748  19.704  11.658   4.167
11588W        W76749   0.942  30.952   0.358
11589W        W76750  18.250   3.660   0.272
11590W        W76751   6.598  29.236  12.379
11591W        W76752  20.718   7.740   0.797
11592W        W76753  41.312  14.129   0.859
11593W        W76754  41.589  19.583  12.521
11594W        W76755  23.185   1.191   1.008
11595W        W76756   6.326   5.974  14.866
11596W        W76757  13.801   6.487   2.289
11597W        W76758   9.807  21.712   2.293
11598W        W76759  30.168   0.312   4.031
11599W        W76760  24.671  26.870  10.656
11600W        W76761  21.748  15.494  14.462
11601W        W76762   9.393  16.407  14.572
11602W        W76763  38.134   8.242   1.961
11603W        W76764  26.201  19.596   3.130
11604W        W76765   7.917  12.035   2.745
11605W        W76766  18.580   3.368  14.977
11606W        W76767  22.018  23.039  12.346
11607W        W76768  16.792  19.079   4.410
11608W        W76769  37.493   8.917  14.251
11609W        W76770  11.780   7.604   1.412
11610W        W76771   8.959   5.472   4.056
11611W        W76772  25.576  28.608  11.105
11612W        W76773  40.472  28.119  10.774
11613W        W76774   9.283   0.283   1.806
11614W        W76775   6.343  28.142   0.352
11615W        W76776   2.719  20.342  11.575
11616W        W76777  19.350  21.209  14.752
11617W        W76778  29.247   1.830  14.940
11618W        W76779  34.336  30.180   1.981
11619W        W76780  13.617  40.047   9.759
11620W        W76781  39.376  27.961   2.383
11621W        W76782   3.248  38.978  13.668
11622W        W76783  21.627  19.078   3.765
11623W        W76784  22.934  35.417   3.252
11624W        W76785  18.546  31.592   2.835
11625W        W76786  28.752  25.141   2.017
11626W        W76787  34.017   2.971   2.395
11627W        W76788  41.875  34.430   3.361
11628W        W76789  25.065  16.600  12.493
11629W        W76790  11.315   0.075   4.977
11630W        W76791  32.436  10.714   0.460
11631W        W76792  34.644  20.497  10.819
11632W        W76793  27.542  19.559  14.241
11633W        W76794   2.497  40.175  11.089
11634W        W76795   1.231  20.955   4.832
11635W        W76796   1.430  37.672  12.093
11636W        W76797  29.031   4.529  12.805
11637W        W76798  19.469  15.171   1.628
11638W        W76799  12.089  34.089   2.293
11639W        W76800  21.238  42.386  12.615
11640W        W76801  30.082  15.879   0.221
11641W        W76802  44.278  15.265  13.045
11642W        W76803  13.303  19.060  14.318
11643W        W76804  11.453  17.320   0.041
11644W        W76805  27.002  32.257  12.528
11645W        W76806  13.536  10.865  13.826
11646W        W76807   7.711   5.024  11.241
11647W        W76808  38.963  13.116   1.037
11648W        W76809   0.219  26.442  14.986
11649W        W76810  34.385  41.185   3.722
11650W        W76811  27.840  34.512  14.455
11651W        W76812  25.893  19.041   4.122
11652W        W76813  23.012  37.424   3.073
11653W        W76814  23.781  30.718  11.199
11654W        W76815  23.446  22.974  14.903
11655W        W76816  27.000   2.021   4.757
11656W        W76817  11.320  43.316  14.416
11657W        W76818  40.348  28.671   0.252
11658W        W76819  30.857  38.420   1.349
11659W        W76820  44.142  40.733  10.304
11660W        W76821  25.795  12.539  10.832
11661W        W76822  40.093  30.604   2.282
11662W        W76823  31.095  26.830  11.190
11663W        W76824   7.254   2.822   0.192
11664W        W76825  14.118  26.073   4.356
11665W        W76826  39.012  28.368   0.398
11666W        W76827  10.453  42.404   3.738
11667W        W76828  14.354  38.555   1.572
11668W        W76829  14.399  41.114   2.935
11669W        W76830   9.837   2.439   1.832
11670W        W76831   7.194   7.146   3.643
11671W        W76832  10.921  27.027  13.375
11672W        W76833   4.759   9.063  13.861
11673W        W76834  36.800  35.145   4.806
11674W        W76835  24.242  44.556  11.670
11675W        W76836  13.334  27.235   2.332
11676W        W76837  38.298  39.944  14.829
11677W        W76838  43.625  28.110  11.665
11678W        W76839   6.865  10.514   3.907
11679W        W76840  18.596  17.146   2.743
11680W        W76841  21.960  27.578  13.723
11681W        W76842   7.556  11.187  13.281
11682W        W76843  32.415  15.040  12.945
11683W        W76844  42.469  42.253  14.105
11684W        W76845   6.427  33.860  12.023
11685W        W76846  10.337  12.790   0.091
11686W        W76847  42.175  13.035   4.967
11687W        W76848  35.408  30.129  14.671
11688W        W76849   2.264  22.137   2.571
11689W        W76850  18.863  14.489   4.513
11690W        W76851   2.866   8.619  13.053
11691W        W76852  15.860  32.677   3.744
11692W        W76853  41.365  13.249   1.205
11693W        W76854   4.921  14.946  13.930
11694W        W76855   3.818  35.430   3.888
11695W        W76856  33.734  16.851   0.274
11696W        W76857   9.677  26.541   0.790
11697W        W76858  32.072  44.813   0.701
11698W        W76859  37.188   8.123  11.950
11699W        W76860  21.029  27.036  14.291
11700W        W76861  29.469  18.006   0.805
11701W        W76862  44.405  17.012  13.370
11702W        W76863   5.211  15.815  10.630
11703W        W76864  22.793  24.496  13.339
11704W        W76865  13.047   4.882   9.736
11705W        W76866   8.908  43.403  14.424
11706W        W76867  14.793  23.724   0.469
11707W        W76868  20.832  32.742   3.984
11708W        W76869  15.227   1.235   3.525
11709W        W76870  36.996  40.783  12.349
11710W        W76871  13.811   5.746   1.800
11711W        W76872  18.696  19.667  10.168
11712W        W76873  18.557  16.836   0.006
11713W        W76874  35.865  36.983  13.850
11714W        W76875  34.903  44.729  10.500
11715W        W76876   1.330  36.516   0.820
11716W        W76877  25.711  40.374  14.517
11717W        W76878  36.822  20.757   4.619
11718W        W76879   8.519  33.601   0.269
11719W        W76880  42.589  17.209   3.378
11720W        W76881   0.358   2.622  13.002
11721W        W76882  37.094  31.429   1.279
11722W        W76883  16.527  44.318  14.325
11723W        W76884  12.346  15.262  12.957
11724W        W76885  29.608  21.939   0.719
11725W        W76886  28.608  39.591  10.734
11726W        W76887  34.638  44.166   5.026
11727W        W76888  14.215  43.206   0.870
11728W        W76889  43.056  32.910   3.604
11729W        W76890  34.908  11.694  13.274
11730W        W76891  40.969  30.197  10.527
11731W        W76892  10.384   0.445  10.729
11732W        W76893   2.737  31.025  14.448
11733W        W76894  22.611  26.263  11.990
11734W        W76895   9.475  13.733  14.298
11735W        W76896  17.850  13.228   2.280
11736W        W76897  17.110   3.805   1.657
11737W        W76898  23.720  15.915  12.520
11738W        W76899   9.766  27.924   1.886
11739W        W76900  42.909  23.458  11.430
11740W        W76901  29.716  41.107  11.867
11741W        W76902  20.683   0.745   4.249
11742W        W76903  27.120  17.777   4.542
11743W        W76904  20.696   3.678   0.804
11744W        W76905  12.831  24.638   4.113
11745W        W76906  11.260   1.290   2.199
11746W        W76907  26.158  17.836  12.450
11747W        W76908  30.433   3.478  14.396
11748W        W76909  26.502  15.679  10.020
11749W        W76910  27.169  15.003   4.204
11750W        W76911  39.405  21.691   4.499
11751W        W76912  30.576  12.890   2.635
11752W        W76913  21.599  29.970  14.218
11753W        W76914   7.150  13.954   1.378
11754W        W76915  34.974  39.734  14.916
11755W        W76916  10.357  43.814   3.257
11756W        W76917   8.112   3.293   2.424
11757W        W76918   5.172  44.728  13.380
11758W        W76919   0.891  39.798   0.589
11759W        W76920  21.720  18.785  10.770
11760W        W76921  42.811  36.644   2.922
11761W        W76922  25.190   4.898  14.371
11762W        W76923   2.233  32.381   0.416
11763W        W76924  36.369  30.506   2.794
11764W        W76925   3.922   8.696   2.319
11765W        W76926   5.831  28.993  10.640
11766W        W76927  20.033  24.050  12.448
11767W        W76928  24.289   8.852  13.670
11768W        W76929  24.055  39.829  13.115
11769W        W76930   6.463  39.869   3.254
11770W        W76931  34.766  39.403   1.001
11771W        W76932  27.677   5.997   3.177
11772W        W76933  35.157  36.847  12.134
11773W        W76934  34.429  28.130   4.740
11774W        W76935   0.936   0.312   2.194
11775W        W76936  31.020  38.983   3.178
11776W        W76937   5.164  17.120   3.688
11777W        W76938  42.932  27.498  11.653
11778W        W76939  14.049  19.563   4.341
11779W        W76940  18.212  14.135   5.317
11780W        W76941  25.641  34.534  12.159
11781W        W76942  13.176  40.957  13.036
11782W        W76943  11.225  29.656  11.403
11783W        W76944  13.524   2.132  14.268
11784W        W76945   8.334  29.582   2.151
11785W        W76946  22.126  31.448   0.001
11786W        W76947   0.282  12.839   3.104
11787W        W76948  22.544   2.756   0.752
11788W        W76949  31.340   6.302   2.765
11789W        W76950  38.853  26.152   0.903
11790W        W76951  44.888  42.826   4.484
11791W        W76952  16.287  39.472   0.448
11792W        W76953  12.893  19.256  13.880
11793W        W76954  33.096  15.076   4.267
11794W        W76955  28.225  20.090  13.532
11795W        W76956  27.473  10.931  11.093
11796W        W76957  12.998  13.770  10.440
11797W        W76958  32.540  31.677   4.230
11798W        W76959  32.189   4.757  13.874
11799W        W76960  30.011  37.494   2.468
11800W        W76961  36.005  26.956   2.135
11801W        W76962  21.687   7.207   3.180
11802W        W76963  26.890  15.135  10.681
11803W        W76964  42.040  34.689   0.902
11804W        W76965   6.370  39.083   2.066
11805W        W76966  14.859   6.714  13.944
11806W        W76967  24.748  13.838  11.198
11807W        W76968  33.433   0.834  14.014
11808W        W76969  26.158  24.470   3.238
11809W        W76970  41.436  35.978  14.216
11810W        W76971  22.019   8.593  11.158
11811W        W76972   2.791  23.779   2.294
11812W        W76973  10.153  33.236   1.390
11813W        W76974   0.031  40.388   3.505
11814W        W76975  30.350  12.046   3.827
11815W        W76976  26.606  18.060   1.795
11816W        W76977  13.306  30.529  10.911
11817W        W76978  41.560  43.322  12.334
11818W        W76979  13.365   7.206  13.040
11819W        W76980  39.515  37.889  12.081
11820W        W76981  18.760  41.266   1.801
11821W        W76982   2.860  39.615  10.584
11822W        W76983  40.469  32.936   2.819
11823W        W76984  14.892  33.558  13.856
11824W        W76985   5.764  16.460  13.648
11825W        W76986  20.313  30.032  13.414
11826W        W76987  42.788  26.777  11.211
11827W        W76988  28.601  42.909   0.934
11828W        W76989  40.138  22.132   0.801
11829W        W76990  24.758  18.031  13.511
11830W        W76991  37.119  23.141  11.292
11831W        W76992  31.447  13.286   4.739
11832W        W76993  39.587  13.676  12.388
11833W        W76994  19.593  43.549  13.180
11834W        W76995   1.810  20.649   4.325
11835W        W76996  29.915   8.317   1.681
11836W        W76997  35.972  20.770  14.692
11837W        W76998  21.212  24.498  13.007
11838W        W76999  44.958  14.281   2.773
11839W        W77000  21.818  21.095  11.865
11840W        W77001  25.484   8.846  10.888
11841W        W77002  44.426  21.398  12.518
11842W        W77003  36.899  43.405   4.019
11843W        W77004  29.265  20.694   1.728
11844W        W77005  40.716  37.320  12.897
11845W        W77006  33.806  25.862   4.535
11846W        W77007   8.739  30.458   0.021
11847W        W77008  19.774  15.820   3.188
11848W        W77009  22.681  14.816   3.666
11849W        W77010  25.672  15.241   3.673
11850W        W77011  19.229  18.339  11.180
11851W        W77012   8.508  25.078  12.991
11852W        W77013  21.591  37.793   4.168
11853W        W77014  27.524  32.881  13.025
11854W        W77015  12.355  16.152  12.037
11855W        W77016  25.040  42.595  13.432
11856W        W77017  38.429  41.435   3.154
11857W        W77018  27.719  22.592  10.285
11858W        W77019   4.272  27.604  10.292
11859W        W77020  18.603  39.362  11.066
11860W        W77021   8.848  16.698  12.611
11861W        W77022  34.587   2.406  11.980
11862W        W77023  29.455   6.766   3.746
11863W        W77024  18.828  33.581  14.568
11864W        W77025  35.484  39.257   3.132
11865W        W77026  18.698   0.264  11.180
11866W        W77027  23.666  18.271   2.947
11867W        W77028  13.571   4.609   3.163
11868W        W77029  34.626  40.501  12.145
11869W        W77030   9.586   3.802  11.257
11870W        W77031   4.671  43.956  11.051
11871W        W77032  36.118  39.732  11.534
11872W        W77033  12.695   6.712   1.288
11873W        W77034  19.167  37.554   1.063
11874W        W77035  13.852   5.406   1.383
11875W        W77036  14.525  41.470  13.649
11876W        W77037  11.784   4.247  10.653
11877W        W77038  24.727  13.709   1.392
11878W        W77039  44.914  40.156  11.448
11879W        W77040  41.731  12.287   2.831
11880W        W77041  13.931  33.931   1.797
11881W        W77042   0.758  10.231   2.174
11882W        W77043   1.788  18.254   0.842
11883W        W77044  10.597  40.824  13.877
11884W        W77045  17.482  23.766  11.861
11885W        W77046  10.657   5.834  10.752
11886W        W77047  40.424  26.171   2.151
11887W        W77048   1.881  17.996  10.812
11888W        W77049  15.811  26.592  14.380
11889W        W77050   1.258   0.697  10.541
11890W        W77051  15.506  41.289   1.721
11891W        W77052  16.607   8.857  12.544
11892W        W77053   3.775  43.990   3.257
11893W        W77054  35.921  37.433   3.205
11894W        W77055  40.498   9.106   0.292
11895W        W77056   6.821   1.259   0.399
11896W        W77057  34.687  28.255   4.129
11897W        W77058   4.616   7.516  12.869
11898W        W77059  18.607  43.338   4.019
11899W        W77060  20.790  36.120   3.205
11900W        W77061  31.169  28.144   1.716
11901W        W77062  29.416  10.842  13.999
11902W        W77063  12.005   5.405   4.538
11903W        W77064  23.726  36.493   2.654
11904W        W77065  18.970   0.438   0.947
11905W        W77066  25.052  38.961  11.463
11906W        W77067  32.073  19.924   4.281
11907W        W77068  10.224  10.655   2.462
11908W        W77069  27.734  34.918   2.753
11909W        W77070  43.578  11.683  11.746
11910W        W77071  44.521  29.951   0.528
11911W        W77072  41.001  17.379  12.150
11912W        W77073  40.022   7.361   0.441
11913W        W77074  19.571   0.781   2.871
11914W        W77075   4.725  13.576   2.419
11915W        W77076  27.927  22.652  14.005
11916W        W77077   3.304  14.811   1.871
11917W        W77078   1.206  41.859   3.798
11918W        W77079   9.362  35.683  13.784
11919W        W77080  21.230  35.542   4.529
11920W        W77081  13.274  41.886   0.462
11921W        W77082  21.216  28.155  13.388
11922W        W77083   7.129  44.131   3.709
11923W        W77084  22.088  22.237  13.328
11924W        W77085   9.753  37.404   0.671
11925W        W77086  31.584  36.126   0.880
11926W        W77087  29.972  13.589   2.620
11927W        W77088   5.280   0.375  11.503
11928W        W77089   6.012  31.588   3.579
11929W        W77090  13.817   1.906  13.048
11930W        W77091  30.062  18.131  12.890
11931W        W77092  29.087   3.957   1.217
11932W        W77093  30.384  38.424   1.659
11933W        W77094   0.986  41.860   1.688
11934W        W77095   7.140  17.578   0.277
11935W        W77096  29.228  22.578  10.195
11936W        W77097  43.828   4.615  11.971
11937W        W77098  26.155  11.153  11.095
11938W        W77099   1.323   7.644   0.623
11939W        W77100  13.099  37.401  13.087
11940W        W77101  35.408  40.044  13.991
11941W        W77102  14.370  35.873  10.815
11942W        W77103   6.386  37.479  14.420
11943W        W77104  34.065  29.708  13.540
11944W        W77105  24.839  30.143  11.918
11945W        W77106  14.356   0.052  12.864
11946W        W77107  42.992  41.547  13.267
11947W        W77108  35.283  14.352   2.373
11948W        W77109   7.354  12.763  11.138
11949W        W77110   5.892  24.794   1.727
11950W        W77111   7.958   1.697   3.860
11951W        W77112  20.083   6.813   4.312
11952W        W77113  34.410  23.482   3.322
11953W        W77114  27.286  23.738   3.632
11954W        W77115  26.169   4.608  11.547
11955W        W77116  17.626   8.973  12.095
11956W        W77117  22.576  26.493  10.234
11957W        W77118   6.027  30.588   1.207
11958W        W77119   3.843   2.796  12.377
11959W        W77120   7.382  44.835   4.187
11960W        W77121  29.178  11.301  11.552
11961W        W77122  24.336  32.051   4.894
11962W        W77123  34.432  11.966   4.305
11963W        W77124  17.993  19.025  12.640
11964W        W77125   4.891  22.295  10.640
11965W        W77126   2.153  40.816   0.525
11966W        W77127  15.164  24.830  14.813
11967W        W77128  44.501  23.222   0.125
11968W        W77129  13.079   2.502  13.030
11969W        W77130  36.407  43.445  11.177
11970W        W77131  37.581  29.135   4.391
11971W        W77132   7.409  39.085  11.560
11972W        W77133  21.805  10.673   0.671
11973W        W77134   6.385  39.984   2.391
11974W        W77135  26.999  24.653   1.887
11975W        W77136   4.962   4.623  12.135
11976W        W77137  43.504   6.387  12.167
11977W        W77138  16.327  16.428  14.027
11978W        W77139  19.011  17.262   2.057
11979W        W77140  27.617  16.890   0.169
11980W        W77141  20.537  28.726  13.930
11981W        W77142  23.778  10.178  14.323
11982W        W77143  43.736  41.826   0.757
11983W        W77144  40.246  19.131   4.724
11984W        W77145  30.101  35.153  11.815
11985W        W77146  23.421  11.733   2.195
11986W        W77147  32.055   8.226   3.794
11987W        W77148  22.975   9.574   0.846
11988W        W77149   6.924  44.561  11.660
11989W        W77150  13.793  20.148   5.008
11990W        W77151   3.762  40.584  10.726
11991W        W77152  37.818   0.698   2.573
11992W        W77153  18.500   9.514   1.289
11993W        W77154   4.123  39.667  12.991
11994W        W77155  15.663   2.897   3.736
11995W        W77156  38.838  36.005  13.865
11996W        W77157  16.839   9.621  10.718
11997W        W77158  26.001   1.877   1.656
11998W        W77159  31.487   8.984  12.560
11999W        W77160  24.163  23.235   2.275
12000W        W77161   6.756  39.067   0.341
12001W        W77162  28.006  44.290  10.285
12002W        W77163  24.730   4.178  14.259
12003W        W77164  44.828   3.345  13.587
12004W        W77165  14.162  44.513   1.346
12005W        W77166  40.486  20.434  14.353
12006W        W77167  20.912  23.731   4.370
12007W        W77168  29.884  15.020   0.520
12008W        W77169  15.239  13.211   1.941
12009W        W77170  25.872  28.252   4.085
12010W        W77171  23.302  13.282  13.266
12011W        W77172  33.978  21.271  14.224
12012W        W77173   9.176  38.698  11.547
12013W        W77174  22.230  28.536  13.783
12014W        W77175  14.734  39.335  14.391
12015W        W77176  21.996   2.319   0.295
12016W        W77177  17.784  21.648  12.336
12017W        W77178  35.849  29.000  11.693
12018W        W77179  15.176   0.746   2.739
12019W        W77180  20.591  44.145  14.988
12020W        W77181  40.435  13.557   0.787
12021W        W77182  14.334   6.279   4.115
12022W        W77183  14.089  23.073   1.773
12023W        W77184  43.926   9.782  10.918
12024W        W77185  17.227  41.591   4.160
12025W        W77186  15.581  32.994   4.104
12026W        W77187  29.769   2.147  12.041
12027W        W77188  18.702   6.285  14.729
12028W        W77189   4.191  43.317   1.343
12029W        W77190  44.248  36.103  12.151
12030W        W77191  43.083  30.893   0.504
12031W        W77192  14.871  26.275   2.743
12032W        W77193  12.063   4.943   0.182
12033W        W77194   3.351  33.016   3.318
12034W        W77195   1.998  42.385   2.968
12035W        W77196  29.741  20.249   4.261
12036W        W77197  29.156  15.548   0.663
12037W        W77198  10.005  23.192   3.146
12038W        W77199  13.857  38.967   0.853
12039W        W77200  25.256  13.920  11.218
12040W        W77201  31.136  28.066  12.948
12041W        W77202  24.079  31.599   4.151
12042W        W77203  20.741  42.007  11.600
12043W        W77204   8.683   7.356  13.955
12044W        W77205  10.815  37.405   1.067
12045W        W77206  30.327  19.582  13.074
12046W        W77207  24.427  39.533   2.925
12047W        W77208  14.039  21.227  10.671
12048W        W77209  20.113  34.936  13.130
12049W        W77210  42.266  30.950   4.920
12050W        W77211   9.253   7.746   0.327
12051W        W77212   4.638  17.381   1.381
12052W        W77213  16.524  13.065   4.386
12053W        W77214  39.937   5.772  11.341
12054W        W77215  13.754   6.656  11.464
12055W        W77216   3.725  31.948  14.844
12056W        W77217  24.080  41.283   1.162
12057W        W77218  28.561  35.017  12.092
12058W        W77219  38.828  18.790   4.606
12059W        W77220  33.049  38.337   2.256
12060W        W77221   4.319   0.056  14.397
12061W        W77222  26.520  23.923  11.923
12062W        W77223  14.414  17.532   1.556
12063W        W77224  43.297   4.794   1.662
12064W        W77225   4.090  44.318   1.354
12065W        W77226   5.544  15.860   1.178
12066W        W77227  37.432  22.824  12.094
12067W        W77228  10.631  40.681   3.678
12068W        W77229  16.109  39.729   2.760
12069W        W77230  35.621   6.286   3.708
12070W        W77231  25.118  34.414   3.834
12071W        W77232  39.832   3.879  12.906
12072W        W77233  34.928   9.905   0.911
12073W        W77234  41.213  43.553   4.078
12074W        W77235  22.174  36.858   1.258
12075W        W77236  19.599  27.459  14.300
12076W        W77237  25.566   8.183   2.752
12077W        W77238  15.811  25.245   4.886
12078W        W77239   6.191  35.343   0.749
12079W        W77240   1.020   8.190   1.412
12080W        W77241  39.031  39.966  12.586
12081W        W77242  26.609  40.430  13.893
12082W        W77243  28.336  29.305   1.190
12083W        W77244  15.046  41.419  14.957
12084W        W77245  32.816  27.357  12.156
12085W        W77246   1.368  25.560  14.692
12086W        W77247   6.253  43.366   4.579
12087W        W77248   6.867  22.248   0.383
12088W        W77249  11.252  22.953  11.530
12089W        W77250   4.986  43.528  11.712
12090W        W77251  43.995   8.365  11.045
12091W        W77252  33.113  44.811   1.498
12092W        W77253  22.217  11.146  13.411
12093W        W77254  31.519  32.946   3.131
12094W        W77255   5.079  38.447   4.252
12095W        W77256   4.389  44.707   3.167
12096W        W77257  20.731  28.861  10.786
12097W        W77258  22.666  11.564   1.837
12098W        W77259  21.227  19.946  14.080
12099W        W77260  44.333  11.812  10.660
12100W        W77261  38.835   4.780   1.218
12101W        W77262  34.633  29.154   0.811
12102W        W77263  30.434  22.245  14.741
12103W        W77264  39.360  41.597  12.497
12104W        W77265  43.861   5.112  11.919
12105W        W77266  33.625  25.253   0.585
12106W        W77267   6.976  40.850   2.354
12107W        W77268  42.826   6.413  12.352
12108W        W77269  27.482  40.737  10.719
12109W        W77270  37.875  28.319   3.420
12110W        W77271  19.307  39.502   0.552
12111W        W77272  17.066   3.886  11.693
12112W        W77273  23.148   0.986  10.509
12113W        W77274  36.909  32.393   2.759
12114W        W77275  27.351  40.769   3.998
12115W        W77276  23.699  22.143   2.606
12116W        W77277  12.002  22.180   1.706
12117W        W77278  36.042  33.122  12.862
12118W        W77279  10.580  32.055  14.873
12119W        W77280  33.789  20.748  10.717
12120W        W77281  37.533   6.182  13.177
12121W        W77282   1.366  24.552   0.398
12122W        W77283   5.781  37.594   1.358
12123W        W77284   9.655   4.781  13.958
12124W        W77285  38.587  32.123   1.235
12125W        W77286  21.570  44.767  13.114
12126W        W77287  18.307  25.498  14.450
12127W        W77288  43.072  14.741  14.646
12128W        W77289  19.270  32.906  11.156
12129W        W77290  17.902  11.239  12.151
12130W        W77291   1.469   9.559  13.247
12131W        W77292  20.709  29.690   2.814
12132W        W77293  14.564  33.449   1.652
12133W        W77294  26.510  10.203   4.209
12134W        W77295  33.011  42.450   4.519
12135W        W77296  10.269  35.555   4.043
12136W        W77297  20.834  31.640   4.660
12137W        W77298  44.193  13.754   2.291
12138W        W77299  29.176  33.433  12.607
12139W        W77300  17.646   8.219   4.448
12140W        W77301  21.109  41.763  10.493
12141W        W77302  43.521  12.889  12.577
12142W        W77303  18.882  44.493   4.653
12143W        W77304  14.547  17.278   4.130
12144W        W77305  12.694   4.085   2.110
12145W        W77306  23.006  20.189  11.841
12146W        W77307  42.993   2.075  13.940
12147W        W77308  18.187  11.622   4.290
12148W        W77309  43.051  32.633   4.366
12149W        W77310  28.210  26.820  14.073
12150W        W77311  36.091  28.811   0.290
12151W        W77312  29.616   6.239   0.553
12152W        W77313  36.749   5.661  11.114
12153W        W77314  39.843   8.623  11.925
12154W        W77315   1.963  30.426   2.679
12155W        W77316  40.273  26.004   1.242
12156W        W77317  38.944  16.572  13.764
12157W        W77318  20.475   9.170  10.619
12158W        W77319  14.083  11.329   1.250
12159W        W77320  12.340  41.663  13.148
12160W        W77321  31.955  32.503   3.047
12161W        W77322  20.071   0.827   0.293
12162W        W77323  21.619  17.955   3.551
12163W        W77324  29.114  41.982   4.081
12164W        W77325   8.222   6.474   0.007
12165W        W77326  10.280   6.375  14.870
12166W        W77327  10.217   5.327   2.857
12167W        W77328  21.582  30.827  13.960
12168W        W77329  16.076  18.510  13.811
12169W        W77330  43.749  28.902   4.405
12170W        W77331  30.353  29.474  12.006
12171W        W77332  11.614  21.936   4.106
12172W        W77333  31.186  24.649   0.330
12173W        W77334  40.366  40.275   3.142
12174W        W77335  22.917  16.436  11.168
12175W        W77336  29.527  30.882  13.999
12176W        W77337  23.761  30.487   3.274
12177W        W77338  28.873   9.163   0.423
12178W        W77339  29.216  30.876   1.240
12179W        W77340  13.719  18.517  11.723
12180W        W77341  32.579  10.337   1.667
12181W        W77342  15.321  20.021   1.817
12182W        W77343  19.463  44.055   2.283
12183W        W77344  24.219  22.111   3.145
12184W        W77345   3.222  12.711  14.978
12185W        W77346   6.544  10.805  12.452
12186W        W77347  11.222   0.182  11.853
12187W        W77348   5.925  15.820   4.288
12188W        W77349  24.496  10.335   1.723
12189W        W77350  40.404  23.586   2.210
12190W        W77351  26.536  21.048  11.977
12191W        W77352  32.541  17.769  11.158
12192W        W77353   3.298   1.055   4.603
12193W        W77354  35.847   9.023  13.549
12194W        W77355   7.160  41.424   3.669
12195W        W77356   7.824  23.641  10.654
12196W        W77357  20.597  17.797   1.330
12197W        W77358  21.732  15.631  10.479
12198W        W77359  42.812  22.508   3.662
12199W        W77360  38.447  36.900  12.240
12200W        W77361  17.795   4.458   0.969
12201W        W77362  15.645  24.552   3.718
12202W        W77363  29.584  33.943   4.234
12203W        W77364  14.531  11.527   3.291
12204W        W77365   3.686   3.668   3.755
12205W        W77366  44.087  33.398  13.619
12206W        W77367  12.888   8.354   3.401
12207W        W77368  10.559  21.624  14.457
12208W        W77369  19.723  11.623  14.430
12209W        W77370  31.480  16.809  11.955
12210W        W77371   3.409   4.529  10.695
12211W        W77372  22.118  12.342   0.835
12212W        W77373  23.113  15.199   1.050
12213W        W77374  11.201   4.769  10.985
12214W        W77375  32.455   4.980  10.510
12215W        W77376  39.474  18.003   0.937
12216W        W77377  37.445  24.307  14.310
12217W        W77378  44.280  14.299   4.162
12218W        W77379  34.548   6.515   4.277
12219W        W77380  26.108  24.631  11.605
12220W        W77381  28.199   2.025   0.241
12221W        W77382  24.752  28.577  13.298
12222W        W77383   3.658  35.984   0.936
12223W        W77384  29.885  33.505  11.571
12224W        W77385  37.623  42.337  14.497
12225W        W77386   5.471  22.654  13.819
12226W        W77387  10.863  41.347   2.503
12227W        W77388  40.331  42.678   0.973
12228W        W77389  38.592  17.046  10.730
12229W        W77390   8.354  16.780   2.570
12230W        W77391  20.709  11.214   4.013
12231W        W77392   3.931  43.330   0.046
12232W        W77393   2.762  27.891  11.154
12233W        W77394  24.973   3.909  11.947
12234W        W77395  41.432  32.719  10.695
12235W        W77396  23.999  20.032  13.524
12236W        W77397  42.066  42.829  10.843
12237W        W77398  22.853  34.090  13.504
12238W        W77399  11.736  44.258   0.388
12239W        W77400  34.118  13.240   0.234
12240W        W77401  30.692  19.175  12.014
12241W        W77402  34.684  39.005   2.356
12242W        W77403   3.555   9.248   9.771
12243W        W77404  32.054  21.576  12.243
12244W        W77405   3.303  25.298   4.293
12245W        W77406  23.028  30.105   2.685
12246W        W77407  20.333  38.520  10.789
12247W        W77408  30.111  41.138  11.045
12248W        W77409  25.131  23.978  11.959
12249W        W77410  17.806  26.134   2.523
12250W        W77411  40.547  43.365  12.075
12251W        W77412  33.201   4.813  13.898
12252W        W77413  25.507   9.333  11.096
12253W        W77414   9.791  28.578  14.200
12254W        W77415  42.022  44.319   3.082
12255W        W77416  24.023  22.563   1.846
12256W        W77417  22.739  17.544  14.775
12257W        W77418  41.048  26.577   1.131
12258W        W77419  39.542  13.825  11.119
12259W        W77420  27.512  11.677   2.768
12260W        W77421  16.179  35.950  14.258
12261W        W77422  12.746  10.586   4.218
12262W        W77423  20.188  23.227   4.435
12263W        W77424  38.924  13.580   1.950
12264W        W77425  30.380   7.742  12.117
12265W        W77426  34.163  25.606  11.572
12266W        W77427   1.014  38.466  12.985
12267W        W77428  27.216   8.381   1.980
12268W        W77429  30.158  34.393   2.295
12269W        W77430  22.386   4.415  11.331
12270W        W77431  23.174  30.056   4.469
12271W        W77432  33.610  31.164   0.277
12272W        W77433  23.548   6.336  11.920
12273W        W77434   4.434  10.777  11.142
12274W        W77435  42.974  12.858   4.533
12275W        W77436  21.292  36.068   3.279
12276W        W77437  10.622   5.673   2.140
12277W        W77438  19.094   9.553  13.066
12278W        W77439  25.832  13.783   3.549
12279W        W77440  22.960   3.373   0.040
12280W        W77441  14.759  32.525   2.633
12281W        W77442   8.292  11.852   2.394
12282W        W77443   8.921  23.255   0.206
12283W        W77444  18.424  17.099   3.219
12284W        W77445  16.673  22.808  10.634
12285W        W77446  43.043  11.815  12.828
12286W        W77447   4.724  42.677   5.035
12287W        W77448  42.836  30.608  12.407
12288W        W77449  30.630  13.224   2.266
12289W        W77450  31.478  30.522   2.902
12290W        W77451  29.456  15.283  12.587
12291W        W77452  17.663  14.536  11.075
12292W        W77453  31.029   5.848   3.679
12293W        W77454  14.697  30.222   2.262
12294W        W77455   5.812  23.845   2.036
12295W        W77456  14.940  11.748  14.678
12296W        W77457  15.150  34.638  12.960
12297W        W77458   5.617  39.991   0.455
12298W        W77459  43.973   7.168   2.174
12299W        W77460  37.964   5.535  14.764
12300W        W77461   8.403  39.839   2.190
12301W        W77462  44.763  38.609   3.197
12302W        W77463  38.246  19.577   1.400
12303W        W77464  11.576  41.033   0.970
12304W        W77465  26.511  12.768  12.061
12305W        W77466  18.187  41.450   4.138
12306W        W77467  33.923  40.437  11.146
12307W        W77468  29.107  44.942   2.288
12308W        W77469  21.751  16.100   2.231
12309W        W77470  12.278  33.713  10.721
12310W        W77471  35.413  23.536  11.586
12311W        W77472  38.672   0.793  14.310
12312W        W77473  11.682  13.029   3.361
12313W        W77474  33.530  27.246  13.386
12314W        W77475   3.796   2.053  11.392
12315W        W77476   9.652  13.712  13.314
12316W        W77477  16.758  41.440  14.372
12317W        W77478  25.765  31.837   0.370
12318W        W77479  36.106  41.004   3.609
12319W        W77480   7.511  44.979  10.737
12320W        W77481   4.821  38.823   0.904
12321W        W77482  35.628   0.215  13.310
12322W        W77483  39.458  30.234  12.440
12323W        W77484  19.088  35.812  12.991
12324W        W77485  41.134  34.534  10.474
12325W        W77486  28.987   5.788  12.603
12326W        W77487   3.855   5.747   0.823
12327W        W77488  39.999  25.060  14.806
12328W        W77489  21.669   9.708   1.364
12329W        W77490  42.240   9.493  12.322
12330W        W77491  39.297  12.482   1.222
12331W        W77492  25.636   7.633   4.477
12332W        W77493  44.246  43.301  12.604
12333W        W77494   3.667  39.967   2.020
12334W        W77495  26.712  11.659   0.835
12335W        W77496   8.330  12.719   0.384
12336W        W77497   9.097  32.045   0.663
12337W        W77498  10.800  16.700  12.022
12338W        W77499  30.225   2.688   4.998
12339W        W77500   2.653  42.192   4.127
12340W        W77501  22.802  23.719   3.167
12341W        W77502  41.204   7.749  10.917
12342W        W77503  22.830  12.643  13.933
12343W        W77504  24.054  33.087   1.027
12344W        W77505   6.373  38.440  12.517
12345W        W77506  35.336  44.313   3.668
12346W        W77507  41.486  28.584   1.204
12347W        W77508  10.341  41.399   3.334
12348W        W77509   3.849   4.224   4.075
12349W        W77510  27.021  11.765   3.560
12350W        W77511  20.695  12.121  10.717
12351W        W77512  42.240   6.427  14.377
12352W        W77513  29.538  34.404   4.438
12353W        W77514  33.425   2.936  12.497
12354W        W77515  40.989  15.688  10.717
12355W        W77516  12.821  39.585   2.830
12356W        W77517  28.096   5.366  12.818
12357W        W77518  24.245  37.847   5.408
12358W        W77519  39.630  22.183   4.525
12359W        W77520  38.438  44.242   1.920
12360W        W77521  39.899  37.514   1.245
12361W        W77522   1.465  23.191   3.989
12362W        W77523   3.794   3.398  11.175
12363W        W77524  40.024  39.443  10.766
12364W        W77525   9.821  29.348  11.569
12365W        W77526  21.140  24.618   4.178
12366W        W77527  41.827  17.146   4.557
12367W        W77528  29.927   3.517  13.162
12368W        W77529  30.650   3.286   2.238
12369W        W77530  17.065   6.779   0.264
12370W        W77531  36.954  27.841  12.064
12371W        W77532  23.649  31.695  12.510
12372W        W77533  22.657  16.633  12.872
12373W        W77534  31.442  22.954   2.143
12374W        W77535  15.668   3.365   0.916
12375W        W77536   5.776  44.322  13.877
12376W        W77537  25.727  34.042   2.696
12377W        W77538  24.643  24.614   0.837
12378W        W77539  37.385  37.752  14.893
12379W        W77540  39.336  41.856  13.440
12380W        W77541   4.372  13.121   0.214
12381W        W77542  30.659  20.567  10.421
12382W        W77543  12.095   7.896   3.182
12383W        W77544  19.762  25.329  13.780
12384W        W77545  18.845   9.259  12.120
12385W        W77546  44.963  14.221   1.010
12386W        W77547   8.027  17.666  14.896
12387W        W77548  43.552  18.614  12.149
12388W        W77549   6.589   3.188   3.645
12389W        W77550  17.194  39.616   1.796
12390W        W77551  37.238  36.889   4.796
12391W        W77552  36.929  24.763   1.314
12392W        W77553  37.627  42.393  10.740
12393W        W77554   1.634  27.226  11.193
12394W        W77555  33.394  15.730   3.621
12395W        W77556  14.305   5.752   0.204
12396W        W77557  35.098  42.119  11.553
12397W        W77558   1.958  24.451  12.138
12398W        W77559  35.996  36.066   0.483
12399W        W77560   2.332  31.527   0.047
12400W        W77561   3.254  30.077  14.038
12401W        W77562  19.548  41.645  12.322
12402W        W77563  33.581  15.092  10.598
12403W        W77564  22.306   1.296   2.174
12404W        W77565   7.537  10.176  14.857
12405W        W77566  12.902  22.599  10.746
12406W        W77567  44.201  31.035  14.792
12407W        W77568  37.982  42.173  11.789
12408W        W77569  43.934   7.134  13.325
12409W        W77570  42.569  21.051   3.250
12410W        W77571  30.872   5.409   4.464
12411W        W77572  13.153  39.086  11.446
12412W        W77573  20.715  31.958  12.109
12413W        W77574  24.856   0.655   0.307
12414W        W77575  33.369  14.366   3.863
12415W        W77576  28.611   3.726   3.774
12416W        W77577  22.062  13.267  13.862
12417W        W77578  23.810  44.299   4.462
12418W        W77579   9.290  10.167  12.668
12419W        W77580   2.616  30.671   4.218
12420W        W77581  38.057  14.814  12.583
12421W        W77582  21.024  10.722  14.748
12422W        W77583  14.563   0.338  13.278
12423W        W77584  40.441  33.594   0.324
12424W        W77585  16.305  28.035  14.491
12425W        W77586  24.626  37.098  12.930
12426W        W77587  12.624  43.723  11.013
12427W        W77588  37.366  30.510   0.467
12428W        W77589  39.368   5.947  13.307
12429W        W77590  43.777  38.056  10.272
12430W        W77591  30.261   2.800   1.348
12431W        W77592  21.507  24.242   2.717
12432W        W77593  36.969   1.126   1.728
12433W        W77594  25.478  12.404  13.359
12434W        W77595   1.318   3.949   1.730
12435W        W77596   0.355  19.359   1.464
12436W        W77597  13.382  24.912   4.110
12437W        W77598  10.726  44.135   4.784
12438W        W77599   6.469   2.408  14.180
12439W        W77600   4.732  41.506   0.761
12440W        W77601  30.394  18.823  14.295
12441W        W77602   6.286  29.093   0.331
12442W        W77603   9.097  43.968   1.399
12443W        W77604  27.877   6.600  14.140
12444W        W77605  15.183  16.354  11.873
12445W        W77606   2.037  40.007   0.917
12446W        W77607  26.964  39.020   2.347
12447W        W77608  40.396  11.726   2.930
12448W        W77609  21.559  34.911   2.586
12449W        W77610   7.211  26.071   0.889
12450W        W77611  16.655   9.216  12.969
12451W        W77612  28.760  14.711   1.213
12452W        W77613  22.857  16.229  12.528
12453W        W77614  16.980  11.123   4.493
12454W        W77615  36.955  31.980   4.158
12455W        W77616  43.481   9.615  11.178
12456W        W77617  42.527  40.308  10.652
12457W        W77618   0.338  44.434  14.254
12458W        W77619  26.280   8.987   1.526
12459W        W77620  40.329   0.551   1.867
12460W        W77621  28.209  34.328   0.442
12461W        W77622  19.669  36.057   0.938
12462W        W77623   5.642  25.638   2.765
12463W        W77624   9.051  44.465   2.146
12464W        W77625  26.989   0.408  11.556
12465W        W77626  16.748  39.362   4.679
12466W        W77627  16.014   3.276   2.280
12467W        W77628   9.129  44.751   2.576
12468W        W77629  10.848  26.455   2.595
12469W        W77630  16.571  21.589  11.188
12470W        W77631  20.591  14.689   0.339
12471W        W77632  22.748  16.246   2.378
12472W        W77633  25.059  31.918   0.711
12473W        W77634  18.712  40.519   2.647
12474W        W77635  20.729  12.131  12.749
12475W        W77636  44.492  22.620  13.572
12476W        W77637  37.539  36.671   3.228
12477W        W77638  17.799  42.778   3.072
12478W        W77639  38.922  27.121   2.006
12479W        W77640   8.931  10.687   2.625
12480W        W77641  17.250  33.849   0.208
12481W        W77642  43.945  23.151   3.779
12482W        W77643  30.581   4.651   3.233
12483W        W77644  21.698   7.580   3.529
12484W        W77645  24.559  29.447   2.214
12485W        W77646  28.583  16.850   0.953
12486W        W77647  37.367  13.083  12.876
12487W        W77648  10.727   7.568  14.900
12488W        W77649  23.943   2.312   2.141
12489W        W77650   8.239  10.268   4.905
12490W        W77651  30.949   7.340   1.662
12491W        W77652  15.571  11.595  12.924
12492W        W77653  42.279   9.785   1.974
12493W        W77654  42.136  39.002   3.203
12494W        W77655   5.990  39.757  13.588
12495W        W77656  23.958   6.233  11.620
12496W        W77657  32.376   1.390   2.824
12497W        W77658  12.102  39.601  13.924
12498W        W77659  37.605   6.704   4.733
12499W        W77660  34.093  36.947   3.610
12500W        W77661  25.923  28.655   1.882
12501W        W77662  10.541  30.023  14.415
12502W        W77663   4.921  11.117  11.434
12503W        W77664   6.579  21.239  14.529
12504W        W77665  22.034  44.017  11.486
12505W        W77666  18.718  43.644   1.248
12506W        W77667  43.597  29.400   4.184
12507W        W77668  29.539   3.288  13.418
12508W        W77669  27.909  17.238  14.221
12509W        W77670   5.327  28.436  14.561
12510W        W77671  20.342  42.692  11.909
12511W        W77672  30.505  18.562   0.850
12512W        W77673  43.037  20.680   4.331
12513W        W77674   4.155  39.809   1.824
12514W        W77675  13.774  13.867   2.883
12515W        W77676  25.106  18.243   4.591
12516W        W77677  19.282  33.558  14.830
12517W        W77678  15.674   1.379  12.361
12518W        W77679   8.094  40.984   2.729
12519W        W77680  22.626  22.996  14.361
12520W        W77681  11.860  38.961   3.095
12521W        W77682  19.314  22.015  12.591
12522W        W77683  15.266  33.577   4.185
12523W        W77684  29.002   4.726   0.963
12524W        W77685  36.557  31.888  13.126
12525W        W77686   1.157  40.308  11.041
12526W        W77687  34.418  42.968   3.654
12527W        W77688   1.312  24.065  11.645
12528W        W77689  12.090  23.275   3.698
12529W        W77690  27.656  37.439  10.446
12530W        W77691  34.098  35.908  12.546
12531W        W77692   4.343  34.991  13.564
12532W        W77693  40.844  41.276   1.805
12533W        W77694  41.005   6.676  14.182
12534W        W77695  38.488   1.903  11.287
12535W        W77696  28.978  18.825  13.878
12536W        W77697  32.892  10.703  11.564
12537W        W77698   1.867   6.706  12.918
12538W        W77699  28.147   0.926  11.704
12539W        W77700  36.163  21.642  13.359
12540W        W77701   2.349  34.697  14.470
12541W        W77702  39.037  31.148   0.995
12542W        W77703  18.517  13.278   3.764
12543W        W77704  26.639  27.042  14.303
12544W        W77705  14.666   3.710   1.688
12545W        W77706  17.233  16.064  11.533
12546W        W77707   3.253  33.573  11.069
12547W        W77708  43.030   4.193  11.608
12548W        W77709   9.430  37.812  13.975
12549W        W77710   0.263  28.222   0.968
12550W        W77711  15.349  41.597  11.115
12551W        W77712   1.845  26.922  11.594
12552W        W77713  28.578  10.242   2.410
12553W        W77714  13.261  10.409   1.834
12554W        W77715  36.105  35.162  12.541
12555W        W77716  23.605   2.054   1.814
12556W        W77717  42.371  40.910  14.856
12557W        W77718  19.004   8.866  12.440
12558W        W77719  44.536  28.975   2.378
12559W        W77720  42.513  40.547   2.866
12560W        W77721  38.243  17.462   3.628
12561W        W77722  18.229  31.109  10.745
12562W        W77723   6.681  10.372   1.741
12563W        W77724  16.183  22.832   4.590
12564W        W77725  18.770  38.715  11.234
12565W        W77726  16.299  44.629  11.186
12566W        W77727   9.876   0.970   2.047
12567W        W77728  24.213  17.205  13.318
12568W        W77729  38.013  32.439   2.937
12569W        W77730   4.700  17.718   3.403
12570W        W77731  44.739  32.033  10.699
12571W        W77732  38.840  18.169  14.934
12572W        W77733  29.396  17.333  14.437
12573W        W77734  42.001  17.624  12.035
12574W        W77735  42.208  24.083  10.483
12575W        W77736  18.639  22.747   3.780
12576W        W77737   6.329  29.122  13.862
12577W        W77738  30.922  15.634   4.154
12578W        W77739  22.989  32.027  14.246
12579W        W77740  44.258  34.526  11.318
12580W        W77741   8.305  18.538  13.862
12581W        W77742  13.382  41.492   1.223
12582W        W77743  29.894  43.519  11.203
12583W        W77744  36.576   1.247  11.361
12584W        W77745  22.664  44.008   1.220
12585W        W77746  28.941  14.160  10.715
12586W        W77747  33.339   5.244  13.637
12587W        W77748  29.748  29.194  12.609
12588W        W77749   9.692   8.923   0.910
12589W        W77750  32.895  22.104   3.319
12590W        W77751  29.626   5.905   3.155
12591W        W77752  14.709  23.633  11.705
12592W        W77753   5.595  15.714  12.510
12593W        W77754  17.077   7.373  11.651
12594W        W77755  39.318  41.115  12.347
12595W        W77756  16.223   8.764   0.020
12596W        W77757  21.184  43.901   0.310
12597W        W77758   0.425   1.610   0.321
12598W        W77759  41.017  11.872   3.570
12599W        W77760  23.362   7.598  12.021
12600W        W77761  41.647  21.738  10.764
12601W        W77762  36.420  29.875   2.839
12602W        W77763  43.839   4.739  10.994
12603W        W77764   2.195   1.326  13.405
12604W        W77765  33.616   6.316   3.958
12605W        W77766   4.439  23.923   0.860
12606W        W77767  23.850  16.788  11.172
12607W        W77768  39.793  27.783   3.616
12608W        W77769  36.830   1.438   0.747
12609W        W77770  42.026   1.913  13.652
12610W        W77771  14.620   3.460  13.965
12611W        W77772  10.365  24.976  12.455
12612W        W77773   6.253  24.501  13.373
12613W        W77774  37.614  24.263   4.155
12614W        W77775  29.988  22.124   3.179
12615W        W77776  16.515  15.234   1.716
12616W        W77777  33.393   7.627   4.109
12617W        W77778  34.108  39.485   2.797
12618W        W77779  40.258  11.768  14.466
12619W        W77780   8.240   9.113  12.107
12620W        W77781  32.217  18.582  14.061
12621W        W77782   8.763   7.770  11.887
12622W        W77783   5.310   7.902   0.049
12623W        W77784  43.655  35.340   3.386
12624W        W77785  10.914  40.820   1.821
12625W        W77786  11.615  14.839   2.815
12626W        W77787   1.461  29.555  13.844
12627W        W77788  24.691  29.533  14.901
12628W        W77789  39.957  14.308  14.678
12629W        W77790  42.038  15.390   4.312
12630W        W77791  13.799  25.705  11.978
12631W        W77792  43.309  19.559   3.966
12632W        W77793  32.525   8.466  13.954
12633W        W77794  29.631   7.680  11.637
12634W        W77795   9.037  37.921  11.166
12635W        W77796   6.124  24.134   0.213
12636W        W77797  17.645  15.616  13.562
12637W        W77798  34.721  30.092  10.836
12638W        W77799   9.981   7.906   3.574
12639W        W77800  26.982  19.671  13.499
12640W        W77801   5.296  31.976   1.054
12641W        W77802   7.581  37.537  14.786
12642W        W77803  19.213  28.085   3.740
12643W        W77804  33.110  17.234  12.490
12644W        W77805  21.405  41.557  13.061
12645W        W77806  12.671  37.317   3.191
12646W        W77807   8.330  33.486  13.068
12647W        W77808  33.252  10.730  14.686
12648W        W77809  16.619   5.211  10.463
12649W        W77810  12.050  43.457   3.071
12650W        W77811  39.614  43.975   0.906
12651W        W77812  20.205  36.353   3.822
12652W        W77813  20.655   1.766  11.613
12653W        W77814   2.199   9.476   1.680
12654W        W77815  16.588  22.565   0.874
12655W        W77816  11.849  41.360  10.592
12656W        W77817  38.315  30.877   4.543
12657W        W77818  16.778  39.340  14.736
12658W        W77819  22.540  38.649  14.052
12659W        W77820  42.000   9.748  13.481
12660W        W77821  34.149  25.206   0.529
12661W        W77822  38.850  14.642  13.767
12662W        W77823   8.287  33.651  11.679
12663W        W77824   0.193  13.698  12.974
12664W        W77825  22.219  38.909   1.295
12665W        W77826  27.185  22.332  14.366
12666W        W77827  16.785  21.191   9.871
12667W        W77828  38.781  28.414  11.364
12668W        W77829  38.839  16.243  13.164
12669W        W77830  12.793  24.407  11.600
12670W        W77831  28.953  33.455   0.823
12671W        W77832  34.337  16.597   4.719
12672W        W77833  11.097  21.429   3.850
12673W        W77834  21.275  34.259   0.763
12674W        W77835  35.380  32.094   0.869
12675W        W77836   9.106  11.701   0.912
12676W        W77837  13.798  13.082  14.881
12677W        W77838  25.554   8.610  14.408
12678W        W77839  41.302  19.172  12.573
12679W        W77840   9.595  39.737   1.306
12680W        W77841  40.254  37.955  13.292
12681W        W77842  10.145  42.843   0.239
12682W        W77843   3.379   4.645   1.486
12683W        W77844  32.816  21.509  11.142
12684W        W77845  37.752  37.258   0.835
12685W        W77846  16.166  30.127  13.068
12686W        W77847  40.396  30.048  10.720
12687W        W77848  44.897  18.854   0.274
12688W        W77849  11.946   6.762   2.051
12689W        W77850   2.494  31.670   2.901
12690W        W77851   4.439  27.111  10.188
12691W        W77852  32.432  28.041   0.431
12692W        W77853   9.704  16.201  12.340
12693W        W77854  38.531  16.513  10.649
12694W        W77855   0.062   7.279  13.942
12695W        W77856  14.803  20.098   1.833
12696W        W77857  38.929  23.469  11.629
12697W        W77858  12.668  29.689   3.120
12698W        W77859  31.809   8.822  10.695
12699W        W77860  37.100   2.878  11.134
12700W        W77861  37.583  44.960   4.808
12701W        W77862   4.692  25.852   3.038
12702W        W77863   4.668  15.059  13.462
12703W        W77864  35.919  33.633   0.476
12704W        W77865   6.216   4.022   3.736
12705W        W77866   1.725  27.379   4.296
12706W        W77867  38.556  18.717   2.701
12707W        W77868  16.781  15.353   0.254
12708W        W77869   9.802  19.735   3.311
12709W        W77870  28.015  26.395   4.095
12710W        W77871  31.626  28.035  11.713
12711W        W77872  26.206  12.277  10.041
12712W        W77873  19.936  43.569   9.302
12713W        W77874  13.269  31.441  14.104
12714W        W77875  34.018  37.213  11.175
12715W        W77876  22.234  32.452   4.792
12716W        W77877  42.748  33.086  14.312
12717W        W77878  11.091  15.733  13.875
12718W        W77879  30.155  24.562   0.213
12719W        W77880   5.214  26.004   3.169
12720W        W77881   2.823  21.088   4.919
12721W        W77882  36.119  29.019  10.707
12722W        W77883  43.308  11.323   2.759
12723W        W77884  32.203  33.191  12.421
12724W        W77885  43.924  10.603  13.498
12725W        W77886  11.859  23.632  10.792
12726W        W77887   0.494  41.062  14.263
12727W        W77888  21.872  29.765  11.984
12728W        W77889  44.439  44.264  10.571
12729W        W77890   9.273  11.034   1.544
12730W        W77891   8.113  13.688   4.165
12731W        W77892   9.795   6.932   4.515
12732W        W77893  25.607  40.076   4.256
12733W        W77894  22.537  13.421  12.951
12734W        W77895   9.304  12.935   5.158
12735W        W77896  26.574  18.596   1.761
12736W        W77897   6.857  38.079  12.001
12737W        W77898   7.330  11.432  13.898
12738W        W77899   4.023  23.474   3.963
12739W        W77900  16.284   3.310   5.298
12740W        W77901  39.197   8.179  13.616
12741W        W77902   4.351  37.884   1.923
12742W        W77903  34.935  11.734  13.888
12743W        W77904  38.542   4.472   4.596
12744W        W77905  11.799  20.146   3.096
12745W        W77906  10.912  13.242   1.857
12746W        W77907  14.971  11.310  14.350
12747W        W77908  40.997  24.206  10.466
12748W        W77909  21.117   2.370   2.556
12749W        W77910  14.440  37.036  14.546
12750W        W77911   4.387   7.368  11.497
12751W        W77912  21.232  20.234   4.220
12752W        W77913   9.198  25.847   1.631
12753W        W77914   8.725   1.235  14.683
12754W        W77915  22.656  10.659  14.038
12755W        W77916  23.197  11.365  13.534
12756W        W77917  35.385  25.522  13.255
12757W        W77918  18.735  28.865  13.457
12758W        W77919  41.050  39.453   2.109
12759W        W77920  40.907  33.063  10.731
12760W        W77921   6.209   0.095  10.354
12761W        W77922  36.117  22.656  11.639
12762W        W77923  35.156  31.566   1.735
12763W        W77924  44.165  32.080  14.873
12764W        W77925  37.164  30.014   4.185
12765W        W77926  31.066  44.351   1.219
12766W        W77927  44.327  31.997   1.667
12767W        W77928  11.798   4.310   2.495
12768W        W77929  12.370  36.587  10.947
12769W        W77930  42.445   8.313   4.415
12770W        W77931  29.107  11.638  12.469
12771W        W77932  43.815  10.637   0.304
12772W        W77933  19.680  19.540   0.502
12773W        W77934  15.797  29.680   4.042
12774W        W77935  37.824   1.955  12.485
12775W        W77936  17.780  22.738   2.346
12776W        W77937  44.881   4.248  13.340
12777W        W77938   7.876  13.549  13.397
12778W        W77939  32.756  32.759  13.883
12779W        W77940   0.512   8.364   2.252
12780W        W77941   6.866  42.381   3.582
12781W        W77942  30.883   1.001   4.174
12782W        W77943  21.007  30.621  12.780
12783W        W77944  27.070  30.410   1.149
12784W        W77945  44.493  17.644  13.973
12785W        W77946  38.467  38.010  10.931
12786W        W77947  41.740  30.220  14.607
12787W        W77948  41.877  30.715   5.265
12788W        W77949  41.886  37.036  12.860
12789W        W77950  38.117  35.324  10.648
12790W        W77951  43.355  23.208  11.607
12791W        W77952  13.129  37.456   1.196
12792W        W77953  32.058  41.884  14.916
12793W        W77954  13.812  18.260  12.358
12794W        W77955  44.474  20.657  11.199
12795W        W77956   3.749   7.107   3.622
12796W        W77957  20.513  33.380  11.690
12797W        W77958  28.095  32.316  12.595
12798W        W77959  10.851   8.951  10.628
12799W        W77960  39.808  11.325   2.998
12800W        W77961  38.912   2.924  13.463
12801W        W77962   6.032  44.423  12.451
12802W        W77963  23.680  18.594  11.637
12803W        W77964   0.850  36.200  14.957
12804W        W77965  15.839  31.641  14.817
12805W        W77966  23.077   5.595   1.878
12806W        W77967  28.940   7.751  12.486
12807W        W77968  39.846   7.279  10.733
12808W        W77969  44.724  44.959   0.285
12809W        W77970   0.789   6.174  10.872
12810W        W77971  44.034  28.481   3.273
12811W        W77972  10.027  24.976  13.470
12812W        W77973   4.430  20.676   4.455
12813W        W77974  10.156  33.453  14.323
12814W        W77975  11.222  28.008  10.639
12815W        W77976   9.899  23.721   4.293
12816W        W77977  21.846  40.363  13.339
12817W        W77978  14.277  39.849   0.300
12818W        W77979  36.103  34.907   0.914
12819W        W77980  28.404  30.525   0.294
12820W        W77981  20.148   9.439   3.741
12821W        W77982  21.003  22.069   9.881
12822W        W77983   2.427  30.436   1.795
12823W        W77984  29.515   4.232   4.074
12824W        W77985  35.218  33.029  13.004
12825W        W77986   6.412  36.637   2.180
12826W        W77987  35.464   7.943   3.123
12827W        W77988  32.434  33.517   4.481
12828W        W77989   6.279  36.603   3.577
12829W        W77990  31.174  42.611   1.124
12830W        W77991  42.855  35.738   0.968
12831W        W77992  25.271  31.547  10.680
12832W        W77993   2.295  18.861   3.925
12833W        W77994  21.157  34.927   2.891
12834W        W77995  44.486  33.312   3.085
12835W        W77996   8.110   4.754  14.287
12836W        W77997  26.485  34.910  11.178
12837W        W77998  16.770  17.403  10.140
12838W        W77999  37.081  28.988   4.627
12839W        W78000  44.935  31.653  13.028
12840W        W78001  40.423  17.271  11.888
12841W        W78002   6.117  30.918   0.792
12842W        W78003  33.382  39.491   3.529
12843W        W78004   6.471  13.053  14.305
12844W        W78005   5.175   3.368   1.849
12845W        W78006  40.245   5.055  11.745
12846W        W78007  27.527  12.875   1.134
12847W        W78008   7.163  11.727   2.148
12848W        W78009  19.543  15.688  14.494
12849W        W78010  27.985  43.873   1.849
12850W        W78011  34.364  41.039  14.051
12851W        W78012  40.622  25.916   4.117
12852W        W78013  41.613  31.654   3.851
12853W        W78014  25.506  21.483  12.082
12854W        W78015   5.800  35.669   2.546
12855W        W78016  44.445  34.483  14.754
12856W        W78017  36.589  37.265   2.482
12857W        W78018  24.980  13.719   2.365
12858W        W78019  23.556  30.354  11.533
12859W        W78020  17.852  25.548  11.647
12860W        W78021  20.117   2.993   4.619
12861W        W78022  18.169  35.274  14.961
12862W        W78023   7.406  21.627   0.267
12863W        W78024  39.459  13.963   1.261
12864W        W78025   6.749   2.200  10.828
12865W        W78026  35.837  14.053  14.022
12866W        W78027  28.490  21.905   0.577
12867W        W78028  10.029  44.058  11.228
12868W        W78029  40.517  27.238   1.845
12869W        W78030   1.900  43.576  11.966
12870W        W78031  42.340  18.816  10.738
12871W        W78032  29.045  38.394   4.350
12872W        W78033  28.580   6.493   3.342
12873W        W78034  36.549  38.776  14.529
12874W        W78035   6.281  30.589  11.913
12875W        W78036  31.119  30.597  10.921
12876W        W78037  37.852   7.688   3.953
12877W        W78038  28.373  39.826  10.296
12878W        W78039   2.297   9.746  13.508
12879W        W78040   5.750   0.381  12.384
12880W        W78041  14.893   1.740  10.701
12881W        W78042  42.002  43.231  12.579
12882W        W78043   4.633   7.646  10.623
12883W        W78044  44.123  33.112   4.568
12884W        W78045  35.944   5.368  14.775
12885W        W78046  16.756   7.477  11.285
12886W        W78047   4.951  18.300  10.699
12887W        W78048  10.274   3.762   0.454
12888W        W78049  44.254  21.035  11.581
12889W        W78050  17.165   6.393  11.528
12890W        W78051  22.104  44.452  10.687
12891W        W78052  24.726  23.521  13.611
12892W        W78053  40.917  39.127   3.804
12893W        W78054  11.647  31.855  14.436
12894W        W78055  39.970   8.401   1.007
12895W        W78056  40.478  27.970   3.602
12896W        W78057  28.331   8.813  11.132
12897W        W78058  25.572  31.673   1.375
12898W        W78059  12.667  28.912   3.574
12899W        W78060  35.984   9.502   1.355
12900W        W78061  31.611  10.625   1.847
12901W        W78062   6.365  33.717   5.338
12902W        W78063  18.734  25.274   2.689
12903W        W78064   5.523  31.967  11.088
12904W        W78065  30.247  21.642  14.358
12905W        W78066  13.833  40.218  13.212
12906W        W78067   1.006  36.397  12.110
12907W        W78068  34.754  31.594  14.003
12908W        W78069   4.311  37.840   1.406
12909W        W78070   6.056  23.128   4.517
12910W        W78071  29.327  17.239   0.320
12911W        W78072  33.526  42.730  11.997
12912W        W78073  17.427   8.606   0.441
12913W        W78074  30.017   8.185   3.145
12914W        W78075  18.147  44.668   3.943
12915W        W78076  19.306  11.657   4.958
12916W        W78077  28.659  33.430  12.852
12917W        W78078  24.989  10.286  11.055
12918W        W78079   8.705  38.009  12.627
12919W        W78080  22.579  36.395   3.221
12920W        W78081  27.036  40.974  13.598
12921W        W78082  38.512  34.519   0.430
12922W        W78083   4.623  18.883  13.692
12923W        W78084  11.294  36.527  10.331
12924W        W78085  17.334  38.362  10.640
12925W        W78086  11.686   7.231  14.785
12926W        W78087  17.106  24.414   4.751
12927W        W78088  30.258  14.802   1.181
12928W        W78089   9.764  41.565   0.695
12929W        W78090  40.544  34.962  12.565
12930W        W78091  16.736  39.024   2.594
12931W        W78092   4.616  32.115   4.931
12932W        W78093  15.713  23.062  13.299
12933W        W78094  17.350  20.047   2.537
12934W        W78095  29.653  40.434   1.475
12935W        W78096  38.883  11.233   3.601
12936W        W78097  24.589  34.065   0.511
12937W        W78098  10.346  14.019   5.127
12938W        W78099  44.355  41.962  14.277
12939W        W78100  34.273  14.259   0.701
12940W        W78101  41.888  44.713  12.528
12941W        W78102  26.873  13.409   3.170
12942W        W78103  34.263  35.091  11.927
12943W        W78104   6.177  36.179   1.314
12944W        W78105  38.770   2.979   1.723
12945W        W78106  44.749   8.979   2.243
12946W        W78107   9.110   9.370   2.786
12947W        W78108  19.984   9.446   2.673
12948W        W78109   7.749  18.225  14.511
12949W        W78110  33.339  18.976   1.772
12950W        W78111  12.571  25.521   0.754
12951W        W78112  28.129   4.236   0.860
12952W        W78113  32.467  33.051  11.136
12953W        W78114  16.372   9.560   4.123
12954W        W78115   1.236   9.948  11.032
12955W        W78116  23.707  39.580  12.450
12956W        W78117   9.593   8.242   2.683
12957W        W78118  12.179   4.872  13.019
12958W        W78119   5.674  24.323   5.072
12959W        W78120  31.572  42.745  10.238
12960W        W78121  40.536  26.531   3.323
12961W        W78122  30.886  17.319   1.267
12962W        W78123  34.207  12.351  13.447
12963W        W78124  35.822   9.211  10.716
12964W        W78125  34.466   1.077   3.695
12965W        W78126  42.344  20.920  12.132
12966W        W78127  31.821  34.373  12.013
12967W        W78128   1.395   1.358  14.987
12968W        W78129   0.263  39.942  14.683
12969W        W78130  34.094  19.655   4.491
12970W        W78131  31.733  27.529  12.971
12971W        W78132  22.164  11.676  12.831
12972W        W78133  43.111  24.482   3.278
12973W        W78134  19.602  10.283   1.120
12974W        W78135  19.719   9.198   3.595
12975W        W78136   9.566  29.362  13.848
12976W        W78137  13.285   5.439  13.288
12977W        W78138  25.784  43.276   0.882
12978W        W78139   9.822  36.216  14.370
12979W        W78140  21.796  38.956   2.854
12980W        W78141  30.432  42.340  12.339
12981W        W78142   6.409  30.722  14.301
12982W        W78143   6.180  10.386  14.912
12983W        W78144  26.019  40.464   2.246
12984W        W78145  14.756  36.883  12.175
12985W        W78146  34.038  43.766  13.568
12986W        W78147   7.559  43.764   0.536
12987W        W78148  37.845  16.243  13.065
12988W        W78149  42.383  25.845   3.307
12989W        W78150  17.442   3.421   2.290
12990W        W78151  13.601  10.104  13.570
12991W        W78152  16.434  41.570   4.618
12992W        W78153  26.281  10.530  11.094
12993W        W78154  23.470  39.115  12.573
12994W        W78155  40.337  36.788  11.120
12995W        W78156  17.742  29.039   3.581
12996W        W78157  32.718   1.739  10.683
12997W        W78158  39.019  40.418  11.683
12998W        W78159  29.878  39.394  12.731
12999W        W78160  28.334  26.633   1.929
13000W        W78161  44.961  24.793   3.456
13001W        W78162  15.211  24.107  10.547
13002W        W78163  38.494   8.393   2.428
13003W        W78164   5.464  39.908  12.080
13004W        W78165  37.355  42.940   0.424
13005W        W78166  11.557  13.364  14.671
13006W        W78167  12.718  43.072  11.641
13007W        W78168  38.845   1.961   4.059
13008W        W78169   1.422  23.713  14.067
13009W        W78170  29.386  32.474  13.342
13010W        W78171  36.712  39.433   0.936
13011W        W78172  32.025  16.539   4.293
13012W        W78173  18.712  30.601  12.838
13013W        W78174   5.395   8.210   1.819
13014W        W78175   7.389  33.109   0.824
13015W        W78176   8.859   2.110  10.762
13016W        W78177  18.114  33.366  13.406
13017W        W78178  40.404  15.623   5.057
13018W        W78179   4.158  39.029   4.172
13019W        W78180  39.078  42.935  11.119
13020W        W78181  41.429  18.788  11.703
13021W        W78182  33.850  12.516   2.244
13022W        W78183  42.507  32.669   0.251
13023W        W78184   4.127  44.858  12.346
13024W        W78185  37.909   9.821  11.894
13025W        W78186  10.717  15.836  14.456
13026W        W78187  29.053  40.349   0.969
13027W        W78188  29.106  18.357  13.705
13028W        W78189  10.731  16.926  11.070
13029W        W78190  44.257  19.673  11.076
13030W        W78191   0.331  28.177  13.887
13031W        W78192  34.636  30.960  12.830
13032W        W78193  30.194  36.986  11.084
13033W        W78194   6.886  15.219   4.926
13034W        W78195  31.487  33.183   0.796
13035W        W78196  15.480   3.103   3.277
13036W        W78197  31.371  21.888   5.088
13037W        W78198  28.930  34.263  12.926
13038W        W78199  35.083  26.146  13.411
13039W        W78200  16.653  31.037   1.125
13040W        W78201  28.233  21.712  13.004
13041W        W78202  38.078  38.866  13.479
13042W        W78203  37.065  42.503   2.225
13043W        W78204  37.437  30.385   1.950
13044W        W78205   2.073  40.601  13.018
13045W        W78206  34.982  27.597  14.521
13046W        W78207  27.874  40.802   4.056
13047W        W78208   0.822  14.764  13.448
13048W        W78209  34.383  29.520   3.708
13049W        W78210  23.240  16.329  13.361
13050W        W78211  34.532  29.084  11.757
13051W        W78212  27.392  32.023  12.841
13052W        W78213  25.970  29.097  14.996
13053W        W78214  39.323   5.847  12.366
13054W        W78215  24.710  34.139   3.671
13055W        W78216   5.920  25.998  12.440
13056W        W78217  43.009  11.646  10.560
13057W        W78218  22.764  33.860  13.048
13058W        W78219  14.772  22.572   2.845
13059W        W78220  37.967  44.943  11.569
13060W        W78221   9.130  12.553  13.936
13061W        W78222   3.729  23.253  14.526
13062W        W78223  21.362  36.803  11.199
13063W        W78224  23.476   7.232   0.520
13064W        W78225  28.682   5.983   2.454
13065W        W78226  26.552  43.852  14.726
13066W        W78227  13.324  35.561  14.647
13067W        W78228  40.751  16.140  10.609
13068W        W78229   9.217  32.872  12.480
13069W        W78230  16.100  38.720  14.971
13070W        W78231  36.953  37.693   0.737
13071W        W78232  38.569  33.899  14.432
13072W        W78233  12.636  19.708   4.276
13073W        W78234  20.279  17.725  12.524
13074W        W78235  21.473   8.635   0.289
13075W        W78236  22.335  31.343  12.845
13076W        W78237  34.444  40.957   0.931
13077W        W78238   4.894   6.030  13.022
13078W        W78239   1.408  34.455   3.252
13079W        W78240   3.936  14.828  12.874
13080W        W78241  37.011  27.300  12.098
13081W        W78242  17.320   7.704   2.336
13082W        W78243  39.018   3.425  13.483
13083W        W78244  35.400  12.308  12.340
13084W        W78245  14.576  23.549  12.695
13085W        W78246  18.889  31.678   4.103
13086W        W78247  33.204  43.489   4.879
13087W        W78248  38.479  23.986   0.025
13088W        W78249  35.291   0.709   1.326
13089W        W78250  40.629   5.237   1.399
13090W        W78251   3.616   5.862  14.857
13091W        W78252  41.328  38.980  11.638
13092W        W78253  31.255  43.363  14.962
13093W        W78254   1.731  40.789  12.694
13094W        W78255  10.756   5.061   0.260
13095W        W78256   2.307  20.558   0.949
13096W        W78257  29.871  44.352  12.348
13097W        W78258  27.709  39.445  12.950
13098W        W78259  29.146  16.325  12.462
13099W        W78260  10.369  44.831   2.265
13100W        W78261  24.406   4.884  13.229
13101W        W78262  11.638  40.777   3.727
13102W        W78263   8.659  28.485   3.285
13103W        W78264  42.883  41.739   4.733
13104W        W78265  11.895   9.801  14.930
13105W        W78266  13.898  11.227  12.043
13106W        W78267  19.585   7.231  12.811
13107W        W78268  40.505  32.948  13.350
13108W        W78269  40.252  10.772   3.491
13109W        W78270  16.296  38.004  11.125
13110W        W78271  21.025  38.062   1.785
13111W        W78272  30.920  38.573  13.891
13112W        W78273  31.805  39.713   3.582
13113W        W78274  24.976  42.852   0.001
13114W        W78275  44.697  26.562   3.314
13115W        W78276   4.904  15.543   3.692
13116W        W78277  17.133  31.350  14.415
13117W        W78278   4.702  41.984   3.224
13118W        W78279  25.088  40.126  12.313
13119W        W78280  12.477  30.731  11.539
13120W        W78281  15.231  19.052   1.708
13121W        W78282   6.465  32.124   3.211
13122W        W78283  10.557  18.940  11.022
13123W        W78284  39.343  29.957   2.274
13124W        W78285  23.568  43.257  14.165
13125W        W78286   1.748  32.903   0.451
13126W        W78287  35.387  11.198   0.865
13127W        W78288  30.944  29.867   0.519
13128W        W78289  16.214  17.715  13.564
13129W        W78290  29.446  22.225  11.061
13130W        W78291  12.206   4.470   3.341
13131W        W78292  16.773   7.468  13.495
13132W        W78293   8.108  21.436  14.409
13133W        W78294  11.696  21.079   4.599
13134W        W78295  31.387  14.719  13.903
13135W        W78296  38.671  26.087  10.225
13136W        W78297  20.586  11.631  14.585
13137W        W78298  34.759  18.010  13.096
13138W        W78299  42.003   8.779  13.512
13139W        W78300  19.055  23.654  13.832
13140W        W78301  11.935  37.237   2.674
13141W        W78302   2.716  27.427  14.773
13142W        W78303  30.514  10.053  13.722
13143W        W78304  34.714  42.489   0.113
13144W        W78305  27.131  17.526  11.170
13145W        W78306  10.558   3.745   2.762
13146W        W78307  15.460  24.586   3.053
13147W        W78308  35.475   2.464  11.905
13148W        W78309  37.802  24.948  11.459
13149W        W78310   3.953  42.629   0.906
13150W        W78311   2.534  36.809   3.803
13151W        W78312  27.258  39.931  11.175
13152W        W78313   9.588  33.336  12.502
13153W        W78314  27.811   4.511  12.126
13154W        W78315   8.946  18.217   0.860
13155W        W78316  39.939   1.887  14.567
13156W        W78317  32.649  23.603  12.029
13157W        W78318   5.755   4.874   2.119
13158W        W78319   0.675  23.223  11.597
13159W        W78320   1.724   6.448  11.003
13160W        W78321  21.013  22.535   1.809
13161W        W78322  10.783  29.636   3.336
13162W        W78323  28.660  18.460  11.152
13163W        W78324  39.208  28.100   3.333
13164W        W78325  33.687   2.238   0.323
13165W        W78326   3.333  15.242  10.944
13166W        W78327   9.060  10.351  13.961
13167W        W78328  12.942  28.681   0.009
13168W        W78329  30.162  27.465   3.207
13169W        W78330  30.409  23.685   1.745
13170W        W78331  10.471   7.103  11.672
13171W        W78332  31.190  11.388  12.031
13172W        W78333  12.386  43.718   3.790
13173W        W78334  15.382   6.644  13.053
13174W        W78335  31.413   7.968  13.584
13175W        W78336  28.630  15.685   4.625
13176W        W78337   9.843  39.998   0.913
13177W        W78338  42.360  18.086   1.351
13178W        W78339  32.117   1.343   1.317
13179W        W78340  35.210  18.303  13.063
13180W        W78341  13.515   4.783   0.279
13181W        W78342   2.352  32.555  13.864
13182W        W78343   9.868  36.566  13.484
13183W        W78344  27.041  20.514   4.178
13184W        W78345  15.628  19.941  14.408
13185W        W78346  40.568   5.122   0.855
13186W        W78347   3.357  10.772  14.794
13187W        W78348  13.290  18.551  13.817
13188W        W78349   8.322  38.996   4.475
13189W        W78350  23.193  32.554  13.368
13190W        W78351  42.554  40.826  12.861
13191W        W78352  40.603   8.657   1.809
13192W        W78353  12.736  39.827  13.797
13193W        W78354  35.067  35.854   2.819
13194W        W78355  20.661  11.320  14.175
13195W        W78356  42.027   4.354  13.037
13196W        W78357  17.836  23.254   2.280
13197W        W78358  30.374  44.870   1.380
13198W        W78359  17.680  40.061  11.769
13199W        W78360  33.934  27.785  10.912
13200W        W78361  12.965  29.066   4.994
13201W        W78362  35.959   5.245   1.255
13202W        W78363  38.506   3.531   0.569
13203W        W78364  22.589  33.339  14.344
13204W        W78365  22.727  38.859  13.609
13205W        W78366  18.390  41.980  14.835
13206W        W78367  16.245   8.366   3.269
13207W        W78368   1.313   6.371  13.582
13208W        W78369  14.709  33.040   2.420
13209W        W78370   4.275  22.615   0.953
13210W        W78371  20.230  32.024   5.073
13211W        W78372  25.184  35.056  10.519
13212W        W78373  14.620  39.592  13.008
13213W        W78374  11.732  33.839  12.680
13214W        W78375  19.636  31.467   2.332
13215W        W78376  33.467  44.928  12.771
13216W        W78377  10.823  36.496  11.612
13217W        W78378   9.333  41.244  13.096
13218W        W78379  16.750   7.160   2.713
13219W        W78380  36.814  44.946  14.033
13220W        W78381  28.020  19.678  14.410
13221W        W78382  26.251  13.696   3.818
13222W        W78383   6.599  30.946  14.983
13223W        W78384   2.657  11.929  14.927
13224W        W78385  30.948   0.048  13.912
13225W        W78386  28.055  37.015   2.404
13226W        W78387  43.024  13.366   2.292
13227W        W78388   7.686  26.486  12.452
13228W        W78389  16.743  14.028  13.802
13229W        W78390  38.867  35.071  10.792
13230W        W78391  30.490  14.117  10.570
13231W        W78392  18.017  15.318   2.699
13232W        W78393  36.417  24.265  14.270
13233W        W78394  10.797   6.861  11.969
13234W        W78395  23.747  34.295   3.774
13235W        W78396   7.672  41.691   2.197
13236W        W78397   6.314  14.900   3.909
13237W        W78398   9.509  26.447  11.090
13238W        W78399  41.861  31.609  11.385
13239W        W78400  11.494  34.560  14.371
13240W        W78401  36.614  40.988  13.822
13241W        W78402  22.350  44.960  13.409
13242W        W78403   9.264  15.339   2.873
13243W        W78404  11.575  25.116  13.359
13244W        W78405  40.197  18.483  13.925
13245W        W78406  40.670  44.006  14.983
13246W        W78407  25.731  14.613   1.943
13247W        W78408  27.095  29.527   2.868
13248W        W78409  38.595  43.014   0.364
13249W        W78410   6.460  39.328  14.433
13250W        W78411  20.068  20.918   3.523
13251W        W78412  14.321  42.820   3.399
13252W        W78413  20.608   3.846   2.293
13253W        W78414  19.047  35.165  12.463
13254W        W78415  39.329  24.761  12.060
13255W        W78416  11.752  10.711  14.471
13256W        W78417  26.023   2.613  10.674
13257W        W78418  16.770   8.786   4.164
13258W        W78419  22.795   0.296  11.179
13259W        W78420  23.535  10.576   1.505
13260W        W78421  11.141   3.886  11.090
13261W        W78422  30.951   2.911  13.868
13262W        W78423  43.444   8.720   3.205
13263W        W78424  19.517  44.074   1.120
13264W        W78425  22.623   0.947   1.877
13265W        W78426  34.664  25.082  12.504
13266W        W78427  42.491   7.394   2.176
13267W        W78428   3.173   7.904  11.420
13268W        W78429  44.720   6.898  14.017
13269W        W78430  29.439  34.898   1.336
13270W        W78431  16.247  13.125  10.673
13271W        W78432  35.585  36.641  13.490
13272W        W78433  19.476  34.961  14.713
13273W        W78434  17.124  40.559  14.838
13274W        W78435  31.227  27.505   3.057
13275W        W78436  41.461  24.188   4.432
13276W        W78437  24.008  35.433  14.054
13277W        W78438  30.165  34.850  14.405
13278W        W78439   1.884  42.090   0.023
13279W        W78440  18.028  26.130   3.642
13280W        W78441   0.048  41.872  13.792
13281W        W78442   1.967   3.699  12.905
13282W        W78443  16.136  13.252   3.649
13283W        W78444  18.603  23.908   0.925
13284W        W78445  44.814  43.526  14.954
13285W        W78446  11.707  16.918  11.090
13286W        W78447  13.362  14.627   3.088
13287W        W78448  26.255   4.613   1.066
13288W        W78449   5.222  20.196  12.593
13289W        W78450  33.178  12.423  13.468
13290W        W78451  10.747  35.062  12.105
13291W        W78452  10.217  21.924   0.396
13292W        W78453   2.424   0.185  11.478
13293W        W78454  18.618  41.932  14.376
13294W        W78455  38.971  36.892  12.165
13295W        W78456  17.624  25.616   4.947
13296W        W78457  27.810  40.586  11.079
13297W        W78458   6.827  17.117  11.448
13298W        W78459  30.678  23.498  14.441
13299W        W78460  28.874  29.459  14.751
13300W        W78461  17.711  14.150  14.066
13301W        W78462  11.636  43.608  13.257
13302W        W78463  19.751  14.179   3.686
13303W        W78464  33.911  14.006  12.876
13304W        W78465  15.734   7.397   1.219
13305W        W78466   4.014  15.282  11.579
13306W        W78467  10.267   3.196  10.906
13307W        W78468  15.105   7.768   1.784
13308W        W78469  39.995  38.061  12.056
13309W        W78470  21.199  11.183   2.679
13310W        W78471  42.975  30.656  14.313
13311W        W78472  19.791  27.717  10.694
13312W        W78473  30.540  35.868   0.797
13313W        W78474   9.400  26.263   4.468
13314W        W78475  14.136  31.826   5.092
13315W        W78476  16.780   5.114   2.766
13316W        W78477  42.333  11.738  10.016
13317W        W78478  15.751  28.923  11.946
13318W        W78479  41.060  44.438  11.070
13319W        W78480  12.321   4.858   0.644
13320W        W78481  42.470   6.341   0.311
13321W        W78482  39.078   9.625  14.143
13322W        W78483  20.692   3.241  14.457
13323W        W78484  36.145  30.228   3.167
13324W        W78485  44.268  36.595  12.968
13325W        W78486  34.158   5.209   3.658
13326W        W78487   4.749  22.549   4.407
13327W        W78488   8.128  43.935   1.234
13328W        W78489  37.851  36.461  13.038
13329W        W78490   9.360  21.628   3.560
13330W        W78491  18.779  34.027  11.532
13331W        W78492  42.693   6.235   1.854
13332W        W78493  14.313  40.066   1.463
13333W        W78494  14.280  44.031  12.793
13334W        W78495  12.914  16.684  14.521
13335W        W78496  12.302  26.449  12.486
13336W        W78497  40.404  38.546   1.511
13337W        W78498  14.681  38.080   3.627
13338W        W78499  26.064  31.547  14.881
13339W        W78500   8.632   8.777  14.713
13340W        W78501   2.533   3.372  14.381
13341W        W78502  41.112  13.306  10.674
13342W        W78503  43.276  24.658   4.611
13343W        W78504  11.746  16.548  14.059
13344W        W78505  37.078   8.860  13.513
13345W        W78506  14.820  36.384   4.464
13346W        W78507  41.799  12.171   3.347
13347W        W78508  34.655   5.859   2.153
13348W        W78509   8.108   7.474  10.702
13349W        W78510  30.955  12.761   0.290
13350W        W78511  10.225  40.209   4.733
13351W        W78512  31.875  13.366  14.157
13352W        W78513  28.084  29.195   0.715
13353W        W78514  43.426   3.943   4.101
13354W        W78515  22.415  41.411  11.010
13355W        W78516  23.413  21.231   2.197
13356W        W78517   9.099  39.315   1.974
13357W        W78518  12.649  11.545  10.706
13358W        W78519   4.941  41.955   4.093
13359W        W78520  30.573  40.486  12.468
13360W        W78521  44.550  28.857   4.058
13361W        W78522  17.009  20.827  14.757
13362W        W78523  16.690  19.034  13.081
13363W        W78524  36.946  40.243   4.434
13364W        W78525  40.848   7.772   4.279
13365W        W78526  42.094  15.811  11.770
13366W        W78527   8.644  13.859  11.974
13367W        W78528  13.397  18.173  14.319
13368W        W78529  40.732  11.722   0.943
13369W        W78530  44.676  36.913  13.080
13370W        W78531   6.642  23.043  12.805
13371W        W78532  41.473   8.581   5.176
13372W        W78533  36.461  25.005   0.216
13373W        W78534  34.076  14.225  11.532
13374W        W78535  40.941  31.149  11.606
13375W        W78536  40.347  43.562   0.736
13376W        W78537  36.806  17.305  13.536
13377W        W78538  32.944  21.252  14.243
13378W        W78539  37.317  20.533  13.896
13379W        W78540  42.268   1.020  13.888
13380W        W78541   6.280  28.608   0.541
13381W        W78542  31.467  21.166  13.931
13382W        W78543  23.997  44.953   0.333
13383W        W78544  26.166   0.121   3.334
13384W        W78545  24.057   2.694   4.548
13385W        W78546   1.304  24.003  13.433
13386W        W78547  23.124  24.771   2.367
13387W        W78548  37.506  15.232  14.791
13388W        W78549   4.474   8.703   0.839
13389W        W78550  29.580   4.700   4.273
13390W        W78551  34.746  12.230   2.258
13391W        W78552  40.915  14.213   4.925
13392W        W78553  15.505  19.109  14.890
13393W        W78554  20.184  26.660  12.056
13394W        W78555  34.846  31.088   3.730
13395W        W78556  18.798  12.779  11.274
13396W        W78557   0.016  39.239   0.453
13397W        W78558  36.599   5.438   0.844
13398W        W78559   1.474  20.524   3.662
13399W        W78560  18.550  26.698  11.656
13400W        W78561  27.640  20.410   3.771
13401W        W78562  29.842  21.588  12.429
13402W        W78563  32.599  10.648   4.223
13403W        W78564  38.221  31.159  12.564
13404W        W78565   6.891  31.028   0.403
13405W        W78566  16.575  35.594   1.497
13406W        W78567  26.639  18.174   4.632
13407W        W78568  32.332  15.774  11.953
13408W        W78569  37.302  28.211   0.101
13409W        W78570  12.792   1.275  13.433
13410W        W78571   1.275  13.640  13.026
13411W        W78572  40.126   5.811   4.757
13412W        W78573   1.411  29.603  14.490
13413W        W78574  30.936  31.213   2.288
13414W        W78575  27.161  17.135   0.830
13415W        W78576  17.087  25.807  11.267
13416W        W78577  14.823  24.229   2.275
13417W        W78578  11.885  31.449  12.032
13418W        W78579  25.818  10.727  11.205
13419W        W78580  17.268  31.575  14.974
13420W        W78581   1.236  16.002   3.374
13421W        W78582   0.451  20.088  10.400
13422W        W78583  30.920  15.875  11.571
13423W        W78584  24.291  38.111   0.562
13424W        W78585  12.028   5.673  11.551
13425W        W78586   9.363  34.748  12.402
13426W        W78587  29.043  44.380   0.184
13427W        W78588  43.237   1.008   3.833
13428W        W78589  34.384  24.917  11.024
13429W        W78590  10.399  17.126  14.009
13430W        W78591   9.708  15.117   4.684
13431W        W78592  42.278  12.197   3.548
13432W        W78593  37.284  33.491  14.369
13433W        W78594  42.101   8.622   3.192
13434W        W78595  38.442  17.554   3.139
13435W        W78596  36.332  18.121   2.882
13436W        W78597  12.535   3.781   0.333
13437W        W78598   4.808  10.567  14.932
13438W        W78599  43.951  38.102   1.386
13439W        W78600  14.913  26.972   3.445
13440W        W78601  34.078   9.679   0.517
13441W        W78602   6.653  41.524   3.865
13442W        W78603  26.172   4.381  13.801
13443W        W78604  34.051  12.748  14.366
13444W        W78605  25.199  44.906   0.792
13445W        W78606  12.147  30.792   0.692
13446W        W78607   5.190  34.055  11.496
13447W        W78608  36.405  19.644   4.939
13448W        W78609  13.304  25.434  10.748
13449W        W78610  11.648   9.349  12.703
13450W        W78611  36.322  22.009  12.379
13451W        W78612  23.947  28.306   4.744
13452W        W78613  14.558  36.977  13.066
13453W        W78614  34.514  41.719   0.328
13454W        W78615  30.117  14.331   4.368
13455W        W78616   5.237  25.843  14.110
13456W        W78617  24.845  18.169   2.275
13457W        W78618  10.101  29.793  11.509
13458W        W78619  33.039  25.623   3.266
13459W        W78620  16.061  29.022  13.977
13460W        W78621  42.868  13.926  12.934
13461W        W78622  22.598  16.780  13.968
13462W        W78623  32.403   1.226   1.896
13463W        W78624  23.286  28.488  12.841
13464W        W78625  30.475  37.393   3.619
13465W        W78626   7.347   9.394   3.326
13466W        W78627  39.896  35.923   2.639
13467W        W78628  24.086  30.092  12.393
13468W        W78629   4.219  35.864  14.290
13469W        W78630  29.844  11.242  12.664
13470W        W78631  18.278  18.791   3.970
13471W        W78632  27.058   9.264   3.350
13472W        W78633   0.220  12.204   1.779
13473W        W78634  30.663   3.271  13.496
13474W        W78635  37.083   0.045  12.615
13475W        W78636  36.055   0.827  13.380
13476W        W78637  16.554  20.050  14.464
13477W        W78638  22.883  25.551  12.371
13478W        W78639  16.053  20.689  14.977
13479W        W78640   8.889  27.032   5.289
13480W        W78641  26.558  38.674  12.626
13481W        W78642  40.758   3.503   2.819
13482W        W78643   1.163   0.851   4.972
13483W        W78644  17.817  42.592  13.499
13484W        W78645  10.640  30.690  13.095
13485W        W78646  39.792  44.001   1.911
13486W        W78647  34.830  19.594  11.619
13487W        W78648  41.255   9.003   2.782
13488W        W78649   9.751   5.443  12.107
13489W        W78650  17.007  12.662  12.996
13490W        W78651  25.010   7.814  13.580
13491W        W78652   5.858  32.965  12.482
13492W        W78653  10.622   1.498  12.956
13493W        W78654  39.802  10.833   2.848
13494W        W78655  12.960  21.110  13.265
13495W        W78656  41.939  43.750  14.918
13496W        W78657  38.952  11.152  14.825
13497W        W78658   4.337  43.448   3.755
13498W        W78659  10.434   7.125  10.899
13499W        W78660   3.277  43.791  12.087
13500W        W78661  16.704  37.174   2.351
13501W        W78662  19.106  31.600  13.980
13502W        W78663  31.634  11.647   1.865
13503W        W78664   6.171  31.979  13.774
13504W        W78665   5.394  20.872   4.617
13505W        W78666  29.129  37.741   3.726
13506W        W78667  28.690  34.937   4.485
13507W        W78668   7.789   6.879  13.740
13508W        W78669   0.197  26.942  14.331
13509W        W78670  16.399  16.803   0.941
13510W        W78671  41.012   2.906   4.494
13511W        W78672  32.232  43.974   3.786
13512W        W78673  22.513  33.984  13.881
13513W        W78674  12.154  22.835  11.156
13514W        W78675   3.492  41.310  11.124
13515W        W78676  22.987  28.351   1.720
13516W        W78677  27.066  18.652   4.037
13517W        W78678   9.418   1.957  14.334
13518W        W78679   0.938  10.822   0.975
13519W        W78680  36.266  36.991   0.758
13520W        W78681  19.458  22.131   2.374
13521W        W78682   3.807  38.466  14.305
13522W        W78683  31.931  40.428   4.628
13523W        W78684  23.829  12.753   2.817
13524W        W78685  34.387  35.924  14.957
13525W        W78686  31.205   9.096  11.944
13526W        W78687  34.324  31.119  12.400
13527W        W78688  19.028  35.819  14.668
13528W        W78689   8.845   1.032  13.700
13529W        W78690  19.787   1.775  13.802
13530W        W78691   5.915  34.914  12.446
13531W        W78692  15.044  10.534   1.595
13532W        W78693  26.379   0.496  13.127
13533W        W78694  42.913   9.632   4.868
13534W        W78695   3.723  42.757   1.844
13535W        W78696  41.508  19.633   4.835
13536W        W78697  38.887   7.013   1.365
13537W        W78698  16.858  34.484  14.859
13538W        W78699  36.798  42.044   2.358
13539W        W78700  13.884  27.111  10.936
13540W        W78701  31.563  19.275   4.515
13541W        W78702  15.088  44.071  14.384
13542W        W78703  27.664  19.554   0.279
13543W        W78704  25.285   2.450   0.431
13544W        W78705   0.163  40.494  11.065
13545W        W78706  42.815  27.648  13.838
13546W        W78707   9.096  28.138  12.487
13547W        W78708  33.821   3.399   2.181
13548W        W78709  22.449  43.973   1.708
13549W        W78710   5.781  42.065  11.611
13550W        W78711  36.832  26.950   4.012
13551W        W78712  35.058  43.448  10.795
13552W        W78713  16.378  25.654   4.319
13553W        W78714   0.002  17.586  13.835
13554W        W78715  31.309  12.629  13.138
13555W        W78716  43.025   5.674  13.455
13556W        W78717  31.596  24.930  14.546
13557W        W78718  12.135   6.428   0.402
13558W        W78719  28.019  41.864  13.472
13559W        W78720  31.172  28.516   0.916
13560W        W78721   6.846   6.270  10.778
13561W        W78722  15.311  18.452  11.005
13562W        W78723  21.461  26.609  13.873
13563W        W78724  14.145  13.393  14.408
13564W        W78725  21.675   8.075   2.173
13565W        W78726   4.337  36.987  14.708
13566W        W78727   7.951  24.417   4.222
13567W        W78728   7.934  29.217  10.459
13568W        W78729  15.850  18.601   2.348
13569W        W78730  24.136   3.721  12.989
13570W        W78731  42.395  29.899   0.900
13571W        W78732  33.077   1.413   1.218
13572W        W78733  44.464   8.491  11.968
13573W        W78734  25.296  11.345   0.453
13574W        W78735  17.023  28.379   1.272
13575W        W78736  20.802   4.027   2.738
13576W        W78737  16.664  20.269  10.217
13577W        W78738  11.324  41.526   2.237
13578W        W78739  42.414  26.232  12.514
13579W        W78740   0.389  15.205  12.136
13580W        W78741  41.289   5.051   4.549
13581W        W78742   7.169  29.400   1.446
13582W        W78743  38.026  33.654   0.622
13583W        W78744  22.994  31.630  13.919
13584W        W78745  34.981  29.575   4.346
13585W        W78746  22.771  25.421  13.283
13586W        W78747  20.043   0.843   1.800
13587W        W78748   8.171  37.089  13.689
13588W        W78749   6.651  33.617  13.837
13589W        W78750   5.016  10.226   4.160
13590W        W78751  14.787  37.061   0.515
13591W        W78752  43.003  25.704  12.029
13592W        W78753  16.684  44.832   1.747
13593W        W78754   5.387   6.435   3.639
13594W        W78755  16.570  11.679  14.244
13595W        W78756  16.408  33.633  11.887
13596W        W78757  12.956   6.464   0.883
13597W        W78758  20.275  33.393   4.136
13598W        W78759  21.549  27.752  14.055
13599W        W78760  15.336  15.703  13.401
13600W        W78761   0.803  31.589   3.365
13601W        W78762   1.921  31.403   4.691
13602W        W78763   4.751   7.246   1.538
13603W        W78764  19.680  34.048   0.279
13604W        W78765  43.656  29.506   0.554
13605W        W78766   2.164  12.088  14.359
13606W        W78767  26.982  10.023   3.654
13607W        W78768  42.805  27.518  13.324
13608W        W78769  19.226  37.164  12.509
13609W        W78770  43.489  17.533   0.118
13610W        W78771  29.091  31.945  10.657
13611W        W78772  17.724  44.113  13.349
13612W        W78773  16.736  14.337   1.283
13613W        W78774  41.345  40.263  12.541
13614W        W78775   3.978  35.743  10.769
13615W        W78776  36.815   1.710   0.295
13616W        W78777  42.889  39.777  12.024
13617W        W78778   2.219  32.941  11.629
13618W        W78779  38.455  10.290  14.406
13619W        W78780  10.504  13.779  12.327
13620W        W78781  37.372   8.423  13.319
13621W        W78782  41.706  22.686   4.590
13622W        W78783  14.389   8.755  14.918
13623W        W78784  22.487   2.335  10.634
13624W        W78785  33.739  40.939   0.224
13625W        W78786   0.467   1.688   3.163
13626W        W78787  33.397  36.573   1.653
13627W        W78788   4.365   4.466  12.962
13628W        W78789  30.323  36.557  11.308
13629W        W78790  24.941  36.906  10.252
13630W        W78791  15.219   3.381  13.116
13631W        W78792  37.471  18.304   1.796
13632W        W78793  13.963  16.068  13.883
13633W        W78794  33.918  30.668   3.302
13634W        W78795  13.106  29.668  10.781
13635W        W78796  29.464  40.892   9.767
13636W        W78797  35.362  42.601  10.990
13637W        W78798  41.878  21.730   0.444
13638W        W78799  30.355  17.561   0.935
13639W        W78800   4.268  43.413   4.603
13640W        W78801  22.107  39.166   5.053
13641W        W78802  43.980   9.671   0.406
13642W        W78803  26.683   9.218  11.515
13643W        W78804   6.915   3.165  11.945
13644W        W78805  26.496  34.165   0.582
13645W        W78806  24.561  31.175   3.572
13646W        W78807   7.597  15.631  10.156
13647W        W78808  24.474  22.674  12.927
13648W        W78809  26.221  37.825  12.575
13649W        W78810  27.980  34.550   4.569
13650W        W78811  27.993  20.210  14.481
13651W        W78812  44.793   4.687   1.789
13652W        W78813  21.250  14.577   5.381
13653W        W78814  21.984  33.179   0.389
13654W        W78815   4.423  31.649  11.809
13655W        W78816  29.881   9.441  10.664
13656W        W78817  28.984   7.566  12.010
13657W        W78818  43.333  33.626   4.136
13658W        W78819  28.719  30.962   2.030
13659W        W78820  44.838   0.913   0.668
13660W        W78821   0.827  42.335   1.930
13661W        W78822  18.538   5.912   0.393
13662W        W78823  35.856  14.602  11.573
13663W        W78824   5.171  26.220  14.473
13664W        W78825  29.992  39.981  14.490
13665W        W78826  14.544   5.100   4.253
13666W        W78827   9.848   2.252  11.662
13667W        W78828  13.288   1.217  12.500
13668W        W78829  42.548  23.590  12.084
13669W        W78830  44.797   7.149   2.692
13670W        W78831  18.271  19.024   2.737
13671W        W78832  11.376  26.530   2.381
13672W        W78833  29.186  10.699   0.418
13673W        W78834  21.226  17.717  11.215
13674W        W78835  34.701  43.514   0.752
13675W        W78836   0.746   0.335   4.212
13676W        W78837   8.222   4.319  12.493
13677W        W78838  24.436  23.166  11.167
13678W        W78839   7.938  31.385  14.264
13679W        W78840  34.830   3.823   0.864
13680W        W78841  30.707  35.582   1.189
13681W        W78842   3.659  27.571   1.709
13682W        W78843   2.640  44.706  12.223
13683W        W78844  14.682  25.820  13.409
13684W        W78845  41.187  12.894  12.459
13685W        W78846   7.284  30.818  12.986
13686W        W78847  35.831  43.034   1.483
13687W        W78848  12.330  13.158   2.678
13688W        W78849  43.349  30.434   4.470
13689W        W78850  41.812   5.734   0.728
13690W        W78851  33.849  20.769   2.404
13691W        W78852  18.745   0.856  11.129
13692W        W78853  12.470  20.947  13.454
13693W        W78854  22.511  10.071   4.415
13694W        W78855  24.202  28.248   1.293
13695W        W78856   7.008  36.856  14.434
13696W        W78857  42.963  34.836   1.316
13697W        W78858  21.070   9.770  13.861
13698W        W78859  28.429  23.017   2.242
13699W        W78860  15.092  25.650   1.846
13700W        W78861  37.032  39.745  14.350
13701W        W78862   0.462   9.518   1.183
13702W        W78863   2.023  42.501   3.478
13703W        W78864   1.624  14.192  14.371
13704W        W78865  36.717   8.681   2.796
13705W        W78866  26.541  26.023  14.523
13706W        W78867  37.496  27.963  10.658
13707W        W78868  32.855  20.761  12.545
13708W        W78869   7.718  35.832  10.025
13709W        W78870  22.672  15.150   4.992
13710W        W78871  34.201  21.648  10.871
13711W        W78872  17.714   8.504  11.678
13712W        W78873  44.448  43.422  12.130
13713W        W78874  31.888   9.406   5.161
13714W        W78875  12.644  32.026   4.536
13715W        W78876  21.123  40.101   0.676
13716W        W78877  12.650  22.715  11.189
13717W        W78878   1.015  13.130  12.182
13718W        W78879   3.466   5.902   3.787
13719W        W78880  24.862   5.045  13.978
13720W        W78881  17.126  28.106  13.051
13721W        W78882  40.150  40.360  13.367
13722W        W78883  14.789   6.189  12.006
13723W        W78884  16.086  10.383   0.394
13724W        W78885  31.479  30.516  10.559
13725W        W78886  19.073  38.497   3.231
13726W        W78887  32.338  18.311   1.648
13727W        W78888  29.539   2.405  11.654
13728W        W78889  17.652  19.704  12.183
13729W        W78890  34.254  27.680  10.530
13730W        W78891  12.460  43.258  11.154
13731W        W78892   2.765  25.570   2.468
13732W        W78893  33.409  44.520  14.509
13733W        W78894   4.653  43.367   2.886
13734W        W78895  12.802  39.199  11.086
13735W        W78896  43.930  19.058   1.434
13736W        W78897  22.404  24.175  10.673
13737W        W78898  38.990   9.155   5.165
13738W        W78899  27.887  11.591  12.369
13739W        W78900  14.615   4.039  14.886
13740W        W78901  35.666  15.080  13.734
13741W        W78902  10.832  41.383  11.605
13742W        W78903   4.347  12.514   0.107
13743W        W78904  22.093  40.339   2.188
13744W        W78905  11.318   1.902  12.473
13745W        W78906  35.664  43.921   3.626
13746W        W78907   5.194   4.191   0.714
13747W        W78908  32.985  41.724   3.657
13748W        W78909  19.365  26.238   1.781
13749W        W78910  41.396  27.856  11.984
13750W        W78911  30.080  14.338  14.389
13751W        W78912  17.772  14.599   1.762
13752W        W78913  15.716  37.886  14.938
13753W        W78914  10.734  22.643  12.546
13754W        W78915  33.863  31.392  12.407
13755W        W78916   5.972  34.888  14.941
13756W        W78917  12.735  25.276   1.349
13757W        W78918  37.155  41.797  11.082
13758W        W78919  43.287  43.400  12.414
13759W        W78920  42.926  37.990  13.024
13760W        W78921  25.642   8.167  12.032
13761W        W78922  18.764   3.810   0.234
13762W        W78923   1.853  32.427   1.928
13763W        W78924  38.615  25.599  12.906
13764W        W78925  38.663   4.437   3.728
13765W        W78926  13.158  36.940   1.246
13766W        W78927  29.610  22.461   3.303
13767W        W78928  16.273  15.551   0.232
13768W        W78929  43.519  19.086   3.819
13769W        W78930  34.977  27.628   2.319
13770W        W78931   2.276  40.384   4.835
13771W        W78932  44.635  21.148   3.627
13772W        W78933  38.756  30.324   5.186
13773W        W78934  15.110  14.506   1.087
13774W        W78935  24.090  26.074  10.284
13775W        W78936   9.960   0.368   4.469
13776W        W78937  20.729  11.326  11.160
13777W        W78938  34.689   2.141   2.227
13778W        W78939  28.853   0.462   1.411
13779W        W78940   0.170  23.901  12.952
13780W        W78941  35.103  14.144  11.707
13781W        W78942  44.223  26.756  14.539
13782W        W78943  40.083  16.741  10.716
13783W        W78944  18.978  42.460  12.441
13784W        W78945   7.119  20.741   4.873
13785W        W78946  11.374  42.502  11.219
13786W        W78947  34.376  38.467  13.006
13787W        W78948  37.565   4.698   1.836
13788W        W78949  20.881  30.962   2.287
13789W        W78950  34.586  41.442  13.729
13790W        W78951  13.940  25.491  12.606
13791W        W78952   5.263  12.727   0.179
13792W        W78953   7.916  14.778   1.850
13793W        W78954  10.261  17.522  14.792
13794W        W78955   3.057   9.742   3.910
13795W        W78956   8.299   5.484  14.948
13796W        W78957  15.225  28.991   2.177
13797W        W78958   1.287  26.669  10.697
13798W        W78959  15.963  16.079  13.958
13799W        W78960  27.024  25.195   1.934
13800W        W78961  34.862  23.982   0.189
13801W        W78962   3.773   4.871   3.201
13802W        W78963  14.197  44.469   4.893
13803W        W78964  29.500  16.347  12.097
13804W        W78965   3.178  38.797  14.874
13805W        W78966  18.249  42.790  13.754
13806W        W78967  13.625  42.896  10.569
13807W        W78968  35.334  37.144   2.843
13808W        W78969  38.865  39.294   2.672
13809W        W78970   0.758  29.184   3.841
13810W        W78971  26.019  30.915  10.685
13811W        W78972  39.100   4.187   0.556
13812W        W78973  17.688  36.136   4.089
13813W        W78974   2.185  24.532   3.180
13814W        W78975   5.246  39.409   2.837
13815W        W78976   1.460   4.139   4.357
13816W        W78977  16.133  36.068   2.747
13817W        W78978  14.151   5.919   3.319
13818W        W78979  26.919  40.998   4.205
13819W        W78980  27.125  24.234   3.568
13820W        W78981   4.635   8.172  11.043
13821W        W78982  18.868  11.184  13.993
13822W        W78983   1.549  37.929   4.731
13823W        W78984  23.940  35.035  10.720
13824W        W78985  33.381   5.399   3.490
13825W        W78986  24.207  41.516  11.623
13826W        W78987  31.469  18.594  14.509
13827W        W78988  19.727  11.928   5.203
13828W        W78989  22.471  39.417  11.196
13829W        W78990  44.230  24.196   5.084
13830W        W78991  27.617  33.930   1.699
13831W        W78992   4.470  39.035   0.341
13832W        W78993   5.153  37.338   3.070
13833W        W78994  22.501   4.147   3.147
13834W        W78995  12.710  24.920  11.455
13835W        W78996  38.408  40.914   0.072
13836W        W78997  13.291  26.259  14.348
13837W        W78998  13.202  33.471   1.487
13838W        W78999  44.930  19.042   1.431
13839W        W79000  12.700  23.389  13.378
13840W        W79001  16.511  31.291   1.544
13841W        W79002  15.107  36.823  13.185
13842W        W79003  37.601   2.787  11.146
13843W        W79004  36.611  27.279  12.662
13844W        W79005   8.761  18.172  13.637
13845W        W79006  31.429  25.915   0.287
13846W        W79007  37.874  38.502   3.588
13847W        W79008   0.536   7.174   4.715
13848W        W79009  24.076  22.796  13.247
13849W        W79010   9.025   1.658  11.622
13850W        W79011  32.537  40.617  11.473
13851W        W79012  18.840   1.372  13.931
13852W        W79013  14.773  21.985   3.189
13853W        W79014  10.303   5.328  14.480
13854W        W79015  25.103  24.138  14.554
13855W        W79016  33.496  34.006   0.957
13856W        W79017  22.441  30.968  14.339
13857W        W79018   1.857  33.695  13.661
13858W        W79019  33.710   5.829   4.655
13859W        W79020  29.874  44.341  11.496
13860W        W79021  22.236  36.543   2.858
13861W        W79022  20.251   2.652   2.157
13862W        W79023  41.468  35.820  11.595
13863W        W79024   8.974  29.712  11.165
13864W        W79025  37.290   2.803   4.138
13865W        W79026  18.298  11.138   4.139
13866W        W79027   4.263   7.120   0.799
13867W        W79028  33.961  44.285  14.683
13868W        W79029  10.108  29.342   5.146
13869W        W79030  43.269  34.828   4.679
13870W        W79031   5.406   4.898  12.039
13871W        W79032  36.285   6.632   4.094
13872W        W79033  32.151   5.729  10.629
13873W        W79034  26.111  33.598  11.922
13874W        W79035  43.181  33.578   2.336
13875W        W79036   8.784  24.140   0.737
13876W        W79037  24.019   4.214  11.218
13877W        W79038  23.423  18.093  13.011
13878W        W79039  26.983  43.211  13.975
13879W        W79040  26.504   8.768   3.858
13880W        W79041  13.145   8.754   1.704
13881W        W79042  24.490   9.895   2.912
13882W        W79043  34.130   0.198  11.566
13883W        W79044   5.916  24.639  12.986
13884W        W79045  31.511   2.220  14.240
13885W        W79046  15.705   3.375  14.407
13886W        W79047  22.060  44.105   2.855
13887W        W79048  10.300   5.778   4.302
13888W        W79049  12.869  35.857   3.759
13889W        W79050  30.168  14.971  13.528
13890W        W79051  30.039  20.997  13.736
13891W        W79052  43.723  17.505  14.665
13892W        W79053   5.186  16.370  12.928
13893W        W79054  22.169   6.758   0.733
13894W        W79055  30.140  43.075  14.520
13895W        W79056  19.197   9.601   0.157
13896W        W79057   0.123  12.341   2.973
13897W        W79058  21.675  10.235  12.422
13898W        W79059  28.902  44.881  13.386
13899W        W79060  19.756   7.377  10.734
13900W        W79061  14.049  10.961   2.794
13901W        W79062   1.516  15.240   2.662
13902W        W79063  28.447  28.652   3.919
13903W        W79064  30.457  41.166   9.833
13904W        W79065  38.165  25.376  10.800
13905W        W79066  23.503  14.783   1.292
13906W        W79067  30.426  12.545  14.022
13907W        W79068  13.258  24.204   0.588
13908W        W79069  13.741  19.786  13.934
13909W        W79070   1.903  21.022  13.309
13910W        W79071  40.616  36.356   2.358
13911W        W79072  25.766  13.810  11.213
13912W        W79073   1.680  13.311  14.504
13913W        W79074   9.348  29.485   3.999
13914W        W79075   2.082  24.341   4.507
13915W        W79076  37.061  27.965  12.937
13916W        W79077  37.882   7.750   0.774
13917W        W79078  43.624  32.655  13.094
13918W        W79079   3.007  22.493   3.722
13919W        W79080   0.477  42.132   3.312
13920W        W79081  19.328  38.858  13.414
13921W        W79082  22.694  28.582  13.582
13922W        W79083  16.635  17.003   3.251
13923W        W79084  40.877  26.597   4.774
13924W        W79085   3.354  15.172  13.872
13925W        W79086  17.146   7.725  12.877
13926W        W79087  27.007  37.986   2.687
13927W        W79088   8.795   2.260   3.356
13928W        W79089  16.546   8.219  11.625
13929W        W79090  30.490   2.746  12.602
13930W        W79091  21.816  19.680   1.209
13931W        W79092  40.137  23.276  11.216
13932W        W79093  38.682   0.741   4.376
13933W        W79094  18.231  13.896  12.684
13934W        W79095   6.631  36.134  10.689
13935W        W79096  18.273  33.958  11.246
13936W        W79097   2.243   5.409   4.183
13937W        W79098  29.219  29.858  14.590
13938W        W79099  18.093  19.044  12.142
13939W        W79100   4.245  14.112   0.388
13940W        W79101  17.731  14.098  10.080
13941W        W79102  38.399   1.303   0.496
13942W        W79103  31.337  44.558  10.637
13943W        W79104  42.687  36.572   1.316
13944W        W79105  25.488   3.582  14.393
13945W        W79106  44.684  30.427   0.442
13946W        W79107  19.526   5.619   0.334
13947W        W79108  25.157  23.430   4.560
13948W        W79109  13.273  42.917   3.368
13949W        W79110  27.015  16.997  12.962
13950W        W79111  22.287  41.510   3.686
13951W        W79112   2.249   5.527   1.238
13952W        W79113   4.332  18.102   2.450
13953W        W79114  31.056  10.220   1.075
13954W        W79115  39.762  42.567  10.633
13955W        W79116  11.412  21.655   0.504
13956W        W79117  14.651   0.690  10.712
13957W        W79118  19.596  39.582   3.627
13958W        W79119  22.187  25.396  11.245
13959W        W79120   3.027  36.865   1.898
13960W        W79121  42.854  33.317   0.267
13961W        W79122   5.304  20.818  13.774
13962W        W79123  13.679  41.362   1.913
13963W        W79124   0.240  29.193  13.938
13964W        W79125  37.605  40.044   3.832
13965W        W79126   3.253   8.199  10.612
13966W        W79127   1.353  35.493   0.012
13967W        W79128  26.535   7.661  12.070
13968W        W79129  31.886  22.111   1.251
13969W        W79130  20.015  37.854   0.959
13970W        W79131  32.916   5.210  10.624
13971W        W79132   5.964  32.900   4.117
13972W        W79133  38.961  32.720   0.892
13973W        W79134   0.699   4.386   0.583
13974W        W79135  40.877  43.223  11.153
13975W        W79136  26.346   7.146  14.338
13976W        W79137  43.918  20.951   0.391
13977W        W79138   0.436  42.435  13.624
13978W        W79139  29.954  33.385   0.634
13979W        W79140  21.084  24.376   3.057
13980W        W79141  39.596  19.625  13.835
13981W        W79142  39.904   0.162   2.696
13982W        W79143   2.266   0.672   0.508
13983W        W79144   9.697   8.639  11.952
13984W        W79145  42.287  35.661  13.817
13985W        W79146  24.423  34.794  12.915
13986W        W79147  11.857   8.133   1.344
13987W        W79148  16.562  28.919  10.560
13988W        W79149  28.439   0.259   1.025
13989W        W79150  42.982   7.393   2.304
13990W        W79151   3.363  11.304   1.826
13991W        W79152  20.607   3.316   2.236
13992W        W79153  32.420  17.311   4.583
13993W        W79154  16.503  14.614   2.367
13994W        W79155  41.674  37.948   3.562
13995W        W79156  42.266  15.684   2.672
13996W        W79157   0.024  18.733   1.833
13997W        W79158   1.418   9.437  11.865
13998W        W79159  22.670  29.380  11.610
13999W        W79160  14.195   7.347   0.408
14000W        W79161  33.162  37.933   0.974
14001W        W79162  15.776  17.315   0.000
14002W        W79163  41.645  31.980   4.696
14003W        W79164  42.696  24.552   1.760
14004W        W79165  33.700  25.261  10.684
14005W        W79166  37.172   9.789   0.935
14006W        W79167  33.506  28.450  12.612
14007W        W79168  37.894  22.762  14.824
14008W        W79169   6.368  14.607  11.090
14009W        W79170  19.351  17.447  14.009
14010W        W79171  44.730   8.081   2.385
14011W        W79172  39.666  20.580  13.707
14012W        W79173  33.379  42.304  12.275
14013W        W79174  16.736  12.855  10.683
14014W        W79175  21.949  34.123   2.707
14015W        W79176  21.338  14.007   5.029
14016W        W79177  23.535  14.549  13.297
14017W        W79178  41.808  28.498  14.071
14018W        W79179  32.232  43.766  13.495
14019W        W79180  27.598  41.792   3.151
14020W        W79181  17.745  38.355   1.766
14021W        W79182  43.002   7.850   4.497
14022W        W79183  22.445  25.920   0.885
14023W        W79184  14.532  44.781   2.280
14024W        W79185  42.108   2.584  12.522
14025W        W79186  16.058  36.854  10.602
14026W        W79187  19.637  18.687   4.329
14027W        W79188  41.811  32.652  11.457
14028W        W79189  10.629  20.861   3.334
14029W        W79190   2.650  18.034  14.422
14030W        W79191  16.738  23.650   3.080
14031W        W79192  21.071   1.456  13.999
14032W        W79193   0.383  25.500   2.799
14033W        W79194  30.580  28.121   2.768
14034W        W79195  20.681  23.972   0.913
14035W        W79196   7.783   6.784   1.861
14036W        W79197  39.075  15.500  12.425
14037W        W79198   9.229  19.436  14.582
14038W        W79199  14.216  19.031  11.583
14039W        W79200  11.206   8.360  14.947
14040W        W79201  17.585  25.801   2.033
14041W        W79202  38.928   8.443  14.325
14042W        W79203  11.670  15.293   0.964
14043W        W79204  37.754  43.011   0.114
14044W        W79205   1.300  19.247   1.327
14045W        W79206  17.296  30.640   3.854
14046W        W79207   3.309  27.855   0.474
14047W        W79208  37.576  21.564  14.904
14048W        W79209  30.732   0.738   1.619
14049W        W79210  15.909  33.351  13.314
14050W        W79211  38.790  26.020  11.065
14051W        W79212  13.082   9.872   4.615
14052W        W79213  41.726   9.684  11.637
14053W        W79214  44.317   7.939   2.682
14054W        W79215  27.191   8.270   2.474
14055W        W79216  37.605   6.801  12.135
14056W        W79217  11.187  11.831  10.269
14057W        W79218  34.695  17.771   0.421
14058W        W79219  29.322  12.402   2.186
14059W        W79220  37.541   1.692  14.958
14060W        W79221  42.080  27.876  11.164
14061W        W79222  13.874  20.097  11.565
14062W        W79223  31.093  28.091  13.979
14063W        W79224  36.415   2.654   1.172
14064W        W79225  44.384   9.698  13.601
14065W        W79226  30.137   4.371   0.725
14066W        W79227  18.062  29.112  11.919
14067W        W79228  10.343  20.665   0.711
14068W        W79229  38.564  29.901   2.690
14069W        W79230  26.653  29.652   4.724
14070W        W79231  27.460   2.901  13.429
14071W        W79232   8.305  43.012  13.527
14072W        W79233  20.934  43.225  14.327
14073W        W79234  12.224  33.870  11.991
14074W        W79235  38.159  20.127  12.112
14075W        W79236  21.372   1.952   4.752
14076W        W79237  34.490   6.409   2.994
14077W        W79238  18.161  20.299   2.091
14078W        W79239   2.341  32.176   4.527
14079W        W79240   6.235   0.270  12.459
14080W        W79241  42.975  34.568  12.168
14081W        W79242  16.750   8.189   1.346
14082W        W79243  19.298  14.611   4.722
14083W        W79244  44.360   9.802  11.731
14084W        W79245  42.288  33.330  13.799
14085W        W79246  43.765  20.975   2.805
14086W        W79247  23.768  27.915   0.791
14087W        W79248  16.325  32.843  11.542
14088W        W79249  29.451  11.745  11.632
14089W        W79250  33.613  16.674  10.724
14090W        W79251   2.798  24.718  14.106
14091W        W79252  21.039  41.392   4.894
14092W        W79253  31.130  44.314   3.577
14093W        W79254  44.833   4.935  12.561
14094W        W79255  12.268   1.338  13.432
14095W        W79256  39.028  42.495   2.318
14096W        W79257  15.604   2.331  12.463
14097W        W79258  23.685   9.127  10.678
14098W        W79259  39.703  25.698   2.158
14099W        W79260  16.232  21.194  11.176
14100W        W79261   4.868   6.205  12.084
14101W        W79262  25.173   6.426   2.772
14102W        W79263  18.556  28.046  12.058
14103W        W79264  10.208  37.140   0.630
14104W        W79265  10.598  39.408   0.835
14105W        W79266  20.286   9.302   2.301
14106W        W79267   9.705  37.587  11.898
14107W        W79268  10.210  17.831   1.356
14108W        W79269  44.472  15.563  11.124
14109W        W79270  37.363   4.857  14.891
14110W        W79271  33.392  33.928   3.788
14111W        W79272  18.236  34.050   4.220
14112W        W79273  37.814   5.544   1.426
14113W        W79274  23.587  14.172  14.969
14114W        W79275  21.294  31.715   4.927
14115W        W79276  32.965  26.523   2.162
14116W        W79277  14.497  12.890   0.266
14117W        W79278  33.524  13.378   9.950
14118W        W79279  22.647  29.175   1.828
14119W        W79280  10.654  28.543  11.982
14120W        W79281   9.306  44.935  12.114
14121W        W79282  14.650  44.304   0.644
14122W        W79283  39.398  11.257   4.356
14123W        W79284  21.322  26.939  14.763
14124W        W79285  43.982  22.198  14.144
14125W        W79286  31.999  15.760  12.776
14126W        W79287  21.044  43.814  10.720
14127W        W79288  19.762  18.881   2.598
14128W        W79289  12.945  35.884   2.817
14129W        W79290   3.728  16.995   3.977
14130W        W79291  23.074   8.942  13.499
14131W        W79292  32.105  23.721  14.532
14132W        W79293   1.783   0.513   0.432
14133W        W79294  33.924  14.087  12.384
14134W        W79295   9.593  43.005  12.849
14135W        W79296  19.734   5.804  11.086
14136W        W79297   2.445   4.913   1.008
14137W        W79298  44.370  28.492  11.141
14138W        W79299  31.382  33.136   4.035
14139W        W79300  28.021  29.156   4.410
14140W        W79301  20.478  15.657   2.232
14141W        W79302  16.429  11.721   1.573
14142W        W79303  37.767  19.366  11.643
14143W        W79304  42.825  28.566   3.747
14144W        W79305  41.010  20.120   0.920
14145W        W79306  23.008  37.538   0.370
14146W        W79307  28.274  24.679  11.627
14147W        W79308  39.084  29.024   3.727
14148W        W79309  20.985  44.521  14.274
14149W        W79310  11.691  19.703  13.863
14150W        W79311  25.422  27.316   1.955
14151W        W79312  12.422  17.416  14.797
14152W        W79313  25.910  17.770   0.880
14153W        W79314  32.474  24.910   2.787
14154W        W79315  42.076  29.124  10.270
14155W        W79316  12.722  12.622  13.895
14156W        W79317  30.544   9.318   1.898
14157W        W79318  38.084  27.542   3.771
14158W        W79319  40.037   0.911  14.337
14159W        W79320  43.305   1.715   1.002
14160W        W79321  40.118   3.218  10.499
14161W        W79322  33.994   9.797   4.952
14162W        W79323   8.096  36.921   1.366
14163W        W79324  41.034  15.084   3.356
14164W        W79325  35.891  23.256  12.434
14165W        W79326  20.754  39.379   0.803
14166W        W79327  23.487  30.198  14.571
14167W        W79328   3.050  37.377   0.673
14168W        W79329  43.333  16.795  12.519
14169W        W79330  38.035  11.331   0.301
14170W        W79331  22.102   3.666   3.856
14171W        W79332  41.790  23.611   4.562
14172W        W79333  23.481  24.270  14.997
14173W        W79334  16.304  26.839  13.075
14174W        W79335  30.730   6.734   0.466
14175W        W79336  38.628   7.916  12.694
14176W        W79337  29.051  34.569   4.501
14177W        W79338  22.916  11.623   2.264
14178W        W79339  12.643  14.351  10.701
14179W        W79340  35.890  31.362  11.019
14180W        W79341   5.226  13.285   1.399
14181W        W79342  24.034  15.291  10.614
14182W        W79343  43.994  17.843  12.093
14183W        W79344  14.281  26.494   1.093
14184W        W79345   4.109  16.155  10.566
14185W        W79346  28.006  36.814  13.387
14186W        W79347  20.054  43.024   4.106
14187W        W79348  20.807  35.247  11.158
14188W        W79349  10.625  23.157  13.937
14189W        W79350  36.956  25.990   3.680
14190W        W79351  29.221   1.254   1.698
14191W        W79352  35.126   3.188  13.050
14192W        W79353   5.230  17.607   3.477
14193W        W79354  16.189  11.151   1.713
14194W        W79355  36.534  11.630   0.346
14195W        W79356  38.537  10.079   4.136
14196W        W79357  40.104  11.822  14.980
14197W        W79358  23.027   4.066  11.847
14198W        W79359  43.783  18.652  12.606
14199W        W79360  34.420   1.134   0.463
14200W        W79361  37.406   0.109   3.155
14201W        W79362  16.759   1.456  12.864
14202W        W79363   5.957   9.055   3.721
14203W        W79364  38.800  16.186  14.080
14204W        W79365  36.931  22.261  11.259
14205W        W79366  33.619  29.583  14.919
14206W        W79367  39.498  20.986   2.123
14207W        W79368  38.924  31.227   2.800
14208W        W79369  42.045   4.454  11.639
14209W        W79370  12.285   0.492  13.959
14210W        W79371  29.615  26.225   3.719
14211W        W79372  40.920  33.512   4.137
14212W        W79373   3.676  29.145   4.091
14213W        W79374  36.305  16.327   0.796
14214W        W79375  22.616   5.815   2.763
14215W        W79376  44.336  20.620  13.396
14216W        W79377  11.021  11.312  11.898
14217W        W79378  27.570   3.682  11.239
14218W        W79379  28.728   8.342   0.977
14219W        W79380  17.580  33.053   1.343
14220W        W79381   7.196  29.399   2.351
14221W        W79382  39.865  12.287  12.972
14222W        W79383   9.245  41.797   4.639
14223W        W79384   4.621  32.853  13.875
14224W        W79385  39.876  44.739   9.895
14225W        W79386  12.184  29.194  12.523
14226W        W79387  38.882  38.902   1.898
14227W        W79388   5.710   2.990   4.744
14228W        W79389  43.435   8.793  10.776
14229W        W79390  10.209  22.779  12.544
14230W        W79391  20.271  21.422  11.980
14231W        W79392  22.538  42.068   3.064
14232W        W79393  13.852  31.539  11.072
14233W        W79394  33.117  39.835   2.334
14234W        W79395  32.429  30.937   2.747
14235W        W79396  31.689  11.757  10.528
14236W        W79397  17.274  31.969   4.061
14237W        W79398   1.394  39.950   1.324
14238W        W79399  32.640  18.145   0.833
14239W        W79400  34.321   1.515   0.803
14240W        W79401  30.588  44.709   3.294
14241W        W79402  25.424  35.643  13.929
14242W        W79403  29.688  25.169  11.230
14243W        W79404  23.563  39.048   2.990
14244W        W79405  24.625  35.656   3.546
14245W        W79406  35.590  26.011   0.261
14246W        W79407  26.080   4.493   4.664
14247W        W79408  26.978   2.633   2.314
14248W        W79409  19.130   0.215   1.807
14249W        W79410  16.264  42.576   9.895
14250W        W79411  26.582  37.604  12.905
14251W        W79412  23.105  29.868  14.738
14252W        W79413  35.492   9.803   4.963
14253W        W79414   1.790  24.785  10.530
14254W        W79415   4.868  30.434   2.816
14255W        W79416   7.876  22.543  12.394
14256W        W79417  26.066   7.688   4.188
14257W        W79418   7.229  32.661   2.256
14258W        W79419  21.066  37.875  12.946
14259W        W79420  25.641  16.073   3.033
14260W        W79421  39.009   3.504  12.507
14261W        W79422   5.876  35.039   0.989
14262W        W79423  27.640  37.041   3.299
14263W        W79424   9.319  21.039   4.850
14264W        W79425  14.311  19.158  14.295
14265W        W79426  29.486  21.810   2.772
14266W        W79427  37.821  34.103  11.982
14267W        W79428  25.001  41.996   2.805
14268W        W79429  28.899  24.274  11.281
14269W        W79430  26.991  15.811  11.689
14270W        W79431  15.173  26.701   3.088
14271W        W79432   6.252   4.677   4.668
14272W        W79433  12.066  11.485  14.278
14273W        W79434  44.985  20.727   3.623
14274W        W79435  27.058   5.871  10.733
14275W        W79436  24.654  19.807   0.931
14276W        W79437  43.798  20.036  13.885
14277W        W79438  23.709   5.910   0.752
14278W        W79439  41.981  14.200   1.917
14279W        W79440  28.082   4.792  14.954
14280W        W79441  33.941  35.508   3.474
14281W        W79442   2.723  20.516   4.444
14282W        W79443  33.672  27.610  14.012
14283W        W79444  19.527  36.122  13.052
14284W        W79445  27.098   0.719   2.366
14285W        W79446  37.581  23.656  14.007
14286W        W79447  26.433  17.774   0.925
14287W        W79448  13.163  12.802   3.181
14288W        W79449  20.205  15.315  10.672
14289W        W79450  37.269  25.468  13.413
14290W        W79451   4.100  27.121  12.476
14291W        W79452  11.164   8.861   2.659
14292W        W79453   5.216  35.439   1.657
14293W        W79454  25.082  32.299   2.939
14294W        W79455  33.201  32.937  10.821
14295W        W79456  23.949  25.657  14.858
14296W        W79457   2.361  19.208  10.419
14297W        W79458   3.541  29.469   1.480
14298W        W79459   0.835   6.744   4.591
14299W        W79460  42.818   1.612  11.970
14300W        W79461  15.053  14.635   2.069
14301W        W79462  29.105  39.343  13.613
14302W        W79463  13.897  44.319  13.552
14303W        W79464   4.849   3.702  12.340
14304W        W79465   1.806  19.012  13.553
14305W        W79466   6.708   6.013  14.025
14306W        W79467  23.427  17.022  10.977
14307W        W79468  19.085  36.946   5.073
14308W        W79469  30.813  38.280   3.805
14309W        W79470  42.099  25.942   2.646
14310W        W79471  10.901  32.028   1.280
14311W        W79472   0.120   7.019   2.311
14312W        W79473  17.154  12.559  12.503
14313W        W79474  18.748   7.088  12.080
14314W        W79475  43.091  29.450   4.214
14315W        W79476   4.482  22.789   9.944
14316W        W79477   9.950   7.134  13.479
14317W        W79478  37.409  44.200   3.578
14318W        W79479  31.378  37.451  10.814
14319W        W79480  41.323  29.946  12.656
14320W        W79481  39.329  21.554  10.734
14321W        W79482  38.154  21.196  12.997
14322W        W79483  27.173   1.824  14.122
14323W        W79484  32.081   4.317   0.714
14324W        W79485  41.947  14.798  10.650
14325W        W79486  38.813  11.175   0.753
14326W        W79487  44.848   4.402   5.016
14327W        W79488  36.621  17.124  11.981
14328W        W79489  33.471  24.996  12.059
14329W        W79490  21.890  36.965  10.329
14330W        W79491  25.888  21.633   0.505
14331W        W79492   5.787  11.173   1.116
14332W        W79493   5.774   4.860   2.644
14333W        W79494   0.789  11.493  12.772
14334W        W79495  23.900   0.321  10.464
14335W        W79496  13.447  16.094  13.880
14336W        W79497   9.710  11.754  11.992
14337W        W79498  42.934  12.113  14.981
14338W        W79499  40.695   3.394   4.661
14339W        W79500  35.619   2.912  14.421
14340W        W79501  19.143   0.667  12.102
14341W        W79502  24.896  18.420   3.313
14342W        W79503   1.345  16.627   0.302
14343W        W79504  12.050  43.326   4.665
14344W        W79505  21.696  44.436   1.957
14345W        W79506  33.110  21.861  11.329
14346W        W79507  21.326  42.253   1.808
14347W        W79508  40.295  21.105  11.993
14348W        W79509  13.630   7.645  12.933
14349W        W79510  21.663  37.373  12.908
14350W        W79511   5.157  16.621   1.270
14351W        W79512  42.294   8.970   0.249
14352W        W79513   8.137  32.062   1.434
14353W        W79514  40.752  39.703  11.169
14354W        W79515  25.875  28.483   3.624
14355W        W79516  23.969  35.979   1.451
14356W        W79517   5.304   7.958  14.520
14357W        W79518  25.471   0.820  11.238
14358W        W79519  16.626   0.509   3.586
14359W        W79520  40.537  19.608   4.664
14360W        W79521  38.393  29.592   3.075
14361W        W79522  17.155  31.142   3.782
14362W        W79523  12.317  19.640  11.982
14363W        W79524  27.969   5.933  11.166
14364W        W79525  43.353   5.249   4.528
14365W        W79526   8.713  37.480   1.854
14366W        W79527  44.395  39.007   1.481
14367W        W79528  15.092  28.191  14.865
14368W        W79529   7.837  12.500   9.905
14369W        W79530  44.230  18.337   2.761
14370W        W79531   3.818  41.926   1.414
14371W        W79532  24.933  21.096  13.136
14372W        W79533  11.076  13.341   0.371
14373W        W79534  21.469   1.345  13.468
14374W        W79535  38.788   9.768  12.397
14375W        W79536  27.772  41.381  11.382
14376W        W79537  14.669   4.302  12.411
14377W        W79538  40.510  26.066   2.636
14378W        W79539  30.704  31.867   4.071
14379W        W79540  27.805  34.346   2.021
14380W        W79541  12.087  10.036   2.203
14381W        W79542   8.862  38.204   4.933
14382W        W79543  37.937  39.586  12.645
14383W        W79544  29.191  10.733  10.812
14384W        W79545   6.726  32.955   1.824
14385W        W79546   3.899  39.955  11.209
14386W        W79547  21.543   9.092   3.744
14387W        W79548  15.634  39.897   2.973
14388W        W79549   8.674  38.985   1.819
14389W        W79550  22.801  13.355  13.397
14390W        W79551  15.314  13.086  14.868
14391W        W79552  22.964  13.906   3.277
14392W        W79553  14.159   5.650   2.511
14393W        W79554  18.117  40.295  13.665
14394W        W79555  33.617  23.532   2.752
14395W        W79556  13.075  13.740   2.187
14396W        W79557  27.569   6.116   4.456
14397W        W79558  29.804  40.301  11.963
14398W        W79559  21.621  28.005  12.178
14399W        W79560  35.954  27.160  11.296
14400W        W79561   8.626   1.495  13.849
14401W        W79562  23.758  36.328  12.952
14402W        W79563  16.183  37.784   5.686
14403W        W79564  16.166  25.855   2.841
14404W        W79565  42.823  33.073   4.506
14405W        W79566  38.442  26.715   4.983
14406W        W79567  33.554  37.453  12.950
14407W        W79568  33.127  41.464  14.244
14408W        W79569  13.089  35.069  14.747
14409W        W79570  40.403  11.842  12.431
14410W        W79571   2.907  31.162  13.980
14411W        W79572  23.675  32.848   3.643
14412W        W79573  32.627  28.899  11.579
14413W        W79574  11.281  17.517  13.268
14414W        W79575  37.569  25.920  12.605
14415W        W79576   2.636  11.749   1.711
14416W        W79577  42.002  33.967  12.898
14417W        W79578   4.422  40.297   4.595
14418W        W79579  10.729  40.266  13.934
14419W        W79580  32.141   8.054   3.272
14420W        W79581  28.646  28.660   2.828
14421W        W79582   5.668  24.190   3.450
14422W        W79583  41.413   5.653  14.923
14423W        W79584  33.534  41.012  11.482
14424W        W79585   1.054  15.664   1.657
14425W        W79586  16.750  33.337   2.314
14426W        W79587  27.975   6.758   0.430
14427W        W79588  27.938   5.721  10.699
14428W        W79589   7.725  33.581   3.164
14429W        W79590  27.113  43.840   4.044
14430W        W79591   1.927  25.905  14.052
14431W        W79592  15.699  18.354   2.772
14432W        W79593  15.330  16.519  12.337
14433W        W79594   4.828  31.372   4.397
14434W        W79595  25.403  35.143   4.073
14435W        W79596  24.381  43.025   0.900
14436W        W79597   1.855   8.124  13.679
14437W        W79598   3.559  44.954  14.034
14438W        W79599  10.756   0.078  10.627
14439W        W79600  18.360  41.062  12.969
14440W        W79601  41.240  13.572   4.206
14441W        W79602  37.037   7.407  13.086
14442W        W79603   3.017   0.397   0.730
14443W        W79604  13.173  25.076   4.988
14444W        W79605  14.651   0.493  11.192
14445W        W79606  18.680   7.809   0.070
14446W        W79607  41.915  32.812   4.976
14447W        W79608  18.834   9.249  11.588
14448W        W79609  10.286  26.561   4.893
14449W        W79610   2.045  42.069  11.593
14450W        W79611  27.668  14.886   2.208
14451W        W79612  18.307  35.034   4.377
14452W        W79613   3.943  33.468   4.152
14453W        W79614  33.794  43.064  10.589
14454W        W79615   0.734  44.229  12.564
14455W        W79616  44.814  31.407   2.628
14456W        W79617  12.644  14.171   4.651
14457W        W79618  39.885   6.679   3.931
14458W        W79619   1.689  36.452  10.522
14459W        W79620  30.109   8.600  12.946
14460W        W79621  40.853  19.989   0.440
14461W        W79622   9.761  33.066  10.669
14462W        W79623  28.976  14.472   0.069
14463W        W79624   9.234  34.590  10.388
14464W        W79625  14.854  27.143  11.661
14465W        W79626   0.820   1.285   3.705
14466W        W79627  42.205  43.737  12.558
14467W        W79628  31.683  31.444  14.946
14468W        W79629   4.182  20.087  12.593
14469W        W79630  12.200   5.928   1.489
14470W        W79631  21.755  24.443  12.985
14471W        W79632  44.812  22.020   1.769
14472W        W79633  42.365  25.616  14.240
14473W        W79634  35.934  13.835  12.037
14474W        W79635  23.328  39.713   1.523
14475W        W79636  42.684   6.332   4.104
14476W        W79637  17.834  24.514   1.430
14477W        W79638  43.558   4.821  11.578
14478W        W79639  10.626  17.175   1.017
14479W        W79640  13.779   5.702   0.861
14480W        W79641   5.263  30.563  14.861
14481W        W79642  33.862   1.023  13.786
14482W        W79643   7.807  22.711   3.207
14483W        W79644  20.203  12.202   1.431
14484W        W79645  13.542  13.439  11.078
14485W        W79646   9.399  38.872  13.311
14486W        W79647  11.694  43.496   2.694
14487W        W79648   1.926  15.452   1.249
14488W        W79649  27.158  10.303  12.989
14489W        W79650  30.153  20.020  11.029
14490W        W79651  40.963   4.420   3.847
14491W        W79652  17.852   5.671  11.096
14492W        W79653   9.656  35.604  13.351
14493W        W79654  32.024  36.848  13.374
14494W        W79655  18.127  11.134   3.652
14495W        W79656  13.683  25.426   2.385
14496W        W79657  26.102  30.718   3.050
14497W        W79658  36.910  29.583   4.298
14498W        W79659   4.841  44.022  13.998
14499W        W79660   2.963   2.352   4.640
14500W        W79661  40.804   4.794   1.201
14501W        W79662  17.820  28.156   3.276
14502W        W79663  30.705  41.596  13.934
14503W        W79664   9.085  26.512   4.100
14504W        W79665  24.873  11.655   0.478
14505W        W79666  12.338  28.888   4.121
14506W        W79667  40.886  15.946  12.025
14507W        W79668  34.053  42.822  12.986
14508W        W79669  44.539   4.499  14.994
14509W        W79670  20.763  39.958   1.832
14510W        W79671   8.769  32.268   4.849
14511W        W79672   3.139  26.142  13.197
14512W        W79673   8.794  29.635   4.650
14513W        W79674  39.937  22.379  11.161
14514W        W79675   8.933  31.179  11.935
14515W        W79676   1.402   5.687   3.268
14516W        W79677  16.294  24.550   0.330
14517W        W79678  41.741  37.179  11.481
14518W        W79679  40.247  36.656  13.433
14519W        W79680  20.170  28.075   4.569
14520W        W79681  29.405   7.157  14.376
14521W        W79682  24.304  31.573  13.125
14522W        W79683  27.683  20.510  11.495
14523W        W79684  20.247   5.151   3.807
14524W        W79685  40.905  20.542   2.824
14525W        W79686  17.978  42.209  12.478
14526W        W79687  12.350  26.887   0.882
14527W        W79688   3.775  27.377  14.115
14528W        W79689  26.879  14.285   1.300
14529W        W79690  13.801  28.664  12.015
14530W        W79691  27.903  33.639  10.613
14531W        W79692  21.769  13.285  13.371
14532W        W79693   8.876  18.606   0.044
14533W        W79694   6.317  32.962   1.302
14534W        W79695   1.239   8.755  13.185
14535W        W79696  29.632  17.622  11.283
14536W        W79697  22.590   0.514  11.886
14537W        W79698  41.734  37.303  10.973
14538W        W79699   6.889  36.941  12.900
14539W        W79700  15.181  26.110  13.402
14540W        W79701  15.766  41.339   1.215
14541W        W79702  40.305  23.787   3.141
14542W        W79703  38.546   3.262  12.591
14543W        W79704  43.839  37.277   1.747
14544W        W79705  13.658  15.189  13.436
14545W        W79706  44.972  28.547   0.167
14546W        W79707  44.563   0.285  11.770
14547W        W79708  10.715  17.916  13.047
14548W        W79709  11.351  20.347  14.464
14549W        W79710  14.152  36.268   1.783
14550W        W79711  12.347  34.180   4.106
14551W        W79712  34.021  21.241   2.319
14552W        W79713   2.533   2.646  11.669
14553W        W79714  15.027  26.760   2.589
14554W        W79715   4.911  39.537   1.398
14555W        W79716  14.120   6.140   1.693
14556W        W79717   5.406  28.664  10.582
14557W        W79718  23.387  44.648  11.646
14558W        W79719  27.456  29.453   0.967
14559W        W79720  13.097  34.601  10.625
14560W        W79721  26.597   5.023   1.434
14561W        W79722  23.002  29.839   3.652
14562W        W79723  37.401  26.078   4.302
14563W        W79724  15.321   1.728   1.823
14564W        W79725  21.740  13.791  12.499
14565W        W79726  14.753  44.622   4.974
14566W        W79727  24.950  42.370  14.286
14567W        W79728  38.801  14.081   5.265
14568W        W79729  35.155  31.640   0.795
14569W        W79730  29.548  35.409  12.443
14570W        W79731  15.556  43.963  11.538
14571W        W79732  35.934  13.790   1.064
14572W        W79733  34.412   6.945  12.040
14573W        W79734  10.018  21.595  13.558
14574W        W79735   6.262  23.765  13.868
14575W        W79736   6.007  40.841   4.069
14576W        W79737  15.707  44.495   0.844
14577W        W79738   8.246  29.878   1.698
14578W        W79739  13.145  36.940   4.488
14579W        W79740  36.919   3.352  11.084
14580W        W79741  17.613  44.437   4.158
14581W        W79742  22.344  27.541  11.606
14582W        W79743  39.166   5.740  11.062
14583W        W79744  36.355  21.161  13.162
14584W        W79745  27.487  25.456  12.459
14585W        W79746  29.400   7.877  14.817
14586W        W79747  37.405  42.876   1.867
14587W        W79748   9.822   6.380   3.645
14588W        W79749  12.211   6.938  11.093
14589W        W79750  33.757  42.441  13.852
14590W        W79751   1.209  28.111   4.402
14591W        W79752   3.512   0.929  13.432
14592W        W79753  19.067  22.727   1.852
14593W        W79754   7.931   6.833   0.235
14594W        W79755  31.960  13.558  14.845
14595W        W79756  19.990   7.099  12.064
14596W        W79757  10.633  16.646   3.632
14597W        W79758  20.043  42.798  11.453
14598W        W79759  27.427  44.511   4.338
14599W        W79760  33.545   1.385  13.967
14600W        W79761  25.477  32.451  10.786
14601W        W79762  12.329  32.110   1.701
14602W        W79763  36.848  20.299  14.030
14603W        W79764  27.139  14.654  12.784
14604W        W79765  27.197  16.210   1.269
14605W        W79766   6.877  39.960   4.615
14606W        W79767   6.387  15.147  11.073
14607W        W79768  25.445  25.454   3.818
14608W        W79769  32.732  43.819  13.716
14609W        W79770  25.280   2.038   2.107
14610W        W79771  27.689  11.940   0.841
14611W        W79772   5.135  44.970   3.643
14612W        W79773  22.464  34.816   2.096
14613W        W79774  31.010   4.522   1.386
14614W        W79775  15.632  26.385  13.416
14615W        W79776  35.100  30.031   3.291
14616W        W79777   4.449   9.377  12.498
14617W        W79778  22.993  16.497  13.772
14618W        W79779  17.595  19.673  10.944
14619W        W79780  17.557  35.243  11.143
14620W        W79781  27.457  16.373   0.218
14621W        W79782  44.590  38.419   5.388
14622W        W79783   5.263  34.451  14.524
14623W        W79784   2.347  38.533   0.368
14624W        W79785  41.539  14.223  12.035
14625W        W79786  29.550  11.848  13.765
14626W        W79787  14.304  25.994   0.903
14627W        W79788  33.407   2.758   4.683
14628W        W79789  21.093  41.832  11.009
14629W        W79790  37.007  42.946   2.701
14630W        W79791   3.958  30.509   1.597
14631W        W79792  13.758  15.801   1.896
14632W        W79793  42.936  23.282  11.900
14633W        W79794  19.459   8.708   4.331
14634W        W79795  35.842  40.357   0.880
14635W        W79796  14.811  17.628  13.383
14636W        W79797   2.988  17.833  12.046
14637W        W79798  17.733  17.660  13.420
14638W        W79799  24.444   2.837  14.338
14639W        W79800  40.297  19.661  12.049
14640W        W79801  44.369  14.230   0.405
14641W        W79802  43.284  23.785  14.472
14642W        W79803  17.058   4.183   1.296
14643W        W79804  39.976   5.406   2.730
14644W        W79805  35.065  30.966   2.681
14645W        W79806   6.001  22.055  11.612
14646W        W79807  39.078   5.390  13.536
14647W        W79808  33.992   6.765   1.295
14648W        W79809  14.765  37.871   4.140
14649W        W79810  38.291   2.645   4.285
14650W        W79811  23.173   4.031  14.367
14651W        W79812   2.770  12.711  13.301
14652W        W79813  35.606  43.451  10.563
14653W        W79814  35.240  30.311   0.965
14654W        W79815   2.391  41.328  11.843
14655W        W79816  12.454   0.922  13.153
14656W        W79817  31.743  33.892  14.371
14657W        W79818  31.654  29.045   2.060
14658W        W79819  23.978  27.972   1.707
14659W        W79820   8.195  44.991   2.459
14660W        W79821  32.110  26.883   4.151
14661W        W79822  18.736  26.289   2.713
14662W        W79823  38.503  29.643   4.102
14663W        W79824  17.739  34.205  11.238
14664W        W79825  39.840  43.965   2.435
14665W        W79826  23.630  29.948   4.131
14666W        W79827  23.789   9.908   0.441
14667W        W79828  40.744   2.681   4.097
14668W        W79829  35.474   7.115   2.930
14669W        W79830  30.553  38.038  10.609
14670W        W79831  23.654  37.979   4.614
14671W        W79832  16.579  33.852   2.231
14672W        W79833   6.459  15.019  14.932
14673W        W79834  33.005   0.746  12.508
14674W        W79835  26.190  19.190   1.323
14675W        W79836  28.774  39.650  11.241
14676W        W79837  27.624  16.087   4.689
14677W        W79838  22.204   8.875  13.518
14678W        W79839  32.628  15.111  14.248
14679W        W79840  13.569  11.752   1.783
14680W        W79841  10.374   1.312   1.374
14681W        W79842  16.590  44.602   4.022
14682W        W79843   0.502  38.465  12.078
14683W        W79844  24.590  19.194  10.656
14684W        W79845  33.680  29.864   3.189
14685W        W79846  39.401  18.197   3.726
14686W        W79847   8.709  31.460   0.008
14687W        W79848  36.170   5.462   2.773
14688W        W79849  21.801  15.760   0.797
14689W        W79850  26.588  14.856   0.872
14690W        W79851  14.167  38.401   4.578
14691W        W79852  25.262   7.669  11.673
14692W        W79853  18.821  37.354  11.662
14693W        W79854  39.900  15.243  11.769
14694W        W79855   5.439  23.474  12.408
14695W        W79856  40.089   8.654  13.305
14696W        W79857  33.977  36.876   0.858
14697W        W79858  16.700  17.989  14.546
14698W        W79859   0.577  40.996   5.084
14699W        W79860  25.171  35.260  12.094
14700W        W79861  40.117  41.035  12.021
14701W        W79862   8.197  26.940  12.081
14702W        W79863  29.028  23.524  14.964
14703W        W79864  36.532  37.613   2.846
14704W        W79865  13.041  32.430   3.758
14705W        W79866  21.082  35.422  10.757
14706W        W79867  14.027  31.878   3.121
14707W        W79868   3.124  20.183   4.549
14708W        W79869  20.174  22.134   4.730
14709W        W79870  15.691  37.046  11.856
14710W        W79871   5.366  35.426   0.628
14711W        W79872  32.962   7.920   1.230
14712W        W79873  28.452  42.045  14.091
14713W        W79874  25.462  21.994  12.068
14714W        W79875   7.356  42.922   0.034
14715W        W79876  11.662  22.189  10.750
14716W        W79877   9.929   9.236   0.438
14717W        W79878  18.075   1.174   1.870
14718W        W79879  31.168  31.479   0.015
14719W        W79880   0.690  29.228  11.103
14720W        W79881  30.435   5.632   4.112
14721W        W79882   0.777   4.988  12.339
14722W        W79883  11.585  21.137   0.344
14723W        W79884  24.179  34.319  13.044
14724W        W79885   9.149   8.905  11.202
14725W        W79886  25.959  14.074   2.700
14726W        W79887   4.894  11.900   0.457
14727W        W79888   2.266  34.442  11.904
14728W        W79889  33.277   1.885  11.917
14729W        W79890  29.686  35.399  10.742
14730W        W79891  27.991   3.202  12.645
14731W        W79892  22.686   5.199  10.710
14732W        W79893  32.520   7.822   2.308
14733W        W79894  39.387  23.681  12.830
14734W        W79895  35.520  16.654  13.492
14735W        W79896  24.100   6.803  12.992
14736W        W79897  22.763  10.760   0.486
14737W        W79898  35.893   5.238   0.306
14738W        W79899   0.412  22.445  13.470
14739W        W79900  15.715   1.459   2.587
14740W        W79901  30.858   6.289   4.493
14741W        W79902  12.142  11.358   3.453
14742W        W79903  38.615  21.211   0.922
14743W        W79904  26.375   1.966   0.761
14744W        W79905   1.474  39.027   3.532
14745W        W79906  22.727  10.837  11.729
14746W        W79907  16.499  13.083  11.119
14747W        W79908  44.724  41.050  11.946
14748W        W79909  44.089  23.758  14.918
14749W        W79910  16.499   6.356   1.291
14750W        W79911  44.223  27.670  13.516
14751W        W79912   9.581   8.238  12.791
14752W        W79913  41.329   9.884   3.759
14753W        W79914   0.760  10.694   1.491
14754W        W79915  44.507  10.635   4.713
14755W        W79916  22.669  33.072  11.623
14756W        W79917  36.803  21.639  12.393
14757W        W79918  34.448  34.855   0.902
14758W        W79919  39.374  25.459   2.925
14759W        W79920  17.585  23.732  10.830
14760W        W79921  22.046  32.283   0.609
14761W        W79922  12.167  34.673  10.448
14762W        W79923  44.784  15.844   2.176
14763W        W79924  25.130  13.425  14.310
14764W        W79925  25.562  30.694  14.069
14765W        W79926  32.680  29.153   0.331
14766W        W79927   5.410  12.503   4.320
14767W        W79928  25.649   5.679   2.858
14768W        W79929  24.912  13.318  11.168
14769W        W79930  23.700  13.470   2.577
14770W        W79931   3.089  14.037  11.801
14771W        W79932  19.799  24.203   0.373
14772W        W79933  41.489   3.652   3.166
14773W        W79934  22.472  10.211   2.187
14774W        W79935   0.252   6.896  11.378
14775W        W79936   7.322   7.787   0.280
14776W        W79937   5.845  14.824   4.215
14777W        W79938  41.357  32.911  13.394
14778W        W79939  39.962  41.743   0.918
14779W        W79940  38.378  17.684  14.505
14780W        W79941   9.578  33.256  13.986
14781W        W79942  34.847  15.894   2.796
14782W        W79943  19.777  27.068   4.385
14783W        W79944  26.698  42.371   2.505
14784W        W79945  20.302   8.102   4.089
14785W        W79946  35.450  37.270  12.975
14786W        W79947   1.160  26.820  14.436
14787W        W79948  38.640  27.537   4.412
14788W        W79949   8.048   3.818  12.830
14789W        W79950  10.756  17.271   4.355
14790W        W79951  25.251   7.764   3.674
14791W        W79952  21.653  21.135  11.212
14792W        W79953  20.691  12.125  11.635
14793W        W79954  26.656  16.614  10.103
14794W        W79955  23.101  38.832  11.933
14795W        W79956  43.550  35.169  13.973
14796W        W79957   4.274   6.230   2.756
14797W        W79958  13.136  17.544  13.752
14798W        W79959  33.372  19.144   2.798
14799W        W79960  16.583  34.135   1.314
14800W        W79961  35.869   8.500   4.521
14801W        W79962  36.930   6.342   0.733
14802W        W79963   3.837  18.236   0.631
14803W        W79964  33.481  11.664   4.714
14804W        W79965  43.615  19.642   2.127
14805W        W79966  40.442  10.828  13.326
14806W        W79967   8.141  15.136  14.459
14807W        W79968  29.243  10.313   0.854
14808W        W79969   3.578  38.444  14.889
14809W        W79970  41.480  37.869  13.028
14810W        W79971  36.025  20.847   0.771
14811W        W79972  39.286  14.084  12.439
14812W        W79973   4.464   0.214   0.422
14813W        W79974   5.483  15.038  10.821
14814W        W79975  15.822  23.702   1.902
14815W        W79976   1.977  41.001   4.986
14816W        W79977  35.864  14.875   0.850
14817W        W79978  19.159  36.101  11.570
14818W        W79979   3.955   0.268   1.502
14819W        W79980   6.248   3.296  13.353
14820W        W79981  13.701   9.428  14.007
14821W        W79982  18.733  23.963  13.290
14822W        W79983  42.298  33.861   4.159
14823W        W79984  21.110  26.051   0.950
14824W        W79985  35.087  10.639  11.728
14825W        W79986  43.773  41.174   1.437
14826W        W79987  34.914  25.777   0.104
14827W        W79988   0.219  18.086  13.344
14828W        W79989  19.440  24.676   9.920
14829W        W79990   3.692  29.274   2.437
14830W        W79991  43.838  28.498  11.900
14831W        W79992  19.374  36.911   3.514
14832W        W79993  34.723  30.620  12.083
14833W        W79994  21.564  36.614   2.167
14834W        W79995  29.868  34.901  13.962
14835W        W79996  41.378   8.877   3.789
14836W        W79997  17.308  43.399   3.641
14837W        W79998  17.581  30.988  11.994
14838W        W79999  11.307  12.628  11.622
14839W        W80000  15.275   3.429  14.033
14840W        W80001   5.421   4.278   3.140
14841W        W80002  16.262  43.644   0.400
14842W        W80003  33.004   7.381  14.424
14843W        W80004  17.033   7.131  10.697
14844W        W80005  11.357  16.796   4.213
14845W        W80006  33.942  27.246   0.863
14846W        W80007  13.239   6.498   3.414
14847W        W80008  13.149  41.348   4.223
14848W        W80009  43.957  12.812   4.612
14849W        W80010  23.617  10.799  10.952
14850W        W80011  20.745  23.660  13.325
14851W        W80012  24.619  20.785   1.806
14852W        W80013  32.025  25.981   3.234
14853W        W80014   0.389  16.848   0.778
14854W        W80015   8.130  23.461   0.090
14855W        W80016  44.291   7.782   0.358
14856W        W80017  23.203  18.215   2.669
14857W        W80018   4.936  26.217  14.941
14858W        W80019  20.065   8.382  12.181
14859W        W80020  35.510  41.771   1.302
14860W        W80021   5.393   8.734   3.991
14861W        W80022  28.024  42.971   2.327
14862W        W80023  43.805   6.180   4.664
14863W        W80024  26.763   4.186  12.068
14864W        W80025  32.215  22.060  14.944
14865W        W80026  35.400   4.483  11.854
14866W        W80027  25.986  33.085  12.839
14867W        W80028   9.806  37.569   3.276
14868W        W80029   4.555  41.250  11.019
14869W        W80030  35.931  33.910  11.239
14870W        W80031  40.836  42.392   3.587
14871W        W80032  31.438  18.737   3.234
14872W        W80033   5.307   1.920   2.875
14873W        W80034  34.901  29.603   2.810
14874W        W80035  11.684  29.202   1.474
14875W        W80036  13.542  32.482   1.652
14876W        W80037  20.903  40.881   2.255
14877W        W80038   2.848   5.756  12.331
14878W        W80039  41.973   2.801  11.991
14879W        W80040   4.555  12.688  14.342
14880W        W80041  24.654   0.207   1.904
14881W        W80042   6.168  22.792   0.793
14882W        W80043  24.660   7.169   4.621
14883W        W80044  17.052  27.011  13.538
14884W        W80045  33.560  21.320   2.136
14885W        W80046  11.156  39.750   4.504
14886W        W80047   9.211   2.959   3.809
14887W        W80048  36.390  12.797  14.230
14888W        W80049  12.386   0.742   4.941
14889W        W80050  15.263  23.921   2.739
14890W        W80051  19.325  11.873   1.489
14891W        W80052  15.063  44.413   4.585
14892W        W80053  39.860  29.545   1.831
14893W        W80054  37.138  32.602  14.765
14894W        W80055  24.886  23.345   1.278
14895W        W80056  26.245  11.270  13.122
14896W        W80057  43.912  37.456  12.155
14897W        W80058  36.548  41.422   3.175
14898W        W80059  25.125  34.079   3.363
14899W        W80060  19.337  39.967   0.829
14900W        W80061  30.329  26.966   4.577
14901W        W80062   7.677  14.363  11.134
14902W        W80063  14.229   1.916   1.160
14903W        W80064   7.872  14.134   2.447
14904W        W80065   0.758  38.543   2.399
14905W        W80066  16.437  22.303  12.451
14906W        W80067  22.091   0.050   4.072
14907W        W80068   5.968  26.536  12.456
14908W        W80069  44.391   5.614  14.057
14909W        W80070  12.650  22.532   1.894
14910W        W80071   9.049  14.285   3.296
14911W        W80072   0.914  29.478  14.709
14912W        W80073  40.865  41.012  13.898
14913W        W80074  15.391  32.296  12.662
14914W        W80075  16.123  10.004   2.442
14915W        W80076  38.899  22.604   4.037
14916W        W80077  18.791  43.139   0.024
14917W        W80078  38.861  40.321  10.692
14918W        W80079  35.421  29.745  11.547
14919W        W80080  18.164  24.686   0.765
14920W        W80081   8.599   4.971   4.041
14921W        W80082   3.820   2.791   3.605
14922W        W80083  30.894  41.326  11.731
14923W        W80084  30.038  24.886  14.366
14924W        W80085  26.307  40.894   2.419
14925W        W80086  36.916  42.687   3.148
14926W        W80087  18.521  38.073  14.318
14927W        W80088  41.381  42.323   1.205
14928W        W80089  18.606  39.245  14.715
14929W        W80090  35.974  40.931   4.091
14930W        W80091  18.804  35.501  14.319
14931W        W80092  15.405  33.450   2.631
14932W        W80093  13.160   3.005  10.989
14933W        W80094  11.177  23.484   1.347
14934W        W80095   8.152  19.377  14.311
14935W        W80096  13.784  12.242  14.333
14936W        W80097  40.054  33.457   2.927
14937W        W80098  44.397  36.044  14.942
14938W        W80099  12.079  32.242  14.452
14939W        W80100  36.742   9.333  11.606
14940W        W80101  20.104   7.796   2.137
14941W        W80102  44.956  16.496  11.321
14942W        W80103  43.838  32.959  13.453
14943W        W80104  40.309   5.493  13.064
14944W        W80105   3.338  22.307   0.331
14945W        W80106  32.118  24.920   2.343
14946W        W80107  34.151  31.688  13.218
14947W        W80108  36.279  10.682  14.773
14948W        W80109  18.008  41.548   4.624
14949W        W80110  31.791  17.373  13.080
14950W        W80111  11.815  19.846  11.085
14951W        W80112  16.690  23.070  14.578
14952W        W80113  16.341  37.464   5.006
14953W        W80114   0.348  20.381   1.385
14954W        W80115  32.044  24.037   0.373
14955W        W80116  42.806   8.056  14.969
14956W        W80117  28.008  20.308   4.109
14957W        W80118  43.991  39.159   3.297
14958W        W80119  16.377  20.805   0.927
14959W        W80120  29.127  14.575  11.986
14960W        W80121  39.727  15.854   3.864
14961W        W80122   6.311  32.887   0.301
14962W        W80123   3.800   8.761  13.634
14963W        W80124  25.288   2.322   4.955
14964W        W80125  36.879  19.301  11.315
14965W        W80126  22.653  25.382   1.693
14966W        W80127  19.491   2.619  12.490
14967W        W80128  21.027  33.058   1.334
14968W        W80129  20.337  26.576  12.533
14969W        W80130   7.568  28.016   1.967
14970W        W80131  20.298  11.864  12.843
14971W        W80132  36.070  40.649   2.223
14972W        W80133  39.044   8.976   4.115
14973W        W80134   1.669  13.669  14.874
14974W        W80135  39.588  18.747   2.685
14975W        W80136  38.908   5.268  10.173
14976W        W80137  31.046  21.470   3.509
14977W        W80138  34.424  35.298  12.791
14978W        W80139  29.629  22.276  13.777
14979W        W80140  28.700  32.702   2.383
14980W        W80141  38.601  13.395  13.286
14981W        W80142  18.438  22.813  14.954
14982W        W80143  24.682  35.833   4.110
14983W        W80144  19.901   1.708   0.479
14984W        W80145  18.072  19.613   3.629
14985W        W80146  36.125   8.901   3.107
14986W        W80147  36.360  44.677  13.892
14987W        W80148  27.313   1.787   0.455
14988W        W80149   1.197  27.976  11.089
14989W        W80150   1.192   5.317  11.118
14990W        W80151  21.303  22.548   0.818
14991W        W80152  15.742   6.953  13.893
14992W        W80153   5.382  39.153   0.724
14993W        W80154  41.778  42.720   1.845
14994W        W80155   7.267  21.813   0.840
14995W        W80156  32.330  42.323   2.320
14996W        W80157  15.730   9.385  12.405
14997W        W80158  33.983   0.714   0.641
14998W        W80159  44.959   8.376  14.914
14999W        W80160  36.292  22.937   1.227
15000W        W80161  36.770  29.678   0.216
15001W        W80162   9.058  19.253  14.111
15002W        W80163  25.048  34.539   1.010
15003W        W80164   6.443  18.300  14.494
15004W        W80165   9.648  35.829   2.666
15005W        W80166  42.462  36.612  12.352
15006W        W80167  10.384  30.999   3.720
15007W        W80168  44.478   3.361   1.885
15008W        W80169  12.804  20.922   0.933
15009W        W80170  41.939  14.017  11.097
15010W        W80171  14.822   4.941  11.368
15011W        W80172  38.350   7.266  14.056
15012W        W80173  31.936  10.444  11.593
15013W        W80174   8.146  22.115   3.350
15014W        W80175   6.336   7.382   4.078
15015W        W80176  14.635  41.019   3.711
15016W        W80177  12.592  21.099  11.667
15017W        W80178  27.540  10.135  14.216
15018W        W80179  38.777  10.033   3.166
15019W        W80180  31.500  29.750  13.757
15020W        W80181  30.134  29.859   1.388
15021W        W80182  42.068  36.076   3.761
15022W        W80183  10.724   6.037   1.287
15023W        W80184  27.188  11.881   1.001
15024W        W80185  25.463  15.723  14.621
15025W        W80186  10.368  37.909  11.099
15026W        W80187  36.418   8.470   3.158
15027W        W80188   3.022  25.801   1.621
15028W        W80189  10.121  42.285  12.016
15029W        W80190  14.309  35.347   1.881
15030W        W80191  20.073  20.572  13.001
15031W        W80192  15.776   2.937   1.245
15032W        W80193  22.786   3.220   4.086
15033W        W80194   3.254  24.653  13.883
15034W        W80195   6.842  35.033   2.333
15035W        W80196  42.471  34.910   4.152
15036W        W80197  31.655  20.352   3.006
15037W        W80198  43.419  33.185  13.649
15038W        W80199  44.979   9.088   2.780
15039W        W80200  13.849  21.671  12.497
15040W        W80201  33.732   3.865  12.965
15041W        W80202  44.958  44.800   4.566
15042W        W80203  40.941  27.653  11.492
15043W        W80204   0.320  40.375  12.457
15044W        W80205  18.202  27.581   4.660
15045W        W80206  25.732  44.889   3.134
15046W        W80207   9.902  44.850  14.518
15047W        W80208  19.587   4.015  13.902
15048W        W80209   2.975  37.856  14.374
15049W        W80210  39.254   9.351   4.732
15050W        W80211  29.192  42.601  13.854
15051W        W80212  13.222  14.805  14.814
15052W        W80213   9.323  22.424   4.571
15053W        W80214   7.157  40.914   0.491
15054W        W80215  15.161  27.737  10.963
15055W        W80216  43.129  24.771  11.119
15056W        W80217  31.278  31.764   2.864
15057W        W80218   5.628  31.078   4.194
15058W        W80219  28.868  30.173   0.947
15059W        W80220  42.057  36.964   3.267
15060W        W80221  44.393  24.511   3.684
15061W        W80222  37.156   9.386   1.749
15062W        W80223  35.721  36.936  10.984
15063W        W80224   6.741   8.498   0.901
15064W        W80225   6.228   8.414  14.799
15065W        W80226   5.982   9.219   2.828
15066W        W80227  12.319  20.687   4.519
15067W        W80228  10.148   4.014   2.917
15068W        W80229  29.652  18.180  14.087
15069W        W80230  22.764   2.816  13.111
15070W        W80231  29.015  33.758  13.012
15071W        W80232   2.420  44.500   2.363
15072W        W80233  28.713  31.631  12.519
15073W        W80234  11.772  33.996  12.187
15074W        W80235  36.977  39.854  11.560
15075W        W80236  27.798   5.098   4.954
15076W        W80237  42.860  25.548   1.561
15077W        W80238  19.590   7.390   3.229
15078W        W80239  10.531  24.806   0.843
15079W        W80240  41.114   2.934  11.648
15080W        W80241  40.018  43.526   1.977
15081W        W80242  10.819  22.528  14.813
15082W        W80243  24.733  23.910   4.511
15083W        W80244   4.336  28.837  13.964
15084W        W80245   8.327  22.530  13.335
15085W        W80246   9.420   9.246   1.352
15086W        W80247  34.369   6.981   4.523
15087W        W80248   7.968   9.459  11.280
15088W        W80249  13.665   6.039   4.248
15089W        W80250  34.065  15.277  13.288
15090W        W80251  28.105   2.075   3.250
15091W        W80252  20.540  22.483   4.665
15092W        W80253   4.854  43.955  13.049
15093W        W80254  23.253   0.528   4.140
15094W        W80255  10.063  40.931   2.867
15095W        W80256   7.232  28.414   0.282
15096W        W80257  28.476  35.315  13.035
15097W        W80258  19.125   8.449   1.428
15098W        W80259  15.323  36.446  12.910
15099W        W80260   6.706  33.633  10.659
15100W        W80261   1.767   7.154   3.681
15101W        W80262   3.654  39.146   0.037
15102W        W80263  18.469  30.117   1.809
15103W        W80264  30.682   1.798   2.437
15104W        W80265  24.705  13.049  12.194
15105W        W80266  24.505  21.585   4.104
15106W        W80267   2.877  44.220   3.086
15107W        W80268  35.510  10.458  12.481
15108W        W80269  20.946  11.222  14.597
15109W        W80270  15.906  15.597   3.266
15110W        W80271   9.899  18.994   2.689
15111W        W80272   2.535   4.364   4.971
15112W        W80273  25.979  42.043  14.952
15113W        W80274  38.875  21.208  13.711
15114W        W80275  36.647  29.530   3.702
15115W        W80276  13.149  17.067   1.879
15116W        W80277  32.902  36.429  13.566
15117W        W80278  19.081  34.434   3.729
15118W        W80279  11.388  34.975  13.032
15119W        W80280  34.837  36.335   4.340
15120W        W80281  21.151  34.462   4.253
15121W        W80282  15.371   5.752   2.691
15122W        W80283  33.633   7.019  14.838
15123W        W80284  27.528  21.280  12.159
15124W        W80285  22.572  34.100  12.500
15125W        W80286  43.367  14.691   3.926
15126W        W80287   2.264   1.788   4.860
15127W        W80288   7.772   4.208   4.683
15128W        W80289  43.760  21.203  11.628
15129W        W80290  14.270   9.399  11.577
15130W        W80291  17.096  27.124  13.022
15131W        W80292  29.456  14.548  12.411
15132W        W80293  26.115   9.893  13.460
15133W        W80294  28.588  20.742  13.043
15134W        W80295   9.803  25.220  13.003
15135W        W80296  32.034   0.472  14.242
15136W        W80297  14.872   8.651  13.913
15137W        W80298  13.305  21.224  14.912
15138W        W80299  35.110  20.583   2.705
15139W        W80300  40.248  33.113   0.262
15140W        W80301   6.121   0.783  11.573
15141W        W80302   7.747  36.572  11.377
15142W        W80303  40.393  31.086   0.044
15143W        W80304  37.124  40.648   4.165
15144W        W80305  30.103   1.285   1.393
15145W        W80306  43.049  39.463   3.285
15146W        W80307   7.932  18.661   3.771
15147W        W80308  21.697  25.783  11.484
15148W        W80309  31.187  36.434  11.640
15149W        W80310  41.084   0.399   0.020
15150W        W80311  22.041  28.880  12.053
15151W        W80312  17.739  15.335  14.485
15152W        W80313  16.819  25.544  11.630
15153W        W80314   0.434  34.878   3.440
15154W        W80315   1.366  18.142   3.170
15155W        W80316  44.590  39.826   0.982
15156W        W80317  44.385  25.045  14.039
15157W        W80318   7.419  24.994   1.407
15158W        W80319  12.757  28.882  10.797
15159W        W80320  28.473  26.731  13.236
15160W        W80321   7.529  13.159  14.308
15161W        W80322  33.843   6.730  11.654
15162W        W80323  21.386  43.436   0.659
15163W        W80324  32.408   5.926   1.816
15164W        W80325  37.618  33.871  14.620
15165W        W80326  36.192   1.709  14.725
15166W        W80327  38.928   0.826  10.794
15167W        W80328  39.256  18.216   2.754
15168W        W80329  30.620   9.730   1.331
15169W        W80330  35.978  44.511  14.792
15170W        W80331  15.098   5.617   2.257
15171W        W80332  43.302  25.994  11.093
15172W        W80333  10.080  39.528   1.735
15173W        W80334   3.739  42.894   0.270
15174W        W80335  19.646  29.566  14.851
15175W        W80336  14.572  28.990   0.196
15176W        W80337  33.649  29.026  10.744
15177W        W80338   8.351  44.860  11.077
15178W        W80339  44.732  33.190  14.838
15179W        W80340  26.899  24.285   5.384
15180W        W80341  23.809  36.779  11.248
15181W        W80342  39.971  23.307   2.397
15182W        W80343  11.301  31.446   0.418
15183W        W80344  16.164   3.014  14.677
15184W        W80345  21.409  15.623  10.948
15185W        W80346  31.827   3.894   1.499
15186W        W80347  17.544  33.455  12.524
15187W        W80348  43.411  10.474   4.560
15188W        W80349   1.041  25.247   1.808
15189W        W80350  13.811  30.249   2.146
15190W        W80351  42.793  40.473  11.589
15191W        W80352  25.776  36.004  10.623
15192W        W80353  36.122   5.491   1.684
15193W        W80354  16.789  20.546  12.182
15194W        W80355  42.768   3.217   3.050
15195W        W80356  18.602   9.374  13.121
15196W        W80357  23.289   3.287  13.581
15197W        W80358  44.796   1.447  14.449
15198W        W80359  36.640   2.365   0.730
15199W        W80360  31.625  25.474  10.974
15200W        W80361  21.762  24.656  13.486
15201W        W80362  37.418  41.974  13.375
15202W        W80363  13.525  17.826  13.464
15203W        W80364   0.833  30.924  14.848
15204W        W80365  23.801  40.566  13.378
15205W        W80366   4.858  31.148  11.078
15206W        W80367  20.861  25.814   0.548
15207W        W80368  39.460  15.495  10.650
15208W        W80369  19.724  28.146   1.889
15209W        W80370  14.062  20.552   2.860
15210W        W80371  37.068   8.792   4.515
15211W        W80372  14.537  29.136   3.386
15212W        W80373  30.160  40.731   2.580
15213W        W80374  28.951  13.654   3.041
15214W        W80375  22.395  21.289   9.963
15215W        W80376  33.328  32.943  14.980
15216W        W80377  30.683  18.787  13.088
15217W        W80378  23.588   0.667  12.061
15218W        W80379  23.475   4.431  13.904
15219W        W80380  16.706   2.393  10.645
15220W        W80381   3.724  21.532  14.307
15221W        W80382  22.705  26.376   1.768
15222W        W80383  20.286  41.556  10.808
15223W        W80384  13.090  28.279  13.791
15224W        W80385   6.357  21.663  14.838
15225W        W80386  10.556  17.174  13.503
15226W        W80387   7.401  34.307   4.137
15227W        W80388  26.478   8.778   4.359
15228W        W80389  11.710   3.315   3.525
15229W        W80390   3.130  25.790  10.519
15230W        W80391   4.175  14.369   4.598
15231W        W80392  26.973  23.296   3.645
15232W        W80393  23.540  40.881   3.789
15233W        W80394  43.307  44.739   4.152
15234W        W80395   5.706  41.524  10.902
15235W        W80396  41.962  43.305  13.491
15236W        W80397   0.807   6.238   1.369
15237W        W80398   9.317   2.959  14.618
15238W        W80399  20.138  36.368   2.713
15239W        W80400  39.530  14.284   2.896
15240W        W80401  12.312   9.800   1.741
15241W        W80402  14.019  22.607  13.428
15242W        W80403   5.247   6.955  10.667
15243W        W80404  23.691  21.111   4.063
15244W        W80405  38.575  11.480  11.902
15245W        W80406  12.298  29.690   2.746
15246W        W80407  43.988  15.793  11.100
15247W        W80408  23.945  32.087  14.962
15248W        W80409   3.335  12.631  13.094
15249W        W80410  14.690  32.051   2.886
15250W        W80411  39.796  18.367  12.195
15251W        W80412  20.335  21.309  14.706
15252W        W80413  12.102  40.736  12.403
15253W        W80414  17.883  24.178   4.799
15254W        W80415   1.222  28.038   4.899
15255W        W80416   3.160  29.003  14.441
15256W        W80417  12.125  12.475   0.988
15257W        W80418   9.849  31.122  10.940
15258W        W80419  44.881  32.306   2.325
15259W        W80420  37.838  23.759  12.111
15260W        W80421  30.856  23.966   0.335
15261W        W80422   5.980  43.316   0.849
15262W        W80423  43.310  40.330   0.833
15263W        W80424  11.138   4.260  12.812
15264W        W80425   2.487  38.560   4.574
15265W        W80426  28.151  31.130  11.948
15266W        W80427   6.948   7.387  12.529
15267W        W80428  40.626  39.594   3.597
15268W        W80429  33.488   0.192  10.965
15269W        W80430  29.541  29.659  13.391
15270W        W80431  41.090  22.216  14.479
15271W        W80432  27.553  39.545  11.987
15272W        W80433  42.820  13.771  13.443
15273W        W80434  23.744  43.463  13.201
15274W        W80435   1.916  16.505  10.647
15275W        W80436   3.002   2.889  14.885
15276W        W80437  13.241  40.169   1.963
15277W        W80438  29.397  25.161   0.485
15278W        W80439  16.556  23.727  14.810
15279W        W80440  13.327  25.874   0.753
15280W        W80441  12.857  41.125  14.930
15281W        W80442   1.378  28.473   1.988
15282W        W80443   0.800  44.422   2.235
15283W        W80444  40.373   7.692  13.596
15284W        W80445  44.489  40.830   1.861
15285W        W80446   2.042  14.810  13.955
15286W        W80447  20.750  37.670  10.343
15287W        W80448   9.345  14.575  12.785
15288W        W80449  34.737  35.451   2.907
15289W        W80450  30.648   5.020  13.469
15290W        W80451  29.245   2.319  11.230
15291W        W80452   4.885   5.410  11.507
15292W        W80453  22.472  35.447   1.482
15293W        W80454  32.513   9.728   0.327
15294W        W80455  14.841  18.629   1.966
15295W        W80456  18.767  16.650  12.189
15296W        W80457  12.738   3.231  11.201
15297W        W80458  41.395  12.145   1.804
15298W        W80459   3.255  31.990  12.553
15299W        W80460  19.031  28.686   2.783
15300W        W80461  32.696   6.407  14.337
15301W        W80462  34.289  19.826   4.052
15302W        W80463  44.359  11.600   2.304
15303W        W80464   5.277   6.790   3.997
15304W        W80465   8.209  11.601  14.667
15305W        W80466  25.844  37.451  10.716
15306W        W80467   0.398   8.947  11.097
15307W        W80468  14.611  33.045   4.308
15308W        W80469  33.888   0.502  12.900
15309W        W80470  42.927  17.650  11.655
15310W        W80471  37.373  44.975   2.278
15311W        W80472  12.653   3.053  14.309
15312W        W80473  19.238  17.757   4.191
15313W        W80474  37.060  22.371   1.798
15314W        W80475  15.819  30.815   2.062
15315W        W80476  28.066  43.844   0.919
15316W        W80477   8.706  32.864  14.938
15317W        W80478   6.113  12.724   4.991
15318W        W80479  41.675   0.019   0.111
15319W        W80480   5.721  25.234  11.137
15320W        W80481  21.495  10.229   1.398
15321W        W80482   6.728  37.722   2.857
15322W        W80483  30.257  19.127  11.346
15323W        W80484  12.082   9.034  14.800
15324W        W80485   5.100   2.533   1.738
15325W        W80486  40.020  42.051  12.801
15326W        W80487  18.568  30.625  11.300
15327W        W80488  30.076  21.678  10.707
15328W        W80489  21.758  35.842  10.538
15329W        W80490  23.480  10.783   2.834
15330W        W80491  32.811   9.215  13.957
15331W        W80492  27.675  34.230   0.239
15332W        W80493  43.853  26.150   0.523
15333W        W80494  16.620  44.569  11.645
15334W        W80495  34.566  35.798   0.444
15335W        W80496  34.656  38.279  13.908
15336W        W80497   6.723  38.408   4.640
15337W        W80498  19.035  16.120  13.791
15338W        W80499  12.352  34.950   3.688
15339W        W80500  28.638   7.012  14.220
15340W        W80501  31.207  17.132   0.683
15341W        W80502  25.721  13.083   1.818
15342W        W80503  37.805  22.091   0.245
15343W        W80504  40.250   2.242   3.287
15344W        W80505  43.887  28.730   2.857
15345W        W80506   2.159  36.027   3.861
15346W        W80507  37.088  34.145  12.625
15347W        W80508   5.700  35.602  10.627
15348W        W80509   8.905   7.823  14.921
15349W        W80510   9.442  27.232  12.435
15350W        W80511  28.227  17.136   2.808
15351W        W80512  20.818  33.650  10.728
15352W        W80513  40.786   4.802  13.093
15353W        W80514  25.510  24.388   0.653
15354W        W80515   6.869  24.975  11.455
15355W        W80516  33.566  30.673   2.258
15356W        W80517   2.480  15.061   4.163
15357W        W80518   6.863  42.790  14.079
15358W        W80519  20.093  36.592   0.301
15359W        W80520  12.145  21.112  11.410
15360W        W80521  11.828  43.080   2.422
15361W        W80522  26.601   5.161  11.057
15362W        W80523  39.271  42.776   2.668
15363W        W80524  21.147   8.263   3.726
15364W        W80525   0.500  27.091   4.056
15365W        W80526  33.934   4.914  12.196
15366W        W80527  20.014  32.688   3.111
15367W        W80528   7.874  31.772   0.035
15368W        W80529  40.815  16.056   0.748
15369W        W80530   1.222  18.351  14.906
15370W        W80531   9.524  12.403  11.186
15371W        W80532  43.355   0.166   1.372
15372W        W80533  19.676   7.316  14.389
15373W        W80534   6.641   4.467   1.815
15374W        W80535  42.012  33.932   0.463
15375W        W80536  30.786  32.527  13.864
15376W        W80537  43.174  22.512   0.275
15377W        W80538  35.240  33.548   4.519
15378W        W80539  13.427  27.589   4.816
15379W        W80540  16.381  14.069   5.024
15380W        W80541  23.054   9.751  11.119
15381W        W80542  19.683  36.065  11.671
15382W        W80543   5.335  24.621   1.788
15383W        W80544  11.785  35.433   2.084
15384W        W80545   2.894  15.264  14.124
15385W        W80546   3.468  16.148   3.205
15386W        W80547  36.435  28.638  11.945
15387W        W80548  41.231  33.917  13.327
15388W        W80549  30.813  41.339  12.992
15389W        W80550   2.998  28.184   2.394
15390W        W80551  33.969  35.883  13.044
15391W        W80552  21.812   5.884  11.783
15392W        W80553  26.614  19.594  10.532
15393W        W80554   9.697   7.918  13.460
15394W        W80555   2.693  34.991  11.471
15395W        W80556  36.972  32.392  11.095
15396W        W80557  27.651  33.041   4.391
15397W        W80558  25.938  34.716   4.813
15398W        W80559  27.276  33.383   3.228
15399W        W80560  13.777  31.022   2.760
15400W        W80561  29.942  38.910   2.488
15401W        W80562  34.707  42.026  13.592
15402W        W80563   3.091  10.675  13.839
15403W        W80564  21.054  27.618   1.759
15404W        W80565   4.791  10.404  11.076
15405W        W80566  37.781   6.578   2.762
15406W        W80567  27.140  26.044   0.234
15407W        W80568  32.928  16.040   3.622
15408W        W80569  42.543  40.558  14.476
15409W        W80570  39.515  38.270  13.951
15410W        W80571   9.822  24.593   4.430
15411W        W80572  41.662  29.384   1.677
15412W        W80573  35.613  27.279  14.004
15413W        W80574  19.262  10.162   2.798
15414W        W80575   0.049  26.198  13.868
15415W        W80576   5.409  28.843   1.665
15416W        W80577  42.265  13.798   2.145
15417W        W80578  24.196  34.479  13.918
15418W        W80579  24.209  24.542  12.882
15419W        W80580  14.141  43.939   4.034
15420W        W80581  19.115  42.836  14.778
15421W        W80582  44.394  33.335   1.321
15422W        W80583   8.720  37.965   2.772
15423W        W80584   0.900   6.928   1.807
15424W        W80585  30.627  22.004   0.627
15425W        W80586   6.276  41.546  12.574
15426W        W80587  12.165  33.851  12.954
15427W        W80588  34.017  37.429  12.598
15428W        W80589  37.022  18.491  11.112
15429W        W80590  42.096  30.658  10.303
15430W        W80591  43.296  15.692  13.412
15431W        W80592   0.019   8.507   2.232
15432W        W80593  40.777   2.397  13.608
15433W        W80594  19.676  42.548  11.716
15434W        W80595  11.706  21.826   2.775
15435W        W80596  12.781   0.227   4.137
15436W        W80597  24.946   6.689  12.122
15437W        W80598   2.900  15.998  12.491
15438W        W80599  33.469  34.921  14.502
15439W        W80600  37.895  14.329  14.756
15440W        W80601  19.172  29.403  14.067
15441W        W80602   5.572   4.652  11.619
15442W        W80603  18.263  27.513   0.310
15443W        W80604  43.450  22.467  14.837
15444W        W80605  37.495   8.883  10.807
15445W        W80606  23.086  10.424   1.810
15446W        W80607  18.805  20.501   3.215
15447W        W80608  41.465  43.101  14.619
15448W        W80609  31.519  35.603  13.488
15449W        W80610  35.159  19.034   3.244
15450W        W80611  21.036  34.472  12.046
15451W        W80612  32.610  17.770  14.870
15452W        W80613  27.123  38.843  14.403
15453W        W80614  29.179  28.187   0.347
15454W        W80615   4.659  26.302   1.778
15455W        W80616  33.085  26.349  13.298
15456W        W80617  16.420  41.235  14.040
15457W        W80618   3.012   8.260   2.180
15458W        W80619  24.818  37.809  12.450
15459W        W80620   5.722  31.411  12.579
15460W        W80621  39.755  13.848  11.583
15461W        W80622  22.302   4.005   4.749
15462W        W80623  35.016  18.141  11.718
15463W        W80624   8.358   4.054  10.659
15464W        W80625  30.311  29.036   2.826
15465W        W80626   0.847   4.940  11.247
15466W        W80627  14.775   4.909  13.876
15467W        W80628   3.153  32.810  12.139
15468W        W80629  42.007  28.220   2.730
15469W        W80630   6.342  40.934   1.697
15470W        W80631   0.130  19.511  13.379
15471W        W80632  35.112   7.392   2.662
15472W        W80633   7.278  22.581  13.211
15473W        W80634  24.643   4.615   0.697
15474W        W80635  38.464   8.772   2.079
15475W        W80636  17.476  30.675   3.311
15476W        W80637  31.257  42.447   0.197
15477W        W80638  26.569  44.978  12.115
15478W        W80639  11.594  15.795   1.177
15479W        W80640   1.666  21.756   3.285
15480W        W80641  42.839  18.298   4.141
15481W        W80642  21.986  30.472  11.859
15482W        W80643  18.660  42.998   3.281
15483W        W80644  23.476  19.162   3.504
15484W        W80645   4.769  17.312  14.917
15485W        W80646  12.350   1.310  10.670
15486W        W80647  24.472  28.259   1.731
15487W        W80648   0.924   1.329  10.729
15488W        W80649  40.439  15.646   4.081
15489W        W80650  20.111   9.743  14.797
15490W        W80651  34.015   2.750   1.917
15491W        W80652  42.848  22.137  11.143
15492W        W80653   1.505  20.997   0.445
15493W        W80654   9.178  11.442   0.073
15494W        W80655  11.356  24.291   1.632
15495W        W80656  23.094   6.593   2.770
15496W        W80657  11.948  21.412   1.227
15497W        W80658  24.963   9.171  12.488
15498W        W80659  10.676   5.080  12.701
15499W        W80660  29.906  29.740  12.044
15500W        W80661  15.533  13.690  14.832
15501W        W80662  12.832   4.993   4.589
15502W        W80663  39.392  11.727   1.710
15503W        W80664  36.605  26.094   4.900
15504W        W80665  27.431   7.112   3.047
15505W        W80666  20.059   6.941   2.400
15506W        W80667  16.989   3.879  14.524
15507W        W80668  30.162  17.298   1.856
15508W        W80669  25.164  15.695   1.321
15509W        W80670   4.811  26.063   1.337
15510W        W80671  26.858  44.285   0.310
15511W        W80672   8.674  29.833  14.493
15512W        W80673   3.647  41.468   4.878
15513W        W80674  14.840  16.547   0.268
15514W        W80675   1.752  23.873  14.461
15515W        W80676  16.564  10.804  12.909
15516W        W80677  13.077  31.864  14.367
15517W        W80678  27.609  18.713   1.236
15518W        W80679  34.485  29.223   3.250
15519W        W80680  32.662  35.489   1.773
15520W        W80681  34.507  16.829  11.585
15521W        W80682  35.544  14.663   0.202
15522W        W80683  28.638  27.657  12.428
15523W        W80684  40.016  16.393   4.535
15524W        W80685  43.010  22.019   2.339
15525W        W80686  11.394  19.304   4.051
15526W        W80687   0.509  12.501  14.458
15527W        W80688  10.232  26.557  12.264
15528W        W80689   5.153  36.975  13.060
15529W        W80690  24.790  43.800   1.304
15530W        W80691  33.127  33.349  12.582
15531W        W80692  18.321  33.627  13.802
15532W        W80693  23.566  14.458   0.405
15533W        W80694  35.369  28.847  11.793
15534W        W80695  24.787  22.426   1.328
15535W        W80696   9.092  26.905  12.901
15536W        W80697   2.351   3.202  10.379
15537W        W80698  21.615   0.905   0.423
15538W        W80699  44.361  23.502   1.381
15539W        W80700  21.599  29.397  11.054
15540W        W80701   8.653  40.870  11.767
15541W        W80702  27.761  23.795  11.479
15542W        W80703  33.058   2.913   1.435
15543W        W80704  42.396  38.202   2.239
15544W        W80705   5.661  34.921  14.028
15545W        W80706  38.582  37.042  13.338
15546W        W80707  22.589   2.784   4.282
15547W        W80708  37.394  25.209   0.581
15548W        W80709  23.292   9.137   0.837
15549W        W80710  37.981  16.768  14.978
15550W        W80711  20.985  34.908   2.385
15551W        W80712  11.234  17.218   4.505
15552W        W80713  37.800  27.110  14.763
15553W        W80714   0.853  24.688   3.633
15554W        W80715  22.718   6.769  11.565
15555W        W80716  21.370   5.741  11.993
15556W        W80717  30.900  33.176  12.055
15557W        W80718  28.122  14.199   1.854
15558W        W80719  14.338  41.500  11.033
15559W        W80720   2.642  27.494   1.782
15560W        W80721   8.301  13.207   1.149
15561W        W80722  22.903  18.530  12.998
15562W        W80723  12.154  21.654   3.490
15563W        W80724  11.012  33.541  13.079
15564W        W80725   5.352  14.836   1.371
15565W        W80726  20.831  16.126  10.550
15566W        W80727  25.974  25.497  14.038
15567W        W80728  40.401  34.445   0.481
15568W        W80729  41.548  35.391  12.915
15569W        W80730  25.198   2.008  11.596
15570W        W80731  12.103  27.878  13.822
15571W        W80732  19.545  25.140  12.528
15572W        W80733   9.148  33.355   1.814
15573W        W80734  38.560   2.727   3.844
15574W        W80735  37.685  33.294   4.075
15575W        W80736  11.919   2.719   1.349
15576W        W80737  36.568   7.883   4.571
15577W        W80738  17.883  16.859  12.674
15578W        W80739  23.509  35.816   4.558
15579W        W80740  31.794   3.957   4.370
15580W        W80741  22.325   7.477  14.277
15581W        W80742  44.063  19.583   3.179
15582W        W80743  28.034  35.230   0.282
15583W        W80744  24.696  26.698  13.099
15584W        W80745  18.803  24.601  14.394
15585W        W80746   1.874  23.309  14.741
15586W        W80747  33.437  26.801   0.177
15587W        W80748   0.953   9.585  11.650
15588W        W80749  17.619  10.841  12.961
15589W        W80750  20.106  20.667   0.515
15590W        W80751   0.452  20.944  13.410
15591W        W80752  41.360  13.616   2.212
15592W        W80753  36.982  31.646   0.001
15593W        W80754  44.421   9.370   3.615
15594W        W80755  19.240  16.091   5.022
15595W        W80756  38.900   5.340  14.945
15596W        W80757  25.739  36.426  12.335
15597W        W80758  29.661  12.190   1.810
15598W        W80759  19.253  32.399  12.850
15599W        W80760  42.753  25.985   4.118
15600W        W80761  44.967  21.676   3.219
15601W        W80762  25.687  13.186  12.157
15602W        W80763  36.767  11.735  12.456
15603W        W80764  14.234  38.385  11.915
15604W        W80765   7.304   4.710  11.230
15605W        W80766  11.128  38.555  11.141
15606W        W80767  12.213  36.357  12.829
15607W        W80768   5.207  22.146   2.735
15608W        W80769  17.623  43.757  11.097
15609W        W80770   0.159  21.224   3.674
15610W        W80771  38.067   3.804  12.048
15611W        W80772  11.206  13.594   3.163
15612W        W80773  15.690  41.957   3.775
15613W        W80774  39.928  34.744  14.625
15614W        W80775  18.823  29.690   0.425
15615W        W80776  33.437  43.419  13.888
15616W        W80777   6.900  44.329  14.222
15617W        W80778  20.218  10.227   2.263
15618W        W80779  11.107  34.967   3.274
15619W        W80780  12.765  32.929   4.761
15620W        W80781  10.964  21.010  12.169
15621W        W80782  27.522  25.605   1.575
15622W        W80783  17.626   6.181   4.330
15623W        W80784  16.505  15.656   3.008
15624W        W80785  14.708   8.252  10.664
15625W        W80786  32.751  24.019  14.807
15626W        W80787  43.567  34.521   5.051
15627W        W80788  38.527  32.707  10.734
15628W        W80789   0.983   7.832  14.599
15629W        W80790  41.391   5.388  12.919
15630W        W80791  10.904  16.023  14.926
15631W        W80792   3.934  11.440  13.310
15632W        W80793   9.598  13.604   4.630
15633W        W80794  41.956  18.878  14.945
15634W        W80795  33.337   3.406   5.065
15635W        W80796  30.418  25.618  14.327
15636W        W80797   3.443   7.379   0.692
15637W        W80798  29.694   5.978  11.614
15638W        W80799   1.664  43.877  12.938
15639W        W80800  44.396  17.183  11.687
15640W        W80801  16.662  23.406   3.532
15641W        W80802  12.098  15.726   1.232
15642W        W80803   4.098  40.225  11.954
15643W        W80804  14.800  44.800  12.144
15644W        W80805  27.549   7.894  10.676
15645W        W80806  25.046  32.841   3.166
15646W        W80807  39.043   8.312   0.737
15647W        W80808  21.729  29.070   0.868
15648W        W80809  37.306   1.776  12.459
15649W        W80810   4.663   0.035  14.778
15650W        W80811  19.332  10.867   0.459
15651W        W80812  15.587   5.034  13.394
15652W        W80813  32.078  24.166   2.803
15653W        W80814  27.162  44.749   2.798
15654W        W80815  37.443  24.525   3.259
15655W        W80816  23.265  26.164   2.477
15656W        W80817   9.094  23.508  14.026
15657W        W80818  18.215  16.127  12.476
15658W        W80819  34.873  24.238   2.711
15659W        W80820  14.177  20.860  13.807
15660W        W80821   7.242  10.269   3.402
15661W        W80822  34.113  29.352   1.441
15662W        W80823  34.854  11.634   3.513
15663W        W80824   1.341  44.017   4.132
15664W        W80825  43.370  24.200  11.724
15665W        W80826  39.742   1.515   1.652
15666W        W80827  22.206   5.292  12.312
15667W        W80828  25.710  27.826   2.299
15668W        W80829  17.598  19.029   2.229
15669W        W80830  31.456  43.490   4.367
15670W        W80831  15.051   1.061  14.347
15671W        W80832  42.851   2.919  12.937
15672W        W80833  44.320  26.131  13.118
15673W        W80834  32.557  17.801   4.724
15674W        W80835  40.023  44.627   1.271
15675W        W80836  19.155  10.359  11.605
15676W        W80837  37.147  42.428  10.601
15677W        W80838   6.556   6.197  13.359
15678W        W80839  20.801  25.978  13.231
15679W        W80840  43.063  16.660  14.127
15680W        W80841  34.424  23.631  11.593
15681W        W80842  38.290  37.363   4.113
15682W        W80843  42.606  39.890   0.079
15683W        W80844   9.729  12.162   3.150
15684W        W80845  13.282  25.661  13.521
15685W        W80846  36.489  40.864   3.930
15686W        W80847  17.680  43.012  12.430
15687W        W80848  21.627  30.150   1.691
15688W        W80849  26.035   4.000   2.772
15689W        W80850  32.433  26.106   1.895
15690W        W80851  20.312  24.552   1.786
15691W        W80852   1.364  14.704   3.925
15692W        W80853   6.276  23.067  14.096
15693W        W80854  27.243  21.589   4.459
15694W        W80855  29.565  13.786   3.305
15695W        W80856  28.670   8.661   0.068
15696W        W80857  41.800  22.260  14.008
15697W        W80858  30.603  39.311   3.291
15698W        W80859  39.990  39.277   4.541
15699W        W80860  17.150  28.241   4.482
15700W        W80861  26.735   5.770   1.476
15701W        W80862  23.714  40.634  14.905
15702W        W80863  26.462  44.699   1.725
15703W        W80864  18.564  25.070  12.492
15704W        W80865  38.135   5.681   1.902
15705W        W80866  20.180   8.722  10.652
15706W        W80867  35.971  32.869  11.180
15707W        W80868  19.480  35.284   2.282
15708W        W80869  40.068  29.144  12.548
15709W        W80870  22.592  20.064  13.079
15710W        W80871  44.678  15.505   1.328
15711W        W80872  19.060  42.994   1.746
15712W        W80873   0.435  33.630   1.713
15713W        W80874  26.616   3.891  13.009
15714W        W80875   6.210  25.958  14.339
15715W        W80876  42.712   9.355   3.316
15716W        W80877  40.390  28.357  14.361
15717W        W80878   5.382  14.386  12.876
15718W        W80879  12.310  39.095   0.804
15719W        W80880   3.154  30.607  13.883
15720W        W80881   6.458  21.227   3.968
15721W        W80882  31.414  41.912  12.988
15722W        W80883  18.500  15.785  11.573
15723W        W80884  44.677  17.192   4.819
15724W        W80885   7.914  18.610   2.272
15725W        W80886  21.146  12.422  14.487
15726W        W80887  35.840  31.607   3.139
15727W        W80888  33.962  18.211   0.467
15728W        W80889  12.520   0.326   3.686
15729W        W80890  17.311   2.932   2.212
15730W        W80891  34.160  19.317   3.220
15731W        W80892  32.339  14.325   2.754
15732W        W80893  31.525  13.208  13.790
15733W        W80894  44.458  42.416  14.449
15734W        W80895  22.448  42.701  12.514
15735W        W80896   7.964  35.408   0.355
15736W        W80897  33.939  33.843   1.983
15737W        W80898  40.979   6.332  14.569
15738W        W80899  25.815  11.730  11.186
15739W        W80900  23.737  44.331   1.812
15740W        W80901  30.479  36.824  14.348
15741W        W80902  32.859  25.642  14.431
15742W        W80903  36.631  28.915   1.395
15743W        W80904  24.849   8.806   0.375
15744W        W80905  24.521   2.383  12.654
15745W        W80906   9.702  23.990   1.899
15746W        W80907  26.543  39.080  14.404
15747W        W80908  31.916  43.009   0.467
15748W        W80909  24.587  19.497  11.620
15749W        W80910  39.019  25.530   1.517
15750W        W80911  17.389  26.861   2.784
15751W        W80912  43.781   1.314   1.737
15752W        W80913  31.991  23.333  12.529
15753W        W80914  42.924  17.110  10.888
15754W        W80915  17.136  37.141   4.692
15755W        W80916  24.673  34.362  13.104
15756W        W80917  44.799  19.091  13.905
15757W        W80918  36.426  38.416   1.923
15758W        W80919   6.043  10.553  12.438
15759W        W80920  30.487  42.666   3.249
15760W        W80921  25.087  24.678   4.392
15761W        W80922  22.223  35.405   2.452
15762W        W80923  33.621   7.469  13.350
15763W        W80924  39.353  29.893  10.718
15764W        W80925  40.330  10.075  11.160
15765W        W80926   4.907  17.882   2.348
15766W        W80927   6.903  39.983  13.347
15767W        W80928   7.292   6.655  13.775
15768W        W80929   5.259   6.452  10.750
15769W        W80930  16.852  11.855   0.120
15770W        W80931   5.380   9.762   0.285
15771W        W80932  44.931  33.210   3.397
15772W        W80933  19.819   1.851  10.598
15773W        W80934  28.907  20.201  14.535
15774W        W80935   3.436   8.175  14.321
15775W        W80936  25.777  30.641   2.212
15776W        W80937  42.830  13.182   4.129
15777W        W80938  36.055  17.694  13.208
15778W        W80939  29.617  13.003  14.418
15779W        W80940  16.169  43.575   9.652
15780W        W80941   0.271  44.971   1.951
15781W        W80942  20.443  43.524   3.318
15782W        W80943  21.590  31.171  11.910
15783W        W80944  43.208  19.066  12.999
15784W        W80945  34.743   5.383   0.967
15785W        W80946  23.022   9.620   3.211
15786W        W80947  11.088  42.256  13.412
15787W        W80948   2.675  37.135   5.493
15788W        W80949   8.685  34.599  13.460
15789W        W80950  32.983  31.365   4.209
15790W        W80951  22.265  15.071  11.905
15791W        W80952  13.360  32.518   2.433
15792W        W80953  28.037  41.823   1.321
15793W        W80954  41.645  10.939  14.779
15794W        W80955   1.736  18.863  11.132
15795W        W80956   4.226   1.516   4.684
15796W        W80957   7.277  39.074   4.887
15797W        W80958  32.930  17.593  13.861
15798W        W80959  10.096   1.773   1.276
15799W        W80960  14.549  37.054   2.917
15800W        W80961  13.699  19.420   0.009
15801W        W80962  25.693   4.306   3.153
15802W        W80963  15.590  33.782  12.381
15803W        W80964  20.077  17.690   1.270
15804W        W80965  44.019  32.173  14.361
15805W        W80966  15.132  30.828  14.358
15806W        W80967  33.044  36.515   3.571
15807W        W80968   6.682  27.168   1.890
15808W        W80969  22.214  11.665  14.248
15809W        W80970  18.759  27.777   4.572
15810W        W80971  10.284  23.655  13.185
15811W        W80972  25.426   9.331   3.183
15812W        W80973  21.279  21.105  14.702
15813W        W80974  41.594  10.877   3.762
15814W        W80975   4.999  24.679   4.145
15815W        W80976  20.774  25.363   5.038
15816W        W80977  36.374  41.492   1.519
15817W        W80978  28.484  19.534   4.188
15818W        W80979  18.650  26.574   3.198
15819W        W80980   3.260  38.870   4.165
15820W        W80981  12.908  23.617   2.619
15821W        W80982  11.779  24.757   0.541
15822W        W80983  19.847   7.331  11.603
15823W        W80984  26.381  41.342  12.803
15824W        W80985  13.262  19.949  12.617
15825W        W80986  44.859  39.991   2.722
15826W        W80987   6.207  32.079  12.904
15827W        W80988  12.776  38.903  14.751
15828W        W80989  11.910  33.966   4.272
15829W        W80990  13.730  24.469   4.106
15830W        W80991  44.930  25.733  13.644
15831W        W80992  20.158  27.918   2.814
15832W        W80993   9.827  13.630  11.583
15833W        W80994  10.361   6.230  10.528
15834W        W80995  30.684  34.391   2.194
15835W        W80996  15.132  14.157  11.384
15836W        W80997  34.569  20.306   0.062
15837W        W80998   6.329  32.596  14.880
15838W        W80999  27.978   4.938  14.165
15839W        W81000  32.738  34.417   0.432
15840W        W81001   2.836   3.838  10.709
15841W        W81002  22.780   3.874   4.583
15842W        W81003  17.467  34.794   2.818
15843W        W81004  16.690   1.846  11.652
15844W        W81005   7.244   8.204   3.691
15845W        W81006  10.236  43.485   0.871
15846W        W81007   0.813   2.196   2.283
15847W        W81008  22.689  28.693  14.081
15848W        W81009   4.198  17.486  14.862
15849W        W81010   6.284   0.731  13.311
15850W        W81011   9.109  26.250   3.590
15851W        W81012   2.050  30.703   3.129
15852W        W81013  38.872  42.497  13.124
15853W        W81014   1.545   6.360   3.776
15854W        W81015  28.046   7.350  12.522
15855W        W81016  21.507  32.467  13.863
15856W        W81017  24.948  35.095  13.772
15857W        W81018  33.998   9.449   4.113
15858W        W81019  27.470  43.778  11.175
15859W        W81020  21.704   9.926   3.327
15860W        W81021  25.497  16.758   3.884
15861W        W81022  18.722  21.006   1.022
15862W        W81023  30.333  16.629  14.774
15863W        W81024   2.703   5.809   3.374
15864W        W81025  40.283  14.561  13.419
15865W        W81026   0.476   5.198   1.485
15866W        W81027   1.777  41.575   0.754
15867W        W81028  42.978   8.280   2.174
15868W        W81029  33.538  41.940   2.348
15869W        W81030  23.097   9.259  12.010
15870W        W81031  36.753  36.251   2.292
15871W        W81032  33.007  34.754   0.743
15872W        W81033  29.898   6.572   0.872
15873W        W81034  44.042  15.285  11.091
15874W        W81035   2.277  32.641   1.733
15875W        W81036   5.407  24.202  13.064
15876W        W81037  33.312   8.702  12.284
15877W        W81038   6.815  23.246  11.072
15878W        W81039   5.216  23.793  12.779
15879W        W81040  12.755   7.722   2.668
15880W        W81041  27.726  13.086  11.119
15881W        W81042  24.140  30.582  14.590
15882W        W81043  11.879   4.625   3.768
15883W        W81044  12.311  41.299   3.218
15884W        W81045  26.832  30.160  13.959
15885W        W81046  35.776  14.130   2.307
15886W        W81047  44.463  40.254   4.580
15887W        W81048  17.406  13.864  11.223
15888W        W81049  39.292   4.272   1.928
15889W        W81050   9.232  14.143  13.485
15890W        W81051   1.506  19.280   3.255
15891W        W81052   9.084  17.858   2.642
15892W        W81053  21.124  39.484   3.117
15893W        W81054  36.386  21.592   0.756
15894W        W81055  26.102   6.157   4.565
15895W        W81056  37.086  16.272  12.422
15896W        W81057  16.187  32.258   0.303
15897W        W81058   8.988  20.139  14.010
15898W        W81059  18.918  21.369  10.361
15899W        W81060   0.776  26.151   4.304
15900W        W81061  37.941  27.986   0.841
15901W        W81062   9.297  37.516   0.991
15902W        W81063   8.546   3.688  12.870
15903W        W81064  37.268  36.936  12.014
15904W        W81065  43.868  12.975   0.707
15905W        W81066  27.501  22.743   2.023
15906W        W81067  15.712  34.866   0.823
15907W        W81068   7.037  35.349   2.785
15908W        W81069  14.145  39.759   3.450
15909W        W81070   0.806  38.061   2.180
15910W        W81071  16.267  36.568   2.815
15911W        W81072   5.672  34.179   1.491
15912W        W81073  28.723   4.795   5.001
15913W        W81074   4.156  16.690   4.150
15914W        W81075  31.364  35.152   0.079
15915W        W81076  31.636  23.574  11.974
15916W        W81077  32.090  18.057  12.095
15917W        W81078   5.913  25.540   0.750
15918W        W81079   7.695  15.200   3.840
15919W        W81080   4.919  16.827  11.534
15920W        W81081  40.968  43.202   0.502
15921W        W81082  18.827  41.465   2.835
15922W        W81083   7.979   6.604   3.072
15923W        W81084  36.086  33.512   2.446
15924W        W81085  23.904  32.138   2.301
15925W        W81086  42.495  13.898  12.536
15926W        W81087  37.897  11.141  12.129
15927W        W81088   6.940  36.645   1.447
15928W        W81089  37.307   0.250  14.042
15929W        W81090  30.706  23.178  14.864
15930W        W81091  23.205   0.620  12.635
15931W        W81092  32.237  24.589  13.438
15932W        W81093  20.412  35.699  11.122
15933W        W81094  42.172  41.356   2.681
15934W        W81095  41.958  42.921   0.399
15935W        W81096  17.048   1.973  11.298
15936W        W81097   2.347  29.709  10.406
15937W        W81098  18.312  32.504   3.672
15938W        W81099  18.302  10.800   0.496
15939W        W81100  13.802  42.969  11.033
15940W        W81101  28.544  12.724  12.169
15941W        W81102  44.442  25.999   2.637
15942W        W81103  42.854  43.009   3.685
15943W        W81104  42.774  26.970   1.745
15944W        W81105  29.005  17.084   0.733
15945W        W81106  43.574  25.525   4.071
15946W        W81107  28.535   8.103  11.559
15947W        W81108  37.971  29.128   1.441
15948W        W81109   1.664  19.590   0.808
15949W        W81110  21.662  30.117  11.610
15950W        W81111  28.471  10.589   4.039
15951W        W81112  43.785  41.601   3.176
15952W        W81113  25.679   7.843   0.284
15953W        W81114  37.870  34.819   2.900
15954W        W81115  15.145  12.421   2.439
15955W        W81116  18.733  14.871  14.771
15956W        W81117  44.840  42.620  11.180
15957W        W81118   9.665  29.949   2.762
15958W        W81119   7.485   6.814  14.726
15959W        W81120  43.268  26.605   0.922
15960W        W81121   7.319  13.180  14.782
15961W        W81122  21.736   8.744  10.726
15962W        W81123  37.326  33.065  11.679
15963W        W81124   1.729  37.630   0.560
15964W        W81125  10.906   2.445  13.430
15965W        W81126  30.454  10.786   1.141
15966W        W81127   3.358   8.467  13.031
15967W        W81128  20.993  44.187   3.331
15968W        W81129  31.146  35.447  14.716
15969W        W81130  32.638  34.413  14.092
15970W        W81131  33.372   7.636   0.901
15971W        W81132   2.452  22.245   3.718
15972W        W81133  12.220  24.449   3.257
15973W        W81134   7.717   5.859  12.661
15974W        W81135  14.897  17.771   2.175
15975W        W81136  40.335  10.787   2.961
15976W        W81137  34.447  39.880   2.842
15977W        W81138  12.817   1.367  12.543
15978W        W81139  13.304  33.197   4.118
15979W        W81140  43.349  33.253  10.605
15980W        W81141   0.949  26.889  14.928
15981W        W81142  34.988  24.591   5.440
15982W        W81143  10.197   0.625   4.051
15983W        W81144  43.638  25.232  13.450
15984W        W81145  22.310  40.456  11.923
15985W        W81146  40.443  40.952  11.133
15986W        W81147  15.829   7.744  14.897
15987W        W81148   7.725  11.092  13.763
15988W        W81149  34.104  30.971  13.907
15989W        W81150  18.275   7.165  14.347
15990W        W81151  29.124  39.334  11.005
15991W        W81152  42.842  29.701   4.592
15992W        W81153  17.782  17.917  13.878
15993W        W81154  41.409  44.436  13.921
15994W        W81155  33.540   9.129   2.694
15995W        W81156  42.807  41.867   1.867
15996W        W81157   3.823   0.886   2.232
15997W        W81158   3.306  34.141  13.862
15998W        W81159   4.951  34.191  10.055
15999W        W81160   5.426  30.836  11.876
16000W        W81161  31.634  38.906   0.437
16001W        W81162   7.286  24.744  11.618
16002W        W81163  25.632  16.777   4.372
16003W        W81164  26.110  26.160  10.523
16004W        W81165  32.685  12.864  12.518
16005W        W81166  29.159  15.974  11.923
16006W        W81167   4.944   0.808   0.993
16007W        W81168  20.551  32.595  12.964
16008W        W81169  11.128  22.327  12.320
16009W        W81170   3.925   5.645   3.761
16010W        W81171  28.192   4.362  10.810
16011W        W81172  20.872   7.274  11.519
16012W        W81173  20.533   4.763  11.883
16013W        W81174  40.961  13.380  12.546
16014W        W81175  38.381  38.548   2.251
16015W        W81176  15.834  34.709  11.589
16016W        W81177  43.537  33.536   3.296
16017W        W81178  36.493  44.876  11.532
16018W        W81179  17.326  43.041  10.039
16019W        W81180  37.607  21.249   3.561
16020W        W81181  21.199   3.260  11.112
16021W        W81182  18.599  15.308  10.144
16022W        W81183  24.714  43.281  11.936
16023W        W81184  30.886   4.184   3.180
16024W        W81185  10.364   3.909   0.965
16025W        W81186   9.824  13.488   2.596
16026W        W81187   0.341  27.709  14.070
16027W        W81188  38.015  38.941   1.310
16028W        W81189  22.223   9.107   1.648
16029W        W81190   8.627  27.599   0.264
16030W        W81191  32.987  19.198   2.427
16031W        W81192  27.976  10.825  11.190
16032W        W81193  38.995  14.408   1.608
16033W        W81194  17.023  17.282  14.334
16034W        W81195   0.314   8.204   4.064
16035W        W81196  22.624  29.890  14.481
16036W        W81197   1.583  42.868  12.894
16037W        W81198  16.621   7.505  14.650
16038W        W81199   5.282  35.999  11.723
16039W        W81200  36.413  26.690  12.610
16040W        W81201  42.240  13.120   3.300
16041W        W81202  42.570  44.913   2.819
16042W        W81203  19.395  30.091   2.822
16043W        W81204   8.404  11.263  14.319
16044W        W81205   8.173  42.579  12.058
16045W        W81206  31.659  17.843  14.621
16046W        W81207  40.785   8.769   4.542
16047W        W81208  17.717  26.032  13.901
16048W        W81209  32.950  43.530  10.698
16049W        W81210  23.691  28.501   2.272
16050W        W81211  21.010   9.618  11.427
16051W        W81212  28.979  44.564  13.930
16052W        W81213  37.503   4.353  14.778
16053W        W81214  27.851  36.200   3.578
16054W        W81215   4.885  33.338   2.835
16055W        W81216  15.362  43.324  10.661
16056W        W81217  29.033  36.904   1.215
16057W        W81218   5.387  14.197  11.893
16058W        W81219   1.601  15.723  13.057
16059W        W81220  17.827  40.575   0.475
16060W        W81221  37.718  10.250  10.368
16061W        W81222  24.700  33.619   3.438
16062W        W81223  27.039   5.518   1.947
16063W        W81224  19.257   2.756   4.143
16064W        W81225  31.042  27.016   3.218
16065W        W81226   0.982  25.530   3.222
16066W        W81227  34.835  21.062   1.940
16067W        W81228  30.158  44.540   1.722
16068W        W81229   5.964  38.385   3.246
16069W        W81230  21.510   1.692  13.065
16070W        W81231  29.145  27.093  13.609
16071W        W81232  37.291  10.791  13.820
16072W        W81233  31.314  43.474   4.902
16073W        W81234  19.687  31.052   3.141
16074W        W81235  43.040  39.924  12.834
16075W        W81236  41.374  38.939   0.273
16076W        W81237  30.609  39.539  10.561
16077W        W81238  35.376  14.530  12.478
16078W        W81239  33.411  18.014  12.429
16079W        W81240  42.457  16.805   2.792
16080W        W81241  16.915  34.895  13.761
16081W        W81242  20.003   9.196  13.409
16082W        W81243  40.079  21.247  12.449
16083W        W81244  13.572  13.128   3.215
16084W        W81245  31.595  36.804  14.004
16085W        W81246  35.825  25.675   1.670
16086W        W81247  15.156   3.875   2.914
16087W        W81248  42.455  24.097   1.761
16088W        W81249  29.437  11.882   2.184
16089W        W81250   8.618  29.936   0.741
16090W        W81251  42.348  30.831  11.463
16091W        W81252   6.116  17.213   1.322
16092W        W81253  36.290   3.192   2.193
16093W        W81254  24.176  36.809   0.012
16094W        W81255  33.263  20.988  13.295
16095W        W81256   9.141  43.457  13.767
16096W        W81257   6.346  28.562   0.024
16097W        W81258   1.856  19.025  12.611
16098W        W81259  15.189   0.969  13.028
16099W        W81260  22.818  40.578  14.567
16100W        W81261  36.233   5.835   3.130
16101W        W81262  38.041   0.409  12.370
16102W        W81263  39.007  40.662   3.191
16103W        W81264   6.869   3.210   0.224
16104W        W81265  25.151   2.824  12.193
16105W        W81266  38.111  14.694  12.083
16106W        W81267  23.273  24.989  11.928
16107W        W81268  22.509  43.771   4.241
16108W        W81269  28.781  44.731   3.246
16109W        W81270   1.152   0.766  11.485
16110W        W81271  14.684  20.220   4.518
16111W        W81272  26.357  10.185  13.073
16112W        W81273  32.832  12.113   0.332
16113W        W81274  16.612  15.727   1.172
16114W        W81275  15.966   4.716   4.163
16115W        W81276  41.853   8.802  12.018
16116W        W81277   4.980  42.787   1.401
16117W        W81278   7.782  42.188   4.148
16118W        W81279  33.057   3.279  14.878
16119W        W81280  22.314  38.424   0.865
16120W        W81281  30.365  29.948  10.524
16121W        W81282  16.590  36.869   3.702
16122W        W81283  19.696   8.299  13.629
16123W        W81284   1.900  42.062   0.533
16124W        W81285  16.044  37.804  14.361
16125W        W81286   0.856   9.278   4.645
16126W        W81287  43.559  10.763   1.235
16127W        W81288  43.909  10.397  14.840
16128W        W81289  27.712  24.676  14.393
16129W        W81290  19.809  10.994   0.324
16130W        W81291  28.877   5.027   2.757
16131W        W81292  37.914  11.242   4.084
16132W        W81293  21.709   3.851  14.765
16133W        W81294  44.530   2.946   0.639
16134W        W81295  21.193   7.244   3.365
16135W        W81296  26.523   2.503   1.770
16136W        W81297  42.100   0.043   0.398
16137W        W81298   3.806   9.429  11.106
16138W        W81299   8.731  13.554   4.885
16139W        W81300  13.420  17.633   2.235
16140W        W81301  11.743  23.796   5.047
16141W        W81302   7.983  28.063   3.185
16142W        W81303  24.136  13.466   2.276
16143W        W81304  23.056  36.440  11.424
16144W        W81305  38.084  41.034   3.251
16145W        W81306  31.931  33.407  14.881
16146W        W81307   6.158   5.047   4.294
16147W        W81308  36.099  32.356  14.828
16148W        W81309   4.768  30.343   1.040
16149W        W81310  42.311  26.453  13.024
16150W        W81311  11.181   6.322   1.296
16151W        W81312  22.003  22.108   1.715
16152W        W81313   0.344   8.846   0.496
16153W        W81314  33.901  19.745  13.830
16154W        W81315  10.277  16.365   4.523
16155W        W81316  25.521  21.703   4.103
16156W        W81317  18.033  17.336   0.490
16157W        W81318  29.881  20.492   5.114
16158W        W81319  31.084  10.978   1.884
16159W        W81320  35.555  29.978  11.994
16160W        W81321   3.701   3.370  11.704
16161W        W81322  18.543  43.495  14.355
16162W        W81323   3.977   9.212  12.470
16163W        W81324  20.672   4.462  12.600
16164W        W81325  34.019  41.300  14.450
16165W        W81326   1.003  41.590   0.791
16166W        W81327   0.382  10.389  13.906
16167W        W81328  21.837  13.731  11.165
16168W        W81329  26.440  40.922  10.600
16169W        W81330   8.813  37.596   2.366
16170W        W81331   8.049   0.383   3.245
16171W        W81332  15.487  36.921  12.810
16172W        W81333  44.680  22.165   3.194
16173W        W81334  39.025  17.731  12.935
16174W        W81335  23.544  13.641  12.943
16175W        W81336  21.282  33.944   1.481
16176W        W81337  38.019  35.385  11.762
16177W        W81338  29.940  32.165   2.694
16178W        W81339  28.657   2.462   1.887
16179W        W81340  25.972  32.303  12.433
16180W        W81341  35.984   0.044  14.745
16181W        W81342   4.861  18.016   1.669
16182W        W81343  41.035   8.678  11.122
16183W        W81344  18.303  17.839  13.401
16184W        W81345   9.169   1.854   4.714
16185W        W81346  38.988  44.382  11.098
16186W        W81347  25.683   1.691   3.519
16187W        W81348  44.547  19.354   3.650
16188W        W81349  13.276  41.852   4.312
16189W        W81350  40.568  35.692  13.357
16190W        W81351  21.141  37.546  10.685
16191W        W81352   7.123  13.388   0.214
16192W        W81353  29.612  22.199  10.189
16193W        W81354  15.267   2.583   0.587
16194W        W81355  43.393  33.012  10.165
16195W        W81356  13.767  36.279   1.066
16196W        W81357  44.960  33.133   2.897
16197W        W81358  22.146   1.283  14.975
16198W        W81359  27.011  29.435  10.657
16199W        W81360   0.905  28.518   3.178
16200W        W81361  35.034  17.279   4.563
16201W        W81362  31.194  35.508  11.724
16202W        W81363  31.079  40.011   4.220
16203W        W81364  35.078  18.266   1.169
16204W        W81365  24.026  35.069  13.108
16205W        W81366   3.743   9.821  12.166
16206W        W81367  28.399  12.893  14.026
16207W        W81368  10.384  35.935   3.677
16208W        W81369  25.877  24.917   0.273
16209W        W81370  21.514  43.972  13.485
16210W        W81371  15.133  34.352   0.451
16211W        W81372  16.144  21.746  13.503
16212W        W81373  25.192  17.620   3.676
16213W        W81374   5.623  22.245   1.453
16214W        W81375  33.029  17.039   1.735
16215W        W81376   2.961   4.614   0.918
16216W        W81377  13.049  34.766   4.047
16217W        W81378  10.086  17.512  12.499
16218W        W81379  28.803  23.347   2.113
16219W        W81380  33.499   7.892   1.337
16220W        W81381  38.564  42.421   4.164
16221W        W81382   2.587  13.058  14.507
16222W        W81383  27.440   8.756  11.577
16223W        W81384   5.795  13.367  13.009
16224W        W81385   5.090  37.285   9.876
16225W        W81386  28.406  20.051   4.344
16226W        W81387   5.860  23.111  13.232
16227W        W81388  16.198  11.740   3.340
16228W        W81389  28.032  13.862  14.432
16229W        W81390  32.695  36.891   3.667
16230W        W81391  44.677  32.058  14.923
16231W        W81392   5.338   2.238  13.932
16232W        W81393  11.163  30.410  10.638
16233W        W81394  22.870  11.702   4.601
16234W        W81395  25.578  26.924  10.426
16235W        W81396  27.885  31.548  14.054
16236W        W81397  30.243  35.961   1.201
16237W        W81398  26.021  17.119   2.285
16238W        W81399  11.312  18.240  12.897
16239W        W81400  13.963  31.208   4.211
16240W        W81401  12.917  37.991   0.113
16241W        W81402  23.614  38.126   3.598
16242W        W81403  15.845  20.994  11.489
16243W        W81404  35.896  17.182   0.517
16244W        W81405  35.601  26.239  12.510
16245W        W81406  34.392  36.807  11.423
16246W        W81407  43.060  39.648   1.616
16247W        W81408  43.027  44.688   2.877
16248W        W81409  36.595  32.411  14.971
16249W        W81410  21.870   4.346  12.999
16250W        W81411  30.879  31.035  10.820
16251W        W81412  12.789  36.691  13.363
16252W        W81413  19.619  33.345   2.541
16253W        W81414   9.025  16.254   1.020
16254W        W81415  15.557   0.422  14.437
16255W        W81416  23.460  32.944  14.329
16256W        W81417  22.975  41.532  10.230
16257W        W81418  26.659  19.010   3.366
16258W        W81419  13.072  30.915   0.522
16259W        W81420  41.995  39.954  12.905
16260W        W81421  22.711   8.888  12.878
16261W        W81422  22.764  25.655   4.581
16262W        W81423  26.373  42.813  13.222
16263W        W81424  35.430  34.199   2.051
16264W        W81425  25.025  10.121  11.553
16265W        W81426   2.645  42.537  11.045
16266W        W81427  37.967  42.933   1.646
16267W        W81428  31.948  40.509   0.964
16268W        W81429  20.714  32.023  13.927
16269W        W81430  37.616   8.286   2.247
16270W        W81431  40.506  14.501   1.610
16271W        W81432   4.431   3.025   4.868
16272W        W81433  29.718  16.271   2.472
16273W        W81434   5.263  13.223   2.820
16274W        W81435  43.024  34.996   3.103
16275W        W81436  31.846  14.385   2.893
16276W        W81437  33.930   0.770   4.778
16277W        W81438  11.653  42.213   4.175
16278W        W81439   9.312  30.939  13.201
16279W        W81440  21.512   3.319  11.665
16280W        W81441   2.759   5.847  14.264
16281W        W81442  41.164  33.670   0.049
16282W        W81443  10.424  43.369  13.098
16283W        W81444   4.833   6.704  10.936
16284W        W81445  25.159   2.143   2.593
16285W        W81446  19.050  13.326  12.958
16286W        W81447  26.277  18.732   0.781
16287W        W81448  28.606  15.747   2.717
16288W        W81449  40.992  13.746  12.174
16289W        W81450  40.075  12.193   1.369
16290W        W81451  11.650  25.621   0.026
16291W        W81452  15.579  24.625   2.348
16292W        W81453  24.323  40.496  13.469
16293W        W81454  12.005  31.084   4.027
16294W        W81455  11.175  37.958  10.668
16295W        W81456  14.100  29.437   3.283
16296W        W81457  31.602  42.920   3.195
16297W        W81458  37.931   0.461   0.702
16298W        W81459  36.178   3.303   9.892
16299W        W81460  30.348  18.682  12.110
16300W        W81461  11.057  10.426   2.938
16301W        W81462  26.061  15.971  13.078
16302W        W81463  39.991   9.767   0.760
16303W        W81464  30.030  21.801   4.939
16304W        W81465  44.996  15.297   2.380
16305W        W81466   9.206  44.240   0.564
16306W        W81467  42.825   7.877  13.040
16307W        W81468   5.534  15.373   3.395
16308W        W81469  36.277  17.114  13.794
16309W        W81470  27.761   9.348   1.174
16310W        W81471  23.196  28.381   3.387
16311W        W81472  20.028  10.017   1.810
16312W        W81473  13.222   4.487  11.253
16313W        W81474  21.307  34.000   2.009
16314W        W81475  42.000  39.502   3.146
16315W        W81476   3.725   3.225   0.738
16316W        W81477  28.453  33.595   4.197
16317W        W81478   2.781  14.011   2.431
16318W        W81479  14.403  25.722  10.597
16319W        W81480   7.233  27.902   1.200
16320W        W81481  24.984  27.557   1.770
16321W        W81482  14.120  22.196   1.261
16322W        W81483  44.978   1.522  11.429
16323W        W81484  23.964  13.005  10.638
16324W        W81485  16.769  17.309  13.060
16325W        W81486  26.770   2.277  14.306
16326W        W81487  14.268  26.629  13.437
16327W        W81488  11.895  35.965  11.532
16328W        W81489   3.028  20.576  14.706
16329W        W81490  40.300  36.290  12.072
16330W        W81491  40.080  37.601  11.031
16331W        W81492  21.154  33.523   4.629
16332W        W81493   7.747   7.804  10.557
16333W        W81494  13.491  11.139  10.297
16334W        W81495  33.855  37.035  12.891
16335W        W81496  34.280  21.128   4.508
16336W        W81497  35.789  30.574   3.314
16337W        W81498  14.331  43.456  10.359
16338W        W81499  27.116  25.179   2.821
16339W        W81500  43.787  35.386  13.116
16340W        W81501   3.372  13.038   2.238
16341W        W81502   8.668  44.297   1.312
16342W        W81503   7.274   7.277  10.043
16343W        W81504  30.759  25.459  11.958
16344W        W81505  11.883  23.054   3.293
16345W        W81506  21.536  16.257   2.694
16346W        W81507  29.271  22.923   0.714
16347W        W81508  25.480   7.245   1.865
16348W        W81509  31.036  23.950  14.438
16349W        W81510  21.542  41.765   1.284
16350W        W81511  15.549  32.207  11.223
16351W        W81512  30.940   9.842  13.991
16352W        W81513  16.319   0.868  13.369
16353W        W81514   2.045  23.718   4.053
16354W        W81515   6.629  22.024   2.612
16355W        W81516   1.805  34.690  11.915
16356W        W81517  42.418   4.729   1.217
16357W        W81518   6.252  28.248   4.264
16358W        W81519  27.882   3.210   1.918
16359W        W81520   9.677  38.327   2.767
16360W        W81521  43.194   8.621   4.190
16361W        W81522  23.724  43.853   0.400
16362W        W81523  18.670  24.055  12.471
16363W        W81524  19.749  44.448   2.032
16364W        W81525  31.215  23.732   2.162
16365W        W81526   2.125  10.107   0.991
16366W        W81527  36.510  24.949   2.124
16367W        W81528  37.852  20.039   1.831
16368W        W81529  31.119  10.289  12.608
16369W        W81530  31.811  30.075  12.402
16370W        W81531  21.736  16.292  14.055
16371W        W81532  30.482  18.072   0.459
16372W        W81533  18.152  41.806  13.453
16373W        W81534  38.757  42.814   2.639
16374W        W81535  38.505  31.497  14.238
16375W        W81536  28.855  20.825   0.348
16376W        W81537  18.616  22.192  11.852
16377W        W81538  21.668  22.427   3.420
16378W        W81539  35.830  33.502   3.424
16379W        W81540   7.547   8.555  13.190
16380W        W81541  30.252  27.478   4.581
16381W        W81542  10.201  20.434   3.727
16382W        W81543  40.935  25.179   4.611
16383W        W81544   9.625   9.159  11.126
16384W        W81545   3.933  32.473  11.597
16385W        W81546  20.704  34.752   1.894
16386W        W81547   3.936  14.140   0.971
16387W        W81548  43.000   6.330   3.636
16388W        W81549  29.745  41.540   2.813
16389W        W81550  10.580  16.271   3.281
16390W        W81551  33.933   3.570  12.137
16391W        W81552  11.198   6.674   4.572
16392W        W81553   2.950   9.052   3.280
16393W        W81554  17.020  13.729  14.577
16394W        W81555  42.755  30.874  14.942
16395W        W81556   2.422   9.209   3.151
16396W        W81557   1.178  30.684   1.284
16397W        W81558  44.537  34.347   3.806
16398W        W81559  18.568  12.949   1.414
16399W        W81560  20.789  26.594  14.485
16400W        W81561  37.890  40.348  10.853
16401W        W81562  12.808  27.159   4.933
16402W        W81563  23.647  32.680  14.741
16403W        W81564   2.315   0.951  14.084
16404W        W81565   2.327   0.262  14.575
16405W        W81566   9.192   0.046  12.886
16406W        W81567   9.264  28.425   2.183
16407W        W81568  14.756   6.325  12.514
16408W        W81569  29.424  37.016  11.544
16409W        W81570  13.736  44.033   0.799
16410W        W81571  25.733  44.985   1.251
16411W        W81572   1.906  21.807  14.299
16412W        W81573  15.501  37.916   1.491
16413W        W81574  23.730  31.483   1.715
16414W        W81575  15.727  14.357  12.554
16415W        W81576  38.019  38.318   2.574
16416W        W81577  30.678  16.115   4.231
16417W        W81578   5.502   5.479  13.319
16418W        W81579  26.055  34.581  14.953
16419W        W81580  30.886  42.291  10.676
16420W        W81581  42.290   3.920  13.275
16421W        W81582  29.476  11.878   1.378
16422W        W81583  32.397  32.434   1.348
16423W        W81584  37.627  41.831   2.813
16424W        W81585  19.042  25.657  13.852
16425W        W81586  21.918  14.227  10.206
16426W        W81587  30.483  41.158  11.416
16427W        W81588  24.488  22.730  14.978
16428W        W81589  16.639   4.814   3.164
16429W        W81590  16.613  30.744  14.051
16430W        W81591  35.878   4.851  14.938
16431W        W81592  41.258  29.972  13.157
16432W        W81593  23.709  12.237  12.114
16433W        W81594  27.456  28.911  12.935
16434W        W81595  19.539  24.000  12.992
16435W        W81596  18.629  34.686   3.624
16436W        W81597  22.635  16.714  10.821
16437W        W81598  24.083   8.475  14.462
16438W        W81599   1.000   0.791  10.971
16439W        W81600  28.528   4.385   2.143
16440W        W81601  44.295   5.280   1.246
16441W        W81602  12.893  15.846   3.898
16442W        W81603  24.756  15.299   3.268
16443W        W81604  11.279   7.328   0.105
16444W        W81605  27.588  28.741   3.912
16445W        W81606  43.824   2.013  13.598
16446W        W81607  37.420  16.761  13.931
16447W        W81608   0.510  32.913   3.644
16448W        W81609  11.572  19.080   1.375
16449W        W81610  33.313   5.616   1.084
16450W        W81611  37.391   7.845   0.868
16451W        W81612  22.588  17.130  14.443
16452W        W81613  32.403  22.467  12.657
16453W        W81614   2.930  25.083  13.696
16454W        W81615   4.925  23.575  14.799
16455W        W81616  30.573  12.357   1.743
16456W        W81617  21.993  11.400   3.205
16457W        W81618   1.257   8.408  12.419
16458W        W81619  29.411  42.315   1.844
16459W        W81620  20.211  39.710   0.883
16460W        W81621  37.438   0.971   3.732
16461W        W81622  14.517  42.269  13.139
16462W        W81623   4.385  44.762   1.323
16463W        W81624  11.111  10.797   4.782
16464W        W81625  25.147  19.545  13.127
16465W        W81626   5.226  12.311   0.528
16466W        W81627  35.418  13.775   4.525
16467W        W81628  12.673  43.943  11.882
16468W        W81629   2.498  14.357  14.827
16469W        W81630  27.618  43.274   2.150
16470W        W81631  10.386  42.098   1.177
16471W        W81632  11.298   0.398   0.686
16472W        W81633  28.574  34.624  14.962
16473W        W81634   6.716  39.110   3.740
16474W        W81635  33.646   2.714   2.747
16475W        W81636  29.089  10.191  12.518
16476W        W81637  39.027  33.212   2.121
16477W        W81638  25.260  25.750   0.987
16478W        W81639  11.728  15.544   3.196
16479W        W81640  38.942  17.309   3.252
16480W        W81641   7.959  22.563   1.138
16481W        W81642  30.113   2.181   2.609
16482W        W81643   3.251  42.510   1.852
16483W        W81644  42.316  32.610  11.546
16484W        W81645  18.277  19.937  12.656
16485W        W81646  34.409  29.410   0.391
16486W        W81647  14.590  41.327  10.615
16487W        W81648  23.133   7.203   3.580
16488W        W81649   4.713   1.195   4.658
16489W        W81650  21.925  31.469  12.500
16490W        W81651  15.108  38.635  13.344
16491W        W81652  33.293  44.714   0.402
16492W        W81653  12.635   6.196  13.623
16493W        W81654  32.673   6.636  14.809
16494W        W81655  16.995  10.582  13.110
16495W        W81656  34.426  44.601   1.719
16496W        W81657  40.124  36.796  12.635
16497W        W81658  13.866  35.157   4.206
16498W        W81659  14.873  16.386   2.836
16499W        W81660  25.101  25.516   3.080
16500W        W81661  14.326  38.285  12.809
16501W        W81662   0.058   6.483   0.473
16502W        W81663  10.676  26.051   0.777
16503W        W81664  42.578  25.502  12.931
16504W        W81665  41.179  17.072   1.872
16505W        W81666  28.149  29.475  12.992
16506W        W81667  11.688   0.715  12.482
16507W        W81668   6.707  30.884  13.524
16508W        W81669  28.439   9.347   2.321
16509W        W81670  39.149   9.980  11.557
16510W        W81671  19.235  19.680   0.747
16511W        W81672  32.359   0.269  12.036
16512W        W81673  18.899  19.055  13.579
16513W        W81674   7.378  20.590  13.906
16514W        W81675  41.560   2.714  11.544
16515W        W81676  19.039   0.942  11.654
16516W        W81677  43.828   0.805   1.708
16517W        W81678   9.298  12.660   3.762
16518W        W81679  12.455  27.732  13.462
16519W        W81680  14.292  11.204  13.582
16520W        W81681   1.469  39.345  14.948
16521W        W81682  32.901  19.717   0.196
16522W        W81683  22.795  24.823   4.844
16523W        W81684  23.149   6.833  14.220
16524W        W81685  43.287  14.649  10.914
16525W        W81686   7.387   0.813  13.911
16526W        W81687  24.511   3.185   4.357
16527W        W81688  17.527  34.997  11.603
16528W        W81689  43.002  15.343   1.333
16529W        W81690  36.798   0.901  14.055
16530W        W81691  12.123  42.228  12.355
16531W        W81692  11.265  17.358   3.148
16532W        W81693  39.329  19.042  11.568
16533W        W81694  34.751  19.605   1.929
16534W        W81695  16.172  27.382   0.260
16535W        W81696   5.891   2.869   1.952
16536W        W81697  20.580  42.095  10.236
16537W        W81698  41.465  18.032   1.930
16538W        W81699  38.096   9.317   2.587
16539W        W81700  31.559  32.482  13.057
16540W        W81701  41.831  23.931  12.564
16541W        W81702  42.226  13.820   4.547
16542W        W81703  12.438  40.326   0.221
16543W        W81704  36.982  16.286  14.537
16544W        W81705  12.822  43.710  13.897
16545W        W81706  38.640  25.465   1.861
16546W        W81707  38.088  31.892   4.587
16547W        W81708  28.618   8.760  13.630
16548W        W81709  24.125   5.669  12.946
16549W        W81710  27.908  11.506  13.771
16550W        W81711  30.594   1.753   4.445
16551W        W81712  16.263  38.298   5.637
16552W        W81713   1.805  10.072  11.582
16553W        W81714   6.449  36.972   3.251
16554W        W81715  42.393  22.231   3.525
16555W        W81716  41.520   3.940  13.813
16556W        W81717   5.306  11.815   2.269
16557W        W81718   1.447   8.462  14.915
16558W        W81719  30.531  27.932  13.535
16559W        W81720  17.649  28.130   1.960
16560W        W81721  13.602  23.437  14.995
16561W        W81722   9.764   3.890   4.240
16562W        W81723  16.224  33.342  11.488
16563W        W81724  22.537  39.058   0.883
16564W        W81725   4.475   4.454   4.634
16565W        W81726  11.259  23.703  12.905
16566W        W81727  40.126   5.272   3.685
16567W        W81728  25.193   5.880  12.545
16568W        W81729   7.356   8.651   0.841
16569W        W81730   7.248   5.003   2.706
16570W        W81731  26.815  11.958  11.077
16571W        W81732   8.285  17.565  10.616
16572W        W81733  19.059  10.672  13.867
16573W        W81734  22.611  43.704  14.498
16574W        W81735   4.862  21.033   2.339
16575W        W81736  35.929  26.649   4.452
16576W        W81737  34.065   0.016  14.033
16577W        W81738  14.179  17.596   2.796
16578W        W81739  42.588  32.728  12.984
16579W        W81740  38.010  41.140   4.207
16580W        W81741  10.616   8.600   0.434
16581W        W81742  37.172   6.937  13.410
16582W        W81743  21.533  38.811   0.774
16583W        W81744   7.241  25.067   3.806
16584W        W81745  43.519  12.904  10.472
16585W        W81746   0.109  31.879  11.535
16586W        W81747  33.462  29.439   4.597
16587W        W81748  42.327  14.881   0.874
16588W        W81749  14.427  25.968  14.066
16589W        W81750  15.122  28.066  13.883
16590W        W81751  32.779  36.866  11.044
16591W        W81752  32.364  12.742  12.922
16592W        W81753   1.759  21.723  11.203
16593W        W81754   7.426   6.460  12.467
16594W        W81755  44.967  30.609  14.452
16595W        W81756  12.640   2.281   3.768
16596W        W81757  31.977  14.156   1.711
16597W        W81758  37.395  32.617   2.143
16598W        W81759  25.028   4.266  14.958
16599W        W81760   1.265  13.793   1.660
16600W        W81761  28.369  23.597   1.704
16601W        W81762  20.202   8.306  12.691
16602W        W81763  21.283   8.012  12.093
16603W        W81764  12.453  22.938   2.277
16604W        W81765   5.953  17.817   1.250
16605W        W81766  27.873  38.115  14.775
16606W        W81767  44.960  18.044  14.645
16607W        W81768   2.257  17.737  14.641
16608W        W81769  12.291  40.870   1.160
16609W        W81770  10.302  27.169   4.114
16610W        W81771  30.521   5.975   3.713
16611W        W81772  15.306  26.411  14.395
16612W        W81773  38.350   2.296  11.007
16613W        W81774  40.721  34.984  10.914
16614W        W81775  42.079   5.280   0.829
16615W        W81776  25.809  37.448  14.996
16616W        W81777  37.433  24.133   3.678
16617W        W81778  14.753  34.979   3.039
16618W        W81779  18.153  39.592   0.031
16619W        W81780   2.697  43.481   0.148
16620W        W81781  42.986  39.556   2.384
16621W        W81782  23.057  21.359   3.660
16622W        W81783  14.356  35.956  13.912
16623W        W81784  25.222  34.908  11.435
16624W        W81785   0.729  18.693  13.735
16625W        W81786  31.994  15.825  14.466
16626W        W81787  43.350  10.891  12.648
16627W        W81788   6.404  32.282  10.738
16628W        W81789  25.649  29.450  13.751
16629W        W81790   4.807  14.297   4.997
16630W        W81791   1.794  15.877  14.004
16631W        W81792   8.342  27.940   0.516
16632W        W81793  27.619   4.549  14.938
16633W        W81794  23.558  14.785   5.027
16634W        W81795   5.623   7.190  14.601
16635W        W81796  35.742   4.902   0.922
16636W        W81797  39.997  42.947   4.174
16637W        W81798  32.533  18.287  11.990
16638W        W81799  14.755  11.228  11.666
16639W        W81800  43.796  22.175   0.089
16640W        W81801   7.199  20.163   1.786
16641W        W81802  16.773   0.947   2.205
16642W        W81803  19.016  13.054   3.204
16643W        W81804  40.497  41.546  12.483
16644W        W81805  39.876  35.509  12.928
16645W        W81806   6.122   8.297  11.451
16646W        W81807  20.093  21.013   0.090
16647W        W81808  36.569   3.232  11.565
16648W        W81809   6.232  31.372  12.523
16649W        W81810  12.324  23.619  14.493
16650W        W81811  20.376  19.166   4.544
16651W        W81812  17.831  34.365   2.087
16652W        W81813  35.545  32.899  11.505
16653W        W81814  30.623  42.795   5.212
16654W        W81815  43.589  20.018   1.722
16655W        W81816  26.626  30.183   1.281
16656W        W81817  32.411  28.948  13.448
16657W        W81818   0.426  17.483   4.610
16658W        W81819  32.419  33.926  10.703
16659W        W81820  29.739  40.913   1.786
16660W        W81821  22.964  34.542  13.297
16661W        W81822  35.412   7.274  10.520
16662W        W81823   0.491  14.370   4.431
16663W        W81824  37.354  17.204   3.881
16664W        W81825   8.220  29.884   0.175
16665W        W81826  32.893  16.520  11.211
16666W        W81827   3.354  38.297   4.988
16667W        W81828  39.953  25.240   3.650
16668W        W81829   2.113  25.645  10.312
16669W        W81830  14.223  42.180   3.964
16670W        W81831  18.554  12.603   2.239
16671W        W81832  14.750  17.170  10.656
16672W        W81833  11.295  35.803   0.075
16673W        W81834  18.427  43.308  11.977
16674W        W81835  30.556   1.946  11.675
16675W        W81836   0.843  15.642  13.815
16676W        W81837  39.064   8.705   4.559
16677W        W81838  14.296  12.345  14.405
16678W        W81839  26.379  11.406  14.533
16679W        W81840  13.061  20.242  14.834
16680W        W81841   3.373  14.915  14.791
16681W        W81842  32.318   4.312  13.665
16682W        W81843  32.643   6.185   4.049
16683W        W81844  13.662  33.581   0.451
16684W        W81845  25.410  35.895  13.450
16685W        W81846   4.776  42.922  13.907
16686W        W81847   2.792  35.614   2.330
16687W        W81848  37.677  42.822  11.960
16688W        W81849   1.485  18.517   0.325
16689W        W81850  10.170  13.833  11.961
16690W        W81851  16.102   9.122  11.151
16691W        W81852   6.836  35.992   0.349
16692W        W81853   4.650   1.279  14.427
16693W        W81854  32.403   9.332  12.900
16694W        W81855  18.781  19.088   2.857
16695W        W81856  44.154   1.198  11.901
16696W        W81857  15.164  44.728   2.870
16697W        W81858   4.112  33.378   0.844
16698W        W81859   8.204  21.221  13.081
16699W        W81860  36.946  10.306   1.861
16700W        W81861   3.960  24.724  11.939
16701W        W81862   6.450  44.804   4.077
16702W        W81863  27.150  18.235   4.774
16703W        W81864  19.124   9.447   4.278
16704W        W81865  16.089  37.363   3.255
16705W        W81866  10.829  19.059  14.800
16706W        W81867  18.322  30.299   2.259
16707W        W81868  18.837   3.387  11.175
16708W        W81869  33.379  13.162  13.839
16709W        W81870  24.085  27.005  13.448
16710W        W81871  26.381  19.246   4.170
16711W        W81872  28.254  13.580  11.628
16712W        W81873  25.554  42.948  11.447
16713W        W81874   4.862  15.291   2.370
16714W        W81875  28.977   1.871  11.112
16715W        W81876  10.827  44.890  12.023
16716W        W81877  28.134   8.179  11.882
16717W        W81878  35.896   9.809   0.275
16718W        W81879  35.833  44.438   3.628
16719W        W81880   7.389  18.107  11.923
16720W        W81881  24.510  12.341  10.555
16721W        W81882  16.577  20.223   4.053
16722W        W81883   4.746   8.293   4.591
16723W        W81884   0.085  29.477  12.402
16724W        W81885   6.619   9.629   4.157
16725W        W81886   7.580   3.337   3.760
16726W        W81887   4.461   5.699  11.554
16727W        W81888  36.801  20.911   0.725
16728W        W81889  38.812   5.729   2.399
16729W        W81890  36.618  37.789   0.348
16730W        W81891  41.389  26.949   1.218
16731W        W81892  33.094  21.221  13.740
16732W        W81893  11.290  23.780   1.747
16733W        W81894  16.974  19.312  14.789
16734W        W81895  38.091   4.276   2.394
16735W        W81896  44.400  35.989   0.762
16736W        W81897  29.480  16.975  11.852
16737W        W81898  40.556  18.363   3.110
16738W        W81899  17.347  30.276  12.579
16739W        W81900  41.772   4.488   3.254
16740W        W81901  38.356  26.151   3.270
16741W        W81902   9.873  15.668  14.645
16742W        W81903   8.491  11.524  12.025
16743W        W81904  18.256  38.483   1.584
16744W        W81905  28.003  27.004  10.693
16745W        W81906  38.893   4.718  11.067
16746W        W81907  44.972  39.494  13.855
16747W        W81908  20.230  27.025  12.812
16748W        W81909   1.047  31.019  11.107
16749W        W81910  39.750  35.779   1.704
16750W        W81911  44.953  20.172  10.616
16751W        W81912  44.795  23.715  12.688
16752W        W81913   4.838  21.456  13.019
16753W        W81914  37.966   1.865   4.665
16754W        W81915  19.169  38.839   4.884
16755W        W81916  32.996  31.772   2.507
16756W        W81917   6.418  31.042  12.895
16757W        W81918  19.175   2.437   2.935
16758W        W81919  42.270  11.088   3.790
16759W        W81920  38.889  31.741   4.110
16760W        W81921   8.909  27.503   4.517
16761W        W81922  10.907  40.456   0.355
16762W        W81923  25.581   1.209  13.770
16763W        W81924  19.822  39.264  10.526
16764W        W81925  42.909  33.965   2.933
16765W        W81926  15.135  13.842  13.747
16766W        W81927   4.904   4.905   2.622
16767W        W81928  40.446  40.959   3.618
16768W        W81929   7.856  10.254   3.031
16769W        W81930  16.526  42.019   5.105
16770W        W81931  15.597   4.407   2.444
16771W        W81932   1.866  41.400  13.855
16772W        W81933  43.459  22.032   2.840
16773W        W81934  21.751  33.786   3.966
16774W        W81935  40.429  11.343  13.456
16775W        W81936  14.846  31.206   2.047
16776W        W81937  44.311   4.536  12.495
16777W        W81938   0.812  22.507  10.024
16778W        W81939  24.793  43.379   0.001
16779W        W81940  44.981  29.169  12.817
16780W        W81941  30.377  28.725   1.376
16781W        W81942  32.121  37.872   0.710
16782W        W81943  37.514  11.880  14.653
16783W        W81944  21.010  15.814  10.183
16784W        W81945  41.665  10.692   3.283
16785W        W81946  15.900  42.797  14.178
16786W        W81947   9.235  43.310  10.552
16787W        W81948  13.359  21.721   2.932
16788W        W81949  21.340  21.715   9.681
16789W        W81950  37.207   6.920  14.426
16790W        W81951  12.819  25.464   1.839
16791W        W81952  33.384   0.120   5.030
16792W        W81953   1.922   7.886  14.411
16793W        W81954  13.701  33.832   4.582
16794W        W81955   6.978  22.123   1.746
16795W        W81956  20.481  23.208  13.342
16796W        W81957   6.249  40.463   2.497
16797W        W81958   3.940   6.627   3.742
16798W        W81959  20.031  29.643  10.690
16799W        W81960  21.683   9.871  14.907
16800W        W81961  29.939  10.118   2.780
16801W        W81962   6.147  26.605  13.566
16802W        W81963   0.436   5.170   0.322
16803W        W81964  19.612  14.262   4.528
16804W        W81965  44.875  33.390  11.529
16805W        W81966   9.646  33.752  14.062
16806W        W81967  28.646  19.090  13.562
16807W        W81968  23.879  27.337   2.808
16808W        W81969  23.192   5.594  14.943
16809W        W81970  12.216  44.059   4.217
16810W        W81971   3.272  22.119   4.117
16811W        W81972  21.224  18.221   1.890
16812W        W81973  35.358   4.243  10.335
16813W        W81974   6.672   0.982  13.558
16814W        W81975  12.513  40.901  11.633
16815W        W81976  38.883  32.802  12.488
16816W        W81977   5.702  21.036   2.247
16817W        W81978  17.869  25.094   0.212
16818W        W81979  27.629  25.005   3.609
16819W        W81980  42.725  10.879   3.113
16820W        W81981  42.408  14.278   1.365
16821W        W81982  25.663  17.656   3.419
16822W        W81983   3.654  44.187  12.946
16823W        W81984   0.328   6.936   3.562
16824W        W81985  29.372  10.632   4.994
16825W        W81986  43.361  43.450  11.902
16826W        W81987  18.019  27.233  12.484
16827W        W81988   7.982  36.660   4.121
16828W        W81989  11.709  32.147   0.723
16829W        W81990  13.560  21.291   3.249
16830W        W81991  38.123   0.006   0.835
16831W        W81992  37.591   9.646   3.769
16832W        W81993  39.116  12.648  10.968
16833W        W81994  21.745  18.047  12.471
16834W        W81995  38.615  34.539   1.386
16835W        W81996  26.433  27.373   2.803
16836W        W81997  33.346  12.086  12.508
16837W        W81998  38.056  17.858   2.390
16838W        W81999  18.296  40.127  11.666
16839W        W82000  40.595  27.561  13.990
16840W        W82001  12.909   5.389   0.994
16841W        W82002  17.978  10.767  11.978
16842W        W82003  17.242  13.591   0.820
16843W        W82004   4.219  43.284  13.329
16844W        W82005   8.019   7.657  14.682
16845W        W82006  23.012  10.128   3.118
16846W        W82007  41.368  11.192   0.965
16847W        W82008   1.441  19.340   1.846
16848W        W82009  43.071   5.544   4.883
16849W        W82010  31.859  20.005  11.484
16850W        W82011  13.146   7.860   0.804
16851W        W82012  13.330  40.342  13.336
16852W        W82013  13.350   4.164   0.945
16853W        W82014  23.696   4.677   0.923
16854W        W82015   7.731   8.878  11.897
16855W        W82016   2.447  27.776  13.372
16856W        W82017  22.222   1.685   1.299
16857W        W82018  13.318   0.580   4.080
16858W        W82019  40.510   2.211  10.803
16859W        W82020   8.672  30.482  12.579
16860W        W82021  11.199  33.574  11.689
16861W        W82022  26.920  22.306  11.063
16862W        W82023  23.052  39.360   0.238
16863W        W82024  14.700  38.572  13.937
16864W        W82025   9.229  44.216   3.717
16865W        W82026   5.391  29.108   2.458
16866W        W82027  23.577  10.589  13.587
16867W        W82028   2.383  13.881  10.655
16868W        W82029  29.212  15.319  13.546
16869W        W82030   3.781   2.734   0.877
16870W        W82031  28.084  21.751   1.268
16871W        W82032  36.512  41.957   1.830
16872W        W82033  19.561  27.205   2.907
16873W        W82034  19.647  14.618  10.677
16874W        W82035  14.799  14.129  14.055
16875W        W82036  38.379  23.525   3.634
16876W        W82037  35.695  21.963   2.613
16877W        W82038  28.617  44.470  13.556
16878W        W82039   7.134  30.966  14.926
16879W        W82040  34.466  42.937   1.761
16880W        W82041  22.822  43.014   0.224
16881W        W82042  39.852  21.995  14.911
16882W        W82043  32.635  24.056  10.923
16883W        W82044  26.761  28.626  13.935
16884W        W82045  41.762   3.244   0.847
16885W        W82046  38.735  41.659   1.410
16886W        W82047  14.067  26.528   4.610
16887W        W82048  13.166  34.444   0.399
16888W        W82049   0.439  13.685   1.707
16889W        W82050  16.133  18.108  12.771
16890W        W82051  28.223  41.766   2.822
16891W        W82052  12.628  22.451  13.073
16892W        W82053  41.448   4.931  14.291
16893W        W82054  29.969  39.433  13.734
16894W        W82055  36.906  30.538  13.900
16895W        W82056  14.710  26.340  13.408
16896W        W82057  15.607  11.788   4.214
16897W        W82058  36.506  41.837  12.528
16898W        W82059  38.540   9.440   0.355
16899W        W82060  28.184  27.921   3.070
16900W        W82061   5.184  44.857  14.501
16901W        W82062  36.915  15.382  14.587
16902W        W82063  43.020   7.108  13.371
16903W        W82064  20.069  26.261   4.708
16904W        W82065  18.631  37.416   1.235
16905W        W82066  11.372  38.668  10.710
16906W        W82067  29.095  37.425   2.965
16907W        W82068  10.796  29.928  11.905
16908W        W82069  23.798  17.592   4.758
16909W        W82070  32.038  43.928  14.906
16910W        W82071   5.500  18.059   3.398
16911W        W82072  16.878  10.127   1.249
16912W        W82073  29.962  30.888  14.421
16913W        W82074  28.345  33.850   3.710
16914W        W82075  14.335  24.630  10.716
16915W        W82076  36.583  37.365  13.823
16916W        W82077  22.636  27.693  14.919
16917W        W82078  29.800   3.844   4.707
16918W        W82079  37.561   3.879   4.131
16919W        W82080   3.735   5.959  11.883
16920W        W82081   6.292  30.590  11.393
16921W        W82082  24.480  24.735   4.177
16922W        W82083  31.704   8.745   0.116
16923W        W82084   6.905  29.211   9.527
16924W        W82085  26.158   8.238  14.096
16925W        W82086  22.782  40.466   2.873
16926W        W82087  11.865  38.493  12.016
16927W        W82088  30.643   0.485  14.894
16928W        W82089  42.226  36.883   0.390
16929W        W82090  33.471  41.618  13.134
16930W        W82091   7.131  35.518  14.965
16931W        W82092  32.627   1.947   4.485
16932W        W82093  43.929   8.109   0.552
16933W        W82094  30.918  32.675  11.982
16934W        W82095   7.177  10.420  10.296
16935W        W82096  44.029   8.231  11.987
16936W        W82097  33.953  42.422   3.108
16937W        W82098  34.524   6.199  10.988
16938W        W82099  20.467  41.112   2.457
16939W        W82100  19.340  23.578  14.274
16940W        W82101  11.606   0.731  13.473
16941W        W82102  12.069  22.454  12.968
16942W        W82103  19.649  34.404   2.520
16943W        W82104   8.100   1.703   4.363
16944W        W82105  32.841  24.952  14.851
16945W        W82106  34.962  27.096   2.303
16946W        W82107   0.370  25.325  12.933
16947W        W82108  36.817  43.793  11.057
16948W        W82109  31.473  44.427  11.515
16949W        W82110  11.244  29.483   2.223
16950W        W82111  44.038  44.343   4.285
16951W        W82112  24.872   4.970   1.864
16952W        W82113  24.666  31.465  13.490
16953W        W82114  39.775  38.148  14.932
16954W        W82115   4.831  15.743  14.860
16955W        W82116  42.795  15.073   1.738
16956W        W82117  10.207  29.157   4.370
16957W        W82118  14.918  40.864   4.491
16958W        W82119   4.459   1.892   2.422
16959W        W82120   7.435   7.185   1.786
16960W        W82121  44.316   2.412   1.923
16961W        W82122  37.104  39.342  11.585
16962W        W82123  36.238  31.377   3.426
16963W        W82124  39.337  25.959   0.047
16964W        W82125  29.692  44.525  14.559
16965W        W82126   9.121   4.864   4.058
16966W        W82127  33.955  10.365  12.967
16967W        W82128  22.230  36.322  11.555
16968W        W82129  38.892   9.108  11.061
16969W        W82130  27.653  16.896   3.389
16970W        W82131   6.511  22.758  12.130
16971W        W82132   7.268  36.684  11.206
16972W        W82133  19.550  39.812  11.103
16973W        W82134  42.840  33.409  14.752
16974W        W82135  25.427  41.309  12.434
16975W        W82136  30.592  39.424   1.933
16976W        W82137  32.516  27.496   3.619
16977W        W82138  42.880   9.603   4.345
16978W        W82139  32.010  18.533  11.923
16979W        W82140  11.672  17.011  14.266
16980W        W82141  32.527   6.257  11.134
16981W        W82142  14.066  34.080   4.863
16982W        W82143  41.307   2.747  10.700
16983W        W82144  23.638  26.704  14.728
16984W        W82145  22.060  13.856   3.170
16985W        W82146  18.657   5.977  13.383
16986W        W82147  25.486  23.726   2.254
16987W        W82148  39.135  16.788  10.797
16988W        W82149  10.840  31.949  10.652
16989W        W82150  28.252  29.972  12.955
16990W        W82151  27.714   1.018   1.792
16991W        W82152  21.099  40.589  13.942
16992W        W82153  43.956   9.185   2.762
16993W        W82154   0.942  19.766   0.659
16994W        W82155  24.568  44.198   2.260
16995W        W82156  32.237  34.983   2.809
16996W        W82157  11.383  31.509   2.661
16997W        W82158  42.015   1.040  11.124
16998W        W82159  34.594  19.053  13.826
16999W        W82160  44.703   0.024   3.277
17000W        W82161  32.595  42.344  11.832
17001W        W82162  29.033  32.751   4.062
17002W        W82163  37.873   2.717  12.113
17003W        W82164  34.301  36.200  14.496
17004W        W82165  35.393  15.326  12.500
17005W        W82166  24.638   3.941   0.091
17006W        W82167  29.262  38.807   3.080
17007W        W82168  44.149  29.863  13.352
17008W        W82169   3.800  19.326  11.553
17009W        W82170  11.023  24.686   0.888
17010W        W82171  16.023  17.005   9.769
17011W        W82172  35.944   8.196  14.330
17012W        W82173   8.162  24.690  14.130
17013W        W82174  38.409  18.189   0.247
17014W        W82175  43.488  10.597   2.697
17015W        W82176  31.694  39.591  12.632
17016W        W82177  40.600  18.807  14.800
17017W        W82178   9.418  22.061  12.835
17018W        W82179  40.505  24.428  11.005
17019W        W82180  15.770   0.995  11.978
17020W        W82181  13.658  41.821   2.131
17021W        W82182  38.795  43.898  11.104
17022W        W82183  18.096   3.477   0.723
17023W        W82184   6.751  13.590  12.589
17024W        W82185  27.251  33.959  13.871
17025W        W82186   7.207   8.705   0.296
17026W        W82187  21.649   8.578   2.302
17027W        W82188  10.634  27.589   3.689
17028W        W82189  13.712  13.296   1.268
17029W        W82190   3.865  18.162  13.798
17030W        W82191  28.482  36.403   4.182
17031W        W82192  10.552  35.461   3.606
17032W        W82193  38.297   2.349   2.176
17033W        W82194   0.214   4.557  12.194
17034W        W82195   4.233  17.978  10.804
17035W        W82196  26.707  26.049   1.246
17036W        W82197  15.796  33.446   4.155
17037W        W82198  38.621  15.065   1.364
17038W        W82199  20.513   1.480  14.806
17039W        W82200  25.205  21.822  10.234
17040W        W82201   5.565  21.528  12.387
17041W        W82202  13.609  30.226   3.284
17042W        W82203  20.363  30.533  13.518
17043W        W82204  28.201  40.412  11.394
17044W        W82205  22.259  31.364  11.531
17045W        W82206  44.508  15.721   1.763
17046W        W82207  23.644  25.386   2.752
17047W        W82208  36.384  31.132  14.469
17048W        W82209  36.373  28.138  12.006
17049W        W82210  40.337  42.989  11.425
17050W        W82211  13.334  28.709  13.348
17051W        W82212  44.637   3.742   3.122
17052W        W82213  24.089   0.858   2.125
17053W        W82214  20.720  39.053  13.488
17054W        W82215  14.632  33.969   2.383
17055W        W82216  22.247  35.529   0.729
17056W        W82217  40.737  37.948   3.149
17057W        W82218   3.768  21.760   2.651
17058W        W82219   5.101  12.101   4.215
17059W        W82220   7.297   0.649   5.073
17060W        W82221  40.856  32.420  12.314
17061W        W82222  18.145  36.773   4.804
17062W        W82223  28.109  10.917   3.786
17063W        W82224   2.943  21.477   4.122
17064W        W82225  18.690  23.862   1.445
17065W        W82226  33.493  35.341  14.819
17066W        W82227  13.500  19.754   2.702
17067W        W82228  10.789  39.287  11.585
17068W        W82229  34.330  29.667   1.844
17069W        W82230  21.271   6.755  13.115
17070W        W82231  25.473  13.584   0.899
17071W        W82232  18.218   5.425   4.585
17072W        W82233  32.394  23.633  12.474
17073W        W82234  26.214  41.816  11.133
17074W        W82235  42.578  12.719   2.852
17075W        W82236   3.670  30.394  12.967
17076W        W82237  44.755  11.478   0.856
17077W        W82238  12.256  20.605  14.698
17078W        W82239  31.930   3.059   2.711
17079W        W82240  28.198  20.470  11.565
17080W        W82241  22.404  23.821  12.619
17081W        W82242  10.518  19.983   3.701
17082W        W82243  33.870  22.602   0.862
17083W        W82244  41.019  12.879   0.948
17084W        W82245  36.409  34.888  13.012
17085W        W82246  15.209  42.939  11.610
17086W        W82247   2.393  13.375   1.311
17087W        W82248  30.003  36.601   4.688
17088W        W82249  15.881  29.560  14.555
17089W        W82250  43.405  22.785   4.743
17090W        W82251  24.915  35.318   4.930
17091W        W82252  30.983  43.317   4.528
17092W        W82253   6.820  21.380  14.069
17093W        W82254   7.747  28.261  14.406
17094W        W82255  30.819  40.118  14.999
17095W        W82256   9.376  22.528  13.753
17096W        W82257  28.459  22.023   2.925
17097W        W82258  12.613  18.861  13.184
17098W        W82259  16.588  19.175   0.766
17099W        W82260   2.766  35.408  14.807
17100W        W82261   1.043   4.923   0.929
17101W        W82262  42.321  35.104  14.563
17102W        W82263  44.291  25.003  11.689
17103W        W82264   3.047  19.075  14.961
17104W        W82265  41.290  43.880   3.683
17105W        W82266  40.830  28.441   0.231
17106W        W82267  15.920   0.306  11.682
17107W        W82268  17.796   2.669  11.385
17108W        W82269  26.557   2.742  14.471
17109W        W82270  21.735  15.051   3.221
17110W        W82271  15.694   5.507  10.493
17111W        W82272  21.765   5.276  12.572
17112W        W82273   3.914  28.924  11.946
17113W        W82274  42.785  40.261  13.717
17114W        W82275  39.581  43.503  10.371
17115W        W82276  29.481   1.543   2.584
17116W        W82277  15.110  42.117  12.846
17117W        W82278  24.516  36.273  10.735
17118W        W82279  21.201  23.197  12.635
17119W        W82280  16.117  11.435   1.272
17120W        W82281  15.720  16.782   1.777
17121W        W82282  18.725   6.146   3.670
17122W        W82283  23.658  27.118   4.567
17123W        W82284  23.698  20.186   1.181
17124W        W82285  25.584   8.825   0.961
17125W        W82286  39.590  25.178   2.472
17126W        W82287  28.141  29.433   3.556
17127W        W82288   3.756  42.449   4.194
17128W        W82289  23.318  16.307   0.181
17129W        W82290  12.220  25.484  14.058
17130W        W82291   2.731  27.548  10.761
17131W        W82292  14.604  21.478   3.227
17132W        W82293  32.788  11.239   0.717
17133W        W82294  44.291  32.324   0.810
17134W        W82295  15.308  29.410  11.707
17135W        W82296  13.558  33.025   2.888
17136W        W82297   2.018  17.312   3.297
17137W        W82298   1.290   9.414   3.619
17138W        W82299  18.030  22.284   2.191
17139W        W82300  30.068  14.664   3.508
17140W        W82301  19.199  21.693  14.904
17141W        W82302   6.757  22.393   2.183
17142W        W82303  15.788  16.344  11.112
17143W        W82304  35.667  12.736  12.446
17144W        W82305  23.687  16.495  12.884
17145W        W82306  31.857  12.722   2.308
17146W        W82307  30.021   5.276  11.463
17147W        W82308  29.116  14.313  13.857
17148W        W82309  32.686  44.033  11.314
17149W        W82310  16.588   0.488  10.731
17150W        W82311  25.110  37.073  11.114
17151W        W82312  26.993  36.172   4.056
17152W        W82313   4.305  32.917   1.034
17153W        W82314  18.353  12.107  14.044
17154W        W82315  28.397  37.351  13.874
17155W        W82316  24.857   7.174  12.416
17156W        W82317  37.836  34.316   4.189
17157W        W82318  39.196  27.732  11.135
17158W        W82319  22.707   6.869   0.673
17159W        W82320  11.120   8.811   3.168
17160W        W82321   5.361   7.861  14.024
17161W        W82322  19.412  37.955   0.236
17162W        W82323   3.895   3.950   1.414
17163W        W82324  40.202  44.312  14.567
17164W        W82325  41.791  13.398  14.909
17165W        W82326  35.592  12.475   4.104
17166W        W82327   2.520  38.809  12.676
17167W        W82328  38.939   3.232  14.788
17168W        W82329  43.909  23.346  12.259
17169W        W82330  40.931  34.064  13.842
17170W        W82331   5.564  17.819  14.729
17171W        W82332   1.860  25.157  12.685
17172W        W82333  13.526   6.857   4.305
17173W        W82334  36.601  11.371   1.206
17174W        W82335  21.687   4.350  14.664
17175W        W82336  37.213   2.920   1.994
17176W        W82337  25.291   6.392  11.634
17177W        W82338  24.012  29.500   3.239
17178W        W82339  31.416  27.709  12.140
17179W        W82340  22.430  40.202  13.051
17180W        W82341  14.280   1.915  11.149
17181W        W82342  23.727  35.935  14.922
17182W        W82343  34.930  35.597  12.851
17183W        W82344  21.463  34.776  13.023
17184W        W82345   4.845  40.259  13.084
17185W        W82346   5.625  25.501  14.000
17186W        W82347   7.370  30.094   2.736
17187W        W82348  35.720   0.726   0.433
17188W        W82349  39.854  13.083  12.026
17189W        W82350  32.636  29.992  13.440
17190W        W82351  14.280  41.893   3.189
17191W        W82352  36.632   4.900  13.403
17192W        W82353  34.865  33.191   4.531
17193W        W82354  43.506   2.107   4.109
17194W        W82355  35.151  44.173  12.938
17195W        W82356  36.315  21.500  12.353
17196W        W82357   2.502  34.668  10.886
17197W        W82358  28.218  13.685   3.557
17198W        W82359  17.720  21.615   3.770
17199W        W82360  31.882  26.948  13.563
17200W        W82361  10.899  10.181   4.185
17201W        W82362   1.839  24.129  12.537
17202W        W82363  24.950  11.584   1.415
17203W        W82364   5.258  40.735  10.672
17204W        W82365   2.797   1.793   4.748
17205W        W82366   9.089   4.623  13.009
17206W        W82367   9.263  21.118  13.118
17207W        W82368  16.249   3.750  10.581
17208W        W82369  11.563  18.020  11.138
17209W        W82370  38.490  35.913  14.285
17210W        W82371  14.267   1.206  12.382
17211W        W82372   6.303  27.696  14.415
17212W        W82373  26.415  33.945   2.374
17213W        W82374  20.825  25.478  11.718
17214W        W82375  10.353   1.702   3.122
17215W        W82376  32.454  20.716  11.152
17216W        W82377   7.597  12.082   0.427
17217W        W82378  13.250   2.587   1.389
17218W        W82379   4.667  34.573   3.335
17219W        W82380  37.552  31.623  12.014
17220W        W82381  25.177  30.719  12.852
17221W        W82382  23.579  27.567   3.330
17222W        W82383   6.350  40.323   1.496
17223W        W82384  11.380  13.057   1.701
17224W        W82385  26.611   4.776  13.370
17225W        W82386   8.418  43.499   0.316
17226W        W82387   1.908  33.046   4.237
17227W        W82388   9.933  28.520  14.812
17228W        W82389  33.019  41.864   2.279
17229W        W82390   5.696  29.654  12.544
17230W        W82391  38.790  35.023  13.391
17231W        W82392  22.318  10.808  14.445
17232W        W82393  21.962  36.462  14.823
17233W        W82394  18.799  18.363   4.710
17234W        W82395  18.060  28.656   2.748
17235W        W82396  10.535  13.444  11.962
17236W        W82397   7.945  43.027   0.895
17237W        W82398  29.476  37.024   2.773
17238W        W82399  18.027   0.996   3.652
17239W        W82400  19.968  29.607   0.820
17240W        W82401  33.920   5.427  11.937
17241W        W82402  31.695  12.462   0.405
17242W        W82403  21.289  30.660   3.264
17243W        W82404  33.903  13.623   0.499
17244W        W82405  33.310  10.347   1.209
17245W        W82406  12.749   3.782  10.797
17246W        W82407  33.855  31.934   0.935
17247W        W82408  30.405  27.918   3.772
17248W        W82409  29.628   6.655   1.314
17249W        W82410  17.208  14.196  13.986
17250W        W82411   6.113   4.969  13.585
17251W        W82412  24.171  13.226  11.943
17252W        W82413   7.263   3.215   4.167
17253W        W82414  16.856   1.702   1.893
17254W        W82415  43.005  25.215  14.835
17255W        W82416   2.206   4.287   2.926
17256W        W82417  12.242  27.205  10.882
17257W        W82418  19.075  31.468   3.092
17258W        W82419  25.403  39.349  11.539
17259W        W82420  22.397  21.319   3.619
17260W        W82421  14.452  36.685   2.559
17261W        W82422  17.496  43.302  13.011
17262W        W82423  33.360  15.077   2.419
17263W        W82424  30.945  40.855  13.778
17264W        W82425  23.660  20.227   0.251
17265W        W82426  13.470  21.590  11.634
17266W        W82427   2.871   1.300  11.229
17267W        W82428  37.302  32.047   0.852
17268W        W82429  37.019  30.911   2.705
17269W        W82430  22.328  25.504  13.508
17270W        W82431  44.249  42.392  10.653
17271W        W82432   0.204  21.676  13.908
17272W        W82433  31.555  39.890  12.235
17273W        W82434  31.034   9.763  12.934
17274W        W82435   8.878   2.601  11.571
17275W        W82436  36.379   8.341   0.384
17276W        W82437  13.792  39.360  13.446
17277W        W82438  37.463  37.916   3.784
17278W        W82439  38.571  22.323   1.837
17279W        W82440   0.293  39.111  13.877
17280W        W82441  41.533  39.929   3.679
17281W        W82442  34.832  35.842  10.092
17282W        W82443  19.973  21.777  13.413
17283W        W82444  33.974  32.511   1.673
17284W        W82445  42.629   2.560  12.554
17285W        W82446   2.007   0.863  13.517
17286W        W82447  16.003  39.539   1.365
17287W        W82448  37.985  23.426   4.703
17288W        W82449  27.758  16.261  11.231
17289W        W82450  29.639  21.011   1.883
17290W        W82451  21.609  28.085   4.902
17291W        W82452  23.151  11.432   4.082
17292W        W82453  38.354  28.446  12.123
17293W        W82454  12.174   8.249   4.532
17294W        W82455  32.680  24.560  13.743
17295W        W82456  41.726  41.501   2.991
17296W        W82457  42.469  42.466   3.112
17297W        W82458  41.023  33.824   3.163
17298W        W82459   5.237  10.409  10.471
17299W        W82460  33.641  37.579  14.899
17300W        W82461  21.562  16.754   9.681
17301W        W82462   8.754  38.502   1.641
17302W        W82463  25.759  38.394  12.495
17303W        W82464   2.780   3.193   3.768
17304W        W82465  14.261   9.130  10.757
17305W        W82466  25.993  32.617   2.820
17306W        W82467  15.748  24.546   1.854
17307W        W82468  20.383  37.571   9.917
17308W        W82469  18.925  23.205   4.729
17309W        W82470   6.739  12.818   3.676
17310W        W82471   6.280  43.369   2.355
17311W        W82472   7.444  21.185   5.051
17312W        W82473  27.854  17.054  12.959
17313W        W82474  14.112  16.031  11.606
17314W        W82475   4.511  15.390   4.435
17315W        W82476  35.785   0.808  14.917
17316W        W82477  11.702  28.403   3.657
17317W        W82478  13.308  21.509  12.521
17318W        W82479  26.137   6.793   0.916
17319W        W82480  25.982  34.486   2.655
17320W        W82481  16.054  23.651   2.352
17321W        W82482  26.075  39.098  11.069
17322W        W82483  36.516   9.238   0.643
17323W        W82484  31.132   1.869  14.238
17324W        W82485  26.069  32.590  14.469
17325W        W82486   2.217  18.692  14.979
17326W        W82487   6.111  16.872  13.714
17327W        W82488  10.625  13.836   1.676
17328W        W82489  28.664  41.490   4.633
17329W        W82490  10.098  15.320  14.953
17330W        W82491   1.613   0.513  11.171
17331W        W82492  36.796  39.393  14.778
17332W        W82493  36.321  16.776  11.651
17333W        W82494  31.652   1.828  12.949
17334W        W82495  22.525  26.056   1.375
17335W        W82496  34.532  23.541  10.642
17336W        W82497  34.667  11.420   1.247
17337W        W82498   5.732  18.735   0.771
17338W        W82499   8.194   5.141   1.334
17339W        W82500  18.670  18.782  14.901
17340W        W82501   5.700  10.869   0.028
17341W        W82502  26.018  14.848   3.755
17342W        W82503  28.970  43.081   4.377
17343W        W82504  14.897  32.415  11.885
17344W        W82505   7.720  35.473  10.727
17345W        W82506  10.353  34.947  10.617
17346W        W82507  16.684  22.146   2.706
17347W        W82508   9.404  10.635   4.075
17348W        W82509   3.599  40.604   4.799
17349W        W82510   6.653   1.157  10.738
17350W        W82511  18.306  42.382   1.164
17351W        W82512   6.798  12.365   1.043
17352W        W82513  24.681  39.396   3.365
17353W        W82514  41.451  31.364  13.241
17354W        W82515  31.675  18.466   0.894
17355W        W82516   1.834   4.799  12.448
17356W        W82517  17.160  10.256  11.848
17357W        W82518   8.763  34.356   3.579
17358W        W82519  21.726  43.640  14.388
17359W        W82520  21.446   6.836   4.026
17360W        W82521  37.868   9.073   0.861
17361W        W82522  29.508  32.245   3.233
17362W        W82523  41.752  24.245  12.147
17363W        W82524  11.120   9.711   2.341
17364W        W82525   7.345  23.163  14.846
17365W        W82526   9.366  23.092  14.972
17366W        W82527  23.146  29.558  11.531
17367W        W82528   8.087   1.176   3.117
17368W        W82529  17.554  22.209  14.741
17369W        W82530  18.779   8.620   4.193
17370W        W82531   5.110  41.564   1.744
17371W        W82532  20.201  23.522  10.614
17372W        W82533  23.371   8.958   0.345
17373W        W82534  23.608   7.728  12.472
17374W        W82535  35.552  34.948   2.665
17375W        W82536   5.774  12.010   3.248
17376W        W82537  32.951  38.748   1.543
17377W        W82538   8.144   7.280  13.560
17378W        W82539  15.233  23.058  13.077
17379W        W82540   2.744   7.882   0.447
17380W        W82541  42.546  35.329  11.877
17381W        W82542  18.482   4.739   4.196
17382W        W82543   9.372  33.903   0.271
17383W        W82544  22.536  11.805   9.904
17384W        W82545  18.930   9.921   2.172
17385W        W82546   0.776  33.728   0.597
17386W        W82547  37.976  19.701  10.668
17387W        W82548  28.221  11.659  14.168
17388W        W82549   8.326  22.914   2.627
17389W        W82550  30.085  39.567   4.276
17390W        W82551  14.972  22.131  14.429
17391W        W82552   6.275  18.228   2.282
17392W        W82553  39.572  24.977  12.471
17393W        W82554   4.974  12.460   1.788
17394W        W82555   6.756   4.476   4.680
17395W        W82556  35.423  31.852  11.605
17396W        W82557  25.963   1.499   2.370
17397W        W82558  32.795  22.107   4.174
17398W        W82559   0.268  18.657  14.415
17399W        W82560  36.306  15.123  11.176
17400W        W82561   3.293  28.542  10.738
17401W        W82562  38.022  28.084   4.674
17402W        W82563  35.541  18.630  12.273
17403W        W82564  24.056  38.800  12.000
17404W        W82565  32.186   0.908   3.722
17405W        W82566  33.046   7.743   2.246
17406W        W82567  21.344  17.702   3.192
17407W        W82568  40.522  30.790  12.832
17408W        W82569  26.084  16.229   3.305
17409W        W82570  15.486   1.968   2.650
17410W        W82571  35.049  13.842   4.123
17411W        W82572  41.318  24.484   1.240
17412W        W82573  37.901  26.323   3.080
17413W        W82574  37.117   6.646   4.653
17414W        W82575  43.260   5.297   3.235
17415W        W82576  41.692   6.398   4.257
17416W        W82577  38.794  16.232   2.306
17417W        W82578  33.869  28.159   0.686
17418W        W82579  39.133  43.306  13.757
17419W        W82580   7.262  43.679  13.442
17420W        W82581  40.988  22.047   2.812
17421W        W82582  40.220  37.099   1.252
17422W        W82583  30.380  27.268  11.988
17423W        W82584   9.199  28.585  10.650
17424W        W82585  44.297  14.547  13.541
17425W        W82586  28.654  25.977  12.873
17426W        W82587  22.685  42.427  11.105
17427W        W82588   9.247  31.804  12.534
17428W        W82589  29.639   8.389   3.890
17429W        W82590  22.705  10.837   1.018
17430W        W82591   9.129   1.078   4.186
17431W        W82592   1.344   0.969  12.876
17432W        W82593  28.960  16.130   2.760
17433W        W82594  37.339  20.252  12.390
17434W        W82595  44.535  31.430   1.326
17435W        W82596   0.395   1.923  11.707
17436W        W82597   8.235  25.407  13.318
17437W        W82598   6.215   5.198   0.280
17438W        W82599   2.764  15.756   2.292
17439W        W82600  22.568   4.514   1.443
17440W        W82601  17.213  36.571  12.583
17441W        W82602  35.964  41.483   0.363
17442W        W82603  15.630   7.819   0.880
17443W        W82604  21.825  29.616  11.489
17444W        W82605  28.491   9.898  14.297
17445W        W82606  41.225  33.509  12.955
17446W        W82607  39.555  15.710  14.282
17447W        W82608  30.582  11.156   1.778
17448W        W82609   4.801  42.809   0.371
17449W        W82610  32.487  42.680   4.547
17450W        W82611  16.499  38.441  10.996
17451W        W82612   9.283  26.682  12.443
17452W        W82613  26.622  17.661   4.530
17453W        W82614  28.436  41.831  13.159
17454W        W82615  22.876  16.690   0.089
17455W        W82616  18.626  29.022  11.084
17456W        W82617  15.229  16.828   2.152
17457W        W82618   4.166  16.721  14.711
17458W        W82619   8.636  38.394  11.858
17459W        W82620  35.115  28.220   2.805
17460W        W82621  16.162  33.143   3.248
17461W        W82622  38.810  18.320  14.439
17462W        W82623  38.525  12.364   0.792
17463W        W82624  38.340  38.059   2.149
17464W        W82625  32.121  27.363   0.992
17465W        W82626   6.779  10.175  13.894
17466W        W82627  37.762  32.454  12.150
17467W        W82628  33.434  15.148  11.939
17468W        W82629  10.290   6.877  12.653
17469W        W82630  44.397  30.642   1.680
17470W        W82631  13.246  20.471  14.389
17471W        W82632  32.733  14.633  12.971
17472W        W82633  20.476  21.272  12.435
17473W        W82634  21.792  34.418  10.615
17474W        W82635  22.726  16.825  10.284
17475W        W82636  17.495   4.024   1.015
17476W        W82637   3.646  35.872  14.958
17477W        W82638  22.405   6.296  14.737
17478W        W82639  24.169   0.694   4.559
17479W        W82640  22.175  33.059   3.997
17480W        W82641  40.990   6.730   2.334
17481W        W82642  21.604   7.890  11.669
17482W        W82643  11.672  32.636  11.328
17483W        W82644  19.854  32.576   4.482
17484W        W82645  31.605  11.123   1.915
17485W        W82646   2.415   2.233  14.483
17486W        W82647  25.557  19.112  10.349
17487W        W82648  33.379  38.993  13.573
17488W        W82649  44.328  11.164  13.150
17489W        W82650  31.535  32.055   0.594
17490W        W82651   9.078   1.306   3.288
17491W        W82652  32.120  28.730   3.208
17492W        W82653  27.695  29.053  13.428
17493W        W82654  32.052   7.192  13.535
17494W        W82655  20.546  33.057   4.747
17495W        W82656  43.762  32.806   4.998
17496W        W82657   0.861  20.012  10.712
17497W        W82658  10.696   4.747   2.937
17498W        W82659  17.201   9.321   4.658
17499W        W82660  37.104  14.833   4.048
17500W        W82661  33.221  32.976  13.866
17501W        W82662   3.064   7.486   0.349
17502W        W82663  38.882  38.551  11.690
17503W        W82664  15.055  20.660  11.392
17504W        W82665   8.689  28.003  11.578
17505W        W82666  26.863  28.465   0.433
17506W        W82667   2.970  16.943   2.309
17507W        W82668  32.057   2.897   0.232
17508W        W82669  15.640  26.756   5.150
17509W        W82670  20.776  21.098  10.763
17510W        W82671  27.321  43.442  14.317
17511W        W82672  18.046  22.037  11.146
17512W        W82673  43.233  30.006   4.173
17513W        W82674  18.442  28.151   2.131
17514W        W82675  11.392   2.606   0.407
17515W        W82676   7.943  30.516   1.047
17516W        W82677   2.941   6.754  13.338
17517W        W82678   3.748  12.673  10.725
17518W        W82679  13.071  10.004   0.229
17519W        W82680  10.521  12.598   4.257
17520W        W82681  39.112   3.009   0.734
17521W        W82682  24.562   8.366   3.697
17522W        W82683  41.285   7.274   4.212
17523W        W82684  34.395  22.012   0.233
17524W        W82685   1.144  32.397   4.160
17525W        W82686   8.306   1.235  11.615
17526W        W82687  44.223  23.022  13.272
17527W        W82688  18.276  40.976   1.763
17528W        W82689  43.305   5.894   2.878
17529W        W82690  32.935  32.669   1.430
17530W        W82691   5.637  26.527  11.615
17531W        W82692  26.070  21.227   2.121
17532W        W82693  24.499   8.804  12.435
17533W        W82694  34.856  15.400   5.137
17534W        W82695  20.339   3.855  13.498
17535W        W82696  39.184  33.157   9.979
17536W        W82697  11.794  35.323   0.995
17537W        W82698  30.150  25.071  10.906
17538W        W82699  12.723  41.520   3.502
17539W        W82700  34.344  32.581  11.051
17540W        W82701   5.329  15.637  11.467
17541W        W82702  11.185   5.916  14.552
17542W        W82703  15.181   2.767  11.897
17543W        W82704  31.582   2.420   3.418
17544W        W82705  19.252   9.588  14.255
17545W        W82706  44.840   7.597   3.876
17546W        W82707  37.863  43.184  10.629
17547W        W82708  22.999  13.692  11.971
17548W        W82709  18.664  15.849   1.777
17549W        W82710   4.367  30.668  12.558
17550W        W82711  33.245  28.693  11.151
17551W        W82712  16.783   5.778  11.111
17552W        W82713  25.068   9.175   2.113
17553W        W82714  10.632  24.572  14.942
17554W        W82715  15.372  36.017  10.819
17555W        W82716  36.978  19.145  13.779
17556W        W82717   1.310   9.013   4.558
17557W        W82718  29.412  13.508  12.926
17558W        W82719  42.731  29.622   0.103
17559W        W82720  20.199   7.988   1.670
17560W        W82721  19.851  20.064   2.699
17561W        W82722  18.756  12.607   3.235
17562W        W82723  38.119  13.371   3.905
17563W        W82724  29.567  30.211  12.626
17564W        W82725  28.915   7.636  13.769
17565W        W82726  31.254   6.780   0.422
17566W        W82727  35.764  29.903  10.706
17567W        W82728  42.626   3.007   4.249
17568W        W82729  12.806   1.801  10.884
17569W        W82730  35.106  34.876   4.081
17570W        W82731   4.117   6.487  13.524
17571W        W82732   5.976  12.865   2.320
17572W        W82733   0.364   4.674   0.311
17573W        W82734   7.038   4.614  13.547
17574W        W82735  24.584  37.959   1.679
17575W        W82736   5.762   3.918   0.573
17576W        W82737   6.888   4.726   0.890
17577W        W82738  31.569  38.436   0.220
17578W        W82739  40.506  14.590  14.623
17579W        W82740  16.190  34.938   2.819
17580W        W82741   1.007  29.471  14.192
17581W        W82742  14.228  21.368   0.947
17582W        W82743   2.674   3.398   1.432
17583W        W82744   4.772  22.986   2.168
17584W        W82745  13.869  28.947  12.447
17585W        W82746  11.732  42.761  11.540
17586W        W82747  15.837  10.337  14.893
17587W        W82748  28.122  36.499  13.784
17588W        W82749  41.949  44.248  14.781
17589W        W82750  30.776  42.641   2.363
17590W        W82751   5.440  10.659   1.418
17591W        W82752  21.040  43.282   2.351
17592W        W82753  39.990  33.150  14.356
17593W        W82754  44.348  20.913  13.950
17594W        W82755  20.653  33.675   4.707
17595W        W82756  25.171  42.530  11.105
17596W        W82757  41.426  11.902  12.334
17597W        W82758  14.238  33.984   0.777
17598W        W82759  38.835   1.504   3.849
17599W        W82760  34.055  22.195   1.151
17600W        W82761  25.135  13.277  12.008
17601W        W82762  22.547   5.882  13.900
17602W        W82763  22.550  33.469   0.392
17603W        W82764  17.645   1.317  10.378
17604W        W82765  35.134  20.583   1.857
17605W        W82766  11.614  38.512   4.368
17606W        W82767  39.283  10.302   3.749
17607W        W82768  18.870  28.267   4.464
17608W        W82769  26.680  17.300  11.090
17609W        W82770  40.367  12.991  12.058
17610W        W82771  42.269  40.774  13.708
17611W        W82772  15.122   9.242  13.780
17612W        W82773  30.420   2.814  13.510
17613W        W82774  15.875  10.555   9.848
17614W        W82775  24.303  20.766   0.546
17615W        W82776  37.067  39.477  10.715
17616W        W82777  39.330  40.542   3.595
17617W        W82778  15.153  11.417   1.323
17618W        W82779  40.634  12.215   4.510
17619W        W82780  16.790  19.756  12.569
17620W        W82781  21.565  26.953   4.246
17621W        W82782   7.228   2.224   4.427
17622W        W82783  12.106  26.971  14.307
17623W        W82784   9.811  32.878   1.257
17624W        W82785  12.297  35.032   0.901
17625W        W82786  39.884  29.908   0.099
17626W        W82787   9.303  26.770   4.506
17627W        W82788   8.135   1.863  14.706
17628W        W82789   2.347  11.646   0.293
17629W        W82790  42.607  38.800   3.111
17630W        W82791   1.340   3.524  12.872
17631W        W82792  16.314  37.957   5.222
17632W        W82793  39.395  13.150   2.781
17633W        W82794  23.924  13.045  11.135
17634W        W82795  32.234  17.000   3.523
17635W        W82796   1.826  44.389  11.604
17636W        W82797   5.220  23.821  12.017
17637W        W82798  44.078  38.642   4.586
17638W        W82799  43.415   8.862  12.952
17639W        W82800  28.183  23.492  13.387
17640W        W82801  18.828   1.774  12.161
17641W        W82802   6.365  18.581  13.060
17642W        W82803  38.519  23.932   1.029
17643W        W82804   8.366  33.493  11.198
17644W        W82805  11.164  25.953  11.585
17645W        W82806   3.871  37.958  14.148
17646W        W82807  32.837  25.978  14.026
17647W        W82808  16.595  11.119  11.223
17648W        W82809  17.607   7.455  13.070
17649W        W82810  15.311  24.474   0.318
17650W        W82811  39.382  43.839   0.447
17651W        W82812  19.835  43.129   0.452
17652W        W82813   3.051  26.456  11.594
17653W        W82814  33.691  20.090   1.429
17654W        W82815  32.197  19.386  14.418
17655W        W82816  16.543  26.975  13.508
17656W        W82817  28.224  43.343  11.414
17657W        W82818  31.369  22.148   1.377
17658W        W82819  28.117  17.525   1.783
17659W        W82820  22.625  30.193  14.901
17660W        W82821  14.116  33.847  14.317
17661W        W82822  20.500  28.848  12.622
17662W        W82823   0.087  16.719  11.785
17663W        W82824  23.661  13.694   1.489
17664W        W82825  34.133  17.741   4.190
17665W        W82826  39.269  38.917  12.996
17666W        W82827  30.960  26.570  10.777
17667W        W82828  42.380   6.333   0.883
17668W        W82829  28.321   9.811   3.362
17669W        W82830  37.040   0.024   1.317
17670W        W82831  41.875  35.367   0.317
17671W        W82832  31.398   3.479  13.022
17672W        W82833  21.782   3.725  11.913
17673W        W82834  14.907   8.734  14.854
17674W        W82835  20.179   9.695   4.619
17675W        W82836  15.573  40.523   1.250
17676W        W82837  11.304   8.732   1.139
17677W        W82838  43.579  23.180   3.427
17678W        W82839  31.903  44.618   4.411
17679W        W82840  31.998  15.629   4.093
17680W        W82841  39.857  19.684  11.132
17681W        W82842  17.254  16.794  13.491
17682W        W82843  40.600  38.411   4.337
17683W        W82844  41.471  44.333   2.268
17684W        W82845   4.817  31.430  14.002
17685W        W82846  37.589   1.017   2.230
17686W        W82847   2.432  16.217   0.651
17687W        W82848  27.575  22.262   1.896
17688W        W82849  34.616  44.319  10.698
17689W        W82850  24.861  14.167   2.142
17690W        W82851  23.962  41.944   2.794
17691W        W82852  28.675  12.784   3.710
17692W        W82853  34.933   9.875  12.560
17693W        W82854  34.970  44.521  14.848
17694W        W82855  24.016  10.858   3.133
17695W        W82856  32.021  10.300  10.754
17696W        W82857  10.688   9.099   0.854
17697W        W82858  32.639  34.434   1.921
17698W        W82859  24.230  34.510  10.717
17699W        W82860   1.993  14.070  14.905
17700W        W82861  42.582  17.785  13.916
17701W        W82862  37.643   7.768   1.332
17702W        W82863   8.422   9.588   3.162
17703W        W82864  17.827  10.382  14.941
17704W        W82865   9.685  13.216   4.963
17705W        W82866  12.724  36.806   3.145
17706W        W82867   8.826  44.047  14.955
17707W        W82868  18.411  24.567   3.148
17708W        W82869   8.735  10.490  10.185
17709W        W82870   1.679   6.376   1.489
17710W        W82871  14.492  37.314  12.079
17711W        W82872  38.315   9.467  13.464
17712W        W82873   5.364  11.391  12.122
17713W        W82874  36.124  11.119  12.609
17714W        W82875  10.708  28.943  11.184
17715W        W82876  22.708   1.884   2.641
17716W        W82877  33.434  24.009  11.198
17717W        W82878   8.380  14.076   1.247
17718W        W82879  33.354  16.784  11.174
17719W        W82880  22.204  36.808  13.830
17720W        W82881   2.191  29.623  11.615
17721W        W82882  11.385   1.354  14.546
17722W        W82883  13.687  36.461   0.090
17723W        W82884   5.187  34.937   1.787
17724W        W82885  29.539  40.131  13.376
17725W        W82886  40.310   5.572  11.695
17726W        W82887  25.455  35.167   2.354
17727W        W82888  17.282  27.428  13.803
17728W        W82889   4.990  19.141   2.053
17729W        W82890  19.231   3.947  14.938
17730W        W82891  12.664  29.449  12.142
17731W        W82892  37.768  36.199   4.517
17732W        W82893  15.987  14.680   2.318
17733W        W82894  43.575  13.737  11.532
17734W        W82895   5.121  33.044   0.757
17735W        W82896  40.798  39.393  14.776
17736W        W82897  17.249  21.162  10.774
17737W        W82898  11.436  11.165   2.790
17738W        W82899  15.444  10.608   2.495
17739W        W82900  28.512  37.333  12.952
17740W        W82901  25.522  17.195  11.945
17741W        W82902   4.683   4.649  12.589
17742W        W82903   9.855  36.979   1.886
17743W        W82904  17.962  23.516  12.948
17744W        W82905  34.493   2.286  10.746
17745W        W82906  34.150  22.781   0.432
17746W        W82907  29.906  34.610   4.779
17747W        W82908  38.363   6.073  11.326
17748W        W82909  15.754   2.899   0.719
17749W        W82910  30.528  20.085   4.678
17750W        W82911  33.125   4.499  11.839
17751W        W82912   7.258   6.159  12.006
17752W        W82913  34.367  44.496  12.549
17753W        W82914  42.996  31.881   2.714
17754W        W82915  30.048  36.820   3.600
17755W        W82916   1.303   8.825   2.830
17756W        W82917  35.367  30.890  10.677
17757W        W82918  39.107  34.564  11.534
17758W        W82919   4.767  24.443  12.364
17759W        W82920  16.832  28.032   3.123
17760W        W82921  11.802  32.962  12.461
17761W        W82922  37.470  39.726  11.602
17762W        W82923  11.384  23.069   3.231
17763W        W82924  36.408  28.698  11.073
17764W        W82925  20.243  44.594   4.198
17765W        W82926  34.178  38.570   3.032
17766W        W82927  28.215  14.346  13.463
17767W        W82928  22.647  38.107  13.405
17768W        W82929  22.684  21.453   0.797
17769W        W82930  23.197  24.211   0.438
17770W        W82931  18.014  38.287   4.140
17771W        W82932   9.780  30.460   2.731
17772W        W82933  30.621  10.230  12.473
17773W        W82934   7.295  22.989   3.291
17774W        W82935  23.396   5.398  11.907
17775W        W82936  42.108  23.088  12.450
17776W        W82937  23.243   9.790   3.665
17777W        W82938  24.938  21.713   0.417
17778W        W82939  25.535  32.686   3.081
17779W        W82940  15.801   0.400  13.894
17780W        W82941  10.562  24.056  12.950
17781W        W82942  11.156  18.949  13.543
17782W        W82943  27.591  33.069  11.586
17783W        W82944  37.114  40.874  13.949
17784W        W82945   2.778   0.218  14.868
17785W        W82946  21.559  25.048   3.055
17786W        W82947  33.057  23.783   4.958
17787W        W82948  16.383  13.157   2.690
17788W        W82949  39.949  21.242   4.339
17789W        W82950  29.581  29.852  14.221
17790W        W82951  22.143  40.914   1.330
17791W        W82952  27.501  18.293   0.502
17792W        W82953  21.660  33.459  10.835
17793W        W82954   1.788   1.252   1.459
17794W        W82955  43.776  29.637  13.059
17795W        W82956  36.368  41.806  13.424
17796W        W82957  24.163  34.678  12.062
17797W        W82958  26.126  25.772   0.425
17798W        W82959  20.088  40.478  11.694
17799W        W82960  18.649  34.037  12.042
17800W        W82961   1.981   6.342   5.055
17801W        W82962  26.460  26.130  11.896
17802W        W82963   4.085   3.491   5.035
17803W        W82964   1.537  16.418   4.209
17804W        W82965  32.691  11.947  12.502
17805W        W82966  19.553  15.716   0.423
17806W        W82967  18.618  18.038   2.049
17807W        W82968  36.908   7.875  11.211
17808W        W82969  38.981  10.100   9.997
17809W        W82970   8.938  19.836   3.772
17810W        W82971  11.902  18.799   2.100
17811W        W82972  28.929  20.670  14.317
17812W        W82973   5.261  14.869   5.422
17813W        W82974  33.806   1.219  11.258
17814W        W82975  16.606  12.362   0.033
17815W        W82976   0.038  13.846   3.025
17816W        W82977  38.375  10.732   2.897
17817W        W82978  12.205  27.732  12.981
17818W        W82979  23.810  16.732   1.927
17819W        W82980   0.749  40.498   4.990
17820W        W82981  27.595   0.020   2.691
17821W        W82982   5.271   1.689   1.224
17822W        W82983  44.887   1.528   3.353
17823W        W82984  22.211   4.874  12.594
17824W        W82985  12.621  44.230   3.640
17825W        W82986  13.718  14.266   1.089
17826W        W82987   1.288   9.609   2.290
17827W        W82988   9.121   0.416  12.089
17828W        W82989  23.294   0.388   1.428
17829W        W82990  14.077  11.711  12.310
17830W        W82991   9.412  34.201  10.044
17831W        W82992  13.903  20.516   1.968
17832W        W82993  12.916  31.648   2.923
17833W        W82994   2.267   0.470   1.362
17834W        W82995  42.494  16.200  13.517
17835W        W82996  19.598  23.813   4.128
17836W        W82997  33.920   6.903  14.282
17837W        W82998  31.403   0.427   2.521
17838W        W82999  40.806   5.182  14.024
17839W        W83000  39.261   1.881  12.607
17840W        W83001  24.423  44.944  14.372
17841W        W83002  41.339  25.531   4.551
17842W        W83003  31.223  34.104   0.852
17843W        W83004  31.155  16.516   3.804
17844W        W83005  11.139   5.902   0.096
17845W        W83006  22.632  34.917  13.254
17846W        W83007  40.842  23.530   1.936
17847W        W83008   6.867  18.031   3.146
17848W        W83009  35.603  27.405  10.649
17849W        W83010   5.908  44.481  11.945
17850W        W83011   0.395  29.099   4.290
17851W        W83012  38.764  39.392   1.166
17852W        W83013  10.709  16.654   1.761
17853W        W83014  22.571  31.702  14.856
17854W        W83015  43.362   9.290   4.784
17855W        W83016  23.051  10.309   0.381
17856W        W83017  25.493  22.661   4.272
17857W        W83018   2.219  21.266   3.539
17858W        W83019  38.130  14.550   1.853
17859W        W83020  29.600  21.655   3.719
17860W        W83021   5.838  12.834  12.958
17861W        W83022  33.836  12.656  12.121
17862W        W83023   0.758  15.755   2.173
17863W        W83024  20.133  18.308  13.586
17864W        W83025  18.456  28.224  10.253
17865W        W83026  43.327   1.700  11.962
17866W        W83027   1.909  33.374   1.414
17867W        W83028   4.415   4.960  11.014
17868W        W83029  18.529  14.341   0.926
17869W        W83030  30.857  22.583  14.937
17870W        W83031  26.055  15.779  11.461
17871W        W83032  38.079  10.445  13.545
17872W        W83033  10.403   0.456   1.872
17873W        W83034  12.216  42.042   1.801
17874W        W83035  22.194  27.677   0.174
17875W        W83036   4.764  23.068  12.115
17876W        W83037  40.372   9.592   0.251
17877W        W83038  30.518   8.539  12.554
17878W        W83039  28.691   7.049   4.960
17879W        W83040  34.843  35.645   0.841
17880W        W83041  22.696  44.831   3.773
17881W        W83042  10.133  29.129  13.369
17882W        W83043  11.854  29.717  12.431
17883W        W83044  27.028  12.387   1.820
17884W        W83045  38.810   7.412  11.690
17885W        W83046  41.523  30.441  11.839
17886W        W83047  20.312  39.694  14.902
17887W        W83048   6.779  31.485  10.519
17888W        W83049  39.726  31.399  10.762
17889W        W83050  22.220   8.284   3.633
17890W        W83051   0.469   3.170   5.120
17891W        W83052   1.322  31.500   1.897
17892W        W83053  38.440  12.117   2.787
17893W        W83054   9.411  12.662  11.620
17894W        W83055  38.772  30.189   1.696
17895W        W83056  43.001  29.664  10.727
17896W        W83057   6.403   8.574  11.123
17897W        W83058   1.257  31.722  12.506
17898W        W83059  27.225  35.682  12.057
17899W        W83060   4.667  42.824   2.810
17900W        W83061  16.183  15.170   2.276
17901W        W83062  38.156  17.220  13.790
17902W        W83063  33.211  34.070   4.669
17903W        W83064  11.898  33.179   1.398
17904W        W83065  16.264  22.327   1.661
17905W        W83066   8.872  33.535   4.824
17906W        W83067  22.895  11.442   9.830
17907W        W83068  10.942  35.479  14.443
17908W        W83069  16.760  44.942   0.712
17909W        W83070  15.153  19.324  12.113
17910W        W83071  44.745  44.770   1.301
17911W        W83072  31.460  23.863  11.133
17912W        W83073  40.458   9.134  14.301
17913W        W83074  20.965  39.533  11.810
17914W        W83075  25.631  10.759  13.139
17915W        W83076  27.986   0.014  13.818
17916W        W83077  34.439  33.569   0.386
17917W        W83078   7.064  43.444   4.193
17918W        W83079   1.042   1.072   2.631
17919W        W83080  23.692  28.590  11.899
17920W        W83081   2.463   5.311  10.752
17921W        W83082  17.839  35.019   4.134
17922W        W83083  17.564  27.003  13.635
17923W        W83084  18.535  38.882   2.912
17924W        W83085  36.669   1.068   3.244
17925W        W83086  17.849  42.335   0.433
17926W        W83087  30.631  43.772  13.776
17927W        W83088   2.940  12.686   3.217
17928W        W83089   0.321  28.028  11.090
17929W        W83090  12.576   6.346   4.170
17930W        W83091  38.789  18.534  10.592
17931W        W83092  19.640  17.540   1.001
17932W        W83093  15.778  13.745  11.342
17933W        W83094  26.312   0.153  14.456
17934W        W83095  40.538  21.774   2.736
17935W        W83096  23.738  23.628  13.481
17936W        W83097   7.436  14.263   0.145
17937W        W83098  11.720   3.963  14.056
17938W        W83099  36.626   7.153   4.958
17939W        W83100  18.530   6.585   2.204
17940W        W83101  13.117  20.550   4.336
17941W        W83102  30.135  29.388   4.397
17942W        W83103  35.642  30.066   3.264
17943W        W83104  17.219  10.824   1.761
17944W        W83105  32.004   7.749  12.009
17945W        W83106   7.319   7.116   2.688
17946W        W83107  43.155   8.195   0.744
17947W        W83108  14.181  31.930  11.748
17948W        W83109  27.311  26.502  13.979
17949W        W83110  16.576  26.368   3.603
17950W        W83111  28.395  42.468   4.644
17951W        W83112  31.457   8.262   0.026
17952W        W83113  22.495  17.068  13.531
17953W        W83114  37.359   4.705  13.855
17954W        W83115  33.620  36.659   4.614
17955W        W83116   7.894   8.773  13.537
17956W        W83117  43.451  27.002   1.332
17957W        W83118  21.270  20.996  13.442
17958W        W83119  44.037   7.399  11.319
17959W        W83120  21.987  25.590   2.358
17960W        W83121  17.789  39.840   2.387
17961W        W83122   3.167  18.064  14.385
17962W        W83123  40.115  44.538  12.915
17963W        W83124   6.320  19.093  12.896
17964W        W83125  31.875  38.485   2.768
17965W        W83126  16.428  41.086   3.164
17966W        W83127  11.935   0.417   2.797
17967W        W83128  27.052  42.745   2.606
17968W        W83129  34.531  38.504   2.663
17969W        W83130  23.990  23.704   2.172
17970W        W83131   8.927  30.489   1.787
17971W        W83132  11.588   3.984  12.862
17972W        W83133  26.499  10.185   4.747
17973W        W83134  34.672  40.006   2.406
17974W        W83135  39.530  38.415   1.388
17975W        W83136  40.337  25.581   3.363
17976W        W83137  43.441   6.612  11.589
17977W        W83138  33.453   1.386  12.041
17978W        W83139  30.075  40.257  11.509
17979W        W83140  27.653  17.306  12.438
17980W        W83141  21.079  33.396  11.951
17981W        W83142  14.985  42.027   3.770
17982W        W83143  28.655   5.190   1.819
17983W        W83144  11.134  27.926   2.141
17984W        W83145  23.651  23.011   3.170
17985W        W83146  28.879  42.065  13.065
17986W        W83147   2.373   3.684   1.732
17987W        W83148  25.492  38.243  13.904
17988W        W83149  10.668   8.280   1.844
17989W        W83150   8.947   9.145  10.774
17990W        W83151  20.231  23.312  11.093
17991W        W83152  37.476   4.272   0.342
17992W        W83153   8.663  14.379   1.548
17993W        W83154  27.403  13.150   3.586
17994W        W83155  20.657   7.262  11.988
17995W        W83156   0.457  35.653   0.786
17996W        W83157  35.069  31.004   3.214
17997W        W83158   3.656  42.486  12.077
17998W        W83159   4.348  27.718  14.977
17999W        W83160   4.716  30.129   3.209
18000W        W83161  36.778  25.161   4.564
18001W        W83162  13.476  20.322   0.209
18002W        W83163   7.166  11.270  10.678
18003W        W83164  41.359  16.675   0.174
18004W        W83165  35.335  37.479   3.218
18005W        W83166  41.136  22.221   1.209
18006W        W83167  40.828  39.522   2.603
18007W        W83168  16.900  44.822  13.678
18008W        W83169  40.064  15.422   2.164
18009W        W83170  44.977  28.101   0.423
18010W        W83171  27.017  13.744  13.804
18011W        W83172   3.278  18.075   4.460
18012W        W83173  10.331  20.693  11.686
18013W        W83174  40.086  43.425  14.014
18014W        W83175  43.007  22.362  14.325
18015W        W83176  38.696  38.926  12.498
18016W        W83177  41.791   9.753   3.349
18017W        W83178  34.301  15.579   1.703
18018W        W83179  16.782  17.816   3.821
18019W        W83180  10.301  11.245   2.097
18020W        W83181  19.792  26.519  14.428
18021W        W83182  13.353  17.608  10.658
18022W        W83183  27.016  10.309   2.111
18023W        W83184  36.449  24.085  11.073
18024W        W83185   6.751  19.388  12.875
18025W        W83186  24.002   4.440   5.126
18026W        W83187  16.266   4.909   1.912
18027W        W83188  23.598  36.359  12.066
18028W        W83189  27.046   6.030   1.903
18029W        W83190   5.191   5.122   1.350
18030W        W83191  28.902   6.939   4.502
18031W        W83192  32.533  38.600  12.643
18032W        W83193  17.346   4.834   5.081
18033W        W83194   8.585  40.108  10.690
18034W        W83195  27.134   5.421  14.507
18035W        W83196  26.513   3.821  14.028
18036W        W83197  21.493  41.352   1.683
18037W        W83198  32.766   8.166  12.515
18038W        W83199  27.993  35.912   4.083
18039W        W83200  10.264  42.332  13.857
18040W        W83201  41.352  10.159  11.122
18041W        W83202  16.226   3.694   2.517
18042W        W83203  23.162   8.744   2.149
18043W        W83204  20.739   8.622   4.690
18044W        W83205  16.976   1.371  14.440
18045W        W83206  35.527  21.751   4.371
18046W        W83207  31.713  11.730  12.634
18047W        W83208  19.845  27.302  14.720
18048W        W83209  30.451  23.553   3.448
18049W        W83210  16.032  32.854  13.351
18050W        W83211   0.812   9.833   1.375
18051W        W83212  36.936   1.455  12.675
18052W        W83213  24.606  25.575   2.868
18053W        W83214   9.370   8.418   4.325
18054W        W83215  39.928  31.661  14.272
18055W        W83216  36.659  13.513  11.063
18056W        W83217   5.290  31.936  13.289
18057W        W83218   5.971  13.833  13.956
18058W        W83219  34.880   5.265  10.910
18059W        W83220  32.885  35.628   2.729
18060W        W83221  17.142  38.545  10.203
18061W        W83222  38.112  30.618  12.550
18062W        W83223  31.668  30.641  14.852
18063W        W83224   7.552  25.952   1.270
18064W        W83225  13.021   8.292   0.527
18065W        W83226  17.244  35.867  10.737
18066W        W83227  31.094  40.560  11.099
18067W        W83228  28.638  15.565  10.690
18068W        W83229  16.149  43.904  12.939
18069W        W83230   9.071   2.987  10.693
18070W        W83231  16.146  36.081   4.612
18071W        W83232  41.784  23.597   1.530
18072W        W83233  39.819   2.800   3.245
18073W        W83234   4.687  12.141  14.060
18074W        W83235   4.803   3.926  14.294
18075W        W83236   1.432  44.438   3.821
18076W        W83237  29.123  26.830   1.341
18077W        W83238  39.890  22.684   4.330
18078W        W83239  34.094  10.001  10.273
18079W        W83240  13.392  19.436   3.621
18080W        W83241  34.072   8.818  13.220
18081W        W83242  24.574  40.102   2.273
18082W        W83243  17.719  22.518  13.788
18083W        W83244  18.388  24.962   4.318
18084W        W83245  26.102   5.476  11.035
18085W        W83246  10.886  29.401   2.857
18086W        W83247  38.753   5.964   0.605
18087W        W83248   3.756  29.485   0.537
18088W        W83249  13.656   1.513  14.844
18089W        W83250  22.725   5.866  14.823
18090W        W83251  16.091  21.258  13.331
18091W        W83252  33.062  40.920  13.492
18092W        W83253  24.988  43.900  12.024
18093W        W83254  35.107   8.820   3.258
18094W        W83255   4.481  36.206   3.743
18095W        W83256  43.807   3.784  13.568
18096W        W83257  12.116  31.484   3.255
18097W        W83258  36.478  10.658   1.307
18098W        W83259  38.366  37.460  10.416
18099W        W83260  43.518  33.229   2.845
18100W        W83261  26.644  21.781  14.347
18101W        W83262  29.936  36.078  11.425
18102W        W83263  10.364  21.627   0.967
18103W        W83264  12.904  44.214  14.193
18104W        W83265  11.266   7.062   2.544
18105W        W83266  10.801  29.973   4.694
18106W        W83267  39.585   2.475  10.937
18107W        W83268  10.749   8.053   3.437
18108W        W83269   1.909  13.502  11.549
18109W        W83270  33.031  20.031  14.331
18110W        W83271  23.236  33.803  14.393
18111W        W83272  27.516  21.003   0.224
18112W        W83273  34.135  21.742   0.678
18113W        W83274  36.865  15.169   3.721
18114W        W83275   4.957  33.528  12.813
18115W        W83276  23.873   3.233  11.011
18116W        W83277  32.174  16.106  14.075
18117W        W83278   8.220  28.550   1.233
18118W        W83279  40.357  42.007  11.803
18119W        W83280   5.345  11.189   1.418
18120W        W83281  19.031  11.346   4.578
18121W        W83282   1.962  39.266  14.756
18122W        W83283   5.925  30.599   1.707
18123W        W83284  18.001  29.881  13.377
18124W        W83285  34.584   7.698  12.113
18125W        W83286  20.835  26.512  12.536
18126W        W83287   2.250  27.691   3.218
18127W        W83288  43.807   8.490  10.585
18128W        W83289  16.742  10.266   4.418
18129W        W83290  22.057  18.133   2.424
18130W        W83291  25.458  38.632   0.740
18131W        W83292  17.664  24.578   0.937
18132W        W83293  27.904  14.965   3.307
18133W        W83294  12.714  28.179  10.726
18134W        W83295  43.316  36.949   2.324
18135W        W83296  34.967  20.699   5.024
18136W        W83297  37.969  44.473  12.276
18137W        W83298  39.549  38.920   4.097
18138W        W83299  42.938  40.738  12.017
18139W        W83300  24.912  37.630   0.896
18140W        W83301  28.419   8.989   3.128
18141W        W83302  41.887   5.415  14.888
18142W        W83303  27.248  43.469   4.364
18143W        W83304  43.302   1.799  12.849
18144W        W83305   4.148  26.602   2.175
18145W        W83306  23.002   8.152  14.835
18146W        W83307  39.971  10.288  12.791
18147W        W83308   5.772  21.568   2.097
18148W        W83309   7.362   3.236   1.356
18149W        W83310  23.140  20.244   9.646
18150W        W83311  41.572  14.084   2.256
18151W        W83312  37.568  26.257  13.603
18152W        W83313  17.565  27.070  12.775
18153W        W83314  15.025   9.638   1.381
18154W        W83315  11.743  40.842   3.208
18155W        W83316   7.279  39.905   0.388
18156W        W83317   4.493  35.081  11.992
18157W        W83318  32.935  23.524  13.496
18158W        W83319  10.702  41.933   0.543
18159W        W83320  31.635  42.272  12.027
18160W        W83321  30.379  35.564   2.834
18161W        W83322  34.492  24.441   4.520
18162W        W83323  12.504  35.974  13.058
18163W        W83324  41.695   7.066   3.057
18164W        W83325  16.529  41.350   1.618
18165W        W83326  20.725  22.264   1.453
18166W        W83327  29.156  11.400   2.801
18167W        W83328   2.319  28.402   1.772
18168W        W83329   6.639  35.938  14.322
18169W        W83330   7.936   3.958  14.849
18170W        W83331  27.530  41.493   2.722
18171W        W83332  41.334  23.963  12.260
18172W        W83333  17.007  28.103   3.598
18173W        W83334   4.267   3.450   0.445
18174W        W83335   7.412  41.036   0.959
18175W        W83336  22.446   4.738  14.461
18176W        W83337  29.427  36.572   4.653
18177W        W83338  38.098  16.187  12.611
18178W        W83339   5.828  15.773  12.982
18179W        W83340  34.579  21.740  14.808
18180W        W83341  18.672   1.025   1.763
18181W        W83342  29.300  25.025  11.703
18182W        W83343  34.840  11.103  11.600
18183W        W83344   9.208   5.948   1.692
18184W        W83345  36.401  35.654  14.275
18185W        W83346  19.505  24.214   1.867
18186W        W83347   9.688  39.834  10.741
18187W        W83348   2.032  31.345  12.501
18188W        W83349  19.689  19.102   4.045
18189W        W83350  10.721  26.771  12.371
18190W        W83351  14.883  35.102   4.106
18191W        W83352  20.385   8.569  11.805
18192W        W83353  27.965  40.987  13.097
18193W        W83354   1.386   5.399   2.642
18194W        W83355  12.608   1.791   3.631
18195W        W83356   6.743  40.371   2.279
18196W        W83357  26.150   1.996   4.823
18197W        W83358   3.806  26.695  12.566
18198W        W83359  13.841  25.145  14.914
18199W        W83360  23.619  33.458  14.320
18200W        W83361  14.214  38.026   2.366
18201W        W83362   4.175   4.966  13.876
18202W        W83363  10.483  10.868  10.890
18203W        W83364  15.084  24.175   3.144
18204W        W83365  18.578  31.893   0.260
18205W        W83366  30.902  41.942   0.471
18206W        W83367  15.330  43.138   2.812
18207W        W83368  13.699  23.933  14.361
18208W        W83369  21.042  19.775  14.520
18209W        W83370  38.964  38.113  10.725
18210W        W83371   7.280   5.499  10.547
18211W        W83372  36.914  21.361  14.028
18212W        W83373  35.518   0.236  13.835
18213W        W83374  17.576  16.569   2.300
18214W        W83375  29.457  31.618  14.648
18215W        W83376  29.668  13.050  12.517
18216W        W83377  19.974  12.865  10.313
18217W        W83378  39.812  16.757   1.235
18218W        W83379   1.971  22.913  14.284
18219W        W83380  18.214   1.456  11.623
18220W        W83381   5.691   3.204  11.506
18221W        W83382  39.608  43.944  10.666
18222W        W83383  41.944  42.405   2.532
18223W        W83384  23.163  20.250  10.187
18224W        W83385  38.463   1.108  13.970
18225W        W83386  42.639   6.849  12.599
18226W        W83387   5.171  11.787   3.772
18227W        W83388  33.107  19.618   2.683
18228W        W83389  44.315   9.677   4.300
18229W        W83390  17.734  41.182   1.366
18230W        W83391  15.683  10.986  12.161
18231W        W83392   8.672  17.745   4.883
18232W        W83393  17.299  25.445   1.091
18233W        W83394  27.995  31.564  14.960
18234W        W83395  44.626  22.711   4.754
18235W        W83396  15.606  35.423   4.636
18236W        W83397  20.149  34.793   0.920
18237W        W83398  16.141  40.632   3.246
18238W        W83399   6.934  27.697  14.912
18239W        W83400  40.998  34.355   3.214
18240W        W83401   5.259  41.351   4.562
18241W        W83402  40.337  13.554   1.319
18242W        W83403  38.134  34.868  11.048
18243W        W83404   0.504  37.289   1.376
18244W        W83405  36.049  11.668   3.269
18245W        W83406  15.500  31.142  13.441
18246W        W83407  32.530  35.022  11.052
18247W        W83408   5.286  20.053  14.046
18248W        W83409  17.541  32.554   3.118
18249W        W83410  40.870  33.138  13.060
18250W        W83411  37.427   6.505  13.570
18251W        W83412  31.038  14.757  10.632
18252W        W83413  13.413  20.432  10.942
18253W        W83414  27.864  39.081  13.963
18254W        W83415  32.245  28.238  12.292
18255W        W83416  17.400  42.080   4.048
18256W        W83417  19.252  29.577  12.984
18257W        W83418  35.621  37.859   2.313
18258W        W83419  38.946   4.745  10.130
18259W        W83420   9.643  22.605  12.069
18260W        W83421  27.979  20.379   1.315
18261W        W83422  27.511   5.010   4.512
18262W        W83423  16.819  20.138   4.526
18263W        W83424  27.967  43.916  11.088
18264W        W83425  37.438   6.660   1.735
18265W        W83426  35.432  13.205   1.235
18266W        W83427   8.130  36.467  13.879
18267W        W83428  26.337  34.421  11.154
18268W        W83429  34.559  30.823  13.415
18269W        W83430   0.483  28.461   1.395
18270W        W83431  32.610  32.512  14.826
18271W        W83432   1.313  16.131   2.899
18272W        W83433  30.048  18.074   2.320
18273W        W83434   0.782  13.266  13.441
18274W        W83435   2.037  28.656  13.021
18275W        W83436  10.408  28.081  12.016
18276W        W83437  37.421  25.016  13.574
18277W        W83438  29.632  21.719   1.421
18278W        W83439  43.755  43.361  11.572
18279W        W83440  11.695   8.400   0.057
18280W        W83441  11.054  35.042   1.424
18281W        W83442  11.404  16.271   2.807
18282W        W83443  23.599  14.287  11.538
18283W        W83444   9.763  28.904   4.276
18284W        W83445  34.047  20.280  10.832
18285W        W83446  21.116  29.124   9.951
18286W        W83447  44.144  35.296   1.276
18287W        W83448  30.449  34.514  10.629
18288W        W83449  39.568   6.566   0.339
18289W        W83450  41.894  33.372   2.600
18290W        W83451  17.375  35.975   2.367
18291W        W83452  13.172  21.718  14.889
18292W        W83453  35.315   1.459   0.831
18293W        W83454   6.502   3.046   1.215
18294W        W83455  23.575  23.098  12.886
18295W        W83456  24.997   7.168   5.013
18296W        W83457  35.469  10.971  12.438
18297W        W83458  14.827  41.517   3.696
18298W        W83459  39.681  16.565  11.983
18299W        W83460  17.417   0.414  12.513
18300W        W83461  23.613  19.734   4.081
18301W        W83462  20.685  18.998  14.377
18302W        W83463  12.170   1.459   1.893
18303W        W83464  33.955  39.961   1.938
18304W        W83465  24.623  43.464  12.923
18305W        W83466  43.413   9.977  12.182
18306W        W83467  36.710  27.680   2.130
18307W        W83468  44.957  11.204   4.204
18308W        W83469  40.389   7.675   4.521
18309W        W83470  20.386   1.826   0.193
18310W        W83471  25.340  36.510   4.949
18311W        W83472   0.354   9.002  13.370
18312W        W83473  43.005  14.326   3.772
18313W        W83474   0.496  42.077   2.407
18314W        W83475  12.133   5.868   2.397
18315W        W83476  33.444  21.618  14.015
18316W        W83477  36.459   9.661   1.582
18317W        W83478  16.214  37.747  14.858
18318W        W83479  40.055  17.097  12.475
18319W        W83480  21.701  41.044   4.252
18320W        W83481  41.042  39.941   2.824
18321W        W83482  39.345  18.146   1.418
18322W        W83483   2.419  38.722   1.793
18323W        W83484   8.684   7.911   2.213
18324W        W83485  43.284  12.325   3.740
18325W        W83486  19.135   5.837  12.634
18326W        W83487  27.897  28.834  11.138
18327W        W83488  26.447  30.766  11.625
18328W        W83489  44.774   6.164   0.887
18329W        W83490   5.482  19.956  10.580
18330W        W83491   0.016  38.086   4.625
18331W        W83492  41.828  38.582   3.209
18332W        W83493  26.094   0.478  13.557
18333W        W83494   9.638  32.013  14.300
18334W        W83495   3.010  42.742   0.810
18335W        W83496  20.432  12.672  12.007
18336W        W83497  35.450  16.188   2.222
18337W        W83498   8.710  25.935  11.467
18338W        W83499  43.438  20.236   1.256
18339W        W83500  35.060  10.321   4.393
18340W        W83501  30.504  14.317   1.250
18341W        W83502  38.917  24.943  10.773
18342W        W83503  31.394  39.266   1.372
18343W        W83504  38.023  27.125  14.274
18344W        W83505   2.737   3.358   4.255
18345W        W83506  25.567  29.382  14.716
18346W        W83507  26.093  21.952   3.142
18347W        W83508  16.502  34.101  11.706
18348W        W83509  16.739  29.150   0.669
18349W        W83510  16.215  39.813  12.089
18350W        W83511  42.580  29.462   3.746
18351W        W83512  36.929  14.594   0.059
18352W        W83513  17.119  20.595   3.705
18353W        W83514  13.812  12.904   3.628
18354W        W83515   3.928  41.388   1.507
18355W        W83516   1.117   2.734   4.044
18356W        W83517   9.214   1.484   0.409
18357W        W83518  14.087  10.583   4.841
18358W        W83519  37.928  31.123   2.203
18359W        W83520   9.635  29.694  13.034
18360W        W83521  20.599  31.200  11.127
18361W        W83522  40.850   5.336   2.792
18362W        W83523  24.728  40.605  13.805
18363W        W83524   1.255  43.449  14.945
18364W        W83525  44.494  24.055   4.611
18365W        W83526  22.832  27.666  11.557
18366W        W83527  25.005  37.064  12.316
18367W        W83528  40.306  35.892  12.943
18368W        W83529  27.288   1.153   3.830
18369W        W83530  21.807  27.882   0.516
18370W        W83531   9.503  23.303  12.596
18371W        W83532   9.204  35.879  11.972
18372W        W83533  26.113  30.432  11.861
18373W        W83534  43.223   5.899   0.911
18374W        W83535   3.869  39.010  12.391
18375W        W83536  37.965   8.159   3.731
18376W        W83537  21.076  35.791  12.407
18377W        W83538  40.452  44.404  13.580
18378W        W83539  31.051  10.114  12.100
18379W        W83540  16.029   8.213   4.178
18380W        W83541   0.727  25.780   3.766
18381W        W83542  28.190   9.827  11.970
18382W        W83543  27.884  21.459   2.226
18383W        W83544  37.401  39.547   4.838
18384W        W83545  33.711  22.511   0.350
18385W        W83546  17.619  14.700   4.030
18386W        W83547  41.014  11.386   0.438
18387W        W83548  41.454  34.057  14.199
18388W        W83549   4.705  24.982  11.232
18389W        W83550  12.077  44.362   3.243
18390W        W83551  18.727  31.165   2.313
18391W        W83552  44.735  34.384   4.276
18392W        W83553  42.228   3.938   1.767
18393W        W83554  33.158  10.860  11.975
18394W        W83555  12.142  40.343   3.676
18395W        W83556  29.497  41.858   4.453
18396W        W83557  16.592  14.163  10.310
18397W        W83558  41.592  19.444  14.331
18398W        W83559  39.589  12.710   0.847
18399W        W83560  11.086  15.945  12.583
18400W        W83561  22.250   2.916  13.038
18401W        W83562  29.224  18.802  12.011
18402W        W83563  22.926  26.130   1.006
18403W        W83564  42.574  23.686   3.174
18404W        W83565   8.415  36.457   2.400
18405W        W83566  17.651  10.016   3.151
18406W        W83567   6.799  10.794  13.406
18407W        W83568  38.791  39.091  12.989
18408W        W83569  38.210   8.783   0.612
18409W        W83570  35.083  14.218   2.953
18410W        W83571  35.894   2.540  11.619
18411W        W83572   5.746  24.742  11.140
18412W        W83573  10.067  11.642  13.482
18413W        W83574  41.980   4.987  11.557
18414W        W83575  14.224  12.633   3.467
18415W        W83576  38.827  31.629   1.772
18416W        W83577   2.853  25.506  11.375
18417W        W83578   2.400  15.352   1.054
18418W        W83579  11.446   6.843  12.693
18419W        W83580  16.453  16.493  11.649
18420W        W83581   2.393   2.176  11.948
18421W        W83582  22.595   9.229  10.525
18422W        W83583  44.440  30.919  12.837
18423W        W83584   2.401   2.421   2.763
18424W        W83585   8.835   5.887   1.297
18425W        W83586  28.549  32.681   3.250
18426W        W83587   2.743  17.122  13.784
18427W        W83588  19.174  11.773   0.986
18428W        W83589  22.655  26.216   3.625
18429W        W83590  26.740  41.337  10.736
18430W        W83591  35.094  33.453   1.782
18431W        W83592  43.160  21.732   0.479
18432W        W83593   4.954  20.704  10.204
18433W        W83594  13.328   8.429  11.954
18434W        W83595  42.809  24.687   0.384
18435W        W83596  10.668   8.064  10.613
18436W        W83597  26.888  42.717  14.071
18437W        W83598  16.450  39.623  13.404
18438W        W83599   1.881  21.602   3.778
18439W        W83600  39.861  13.885   2.891
18440W        W83601   5.715  29.532  11.195
18441W        W83602   5.265  21.892  11.036
18442W        W83603  10.874  15.397   2.851
18443W        W83604  40.930  34.913  13.355
18444W        W83605  36.827  33.247  12.659
18445W        W83606  37.531  16.225   1.654
18446W        W83607  10.057   2.705   4.107
18447W        W83608  30.108  33.818  11.224
18448W        W83609  10.304  32.179   0.333
18449W        W83610  27.600  16.693   2.916
18450W        W83611  26.755  35.237   1.956
18451W        W83612  28.088  40.783   3.594
18452W        W83613  33.113  23.016  12.756
18453W        W83614  29.073  28.544  13.447
18454W        W83615  19.155  22.880  13.540
18455W        W83616   9.343  25.067   4.135
18456W        W83617  26.191  42.224   1.188
18457W        W83618  39.803  18.311  11.038
18458W        W83619  32.698  13.804   1.854
18459W        W83620  24.971  43.499  11.108
18460W        W83621  11.466   3.161   4.428
18461W        W83622  27.264  33.112  14.855
18462W        W83623  43.182  27.204   2.643
18463W        W83624  36.407  23.491   1.283
18464W        W83625   5.137  40.566   3.290
18465W        W83626  13.565   8.658  14.366
18466W        W83627  42.716  44.059   1.661
18467W        W83628  17.038  26.989   1.778
18468W        W83629   9.853  24.497  11.911
18469W        W83630  30.803   9.732  12.461
18470W        W83631  43.458  39.395  10.181
18471W        W83632   2.332   0.032   0.064
18472W        W83633  19.280   6.319  11.593
18473W        W83634  25.781  29.181  10.284
18474W        W83635  15.621   4.204   1.539
18475W        W83636  11.933  29.188   4.133
18476W        W83637   0.959   2.464  14.239
18477W        W83638  14.956  36.159  14.720
18478W        W83639  31.553  21.261   0.329
18479W        W83640   7.452  13.599  12.101
18480W        W83641   7.386  12.679  13.449
18481W        W83642  39.490  17.325  11.206
18482W        W83643  20.329  33.415  10.758
18483W        W83644  44.969  31.866  12.463
18484W        W83645  40.998   5.340  14.862
18485W        W83646  28.531  38.358  13.053
18486W        W83647  28.118  20.496   0.796
18487W        W83648  11.811  23.099  14.918
18488W        W83649   1.712  25.164  14.772
18489W        W83650  16.248  19.498   1.237
18490W        W83651  14.255  17.108  10.796
18491W        W83652  10.879  16.131   2.882
18492W        W83653  27.043  43.454   3.385
18493W        W83654  42.687  33.473   3.037
18494W        W83655   1.980  25.349  13.946
18495W        W83656  18.452  42.846   0.961
18496W        W83657  24.014   6.837   0.741
18497W        W83658   8.803   5.729  14.928
18498W        W83659  26.699  23.674  13.013
18499W        W83660  26.516  42.752  11.008
18500W        W83661  15.229   1.757  10.292
18501W        W83662   4.237   8.526  12.841
18502W        W83663  20.545  21.472   3.316
18503W        W83664  21.607  32.444   1.186
18504W        W83665  12.665  31.904  12.125
18505W        W83666  43.110  10.352  13.486
18506W        W83667   1.270   9.393   1.770
18507W        W83668  36.152  40.564  12.133
18508W        W83669   3.327  13.650   3.109
18509W        W83670  17.005  11.623  12.948
18510W        W83671  23.690   0.474  12.791
18511W        W83672   1.006  43.810   3.280
18512W        W83673  29.177  12.201  11.578
18513W        W83674  25.550   5.954  10.691
18514W        W83675  14.711  26.509   3.207
18515W        W83676  15.279  34.990   1.567
18516W        W83677  11.852  14.278   3.757
18517W        W83678  39.364   6.707  12.215
18518W        W83679  43.723  10.898   4.539
18519W        W83680  11.663  43.458   4.241
18520W        W83681  19.199  19.124   4.157
18521W        W83682  28.248   9.817  11.172
18522W        W83683   1.679  40.656  14.847
18523W        W83684  17.582  41.907   0.399
18524W        W83685  35.925  40.323   1.841
18525W        W83686  43.750  36.996  12.915
18526W        W83687  26.581  44.050   2.757
18527W        W83688  36.866   1.026  12.972
18528W        W83689  39.406  28.131   0.827
18529W        W83690  19.409   2.992  14.409
18530W        W83691  15.359  14.992  11.440
18531W        W83692  26.549  11.893  10.168
18532W        W83693  17.151  37.384   1.519
18533W        W83694  20.582  36.570  14.536
18534W        W83695  33.148  44.605  11.993
18535W        W83696  33.164  16.321  12.741
18536W        W83697  33.403   6.178   2.467
18537W        W83698   1.718  10.219   3.592
18538W        W83699   9.687  40.398  12.361
18539W        W83700  15.390  38.473   4.189
18540W        W83701  32.658  17.800  12.863
18541W        W83702  23.774  26.238   1.163
18542W        W83703  22.655   4.795   1.894
18543W        W83704  16.621  38.834   4.895
18544W        W83705  42.255  37.086  12.476
18545W        W83706  13.347  35.916   1.221
18546W        W83707  25.312  39.527   0.898
18547W        W83708  15.792  37.489  11.638
18548W        W83709   8.419  22.001  11.918
18549W        W83710  23.220   2.799   2.406
18550W        W83711  43.913  36.379  11.068
18551W        W83712  32.316  18.029   1.206
18552W        W83713  20.528   0.009  11.671
18553W        W83714   8.162  37.303  12.210
18554W        W83715   8.324   6.400   3.411
18555W        W83716  16.640  22.124  14.258
18556W        W83717   5.806   3.193   3.867
18557W        W83718  28.124  23.125  14.937
18558W        W83719  37.439  27.862  12.378
18559W        W83720  17.196   5.491   3.230
18560W        W83721   7.417  42.958   1.510
18561W        W83722  38.028  44.821  14.407
18562W        W83723  41.167  22.725  14.581
18563W        W83724  14.219  21.205   0.036
18564W        W83725  22.493  42.045   0.278
18565W        W83726  17.374  36.117   3.663
18566W        W83727   0.307   1.228  14.373
18567W        W83728   2.977   3.938  12.463
18568W        W83729   0.932   7.154   1.330
18569W        W83730  41.880  26.921   3.634
18570W        W83731  27.436   0.537  12.922
18571W        W83732  11.444  18.200  12.026
18572W        W83733  20.851   6.370   4.878
18573W        W83734  40.100   1.434  10.480
18574W        W83735  26.440  10.364  12.248
18575W        W83736  19.869  19.136   4.541
18576W        W83737   1.222  25.158  14.422
18577W        W83738  15.243  28.184  11.179
18578W        W83739  24.971   3.440  11.706
18579W        W83740  15.369   2.715  11.035
18580W        W83741   2.477  23.641  12.155
18581W        W83742  28.930   4.409  10.561
18582W        W83743  18.235  37.658  10.770
18583W        W83744   5.953  39.909   4.846
18584W        W83745  15.599  30.297   4.827
18585W        W83746  13.160  25.434  13.964
18586W        W83747  29.555   9.451   0.034
18587W        W83748  15.310  43.258  10.136
18588W        W83749  19.618  31.575  11.610
18589W        W83750  27.004  18.505   0.377
18590W        W83751  26.634   9.682   0.989
18591W        W83752   8.388  19.778   3.133
18592W        W83753   9.107  32.074  12.121
18593W        W83754  17.857  30.570  14.378
18594W        W83755  32.652  22.112   0.861
18595W        W83756   8.374  31.131   2.286
18596W        W83757   1.460  20.056  12.873
18597W        W83758  15.261  18.231   4.944
18598W        W83759  43.364  30.634  12.429
18599W        W83760   2.230  26.926  13.907
18600W        W83761  40.621  37.133   2.270
18601W        W83762   4.861  43.790   0.495
18602W        W83763   7.240  27.412  14.347
18603W        W83764  36.555  43.037  13.915
18604W        W83765  33.683   4.881  10.402
18605W        W83766  16.273  38.794   0.927
18606W        W83767  20.014   5.491   1.847
18607W        W83768  39.520  34.874   2.177
18608W        W83769  28.866  22.740   4.115
18609W        W83770  21.540  16.222   9.633
18610W        W83771   7.654  29.248   2.205
18611W        W83772  42.263   9.728   2.475
18612W        W83773   4.512  43.394  11.878
18613W        W83774  17.213  31.057  14.854
18614W        W83775   2.997   4.742   2.762
18615W        W83776  44.142  18.375  14.342
18616W        W83777   3.867  31.278  13.587
18617W        W83778   3.652  33.911  11.252
18618W        W83779  25.705  35.480  12.985
18619W        W83780  14.847  41.945   3.245
18620W        W83781   7.626  19.685   1.742
18621W        W83782  18.195   1.936   0.804
18622W        W83783  42.272   9.066   2.938
18623W        W83784  27.411   9.138   2.098
18624W        W83785  19.790  26.933  11.902
18625W        W83786  22.513   0.659   0.083
18626W        W83787  28.388   7.683  14.769
18627W        W83788  32.085  33.159   1.215
18628W        W83789  12.185  25.505  12.306
18629W        W83790   4.803  34.876   2.120
18630W        W83791  19.702  23.192  14.375
18631W        W83792  12.778   5.755   2.837
18632W        W83793  41.595  40.084  11.646
18633W        W83794  25.642  27.271   3.137
18634W        W83795  33.489  44.337   3.058
18635W        W83796  15.050  34.634   3.259
18636W        W83797   8.820  13.222   1.051
18637W        W83798  44.302  13.291   2.952
18638W        W83799   7.418  20.615  12.505
18639W        W83800  28.486   7.814   1.889
18640W        W83801  13.425  23.468  10.761
18641W        W83802   1.876  36.630   0.446
18642W        W83803  23.076  14.466  13.950
18643W        W83804  37.728  17.127   4.287
18644W        W83805  21.099  44.397  12.320
18645W        W83806  30.731   5.726  10.357
18646W        W83807  36.401  41.754  10.808
18647W        W83808  19.053  25.132  12.623
18648W        W83809  39.509  27.690   3.189
18649W        W83810  17.053   3.699  14.031
18650W        W83811  19.539  27.573   0.015
18651W        W83812  31.871  16.824   0.963
18652W        W83813   6.856  12.536   3.262
18653W        W83814   4.502  31.051   3.220
18654W        W83815  33.006  18.995  12.599
18655W        W83816  22.763  30.320   4.262
18656W        W83817  26.663  23.767   2.356
18657W        W83818  40.398   5.096   2.687
18658W        W83819  12.284  22.031  12.075
18659W        W83820  27.546  28.585  12.510
18660W        W83821  39.437   8.644   4.192
18661W        W83822  29.327  30.359   4.086
18662W        W83823   2.926  12.325  12.996
18663W        W83824  37.821  31.996   1.707
18664W        W83825  25.700  44.764  12.172
18665W        W83826  32.338  30.601  14.308
18666W        W83827  16.109  33.938  12.159
18667W        W83828  25.192   4.759   1.464
18668W        W83829  32.897   2.152   0.765
18669W        W83830  16.320  37.445  11.648
18670W        W83831  22.016  38.684   9.791
18671W        W83832  14.999  24.618  12.893
18672W        W83833  43.851  13.825  12.023
18673W        W83834  26.884  19.798  10.925
18674W        W83835  17.626  35.218  13.335
18675W        W83836  34.275   2.351   3.227
18676W        W83837  42.065  23.029  14.867
18677W        W83838  21.016   7.626   5.049
18678W        W83839  36.511  12.583  12.464
18679W        W83840  18.890   2.822  14.292
18680W        W83841  25.787   6.259  11.501
18681W        W83842  25.716  24.414   3.607
18682W        W83843  38.419  27.387  14.496
18683W        W83844  37.964   1.950   2.443
18684W        W83845  27.599  41.728  14.559
18685W        W83846  15.831   0.852   1.917
18686W        W83847  14.361  10.297  11.424
18687W        W83848  35.752   5.845  13.177
18688W        W83849  37.190  23.478   2.626
18689W        W83850  15.285  18.655  10.514
18690W        W83851  15.162  30.453   2.223
18691W        W83852  15.642  15.646   4.557
18692W        W83853   2.767  14.559  14.347
18693W        W83854  11.542  18.546  11.161
18694W        W83855   0.811   2.079   0.798
18695W        W83856  33.068  24.470  14.920
18696W        W83857  25.694  18.872   3.225
18697W        W83858  43.860  12.884  12.977
18698W        W83859  31.810  26.845   2.949
18699W        W83860  34.062   9.364   0.923
18700W        W83861  33.802   1.320   4.084
18701W        W83862  17.008  44.301   5.365
18702W        W83863   1.916   9.507   2.813
18703W        W83864  21.786  16.041   1.322
18704W        W83865   0.300  27.914   1.796
18705W        W83866   9.912  38.335   2.320
18706W        W83867  36.674   8.768   0.429
18707W        W83868  38.726  13.182  11.996
18708W        W83869  36.971  30.146  12.861
18709W        W83870  11.240  29.406   3.207
18710W        W83871  38.821   3.510   1.644
18711W        W83872  21.359  29.657  14.912
18712W        W83873  16.145   2.676   3.711
18713W        W83874   3.785   8.949   3.231
18714W        W83875  36.488  17.574   2.779
18715W        W83876  10.658  19.406   2.387
18716W        W83877  38.527  18.313   1.764
18717W        W83878  42.477   5.129   3.724
18718W        W83879   6.225  33.982  13.017
18719W        W83880  21.105  28.034   3.236
18720W        W83881  25.218  34.961   2.775
18721W        W83882  20.655  38.346   0.499
18722W        W83883   0.712  30.858  13.984
18723W        W83884  35.345  23.186  13.515
18724W        W83885   4.729  19.577   1.968
18725W        W83886  33.593  29.397  14.436
18726W        W83887  10.071  24.183  14.320
18727W        W83888   5.426  40.887   0.544
18728W        W83889   5.526  26.391   4.383
18729W        W83890  44.259  40.989   1.408
18730W        W83891  38.290  39.949   2.169
18731W        W83892  11.741  22.325   2.896
18732W        W83893   3.650  32.534   2.161
18733W        W83894  22.227  37.931  12.428
18734W        W83895  10.455  33.652  13.717
18735W        W83896  18.145  33.321   4.693
18736W        W83897  12.799  36.392  11.133
18737W        W83898  26.177  24.471   1.312
18738W        W83899  42.926   6.644  11.497
18739W        W83900   2.269  14.888   3.721
18740W        W83901   0.809  41.804  13.423
18741W        W83902  34.939  10.599   2.480
18742W        W83903  34.828   8.356  11.152
18743W        W83904  13.869  13.384  13.591
18744W        W83905   8.751  40.401   2.749
18745W        W83906  16.219   5.113   3.234
18746W        W83907  30.375  21.360  13.415
18747W        W83908  27.316  19.111  11.194
18748W        W83909  28.483  25.645   1.819
18749W        W83910  16.383  10.225   2.061
18750W        W83911  32.210  40.044  13.003
18751W        W83912  11.200  24.076   0.239
18752W        W83913  20.483  36.919   2.196
18753W        W83914  14.149   9.633  12.385
18754W        W83915  20.023   4.400   0.469
18755W        W83916   5.527   9.216  10.957
18756W        W83917  30.186  25.210  11.912
18757W        W83918   2.803   3.844   4.109
18758W        W83919  17.108  18.417  11.158
18759W        W83920  43.668  19.892  13.426
18760W        W83921  35.504  18.561   4.632
18761W        W83922  21.271  24.625  14.446
18762W        W83923  15.276  38.812  11.070
18763W        W83924   8.276   6.820  12.848
18764W        W83925   0.371  39.711   4.421
18765W        W83926   0.432  24.966   3.644
18766W        W83927  29.491   6.181   1.975
18767W        W83928   6.365  17.255  11.711
18768W        W83929  38.796  28.569   4.726
18769W        W83930  13.238  39.497  11.163
18770W        W83931  11.672  40.440  13.522
18771W        W83932   4.700  29.611   3.314
18772W        W83933  37.617  19.950  10.971
18773W        W83934   8.371  25.607  12.878
18774W        W83935  17.115  27.076  10.403
18775W        W83936  32.450   4.408  13.157
18776W        W83937  14.085  39.852   9.900
18777W        W83938  12.171  31.647  12.547
18778W        W83939  18.953  35.527   0.501
18779W        W83940  12.869  34.582   2.246
18780W        W83941  33.873  21.028   3.735
18781W        W83942  17.141   5.730   2.346
18782W        W83943   2.302  34.880  13.531
18783W        W83944  10.127   8.391   0.954
18784W        W83945   2.271   0.774  14.575
18785W        W83946  34.030  43.849   2.582
18786W        W83947  21.227  40.437   4.814
18787W        W83948   2.280  36.398  11.210
18788W        W83949  44.501  29.714  14.733
18789W        W83950  19.052  21.322  13.451
18790W        W83951  14.330  37.916   4.477
18791W        W83952  12.359  37.474   3.605
18792W        W83953  42.703  20.708  13.020
18793W        W83954  23.588  38.583   1.212
18794W        W83955   7.906   3.943   3.212
18795W        W83956  18.242  27.535  11.676
18796W        W83957  38.541   9.921  11.190
18797W        W83958  36.523  21.759  13.738
18798W        W83959   9.541  40.422   2.302
18799W        W83960  27.766  30.665  13.993
18800W        W83961  18.148  29.427  13.642
18801W        W83962   7.521  24.078   0.531
18802W        W83963   9.606  31.394  14.846
18803W        W83964  24.084   1.199  13.493
18804W        W83965   6.663  10.775  14.903
18805W        W83966  43.222  10.325  11.861
18806W        W83967  16.028  18.658   9.854
18807W        W83968  13.530  32.379   3.686
18808W        W83969  23.335  36.336   0.815
18809W        W83970  38.827  39.979  14.041
18810W        W83971  13.990   2.392   4.137
18811W        W83972   4.322   0.019   1.782
18812W        W83973   6.982   1.511   2.933
18813W        W83974   0.844   6.531  12.822
18814W        W83975  24.862  10.154  14.162
18815W        W83976  39.598  24.458  12.376
18816W        W83977  11.178  21.891   4.776
18817W        W83978  29.989  20.429  11.992
18818W        W83979  24.009  25.229  14.030
18819W        W83980   7.752  13.873  12.540
18820W        W83981  21.654  36.342   0.742
18821W        W83982   6.434  36.083   3.539
18822W        W83983  16.147   8.637   0.926
18823W        W83984  25.840  29.862  13.975
18824W        W83985  37.730  28.621   3.019
18825W        W83986  29.017  25.844  14.511
18826W        W83987  19.836   8.270  10.749
18827W        W83988  18.237  29.591  14.639
18828W        W83989   7.690  43.762  13.180
18829W        W83990   9.468  38.114  10.874
18830W        W83991   8.951   8.710  10.505
18831W        W83992  29.880   1.472   3.810
18832W        W83993  14.894  21.287  11.169
18833W        W83994   9.884  18.836  11.632
18834W        W83995  18.997   0.796  13.073
18835W        W83996  38.535  12.012   1.396
18836W        W83997  44.682  12.850  13.229
18837W        W83998  26.372  42.454   1.614
18838W        W83999  29.637  21.933  10.653
18839W        W84000  39.131  23.351   1.349
18840W        W84001  14.648  36.945   0.006
18841W        W84002  10.288  39.258   4.628
18842W        W84003  43.081  32.806  10.668
18843W        W84004  19.695  35.047   3.170
18844W        W84005  43.793  14.558   2.339
18845W        W84006  27.050  14.617   4.555
18846W        W84007  16.635  12.966   3.085
18847W        W84008  33.423  39.037   0.922
18848W        W84009   3.189  40.785  11.982
18849W        W84010   1.272  13.288   2.848
18850W        W84011  17.510  35.194   4.512
18851W        W84012  20.697  38.738   3.288
18852W        W84013  33.841  36.351  14.328
18853W        W84014  14.267  18.577   0.404
18854W        W84015   5.927  30.861   5.050
18855W        W84016   3.937  36.985   1.957
18856W        W84017  19.698   1.814   1.421
18857W        W84018  31.535  38.098   1.882
18858W        W84019  36.935  37.636  12.772
18859W        W84020  30.577  39.225   4.165
18860W        W84021  39.401  20.124  10.705
18861W        W84022  23.213  14.323   4.207
18862W        W84023  21.715  38.626   4.174
18863W        W84024  23.212  31.437   0.796
18864W        W84025   2.660  40.119   2.319
18865W        W84026  29.371   7.714   2.707
18866W        W84027  42.246  14.088   4.120
18867W        W84028   2.694  16.114  14.846
18868W        W84029   8.760   2.963  11.905
18869W        W84030  13.300  15.814   4.637
18870W        W84031  17.852  28.946   2.335
18871W        W84032  42.340  24.474   0.594
18872W        W84033  37.731   8.753  11.239
18873W        W84034  16.601   1.430  11.982
18874W        W84035   6.503  14.844  12.313
18875W        W84036  33.018  34.960  13.574
18876W        W84037   5.897  20.018  14.510
18877W        W84038  40.814  26.431   2.902
18878W        W84039  26.911   7.906   4.454
18879W        W84040  32.325   8.898  11.194
18880W        W84041  27.644  12.332   4.994
18881W        W84042   0.923  14.071  12.121
18882W        W84043  32.702   7.316  11.881
18883W        W84044  36.354  41.002  14.310
18884W        W84045  12.402  19.132  12.020
18885W        W84046  27.449  43.060   1.283
18886W        W84047  18.077   6.937   2.214
18887W        W84048  16.623  25.700  13.909
18888W        W84049  24.697  21.479   4.573
18889W        W84050  31.352   8.668   0.957
18890W        W84051  26.319  10.095   1.007
18891W        W84052  29.703  41.580   3.647
18892W        W84053  17.271  36.534   5.199
18893W        W84054   3.672  25.902   0.276
18894W        W84055  34.944  25.676   4.499
18895W        W84056   3.457  14.877  12.688
18896W        W84057  11.861  25.037  10.931
18897W        W84058  22.088  42.561   2.710
18898W        W84059  37.515  41.612   2.116
18899W        W84060  35.625  37.042  12.248
18900W        W84061   5.473  40.436   1.862
18901W        W84062   9.331   6.947   1.919
18902W        W84063  34.118   6.202  14.350
18903W        W84064  34.381  44.439   3.102
18904W        W84065   8.670  13.865   2.284
18905W        W84066  37.447  32.789  10.867
18906W        W84067   0.665   6.979   3.161
18907W        W84068  12.126  27.190   3.689
18908W        W84069  26.393  26.336  10.035
18909W        W84070  44.490  24.677   0.857
18910W        W84071  22.062  28.504   4.603
18911W        W84072   9.639  34.297   3.931
18912W        W84073  22.154  35.488   4.251
18913W        W84074  19.168  14.695   2.767
18914W        W84075   9.188  26.173   2.281
18915W        W84076  34.960  30.003  11.619
18916W        W84077  22.823   0.378   3.303
18917W        W84078  13.923  26.733  11.729
18918W        W84079  24.088  10.644  13.471
18919W        W84080  39.447  35.448   0.944
18920W        W84081  20.152  33.705  11.140
18921W        W84082  25.421  24.028  12.641
18922W        W84083  35.440  15.909   3.695
18923W        W84084  41.421  23.139   3.456
18924W        W84085  20.566  34.510   2.341
18925W        W84086  16.818  42.966  13.575
18926W        W84087  28.986   5.777  13.624
18927W        W84088  33.046  35.220   2.993
18928W        W84089   6.386  29.431  14.838
18929W        W84090  32.386  27.577  11.849
18930W        W84091   2.442   0.783   4.710
18931W        W84092  43.135  28.165  11.580
18932W        W84093   8.653  40.532   3.224
18933W        W84094   2.978   4.310   2.468
18934W        W84095  32.600  36.928   1.758
18935W        W84096  44.146  34.029  10.372
18936W        W84097   6.201  35.859  10.500
18937W        W84098  17.196  40.148   0.807
18938W        W84099  33.169  13.148   4.105
18939W        W84100  13.697  19.813   2.241
18940W        W84101  19.687  28.444   3.356
18941W        W84102  25.750  24.905  10.700
18942W        W84103  18.002  32.559  13.602
18943W        W84104  15.417   8.417  14.367
18944W        W84105  36.441  18.696   4.608
18945W        W84106  37.015   3.963  14.998
18946W        W84107  37.121   6.193  11.968
18947W        W84108  21.001  20.659  14.839
18948W        W84109  23.942  33.973   2.334
18949W        W84110  29.560   9.919   2.433
18950W        W84111  38.808  37.205  14.550
18951W        W84112  38.902   5.767  13.183
18952W        W84113   1.042  21.853  12.694
18953W        W84114  23.062  39.752   3.162
18954W        W84115  15.815  25.487  13.279
18955W        W84116  29.436  34.914  12.431
18956W        W84117  14.818  26.990  14.980
18957W        W84118  10.072  41.350  11.076
18958W        W84119  20.315  22.496  14.688
18959W        W84120  17.978   5.871   4.550
18960W        W84121   2.736  36.515  11.463
18961W        W84122  33.301  21.191   4.751
18962W        W84123  39.064   2.011   4.511
18963W        W84124  31.385  34.886   1.395
18964W        W84125   8.803  12.980   4.958
18965W        W84126   2.459   0.412  10.702
18966W        W84127  30.885  35.457  14.261
18967W        W84128   8.378   8.330   2.231
18968W        W84129  24.537  41.788  13.480
18969W        W84130  28.677  26.495   1.063
18970W        W84131  11.692  13.232   3.860
18971W        W84132  13.682   3.527  13.994
18972W        W84133  17.333  15.757   5.426
18973W        W84134  37.175   7.186   1.930
18974W        W84135   9.657  28.957  14.771
18975W        W84136  33.364  41.007  14.397
18976W        W84137   7.256  15.664   3.764
18977W        W84138  10.396  28.952   1.479
18978W        W84139  12.627  14.240   3.295
18979W        W84140  23.235  17.679   4.953
18980W        W84141  23.713  31.592  11.557
18981W        W84142  12.429   9.752   0.819
18982W        W84143   7.690   4.919   3.275
18983W        W84144   8.614  42.025  13.361
18984W        W84145   4.962  18.243   2.716
18985W        W84146  42.499  10.299   4.265
18986W        W84147   4.091  42.373   1.347
18987W        W84148  28.574  40.010   1.637
18988W        W84149  31.398  13.726   2.346
18989W        W84150  25.621  34.695   3.962
18990W        W84151  10.312  14.569  14.481
18991W        W84152   2.732  10.455  11.515
18992W        W84153  23.078  35.608  10.870
18993W        W84154  37.280  29.554  11.548
18994W        W84155  10.829  32.868   3.487
18995W        W84156   3.826  21.149  11.851
18996W        W84157  14.266  14.645  14.827
18997W        W84158  17.213   6.936   2.696
18998W        W84159   1.742  32.949  11.326
18999W        W84160  30.000  30.896  11.297
19000W        W84161  22.932   4.155   3.696
19001W        W84162  29.502  30.360  14.112
19002W        W84163  23.969  16.206   0.807
19003W        W84164  16.794  12.563   3.620
19004W        W84165  37.535  22.513  14.523
19005W        W84166  17.329  27.666  11.567
19006W        W84167  21.028  36.581  12.012
19007W        W84168  10.748  26.048  12.984
19008W        W84169  10.737  11.252  14.042
19009W        W84170  11.875   2.625   2.415
19010W        W84171  34.063  31.505   1.918
19011W        W84172  17.292  18.527   3.748
19012W        W84173  40.959  22.475   0.512
19013W        W84174  44.247  34.104  13.376
19014W        W84175   0.866   1.897   2.922
19015W        W84176  13.053  40.749  12.574
19016W        W84177  27.550  19.146   0.956
19017W        W84178  29.447  15.094  11.705
19018W        W84179   7.434  25.825   3.076
19019W        W84180  36.969  11.855  11.173
19020W        W84181  11.182  13.017   3.123
19021W        W84182  20.232  31.145   4.544
19022W        W84183   9.557  43.497   3.411
19023W        W84184  12.812  22.168  14.056
19024W        W84185  43.334   0.702  11.791
19025W        W84186  23.644  13.962   3.502
19026W        W84187  39.047  34.369   2.855
19027W        W84188  34.395  29.453   2.757
19028W        W84189  41.072  30.878   2.198
19029W        W84190  28.795  24.693   3.225
19030W        W84191   7.235  35.889  12.084
19031W        W84192  42.786  41.426  10.622
19032W        W84193   4.213   9.296  10.798
19033W        W84194  31.202  26.121   0.730
19034W        W84195   7.695   3.023  12.564
19035W        W84196   2.719   3.938  11.958
19036W        W84197   5.884  35.380   4.700
19037W        W84198  39.467   3.448  12.750
19038W        W84199   8.426  21.608   1.526
19039W        W84200  21.683  19.159   5.246
19040W        W84201  44.884   9.912   0.088
19041W        W84202  27.258  18.747   0.776
19042W        W84203  13.964  33.547   2.698
19043W        W84204  30.659  28.931   3.256
19044W        W84205  33.686  13.084   4.131
19045W        W84206  13.705  11.402   0.880
19046W        W84207  37.471  13.705  14.503
19047W        W84208  36.339  11.262  10.584
19048W        W84209  39.395  25.200   3.352
19049W        W84210  20.018  22.255   3.283
19050W        W84211  15.251  36.010  11.752
19051W        W84212  20.341  25.518  11.558
19052W        W84213  39.449  25.455  12.562
19053W        W84214  26.186   0.268   1.249
19054W        W84215  26.077  24.235  11.939
19055W        W84216   3.179  26.030   2.813
19056W        W84217   7.748   9.594   4.348
19057W        W84218  21.903   6.738  10.993
19058W        W84219  28.423  10.339   1.848
19059W        W84220  25.436  20.016  14.837
19060W        W84221  32.360  30.943  11.593
19061W        W84222   9.683   6.361   2.776
19062W        W84223  26.326  10.624   0.996
19063W        W84224   3.773   6.491  13.139
19064W        W84225  21.491  43.485   3.135
19065W        W84226   2.415  20.960  13.322
19066W        W84227  33.646   6.546  12.127
19067W        W84228  15.114   0.391   1.599
19068W        W84229  42.998   4.743  14.372
19069W        W84230  36.556  17.741  13.024
19070W        W84231   4.844   9.507   1.225
19071W        W84232  12.245  44.103  13.326
19072W        W84233  19.744  11.710   3.145
19073W        W84234  16.121  33.328  10.078
19074W        W84235  18.868  35.936   2.238
19075W        W84236  33.548  13.634  12.973
19076W        W84237   4.952  19.685  14.840
19077W        W84238  38.757  19.379   2.265
19078W        W84239  18.540  11.272   0.523
19079W        W84240  28.603  35.539  12.506
19080W        W84241  41.356   4.700  13.325
19081W        W84242   5.671  37.386   3.045
19082W        W84243  32.896  38.286   1.743
19083W        W84244  37.336  36.938   0.893
19084W        W84245  14.192  21.302  11.938
19085W        W84246  24.991   0.316   2.733
19086W        W84247   6.892  32.354  11.021
19087W        W84248  31.152   4.938   3.734
19088W        W84249  26.092   5.790   3.203
19089W        W84250  36.561   2.199  10.772
19090W        W84251   5.902  10.302   4.294
19091W        W84252  11.802  13.440  13.206
19092W        W84253  39.086  35.503  10.616
19093W        W84254  25.580   4.589  10.893
19094W        W84255   6.848  14.132  11.672
19095W        W84256  37.247  30.453   2.886
19096W        W84257  39.953   7.682   1.391
19097W        W84258  41.496  42.655   3.100
19098W        W84259   2.109   2.562   4.170
19099W        W84260   4.657  15.869   4.613
19100W        W84261  16.610  34.780   4.568
19101W        W84262  44.806  25.875   4.476
19102W        W84263   7.509  21.778  11.868
19103W        W84264  42.588  44.738  14.008
19104W        W84265  40.575   4.787  11.455
19105W        W84266  14.824  24.222   0.339
19106W        W84267  15.994  11.626   1.831
19107W        W84268   9.252  19.306   0.100
19108W        W84269   6.166   3.396  12.384
19109W        W84270  20.665  43.075   0.761
19110W        W84271  22.578  11.936  11.584
19111W        W84272  30.217   0.814  13.979
19112W        W84273  22.672   4.732  10.545
19113W        W84274  26.197   9.546   4.038
19114W        W84275  24.409  22.994   0.433
19115W        W84276   7.025  20.717  11.407
19116W        W84277  24.668  21.747   3.617
19117W        W84278  28.694   4.199  13.024
19118W        W84279   6.101  30.058  14.198
19119W        W84280  21.759   0.386   2.820
19120W        W84281   7.705   8.960  13.998
19121W        W84282  14.723  26.864  13.453
19122W        W84283  22.013  20.813  11.034
19123W        W84284  16.602   2.944   3.711
19124W        W84285   4.284  35.434   1.969
19125W        W84286   1.259   2.324   0.070
19126W        W84287  12.152  15.680   2.337
19127W        W84288  40.862   1.508   0.008
19128W        W84289  32.132  24.064  10.592
19129W        W84290   4.765  20.772   4.077
19130W        W84291  32.030  35.651   0.208
19131W        W84292   0.051  41.600  12.381
19132W        W84293  23.976  14.626  12.496
19133W        W84294  19.840  24.459  14.501
19134W        W84295  39.822  28.823   0.443
19135W        W84296  25.087  17.763   4.158
19136W        W84297  28.650  32.565  11.190
19137W        W84298  27.663  29.085   3.083
19138W        W84299  25.453  39.286   2.771
19139W        W84300  37.754   2.599   4.238
19140W        W84301  27.093   0.394  13.291
19141W        W84302  25.548  30.820  14.651
19142W        W84303  11.198   8.313   0.468
19143W        W84304   1.553  23.822  11.263
19144W        W84305  42.447  42.176   0.328
19145W        W84306   5.014  10.561   2.251
19146W        W84307  13.224  36.682   0.783
19147W        W84308   5.990  28.485   5.078
19148W        W84309  44.377  17.661   3.193
19149W        W84310  25.399  15.126  10.929
19150W        W84311  38.875   5.482   0.450
19151W        W84312  26.707  25.665  11.980
19152W        W84313  12.297  36.882   1.850
19153W        W84314   9.733   6.802  11.597
19154W        W84315  31.862  31.057   3.210
19155W        W84316  25.578  25.680   4.263
19156W        W84317  19.973  39.331  14.734
19157W        W84318  40.417  22.818   1.759
19158W        W84319  18.785   1.452   1.323
19159W        W84320   2.563  16.404  12.609
19160W        W84321   6.224  17.858  13.492
19161W        W84322  41.567  33.995   3.689
19162W        W84323  33.472  17.769  11.997
19163W        W84324  24.499  21.689  14.733
19164W        W84325  37.882  31.516  14.990
19165W        W84326  26.690   6.747  14.475
19166W        W84327   6.569  31.370  13.427
19167W        W84328   5.662  11.881   3.725
19168W        W84329  24.273  38.300  13.012
19169W        W84330  44.788   5.227  12.130
19170W        W84331  17.535  14.700   0.270
19171W        W84332  38.552   0.456  11.644
19172W        W84333  22.627  25.502   3.100
19173W        W84334  27.645  29.431   0.480
19174W        W84335  33.029  15.587   2.749
19175W        W84336   3.039   3.382   3.323
19176W        W84337  42.206   3.495  10.687
19177W        W84338  20.743  32.517  10.366
19178W        W84339   4.766  35.691  14.334
19179W        W84340  29.471   6.890   0.796
19180W        W84341  23.954  41.557   0.729
19181W        W84342  18.295  15.369  11.814
19182W        W84343  18.559   0.035   0.114
19183W        W84344  12.714  15.088  11.564
19184W        W84345  36.397  23.466   3.211
19185W        W84346   3.648   4.990  12.823
19186W        W84347   1.745  17.991   0.317
19187W        W84348   0.270   3.643   0.368
19188W        W84349   6.260   4.844  10.251
19189W        W84350  11.637  32.553   1.721
19190W        W84351   2.107   7.198   4.957
19191W        W84352  28.607  16.116  10.630
19192W        W84353  30.180   9.227   4.434
19193W        W84354  37.956  31.506  14.321
19194W        W84355  43.456  11.008   0.400
19195W        W84356   4.159  25.749  12.814
19196W        W84357  15.088  38.218  12.898
19197W        W84358  16.748   8.392   2.440
19198W        W84359  39.524   7.315   4.522
19199W        W84360  15.382  24.539  11.955
19200W        W84361  31.105   9.664   3.963
19201W        W84362  36.078   9.371   3.931
19202W        W84363  15.637   9.183   0.259
19203W        W84364  12.708  40.455  13.371
19204W        W84365  15.552  35.313  12.487
19205W        W84366  23.175  10.782  14.865
19206W        W84367   6.273  18.583   2.739
19207W        W84368  21.683  23.460   1.236
19208W        W84369  15.548   5.244  10.915
19209W        W84370  36.014   3.986   3.871
19210W        W84371  21.718  27.421  12.394
19211W        W84372  11.611  17.993   1.000
19212W        W84373  39.644  19.997   1.238
19213W        W84374  33.412   9.099   4.811
19214W        W84375   2.016  41.822  13.494
19215W        W84376  15.260  27.650   0.699
19216W        W84377   9.721  28.086   0.923
19217W        W84378   6.008   7.441   2.273
19218W        W84379  43.925  17.861  13.787
19219W        W84380   4.867  10.173  11.557
19220W        W84381  25.676   6.425   2.230
19221W        W84382  17.730  34.035   4.133
19222W        W84383  38.485  30.419   2.451
19223W        W84384  36.502  23.107   3.800
19224W        W84385  30.935  36.823   2.198
19225W        W84386  27.980  36.884   4.837
19226W        W84387  23.712  21.640   2.366
19227W        W84388  35.072  40.426  14.081
19228W        W84389  39.947   6.786   2.867
19229W        W84390  18.558  44.899   4.735
19230W        W84391  20.487  22.575   1.054
19231W        W84392  28.892   7.756  14.858
19232W        W84393  32.509  35.469  10.802
19233W        W84394  36.900  29.993   3.750
19234W        W84395   8.338  33.348  12.134
19235W        W84396   9.002  10.705  12.454
19236W        W84397  30.560  28.960  11.505
19237W        W84398  18.306   9.850  11.577
19238W        W84399  26.975  29.600  12.466
19239W        W84400  10.667   0.569  14.443
19240W        W84401  32.241  31.108  11.007
19241W        W84402  40.332   8.226  11.573
19242W        W84403  37.111  29.909  11.887
19243W        W84404  37.856  37.048   4.079
19244W        W84405  28.455  32.629   1.511
19245W        W84406   6.241  22.975   4.068
19246W        W84407  31.062  41.390  12.533
19247W        W84408  34.533   7.069  10.768
19248W        W84409  40.566  14.205  10.934
19249W        W84410  26.625  37.360  10.377
19250W        W84411  28.591  18.680   2.348
19251W        W84412  15.817   0.441  11.204
19252W        W84413   9.261   9.301  13.055
19253W        W84414  31.997  19.275   2.174
19254W        W84415   2.186  22.673  13.848
19255W        W84416  40.062  14.313   4.617
19256W        W84417  20.868   1.619   1.005
19257W        W84418  22.726   6.659  12.547
19258W        W84419  42.957  44.778  10.834
19259W        W84420  11.197  18.312   1.111
19260W        W84421  44.148  44.219   0.846
19261W        W84422  16.491  31.446   2.306
19262W        W84423  41.466   0.274   1.400
19263W        W84424   5.672  34.639   0.267
19264W        W84425  38.040   6.160  12.468
19265W        W84426  36.351  44.517   0.911
19266W        W84427  32.777  13.891  13.406
19267W        W84428   2.299  27.262   4.696
19268W        W84429  14.161  42.902   2.170
19269W        W84430   5.962  12.647  11.965
19270W        W84431  19.003  17.900   4.615
19271W        W84432   4.758  41.204   1.683
19272W        W84433  20.914   3.129  13.946
19273W        W84434  36.229  34.119   2.306
19274W        W84435  35.336  29.573  13.755
19275W        W84436   3.782   7.215   2.681
19276W        W84437  10.683  15.823   4.553
19277W        W84438  40.859  24.563   1.953
19278W        W84439   2.909  22.553   2.386
19279W        W84440  39.151  44.585   1.411
19280W        W84441  39.350  44.280  14.267
19281W        W84442  40.548   2.742   0.656
19282W        W84443  36.609   1.312   2.713
19283W        W84444  31.544  39.064   4.989
19284W        W84445  38.597   2.757  10.975
19285W        W84446  29.083   3.016  14.454
19286W        W84447   9.182   0.731  13.451
19287W        W84448   7.680   5.207  12.129
19288W        W84449  16.333  37.119  12.386
19289W        W84450  21.603  40.878  10.677
19290W        W84451  31.375  22.119  11.956
19291W        W84452  37.603   5.000   3.439
19292W        W84453   2.168  16.604   3.182
19293W        W84454  44.698  18.093   3.467
19294W        W84455  31.824  39.056   3.704
19295W        W84456  14.586  39.894   9.777
19296W        W84457  13.894  17.960  11.349
19297W        W84458  37.669   0.169   2.665
19298W        W84459  21.648   4.448   1.085
19299W        W84460  19.199   4.699  14.102
19300W        W84461  22.614  30.974  10.364
19301W        W84462   4.015   9.939  13.512
19302W        W84463   0.927  15.987   9.978
19303W        W84464   5.475  36.506  10.878
19304W        W84465  40.410   4.628   2.891
19305W        W84466  39.480  26.634   0.648
19306W        W84467  36.969  26.449  10.981
19307W        W84468  44.560  29.457  12.736
19308W        W84469   1.873  30.924  10.763
19309W        W84470  27.022   0.949  11.400
19310W        W84471  38.392   3.375   1.874
19311W        W84472  22.862  41.874  11.502
19312W        W84473  37.041  23.652  11.485
19313W        W84474  22.288  10.854  11.471
19314W        W84475  10.803   1.691  11.653
19315W        W84476   6.769  12.624  12.522
19316W        W84477  33.915  15.319  11.873
19317W        W84478   3.015   9.208   1.515
19318W        W84479  37.065   1.240   0.333
19319W        W84480  34.609   5.970  12.467
19320W        W84481  10.370  27.732   0.793
19321W        W84482   8.118  23.589   1.756
19322W        W84483  14.205   5.218   0.066
19323W        W84484  16.932  40.318   4.481
19324W        W84485  23.960   3.334  11.489
19325W        W84486   4.330  36.377   2.391
19326W        W84487  33.596   6.395  11.254
19327W        W84488  36.009  18.423   4.667
19328W        W84489  11.014  23.970   2.914
19329W        W84490   8.018  32.187   2.317
19330W        W84491  27.163  20.221   3.760
19331W        W84492  32.832  23.040   2.766
19332W        W84493   4.850  15.506   1.656
19333W        W84494   8.170   7.982  10.820
19334W        W84495   4.961  28.079   4.610
19335W        W84496  15.601  32.330  10.670
19336W        W84497  21.489  30.408   4.609
19337W        W84498  40.356  12.702   2.339
19338W        W84499  39.893  38.028  11.229
19339W        W84500   7.087  24.137   2.682
19340W        W84501  38.500   2.110  14.392
19341W        W84502  28.785  35.886  13.826
19342W        W84503  31.768  14.306  12.726
19343W        W84504  39.951  43.039   0.825
19344W        W84505   9.391  39.467  12.885
19345W        W84506  27.689   8.198   4.067
19346W        W84507   7.460   3.701  13.299
19347W        W84508  13.163   3.313  10.575
19348W        W84509  33.002  41.570  12.867
19349W        W84510  16.683   4.267  11.668
19350W        W84511  32.660   3.501  13.750
19351W        W84512  16.996  11.329  13.383
19352W        W84513   0.178  35.424   1.497
19353W        W84514  41.086  28.744  14.459
19354W        W84515  41.565  30.587   3.562
19355W        W84516  11.746   9.956   3.731
19356W        W84517  36.539  34.438  11.555
19357W        W84518  24.677  37.863   0.345
19358W        W84519  29.483  30.485   0.976
19359W        W84520   1.783  10.575  11.503
19360W        W84521   1.773  42.057  12.047
19361W        W84522  42.309  21.588   0.749
19362W        W84523  38.840  17.241   3.798
19363W        W84524  34.016  23.579  12.960
19364W        W84525   4.961  29.225  10.260
19365W        W84526  32.888   1.984  14.298
19366W        W84527   4.351  23.852  11.694
19367W        W84528   0.984  14.278   2.755
19368W        W84529  16.969  38.939   3.283
19369W        W84530  44.895   1.660   2.058
19370W        W84531  41.507  27.585   2.895
19371W        W84532   6.335  44.942  14.358
19372W        W84533  41.867  31.450   2.272
19373W        W84534  16.839  24.693  10.344
19374W        W84535  36.007  17.328   2.758
19375W        W84536  23.357  23.030  13.891
19376W        W84537  35.168   0.002   1.791
19377W        W84538   7.420   4.189  13.933
19378W        W84539  20.663  18.338  11.221
19379W        W84540  21.414  22.079   0.417
19380W        W84541  13.758  44.562   0.973
19381W        W84542   3.939  10.688  12.095
19382W        W84543  19.797   8.611  12.559
19383W        W84544  32.619  15.757   0.232
19384W        W84545  41.920  27.990   3.740
19385W        W84546  43.831  44.823   4.193
19386W        W84547  24.535  22.676   0.888
19387W        W84548  41.782  28.818  12.508
19388W        W84549  43.415  32.078   2.414
19389W        W84550   7.594  19.978  12.979
19390W        W84551  29.092  30.042  12.530
19391W        W84552  31.361  21.684  13.424
19392W        W84553  18.634  40.855  13.970
19393W        W84554  41.470   3.278  13.002
19394W        W84555   3.886  37.960  12.797
19395W        W84556  29.690  12.791  12.028
19396W        W84557  35.822  18.114  14.874
19397W        W84558  28.517  29.476  10.674
19398W        W84559  29.982  32.594  11.613
19399W        W84560  24.602  18.847   3.373
19400W        W84561  36.915  11.930   3.754
19401W        W84562  15.362  33.371   3.712
19402W        W84563  33.975  44.292  13.519
19403W        W84564  10.917  28.106  12.181
19404W        W84565  17.210  14.337   3.283
19405W        W84566  26.541  17.053  10.655
19406W        W84567  44.124  18.611   4.956
19407W        W84568  31.719  22.207  14.847
19408W        W84569  20.914  38.845  14.888
19409W        W84570   8.882  43.760  10.631
19410W        W84571  32.412  44.466   0.465
19411W        W84572  42.095  17.623  14.363
19412W        W84573  17.886  37.957  11.063
19413W        W84574  44.247   2.013  11.158
19414W        W84575  18.929  24.513   2.931
19415W        W84576  20.474  31.297   3.125
19416W        W84577   2.027  23.452   1.852
19417W        W84578  35.393  36.246   1.484
19418W        W84579  18.110  44.059  10.917
19419W        W84580  23.572   5.389   1.865
19420W        W84581  30.417  44.965  10.882
19421W        W84582   0.875  31.496  11.254
19422W        W84583   0.756  23.629  11.921
19423W        W84584  20.836   9.224   1.408
19424W        W84585  32.896  19.061   3.491
19425W        W84586  23.447  22.192   1.300
19426W        W84587   8.423  21.662   1.013
19427W        W84588  33.051  41.957  14.971
19428W        W84589  19.015   1.860   3.790
19429W        W84590  21.635  19.229   1.415
19430W        W84591  25.653  42.592   4.217
19431W        W84592  43.526  23.932  13.960
19432W        W84593  28.889   5.920  11.076
19433W        W84594  29.714  23.824  13.041
19434W        W84595  27.285   6.854  13.406
19435W        W84596  16.562  11.297  13.081
19436W        W84597   4.890  24.958   5.734
19437W        W84598  42.530  23.618   4.041
19438W        W84599  26.888   4.725   0.229
19439W        W84600   0.536  25.131   1.732
19440W        W84601  22.162  25.765  13.089
19441W        W84602  35.494  22.793  13.898
19442W        W84603  43.187  28.797  11.142
19443W        W84604  25.196  37.932   2.729
19444W        W84605   1.815  28.397  12.496
19445W        W84606  22.283  25.551   4.396
19446W        W84607  14.541  15.521   3.812
19447W        W84608  28.036   1.503  13.878
19448W        W84609  16.011  10.854   2.125
19449W        W84610  40.296  35.201   1.335
19450W        W84611  41.756  30.962   3.244
19451W        W84612  37.746  39.937  14.954
19452W        W84613  41.456  23.162  11.279
19453W        W84614  39.331  29.720  12.488
19454W        W84615  38.919  24.405   3.178
19455W        W84616  20.217   3.225   1.413
19456W        W84617  35.026  33.592  13.119
19457W        W84618  34.233   2.061   2.437
19458W        W84619  38.387  17.744  12.077
19459W        W84620  21.539   3.934   1.214
19460W        W84621  33.779  24.763   3.203
19461W        W84622  42.364  39.844  14.067
19462W        W84623  32.983  25.870   2.752
19463W        W84624  41.305  40.520   1.784
19464W        W84625  11.592  14.096   3.335
19465W        W84626  18.024  36.603   2.302
19466W        W84627  10.364  41.510   0.393
19467W        W84628  43.958  22.458  11.293
19468W        W84629  33.123  17.214  11.427
19469W        W84630   2.964  29.435  11.170
19470W        W84631  44.456  26.962  11.535
19471W        W84632  15.702  19.027   3.381
19472W        W84633  27.089   1.364   1.402
19473W        W84634  24.606  12.839  13.169
19474W        W84635  22.704  10.116   2.663
19475W        W84636  42.484  41.522  13.451
19476W        W84637   8.352  38.522  14.219
19477W        W84638  44.840  23.487   1.922
19478W        W84639   3.239  29.538   2.350
19479W        W84640  21.682  17.703  11.480
19480W        W84641   3.963  36.027   2.681
19481W        W84642  19.385  19.229   4.615
19482W        W84643  37.291  14.630   0.898
19483W        W84644   6.121  35.565  13.424
19484W        W84645  35.570   5.762  13.639
19485W        W84646  37.472  19.191  14.484
19486W        W84647  12.740  10.380   0.009
19487W        W84648  28.987  41.931  11.056
19488W        W84649   4.771  17.081   1.795
19489W        W84650  23.709   4.321  10.817
19490W        W84651  15.721  21.137  11.011
19491W        W84652  35.053  21.280   0.961
19492W        W84653  42.652  41.921   4.305
19493W        W84654   8.463  33.074   2.298
19494W        W84655  29.918   8.008  11.984
19495W        W84656  12.088  20.210   0.457
19496W        W84657  33.459  26.510   2.970
19497W        W84658  10.834  31.554   2.722
19498W        W84659   5.886   4.335   2.875
19499W        W84660  14.051  41.495   2.277
19500W        W84661  29.892  35.540  12.083
19501W        W84662  11.694  31.198   1.193
19502W        W84663   8.834  40.328   3.674
19503W        W84664  13.215   8.304   1.428
19504W        W84665  26.814  26.863  12.435
19505W        W84666   4.982   3.238  10.672
19506W        W84667  22.590  14.195   2.777
19507W        W84668  24.754   1.138  10.816
19508W        W84669  37.270  22.115   0.316
19509W        W84670  38.484  17.294   0.785
19510W        W84671  14.653  42.301   2.728
19511W        W84672  32.152  39.298  12.625
19512W        W84673  40.242  25.658   2.322
19513W        W84674  13.145  21.923  11.126
19514W        W84675   2.276  19.742  12.727
19515W        W84676  34.594  37.904  14.270
19516W        W84677  34.062  31.583  10.556
19517W        W84678  39.927  37.077   4.717
19518W        W84679  23.255  10.953  14.382
19519W        W84680  10.347  24.426  10.084
19520W        W84681   1.296  37.568  13.007
19521W        W84682  39.411   3.885  12.498
19522W        W84683   1.442  28.759  14.885
19523W        W84684  44.494  28.341   4.927
19524W        W84685  19.508  12.132   3.074
19525W        W84686  35.547  41.254   1.247
19526W        W84687  35.058  34.592  10.000
19527W        W84688  18.289   4.723  10.196
19528W        W84689  22.648  42.920   0.719
19529W        W84690  12.913  26.607   1.145
19530W        W84691  34.016   9.893   0.988
19531W        W84692  12.352  21.099  13.957
19532W        W84693  13.280  28.747  11.150
19533W        W84694  24.591  25.042  11.508
19534W        W84695   3.040  32.014  14.049
19535W        W84696  42.827  42.384  10.443
19536W        W84697  13.645  15.602  13.759
19537W        W84698   8.433   4.274   2.457
19538W        W84699   0.482   0.828   4.251
19539W        W84700  14.285  39.333  12.634
19540W        W84701  41.077  31.633   3.854
19541W        W84702  39.599   6.622   2.456
19542W        W84703  42.802  15.787   3.562
19543W        W84704  42.287  11.824   4.888
19544W        W84705   2.890  44.932  12.934
19545W        W84706  30.205  38.244   0.052
19546W        W84707  18.674  24.761   3.931
19547W        W84708  21.540  43.002   3.278
19548W        W84709  31.073  20.629   1.710
19549W        W84710  24.034  16.178  13.943
19550W        W84711   4.017  32.368  14.896
19551W        W84712  29.494   7.656   0.300
19552W        W84713   4.656  39.737   0.033
19553W        W84714   0.209  32.217  14.951
19554W        W84715  32.495  30.944  13.358
19555W        W84716   3.485  11.791  10.783
19556W        W84717  17.792  15.776   2.905
19557W        W84718   7.421  26.887   1.410
19558W        W84719  44.268  16.191  14.935
19559W        W84720  31.545   4.244  10.837
19560W        W84721  38.957   8.666  12.934
19561W        W84722   4.237  32.946  10.706
19562W        W84723   7.293  19.750  12.297
19563W        W84724   2.290  29.798   9.885
19564W        W84725   3.942  13.547  12.070
19565W        W84726  10.377  12.129   4.361
19566W        W84727  21.270  28.393   1.201
19567W        W84728  18.107  27.769   1.938
19568W        W84729  16.131  41.589  11.141
19569W        W84730  10.841  40.388   2.224
19570W        W84731  30.198  43.407   4.070
19571W        W84732  21.687  37.313   4.028
19572W        W84733  26.256  35.080   4.611
19573W        W84734  20.314   6.355   4.498
19574W        W84735  41.270  23.725   4.607
19575W        W84736  15.074  25.437   3.660
19576W        W84737  19.106   2.265  14.341
19577W        W84738  15.313  44.953   1.828
19578W        W84739  33.942  22.794   4.067
19579W        W84740   2.548  25.591   3.747
19580W        W84741  19.477  24.740   0.922
19581W        W84742  25.012  38.070  12.042
19582W        W84743  10.370  44.966  10.962
19583W        W84744  17.601  12.525   4.173
19584W        W84745  21.569   5.458  11.424
19585W        W84746  38.295  24.242   1.390
19586W        W84747  22.035  17.843  14.380
19587W        W84748  41.560  24.619   4.156
19588W        W84749  13.766  33.477  14.450
19589W        W84750  26.485  11.735   3.664
19590W        W84751  27.995  19.814   0.556
19591W        W84752  43.527  13.252   1.617
19592W        W84753  11.564  44.663  12.517
19593W        W84754   0.312   3.338   4.659
19594W        W84755  19.227  13.271  12.082
19595W        W84756   0.063  29.956   0.560
19596W        W84757  22.146  26.807  10.146
19597W        W84758  39.902  15.263  13.115
19598W        W84759  29.041   9.894  10.248
19599W        W84760  29.437  42.030  13.983
19600W        W84761  19.155  14.010  11.606
19601W        W84762  26.509  19.911   1.802
19602W        W84763  36.208  24.860   1.681
19603W        W84764  39.435  36.667  11.644
19604W        W84765   9.382  42.766  12.431
19605W        W84766  35.033   2.342  11.649
19606W        W84767   0.437  14.364   0.874
19607W        W84768  14.474  44.259   1.721
19608W        W84769   3.203  23.976  11.054
19609W        W84770  10.865   0.643  14.912
19610W        W84771   2.448  40.752   5.166
19611W        W84772  30.033  33.094  11.897
19612W        W84773   7.800  20.204  11.916
19613W        W84774  13.597  37.564   1.992
19614W        W84775   6.698   5.908  11.157
19615W        W84776  26.760  18.317  14.365
19616W        W84777  27.631   4.925   1.207
19617W        W84778  43.561  28.819   3.260
19618W        W84779   4.473  13.813  13.384
19619W        W84780  12.190  17.145   1.782
19620W        W84781  33.795  29.269  13.428
19621W        W84782   3.241  27.443  13.976
19622W        W84783  43.921  17.838   2.876
19623W        W84784  18.593  39.942  12.043
19624W        W84785   7.886  44.117   5.315
19625W        W84786  20.674  44.421  11.113
19626W        W84787   5.796   7.804   3.860
19627W        W84788  15.552   9.302  12.931
19628W        W84789  24.265   1.166   4.886
19629W        W84790  40.098   4.603  11.489
19630W        W84791  36.004  41.416  10.723
19631W        W84792   6.237  11.394  12.996
19632W        W84793  44.216  26.573  11.767
19633W        W84794  15.355  40.317  14.031
19634W        W84795  34.965  20.188   0.409
19635W        W84796   6.774   4.407  10.455
19636W        W84797   4.172  42.440  12.813
19637W        W84798  21.163  43.304   1.844
19638W        W84799  28.681  10.955  11.607
19639W        W84800  15.735   9.426  14.441
19640W        W84801  18.753  44.555   2.493
19641W        W84802  35.503  25.608  11.851
19642W        W84803  39.304  33.049  13.787
19643W        W84804  37.874  11.470  13.522
19644W        W84805  27.947  10.669   0.895
19645W        W84806  14.222  14.615   4.784
19646W        W84807  30.975  24.292  12.418
19647W        W84808   3.511  43.324  12.030
19648W        W84809   7.817  29.578  12.823
19649W        W84810  32.971  25.475  12.184
19650W        W84811  13.323   5.823   3.571
19651W        W84812   2.158  44.607  11.278
19652W        W84813  34.472  16.304   3.154
19653W        W84814  42.699  13.124   4.973
19654W        W84815  37.139  29.512   3.789
19655W        W84816  23.433  12.778   2.213
19656W        W84817  26.958   9.336   2.283
19657W        W84818  33.446  26.653   2.399
19658W        W84819  42.362   1.068  12.168
19659W        W84820  23.320  32.711  11.485
19660W        W84821  39.410   4.137   1.407
19661W        W84822  41.460  42.462  12.291
19662W        W84823  21.896  13.235   4.980
19663W        W84824  11.246  40.309   3.697
19664W        W84825   5.802  32.500   1.756
19665W        W84826  18.712  27.783   0.297
19666W        W84827  25.600   6.228   3.788
19667W        W84828  11.900  44.342  12.732
19668W        W84829  44.405  36.503   0.823
19669W        W84830  33.746  26.357   3.613
19670W        W84831  32.393  41.554   3.353
19671W        W84832  10.830  31.821   2.181
19672W        W84833  37.936  28.555  14.028
19673W        W84834   5.858  15.611   3.059
19674W        W84835  39.040  14.499  12.557
19675W        W84836  32.003  32.495   4.529
19676W        W84837  17.173   9.269   1.204
19677W        W84838  16.631  36.275  13.114
19678W        W84839   1.453   6.475  14.487
19679W        W84840  36.493  17.531  10.417
19680W        W84841   4.913  32.825  14.723
19681W        W84842  35.651  10.281  14.979
19682W        W84843   8.556  40.763   3.666
19683W        W84844  41.645  25.185  12.885
19684W        W84845  22.196   4.252  14.359
19685W        W84846  26.019   1.272  12.399
19686W        W84847   5.140  43.155   2.914
19687W        W84848  39.354  36.515  14.326
19688W        W84849  39.563   9.931   1.092
19689W        W84850  37.100  11.476   1.248
19690W        W84851  16.090  21.092  11.938
19691W        W84852  11.240  36.810  11.639
19692W        W84853  26.202  14.644  12.790
19693W        W84854  17.693  15.931  12.114
19694W        W84855  25.080  31.612   1.144
19695W        W84856   3.041  41.279  12.969
19696W        W84857  18.793  41.681  12.983
19697W        W84858  21.002  21.045  10.294
19698W        W84859  20.847  36.661  11.182
19699W        W84860  21.974  17.872  12.955
19700W        W84861  30.595  38.481   0.354
19701W        W84862  35.384  44.438  12.553
19702W        W84863  41.969  20.750   0.188
19703W        W84864   0.435   7.291  12.585
19704W        W84865  43.363  10.504  13.929
19705W        W84866  23.672  31.836   3.917
19706W        W84867  13.676  39.364   3.328
19707W        W84868   3.304  35.362  12.537
19708W        W84869  38.915  30.155  10.612
19709W        W84870  11.296  23.752  14.826
19710W        W84871  22.017   7.830   3.853
19711W        W84872   1.553  23.295   1.920
19712W        W84873   4.545  21.449  13.845
19713W        W84874   3.786   6.203   3.484
19714W        W84875   3.748  30.645   2.586
19715W        W84876   2.675  11.549  10.701
19716W        W84877  24.765  18.011  12.516
19717W        W84878  40.135  22.202   4.526
19718W        W84879  14.270   4.944  14.003
19719W        W84880  32.791   4.030  14.383
19720W        W84881  19.983  21.124  12.321
19721W        W84882  22.169   5.053   1.712
19722W        W84883  15.496  20.202   4.003
19723W        W84884  40.861  33.337  12.581
19724W        W84885  20.277  10.447  12.273
19725W        W84886  30.147  12.046   4.542
19726W        W84887  20.658   3.517   2.739
19727W        W84888  44.936  22.363  11.322
19728W        W84889  32.010   7.043   3.042
19729W        W84890  11.891  27.172  13.374
19730W        W84891  37.348  32.669  11.343
19731W        W84892   2.737  32.503   4.480
19732W        W84893  19.212  27.708  14.573
19733W        W84894  33.494  39.960   3.783
19734W        W84895   6.919   0.705  13.037
19735W        W84896  10.819  35.390   3.175
19736W        W84897  12.657  28.395   1.731
19737W        W84898  29.574  10.075  11.274
19738W        W84899  14.694  17.884  10.636
19739W        W84900  33.576  40.304   1.779
19740W        W84901  29.713  37.981  12.617
19741W        W84902  39.405  15.056  12.184
19742W        W84903   7.661   2.576  14.970
19743W        W84904  28.102  36.869   1.293
19744W        W84905  42.917  30.817   3.780
19745W        W84906   4.132  28.185  13.634
19746W        W84907  25.674  35.446  11.174
19747W        W84908   7.387  37.073   3.564
19748W        W84909  12.762  42.917   3.345
19749W        W84910  14.701  11.856  10.265
19750W        W84911  43.613  13.228   3.595
19751W        W84912  38.331  40.249  14.309
19752W        W84913   4.820  43.750   3.850
19753W        W84914  38.722   7.351   1.721
19754W        W84915   8.318  16.089   1.714
19755W        W84916  28.565  41.008   3.516
19756W        W84917  29.262  13.361   3.323
19757W        W84918  31.410  26.279  13.761
19758W        W84919   2.511  20.998   1.240
19759W        W84920  42.517   1.476   4.496
19760W        W84921  40.314  35.038   2.670
19761W        W84922   0.166  33.211   4.490
19762W        W84923  31.192  23.053  14.781
19763W        W84924  32.120  40.585  11.173
19764W        W84925  35.451  27.982   4.558
19765W        W84926  23.234  13.437   1.657
19766W        W84927  28.894  20.341   1.721
19767W        W84928  31.980  44.445  11.475
19768W        W84929  22.937  20.158   3.067
19769W        W84930  12.803  33.707   2.268
19770W        W84931  20.814  14.560  14.042
19771W        W84932  24.443   1.564  14.927
19772W        W84933  38.804  39.009  14.827
19773W        W84934  13.880  31.166  11.908
19774W        W84935   9.320  31.214   1.444
19775W        W84936  34.163   9.217  13.547
19776W        W84937  27.217   6.704   3.320
19777W        W84938  36.016  29.174   0.644
19778W        W84939   8.271  39.896   1.681
19779W        W84940  28.485   8.510   2.387
19780W        W84941  25.436  21.695  11.607
19781W        W84942   3.743  26.980   1.331
19782W        W84943  28.269  40.840  12.470
19783W        W84944  44.042  14.285   4.631
19784W        W84945  18.142  12.902   3.651
19785W        W84946  31.631  34.214   0.009
19786W        W84947  32.928  15.133  11.917
19787W        W84948  12.366  42.572   0.470
19788W        W84949  28.445  22.979   9.959
19789W        W84950  14.900   6.256   2.300
19790W        W84951  38.591  26.843  14.440
19791W        W84952  30.060  20.320   4.663
19792W        W84953   3.958  38.215   1.232
19793W        W84954  33.714  39.252  14.834
19794W        W84955  41.823   4.643  14.496
19795W        W84956  38.363  25.065  12.950
19796W        W84957  34.817  21.053   3.881
19797W        W84958   9.660  24.152   5.167
19798W        W84959  38.441  19.350   1.816
19799W        W84960  24.512  32.476   1.352
19800W        W84961   2.297   3.396   3.718
19801W        W84962  44.995  11.662  14.267
19802W        W84963   4.441  36.591  11.076
19803W        W84964   7.846  19.640   1.273
19804W        W84965  38.475  24.005   0.523
19805W        W84966  12.844  13.308  14.928
19806W        W84967  22.322  11.156  11.908
19807W        W84968  19.598  19.019   0.521
19808W        W84969  18.030  28.629  12.604
19809W        W84970  16.794  25.543   4.618
19810W        W84971  25.922  10.819   3.640
19811W        W84972  36.908  26.938  10.846
19812W        W84973   9.658  13.863  12.006
19813W        W84974  31.823   0.438  10.610
19814W        W84975  22.027   2.430   1.687
19815W        W84976  10.760   6.350  12.121
19816W        W84977  15.075   5.345  13.909
19817W        W84978  34.914  26.965   1.197
19818W        W84979  15.734   0.412   3.770
19819W        W84980  32.907   4.901  12.492
19820W        W84981  17.594  42.049  12.151
19821W        W84982  22.062   7.439  11.905
19822W        W84983   5.523  15.510  13.297
19823W        W84984   8.528   6.510   0.933
19824W        W84985  24.179  11.324   2.434
19825W        W84986  36.093   7.782   1.238
19826W        W84987  43.006   3.247   1.713
19827W        W84988  16.299  29.634  12.005
19828W        W84989  34.806  29.560  13.873
19829W        W84990  15.866  44.056  11.947
19830W        W84991  26.636  37.210  10.920
19831W        W84992  20.227  11.649  13.328
19832W        W84993   7.902  35.260  11.212
19833W        W84994   3.993  43.411   4.154
19834W        W84995  18.474  23.051  12.404
19835W        W84996  18.111  43.469   2.209
19836W        W84997  24.595  44.489   2.684
19837W        W84998  30.466  30.170  13.131
19838W        W84999  16.564  17.240   2.797
19839W        W85000  34.028  43.955   4.126
19840W        W85001   4.217  21.609  14.228
19841W        W85002  21.329  34.043  11.179
19842W        W85003  13.858  12.561  11.649
19843W        W85004  38.821   6.131  12.831
19844W        W85005  33.212  15.851  14.157
19845W        W85006  22.720   2.030   1.825
19846W        W85007  10.881  38.000   4.311
19847W        W85008  32.465  22.161  11.969
19848W        W85009  15.157  23.077   4.612
19849W        W85010   3.011  25.102   3.884
19850W        W85011  14.792   8.823  11.877
19851W        W85012  20.203   1.503  13.909
19852W        W85013  28.425  25.575   1.290
19853W        W85014  37.992   4.289   0.251
19854W        W85015  43.761   7.486  12.987
19855W        W85016  24.557   2.118   4.530
19856W        W85017  20.649  31.049  12.979
19857W        W85018  44.082  44.047  11.536
19858W        W85019  30.146   1.378  13.523
19859W        W85020  29.684  12.812  10.251
19860W        W85021  12.170   0.900   1.824
19861W        W85022   9.885   6.562  14.479
19862W        W85023  11.111   5.579   2.388
19863W        W85024  32.547  27.595   4.555
19864W        W85025  25.719  28.327  12.404
19865W        W85026  35.119  19.507  13.454
19866W        W85027  24.824   6.806  11.646
19867W        W85028  15.638  42.249  11.214
19868W        W85029  28.520  25.476  12.853
19869W        W85030  36.170  12.878  13.326
19870W        W85031  17.270  42.865   0.850
19871W        W85032  24.466  31.075  10.665
19872W        W85033  16.459  22.581   3.746
19873W        W85034  40.774  42.948   1.024
19874W        W85035  31.585  27.551   2.687
19875W        W85036  25.859  28.388  10.533
19876W        W85037  19.522  22.418   0.989
19877W        W85038  25.106  33.122  11.517
19878W        W85039   2.065  25.086  14.380
19879W        W85040  33.982  37.865   1.406
19880W        W85041   7.588  23.185  10.747
19881W        W85042  26.737  44.526  11.931
19882W        W85043  36.467  37.456  11.524
19883W        W85044  19.262  43.417  10.910
19884W        W85045   4.417  27.571   2.166
19885W        W85046  31.927  34.538   4.650
19886W        W85047  41.235  35.482  12.516
19887W        W85048  10.311   1.177  12.059
19888W        W85049  22.230  43.189   3.776
19889W        W85050   4.853  11.409  13.640
19890W        W85051   8.856  16.646   3.465
19891W        W85052  29.481   4.844   1.343
19892W        W85053  38.356   2.501   0.464
19893W        W85054  31.769   9.715   1.648
19894W        W85055  13.829  28.414  13.360
19895W        W85056  23.670  24.976   0.787
19896W        W85057  39.859  22.219   1.234
19897W        W85058   4.666  18.079   0.261
19898W        W85059   6.733  41.864  14.030
19899W        W85060  38.608   1.014   2.342
19900W        W85061  41.838  44.892   1.500
19901W        W85062   7.769  42.974   4.638
19902W        W85063  17.260  23.882  11.250
19903W        W85064  26.837  27.609   0.291
19904W        W85065  39.827  27.482  10.698
19905W        W85066  30.851  21.555   1.927
19906W        W85067   5.780  42.963  14.955
19907W        W85068   8.761  26.119   5.061
19908W        W85069  25.456   4.729   3.938
19909W        W85070   8.213  34.145  13.432
19910W        W85071  12.790   9.668  10.619
19911W        W85072   8.614  18.224  14.146
19912W        W85073  20.337  23.158   3.226
19913W        W85074  24.984  16.852  13.363
19914W        W85075  44.264  12.059  13.142
19915W        W85076  15.718  38.840  10.439
19916W        W85077  33.856  16.548   3.704
19917W        W85078  38.890  34.062   1.448
19918W        W85079  33.972  39.325   0.276
19919W        W85080  17.289  44.363   2.812
19920W        W85081  11.142  27.330   3.759
19921W        W85082  34.275  41.324   5.033
19922W        W85083  38.099  24.649   1.678
19923W        W85084  34.542  38.078  13.441
19924W        W85085  12.769  26.639   2.174
19925W        W85086  42.898  16.585  12.024
19926W        W85087  25.193  26.702  12.914
19927W        W85088  26.055   6.917  13.720
19928W        W85089  24.893  39.015   3.662
19929W        W85090  14.045  10.098  14.487
19930W        W85091  40.063  41.430   3.700
19931W        W85092   3.991  25.348   1.802
19932W        W85093  39.414  35.845   0.530
19933W        W85094  12.167  31.399   1.371
19934W        W85095  36.297  42.191   3.643
19935W        W85096  19.023  10.286  10.821
19936W        W85097  33.390  18.822  11.150
19937W        W85098  13.807  33.112   3.323
19938W        W85099  41.257  10.091   5.035
19939W        W85100  37.012  43.936  13.107
19940W        W85101  15.238  32.531  10.979
19941W        W85102  24.219  31.062  14.861
19942W        W85103  31.456  12.829   0.060
19943W        W85104  38.929  14.247  12.090
19944W        W85105  31.349   8.934   0.446
19945W        W85106  33.235   0.858   1.818
19946W        W85107  17.689  15.669  14.879
19947W        W85108   8.372   4.914  11.273
19948W        W85109  27.618  13.132  10.616
19949W        W85110  36.961  10.556   3.188
19950W        W85111  21.606  43.563   3.624
19951W        W85112   2.891  24.600  13.514
19952W        W85113  20.280   8.371   2.789
19953W        W85114  32.702  15.465  11.574
19954W        W85115  42.672  33.136   1.135
19955W        W85116  35.683  40.285  12.815
19956W        W85117  36.181  29.573  14.358
19957W        W85118   3.370  33.972   3.479
19958W        W85119  24.246  43.854   4.105
19959W        W85120  35.950  18.454  12.579
19960W        W85121  44.350  41.073   4.657
19961W        W85122  28.863  42.212   0.801
19962W        W85123   0.857  29.676   3.759
19963W        W85124  41.115   0.716  13.359
19964W        W85125   1.016  19.039   1.723
19965W        W85126  24.280   1.773   3.601
19966W        W85127  15.903  34.359   2.328
19967W        W85128   9.294   8.344   3.375
19968W        W85129  28.994   8.409  10.695
19969W        W85130  13.672   0.802  14.757
19970W        W85131   8.305   8.489  11.287
19971W        W85132  27.064  44.883  13.390
19972W        W85133  36.371  18.633   2.760
19973W        W85134  41.797  33.868   1.860
19974W        W85135  17.746  11.610   4.585
19975W        W85136  34.930  41.895  14.988
19976W        W85137  22.957   1.338   1.877
19977W        W85138  30.957   0.339  10.707
19978W        W85139  30.120  26.062   4.796
19979W        W85140  24.606  10.363   2.681
19980W        W85141  20.678  37.245  13.902
19981W        W85142   6.758  18.295   3.579
19982W        W85143  14.996  14.895  14.287
19983W        W85144   4.165   8.371  13.765
19984W        W85145  44.242   2.301  13.410
19985W        W85146  19.487  23.896  13.872
19986W        W85147  37.739   0.023   0.435
19987W        W85148  25.706  39.580   4.084
19988W        W85149   0.920  33.884  11.570
19989W        W85150   8.469  31.751   4.022
19990W        W85151  29.939  39.027  10.965
19991W        W85152   9.250  39.941  14.892
19992W        W85153  24.753  23.428  12.620
19993W        W85154  11.079  28.508  10.703
19994W        W85155   6.266  44.379   2.286
19995W        W85156  35.401  16.679  12.111
19996W        W85157  38.092  12.646   0.820
19997W        W85158   0.690  11.304   0.402
19998W        W85159  44.968  39.125   3.844
19999W        W85160   9.915  12.311   4.266
20000W        W85161  27.021  16.424  14.024
20001W        W85162  37.372  43.893  11.899
20002W        W85163  37.849  26.574   1.862
20003W        W85164  36.716   4.050  11.554
20004W        W85165  17.894  37.331  13.330
20005W        W85166  12.842  19.764   4.796
20006W        W85167   9.655  16.315  10.765
20007W        W85168   9.563   7.498  10.750
20008W        W85169  30.535  19.323  10.422
20009W        W85170  43.460   8.764  13.482
20010W        W85171  12.063  38.978   0.353
20011W        W85172  38.547  38.004   3.856
20012W        W85173  22.179   6.549  13.510
20013W        W85174  19.115  15.195  11.959
20014W        W85175  33.274  32.439   1.139
20015W        W85176  28.011  18.491  10.649
20016W        W85177  31.676   9.614   0.880
20017W        W85178  44.156  29.432  11.976
20018W        W85179   7.581  25.495  12.533
20019W        W85180  24.466  38.933  14.362
20020W        W85181  22.247  39.303  14.920
20021W        W85182  31.860   8.606  12.556
20022W        W85183  33.871  34.078   3.965
20023W        W85184  29.235  26.431   4.071
20024W        W85185  31.560   1.765  13.960
20025W        W85186  39.600   5.440  11.126
20026W        W85187  43.471  28.563   1.486
20027W        W85188  24.281  20.881  13.893
20028W        W85189  37.002  27.984   4.676
20029W        W85190   8.483  15.885  12.127
20030W        W85191   9.161   7.892  14.459
20031W        W85192  31.510  16.230   2.161
20032W        W85193  34.141  23.515   1.165
20033W        W85194  14.277  32.323   4.120
20034W        W85195  21.150  33.354  13.893
20035W        W85196   2.377  10.859  13.032
20036W        W85197   4.778   4.434  14.386
20037W        W85198  32.107  42.588  11.098
20038W        W85199  26.456  41.785  10.673
20039W        W85200  19.821  16.043   2.724
20040W        W85201   1.922  44.070  12.021
20041W        W85202  16.629  21.679  13.342
20042W        W85203  27.099  35.401  10.719
20043W        W85204  37.543  43.938   4.032
20044W        W85205  16.608  27.286  13.093
20045W        W85206  14.380   1.919  12.022
20046W        W85207  41.864   4.245   4.594
20047W        W85208  33.653  42.140  14.304
20048W        W85209  39.024  16.877  14.620
20049W        W85210  37.313  36.445   4.564
20050W        W85211  27.704   2.692   0.810
20051W        W85212  17.938  43.432  12.147
20052W        W85213  41.148  25.217   0.846
20053W        W85214  35.973   3.159  13.429
20054W        W85215  31.836   8.184   2.860
20055W        W85216   0.378   1.237  11.902
20056W        W85217  23.801  25.202  10.239
20057W        W85218  16.313  24.678  11.504
20058W        W85219  37.440  28.999   1.616
20059W        W85220   7.353   0.288   2.640
20060W        W85221  34.864  35.147   0.755
20061W        W85222   6.656   6.348   2.663
20062W        W85223  43.822  27.008  10.917
20063W        W85224   0.281  11.418   2.176
20064W        W85225  10.422  21.064  10.768
20065W        W85226  42.823  33.262  10.698
20066W        W85227  30.877   3.735   0.864
20067W        W85228  10.763  31.886  13.483
20068W        W85229   3.884  37.514  12.507
20069W        W85230  32.937   6.644   3.325
20070W        W85231  42.363  29.109  11.084
20071W        W85232   7.430  35.141  11.011
20072W        W85233  34.662  23.634  12.053
20073W        W85234   5.853  16.151  12.612
20074W        W85235   9.621  34.713   4.251
20075W        W85236   1.248  25.988   4.160
20076W        W85237   8.347  23.128  14.509
20077W        W85238  14.218   9.324   3.455
20078W        W85239  33.644   0.320  12.479
20079W        W85240   3.376   0.891   1.953
20080W        W85241  44.320  10.744   1.871
20081W        W85242  12.796   3.596  12.156
20082W        W85243   8.913  26.458   4.610
20083W        W85244  25.408  22.050  13.997
20084W        W85245   6.713  14.104  12.516
20085W        W85246   8.101  16.096  14.466
20086W        W85247  35.514  21.567   2.862
20087W        W85248   6.168   2.224   2.691
20088W        W85249  11.814  40.840   4.212
20089W        W85250  38.889   1.484   2.397
20090W        W85251  21.831  44.730   2.452
20091W        W85252   8.709  15.693   2.966
20092W        W85253  13.061  18.588  14.295
20093W        W85254  25.236  29.734  13.981
20094W        W85255  13.670  29.105  11.107
20095W        W85256  12.797   2.864   2.826
20096W        W85257   3.022  34.591  13.434
20097W        W85258  32.337  29.245  13.886
20098W        W85259  37.065  28.105  14.248
20099W        W85260  38.408  40.017   2.758
20100W        W85261  14.701  44.746  12.645
20101W        W85262  16.535  42.784  11.067
20102W        W85263  15.196  15.358  10.507
20103W        W85264  18.958  14.195  10.304
20104W        W85265  12.648   5.674   1.350
20105W        W85266  35.624  28.032   2.830
20106W        W85267  12.567  12.407  10.719
20107W        W85268  42.145  42.850  11.847
20108W        W85269  11.707   0.220   0.405
20109W        W85270  43.000   1.471   1.331
20110W        W85271  33.537  15.952  11.602
20111W        W85272   7.400  13.729  14.900
20112W        W85273  33.332  24.194  12.904
20113W        W85274  20.741  14.064  13.974
20114W        W85275  15.106  25.194  13.858
20115W        W85276  32.148  13.289  11.979
20116W        W85277  43.432  38.410   3.429
20117W        W85278  15.865   9.890   2.004
20118W        W85279  21.477  20.088   1.378
20119W        W85280  44.339  40.993  12.820
20120W        W85281  33.124  25.400   0.631
20121W        W85282  35.898  28.968   4.705
20122W        W85283  14.326  30.069   4.932
20123W        W85284  31.434  10.952  13.500
20124W        W85285  41.795  40.698   0.694
20125W        W85286  33.189  33.695  14.274
20126W        W85287  17.220  40.563   3.112
20127W        W85288  41.184  43.972  11.724
20128W        W85289  21.963  13.778   4.353
20129W        W85290  28.562  29.080   3.104
20130W        W85291   9.586  44.455   1.366
20131W        W85292  37.324  26.130  10.579
20132W        W85293   8.360  40.450  11.774
20133W        W85294  15.684  25.940  12.030
20134W        W85295  29.923  42.396   3.656
20135W        W85296   1.358   7.742  13.671
20136W        W85297  19.371  37.287   1.488
20137W        W85298  34.875   8.586  13.260
20138W        W85299  43.320   7.328   0.923
20139W        W85300  12.736  40.196  11.133
20140W        W85301  16.552  38.007  10.685
20141W        W85302  13.349  37.898   0.352
20142W        W85303  42.794  44.461  12.481
20143W        W85304  34.992  18.994  13.462
20144W        W85305  36.672  41.834   0.397
20145W        W85306  26.562   9.934   0.512
20146W        W85307  27.770  32.576   2.596
20147W        W85308   5.698  42.861   1.935
20148W        W85309   8.687  42.415   1.050
20149W        W85310  28.076  29.474  11.507
20150W        W85311  16.825   5.168   4.536
20151W        W85312  31.774   2.358  11.117
20152W        W85313  41.427   1.645   2.457
20153W        W85314  33.632  28.585   3.378
20154W        W85315   2.040   9.981   1.907
20155W        W85316  32.973  38.772   3.223
20156W        W85317  44.698  17.060   0.336
20157W        W85318  19.507   3.333  13.577
20158W        W85319  23.643  23.047   2.300
20159W        W85320   3.277   8.345  11.090
20160W        W85321   7.375  33.658   1.773
20161W        W85322  44.816  44.128  13.403
20162W        W85323  25.723  14.745   4.205
20163W        W85324  42.777  16.036   4.370
20164W        W85325  43.112   5.431   0.504
20165W        W85326  16.955  39.952  10.311
20166W        W85327  16.310  23.524   0.259
20167W        W85328  31.591  36.641   0.949
20168W        W85329  31.596  13.721  13.915
20169W        W85330  20.158  37.066   0.470
20170W        W85331  41.937  43.376   4.610
20171W        W85332  43.558  40.075   0.392
20172W        W85333   8.302  39.227  12.520
20173W        W85334  21.065  13.655   4.103
20174W        W85335  26.685   1.320  11.093
20175W        W85336  44.394  14.344  11.556
20176W        W85337  43.252  33.405   9.813
20177W        W85338  36.348  30.732   2.316
20178W        W85339  38.810  32.180   2.810
20179W        W85340  22.899   4.749  14.740
20180W        W85341  21.089  24.403   1.726
20181W        W85342  43.104  18.973  12.113
20182W        W85343   9.592  17.121  11.902
20183W        W85344  27.583  29.123   1.348
20184W        W85345  18.428  21.128   1.509
20185W        W85346  10.565   7.781   5.375
20186W        W85347  11.728  24.759   2.304
20187W        W85348  26.469  42.945   1.574
20188W        W85349   6.820  28.232   1.313
20189W        W85350  25.479  25.126  13.437
20190W        W85351  10.947  42.382   0.395
20191W        W85352  19.175  33.093   4.160
20192W        W85353  15.324  11.551   2.842
20193W        W85354  22.053   1.338   3.498
20194W        W85355  39.361   5.598  11.935
20195W        W85356   7.896  27.555   1.906
20196W        W85357  35.247  29.995  10.754
20197W        W85358  23.101  19.739   0.942
20198W        W85359  40.578  23.883  11.776
20199W        W85360  12.788  39.740  12.008
20200W        W85361  27.568  20.084   3.370
20201W        W85362  15.979  42.491   4.580
20202W        W85363   5.158  40.098   3.511
20203W        W85364  23.662  13.996  11.965
20204W        W85365  41.597   4.378  10.734
20205W        W85366  27.670  29.620   2.936
20206W        W85367  41.337   2.122   2.667
20207W        W85368   8.408   1.727   0.126
20208W        W85369  42.335  27.569  14.001
20209W        W85370  38.854  19.509  10.424
20210W        W85371  25.505  31.634  11.125
20211W        W85372  11.371  24.993   4.081
20212W        W85373   1.412  25.594   2.882
20213W        W85374  35.869   5.734   0.446
20214W        W85375  37.075  34.451  11.582
20215W        W85376  18.299  36.821  12.552
20216W        W85377  29.076  44.011  12.416
20217W        W85378   6.015  17.108   4.009
20218W        W85379  25.367  25.396  11.697
20219W        W85380  34.034  37.382   0.902
20220W        W85381  38.536  28.409   2.887
20221W        W85382  28.323   9.313  11.162
20222W        W85383  27.114  15.742   3.036
20223W        W85384  16.536  34.035  12.699
20224W        W85385  32.872  44.413   4.658
20225W        W85386   7.468  22.471   1.351
20226W        W85387  39.289  38.293  11.874
20227W        W85388  42.591  29.157  14.964
20228W        W85389  25.406  29.108   3.168
20229W        W85390  26.948  29.103   3.765
20230W        W85391  44.391  34.645   0.755
20231W        W85392   8.174   6.335  10.971
20232W        W85393   3.927  32.620   1.266
20233W        W85394  14.801  31.676  13.874
20234W        W85395   7.959   9.755   2.959
20235W        W85396  26.050  32.991   0.736
20236W        W85397  32.841  40.822   0.113
20237W        W85398  20.485  30.655   0.378
20238W        W85399  35.384  13.810  13.863
20239W        W85400   1.299  42.597  13.603
20240W        W85401  34.108  21.301  13.363
20241W        W85402  35.129  25.178  11.581
20242W        W85403  30.809  30.847  14.400
20243W        W85404  39.996  17.562  13.424
20244W        W85405  23.679   3.431   3.253
20245W        W85406  33.811  24.282   3.775
20246W        W85407  35.960  41.508   2.424
20247W        W85408  10.429   1.869   0.855
20248W        W85409  36.286   7.502   1.642
20249W        W85410  28.633  33.551  11.414
20250W        W85411  20.237  33.808  11.931
20251W        W85412  30.681  18.566  13.952
20252W        W85413  10.299  13.291  12.394
20253W        W85414   4.934  14.017  11.256
20254W        W85415  17.849  33.975   0.774
20255W        W85416  18.604  28.295   0.246
20256W        W85417   1.791  40.980  13.545
20257W        W85418  25.429  28.415  14.405
20258W        W85419  37.065  20.515  14.424
20259W        W85420   7.076  40.371  12.621
20260W        W85421   6.272  16.692   2.332
20261W        W85422  33.071   5.705  11.530
20262W        W85423  42.638   0.551   1.622
20263W        W85424   1.037  20.760  14.763
20264W        W85425  26.163   9.683   0.742
20265W        W85426  19.516   7.853  10.693
20266W        W85427  11.883  39.409   3.815
20267W        W85428  35.028  16.381  13.406
20268W        W85429  23.163  29.691   4.112
20269W        W85430  23.223  38.311   1.909
20270W        W85431  34.778  20.005   4.025
20271W        W85432   3.367   1.459  13.941
20272W        W85433   2.896  27.196   4.119
20273W        W85434   9.708  11.013  11.014
20274W        W85435  23.570   1.531   0.003
20275W        W85436  36.934  35.900  13.659
20276W        W85437  30.104   8.884   1.340
20277W        W85438  26.028  13.294   3.556
20278W        W85439  30.900  38.372   3.305
20279W        W85440  11.127  20.793  14.367
20280W        W85441  28.903  25.431   1.605
20281W        W85442  38.599  32.520   4.127
20282W        W85443  35.046  20.044  12.470
20283W        W85444  32.890   0.272   3.416
20284W        W85445   8.260  31.455   3.655
20285W        W85446   0.906  13.442   1.646
20286W        W85447  19.151   2.911  11.968
20287W        W85448  39.284   9.458   2.281
20288W        W85449  24.294  24.692  14.948
20289W        W85450   2.583   9.129   1.863
20290W        W85451  30.662   7.680  11.651
20291W        W85452  27.850  42.439  11.186
20292W        W85453  38.926   2.183  14.018
20293W        W85454  20.730  38.478  14.521
20294W        W85455  35.154  21.087  11.679
20295W        W85456  20.232  41.302  14.343
20296W        W85457  32.571   3.921   0.332
20297W        W85458   4.934  33.470   4.555
20298W        W85459  30.744  30.535   3.617
20299W        W85460  37.326   0.058  10.403
20300W        W85461  13.279  41.999   4.823
20301W        W85462  20.181  24.317  11.989
20302W        W85463   9.848   3.807   4.767
20303W        W85464  16.307  18.217  14.304
20304W        W85465   4.939  34.254   1.443
20305W        W85466  19.048  19.111   4.971
20306W        W85467  20.080  30.406  13.111
20307W        W85468  33.398  42.626   0.969
20308W        W85469  24.826  19.207  14.584
20309W        W85470  13.023   0.428   3.697
20310W        W85471  16.217  23.262   2.694
20311W        W85472   6.728   7.377   0.430
20312W        W85473  27.718   3.265   4.232
20313W        W85474   7.944  43.017  13.885
20314W        W85475   8.415  19.248  11.714
20315W        W85476   5.611  29.689   0.301
20316W        W85477   2.511  41.981   3.147
20317W        W85478   7.267  25.270  11.641
20318W        W85479  36.331  15.625   0.480
20319W        W85480   8.881  34.250  11.671
20320W        W85481  24.449  23.192  12.938
20321W        W85482  11.816  22.112   2.334
20322W        W85483  21.303  26.006  11.708
20323W        W85484  16.560  40.725  13.768
20324W        W85485  37.339  22.954   2.715
20325W        W85486  25.699  32.604  13.064
20326W        W85487  10.353   2.129  10.251
20327W        W85488  34.613  44.889   3.706
20328W        W85489  24.706  23.277   2.292
20329W        W85490  44.895  22.622   3.413
20330W        W85491  15.818  10.772  10.873
20331W        W85492  21.758  10.386   4.148
20332W        W85493  38.881  11.844   2.789
20333W        W85494  39.392   1.298   2.399
20334W        W85495  41.725  38.064  11.667
20335W        W85496  33.346  37.445   1.719
20336W        W85497   2.854   6.522  12.014
20337W        W85498  44.899  41.880   2.702
20338W        W85499  42.878  27.090  12.510
20339W        W85500  44.022  23.073   2.031
20340W        W85501  32.370  25.762   2.294
20341W        W85502  17.356   3.812  13.619
20342W        W85503  13.961  35.100  12.393
20343W        W85504  15.802  11.346   2.671
20344W        W85505  13.989  23.633  12.927
20345W        W85506  25.110  19.715   3.238
20346W        W85507  31.884  13.466   4.516
20347W        W85508  23.047  42.973   1.620
20348W        W85509  18.285   8.413  12.575
20349W        W85510  42.877  16.325   3.567
20350W        W85511  12.443  38.341  13.749
20351W        W85512  34.448  18.196   0.211
20352W        W85513  43.079  15.258  12.439
20353W        W85514  17.648  23.319  11.623
20354W        W85515  36.324   5.275   2.128
20355W        W85516  36.787   2.065   3.437
20356W        W85517  34.113  13.210   0.777
20357W        W85518  34.507   8.607  14.581
20358W        W85519   3.255  33.415   4.172
20359W        W85520   0.971   2.991  12.495
20360W        W85521  41.121  44.392   1.892
20361W        W85522  44.861  29.618  11.804
20362W        W85523  38.410   4.724  10.491
20363W        W85524  18.439   5.513  13.619
20364W        W85525   6.885   8.864  14.480
20365W        W85526   6.863  37.311  13.588
20366W        W85527  28.733  19.496  11.018
20367W        W85528  29.514  34.728   3.593
20368W        W85529  15.090   9.276  13.227
20369W        W85530  36.955  23.533  12.202
20370W        W85531  41.372  34.871  11.500
20371W        W85532  18.876   8.605  10.964
20372W        W85533  26.303   0.723  13.947
20373W        W85534  27.848  36.915   2.851
20374W        W85535  37.925  42.426  12.781
20375W        W85536  24.965  39.404   2.931
20376W        W85537   2.669   6.704  13.782
20377W        W85538   5.164   8.342  11.911
20378W        W85539   8.230  31.734  12.032
20379W        W85540   2.044  25.468   0.858
20380W        W85541  17.712  36.275   2.745
20381W        W85542   2.092  14.730   5.010
20382W        W85543  26.462   7.872   2.192
20383W        W85544   6.316  16.970  13.216
20384W        W85545  35.934  40.740  12.954
20385W        W85546   7.253  24.407  13.394
20386W        W85547  42.847  18.268   3.634
20387W        W85548  39.752  38.946  11.551
20388W        W85549  29.039   1.762   2.781
20389W        W85550   1.432  29.663  11.198
20390W        W85551   0.991  26.563   2.891
20391W        W85552  25.551  19.642  13.920
20392W        W85553  10.244  19.777  13.118
20393W        W85554  43.938  29.238  12.795
20394W        W85555  25.521   7.349   0.418
20395W        W85556  18.595   7.821  14.043
20396W        W85557  43.129  10.330  14.371
20397W        W85558  17.224  13.508  13.391
20398W        W85559  11.721  17.889   2.648
20399W        W85560   4.397  29.058  11.766
20400W        W85561  13.442   0.680  13.337
20401W        W85562   8.816  10.928  11.604
20402W        W85563  21.681  34.559   0.955
20403W        W85564  38.223  27.998  14.834
20404W        W85565  21.072   1.555   4.480
20405W        W85566   8.661  33.332  13.878
20406W        W85567   0.854  29.704  12.067
20407W        W85568  13.194   9.800  12.004
20408W        W85569  17.801  15.250  13.233
20409W        W85570  39.555  41.372   1.240
20410W        W85571  12.637  38.727   4.438
20411W        W85572  19.170  19.748   3.004
20412W        W85573  13.229  11.832   0.438
20413W        W85574  41.473  39.745  10.725
20414W        W85575   7.197  29.674  10.375
20415W        W85576  42.310  32.154  14.426
20416W        W85577   2.688  25.334  12.362
20417W        W85578  13.274  19.716  12.069
20418W        W85579  28.597  27.802  10.716
20419W        W85580  16.242  23.323   0.730
20420W        W85581  23.530  32.258   4.208
20421W        W85582  14.148  16.077  14.390
20422W        W85583   3.323   6.324   3.111
20423W        W85584   0.938   5.332  11.570
20424W        W85585  41.678   8.305  12.060
20425W        W85586  38.805  27.074   4.990
20426W        W85587  16.240  41.061  14.507
20427W        W85588  33.500  43.543   1.145
20428W        W85589  10.344  29.843  13.950
20429W        W85590   3.181  39.486  11.432
20430W        W85591  15.764  19.635   5.064
20431W        W85592   6.753  32.881   4.530
20432W        W85593  30.298   4.926  12.977
20433W        W85594  40.945  28.883   1.341
20434W        W85595   3.678  29.550  10.481
20435W        W85596  14.126  38.948   1.328
20436W        W85597  38.765  29.454   1.797
20437W        W85598  19.052   6.717   4.026
20438W        W85599   6.578  30.023   3.769
20439W        W85600  17.803  34.992   1.434
20440W        W85601   5.963  36.069  13.428
20441W        W85602  18.235   8.254  10.461
20442W        W85603  15.196  30.463  10.738
20443W        W85604  14.224   4.329   0.378
20444W        W85605  17.217  11.872  11.176
20445W        W85606  33.619   2.831  13.233
20446W        W85607  13.421  22.512  10.795
20447W        W85608  16.262  39.947   2.300
20448W        W85609  24.880  21.767  11.499
20449W        W85610  15.051  43.861  11.566
20450W        W85611  39.774  40.768  11.075
20451W        W85612  25.463  36.711  11.056
20452W        W85613   7.869  35.512  12.030
20453W        W85614  40.273  17.233   4.037
20454W        W85615  18.765   3.736   4.592
20455W        W85616  19.670  25.437  12.953
20456W        W85617   7.123   2.221  13.474
20457W        W85618  27.518  30.647  11.097
20458W        W85619   8.283  14.785  11.187
20459W        W85620  44.996  15.116   3.260
20460W        W85621  33.531  17.239  13.734
20461W        W85622  32.620  40.575   3.458
20462W        W85623  17.192   5.874  11.560
20463W        W85624   6.715   8.771  10.705
20464W        W85625  12.893  31.547   3.787
20465W        W85626  31.082   1.819   0.730
20466W        W85627   4.570  15.348  10.667
20467W        W85628  21.724  43.082   3.763
20468W        W85629  14.396  17.948  11.164
20469W        W85630  21.766   5.434   3.707
20470W        W85631  23.875   4.456   4.250
20471W        W85632  31.484  35.903  11.511
20472W        W85633  32.257  21.564   2.438
20473W        W85634  16.152  28.521  14.286
20474W        W85635   1.783  15.064  13.591
20475W        W85636  38.490  22.128   4.552
20476W        W85637  15.682  34.872  13.401
20477W        W85638  10.031  12.070  12.243
20478W        W85639  12.778   3.481  13.018
20479W        W85640  27.017  36.185   3.153
20480W        W85641  40.441  12.838   0.232
20481W        W85642  39.844  42.956  13.095
20482W        W85643  30.829  11.895   0.405
20483W        W85644  38.832  42.881  10.193
20484W        W85645  23.073  23.966   4.064
20485W        W85646  34.072   4.979  11.709
20486W        W85647  26.687  26.465   2.904
20487W        W85648  41.182  43.540  12.584
20488W        W85649  34.551  23.083   1.166
20489W        W85650   6.831  20.529  10.523
20490W        W85651  20.151  20.039   0.817
20491W        W85652  18.805   3.712   2.743
20492W        W85653  23.542  32.647   4.545
20493W        W85654  11.268  29.705   3.613
20494W        W85655   3.352  42.175   3.099
20495W        W85656  28.034   5.764  13.130
20496W        W85657   2.458  29.236  13.589
20497W        W85658  39.364  41.959  14.551
20498W        W85659  28.510  25.112   1.047
20499W        W85660  33.420  17.744  11.146
20500W        W85661  39.938  25.551  14.561
20501W        W85662  22.756   0.544   0.569
20502W        W85663  31.603  40.783   4.392
20503W        W85664  17.771   6.616  14.033
20504W        W85665   2.241   8.170   2.856
20505W        W85666   7.228  21.673  14.193
20506W        W85667  23.240  24.784   3.695
20507W        W85668   3.114  10.840   2.586
20508W        W85669  17.775  43.881   4.168
20509W        W85670  22.284  36.416   4.908
20510W        W85671  11.737  13.765   3.875
20511W        W85672  42.971  43.460   4.509
20512W        W85673  34.568  36.143  12.472
20513W        W85674  18.562   3.728   0.724
20514W        W85675  38.496  12.199  11.402
20515W        W85676  34.705  33.020  11.651
20516W        W85677  14.150  19.069  13.434
20517W        W85678  34.868  23.035  14.421
20518W        W85679  36.398  42.543  13.900
20519W        W85680  42.514   6.398  10.874
20520W        W85681  14.895  27.648  11.731
20521W        W85682  13.272  21.385   0.436
20522W        W85683   5.912  43.046  13.614
20523W        W85684  11.730  25.926   2.838
20524W        W85685  40.979  20.603   4.626
20525W        W85686  27.337   4.479   0.372
20526W        W85687  13.414   0.911  11.167
20527W        W85688  29.655  33.583   0.245
20528W        W85689   0.370   5.168   4.078
20529W        W85690  10.662   0.566  13.326
20530W        W85691   4.169  28.649   0.942
20531W        W85692  22.991  29.467   3.280
20532W        W85693  32.339   9.823   2.556
20533W        W85694  39.940  22.538   1.746
20534W        W85695  18.557  36.910   0.012
20535W        W85696  12.402  39.375  12.929
20536W        W85697  34.214  13.708   2.890
20537W        W85698  35.781   4.405   4.260
20538W        W85699  18.757  19.026   2.346
20539W        W85700  40.380   8.643   0.480
20540W        W85701  40.324   0.341   0.468
20541W        W85702   1.516   0.476   3.135
20542W        W85703  13.549  20.129   1.175
20543W        W85704  44.251   1.971   1.250
20544W        W85705  26.594  39.189  11.175
20545W        W85706   0.418   4.789   3.115
20546W        W85707   4.748   8.562  12.629
20547W        W85708  19.887  20.114   4.554
20548W        W85709  31.318  22.544   1.809
20549W        W85710  36.558  44.272  13.642
20550W        W85711  41.005  41.244  11.031
20551W        W85712  24.197   8.287   1.151
20552W        W85713   7.893  42.279  11.207
20553W        W85714  43.250  41.321   0.025
20554W        W85715  23.170  22.158   0.849
20555W        W85716  36.353  41.350  12.433
20556W        W85717  14.783  34.900   1.295
20557W        W85718  25.102  21.133  10.742
20558W        W85719  43.319  39.262   3.688
20559W        W85720  15.785   8.082  14.490
20560W        W85721  17.334  42.406   0.398
20561W        W85722  26.318  31.290  10.860
20562W        W85723  19.067  31.549   1.581
20563W        W85724  15.136  41.809   2.802
20564W        W85725  44.277   1.797  13.614
20565W        W85726  41.196   3.205   4.104
20566W        W85727   4.484  19.792   0.065
20567W        W85728   2.013  28.249  11.545
20568W        W85729  36.463  29.024   0.849
20569W        W85730   7.918   0.693  10.267
20570W        W85731   6.191  38.396   2.765
20571W        W85732  13.740  36.000  11.614
20572W        W85733  17.826  43.364   3.577
20573W        W85734  19.713  32.626  12.955
20574W        W85735  21.555  40.600   4.070
20575W        W85736   5.798  11.119  12.313
20576W        W85737   3.359  11.275   0.054
20577W        W85738  23.967  32.121  13.902
20578W        W85739  40.859  36.945  10.779
20579W        W85740  11.302   3.850  12.454
20580W        W85741  43.498  32.945   0.452
20581W        W85742   7.200  42.769  12.661
20582W        W85743   0.813   5.805   4.628
20583W        W85744  38.907  41.034   1.869
20584W        W85745  39.374   2.356   2.056
20585W        W85746  25.806  41.525   0.051
20586W        W85747   8.589   9.500   0.859
20587W        W85748  39.546  42.516   2.268
20588W        W85749  17.507  36.885  12.841
20589W        W85750  10.835  21.989   2.618
20590W        W85751  11.586  18.733  12.899
20591W        W85752  10.122  32.945   2.753
20592W        W85753  26.603   4.256  13.570
20593W        W85754  30.442   7.824   1.006
20594W        W85755  36.323  12.977   0.776
20595W        W85756   0.943  17.842  11.066
20596W        W85757  15.878  41.106  13.009
20597W        W85758   1.338   3.913  11.578
20598W        W85759   4.182  44.544  13.604
20599W        W85760   6.719   7.196  14.892
20600W        W85761  43.539  32.976   3.810
20601W        W85762  13.536  27.984   1.248
20602W        W85763  24.971  10.160   4.009
20603W        W85764  12.252  13.741   1.799
20604W        W85765  13.867  40.391   0.420
20605W        W85766   8.694  20.522  13.835
20606W        W85767  20.987  18.709   1.909
20607W        W85768  43.521  22.984  14.891
20608W        W85769   6.387  24.535  10.637
20609W        W85770  20.374   6.767   1.877
20610W        W85771  30.237  29.169  12.415
20611W        W85772   7.891   6.573   4.985
20612W        W85773  23.986  11.271   3.948
20613W        W85774  16.081  12.577  10.426
20614W        W85775   6.374   0.816   3.731
20615W        W85776  21.212   2.357  11.173
20616W        W85777   9.863  32.900   2.321
20617W        W85778   9.075  24.762  12.443
20618W        W85779  39.920  17.304  10.938
20619W        W85780  15.294  15.707  11.110
20620W        W85781  44.309   3.301   4.715
20621W        W85782  38.337   4.360  14.429
20622W        W85783  43.581  33.894   3.722
20623W        W85784   9.870  21.772   0.773
20624W        W85785  22.669  27.219  11.837
20625W        W85786  32.493  18.055  12.430
20626W        W85787   4.417  31.238   2.394
20627W        W85788  33.664  44.855   4.667
20628W        W85789   5.627   9.226   3.198
20629W        W85790  20.078  18.342   5.167
20630W        W85791  43.756  24.984  12.572
20631W        W85792  35.841  21.330  12.236
20632W        W85793  34.371   6.409  12.619
20633W        W85794  30.204  35.392  10.818
20634W        W85795  32.129  42.978   0.001
20635W        W85796  27.696  41.942  11.224
20636W        W85797  26.804  27.024   3.547
20637W        W85798  33.624  41.798  10.258
20638W        W85799  41.718  20.789  12.943
20639W        W85800  32.142  19.465  12.978
20640W        W85801  40.810  44.745   2.848
20641W        W85802   3.236  30.043   2.275
20642W        W85803  35.056  30.268  11.190
20643W        W85804  11.678  21.521  12.687
20644W        W85805   1.336  24.918  13.381
20645W        W85806   6.419  36.632  10.056
20646W        W85807  25.762   7.747  11.589
20647W        W85808  41.934   5.135  14.471
20648W        W85809  10.157   2.188   0.492
20649W        W85810  39.404   8.411   2.417
20650W        W85811  23.471  31.993  13.101
20651W        W85812  12.250   2.036   3.157
20652W        W85813   4.331  38.916  11.685
20653W        W85814   2.663  41.578   0.497
20654W        W85815   8.345   5.211  14.489
20655W        W85816  37.973  37.261   4.911
20656W        W85817  37.503  27.081   0.265
20657W        W85818  19.090   3.463   0.063
20658W        W85819  40.326  22.435  14.349
20659W        W85820  21.561  44.126  14.463
20660W        W85821  37.216   0.247   1.835
20661W        W85822  19.065  33.771   1.680
20662W        W85823   5.177   7.242  12.072
20663W        W85824  35.124  22.703  13.485
20664W        W85825  23.645  31.196  12.621
20665W        W85826  33.418  21.634  10.403
20666W        W85827  34.055  13.072  12.396
20667W        W85828   9.491  38.976  14.753
20668W        W85829   0.615  37.112   0.859
20669W        W85830   1.991  33.751  12.861
20670W        W85831  29.459  42.911   2.172
20671W        W85832  38.751  25.498   2.357
20672W        W85833  17.008  39.871   2.774
20673W        W85834  16.511  13.842   2.393
20674W        W85835  21.031  34.073  14.530
20675W        W85836   7.340  16.193   1.741
20676W        W85837  24.411  35.329   5.110
20677W        W85838   4.900  18.723  14.356
20678W        W85839   1.833  11.112  14.307
20679W        W85840   1.577  17.639   3.686
20680W        W85841  39.495  41.219  11.050
20681W        W85842  17.581  38.411  14.534
20682W        W85843  43.076  28.489   4.210
20683W        W85844  26.188  25.177  10.733
20684W        W85845   8.145  10.328   1.525
20685W        W85846  21.348   1.324   0.297
20686W        W85847  26.273  12.921   4.197
20687W        W85848  11.080  35.454   3.671
20688W        W85849  30.630  40.269   4.154
20689W        W85850  11.219  20.341   1.270
20690W        W85851  26.004  43.407   5.584
20691W        W85852   1.919   4.343   4.193
20692W        W85853  17.723  16.120   0.687
20693W        W85854  31.507   7.491  14.468
20694W        W85855  43.778  34.375   2.481
20695W        W85856  17.708  44.317   0.912
20696W        W85857  38.015  35.972   0.495
20697W        W85858  20.305  33.023   3.339
20698W        W85859  11.082  17.211   2.655
20699W        W85860  15.914  24.008  13.797
20700W        W85861  20.962  16.540   3.666
20701W        W85862  14.456   7.669  12.294
20702W        W85863  18.382  13.742   3.604
20703W        W85864  29.553  33.349  11.942
20704W        W85865  13.024  28.112   1.300
20705W        W85866  22.119  40.614  11.125
20706W        W85867  42.389   3.018  12.660
20707W        W85868  18.144  11.755  13.068
20708W        W85869  27.149  21.572   1.907
20709W        W85870   9.853  29.577  13.490
20710W        W85871  41.013  15.110   2.263
20711W        W85872  43.966  40.429   2.228
20712W        W85873   9.124  32.630   1.927
20713W        W85874  34.982   6.072  10.701
20714W        W85875  27.376  25.051  11.049
20715W        W85876  16.296  19.774   4.150
20716W        W85877   3.467  31.020  10.691
20717W        W85878  34.466  34.774   3.301
20718W        W85879  35.383  26.391  13.042
20719W        W85880  44.888  37.146   0.308
20720W        W85881  40.200  20.069  13.384
20721W        W85882  36.833  39.447  13.967
20722W        W85883  43.971  22.507   2.502
20723W        W85884  34.192  30.757  12.066
20724W        W85885  44.532  18.572  11.984
20725W        W85886   0.663  20.175   3.698
20726W        W85887  23.373  43.280   0.979
20727W        W85888  19.260  34.087  13.982
20728W        W85889  29.233   8.276   4.585
20729W        W85890   5.094  27.811   3.831
20730W        W85891  18.562  36.613   2.272
20731W        W85892  13.813  42.871   3.374
20732W        W85893  35.201   4.614   1.591
20733W        W85894   9.031   1.586  14.440
20734W        W85895  43.333  15.513  11.163
20735W        W85896  21.555  35.615   3.742
20736W        W85897  30.066  26.103  13.854
20737W        W85898  27.861  33.990   2.416
20738W        W85899  18.342  30.886   3.165
20739W        W85900  18.969  17.590   5.020
20740W        W85901  13.878   8.434   2.932
20741W        W85902   8.447  23.204  12.466
20742W        W85903  16.344  23.159   1.208
20743W        W85904   9.953  14.231   0.494
20744W        W85905   1.515   8.106  11.528
20745W        W85906  14.251  24.949   3.099
20746W        W85907  29.829  30.409  11.419
20747W        W85908   3.390  21.655   3.819
20748W        W85909   6.874  10.284   4.675
20749W        W85910  16.676  44.930  10.309
20750W        W85911   5.674  12.331  12.897
20751W        W85912  25.906  26.598  14.927
20752W        W85913  11.403  27.816   3.153
20753W        W85914  32.496   9.675   4.520
20754W        W85915  16.791  43.436   2.689
20755W        W85916   4.164   9.323  12.952
20756W        W85917   8.967  23.655   4.584
20757W        W85918  42.474  34.406  12.363
20758W        W85919  11.794  22.153   0.495
20759W        W85920  41.440  27.091   3.813
20760W        W85921  36.490  27.056   4.761
20761W        W85922   6.324  16.944   0.472
20762W        W85923   0.885   5.910   4.111
20763W        W85924  30.345  25.568   2.430
20764W        W85925   1.216  26.904  12.425
20765W        W85926   2.655   4.347  12.402
20766W        W85927  27.133  26.707  14.917
20767W        W85928  22.282  16.623   1.734
20768W        W85929  37.459  29.214   0.753
20769W        W85930   7.911  33.331  11.870
20770W        W85931  11.179  30.977  11.479
20771W        W85932  30.366  16.155   0.656
20772W        W85933  35.912   1.345   4.122
20773W        W85934  29.042   3.717   2.119
20774W        W85935   5.431  16.241   1.539
20775W        W85936  23.116   4.159  12.353
20776W        W85937  20.189  34.860   1.837
20777W        W85938  34.114  36.113   0.349
20778W        W85939  16.609  34.776   3.781
20779W        W85940   4.269  16.558  11.840
20780W        W85941  38.556   0.556   3.484
20781W        W85942  13.858  23.091  14.044
20782W        W85943  27.629   8.961   0.789
20783W        W85944  36.013  19.098  11.891
20784W        W85945  25.479  10.087   2.311
20785W        W85946  34.424   9.408  14.211
20786W        W85947  18.069   2.438   0.797
20787W        W85948   5.853  28.683   0.271
20788W        W85949   7.296  28.956   1.222
20789W        W85950  38.086   6.828   4.565
20790W        W85951  39.064  25.860  14.605
20791W        W85952  18.358  11.199  11.169
20792W        W85953  34.063  20.860  13.914
20793W        W85954  25.251  14.838  12.638
20794W        W85955  37.457  22.446  11.728
20795W        W85956  25.712  43.465   4.561
20796W        W85957   7.799  12.341   1.384
20797W        W85958  18.776  25.534   0.810
20798W        W85959  20.064  42.353   1.257
20799W        W85960   2.733  19.962  14.739
20800W        W85961   5.627  33.122  12.039
20801W        W85962   2.221   7.498   3.661
20802W        W85963  33.600  25.157  13.379
20803W        W85964  15.328   2.901   1.527
20804W        W85965  15.885  44.011   0.333
20805W        W85966  37.102  11.393   0.427
20806W        W85967  21.527  25.174   0.805
20807W        W85968   3.248   6.322   3.611
20808W        W85969  26.016  16.745   0.871
20809W        W85970  10.539  20.531   0.091
20810W        W85971   1.873  16.062   2.736
20811W        W85972  33.862   1.515  14.360
20812W        W85973   8.602   4.971   3.167
20813W        W85974  31.041  20.296  13.040
20814W        W85975   9.628  19.208   0.481
20815W        W85976  31.562  13.865   4.620
20816W        W85977  23.505  42.262   0.775
20817W        W85978   4.651  31.658  14.450
20818W        W85979  43.774  35.129   2.044
20819W        W85980  37.849  24.992  12.975
20820W        W85981   5.703  31.512  10.177
20821W        W85982  11.387   9.965   4.175
20822W        W85983  28.694  22.688  13.781
20823W        W85984  23.274  42.971  13.839
20824W        W85985  38.597  38.973   3.634
20825W        W85986  30.819  30.635  11.725
20826W        W85987  20.162   9.429  14.277
20827W        W85988   0.107  42.542   0.003
20828W        W85989  16.889  28.042   4.098
20829W        W85990  23.706   4.653  14.435
20830W        W85991  32.413  32.195  13.063
20831W        W85992   9.086   3.178  12.807
20832W        W85993  43.363  26.781   9.979
20833W        W85994  20.803  21.735   2.339
20834W        W85995  11.139  15.782   2.606
20835W        W85996  42.023   2.212  14.940
20836W        W85997  18.654  31.612  11.964
20837W        W85998   3.294  38.271  11.532
20838W        W85999  22.931  11.147  13.947
20839W        W86000  34.283  43.946   3.661
20840W        W86001  30.499  33.584  10.616
20841W        W86002   9.597  33.049  14.808
20842W        W86003   6.940  44.456  13.708
20843W        W86004  16.819   0.735   1.734
20844W        W86005   2.956  39.912   2.693
20845W        W86006   4.789  14.295  14.057
20846W        W86007  39.985  34.731   4.423
20847W        W86008   9.744  32.971  11.713
20848W        W86009  33.526  11.549   5.225
20849W        W86010  21.742  19.078   4.727
20850W        W86011   8.905  40.085   3.153
20851W        W86012  29.201   7.224   3.771
20852W        W86013  28.030  11.211   1.613
20853W        W86014   6.189  38.093  11.576
20854W        W86015  39.577  20.966   0.579
20855W        W86016  13.429  14.748  12.565
20856W        W86017  37.249  15.178   2.776
20857W        W86018  16.116  23.653  12.400
20858W        W86019  42.011  38.454  13.592
20859W        W86020   0.953  10.102   5.031
20860W        W86021  11.195  26.159  10.745
20861W        W86022  23.036  11.437  14.387
20862W        W86023  32.927  26.771  11.522
20863W        W86024  43.647   2.382   0.764
20864W        W86025  27.055  41.437  11.124
20865W        W86026   1.396  19.550  14.300
20866W        W86027  14.484  33.499   2.631
20867W        W86028   1.442  36.913  10.368
20868W        W86029   4.592  44.287   1.339
20869W        W86030  27.179  15.604  12.112
20870W        W86031  25.961  18.537  12.905
20871W        W86032   5.381  36.464  11.384
20872W        W86033  44.931  27.401  14.190
20873W        W86034   6.483  13.518   0.760
20874W        W86035   1.314   8.145   2.608
20875W        W86036  16.318   5.373   2.791
20876W        W86037  43.987  10.991  12.396
20877W        W86038  34.661  20.205   2.296
20878W        W86039  41.033   6.850   4.355
20879W        W86040  23.591  28.918   4.365
20880W        W86041  42.449  37.335  12.050
20881W        W86042  24.149  22.584  12.368
20882W        W86043   9.665  25.735   1.433
20883W        W86044  36.497  11.314  14.931
20884W        W86045  20.131  41.763   4.691
20885W        W86046  22.193  19.285   4.596
20886W        W86047   4.808   0.104  13.476
20887W        W86048  10.819   5.910   2.685
20888W        W86049  33.427  20.111   1.895
20889W        W86050  44.506   6.271  10.970
20890W        W86051   0.246   8.248  11.647
20891W        W86052  32.102  27.837  13.132
20892W        W86053   3.224   0.899  12.535
20893W        W86054  30.752  18.312  11.461
20894W        W86055   0.783  29.435   4.292
20895W        W86056  40.641  44.006   0.866
20896W        W86057  23.034   3.788  13.523
20897W        W86058  38.647  22.855   1.854
20898W        W86059   5.428  37.330  10.912
20899W        W86060  34.336  29.987  11.781
20900W        W86061  43.070  32.660  14.320
20901W        W86062  29.494  12.220   2.704
20902W        W86063  24.025  27.201   0.425
20903W        W86064  23.598  39.878  12.029
20904W        W86065  39.757   7.103   2.311
20905W        W86066  26.617   3.229   4.091
20906W        W86067  28.146   6.214   3.185
20907W        W86068  18.154  15.342   1.267
20908W        W86069  27.008   1.955   1.478
20909W        W86070  13.363  36.456  11.155
20910W        W86071  30.524  27.675   9.435
20911W        W86072  25.512  35.041   3.194
20912W        W86073  24.749  23.972   0.459
20913W        W86074  34.345  25.560   2.721
20914W        W86075  23.441  41.452  14.545
20915W        W86076   6.798   4.389  13.129
20916W        W86077  13.029   2.213  14.435
20917W        W86078   2.539   7.132  14.407
20918W        W86079  12.364  28.043  14.520
20919W        W86080  10.798   7.523   1.328
20920W        W86081  27.470  17.758  13.196
20921W        W86082  10.937  10.763   1.671
20922W        W86083   2.537   0.243   1.809
20923W        W86084  33.083  29.193  11.602
20924W        W86085  40.209  19.177   2.011
20925W        W86086  12.089  33.580  11.547
20926W        W86087  22.417  30.212  10.266
20927W        W86088  13.600   7.214  14.737
20928W        W86089  14.685  26.901   4.140
20929W        W86090  11.764   4.593   1.272
20930W        W86091   6.912  33.696  12.041
20931W        W86092  35.893  29.892   2.776
20932W        W86093  24.698  37.301   3.194
20933W        W86094  17.051  18.432  13.660
20934W        W86095  40.779  25.153  12.135
20935W        W86096   5.408  41.003   3.222
20936W        W86097   4.397  19.581   1.553
20937W        W86098  31.093  28.256   2.730
20938W        W86099  15.154  11.073  13.371
20939W        W86100  33.483   3.166   1.228
20940W        W86101  37.046  37.123   2.241
20941W        W86102  30.706   9.844   3.695
20942W        W86103  22.640  11.914  14.081
20943W        W86104  29.521   5.682   3.625
20944W        W86105  21.114  29.979   1.527
20945W        W86106  36.588  17.809   0.036
20946W        W86107  33.171  14.564   4.290
20947W        W86108  17.051  15.145   2.817
20948W        W86109  12.360  38.532   4.883
20949W        W86110  40.795  10.701   0.867
20950W        W86111  42.938   7.939  11.958
20951W        W86112  42.953   0.581   2.349
20952W        W86113   9.831  23.252   0.202
20953W        W86114  41.240  36.595  11.910
20954W        W86115  40.524  20.921  12.438
20955W        W86116   0.424  36.317   3.150
20956W        W86117  24.769  44.771   1.124
20957W        W86118   2.289  43.448  13.898
20958W        W86119  33.014   5.472  13.309
20959W        W86120   8.986   6.608  14.592
20960W        W86121  26.656  17.039  13.339
20961W        W86122  35.141   7.255   0.921
20962W        W86123  40.411  11.198  11.270
20963W        W86124  15.874  43.909  13.393
20964W        W86125  43.781   4.596  13.484
20965W        W86126  33.582  10.201  12.481
20966W        W86127  28.040  25.136   3.306
20967W        W86128  31.175  34.474   2.369
20968W        W86129  36.040  11.133  14.775
20969W        W86130  31.868   1.360  12.955
20970W        W86131  40.847  22.210  14.961
20971W        W86132  42.770  17.075  13.967
20972W        W86133   9.808   0.340  14.616
20973W        W86134  39.565  24.825  13.502
20974W        W86135  21.672  13.088   2.674
20975W        W86136   1.666   2.502   1.786
20976W        W86137  17.821  34.391  12.389
20977W        W86138  37.694  37.979  11.462
20978W        W86139  27.556   7.273   1.716
20979W        W86140   2.083   8.050   4.499
20980W        W86141   5.374  34.938   0.877
20981W        W86142  11.484  24.114  14.461
20982W        W86143  36.564  28.076  14.353
20983W        W86144   6.222  28.597   2.294
20984W        W86145  33.512  30.157   2.297
20985W        W86146  25.537  19.766   0.320
20986W        W86147  10.547   6.576   2.181
20987W        W86148  20.562   7.223   1.718
20988W        W86149  32.505  41.005   1.270
20989W        W86150  22.145  28.690  11.095
20990W        W86151  37.961  23.378  13.415
20991W        W86152  34.920  44.749  11.007
20992W        W86153   8.594  26.898  13.030
20993W        W86154  21.462  39.474  14.441
20994W        W86155   7.606  21.411   0.704
20995W        W86156  25.495  27.460   4.035
20996W        W86157  10.334  24.458  10.617
20997W        W86158  26.224  36.438   4.642
20998W        W86159   7.421  19.871  11.812
20999W        W86160   3.416  14.131  13.605
21000W        W86161  10.104  28.168  12.424
21001W        W86162  21.035  36.028   4.614
21002W        W86163  15.802  17.727   0.341
21003W        W86164  34.148  42.773   4.053
21004W        W86165  15.391   9.852  11.212
21005W        W86166  15.636  26.199  11.571
21006W        W86167   7.187   9.954  13.628
21007W        W86168   6.378  34.037  14.526
21008W        W86169  26.030  18.071  12.021
21009W        W86170  11.882  22.964  11.945
21010W        W86171   9.622  42.849  14.058
21011W        W86172  19.140  23.255   1.867
21012W        W86173  11.648  21.575   3.745
21013W        W86174   7.313  14.761  12.657
21014W        W86175  28.736   1.567  13.306
21015W        W86176  39.625  16.800  11.000
21016W        W86177   9.970   5.826   2.877
21017W        W86178  25.505  13.701  13.904
21018W        W86179  27.969  14.300   2.778
21019W        W86180  12.466  10.714   0.831
21020W        W86181  36.441   8.852   1.804
21021W        W86182  25.600   8.728   4.386
21022W        W86183  20.635   5.843   3.657
21023W        W86184  27.512   7.358  13.474
21024W        W86185  15.539  21.191   1.673
21025W        W86186  35.404  16.246   4.100
21026W        W86187  12.097  26.106   0.430
21027W        W86188   4.401  22.250  12.967
21028W        W86189  33.972  34.005  13.311
21029W        W86190  33.539   8.129  11.541
21030W        W86191  27.863  17.901   3.870
21031W        W86192   4.769   3.912  13.288
21032W        W86193   5.342  31.313   4.563
21033W        W86194  21.727  35.025  11.184
21034W        W86195  11.236  31.275   0.907
21035W        W86196   8.163  44.494   2.303
21036W        W86197  11.394  16.212  14.951
21037W        W86198  39.336  29.511  11.577
21038W        W86199  18.162   1.924   1.718
21039W        W86200  42.489  41.989   2.862
21040W        W86201   1.831  14.973   1.417
21041W        W86202  22.192  43.751   4.682
21042W        W86203  18.017  10.113   0.325
21043W        W86204  42.233  11.618   1.461
21044W        W86205  13.271   3.799  12.316
21045W        W86206  22.734  15.849  10.405
21046W        W86207  28.452   2.798  14.784
21047W        W86208  24.780  23.886   3.708
21048W        W86209  26.479  43.766  11.173
21049W        W86210  19.720  20.315   0.758
21050W        W86211  14.659  15.389   2.197
21051W        W86212  38.621  44.278   0.731
21052W        W86213  37.359  23.446   1.299
21053W        W86214   5.864  13.735   1.717
21054W        W86215  20.262   5.814   4.602
21055W        W86216  15.141   3.360   0.953
21056W        W86217   2.125  40.371  14.817
21057W        W86218  44.736   1.923   3.677
21058W        W86219  31.038  24.065  13.366
21059W        W86220   6.216   6.161   3.494
21060W        W86221  39.769  16.798   3.575
21061W        W86222  21.020  20.282  14.428
21062W        W86223   5.755   3.867   3.058
21063W        W86224  14.958  40.914  11.767
21064W        W86225   8.876   0.839   3.178
21065W        W86226   5.845  41.479   3.345
21066W        W86227  13.011   0.897   1.355
21067W        W86228  41.164  38.131   1.805
21068W        W86229   9.911  18.875   0.786
21069W        W86230  20.520  17.856  12.966
21070W        W86231   5.798  23.689  14.527
21071W        W86232  33.936  40.033  12.531
21072W        W86233  35.469  43.351   0.032
21073W        W86234  41.878  32.240   5.098
21074W        W86235  30.427  13.370   2.734
21075W        W86236  31.087  26.771   1.407
21076W        W86237  17.198  18.207   2.213
21077W        W86238   9.869   6.777  14.936
21078W        W86239   9.861   9.268   3.573
21079W        W86240  24.985   6.836  10.822
21080W        W86241   8.424  36.213   1.940
21081W        W86242  36.433  36.813   4.529
21082W        W86243   7.062  10.881   2.686
21083W        W86244  20.127  19.108  10.133
21084W        W86245   5.706  43.434  13.336
21085W        W86246  40.119  29.385  12.998
21086W        W86247   6.027  22.504  12.983
21087W        W86248  26.956  22.537  14.857
21088W        W86249   2.853  26.173  10.248
21089W        W86250  31.881   0.780  11.389
21090W        W86251  29.165   9.261   2.919
21091W        W86252  37.693  28.742   3.666
21092W        W86253  35.086  21.758   4.717
21093W        W86254  42.458  11.355   2.481
21094W        W86255   4.057   2.782   4.068
21095W        W86256   9.872  29.348   3.425
21096W        W86257  15.145  39.306  14.076
21097W        W86258  39.929  19.114   4.287
21098W        W86259  19.302  36.121  12.543
21099W        W86260  13.749  42.012   4.098
21100W        W86261  21.105  18.691   0.321
21101W        W86262  36.596  16.171   2.798
21102W        W86263  15.806  21.228  12.824
21103W        W86264  23.520  43.775   2.742
21104W        W86265   1.247  38.908  14.736
21105W        W86266  29.677  18.490   2.174
21106W        W86267  25.645  40.965   1.213
21107W        W86268  16.590  30.628  11.119
21108W        W86269   4.406  35.985   0.186
21109W        W86270  10.351   4.766  10.633
21110W        W86271   1.405  18.653  14.528
21111W        W86272  34.023  30.389   2.380
21112W        W86273   5.132  32.229   1.911
21113W        W86274  19.152  32.663  14.244
21114W        W86275  20.822   7.349   2.669
21115W        W86276  14.737  12.850  10.653
21116W        W86277   4.272  17.123  13.552
21117W        W86278  16.373  43.597  14.474
21118W        W86279  11.678  13.131   4.353
21119W        W86280  27.433  15.449   0.668
21120W        W86281   1.422  39.812   1.850
21121W        W86282  10.848   6.719  14.899
21122W        W86283  39.227  11.711   0.858
21123W        W86284  12.743  28.640   2.179
21124W        W86285  30.124  35.185  13.571
21125W        W86286  41.507  35.352  10.733
21126W        W86287  24.595  30.531   1.451
21127W        W86288  32.502  37.269   2.685
21128W        W86289   5.105  17.888  14.965
21129W        W86290  37.189   1.499   4.584
21130W        W86291   8.762  12.267  13.037
21131W        W86292   7.734   0.504   4.743
21132W        W86293  43.928  10.706  11.400
21133W        W86294   4.306  20.944   1.768
21134W        W86295  42.294   4.052   4.094
21135W        W86296  13.142  43.828  12.082
21136W        W86297  28.452  44.472   1.969
21137W        W86298  15.603  44.757   3.166
21138W        W86299  34.462  13.332  12.588
21139W        W86300  24.863  30.602   2.073
21140W        W86301  38.202  30.068  13.776
21141W        W86302  29.203  24.665   4.588
21142W        W86303  35.277  11.389  11.622
21143W        W86304  13.212   0.516  12.893
21144W        W86305  42.473  35.503  10.623
21145W        W86306  11.524  13.688   2.596
21146W        W86307   8.763  42.078   4.189
21147W        W86308  34.573  16.274   0.330
21148W        W86309   8.847  14.423   4.030
21149W        W86310   8.793  22.829   1.452
21150W        W86311  35.414   9.176   2.143
21151W        W86312   4.757  23.471   0.494
21152W        W86313  11.771  22.711  14.569
21153W        W86314  39.520  34.604  13.436
21154W        W86315   2.810  36.525   3.291
21155W        W86316  11.589   7.752  12.179
21156W        W86317  26.731  26.682   5.004
21157W        W86318  42.009  11.819   2.167
21158W        W86319  39.782  32.436  12.317
21159W        W86320  33.701  44.324  11.189
21160W        W86321  41.479  29.441   4.369
21161W        W86322   5.463  24.988   0.215
21162W        W86323  31.963  27.581  11.060
21163W        W86324   5.684  21.653   0.605
21164W        W86325   4.856  43.002  11.932
21165W        W86326   2.432  19.545   2.784
21166W        W86327  17.751  39.066  13.361
21167W        W86328  29.011   5.361  12.867
21168W        W86329  42.471  41.527  10.997
21169W        W86330   0.385  21.008   4.187
21170W        W86331  37.512  16.530   1.230
21171W        W86332   7.587  31.123   1.648
21172W        W86333   0.156  11.293  13.853
21173W        W86334  42.320  12.213  12.045
21174W        W86335  26.615  26.159  13.829
21175W        W86336  11.421   3.258  13.513
21176W        W86337   7.197  12.140   3.258
21177W        W86338  43.306  18.310  14.424
21178W        W86339  39.368  17.313   1.754
21179W        W86340  11.322  27.627   4.722
21180W        W86341  32.504   5.746   4.326
21181W        W86342  36.419  10.486   2.319
21182W        W86343  42.352  16.580  12.757
21183W        W86344  32.050  39.035   0.707
21184W        W86345  13.282  12.653  12.431
21185W        W86346  13.649  42.761  11.512
21186W        W86347  21.549   7.394  13.023
21187W        W86348  34.472  22.683  11.243
21188W        W86349  17.234  15.366  12.051
21189W        W86350  40.789  41.097  13.384
21190W        W86351  38.456  23.603   3.100
21191W        W86352  32.980  21.478   1.745
21192W        W86353  43.415   0.262  12.498
21193W        W86354  12.572  16.039  14.235
21194W        W86355  10.157  44.451  14.869
21195W        W86356  26.691   2.971  13.798
21196W        W86357   9.748  11.652   1.762
21197W        W86358  44.809  21.509  10.319
21198W        W86359  17.649  36.985   4.688
21199W        W86360  41.362   2.072  14.410
21200W        W86361   6.980  10.621   0.777
21201W        W86362  33.346  15.146   0.938
21202W        W86363  33.959   3.963   0.354
21203W        W86364   3.349  18.991  10.864
21204W        W86365  25.323  22.427   1.491
21205W        W86366  11.406  42.034   2.283
21206W        W86367   1.282  25.187   3.855
21207W        W86368  22.255  10.755  13.083
21208W        W86369  27.590  20.497  13.758
21209W        W86370  35.412  22.577  10.824
21210W        W86371  43.531  44.226   2.125
21211W        W86372  34.816  37.897   1.835
21212W        W86373  11.714   6.398  12.616
21213W        W86374  39.255  39.671   1.847
21214W        W86375   8.687   6.395  13.560
21215W        W86376   9.318  23.546  13.019
21216W        W86377  14.780  35.612   1.902
21217W        W86378  23.740   2.858   3.284
21218W        W86379  14.107  26.898  12.997
21219W        W86380  37.476  26.454   4.670
21220W        W86381  29.932  13.690  14.842
21221W        W86382  33.393  15.871   1.390
21222W        W86383  13.306  33.234  14.369
21223W        W86384   4.445   1.947  13.209
21224W        W86385  41.119  41.657  12.693
21225W        W86386   9.793   2.182  14.693
21226W        W86387  44.497  36.971   4.966
21227W        W86388  44.042   2.812  13.423
21228W        W86389  42.737   2.719  14.774
21229W        W86390  20.181  44.920   0.476
21230W        W86391  42.702  27.736  12.031
21231W        W86392   7.731  25.165   0.836
21232W        W86393   4.000  43.486  14.093
21233W        W86394  41.786  28.481   1.949
21234W        W86395  30.989  41.128  10.481
21235W        W86396  10.925  28.974  12.074
21236W        W86397  25.706  20.230   4.520
21237W        W86398   3.324  32.858   4.935
21238W        W86399  39.014   0.695   0.729
21239W        W86400  44.917  17.784  11.883
21240W        W86401  25.122  13.003   3.727
21241W        W86402  40.415  13.649  12.965
21242W        W86403  41.923  31.064  11.145
21243W        W86404  41.334   3.400  11.780
21244W        W86405   0.735  17.547   1.296
21245W        W86406   9.243   8.157  13.561
21246W        W86407  41.891  11.795   4.076
21247W        W86408  23.833  39.505  10.358
21248W        W86409  18.456  13.827   4.973
21249W        W86410  12.586  36.080  12.562
21250W        W86411   6.987  33.501  12.853
21251W        W86412   8.900  43.336   0.439
21252W        W86413   6.641   1.689  11.618
21253W        W86414   8.137  29.563  12.355
21254W        W86415  40.835  42.088   2.224
21255W        W86416  35.054  26.896   0.229
21256W        W86417  43.488  12.144  13.940
21257W        W86418  14.328  26.985   1.300
21258W        W86419  36.863  44.391  12.799
21259W        W86420  15.345   2.656   2.304
21260W        W86421  30.415  10.362  10.277
21261W        W86422  20.946   0.241   0.902
21262W        W86423  17.420  19.508   0.299
21263W        W86424  40.308   6.363   4.123
21264W        W86425  23.915  13.515   3.169
21265W        W86426  25.543  39.063  13.559
21266W        W86427   4.813  28.163  12.463
21267W        W86428   8.636  25.425   2.692
21268W        W86429  14.348  11.458   2.825
21269W        W86430  27.573   3.020   0.394
21270W        W86431  33.948  24.230   2.368
21271W        W86432   0.229  22.737  10.546
21272W        W86433   0.347   3.417  14.893
21273W        W86434  41.578   9.783   4.712
21274W        W86435   7.319  38.584  10.780
21275W        W86436  14.316  30.539   0.865
21276W        W86437   8.316  15.886  13.075
21277W        W86438  43.493  12.340   4.204
21278W        W86439  11.762  15.035   1.851
21279W        W86440  32.939   2.367   3.657
21280W        W86441  20.155  21.585   4.664
21281W        W86442  42.984  24.263  11.062
21282W        W86443  31.066   5.125   2.195
21283W        W86444   7.348  26.263   1.649
21284W        W86445   1.757  27.604   3.291
21285W        W86446  25.281  41.984   3.238
21286W        W86447   9.338  22.298  14.215
21287W        W86448  26.018  28.572   4.482
21288W        W86449   8.934  34.802  11.565
21289W        W86450  15.318  37.377  10.737
21290W        W86451  17.342  17.284  13.426
21291W        W86452  32.176  12.778   3.901
21292W        W86453  12.416  27.236  13.402
21293W        W86454  36.616   0.415  12.450
21294W        W86455  25.895  17.211   4.097
21295W        W86456   3.560  36.508   0.904
21296W        W86457  29.194   5.446  11.102
21297W        W86458  23.178  14.887  10.123
21298W        W86459  30.206  32.156  14.942
21299W        W86460  12.474   8.577   0.891
21300W        W86461  22.462  44.842  14.132
21301W        W86462  32.429   1.615   0.036
21302W        W86463  41.473  18.769   1.300
21303W        W86464   6.959   5.983  13.087
21304W        W86465  27.588   4.193   2.607
21305W        W86466  32.468   1.309  11.989
21306W        W86467  32.058  33.083  11.439
21307W        W86468   4.627  33.796   2.895
21308W        W86469  21.555   8.849  11.195
21309W        W86470  26.378  26.547  12.325
21310W        W86471  41.095  40.588  14.897
21311W        W86472  24.774  35.715   3.031
21312W        W86473   0.088  31.053   3.450
21313W        W86474  24.685   4.178  10.667
21314W        W86475  35.138  31.638  14.877
21315W        W86476  16.301   0.336  12.992
21316W        W86477  21.591  30.478   2.835
21317W        W86478  27.894   6.290  12.524
21318W        W86479   4.376  40.097  11.155
21319W        W86480   2.959  30.990  12.975
21320W        W86481  43.537   5.841  13.462
21321W        W86482   9.581  29.657   2.350
21322W        W86483   8.637  35.491  14.672
21323W        W86484  25.951   9.241   2.262
21324W        W86485  42.047  23.115  13.579
21325W        W86486  15.135  40.786  12.245
21326W        W86487   6.750   6.088  12.097
21327W        W86488  41.372  21.850  13.756
21328W        W86489  36.387  33.975  13.856
21329W        W86490  27.015   3.388   2.728
21330W        W86491  27.766  16.123  10.729
21331W        W86492  43.299  39.561  14.275
21332W        W86493  43.838  37.791   1.865
21333W        W86494  11.353  31.236   4.563
21334W        W86495  35.058  24.719   2.295
21335W        W86496  13.547   0.750  12.527
21336W        W86497  43.344  24.929   2.260
21337W        W86498  23.176  43.503  13.871
21338W        W86499  24.072  41.567  13.479
21339W        W86500  14.643  25.443   1.683
21340W        W86501  42.850  27.065  14.490
21341W        W86502  18.025  10.764  14.059
21342W        W86503  38.183  38.385  12.925
21343W        W86504  20.987   2.515  13.408
21344W        W86505  23.944  33.082  11.020
21345W        W86506  40.073   4.799  14.204
21346W        W86507   0.858   8.161   0.916
21347W        W86508   8.386   5.924  13.152
21348W        W86509  23.504   5.119  13.060
21349W        W86510  33.393  21.857   1.195
21350W        W86511  38.705  20.708   1.829
21351W        W86512  20.123  18.701   4.618
21352W        W86513  22.224  34.092  10.720
21353W        W86514  30.184  28.481  13.116
21354W        W86515  28.250   3.028   4.493
21355W        W86516   7.145   1.587   2.162
21356W        W86517  28.672  10.594   4.508
21357W        W86518   2.485  17.177  11.847
21358W        W86519  21.936  41.471  11.922
21359W        W86520  24.747  24.004  11.571
21360W        W86521  44.204  30.612   3.580
21361W        W86522   3.185   9.773  13.798
21362W        W86523  26.924  29.723   4.221
21363W        W86524  34.423   1.476  13.026
21364W        W86525  15.275  13.101  13.578
21365W        W86526  37.564  41.743  13.809
21366W        W86527  42.306  36.369   1.622
21367W        W86528   9.756  35.534   0.951
21368W        W86529  18.808  14.122   2.311
21369W        W86530  22.943  19.202   2.732
21370W        W86531   1.202  20.628   0.291
21371W        W86532   9.748   3.165  11.584
21372W        W86533  26.578  27.050  14.850
21373W        W86534  18.186  22.137   1.042
21374W        W86535  31.544  44.893  12.612
21375W        W86536  37.506   5.114   2.941
21376W        W86537  42.680  42.010  12.507
21377W        W86538  19.464  13.811  14.343
21378W        W86539  12.483  36.432  14.181
21379W        W86540  21.052  34.745  11.609
21380W        W86541   3.077  24.660   0.929
21381W        W86542  38.992  30.063  12.205
21382W        W86543  43.247  13.858   0.419
21383W        W86544  26.774  11.565   3.142
21384W        W86545   1.693  18.794  14.942
21385W        W86546  13.879  35.309   0.778
21386W        W86547  24.593   9.407   3.706
21387W        W86548  32.171  33.854   3.032
21388W        W86549  26.145  39.414  12.181
21389W        W86550  37.952  10.720   0.446
21390W        W86551  39.029  31.457   4.518
21391W        W86552  30.418  36.314   4.550
21392W        W86553  27.224  30.895  12.065
21393W        W86554  25.091  41.553  10.217
21394W        W86555  33.076  24.840  11.191
21395W        W86556  26.309  42.747   2.052
21396W        W86557  16.637   2.094   0.468
21397W        W86558  16.123  26.702  14.965
21398W        W86559  31.972  36.671  10.699
21399W        W86560  42.717  37.968   3.714
21400W        W86561  25.608  38.975  11.238
21401W        W86562   1.385  44.957   0.235
21402W        W86563   9.694  33.475  11.482
21403W        W86564   8.856  22.436   4.311
21404W        W86565  17.247  42.482   1.757
21405W        W86566  34.964  29.891   0.309
21406W        W86567  31.101  16.808   2.265
21407W        W86568  27.489  36.640  12.520
21408W        W86569   5.372   0.308  14.328
21409W        W86570  24.628  43.023  14.075
21410W        W86571  14.209  15.972   1.759
21411W        W86572  14.691  10.850  10.753
21412W        W86573  16.357  13.591   0.408
21413W        W86574  37.625   4.225   3.713
21414W        W86575  20.521  44.715  13.008
21415W        W86576  41.527   6.333   1.298
21416W        W86577  43.980   5.790   0.423
21417W        W86578  16.346   0.855   1.911
21418W        W86579  17.426  25.087  10.685
21419W        W86580  22.969  12.921   0.714
21420W        W86581   7.793   8.309  10.661
21421W        W86582  34.457   0.515   0.743
21422W        W86583   4.685   3.403  10.254
21423W        W86584  20.634  29.232   0.122
21424W        W86585  22.842   8.305  13.915
21425W        W86586   2.386  41.528   3.348
21426W        W86587  27.501  36.027  14.349
21427W        W86588  25.655  36.257  11.074
21428W        W86589   6.288  41.443   2.211
21429W        W86590  34.507  19.478   0.364
21430W        W86591  29.522  29.924   4.271
21431W        W86592   5.316  17.070   4.587
21432W        W86593  43.282  40.361  12.962
21433W        W86594   1.329  16.029   5.419
21434W        W86595  19.175   7.761   3.136
21435W        W86596  19.822  39.798  10.637
21436W        W86597  29.189  19.612   0.624
21437W        W86598  38.412   0.365   0.513
21438W        W86599  17.303   0.979  10.969
21439W        W86600   5.885   3.109  13.742
21440W        W86601  15.176  35.540  10.635
21441W        W86602  20.738  27.260   2.670
21442W        W86603  44.085  44.866   3.746
21443W        W86604  13.363  23.162   3.343
21444W        W86605  24.362  13.311   4.648
21445W        W86606   3.603  21.483  10.654
21446W        W86607  10.687   8.199  14.295
21447W        W86608  42.749  33.307   4.952
21448W        W86609  32.402  19.763   2.288
21449W        W86610   0.840  10.571  12.946
21450W        W86611   6.292  11.662   2.690
21451W        W86612  16.651  22.480  14.792
21452W        W86613  39.043  15.848  14.428
21453W        W86614  24.533   3.218   2.356
21454W        W86615   7.840   6.123   0.357
21455W        W86616  34.054  17.653   3.184
21456W        W86617  33.687  23.971   0.963
21457W        W86618  18.049   5.008   2.328
21458W        W86619   4.848  32.085  14.220
21459W        W86620  20.989  12.121   3.068
21460W        W86621  11.760   7.833   0.928
21461W        W86622  17.191  12.821   4.901
21462W        W86623  31.993   3.559   2.731
21463W        W86624  31.804  23.221   0.811
21464W        W86625  10.335   5.226   0.486
21465W        W86626  15.784   6.228   1.794
21466W        W86627  40.825  34.418   1.368
21467W        W86628   2.978  21.257   3.112
21468W        W86629  10.395  15.225   2.862
21469W        W86630  37.830  41.387  14.754
21470W        W86631   6.938  40.341   1.776
21471W        W86632  28.608   4.135   1.105
21472W        W86633   1.426  40.635   2.685
21473W        W86634   5.400  12.286   3.861
21474W        W86635  40.822  39.573   4.071
21475W        W86636  16.732  39.357   0.662
21476W        W86637  29.581   6.181  10.759
21477W        W86638  10.592   1.391  11.308
21478W        W86639  34.782   2.977   4.068
21479W        W86640  15.754  39.939  13.937
21480W        W86641  40.735  19.104   3.322
21481W        W86642  31.014  26.085   2.002
21482W        W86643  30.903  43.458  14.088
21483W        W86644  40.284  18.111  14.365
21484W        W86645  23.885   7.869   4.671
21485W        W86646  13.321   6.847  13.436
21486W        W86647  37.299  18.696  12.914
21487W        W86648  10.645  25.600   0.007
21488W        W86649  21.802  16.526   1.149
21489W        W86650  23.476  43.746   3.638
21490W        W86651  18.653  29.399  13.450
21491W        W86652  21.076  42.923   0.457
21492W        W86653  27.943  15.210   1.846
21493W        W86654  43.254   3.627   1.355
21494W        W86655  24.819  17.475  12.524
21495W        W86656  40.114   2.892  13.007
21496W        W86657  18.289  30.340  13.456
21497W        W86658  40.164  43.502   2.454
21498W        W86659   3.055  40.323  11.069
21499W        W86660  37.303  29.221  11.973
21500W        W86661   4.644  14.961   0.298
21501W        W86662  42.461  17.613   2.253
21502W        W86663  40.961  28.009   1.932
21503W        W86664  34.187  22.277   0.630
21504W        W86665  13.705  44.737   1.486
21505W        W86666   9.107  33.191   3.586
21506W        W86667  41.496  14.815  12.576
21507W        W86668  43.700  27.262  12.963
21508W        W86669  31.083  33.070   1.204
21509W        W86670  18.973  15.326   1.728
21510W        W86671  24.377  35.819   1.790
21511W        W86672  18.688  40.650   5.220
21512W        W86673   3.886  43.800   1.893
21513W        W86674  17.923  20.421   3.303
21514W        W86675  17.280  15.343   0.369
21515W        W86676   3.602  10.092   3.212
21516W        W86677  34.784  27.729  12.468
21517W        W86678  31.814  19.701  12.633
21518W        W86679  44.889   5.370   4.640
21519W        W86680   5.373  12.598  14.245
21520W        W86681  36.662  19.054   1.975
21521W        W86682  13.470  35.988  14.964
21522W        W86683  38.481  35.660   2.408
21523W        W86684  32.164  17.746  12.965
21524W        W86685   9.993  38.883  14.883
21525W        W86686  28.568  23.042   2.725
21526W        W86687   8.220   4.756   0.232
21527W        W86688  35.978  33.947   3.183
21528W        W86689   7.611  16.418   4.167
21529W        W86690  19.926   6.382   1.215
21530W        W86691  13.338  35.211  14.279
21531W        W86692  37.422  44.429  14.398
21532W        W86693  10.263  15.585  14.355
21533W        W86694  33.682  36.758  12.491
21534W        W86695  30.595  39.896   2.640
21535W        W86696  20.286  34.081   1.479
21536W        W86697  24.954  20.640  12.033
21537W        W86698   5.959  21.308  13.955
21538W        W86699  27.511  43.380  11.960
21539W        W86700  37.488  25.497   1.164
21540W        W86701  27.762   9.510  11.969
21541W        W86702  12.974  43.936  12.556
21542W        W86703  34.755  35.916   5.012
21543W        W86704   3.328  17.470  12.055
21544W        W86705  10.297  13.569  14.357
21545W        W86706  18.763  13.392   1.586
21546W        W86707  34.122  35.013  11.084
21547W        W86708  36.308  40.589  14.008
21548W        W86709  34.861  35.996   5.521
21549W        W86710   5.398  42.012   1.747
21550W        W86711  28.228  20.576   4.861
21551W        W86712  23.200  33.044   1.754
21552W        W86713  12.137  36.866   4.878
21553W        W86714  42.449   3.328  11.139
21554W        W86715  40.386  29.690  13.418
21555W        W86716   3.467  13.591   9.954
21556W        W86717   0.185  22.150   3.337
21557W        W86718  17.897  38.359  10.698
21558W        W86719  28.447   0.496   3.635
21559W        W86720  19.648   1.827   4.294
21560W        W86721  33.950  19.132  12.755
21561W        W86722   9.428  14.782   2.742
21562W        W86723  23.835  23.642   1.239
21563W        W86724  16.581   4.776  14.232
21564W        W86725  27.002  31.200   4.029
21565W        W86726  23.174  34.966  14.040
21566W        W86727  30.377  40.448  10.680
21567W        W86728  35.264  10.794   3.419
21568W        W86729  34.924   7.447  12.461
21569W        W86730  27.640  42.323   3.076
21570W        W86731  38.175  42.686  11.983
21571W        W86732  11.108   0.879  13.403
21572W        W86733  34.255  32.893   1.879
21573W        W86734   0.702  32.475   2.227
21574W        W86735  40.449  18.636  12.155
21575W        W86736  43.505   1.821   2.867
21576W        W86737  23.633  27.527   2.398
21577W        W86738  43.967  31.122  12.061
21578W        W86739  25.494  42.725   1.797
21579W        W86740  24.555  33.597   2.923
21580W        W86741  20.005  27.557   4.455
21581W        W86742   2.106   5.246  12.472
21582W        W86743  32.666  21.666  11.624
21583W        W86744  20.217  33.445   0.259
21584W        W86745  25.222  27.818  13.752
21585W        W86746  40.825  27.015   0.999
21586W        W86747  12.363  41.259  10.735
21587W        W86748   1.872  28.581  11.962
21588W        W86749  34.132  15.097  14.255
21589W        W86750   9.891   9.572   3.137
21590W        W86751  14.871  10.281   4.699
21591W        W86752  22.732   6.626  13.444
21592W        W86753  43.829  17.740   3.912
21593W        W86754  20.998  40.823  11.854
21594W        W86755  11.962  33.407  11.041
21595W        W86756  11.419  42.095   1.376
21596W        W86757  24.483   8.984   4.901
21597W        W86758  20.980   1.224   0.676
21598W        W86759  25.264  12.089  14.660
21599W        W86760  30.527  19.086   4.514
21600W        W86761  19.791  29.082   1.554
21601W        W86762  43.922  43.094  14.744
21602W        W86763  20.567  33.206   3.752
21603W        W86764  43.681  23.038   2.408
21604W        W86765  19.319  17.102   1.642
21605W        W86766  11.175   5.830   1.096
21606W        W86767  13.692  24.131  13.877
21607W        W86768  28.830  23.639   3.605
21608W        W86769  11.517  24.594   0.949
21609W        W86770  30.462  37.016  10.656
21610W        W86771  31.856   6.248   3.575
21611W        W86772  21.256   1.799  11.069
21612W        W86773  40.040  27.052   3.736
21613W        W86774  27.445  16.083  11.623
21614W        W86775  44.195  13.057  13.342
21615W        W86776   6.844  27.535  12.013
21616W        W86777  37.275  12.776   0.457
21617W        W86778  23.077  15.980  13.862
21618W        W86779  30.401  38.860  14.722
21619W        W86780  22.058  16.175   4.037
21620W        W86781  41.549  27.160   3.260
21621W        W86782   4.308  18.644   0.813
21622W        W86783  34.881  43.499  13.970
21623W        W86784  20.098  34.286  12.033
21624W        W86785  42.576  22.593   5.163
21625W        W86786  39.737  40.363  13.051
21626W        W86787   1.190   0.031   4.182
21627W        W86788   5.353  19.011  14.274
21628W        W86789   0.797  16.264   3.700
21629W        W86790  25.954  10.744   1.423
21630W        W86791  36.850  14.780   4.494
21631W        W86792  25.551  42.805   0.840
21632W        W86793   5.989  40.499   1.146
21633W        W86794   8.952  30.115   0.386
21634W        W86795  30.409  38.947   0.247
21635W        W86796   4.300   4.364  12.218
21636W        W86797   7.162  31.278  11.398
21637W        W86798  38.636  21.282   3.564
21638W        W86799  31.472  40.799   0.996
21639W        W86800  31.583  29.560   2.177
21640W        W86801  24.479  18.206  13.083
21641W        W86802  44.337  16.106  11.966
21642W        W86803   6.372   5.692   0.303
21643W        W86804  37.034  20.574  11.533
21644W        W86805   0.084  13.154  13.416
21645W        W86806  29.566  32.916  11.626
21646W        W86807  41.543  18.299  11.668
21647W        W86808  23.712  27.342  13.320
21648W        W86809  29.584  20.095  14.813
21649W        W86810  26.399  20.038  14.798
21650W        W86811  13.228  13.654  12.684
21651W        W86812  11.140   7.955  14.211
21652W        W86813  37.283  16.061  13.812
21653W        W86814  35.793  19.834   1.664
21654W        W86815  42.039  42.854   2.292
21655W        W86816  23.437  13.873   2.367
21656W        W86817   7.309   0.860  11.556
21657W        W86818  28.239   9.780  12.857
21658W        W86819  38.935  17.684   0.074
21659W        W86820   1.033  41.441   4.107
21660W        W86821  10.360   9.032   5.068
21661W        W86822  36.073  37.282  14.968
21662W        W86823   5.465   4.273   2.581
21663W        W86824   5.226  17.267   1.915
21664W        W86825   6.028  11.695   0.344
21665W        W86826  18.394  33.715  11.729
21666W        W86827  44.793  17.439   2.461
21667W        W86828   4.818   7.790   4.643
21668W        W86829  16.866  31.980  11.830
21669W        W86830  29.703   1.089   2.311
21670W        W86831  25.218  31.548   2.272
21671W        W86832  10.210  43.815   0.038
21672W        W86833  43.433  32.506   4.730
21673W        W86834  18.078  36.623   1.354
21674W        W86835  17.017  38.519   4.084
21675W        W86836   2.605  36.108  14.340
21676W        W86837  26.774  31.163  12.930
21677W        W86838  22.630  12.724   4.957
21678W        W86839  16.872   5.581  10.194
21679W        W86840  14.534  43.316   3.340
21680W        W86841   0.665  41.341   1.833
21681W        W86842   5.915  43.869  14.633
21682W        W86843  41.574  16.121  11.094
21683W        W86844  24.054  40.599   2.177
21684W        W86845  32.357   3.258   1.912
21685W        W86846   3.267   0.531  11.855
21686W        W86847  27.125  32.175  11.533
21687W        W86848  28.379  24.654  14.752
21688W        W86849  36.427   4.408   3.633
21689W        W86850   2.101  39.432  11.066
21690W        W86851  42.507  12.162   0.698
21691W        W86852   7.192   8.372   4.181
21692W        W86853  17.011  25.085  11.449
21693W        W86854   9.555  32.197  11.091
21694W        W86855  13.892  34.544   2.344
21695W        W86856  18.433  36.695  14.535
21696W        W86857   4.836  43.752  13.524
21697W        W86858  18.609  30.937  14.705
21698W        W86859  13.074  36.533  10.719
21699W        W86860  35.284  18.181  12.157
21700W        W86861  21.223  39.988  11.840
21701W        W86862   7.848  33.558  12.851
21702W        W86863  14.794  35.863   4.540
21703W        W86864  23.987  12.264   3.694
21704W        W86865  39.288  40.356  12.801
21705W        W86866   1.681  36.307  12.906
21706W        W86867   1.588  27.695   5.062
21707W        W86868  42.685  26.560   2.728
21708W        W86869  34.702  16.291  14.498
21709W        W86870  19.231   4.726  12.302
21710W        W86871  21.693   1.569  14.924
21711W        W86872   9.589  11.694  13.662
21712W        W86873   4.754  43.010   0.881
21713W        W86874  29.600  15.586   0.926
21714W        W86875  23.366  11.633   4.537
21715W        W86876  11.849  11.734  14.724
21716W        W86877  29.897  28.941   4.316
21717W        W86878  34.838  19.250  11.218
21718W        W86879  31.845  23.816  12.375
21719W        W86880   8.788  18.132   0.332
21720W        W86881  22.957  25.203   0.918
21721W        W86882  25.416  23.156  12.985
21722W        W86883  22.833  15.631   0.922
21723W        W86884  23.635  34.789  12.910
21724W        W86885  23.742   8.109   4.228
21725W        W86886   8.306  16.680   0.249
21726W        W86887   1.169   7.439  12.074
21727W        W86888  35.478  32.354  11.535
21728W        W86889  15.622  17.086  12.124
21729W        W86890  36.601  12.242  14.859
21730W        W86891   1.992  38.301  12.968
21731W        W86892  27.654  44.561  10.586
21732W        W86893  41.089  24.605  11.698
21733W        W86894  30.850  39.552  11.055
21734W        W86895  23.545  35.688  14.056
21735W        W86896  32.156  43.014   2.314
21736W        W86897  39.558  17.760  11.556
21737W        W86898  41.894  12.334  10.755
21738W        W86899  39.183  44.685   4.044
21739W        W86900   5.697   7.831   2.420
21740W        W86901  22.006  35.099   2.000
21741W        W86902  42.232  37.499  10.261
21742W        W86903  19.485  13.171  11.621
21743W        W86904  10.184  14.477  13.623
21744W        W86905  29.927  21.148   5.517
21745W        W86906  10.337  18.579   0.635
21746W        W86907  39.361  15.100  11.196
21747W        W86908  10.670   3.222  12.455
21748W        W86909  12.507  38.959  12.412
21749W        W86910   2.682  19.003  12.094
21750W        W86911   9.731  34.111   2.934
21751W        W86912  16.740  17.714  10.542
21752W        W86913  12.859  44.860  12.985
21753W        W86914  18.118  37.822   3.253
21754W        W86915  13.295  19.449   2.313
21755W        W86916  23.794  26.975  11.044
21756W        W86917  11.355  21.024  14.862
21757W        W86918  23.343  21.019  12.023
21758W        W86919   1.721  13.776   1.905
21759W        W86920  44.879  33.983   3.999
21760W        W86921  35.904  14.101  14.537
21761W        W86922  28.986  43.815  10.468
21762W        W86923  23.933  15.465  11.130
21763W        W86924   0.530  28.830   3.335
21764W        W86925   9.199  42.623  11.978
21765W        W86926   1.339  33.510  12.465
21766W        W86927  37.088   7.520   4.233
21767W        W86928   7.820   2.378  10.674
21768W        W86929  26.426  39.508   1.789
21769W        W86930   5.148   3.378   2.716
21770W        W86931  17.902  19.086  13.218
21771W        W86932   7.187  42.820   2.996
21772W        W86933   3.013  36.327   2.858
21773W        W86934   4.171  17.283   2.646
21774W        W86935  35.044  21.670   0.590
21775W        W86936  42.417  10.826   0.451
21776W        W86937  13.111  16.189  11.593
21777W        W86938  40.541  34.937   0.942
21778W        W86939  24.417   9.925  11.621
21779W        W86940  15.613  16.003   4.191
21780W        W86941  13.106  31.050   2.319
21781W        W86942  16.677  29.598   2.473
21782W        W86943  33.142  31.858   2.021
21783W        W86944  15.348  29.567  14.506
21784W        W86945  40.882  38.087  12.064
21785W        W86946   0.430   7.170   1.348
21786W        W86947  28.332  14.078   1.364
21787W        W86948  27.040   6.295   0.132
21788W        W86949   9.388   1.869  14.845
21789W        W86950  26.633   6.872  12.448
21790W        W86951  17.705  30.452  12.922
21791W        W86952  18.084  16.880   0.254
21792W        W86953   6.427  42.405  11.100
21793W        W86954  22.554   8.290   1.749
21794W        W86955  28.238  20.015   0.963
21795W        W86956   6.455  25.016   1.201
21796W        W86957  16.177  29.134   4.381
21797W        W86958   3.401  37.781   4.105
21798W        W86959  30.370  43.704  11.951
21799W        W86960  10.398  30.482   4.633
21800W        W86961  12.709  33.356   0.208
21801W        W86962  43.824   8.696   2.315
21802W        W86963  18.997  17.505  14.388
21803W        W86964   3.455  10.379   2.802
21804W        W86965  40.938  26.231  13.015
21805W        W86966  12.748   2.731  11.067
21806W        W86967  28.102  38.335  13.483
21807W        W86968  20.071   7.445  14.037
21808W        W86969  24.123  34.571  14.862
21809W        W86970  12.660  17.287   4.040
21810W        W86971  40.473  31.605   0.058
21811W        W86972  33.641   5.678  10.621
21812W        W86973  17.773  27.334   3.707
21813W        W86974  25.437  40.738  14.777
21814W        W86975  33.144  22.548   5.027
21815W        W86976   9.908  37.086  10.699
21816W        W86977   7.278  28.945   0.366
21817W        W86978  31.464  44.395  13.560
21818W        W86979  25.704   6.637  13.314
21819W        W86980  34.893  35.111   4.484
21820W        W86981   5.049  26.206   2.712
21821W        W86982  29.438  13.142  11.609
21822W        W86983  17.048  40.807  11.082
21823W        W86984  15.341  19.719   3.142
21824W        W86985   1.147  21.826   3.323
21825W        W86986  21.527  32.972   1.251
21826W        W86987  21.211  23.237   3.152
21827W        W86988  39.937  20.447  12.922
21828W        W86989  40.979  33.527   3.613
21829W        W86990  19.082  19.154   0.805
21830W        W86991  21.285  28.945   4.789
21831W        W86992  22.136  26.182   5.006
21832W        W86993  38.036  18.252   0.623
21833W        W86994  34.055  31.738   1.349
21834W        W86995   9.509  40.037  14.442
21835W        W86996  43.949  27.376   3.015
21836W        W86997   1.729  35.297   1.297
21837W        W86998  13.348  10.328   4.581
21838W        W86999  27.550  18.236  10.751
21839W        W87000  41.637  19.270  13.006
21840W        W87001  24.062   2.503  10.932
21841W        W87002  20.566  20.903  14.916
21842W        W87003  32.953   9.775   3.342
21843W        W87004   2.575  11.658   4.321
21844W        W87005  24.206  18.213   1.631
21845W        W87006  27.357  25.599  11.513
21846W        W87007  15.914  33.990  13.195
21847W        W87008  26.170  16.977  13.953
21848W        W87009  14.062   1.508  12.046
21849W        W87010  14.258  18.250  13.092
21850W        W87011   5.708  10.074   3.413
21851W        W87012   8.674   3.543   1.176
21852W        W87013   6.275  22.431  13.428
21853W        W87014  14.815  22.960   3.384
21854W        W87015  13.214  34.669   0.875
21855W        W87016  44.418   5.662   2.315
21856W        W87017   4.393  19.760   3.662
21857W        W87018  12.396   1.957   4.092
21858W        W87019  26.084   6.700  10.646
21859W        W87020  37.893  23.588  11.145
21860W        W87021  22.368  23.266  13.321
21861W        W87022  30.856  22.638  13.523
21862W        W87023  36.485  38.833   4.993
21863W        W87024  37.460   5.481   3.289
21864W        W87025  38.598  11.366   0.300
21865W        W87026  31.006   8.353  14.783
21866W        W87027   0.499   7.223   4.205
21867W        W87028  32.024  31.582   1.367
21868W        W87029  11.289  38.429  13.869
21869W        W87030  26.731  27.642   3.113
21870W        W87031   4.492   9.134  11.194
21871W        W87032  41.650   7.405   0.455
21872W        W87033  44.871   0.826   2.788
21873W        W87034  26.205  20.185  12.484
21874W        W87035  13.578   1.706   3.353
21875W        W87036  12.141   3.200  10.673
21876W        W87037  44.705  25.992   1.826
21877W        W87038  37.050  27.594   1.722
21878W        W87039  32.576  11.106   4.918
21879W        W87040  39.032  36.078   5.155
21880W        W87041  17.953   9.394   3.614
21881W        W87042  23.686  27.747  14.862
21882W        W87043  35.305  12.026   4.225
21883W        W87044  18.664  23.304   1.651
21884W        W87045   4.738  10.348  12.014
21885W        W87046  12.414  14.263   2.806
21886W        W87047  17.236  11.259  14.765
21887W        W87048  16.024  19.697   4.593
21888W        W87049  22.115   4.273   1.293
21889W        W87050   3.735   9.111  11.542
21890W        W87051  28.946  28.734  11.987
21891W        W87052  21.248  26.174  13.480
21892W        W87053  11.768   3.727  10.698
21893W        W87054  10.845  20.310  14.504
21894W        W87055  14.094   0.500  13.568
21895W        W87056  21.005  42.372   2.267
21896W        W87057  39.794  17.832   3.686
21897W        W87058  27.162  32.562  13.706
21898W        W87059  16.605  14.841  13.550
21899W        W87060  34.753  17.464  11.038
21900W        W87061  16.205  29.465  10.609
21901W        W87062  26.590   6.003   2.444
21902W        W87063  37.576  39.023  13.438
21903W        W87064  35.999  35.140   1.388
21904W        W87065  30.414   0.523   3.632
21905W        W87066  24.164  17.986   1.144
21906W        W87067  44.930  40.525  13.874
21907W        W87068  36.036  14.678   0.389
21908W        W87069  27.747  13.542   2.359
21909W        W87070  11.148   9.160  12.386
21910W        W87071   1.916  33.133   0.876
21911W        W87072  30.593  29.238  13.952
21912W        W87073  17.521   4.725  11.974
21913W        W87074  31.481   5.215  11.587
21914W        W87075  24.578  21.083  12.528
21915W        W87076  38.462  19.982   3.907
21916W        W87077  19.205  35.093   3.373
21917W        W87078   6.566  23.077   4.552
21918W        W87079  20.487  37.807   3.139
21919W        W87080  44.523  21.107  13.506
21920W        W87081  33.705  38.329  12.499
21921W        W87082  14.254  44.130  11.144
21922W        W87083  32.651  16.236   0.814
21923W        W87084  33.567  23.277  12.916
21924W        W87085  22.156   3.955   0.817
21925W        W87086  31.288  10.850  10.484
21926W        W87087   4.249   9.722   2.226
21927W        W87088  25.746  38.182   0.621
21928W        W87089  40.991  18.242   1.792
21929W        W87090  37.902   8.686  14.019
21930W        W87091  41.038  37.484   0.311
21931W        W87092  41.519  27.470   4.264
21932W        W87093  11.804   3.389  11.935
21933W        W87094  17.250   7.314  11.136
21934W        W87095   4.189  24.178   4.243
21935W        W87096  37.907   2.230  11.964
21936W        W87097  15.720   3.397   4.498
21937W        W87098  23.177  23.715   4.509
21938W        W87099  27.794  24.676   3.196
21939W        W87100  35.640  39.784   5.031
21940W        W87101  14.094  25.025  13.529
21941W        W87102   7.277   6.685   1.758
21942W        W87103  26.163   7.855   2.839
21943W        W87104  31.007  32.361  12.981
21944W        W87105  14.655  14.736   4.371
21945W        W87106  41.850  12.660   0.294
21946W        W87107  33.151  24.989   3.888
21947W        W87108  10.593   3.576  11.139
21948W        W87109  32.537   8.719   2.301
21949W        W87110  44.922  37.917   4.103
21950W        W87111  36.428   9.153   0.152
21951W        W87112  44.489   1.496   1.212
21952W        W87113  23.783  32.597  11.686
21953W        W87114  41.776  14.179   0.433
21954W        W87115  43.998  25.676  12.063
21955W        W87116  36.910  21.877  14.061
21956W        W87117  43.021  39.730  14.708
21957W        W87118  17.118   4.921  14.377
21958W        W87119   1.461  19.182  13.942
21959W        W87120  42.376  15.414  14.160
21960W        W87121   7.505   2.151  11.521
21961W        W87122  23.651  21.556  13.922
21962W        W87123  11.487  23.277   2.322
21963W        W87124  22.003  23.092  13.641
21964W        W87125   5.463  24.808   9.760
21965W        W87126  28.004  28.744   2.411
21966W        W87127  29.880   7.797   0.001
21967W        W87128  26.432  18.335  12.857
21968W        W87129  28.465  31.807   3.677
21969W        W87130  37.543  29.915  14.032
21970W        W87131   1.719   4.843  11.641
21971W        W87132  30.730  14.667   0.956
21972W        W87133  22.121  37.686   9.850
21973W        W87134  12.073  35.082   1.365
21974W        W87135  20.093  27.222   3.422
21975W        W87136  30.007  32.351  10.778
21976W        W87137   9.922  41.725  12.007
21977W        W87138  14.147  28.031  12.127
21978W        W87139   3.737   1.338   4.713
21979W        W87140   7.257   0.803   3.610
21980W        W87141  13.299  36.432   1.222
21981W        W87142  11.926  28.056  14.260
21982W        W87143  24.490  22.111  14.307
21983W        W87144   3.897  43.191   3.680
21984W        W87145   9.947  40.066   3.107
21985W        W87146  29.481  13.368  13.444
21986W        W87147  41.918   8.628   2.306
21987W        W87148  18.330  22.747  10.701
21988W        W87149  28.136  36.663   0.817
21989W        W87150   1.143  24.072   2.740
21990W        W87151   9.810  22.706  14.025
21991W        W87152  41.952  41.679   0.381
21992W        W87153  18.828  39.003  13.412
21993W        W87154  32.517  44.365   4.024
21994W        W87155  40.932  13.656  13.108
21995W        W87156  41.158  40.576  13.153
21996W        W87157  19.970  33.896  10.688
21997W        W87158  28.312  44.015  13.546
21998W        W87159  22.694  23.765  14.904
21999W        W87160  34.993  31.128  14.877
22000W        W87161   6.011  27.937  13.572
22001W        W87162  32.912  38.036   2.855
22002W        W87163  12.359  42.265  14.964
22003W        W87164  34.274   8.103   1.293
22004W        W87165  13.748   7.173  12.391
22005W        W87166   5.425   8.862   4.562
22006W        W87167  31.346  41.393  14.477
22007W        W87168  36.834  29.354   4.935
22008W        W87169  24.472  26.980   2.253
22009W        W87170  26.320  27.742  12.327
22010W        W87171  27.528  34.580  10.640
22011W        W87172   9.988  10.823   0.647
22012W        W87173  40.740   5.949   0.995
22013W        W87174  11.380  42.060   3.075
22014W        W87175  41.272  20.533  12.907
22015W        W87176  11.301  37.925   1.684
22016W        W87177  42.385  30.908   0.887
22017W        W87178  13.231   6.708  11.495
22018W        W87179  34.671  24.446  12.850
22019W        W87180  22.197  12.783  14.536
22020W        W87181  43.294  42.518  14.530
22021W        W87182  40.036  33.433  10.564
22022W        W87183   0.341  32.930  10.711
22023W        W87184  33.765  27.019  10.348
22024W        W87185  21.033   5.763   2.305
22025W        W87186   2.472  27.176   2.856
22026W        W87187  39.094  42.839   0.319
22027W        W87188  36.528  43.287   1.325
22028W        W87189   3.497  41.958  12.427
22029W        W87190  27.813  39.905   4.541
22030W        W87191  29.048  18.515   1.464
22031W        W87192  32.693  11.791  13.955
22032W        W87193  30.743  43.213  11.605
22033W        W87194  40.387  23.255   0.781
22034W        W87195   2.706  26.077   5.286
22035W        W87196  30.967  32.588  12.510
22036W        W87197  34.060  43.945  12.018
22037W        W87198   2.462  38.489  13.987
22038W        W87199  12.042  14.612   1.733
22039W        W87200  21.180   9.311   2.189
22040W        W87201  14.387  33.108  11.569
22041W        W87202   2.626  10.855  13.960
22042W        W87203   9.631  32.006  12.058
22043W        W87204  19.761  14.201   1.651
22044W        W87205  14.685  43.393   0.751
22045W        W87206  10.450  36.325  13.017
22046W        W87207   9.555  44.765  13.095
22047W        W87208   4.264   3.177  13.476
22048W        W87209  31.498  22.239   0.352
22049W        W87210   5.711   9.214  12.043
22050W        W87211  22.086  29.128  13.071
22051W        W87212  23.664   3.560  12.853
22052W        W87213  15.819  38.355  11.657
22053W        W87214  32.340  31.277   3.158
22054W        W87215   9.445  14.183   0.424
22055W        W87216  43.315  22.714  13.062
22056W        W87217  22.583  12.089  14.909
22057W        W87218  27.552   0.258   3.169
22058W        W87219  43.775  27.854   3.189
22059W        W87220   0.891  28.916   4.253
22060W        W87221  16.558  22.667  13.341
22061W        W87222  14.619  17.143  13.519
22062W        W87223  37.039  10.694  10.363
22063W        W87224  10.443  18.491   4.987
22064W        W87225  16.292  12.500  11.882
22065W        W87226  16.661   2.253  11.976
22066W        W87227  30.032  19.236  10.670
22067W        W87228   7.519  22.608  14.191
22068W        W87229  22.478  40.249   4.387
22069W        W87230  31.907  20.266  12.476
22070W        W87231   3.680   5.912  11.284
22071W        W87232  43.544   7.190  11.049
22072W        W87233  10.700   3.457   4.167
22073W        W87234  19.020  15.620   0.952
22074W        W87235  27.462  16.554  13.770
22075W        W87236   1.154  28.924   2.115
22076W        W87237  43.017   5.469  12.137
22077W        W87238   6.803   5.182   1.151
22078W        W87239  28.091  36.289   4.962
22079W        W87240  25.945  14.547  11.545
22080W        W87241  13.662  34.144   0.045
22081W        W87242  17.238  36.606   1.923
22082W        W87243  21.473  22.908  12.281
22083W        W87244   4.196  23.913  10.764
22084W        W87245  10.216  40.997   0.469
22085W        W87246   0.190  14.708   1.729
22086W        W87247   9.927  36.116   1.245
22087W        W87248  24.997  40.020  14.929
22088W        W87249  10.315   8.439   0.033
22089W        W87250  14.372  20.260   4.116
22090W        W87251  31.454   2.765  14.908
22091W        W87252  23.966  29.968  13.868
22092W        W87253  35.034  17.735   3.632
22093W        W87254  18.771  23.048  10.970
22094W        W87255  32.498   4.465   1.370
22095W        W87256  20.828  28.201   0.826
22096W        W87257   3.196   3.488  12.454
22097W        W87258  24.275  24.357  12.357
22098W        W87259  40.444  35.015   4.467
22099W        W87260  24.407  37.076   2.826
22100W        W87261  27.605  25.683   0.259
22101W        W87262  14.087   6.814  14.646
22102W        W87263  20.272   5.718  11.082
22103W        W87264  16.155  24.782   0.777
22104W        W87265  11.173  20.849  13.836
22105W        W87266  21.080  22.723  13.874
22106W        W87267  28.713   3.763   1.680
22107W        W87268  25.603  30.786   1.383
22108W        W87269  33.064  20.144   3.297
22109W        W87270   4.219  39.739  12.082
22110W        W87271  27.981  22.629   4.217
22111W        W87272  21.357  44.786   2.176
22112W        W87273  39.135   8.823  12.452
22113W        W87274  24.699  15.611  12.380
22114W        W87275   7.984  15.479  13.492
22115W        W87276  28.209  35.176   0.772
22116W        W87277   9.343   0.242   3.598
22117W        W87278  16.538  25.873   3.727
22118W        W87279  24.605  37.343  12.482
22119W        W87280  12.916   6.192  10.895
22120W        W87281  36.328  24.834   2.586
22121W        W87282  11.622  38.966  12.044
22122W        W87283  25.322   4.290  12.038
22123W        W87284  27.263  39.905   3.266
22124W        W87285  35.004  17.676   2.603
22125W        W87286  40.839  17.210  14.025
22126W        W87287  15.840  36.764   3.380
22127W        W87288   5.785   8.198  12.773
22128W        W87289  32.465  37.622   4.223
22129W        W87290  20.854  43.711  10.245
22130W        W87291  44.672  31.608   1.781
22131W        W87292  10.788  44.237  13.966
22132W        W87293  18.646  10.178  13.804
22133W        W87294  30.658  28.457   0.880
22134W        W87295  15.858  38.846  12.370
22135W        W87296  32.986  35.121   3.965
22136W        W87297   2.170  23.417  12.564
22137W        W87298  27.348  34.094  12.537
22138W        W87299  19.597  24.527   4.733
22139W        W87300  36.638  14.734  14.485
22140W        W87301   4.260  30.974  13.411
22141W        W87302  34.576  12.360   0.483
22142W        W87303  39.884  44.279  11.035
22143W        W87304  27.024  44.865   0.449
22144W        W87305  11.834  11.551   4.595
22145W        W87306  17.214  27.611   2.457
22146W        W87307   3.844  13.751  12.532
22147W        W87308  29.621  29.688   0.531
22148W        W87309  40.197  11.315   2.640
22149W        W87310   9.039  43.215  13.289
22150W        W87311  13.718   5.701   2.765
22151W        W87312  22.318   6.537  10.729
22152W        W87313  30.854  22.757   0.761
22153W        W87314  23.638   4.434   2.296
22154W        W87315  21.963  23.980   2.938
22155W        W87316  29.953  12.209  14.882
22156W        W87317   1.935  30.665   1.832
22157W        W87318  20.568   8.132  11.430
22158W        W87319  17.116  42.953   1.608
22159W        W87320  15.364  24.146   3.597
22160W        W87321  27.853  16.208   2.623
22161W        W87322   1.325  18.283   1.661
22162W        W87323  27.422   6.135  13.852
22163W        W87324  21.504  39.969   4.694
22164W        W87325  18.552  28.550   1.693
22165W        W87326  24.242  34.469   4.562
22166W        W87327  22.654  25.876   1.858
22167W        W87328  27.396  15.762   1.433
22168W        W87329  34.154  26.034   3.578
22169W        W87330   2.314   3.657  10.666
22170W        W87331  42.745  34.045   0.563
22171W        W87332  28.073  35.335  13.382
22172W        W87333  18.648  41.031   2.643
22173W        W87334  40.057  42.721  11.068
22174W        W87335  34.926  25.727  13.126
22175W        W87336  14.692  31.623   1.581
22176W        W87337  31.566  31.651   3.770
22177W        W87338  25.518  44.328  14.064
22178W        W87339   9.263  18.300  12.921
22179W        W87340  43.838   8.680   2.843
22180W        W87341  13.042  32.626  14.910
22181W        W87342  34.032  24.295  13.396
22182W        W87343   4.145  29.968  11.930
22183W        W87344  15.634  16.052   0.713
22184W        W87345   0.535  13.848   3.251
22185W        W87346  32.926   3.061   0.381
22186W        W87347  20.798   4.696  14.949
22187W        W87348  43.538  42.422  11.187
22188W        W87349  13.889  13.278   0.788
22189W        W87350  40.351  30.370  14.528
22190W        W87351   0.236  18.024   1.823
22191W        W87352   8.649  38.449   2.136
22192W        W87353  20.672   3.508  12.207
22193W        W87354  11.338   6.203   2.416
22194W        W87355   9.308  27.088   3.116
22195W        W87356  19.162  28.021  11.603
22196W        W87357  23.261  44.772   2.891
22197W        W87358  43.397  32.507  11.819
22198W        W87359  19.274   5.167   0.464
22199W        W87360  43.809  27.080  12.349
22200W        W87361  40.804  10.413  13.410
22201W        W87362  25.524  10.550  10.399
22202W        W87363  14.706  11.934   0.242
22203W        W87364  43.528   8.818   1.150
22204W        W87365  18.532  32.670   4.174
22205W        W87366  32.722  39.981  13.133
22206W        W87367  13.558   3.272   4.032
22207W        W87368  41.298  32.899  12.349
22208W        W87369  16.781  38.734  11.950
22209W        W87370   5.022  12.287   2.951
22210W        W87371  11.719  35.093  14.254
22211W        W87372  44.634  38.136  12.537
22212W        W87373   8.073  28.086   1.463
22213W        W87374  27.128  13.335   4.043
22214W        W87375  21.255  43.300  14.753
22215W        W87376  17.568  10.729  10.501
22216W        W87377  18.892  15.339  12.425
22217W        W87378  30.569  19.543  11.209
22218W        W87379  26.211  26.661   1.325
22219W        W87380  30.866  38.757   3.617
22220W        W87381  28.383  44.758   1.224
22221W        W87382   9.360  43.524   2.435
22222W        W87383  32.634  20.236   2.216
22223W        W87384  36.811   9.241  13.297
22224W        W87385   9.914  43.266  14.367
22225W        W87386  21.131  28.028  13.895
22226W        W87387  24.521  10.640   3.117
22227W        W87388  22.790  20.511   9.910
22228W        W87389  20.232  12.170  11.000
22229W        W87390  26.498  19.696   2.706
22230W        W87391  35.570  44.884   3.653
22231W        W87392  17.567  10.464   3.362
22232W        W87393  16.631  26.222  14.034
22233W        W87394  41.566  15.783  14.778
22234W        W87395  36.816  25.934  12.118
22235W        W87396   6.217  28.535  14.034
22236W        W87397  42.940  21.681  10.941
22237W        W87398  23.990  21.763   2.812
22238W        W87399  10.225   8.662   4.683
22239W        W87400   1.800   7.700   0.423
22240W        W87401   4.839  43.709  14.473
22241W        W87402  18.070  21.237   4.331
22242W        W87403  21.162  34.148   0.038
22243W        W87404   7.724  31.078  12.823
22244W        W87405  44.012   5.664  10.690
22245W        W87406  36.052  12.475  12.225
22246W        W87407  12.906   3.283   1.840
22247W        W87408  29.124   1.709  10.651
22248W        W87409   2.811  20.680   3.967
22249W        W87410  28.917  13.465  13.998
22250W        W87411  16.833   5.255  12.348
22251W        W87412  32.749  43.963   3.794
22252W        W87413  31.556  32.177   3.748
22253W        W87414  13.383  17.856  14.769
22254W        W87415  17.286   9.808   3.932
22255W        W87416  15.387   9.023  12.483
22256W        W87417  24.058  37.773   1.470
22257W        W87418  24.749   6.090  12.462
22258W        W87419   7.694  31.753  14.548
22259W        W87420  43.466  29.144   3.777
22260W        W87421  31.830   0.349   1.289
22261W        W87422  27.386  21.218   4.086
22262W        W87423  21.271  41.426  14.374
22263W        W87424  19.320   8.872   3.568
22264W        W87425  28.861  17.474   0.421
22265W        W87426   7.371  14.269   2.341
22266W        W87427  18.733   2.465  10.515
22267W        W87428  35.863  44.242  12.494
22268W        W87429  34.974  19.356  12.069
22269W        W87430   5.904  42.774  12.175
22270W        W87431  25.062  39.057  14.856
22271W        W87432   0.317  43.568   0.119
22272W        W87433  33.885   3.967  14.398
22273W        W87434  24.220  27.866  13.995
22274W        W87435  20.717   1.574   1.896
22275W        W87436  14.881  24.718  13.843
22276W        W87437  18.566  19.095   0.784
22277W        W87438   9.093  44.801  13.341
22278W        W87439  23.214  24.830  12.848
22279W        W87440   2.959  20.672  10.697
22280W        W87441  33.597  27.592  12.988
22281W        W87442  27.619  23.640   2.411
22282W        W87443   8.504  38.491   4.584
22283W        W87444  21.047  32.334   2.270
22284W        W87445  44.689  31.649   3.966
22285W        W87446  26.422   9.245   0.803
22286W        W87447  26.471  38.747  13.972
22287W        W87448   3.760  44.304   2.772
22288W        W87449  22.204  21.336   2.674
22289W        W87450  26.641  18.591  13.941
22290W        W87451  13.316  26.300   9.791
22291W        W87452  17.609  18.657  14.291
22292W        W87453  37.969  19.736   3.242
22293W        W87454  18.710   9.135   4.257
22294W        W87455  18.601  41.674  12.133
22295W        W87456   8.110  33.984  10.741
22296W        W87457   3.725   1.646  14.793
22297W        W87458   7.475  16.681   3.721
22298W        W87459  35.748  18.036  12.969
22299W        W87460  13.285  37.801  11.027
22300W        W87461  27.727  11.423   2.396
22301W        W87462  15.886  38.388  12.643
22302W        W87463  22.329   5.093  11.866
22303W        W87464  15.269   4.285   0.512
22304W        W87465  22.495   5.168   3.243
22305W        W87466  11.307  11.610  11.568
22306W        W87467  20.564   5.462  14.030
22307W        W87468  19.634  40.829  14.782
22308W        W87469  24.634  21.037   1.323
22309W        W87470  25.672  11.436   0.840
22310W        W87471  17.609  26.217   1.591
22311W        W87472  35.763   0.022  11.472
22312W        W87473  30.019  37.617  14.470
22313W        W87474  20.805  42.288   4.546
22314W        W87475  40.825  19.296  14.930
22315W        W87476  10.915   9.224   2.392
22316W        W87477  41.370  36.653   1.990
22317W        W87478  41.383  40.134  11.163
22318W        W87479  35.912  18.239  10.476
22319W        W87480  25.148  10.657  12.435
22320W        W87481  41.939   1.978  13.131
22321W        W87482  41.636  21.136  11.624
22322W        W87483  34.992  25.145   9.807
22323W        W87484  10.020  10.723  10.717
22324W        W87485  28.250  25.223   2.036
22325W        W87486  42.051  27.504  12.542
22326W        W87487  41.832  25.052   2.312
22327W        W87488  13.027  34.872   1.464
22328W        W87489  33.556  15.454  11.543
22329W        W87490  42.959   4.146  13.509
22330W        W87491  29.788   5.194   2.655
22331W        W87492  31.834   2.329   2.204
22332W        W87493  28.691  42.958   1.796
22333W        W87494  31.429  28.201   1.254
22334W        W87495  30.541  27.543   1.830
22335W        W87496  31.684  27.068  11.665
22336W        W87497  39.226  23.753  11.952
22337W        W87498  22.509  44.693  11.249
22338W        W87499  30.143  26.109   0.847
22339W        W87500  40.557  15.980   1.189
22340W        W87501  29.881  23.557  14.802
22341W        W87502  34.035  13.358  11.081
22342W        W87503  37.069   1.262  11.150
22343W        W87504   1.763  40.264  14.459
22344W        W87505  24.547  24.152  12.885
22345W        W87506  11.593   5.388   4.917
22346W        W87507   4.583   9.737  11.635
22347W        W87508  29.804  29.154  11.005
22348W        W87509   4.821  17.724   5.034
22349W        W87510  35.367   7.918   1.766
22350W        W87511  16.509  41.632  13.698
22351W        W87512   7.305  41.080   1.897
22352W        W87513  33.423   5.222  10.689
22353W        W87514  37.792   9.412  13.508
22354W        W87515  37.785  14.680   0.751
22355W        W87516   0.624  28.890  13.742
22356W        W87517  33.605  28.448   2.862
22357W        W87518  15.610  26.603  10.603
22358W        W87519  22.587  27.008   4.602
22359W        W87520  43.813  25.498  12.522
22360W        W87521  35.471  39.125  13.635
22361W        W87522   8.294  14.377  10.534
22362W        W87523  39.661  37.316  12.872
22363W        W87524   5.766  29.173  11.582
22364W        W87525   3.333  18.574  14.068
22365W        W87526  37.058   3.970  10.633
22366W        W87527  34.427  29.382  14.577
22367W        W87528   6.015   5.219   1.798
22368W        W87529  42.411  19.261  10.444
22369W        W87530  14.733  20.318  11.204
22370W        W87531  21.976   6.695   3.416
22371W        W87532  18.624   1.351  11.932
22372W        W87533  31.468   5.892  12.190
22373W        W87534  22.685   8.391  10.109
22374W        W87535  40.494   4.370   1.284
22375W        W87536  26.948  24.920   2.374
22376W        W87537  30.638   3.287   0.942
22377W        W87538  28.637  14.136   4.184
22378W        W87539  29.886  36.919   3.095
22379W        W87540  36.006  16.119  13.130
22380W        W87541  42.340  25.737  14.726
22381W        W87542  14.314  39.843   4.593
22382W        W87543  42.339  35.532   0.891
22383W        W87544  37.171   0.857   1.284
22384W        W87545  30.004  27.790  13.598
22385W        W87546  20.065  19.488  14.922
22386W        W87547  43.097  31.925  12.523
22387W        W87548  36.926   7.239  14.132
22388W        W87549   7.841  18.166   0.499
22389W        W87550  25.946  34.977  12.900
22390W        W87551  19.648  15.364  13.077
22391W        W87552  16.710  39.058   1.129
22392W        W87553  16.709   4.927  14.708
22393W        W87554  43.746  15.208  14.046
22394W        W87555   7.530  30.447  13.358
22395W        W87556  29.970  11.421   3.226
22396W        W87557   7.702  19.809   4.806
22397W        W87558  42.849  32.199   0.757
22398W        W87559  25.195  25.449   4.526
22399W        W87560  16.062  12.442   1.326
22400W        W87561  14.259   6.721  10.751
22401W        W87562  22.574  14.383  10.150
22402W        W87563   8.660  32.377  11.246
22403W        W87564  15.781  14.693  11.350
22404W        W87565  20.490  13.200  14.011
22405W        W87566  32.406   7.015   2.664
22406W        W87567  28.178  12.388   4.898
22407W        W87568  16.165  29.105   3.876
22408W        W87569  41.442   7.359   1.289
22409W        W87570  24.238  38.345  14.508
22410W        W87571   5.684   3.428  14.626
22411W        W87572  42.925  43.505   3.838
22412W        W87573   0.645  33.672  10.460
22413W        W87574  35.958  27.721   3.273
22414W        W87575   0.408  11.818  12.616
22415W        W87576   3.739  23.754  13.797
22416W        W87577   7.912   4.488  14.867
22417W        W87578  25.525  42.451   3.131
22418W        W87579   8.205  15.089   4.208
22419W        W87580  12.598  13.896  13.389
22420W        W87581  37.087  23.464   0.844
22421W        W87582  26.967  34.346  12.332
22422W        W87583  16.599  17.572   9.677
22423W        W87584  32.965  41.232   4.388
22424W        W87585  37.777  11.397  14.391
22425W        W87586  36.918  25.458   2.807
22426W        W87587  33.464  29.665   3.744
22427W        W87588  22.165   6.027   1.993
22428W        W87589   3.987  16.199   4.123
22429W        W87590  15.538   7.617   0.377
22430W        W87591  29.046   4.364   4.852
22431W        W87592   8.712   3.275  13.154
22432W        W87593  26.536  43.864  11.667
22433W        W87594  21.998  41.684  11.037
22434W        W87595   8.461  27.260   4.499
22435W        W87596  29.944  23.376   3.450
22436W        W87597   8.866  37.231   0.294
22437W        W87598  37.932  15.983   1.883
22438W        W87599   8.924   4.126  12.916
22439W        W87600  35.016  11.210   3.226
22440W        W87601   1.377  10.893  14.331
22441W        W87602  30.228  40.910   4.509
22442W        W87603   2.106  33.667   2.394
22443W        W87604  11.595   3.439  12.881
22444W        W87605  28.207  27.479   3.380
22445W        W87606  19.988   8.290   2.351
22446W        W87607  29.045  30.378  14.421
22447W        W87608   4.193  24.263  12.052
22448W        W87609  35.499  16.277  12.535
22449W        W87610  42.594  29.023  11.712
22450W        W87611  36.461  20.508  11.910
22451W        W87612  29.059  42.455  13.335
22452W        W87613   9.741   4.757  14.828
22453W        W87614  36.309  31.988   1.869
22454W        W87615  20.594  23.133  14.358
22455W        W87616  31.941   6.430  11.896
22456W        W87617  11.213  32.603   0.475
22457W        W87618  29.082  11.669  13.543
22458W        W87619  28.696  37.359  14.321
22459W        W87620  17.661  21.453   2.242
22460W        W87621  19.213  35.975   1.209
22461W        W87622  42.235  26.251  14.796
22462W        W87623  36.979   0.947  12.464
22463W        W87624  15.963  26.898   4.257
22464W        W87625   0.819  42.392  11.968
22465W        W87626  21.228  26.572  10.626
22466W        W87627  11.785  43.558   1.354
22467W        W87628  12.349  17.113  12.391
22468W        W87629  16.032   3.193  12.580
22469W        W87630  13.037  40.620  14.825
22470W        W87631  31.405   4.767   4.197
22471W        W87632   1.412   6.113   4.210
22472W        W87633  13.565  35.524  13.482
22473W        W87634  30.968  20.924   2.607
22474W        W87635  23.410  32.919  12.921
22475W        W87636   6.872  19.121   4.100
22476W        W87637  18.426  23.793   3.649
22477W        W87638  27.621  25.850  12.742
22478W        W87639  36.424  32.394  11.591
22479W        W87640  37.225  25.204  10.796
22480W        W87641   0.926  21.978   1.712
22481W        W87642  15.221  32.344   0.200
22482W        W87643   7.845   9.276  14.427
22483W        W87644  12.859  10.389   0.520
22484W        W87645  26.387   3.691   4.978
22485W        W87646  23.545  23.936   0.853
22486W        W87647  13.650   8.609  12.814
22487W        W87648  31.640   5.798  14.005
22488W        W87649   5.675  43.201   0.403
22489W        W87650   5.369  11.317   2.931
22490W        W87651  43.562  30.726  11.132
22491W        W87652   5.158  36.112  14.029
22492W        W87653  29.435  41.519   4.075
22493W        W87654   3.133  35.141   4.499
22494W        W87655  32.130  15.172   1.741
22495W        W87656   6.641  17.026   5.142
22496W        W87657  22.095   7.609  12.375
22497W        W87658  36.479  18.029  10.631
22498W        W87659   5.794   0.061  14.513
22499W        W87660   2.392  35.432  11.500
22500W        W87661   0.754  23.440   1.848
22501W        W87662  44.099  22.485  10.274
22502W        W87663  22.597  35.051  12.239
22503W        W87664  23.034   6.834   3.232
22504W        W87665   3.884  29.627   4.659
22505W        W87666  29.141  38.397   0.225
22506W        W87667   9.155  37.944   3.719
22507W        W87668  21.498  40.986  12.036
22508W        W87669  40.187  39.489   0.015
22509W        W87670  13.167  40.511  11.167
22510W        W87671  11.295  25.638   2.849
22511W        W87672  12.127   2.405  11.673
22512W        W87673   2.399   3.153   1.778
22513W        W87674   8.681  21.013  14.952
22514W        W87675  24.004  22.422  12.848
22515W        W87676  37.057  31.845   2.566
22516W        W87677  26.255   5.824  11.859
22517W        W87678   8.358  31.668   1.136
22518W        W87679  16.520  30.978  10.758
22519W        W87680  22.142  24.617  10.754
22520W        W87681   3.775  40.123  10.506
22521W        W87682  16.366  13.583   3.223
22522W        W87683  17.379   8.165  13.475
22523W        W87684   4.802  29.710  10.175
22524W        W87685  37.887  18.807   4.536
22525W        W87686  31.398  21.943   2.289
22526W        W87687  43.188  14.727   4.935
22527W        W87688  13.056   6.882  11.064
22528W        W87689  14.873  27.659   4.589
22529W        W87690   5.308   8.637   2.661
22530W        W87691  44.770   7.624  12.090
22531W        W87692  15.154  24.711   0.765
22532W        W87693   8.481  29.906  13.699
22533W        W87694   9.658  38.929   4.368
22534W        W87695  26.669   7.822   0.899
22535W        W87696   8.216  42.484  14.352
22536W        W87697  16.044   7.347   4.039
22537W        W87698  33.968   5.934   4.094
22538W        W87699  18.623  31.096  11.087
22539W        W87700  44.553  19.378   2.836
22540W        W87701  27.045   7.694  12.432
22541W        W87702  36.855   7.697   1.724
22542W        W87703  30.073  33.691   4.118
22543W        W87704  39.397  19.131  14.012
22544W        W87705  35.216   9.847  11.137
22545W        W87706   3.868  11.118  14.928
22546W        W87707  42.963  30.928  13.600
22547W        W87708  22.557  20.348  12.094
22548W        W87709  18.737  27.692   1.253
22549W        W87710  41.590  43.452   3.662
22550W        W87711  18.687  32.332   3.354
22551W        W87712   1.775  27.653  14.488
22552W        W87713  43.171  40.770   2.155
22553W        W87714  32.121  10.134  11.225
22554W        W87715  24.508  36.505  13.548
22555W        W87716   3.850  24.061  14.921
22556W        W87717  10.937  35.458   0.273
22557W        W87718   8.839   2.798  13.358
22558W        W87719  38.821  26.020   1.422
22559W        W87720  24.527  19.830  12.047
22560W        W87721  38.034  20.964   0.153
22561W        W87722  11.729  35.558  11.896
22562W        W87723  19.537  31.573  11.096
22563W        W87724  30.853   2.464   4.967
22564W        W87725  17.829  18.474  12.845
22565W        W87726  15.531   1.356   3.150
22566W        W87727  16.313  32.495  11.185
22567W        W87728  11.822  11.773  11.679
22568W        W87729  36.485  11.233   3.196
22569W        W87730  14.473   9.210  12.005
22570W        W87731  24.165  37.014   2.021
22571W        W87732   1.788   1.656  12.545
22572W        W87733  26.525   6.401   0.313
22573W        W87734  24.338  31.356   0.291
22574W        W87735   5.955  39.961  11.134
22575W        W87736  11.760  26.186   2.347
22576W        W87737  32.946  20.832   2.675
22577W        W87738  36.642  35.589  14.743
22578W        W87739  14.873  15.152  11.532
22579W        W87740   1.138  24.666  14.313
22580W        W87741  15.127  27.595  14.234
22581W        W87742  26.930  29.446   3.372
22582W        W87743  39.632  14.171  10.453
22583W        W87744  10.783  32.702  13.837
22584W        W87745  42.253  22.951   1.224
22585W        W87746   8.754   9.015   0.758
22586W        W87747  30.968  43.990  14.144
22587W        W87748  31.033  24.270   4.139
22588W        W87749  20.162  10.863  11.435
22589W        W87750  44.106  39.857   1.907
22590W        W87751  11.613  18.487   3.682
22591W        W87752  34.008  20.443   1.233
22592W        W87753   1.489  18.181   4.066
22593W        W87754  29.565  16.107   1.928
22594W        W87755   7.321  20.214   3.742
22595W        W87756  31.150   1.789   2.233
22596W        W87757  25.475  37.938   1.442
22597W        W87758  21.105  16.769   9.926
22598W        W87759  27.648   6.878  14.498
22599W        W87760  21.429  35.320   3.185
22600W        W87761  41.891  15.232  13.868
22601W        W87762  35.991  21.878   0.955
22602W        W87763  40.348   2.674  14.348
22603W        W87764  24.969  31.120  12.553
22604W        W87765   2.802  33.355  13.888
22605W        W87766  25.654  43.539  12.162
22606W        W87767  40.311  28.888   2.695
22607W        W87768  33.663  34.526  10.523
22608W        W87769  18.126  28.851   1.632
22609W        W87770  17.654  19.324   0.775
22610W        W87771  38.832  15.674  13.843
22611W        W87772  27.194  14.515   4.058
22612W        W87773   0.896  16.543  12.895
22613W        W87774  11.557   3.587   1.350
22614W        W87775   2.865  42.003  14.070
22615W        W87776   2.259  37.357  12.185
22616W        W87777  41.247  44.667  10.664
22617W        W87778  23.798   5.440   2.339
22618W        W87779   8.997  38.407   4.445
22619W        W87780  31.588  31.951  13.973
22620W        W87781   6.255   0.011  12.905
22621W        W87782  24.241   2.432  11.391
22622W        W87783   1.029  17.745  14.040
22623W        W87784   9.827  43.561  12.001
22624W        W87785   9.794  35.997   4.825
22625W        W87786  13.826  21.973  13.105
22626W        W87787  25.182  28.304  13.032
22627W        W87788  18.273  28.457   3.247
22628W        W87789   8.445  19.747  10.980
22629W        W87790  41.350   0.665  10.751
22630W        W87791  20.209  34.511  11.583
22631W        W87792  11.933  25.238   2.367
22632W        W87793  31.688   3.277  13.974
22633W        W87794  37.935  30.132  12.472
22634W        W87795  32.707  12.217  13.417
22635W        W87796  18.232  28.982  13.396
22636W        W87797  20.077  10.755   2.230
22637W        W87798  30.065  21.659   5.425
22638W        W87799  17.259  37.502   5.060
22639W        W87800  17.040   3.260   0.948
22640W        W87801  20.190  22.947   3.983
22641W        W87802  13.521  39.475   5.399
22642W        W87803   3.340  40.023  11.414
22643W        W87804  41.952   0.440   3.809
22644W        W87805  33.876  11.039  12.537
22645W        W87806  24.983  25.762  11.713
22646W        W87807   6.919  29.278  11.479
22647W        W87808  33.418  11.151   4.907
22648W        W87809  23.024  42.675  12.296
22649W        W87810  21.353  16.177  12.164
22650W        W87811  21.809  38.860  12.610
22651W        W87812   7.887  29.084  14.051
22652W        W87813  32.392  23.822   2.585
22653W        W87814   6.698  11.215  10.871
22654W        W87815  25.037   9.715   2.154
22655W        W87816  39.900  24.308   0.275
22656W        W87817  27.558  40.435  12.010
22657W        W87818  42.101  25.989   3.798
22658W        W87819   9.791  29.560   1.835
22659W        W87820  41.087   8.866  13.371
22660W        W87821  26.118  43.991   4.330
22661W        W87822  25.421  16.497  14.016
22662W        W87823   5.336  39.664   0.728
22663W        W87824  43.775  36.913  11.824
22664W        W87825  39.611   8.846  13.328
22665W        W87826  12.247  11.104   4.933
22666W        W87827  37.010  29.947   4.688
22667W        W87828  20.644  42.461  10.632
22668W        W87829  20.677   0.809   1.370
22669W        W87830  23.954  18.146  11.613
22670W        W87831  43.677  22.671   0.297
22671W        W87832  29.692  33.136  10.646
22672W        W87833  30.107  17.065  12.526
22673W        W87834  33.304  16.838   4.974
22674W        W87835   9.095  34.392   1.192
22675W        W87836   7.468  40.075   3.361
22676W        W87837   9.602  44.541  11.967
22677W        W87838  18.127  38.325   3.344
22678W        W87839   2.814  40.005   0.292
22679W        W87840  10.244  10.658  12.499
22680W        W87841   5.780  38.221  13.835
22681W        W87842  41.330  39.128  11.118
22682W        W87843  42.360  17.732  12.454
22683W        W87844  35.511  24.245  11.919
22684W        W87845  25.093  12.862   4.797
22685W        W87846  22.029  29.650  13.015
22686W        W87847  10.217  13.875   3.315
22687W        W87848  19.095  28.450  13.993
22688W        W87849   5.263  20.016   1.458
22689W        W87850  32.622  31.492  13.345
22690W        W87851  18.103   4.988  11.474
22691W        W87852  12.811  24.479   0.363
22692W        W87853  32.643   4.597  14.623
22693W        W87854  35.419  35.832   0.213
22694W        W87855   3.916  42.106   0.902
22695W        W87856  29.498   0.957   0.346
22696W        W87857  11.078  20.177  11.772
22697W        W87858   2.904  11.676  14.080
22698W        W87859  30.249  17.754   3.350
22699W        W87860  41.723  35.042  11.135
22700W        W87861  33.471  22.673  12.528
22701W        W87862   9.217  34.879  12.937
22702W        W87863  43.497   1.507   0.267
22703W        W87864  23.550  40.050  10.737
22704W        W87865  35.108   7.803  12.112
22705W        W87866  43.202  10.162   2.903
22706W        W87867  24.089  29.249   2.335
22707W        W87868  13.368  15.109  13.009
22708W        W87869  26.075  40.934  13.952
22709W        W87870   5.774  25.416  12.203
22710W        W87871  27.120  17.001  11.177
22711W        W87872  13.221   1.592   2.887
22712W        W87873  38.528  30.118   3.941
22713W        W87874  17.562  44.589   2.331
22714W        W87875   7.847  43.551   3.850
22715W        W87876  23.219   5.702   3.674
22716W        W87877   1.016  29.413   2.650
22717W        W87878   1.983  28.035  14.751
22718W        W87879  24.702   5.232  13.458
22719W        W87880  37.138  28.566   1.707
22720W        W87881   7.796  15.152  10.489
22721W        W87882  44.282  20.215   3.181
22722W        W87883  25.412   1.978   4.371
22723W        W87884   6.302   1.446  14.520
22724W        W87885  21.772  37.957   2.833
22725W        W87886  18.051  13.743   4.606
22726W        W87887   6.736  39.249   9.965
22727W        W87888  44.968  36.810   9.863
22728W        W87889  33.905  44.405   3.852
22729W        W87890   4.858  12.067  11.778
22730W        W87891  26.003  40.467   3.711
22731W        W87892   2.063  37.368  10.670
22732W        W87893  39.524  20.114   0.762
22733W        W87894  26.172   5.418  13.495
22734W        W87895  39.456  41.209   0.262
22735W        W87896  11.101   1.962   1.414
22736W        W87897   9.835  10.271   0.553
22737W        W87898  11.081  11.738   4.066
22738W        W87899  18.890  19.280   4.521
22739W        W87900  32.008   2.223   0.865
22740W        W87901  27.869  13.748   0.711
22741W        W87902  15.269  35.985   4.793
22742W        W87903  31.545   4.764   2.729
22743W        W87904  43.109   4.415   1.954
22744W        W87905  10.353   0.470  14.889
22745W        W87906  25.434   6.409  11.124
22746W        W87907   4.109  20.497   1.942
22747W        W87908  31.115  42.996  13.958
22748W        W87909   2.914  31.432  12.206
22749W        W87910   7.320  15.889  10.513
22750W        W87911  34.224  43.704   0.783
22751W        W87912  40.299  19.193  14.972
22752W        W87913  35.793  29.022  13.151
22753W        W87914  33.120   2.519  12.105
22754W        W87915  36.406  42.625   0.684
22755W        W87916   7.515  32.214   2.140
22756W        W87917   8.479   6.862   0.248
22757W        W87918  18.628  22.030   3.247
22758W        W87919  23.140  28.907   3.286
22759W        W87920  20.730   1.734   3.651
22760W        W87921  28.936  19.015  12.946
22761W        W87922  38.785   7.752   3.593
22762W        W87923  41.347  28.269  11.056
22763W        W87924  33.370  16.009  10.728
22764W        W87925  40.014  26.593   5.074
22765W        W87926   0.200  26.212   2.601
22766W        W87927  33.135  18.284  11.583
22767W        W87928  30.642   9.833  11.985
22768W        W87929   1.380  32.483   2.855
22769W        W87930  20.099  14.055  12.546
22770W        W87931  23.736  42.923   2.364
22771W        W87932  17.630  37.974  14.800
22772W        W87933  15.596  10.798   0.013
22773W        W87934  20.333  22.154  11.600
22774W        W87935   5.782  28.870  12.010
22775W        W87936  40.872   4.790  10.648
22776W        W87937  20.210  12.211  11.966
22777W        W87938  38.659  18.031   4.230
22778W        W87939   7.376  12.721  12.553
22779W        W87940  26.940  10.054   4.492
22780W        W87941  24.632  40.253   3.661
22781W        W87942  34.397   0.508  12.148
22782W        W87943  38.357  16.801  11.482
22783W        W87944  31.165  22.808   2.573
22784W        W87945  22.994   3.315  11.258
22785W        W87946  14.669  38.544  14.935
22786W        W87947  31.381   0.431   4.802
22787W        W87948  44.989   8.655  11.926
22788W        W87949  34.660  39.299   1.894
22789W        W87950  37.404  33.509   2.293
22790W        W87951  19.602  41.382   3.628
22791W        W87952  44.160   4.224   1.898
22792W        W87953   6.225   6.973  11.177
22793W        W87954  14.739   3.473   3.714
22794W        W87955   5.188  28.477  11.400
22795W        W87956  10.212   2.943  12.586
22796W        W87957  30.083   8.667   2.237
22797W        W87958  36.367  34.191  13.372
22798W        W87959   4.987  22.360   0.460
22799W        W87960   0.721  35.496   4.124
22800W        W87961  18.501  12.176   3.193
22801W        W87962  42.813  21.526   4.541
22802W        W87963  24.424   4.864  14.795
22803W        W87964  14.145  23.085   3.722
22804W        W87965   1.136   6.172  12.433
22805W        W87966  33.578   5.650   2.276
22806W        W87967  43.182   2.223  10.679
22807W        W87968  33.259  32.536  14.120
22808W        W87969  25.987  11.646  13.967
22809W        W87970   0.717  26.267   0.962
22810W        W87971  43.912  17.073  14.462
22811W        W87972  41.483  41.089   4.328
22812W        W87973  41.940  12.659   3.365
22813W        W87974  31.154  10.446   1.991
22814W        W87975  39.060  36.471  13.884
22815W        W87976  39.651  23.418  13.844
22816W        W87977  28.117  18.738  14.500
22817W        W87978  39.588   9.151   1.957
22818W        W87979  30.625  12.669   0.768
22819W        W87980  16.140   7.358  11.943
22820W        W87981   6.180   2.874  13.046
22821W        W87982   1.855  20.760   0.777
22822W        W87983   1.999  44.889  11.673
22823W        W87984  17.152  19.508  10.188
22824W        W87985   1.878  40.002  13.611
22825W        W87986  38.928  24.723   2.735
22826W        W87987  17.564  31.288   0.748
22827W        W87988  11.308  10.453   4.012
22828W        W87989  14.745  15.264   2.687
22829W        W87990  18.965  25.954   1.541
22830W        W87991  25.995   1.718  12.142
22831W        W87992  22.960  34.540  11.489
22832W        W87993  14.387  21.903  11.656
22833W        W87994   3.722  22.035  14.444
22834W        W87995  27.449  23.029  13.280
22835W        W87996  38.505  11.758  12.332
22836W        W87997   0.742  39.782  14.545
22837W        W87998  29.436   8.696  12.981
22838W        W87999  21.696  13.583   2.925
22839W        W88000  32.081  27.770   3.615
22840W        W88001  13.144  26.973   3.714
22841W        W88002  15.355  35.980  13.152
22842W        W88003  25.233  41.476  11.948
22843W        W88004  12.934  29.348  12.567
22844W        W88005  18.163  40.882  13.739
22845W        W88006  42.429  11.788   0.258
22846W        W88007  36.468  14.354   3.394
22847W        W88008  31.143  19.277  11.787
22848W        W88009  34.896   0.892  13.813
22849W        W88010  43.454  19.702   1.217
22850W        W88011   6.937  18.783   3.679
22851W        W88012  42.836  32.404  12.619
22852W        W88013  21.264  44.765  14.924
22853W        W88014  18.840  23.402  13.434
22854W        W88015  27.977  22.157   3.178
22855W        W88016  14.630  30.491   4.491
22856W        W88017   7.185  37.838   0.318
22857W        W88018  38.021  22.093   4.298
22858W        W88019   5.313  11.861  11.867
22859W        W88020  21.093   9.624  12.823
22860W        W88021  28.305  44.613   3.714
22861W        W88022  36.973  42.413   2.719
22862W        W88023  34.890  21.071   3.379
22863W        W88024  42.347   1.746  14.423
22864W        W88025  40.406   4.668  13.409
22865W        W88026  21.492   4.463  14.210
22866W        W88027  37.870  23.959  14.366
22867W        W88028   8.971   1.704  10.459
22868W        W88029  37.592  38.745  12.074
22869W        W88030  16.262  22.537  10.800
22870W        W88031   7.141  27.334   5.290
22871W        W88032  26.895   1.443  11.541
22872W        W88033  17.112  35.456  14.925
22873W        W88034  43.942  21.467  10.371
22874W        W88035  41.823  20.612   2.872
22875W        W88036  23.652  17.683   1.145
22876W        W88037   8.583  22.972   3.671
22877W        W88038   1.279  16.539  13.498
22878W        W88039  44.383  23.034   3.543
22879W        W88040  31.096   2.565   2.725
22880W        W88041  11.607  20.898  13.542
22881W        W88042   9.914  26.624   3.640
22882W        W88043   1.319  18.921  11.865
22883W        W88044  16.717  14.481   5.041
22884W        W88045  17.631  18.120  12.474
22885W        W88046   7.132  41.932   0.855
22886W        W88047  18.641  14.610   1.413
22887W        W88048   2.021   8.914   3.370
22888W        W88049   7.078  44.992  13.397
22889W        W88050  11.800  35.799   0.261
22890W        W88051  16.249  11.166  13.953
22891W        W88052  44.931  25.053  12.837
22892W        W88053  35.021  34.066  12.925
22893W        W88054  42.803  28.207   0.345
22894W        W88055  30.194  30.009  11.357
22895W        W88056   4.181   1.495  13.082
22896W        W88057  26.579  33.951   1.887
22897W        W88058  39.104  14.739  14.823
22898W        W88059   3.979  19.831   0.815
22899W        W88060  18.795   3.309  13.024
22900W        W88061  43.206   3.686  10.872
22901W        W88062  25.544  22.499   0.722
22902W        W88063  11.045   1.003   0.327
22903W        W88064  41.873  19.101  11.677
22904W        W88065   6.656  17.142   2.746
22905W        W88066  30.169  20.766   3.277
22906W        W88067   5.710  40.121   2.784
22907W        W88068  18.796  18.928   3.878
22908W        W88069   2.427  20.798   4.767
22909W        W88070  36.042  12.163  13.874
22910W        W88071  16.569   7.283  10.867
22911W        W88072  17.394   6.864   3.192
22912W        W88073  44.575  39.815  13.897
22913W        W88074  33.451   8.861   4.008
22914W        W88075  39.057  32.085  14.979
22915W        W88076  10.804  34.391   4.276
22916W        W88077  36.486   6.534   0.972
22917W        W88078  14.147  15.362  13.660
22918W        W88079  22.582   3.814   0.500
22919W        W88080  40.095  32.853   1.283
22920W        W88081  41.004  43.995  10.781
22921W        W88082  39.847   0.187   4.043
22922W        W88083  38.091  40.787   5.033
22923W        W88084  12.262  40.937  11.168
22924W        W88085  29.316  37.835  11.530
22925W        W88086   4.897   7.697  14.720
22926W        W88087  12.666   3.278  12.551
22927W        W88088  42.406  34.381  13.816
22928W        W88089  24.628  37.310   0.372
22929W        W88090  23.592   4.713   4.666
22930W        W88091  22.129   3.163   3.146
22931W        W88092  33.349   6.843   3.587
22932W        W88093  31.018  15.922  12.421
22933W        W88094  24.072   1.247  12.055
22934W        W88095  35.831  23.179  10.732
22935W        W88096  38.912  37.815  12.991
22936W        W88097  17.209  42.888   3.663
22937W        W88098  32.448  29.401  12.495
22938W        W88099  40.118   1.732  13.563
22939W        W88100  15.573  27.272  13.157
22940W        W88101  13.108  17.848   4.640
22941W        W88102  17.989  28.514   4.599
22942W        W88103  29.640   4.009  13.963
22943W        W88104  42.373  33.303  10.973
22944W        W88105  42.442  42.023   3.378
22945W        W88106   6.777   6.642  14.184
22946W        W88107  42.941  26.630   3.192
22947W        W88108  36.469  35.592   4.878
22948W        W88109  25.518  20.621  13.894
22949W        W88110  39.077  35.097   2.364
22950W        W88111  21.242  30.470  10.777
22951W        W88112  13.555  11.751  14.395
22952W        W88113  27.068  32.109   0.368
22953W        W88114  10.163  20.788  14.786
22954W        W88115  34.432  41.898  14.001
22955W        W88116   1.169   8.253   4.144
22956W        W88117  22.563  15.196   0.933
22957W        W88118  41.492  26.679   0.293
22958W        W88119  14.126  21.601  11.025
22959W        W88120  15.897  33.061   4.600
22960W        W88121  21.779  35.827   4.178
22961W        W88122  44.534   1.809  14.841
22962W        W88123  12.305  11.275   2.982
22963W        W88124   9.863  12.782  11.290
22964W        W88125  19.708  30.043   1.112
22965W        W88126  13.255  14.641  12.092
22966W        W88127  41.921  34.412   1.360
22967W        W88128   5.275  16.241   0.211
22968W        W88129  22.059   1.506   5.041
22969W        W88130  40.253  40.914   0.884
22970W        W88131   1.611  22.812  11.618
22971W        W88132  21.630  39.929  12.549
22972W        W88133  38.385  10.742   1.422
22973W        W88134   9.632  24.618  11.415
22974W        W88135  35.733  20.104   4.075
22975W        W88136   0.734  25.841  10.640
22976W        W88137  22.659  43.550  12.996
22977W        W88138  20.790   5.769  14.411
22978W        W88139  26.590  15.351   2.726
22979W        W88140  16.807  42.377   1.444
22980W        W88141  24.533  33.651  11.492
22981W        W88142  28.704   4.751   4.158
22982W        W88143  10.490   4.659  10.080
22983W        W88144  42.538   8.505  12.612
22984W        W88145  32.025  31.950   3.794
22985W        W88146  31.030  30.404  12.605
22986W        W88147  21.674  28.829  12.956
22987W        W88148  43.577  13.859   0.964
22988W        W88149  25.552  28.178   1.266
22989W        W88150   5.637  31.934  13.699
22990W        W88151  44.022  22.682   1.701
22991W        W88152  19.319  38.460  13.082
22992W        W88153  32.614   7.347  10.407
22993W        W88154  31.344  27.194   1.266
22994W        W88155  33.140  18.006  14.124
22995W        W88156   8.331  25.688   0.260
22996W        W88157  32.110  19.328  10.773
22997W        W88158  29.943  14.414  11.601
22998W        W88159  42.438  21.449   2.843
22999W        W88160  35.378  40.608   0.790
23000W        W88161   4.951   2.053   2.491
23001W        W88162   2.399  44.945   3.603
23002W        W88163  40.002   5.903   2.828
23003W        W88164  26.697  41.476   0.348
23004W        W88165  35.628  30.711   1.833
23005W        W88166   3.844  15.714  12.814
23006W        W88167  27.755   2.375  13.526
23007W        W88168  41.498  33.102   3.620
23008W        W88169  21.641  11.307  12.565
23009W        W88170   1.837  32.994   1.784
23010W        W88171  18.160   2.234  13.127
23011W        W88172   2.766  44.366  10.701
23012W        W88173  33.419  22.338   3.383
23013W        W88174  21.728   2.769   0.454
23014W        W88175  26.931  20.659   2.372
23015W        W88176   3.790  35.041  11.591
23016W        W88177  30.094  28.501   4.528
23017W        W88178  36.617  41.895  10.263
23018W        W88179   7.363  16.594   0.339
23019W        W88180   9.571   6.163  10.977
23020W        W88181  38.326  21.870  12.217
23021W        W88182  25.735  36.719   2.867
23022W        W88183  30.746  36.627   2.635
23023W        W88184  38.779  40.530  14.378
23024W        W88185  10.816  43.206   0.455
23025W        W88186   1.784   5.449   2.011
23026W        W88187  11.809   7.985   2.735
23027W        W88188   0.658  24.217   3.448
23028W        W88189  33.422  43.428  10.014
23029W        W88190  15.183  17.652   4.289
23030W        W88191  10.415   7.722  13.929
23031W        W88192  41.847  23.198  10.442
23032W        W88193  41.052  23.163   3.806
23033W        W88194  15.717  33.333  10.721
23034W        W88195  36.871  36.115  12.961
23035W        W88196  42.539  22.623  14.539
23036W        W88197   4.251  31.845   2.658
23037W        W88198  42.965  30.517   4.837
23038W        W88199  41.546  26.559   3.401
23039W        W88200   6.198  11.623   0.819
23040W        W88201  18.245  10.570   0.984
23041W        W88202   2.437   7.353   1.387
23042W        W88203  10.327  21.410   1.489
23043W        W88204  30.003  35.895   0.745
23044W        W88205  31.558  31.455   2.566
23045W        W88206  22.625  43.287   4.723
23046W        W88207   7.733  41.250   1.295
23047W        W88208   6.696  17.555   3.057
23048W        W88209  29.207  44.386   3.348
23049W        W88210  23.738  26.995  10.537
23050W        W88211   0.058   6.917  12.371
23051W        W88212  10.185  15.729   3.726
23052W        W88213  28.233  24.249   9.814
23053W        W88214   7.349  33.622   3.570
23054W        W88215  35.953  17.265  14.589
23055W        W88216  13.116  15.710  12.905
23056W        W88217  21.055  18.724   3.361
23057W        W88218   8.070  17.490   1.791
23058W        W88219  28.733   0.917  13.918
23059W        W88220  21.575  42.980   1.603
23060W        W88221  36.108  38.040  10.539
23061W        W88222  10.256   9.115  12.854
23062W        W88223  16.287  19.730   2.757
23063W        W88224  32.974  19.874   4.284
23064W        W88225   9.270  24.096   4.371
23065W        W88226  26.659  13.501  11.698
23066W        W88227  34.630  20.543   1.855
23067W        W88228   3.868  22.525  14.574
23068W        W88229  30.192  36.430   0.034
23069W        W88230  24.722  11.999   0.093
23070W        W88231  42.789  34.952   2.659
23071W        W88232   8.749  39.864   0.773
23072W        W88233  32.634  44.848   3.771
23073W        W88234  15.905  43.420  10.692
23074W        W88235   9.143  15.058   2.418
23075W        W88236  19.106  37.775  10.553
23076W        W88237  17.192  22.540   4.524
23077W        W88238  37.684  33.593   3.628
23078W        W88239  37.942  36.059  11.061
23079W        W88240  31.080   5.160   3.110
23080W        W88241  39.543  23.309   1.711
23081W        W88242  24.268  18.176  12.605
23082W        W88243  13.309  43.307  10.788
23083W        W88244  11.206  38.325   0.631
23084W        W88245   3.164  17.610   0.523
23085W        W88246  32.203  16.701  11.571
23086W        W88247  27.383  22.443   9.908
23087W        W88248  28.696  41.549   1.262
23088W        W88249   8.472   2.419   3.706
23089W        W88250  12.539  21.551   1.717
23090W        W88251  10.610  31.397   1.964
23091W        W88252  11.692   4.995   4.587
23092W        W88253  31.700  44.916  13.516
23093W        W88254  17.854  14.503   3.604
23094W        W88255  30.820  15.201   3.016
23095W        W88256  23.626  17.621   0.624
23096W        W88257  15.378  10.223  12.461
23097W        W88258  43.485   7.810   4.263
23098W        W88259  13.637  18.291  14.961
23099W        W88260   6.331  38.845   1.605
23100W        W88261   0.478  25.246   4.074
23101W        W88262  34.450  40.314   3.161
23102W        W88263  27.703  13.162   2.848
23103W        W88264  22.975  40.568   1.630
23104W        W88265  31.914  35.064  12.909
23105W        W88266   1.930  11.275   2.300
23106W        W88267  11.433  27.066  12.486
23107W        W88268   8.588   8.185  12.589
23108W        W88269  24.450   6.237   4.225
23109W        W88270   3.771  23.336  11.694
23110W        W88271  10.728  24.561  13.541
23111W        W88272  37.607  11.591   0.475
23112W        W88273  13.914   0.846  11.276
23113W        W88274   2.238  13.344  10.224
23114W        W88275   4.259   5.013   0.324
23115W        W88276   4.318   8.352  14.303
23116W        W88277  31.243  42.620  11.966
23117W        W88278  29.028  21.228   4.306
23118W        W88279  17.827  34.970  10.818
23119W        W88280  29.207  37.609   5.458
23120W        W88281  38.994  35.665   3.027
23121W        W88282  30.362  37.468   4.113
23122W        W88283   7.726   3.690  13.961
23123W        W88284  17.800  14.048  10.958
23124W        W88285   1.492  24.684  14.845
23125W        W88286   1.793  12.194   9.944
23126W        W88287   5.793  22.054   2.354
23127W        W88288   9.102  31.621   3.220
23128W        W88289   2.602  18.656   2.714
23129W        W88290  12.893  28.647   1.334
23130W        W88291   5.661  39.130  11.486
23131W        W88292  21.518   9.925   4.190
23132W        W88293  43.838   8.591   0.328
23133W        W88294   3.679  40.940   2.393
23134W        W88295  21.522  30.693   3.732
23135W        W88296   9.534   5.320  11.028
23136W        W88297   5.200   6.214  14.389
23137W        W88298  14.764  23.892   1.881
23138W        W88299  29.872  39.754  14.936
23139W        W88300   1.307   5.609   4.140
23140W        W88301   6.620  16.333   2.204
23141W        W88302  21.158  43.022   2.922
23142W        W88303  10.662   9.958  14.859
23143W        W88304   2.202  13.829  13.976
23144W        W88305   5.910  17.190  10.400
23145W        W88306  26.826  41.493   2.606
23146W        W88307  44.726  15.637  11.569
23147W        W88308  12.899  43.779   0.871
23148W        W88309  17.351   1.507   0.271
23149W        W88310  36.036  12.586  10.759
23150W        W88311  30.024   2.504   4.546
23151W        W88312  33.879   9.843   2.997
23152W        W88313  20.560  25.430   2.402
23153W        W88314  31.654  18.701  11.607
23154W        W88315  17.821  36.943  12.430
23155W        W88316   4.759  44.755   4.608
23156W        W88317  25.726   6.589  12.458
23157W        W88318   9.898  10.869  14.877
23158W        W88319  15.257  33.509   4.920
23159W        W88320   9.350  36.024  13.307
23160W        W88321  26.950   4.639   4.179
23161W        W88322   5.546  40.259  11.135
23162W        W88323  12.752  15.389   0.859
23163W        W88324   0.602   5.196  14.519
23164W        W88325  12.733  37.595   0.838
23165W        W88326  38.738  27.380  12.886
23166W        W88327   0.269  44.443  13.396
23167W        W88328  11.916   1.502   0.466
23168W        W88329   2.700  41.382  13.473
23169W        W88330  36.905  19.173   3.436
23170W        W88331  27.555  43.535   0.170
23171W        W88332  43.967  21.379   1.048
23172W        W88333  39.998   5.193   2.262
23173W        W88334  32.997  13.613   1.393
23174W        W88335  13.104  28.196   0.202
23175W        W88336  40.456  31.692   2.314
23176W        W88337  26.267   7.498   3.762
23177W        W88338   9.705  44.402   3.669
23178W        W88339   2.010  31.984   2.227
23179W        W88340   0.242  32.705   2.260
23180W        W88341  34.649   5.429  12.471
23181W        W88342   3.802   1.906  14.318
23182W        W88343   8.206   4.473   4.643
23183W        W88344  36.673  22.662  13.453
23184W        W88345   5.969  25.074   0.290
23185W        W88346  38.562  27.157  14.046
23186W        W88347  19.016  18.215   4.208
23187W        W88348  10.950  33.129   3.067
23188W        W88349  18.270   2.741  13.023
23189W        W88350  37.061  37.572  13.783
23190W        W88351  19.947  36.768   3.607
23191W        W88352  20.057  32.121   4.582
23192W        W88353  20.288   9.137   0.721
23193W        W88354  15.053  26.538  12.768
23194W        W88355  25.062  40.399   2.371
23195W        W88356  16.805  37.355  12.353
23196W        W88357  35.253  17.119   4.109
23197W        W88358  39.571   9.286  14.816
23198W        W88359   6.958  14.982   0.654
23199W        W88360  35.435  34.616   1.695
23200W        W88361  19.220   1.408   2.910
23201W        W88362   8.129   7.156  11.136
23202W        W88363  31.460  33.475   3.170
23203W        W88364  42.898   1.743  13.532
23204W        W88365  22.716  36.008  11.485
23205W        W88366  28.487  16.833   1.467
23206W        W88367  28.026  22.968  13.508
23207W        W88368  37.241   5.332  11.536
23208W        W88369  40.872  38.910   0.029
23209W        W88370   0.871  35.842   2.144
23210W        W88371  30.557  40.749   0.823
23211W        W88372  25.280   2.373   4.025
23212W        W88373  26.428   1.349   2.127
23213W        W88374  24.790   4.193  12.842
23214W        W88375  32.440  32.375  13.826
23215W        W88376  18.268  29.544  12.126
23216W        W88377  41.987  13.432   0.841
23217W        W88378  25.673  16.267   5.673
23218W        W88379  27.672   7.389   4.900
23219W        W88380   4.517   9.890  12.594
23220W        W88381   2.445  26.414   3.609
23221W        W88382  32.648   4.748   3.090
23222W        W88383  15.604  33.370   0.881
23223W        W88384  38.837  18.890   1.374
23224W        W88385  44.840  35.857   1.499
23225W        W88386  18.178  35.210  10.515
23226W        W88387  11.634  14.108  10.671
23227W        W88388   8.827  42.536   0.045
23228W        W88389   7.728  39.043   1.817
23229W        W88390  38.458   1.646   4.677
23230W        W88391  19.111  26.240   4.071
23231W        W88392  16.871  34.313   0.760
23232W        W88393   1.355  30.162  14.582
23233W        W88394  43.441  19.342  14.246
23234W        W88395  14.050  17.619   1.199
23235W        W88396  10.601   3.842   1.884
23236W        W88397  39.586   2.440   4.518
23237W        W88398  25.922   3.128   0.574
23238W        W88399  28.663  23.088  11.835
23239W        W88400  17.456  23.003   4.637
23240W        W88401  43.402  22.549  10.568
23241W        W88402  23.359  40.207   1.731
23242W        W88403  34.424  35.474  14.229
23243W        W88404  22.164  27.268   4.505
23244W        W88405  11.704  25.898  10.693
23245W        W88406   0.367  10.436   0.812
23246W        W88407   9.711  23.114  10.460
23247W        W88408   5.884   9.004  14.890
23248W        W88409  21.594  15.000  14.485
23249W        W88410  16.566   6.950  10.478
23250W        W88411  23.183  17.629   1.368
23251W        W88412  39.310   4.822   4.617
23252W        W88413  19.234  13.801   0.756
23253W        W88414  13.121  10.692   3.237
23254W        W88415  44.844  25.995  10.611
23255W        W88416   4.939  30.688   2.012
23256W        W88417   5.240  10.953  11.806
23257W        W88418  33.072   3.802  14.826
23258W        W88419  25.296   0.254   4.081
23259W        W88420  22.877  31.465   1.239
23260W        W88421  23.819   6.177   3.296
23261W        W88422  25.718  22.935   1.680
23262W        W88423  19.329  19.561   3.902
23263W        W88424  17.780  18.568   1.147
23264W        W88425   0.896  34.437  12.323
23265W        W88426  27.497  23.255   3.668
23266W        W88427  19.376   4.852  12.789
23267W        W88428  41.283  14.073   3.273
23268W        W88429  36.950  22.310   3.491
23269W        W88430  37.112   3.188  11.557
23270W        W88431  33.969  14.084   1.570
23271W        W88432  23.704  43.375   5.021
23272W        W88433   7.525   1.321   2.446
23273W        W88434  29.988   8.289  11.557
23274W        W88435  29.264   2.158  12.056
23275W        W88436   7.769   5.903  13.601
23276W        W88437  24.806  36.332   4.115
23277W        W88438  28.071  17.453   3.725
23278W        W88439  23.660   2.095  13.852
23279W        W88440  16.570  24.679  14.111
23280W        W88441  39.003   7.883  10.774
23281W        W88442   5.023  14.745   0.566
23282W        W88443  29.459  32.540   3.677
23283W        W88444  42.075  35.573   3.617
23284W        W88445  20.174   1.548   1.466
23285W        W88446   2.009  34.515   2.779
23286W        W88447  40.817  10.037   2.491
23287W        W88448  25.505   1.184  14.829
23288W        W88449  39.824  25.544   4.127
23289W        W88450  33.783  41.671  10.735
23290W        W88451  43.064  18.097  11.847
23291W        W88452   4.614  43.359  14.154
23292W        W88453  14.356  35.263   0.942
23293W        W88454  43.528  18.995  11.820
23294W        W88455   7.157  17.520   1.319
23295W        W88456   7.884   2.822  13.006
23296W        W88457   8.121  27.922  12.546
23297W        W88458  36.094  17.357   0.079
23298W        W88459  42.939  44.984  13.308
23299W        W88460   3.885  37.238   1.436
23300W        W88461  24.070  16.250   4.131
23301W        W88462  15.414  26.452   4.773
23302W        W88463  15.723  37.370   4.644
23303W        W88464   0.024  37.722   5.036
23304W        W88465  14.161  25.593  13.756
23305W        W88466  41.643  37.972  12.542
23306W        W88467  39.851  39.576   4.112
23307W        W88468  29.537  10.123  10.765
23308W        W88469  24.308   9.247   0.813
23309W        W88470  30.403  40.972  10.659
23310W        W88471  23.840  34.815   2.417
23311W        W88472  44.283  15.036   1.738
23312W        W88473   4.498  28.032  14.558
23313W        W88474   2.891   9.371   0.518
23314W        W88475  34.164  37.134   0.348
23315W        W88476  17.393   6.624   4.197
23316W        W88477  34.895   8.337   0.490
23317W        W88478  26.926   5.329  12.374
23318W        W88479  15.082  43.996   1.154
23319W        W88480  40.119  11.252  10.840
23320W        W88481   3.405  39.021   3.688
23321W        W88482   0.758  17.984   4.191
23322W        W88483   0.701  35.276   3.651
23323W        W88484  17.490  37.920  12.912
23324W        W88485  26.831  32.628   2.494
23325W        W88486  40.125  37.150   2.392
23326W        W88487  26.957  33.845   3.491
23327W        W88488   3.493  18.257   2.097
23328W        W88489   0.404  42.179   1.116
23329W        W88490  21.503  19.709   3.145
23330W        W88491  22.969  18.926  14.940
23331W        W88492  28.118  39.544   4.752
23332W        W88493   6.965  16.079   3.636
23333W        W88494  32.640   7.822   0.264
23334W        W88495  38.532  19.009  13.077
23335W        W88496  35.622  10.491  13.399
23336W        W88497   4.229  25.480  14.240
23337W        W88498  37.737   8.449  10.659
23338W        W88499  36.436  20.882  10.423
23339W        W88500  29.843  12.835   1.228
23340W        W88501  11.221  34.556  12.532
23341W        W88502  26.084  34.687  11.985
23342W        W88503  38.288  21.189   0.528
23343W        W88504  10.893  36.562   4.689
23344W        W88505  12.787  34.914   1.015
23345W        W88506  34.871   8.654   2.813
23346W        W88507   0.996  32.609  12.364
23347W        W88508  39.946   0.371   3.587
23348W        W88509  22.552   1.868  12.182
23349W        W88510  28.632   2.796   0.704
23350W        W88511  27.042   7.919  13.845
23351W        W88512  42.105  29.149  11.602
23352W        W88513   0.742  33.210   0.718
23353W        W88514  10.084  16.079   1.899
23354W        W88515  14.889   0.803  13.433
23355W        W88516  19.637  35.322   3.650
23356W        W88517  25.394  31.803   2.738
23357W        W88518  28.891   0.181   4.896
23358W        W88519  29.918  41.689  11.884
23359W        W88520  12.742  20.471  11.919
23360W        W88521  27.832   9.987   2.858
23361W        W88522  30.401  14.855  12.465
23362W        W88523  40.252  41.556  12.974
23363W        W88524  26.726  20.055  13.836
23364W        W88525   1.766   8.865  14.823
23365W        W88526  37.070  12.875   1.354
23366W        W88527   4.739  35.376  12.380
23367W        W88528  24.599   3.955   3.339
23368W        W88529  33.183  38.303   3.185
23369W        W88530  44.464  21.820   4.100
23370W        W88531  43.703  26.576  11.583
23371W        W88532  37.319  32.339   4.824
23372W        W88533  26.002  13.896   4.207
23373W        W88534   4.377  17.103   1.012
23374W        W88535  21.056  31.519  12.204
23375W        W88536  12.686  21.099   1.876
23376W        W88537   6.350   5.320  13.226
23377W        W88538  27.332  38.978  11.753
23378W        W88539   2.900  10.133   1.860
23379W        W88540   7.522  15.899   4.140
23380W        W88541  20.222  16.092   0.735
23381W        W88542  41.846  25.656   0.321
23382W        W88543  20.117  34.992  10.693
23383W        W88544  43.071  43.651  10.941
23384W        W88545   8.184  34.890  12.902
23385W        W88546   3.043   1.421  12.582
23386W        W88547  31.701  35.242   1.978
23387W        W88548  32.216  42.526   0.420
23388W        W88549  14.671  24.441   1.654
23389W        W88550  18.905  17.425   1.558
23390W        W88551  15.851  22.413   2.406
23391W        W88552   1.428   4.647   0.356
23392W        W88553  18.185   6.591  14.371
23393W        W88554  25.494  25.293  13.919
23394W        W88555   6.605  22.292   1.285
23395W        W88556  14.324  12.541  11.247
23396W        W88557  35.386  43.488   4.136
23397W        W88558  33.635  14.955  11.518
23398W        W88559  31.223  33.995   2.635
23399W        W88560  20.175  36.096   0.401
23400W        W88561  25.175  19.589  14.557
23401W        W88562  34.198  40.921   0.468
23402W        W88563  21.231  21.734   5.427
23403W        W88564  17.449  17.421   5.070
23404W        W88565  24.159   6.997   4.574
23405W        W88566  24.185   7.992  14.286
23406W        W88567  26.665   1.626   1.226
23407W        W88568  10.281  34.462   5.102
23408W        W88569  23.926   9.398  14.338
23409W        W88570   4.284  23.077   3.755
23410W        W88571  26.314  10.213   0.067
23411W        W88572  41.775  12.692  11.609
23412W        W88573  29.547  33.488   3.581
23413W        W88574  10.674  33.987  12.106
23414W        W88575  40.991  25.132  10.988
23415W        W88576  41.589  25.012   1.839
23416W        W88577   9.340  28.401   3.131
23417W        W88578  24.933  34.117  13.454
23418W        W88579  24.183  27.614  13.310
23419W        W88580  12.023  12.463  14.441
23420W        W88581  23.341  33.634  13.913
23421W        W88582   7.251  43.759   0.943
23422W        W88583   5.855  11.352  13.948
23423W        W88584  15.891  24.690   2.782
23424W        W88585  27.308  36.788   1.864
23425W        W88586  36.961  23.926  11.060
23426W        W88587  24.164  29.600  14.909
23427W        W88588  19.690  16.533   1.409
23428W        W88589  11.886   4.275   1.983
23429W        W88590   5.111  39.675  14.792
23430W        W88591  11.721  30.058  11.008
23431W        W88592  16.053   7.772   3.686
23432W        W88593   6.906  31.422   4.674
23433W        W88594  24.086  30.099   4.342
23434W        W88595  19.669  31.730   0.349
23435W        W88596  24.587   7.671   0.834
23436W        W88597  26.999   1.221   2.363
23437W        W88598  37.034  28.072   2.443
23438W        W88599   6.218   1.784  13.933
23439W        W88600  32.656  25.229   4.031
23440W        W88601  27.737  12.042  13.036
23441W        W88602  18.420  31.819   4.394
23442W        W88603  14.442  41.008   1.456
23443W        W88604  38.393  44.966   4.150
23444W        W88605   5.880  32.641   0.417
23445W        W88606  41.157  30.263   3.347
23446W        W88607  20.618  34.910   0.746
23447W        W88608  24.230   5.859  11.065
23448W        W88609  40.020  17.661   4.131
23449W        W88610  17.307   6.654  13.017
23450W        W88611  37.691   7.099   1.789
23451W        W88612  42.289  25.944  12.945
23452W        W88613  30.410   6.339  13.802
23453W        W88614  10.828  40.599  14.327
23454W        W88615  12.699  36.747   1.543
23455W        W88616   1.308  14.148  11.786
23456W        W88617  12.752  43.068   2.287
23457W        W88618  14.253  44.683  14.579
23458W        W88619  18.288  25.067   4.810
23459W        W88620   3.319  36.857   4.516
23460W        W88621  18.512  22.950   2.609
23461W        W88622   8.059  38.957  14.233
23462W        W88623  12.232  43.765   2.110
23463W        W88624  10.935   6.222   0.848
23464W        W88625   3.382  22.153  14.832
23465W        W88626  26.793   2.093   1.027
23466W        W88627  34.790   2.213  14.595
23467W        W88628  38.082  22.229  13.969
23468W        W88629  39.045  19.530  13.824
23469W        W88630  41.152   7.411   0.300
23470W        W88631   0.358  27.550  10.827
23471W        W88632  37.696  40.951  14.297
23472W        W88633  34.453  12.356  13.930
23473W        W88634  35.194  17.051   5.024
23474W        W88635  22.692  17.532  13.427
23475W        W88636   3.985  27.349  11.115
23476W        W88637  21.249  13.519   2.653
23477W        W88638  20.617  19.218   4.071
23478W        W88639  16.587  28.454   4.848
23479W        W88640  30.087  31.991   3.713
23480W        W88641  32.156  32.148  11.178
23481W        W88642   3.962  28.007  14.820
23482W        W88643   6.444   2.000   0.414
23483W        W88644  26.101  36.839  14.774
23484W        W88645  31.885  44.367   0.510
23485W        W88646  17.755  42.465   1.852
23486W        W88647  31.119  39.511  14.283
23487W        W88648  17.178  23.459   2.900
23488W        W88649   7.299  16.627   2.386
23489W        W88650  40.045  34.036  11.879
23490W        W88651  35.482  39.822  10.341
23491W        W88652   1.384  19.849  14.977
23492W        W88653  22.498  20.292   3.287
23493W        W88654  38.400  40.538  12.305
23494W        W88655  24.885   5.303  12.043
23495W        W88656  32.105  42.884  11.519
23496W        W88657  31.600  15.232   2.769
23497W        W88658   8.552  22.134  14.571
23498W        W88659  38.446  21.536   3.113
23499W        W88660  25.626  35.580  12.029
23500W        W88661  18.501  36.173   1.923
23501W        W88662   0.584  16.136   0.283
23502W        W88663  29.726  36.955   4.466
23503W        W88664  12.440   5.409  12.074
23504W        W88665  12.663  30.310  12.492
23505W        W88666  42.140  31.131   1.912
23506W        W88667  44.283  12.125   3.994
23507W        W88668  28.494  19.209   2.340
23508W        W88669  39.589   5.840  12.829
23509W        W88670  12.266  11.131  13.320
23510W        W88671  16.282  16.419   4.711
23511W        W88672  39.828  39.032   2.020
23512W        W88673  18.659  42.778  14.073
23513W        W88674  26.250  32.522  12.035
23514W        W88675   4.042   2.967   0.445
23515W        W88676  11.795  28.916   1.917
23516W        W88677  13.450  40.910   1.861
23517W        W88678  33.186  30.208  10.129
23518W        W88679  19.095  27.977   1.523
23519W        W88680  16.190  11.711   2.819
23520W        W88681  44.961  23.923   0.975
23521W        W88682  10.787  20.600  11.425
23522W        W88683  24.252  39.898   3.285
23523W        W88684  26.539  12.636   0.995
23524W        W88685  38.910  23.753  11.192
23525W        W88686   0.439  30.607   2.627
23526W        W88687  44.032  24.565  12.546
23527W        W88688  12.460  43.372  12.973
23528W        W88689   3.804  21.180  14.906
23529W        W88690  40.150   2.023   3.766
23530W        W88691   0.224   7.853   3.024
23531W        W88692  37.002  32.882  12.032
23532W        W88693  25.008  30.323   3.856
23533W        W88694   7.654  20.162   0.097
23534W        W88695  21.102   6.385   0.784
23535W        W88696  14.533  19.212  10.318
23536W        W88697   8.439  41.028   0.982
23537W        W88698  11.068  37.898   4.775
23538W        W88699  14.954  41.724  10.724
23539W        W88700  36.293  17.831   0.984
23540W        W88701  32.657  24.156  11.462
23541W        W88702  20.140  29.881  14.411
23542W        W88703  24.237   7.217  10.810
23543W        W88704   5.743   4.185  12.466
23544W        W88705  42.913  11.701   1.986
23545W        W88706   3.190   7.917  12.429
23546W        W88707   6.693  10.474   0.341
23547W        W88708  41.066  30.086   3.819
23548W        W88709   7.915  36.515   2.652
23549W        W88710   4.803  11.207   9.674
23550W        W88711  14.142  35.963   4.176
23551W        W88712  39.351   6.111   4.288
23552W        W88713  11.175  16.639   3.697
23553W        W88714  16.166  27.909   0.290
23554W        W88715  27.054  16.512  10.915
23555W        W88716   9.307   5.539   4.455
23556W        W88717  26.203  39.553  10.153
23557W        W88718  39.629  34.072  12.172
23558W        W88719  33.289  43.315  12.900
23559W        W88720  43.530   2.981  11.561
23560W        W88721   3.692  24.547   3.804
23561W        W88722  38.465  17.081   3.314
23562W        W88723  19.124  42.824   0.321
23563W        W88724   1.285  39.914  10.719
23564W        W88725  15.866  23.897  12.808
23565W        W88726  44.267   6.731   3.181
23566W        W88727   2.215  44.465   1.475
23567W        W88728  31.233   4.123  11.223
23568W        W88729  26.218  35.397  13.002
23569W        W88730  23.673  37.802  11.198
23570W        W88731  39.586   5.449  10.273
23571W        W88732  42.315  13.671  13.600
23572W        W88733   8.270  42.070   4.887
23573W        W88734  12.670  20.176   2.082
23574W        W88735  13.224  26.113   1.277
23575W        W88736  29.586  13.272   1.380
23576W        W88737  28.339  33.148  12.580
23577W        W88738   3.573   8.649  14.502
23578W        W88739  21.441   1.888   4.242
23579W        W88740   9.058  12.942  10.466
23580W        W88741   2.840   6.370  12.962
23581W        W88742   7.492  13.628  11.156
23582W        W88743  44.799  33.090  14.028
23583W        W88744  38.072  14.940   1.491
23584W        W88745  20.530  18.169   1.692
23585W        W88746  41.567  33.342  14.251
23586W        W88747  37.017  44.610  10.889
23587W        W88748  31.676  20.010  14.632
23588W        W88749  22.807  29.404  14.696
23589W        W88750  15.693   0.243   3.294
23590W        W88751   4.912   0.450  13.852
23591W        W88752  39.545  16.580  12.900
23592W        W88753  22.227  17.870  14.896
23593W        W88754  13.392  38.107  12.533
23594W        W88755  43.688  18.831  13.513
23595W        W88756  43.039   7.724   2.788
23596W        W88757  39.850  22.848  13.019
23597W        W88758  13.474  14.569  14.407
23598W        W88759  26.117  20.055   4.252
23599W        W88760  33.114  21.807  11.843
23600W        W88761  44.907  33.371  12.351
23601W        W88762  36.300  13.400   1.085
23602W        W88763  37.972  19.180   0.951
23603W        W88764  42.407   9.789   4.186
23604W        W88765  14.359  19.835  14.741
23605W        W88766  13.100  10.085  13.354
23606W        W88767  23.040  23.465   0.226
23607W        W88768  20.412  14.952  14.931
23608W        W88769   1.701   2.911   0.605
23609W        W88770   6.142  31.181   4.204
23610W        W88771  38.977   8.128   2.268
23611W        W88772  38.532  34.827   0.023
23612W        W88773  33.497  43.998   2.073
23613W        W88774  25.042  20.821   0.040
23614W        W88775  44.138   5.465  14.898
23615W        W88776  23.236  14.099  10.819
23616W        W88777  31.697  36.416  11.549
23617W        W88778  23.244  20.234  14.279
23618W        W88779  44.424  32.572   4.920
23619W        W88780  25.481  41.492  11.120
23620W        W88781  16.593  21.061   0.537
23621W        W88782  12.924  30.020  13.667
23622W        W88783  27.126   6.966   1.927
23623W        W88784  35.539  25.585  14.871
23624W        W88785  21.387  41.593   2.646
23625W        W88786  32.339  39.778  13.422
23626W        W88787  43.925  24.216   2.879
23627W        W88788   1.977  15.059   2.906
23628W        W88789  44.799  21.188   4.554
23629W        W88790  29.223  26.091  14.096
23630W        W88791  10.479   8.261  11.062
23631W        W88792  25.499  24.063   1.868
23632W        W88793  27.374  12.806  13.335
23633W        W88794   6.269  20.685  12.900
23634W        W88795   3.909  35.162  14.353
23635W        W88796   7.188  35.442   0.946
23636W        W88797   4.035  40.682  12.806
23637W        W88798  24.045  32.475   2.789
23638W        W88799  32.948   3.191  12.938
23639W        W88800  12.251   4.973   3.188
23640W        W88801   4.010  18.315   2.808
23641W        W88802  15.185   0.947   0.720
23642W        W88803  10.077   6.806  13.100
23643W        W88804   8.717  22.923  12.082
23644W        W88805   5.218   6.256   4.114
23645W        W88806  36.490  23.719   4.549
23646W        W88807  25.218  37.842  13.213
23647W        W88808  33.018  22.070  13.382
23648W        W88809   4.118   5.912   4.514
23649W        W88810   8.875  29.005  10.746
23650W        W88811  26.045   6.511   0.476
23651W        W88812  24.013  23.472   3.995
23652W        W88813  30.706  40.513   0.375
23653W        W88814  37.031  42.891   4.974
23654W        W88815  16.783  25.124   2.466
23655W        W88816  14.699  17.081  11.187
23656W        W88817   0.027   0.656  13.772
23657W        W88818  15.213   9.927  10.723
23658W        W88819   5.000  38.854   4.548
23659W        W88820  19.539  39.908   0.293
23660W        W88821  24.863  29.897  11.075
23661W        W88822  34.089  12.211  11.134
23662W        W88823  27.249  32.404  12.096
23663W        W88824  10.752  41.614   1.625
23664W        W88825  10.843  37.355   0.547
23665W        W88826   5.387   6.876  13.173
23666W        W88827   2.612  10.710   2.675
23667W        W88828   3.858  40.899  13.727
23668W        W88829  13.066  23.696   2.125
23669W        W88830   9.335  25.689   2.105
23670W        W88831  12.656  26.519   4.523
23671W        W88832   9.290  31.945  11.662
23672W        W88833  16.826  26.094   0.984
23673W        W88834  22.140  19.931  10.917
23674W        W88835  15.168  36.078  12.269
23675W        W88836   7.689  27.619   3.287
23676W        W88837  13.917  31.646  13.512
23677W        W88838   4.337  30.463   0.314
23678W        W88839  10.293  35.315  11.012
23679W        W88840  17.850  32.848  13.142
23680W        W88841  25.965   2.185  12.334
23681W        W88842  14.794   4.832   0.971
23682W        W88843  21.200  31.940   4.075
23683W        W88844  12.210  34.377  14.875
23684W        W88845  11.321   6.177  12.924
23685W        W88846  24.655   4.026   1.448
23686W        W88847  17.221   0.657  13.962
23687W        W88848  39.453  44.367   0.597
23688W        W88849  24.025  10.077   1.785
23689W        W88850   6.757  41.707  12.507
23690W        W88851  12.367   6.414  14.928
23691W        W88852  26.016   5.132  10.481
23692W        W88853  40.063  23.743   4.133
23693W        W88854   7.414  33.577  13.123
23694W        W88855  27.595  29.988  12.840
23695W        W88856  44.884   9.126   3.682
23696W        W88857  22.680   7.475  10.838
23697W        W88858  18.415  25.632  11.606
23698W        W88859   9.295   5.669  13.464
23699W        W88860  25.399  10.963   0.806
23700W        W88861  37.347  19.809   3.783
23701W        W88862  31.591  23.046  12.415
23702W        W88863   9.541  25.471  11.877
23703W        W88864  29.910   9.377   4.887
23704W        W88865   4.069   1.518  12.021
23705W        W88866  33.756   2.916   4.273
23706W        W88867  34.204   4.357   3.329
23707W        W88868  23.337  11.694   9.921
23708W        W88869  39.422   3.196  12.310
23709W        W88870  44.826   1.883   4.552
23710W        W88871  30.551  14.602  10.751
23711W        W88872  11.890  12.375   1.980
23712W        W88873  40.850  21.242  14.352
23713W        W88874  19.979   3.725   3.149
23714W        W88875   5.407  38.711  10.679
23715W        W88876  16.123  36.515   0.418
23716W        W88877  34.009  12.019   3.511
23717W        W88878  27.765  34.243   0.736
23718W        W88879  42.901  39.512   4.194
23719W        W88880  33.104  22.861  12.216
23720W        W88881  20.207  40.497   4.072
23721W        W88882  25.010  41.903   0.854
23722W        W88883  10.262  17.352   4.511
23723W        W88884  15.381  33.176   4.530
23724W        W88885  11.085   9.647   0.215
23725W        W88886  12.577  14.592  11.401
23726W        W88887  34.362   1.209  11.584
23727W        W88888   9.802  44.049  14.834
23728W        W88889  21.504  28.201   2.443
23729W        W88890  11.085   5.631  11.530
23730W        W88891  13.608  28.271   2.150
23731W        W88892  40.321   3.178  14.331
23732W        W88893  29.003  24.430   1.335
23733W        W88894   7.383  35.008  13.572
23734W        W88895  16.416  27.891   2.833
23735W        W88896   4.830   2.466   2.187
23736W        W88897  37.235  12.080   2.443
23737W        W88898   7.621  16.290  14.376
23738W        W88899  26.478  23.221   4.971
23739W        W88900  19.077  21.842  13.558
23740W        W88901   0.334   1.888   0.745
23741W        W88902   7.299  21.726   1.652
23742W        W88903   9.424   2.369   0.016
23743W        W88904  37.536  22.285   4.289
23744W        W88905  22.066  11.839   2.927
23745W        W88906  31.954   1.283   4.575
23746W        W88907   4.288  22.711   1.841
23747W        W88908  21.561  34.873  10.724
23748W        W88909  12.731  20.606  12.958
23749W        W88910  32.389  42.366   3.273
23750W        W88911   9.267  12.666  12.397
23751W        W88912  32.713  13.735   2.831
23752W        W88913   7.239  38.978   3.873
23753W        W88914  22.532  44.765   4.251
23754W        W88915  18.498   1.475  13.481
23755W        W88916   8.120   4.451   2.879
23756W        W88917  24.154  37.848  14.641
23757W        W88918  43.997  26.584  11.165
23758W        W88919   7.294   0.839  14.428
23759W        W88920  43.761  20.861   1.751
23760W        W88921   6.261  29.164  14.382
23761W        W88922  44.458   0.896  13.318
23762W        W88923  17.833  22.759  14.251
23763W        W88924  25.385  14.408   1.248
23764W        W88925   6.350  29.545   4.464
23765W        W88926   2.271  12.629   3.199
23766W        W88927  13.658  33.315   4.630
23767W        W88928  15.696   1.507   1.290
23768W        W88929  26.118   9.001   3.622
23769W        W88930   7.733   6.740  11.560
23770W        W88931  16.169  28.117  13.928
23771W        W88932  18.261  19.776  11.545
23772W        W88933  34.494  30.011  13.917
23773W        W88934  12.293  22.626  11.599
23774W        W88935  23.579   3.954   3.079
23775W        W88936  41.560  41.407   4.722
23776W        W88937  17.298   0.242  14.843
23777W        W88938  41.851   9.379   1.597
23778W        W88939  29.324  10.078   1.715
23779W        W88940   2.434  14.208  13.198
23780W        W88941  15.983  19.966  10.557
23781W        W88942  43.809  18.184   3.621
23782W        W88943  17.728  28.199   0.505
23783W        W88944  18.112  30.549  13.913
23784W        W88945  23.079   5.769  12.064
23785W        W88946  24.996  33.409   1.737
23786W        W88947  37.759   5.504  11.063
23787W        W88948   1.423  37.072  13.959
23788W        W88949   8.385   4.177  12.961
23789W        W88950  25.609  18.675  11.597
23790W        W88951   0.271  30.716  11.192
23791W        W88952   2.737  16.626  11.069
23792W        W88953  18.681  35.472   2.148
23793W        W88954  22.663  22.481  14.463
23794W        W88955  44.207   4.699   2.570
23795W        W88956  15.268   1.371   4.525
23796W        W88957  38.287  42.411   3.220
23797W        W88958  32.161  35.080   1.789
23798W        W88959  31.151  23.520   0.379
23799W        W88960  30.408  32.558   4.633
23800W        W88961  16.510  27.498  13.538
23801W        W88962  20.602  34.187   4.923
23802W        W88963  44.585  10.219  11.500
23803W        W88964  19.214  19.126   3.651
23804W        W88965  39.584  15.087   4.319
23805W        W88966  28.030   8.266   3.145
23806W        W88967  28.428  28.555  11.159
23807W        W88968   8.867  36.425   5.013
23808W        W88969  10.136  15.964   3.278
23809W        W88970  12.403  19.459   3.345
23810W        W88971  36.961  37.779   3.970
23811W        W88972  40.900  13.791   3.527
23812W        W88973  20.839  36.286   1.517
23813W        W88974   4.956  41.538  11.119
23814W        W88975  35.268   1.392   2.851
23815W        W88976  43.439  26.388  13.241
23816W        W88977  12.165  30.551   3.289
23817W        W88978   8.347  33.865   1.102
23818W        W88979  26.054  28.707  12.555
23819W        W88980  42.481  21.414  12.148
23820W        W88981  28.007  22.796   1.277
23821W        W88982  43.229  30.542  13.838
23822W        W88983   0.716  10.200   2.717
23823W        W88984  28.451   3.691  14.311
23824W        W88985  15.565  13.405   4.989
23825W        W88986  41.849  25.438   1.881
23826W        W88987  26.484  10.761   1.462
23827W        W88988  13.696  10.824  11.086
23828W        W88989   0.819  13.890   1.345
23829W        W88990  33.104  12.940  13.426
23830W        W88991  37.475  23.908   0.399
23831W        W88992  36.030  11.500  12.056
23832W        W88993  11.735  33.455  12.340
23833W        W88994  29.679  14.643   4.869
23834W        W88995  36.048  24.590  14.049
23835W        W88996  32.130  10.614   4.411
23836W        W88997  14.169   6.426  11.215
23837W        W88998  40.282  10.420   4.557
23838W        W88999  17.157   9.833  11.055
23839W        W89000  11.665  38.300   1.881
23840W        W89001  36.318  29.873  11.581
23841W        W89002  31.068  39.518   0.680
23842W        W89003  38.847  42.477  11.131
23843W        W89004  42.000  31.131   4.537
23844W        W89005  38.384  40.763   1.030
23845W        W89006   9.091   0.371   3.131
23846W        W89007   7.451  31.700  13.550
23847W        W89008  13.303   2.952  13.326
23848W        W89009  11.875  37.817   0.925
23849W        W89010   8.862  30.709  13.470
23850W        W89011  27.369  43.292  11.051
23851W        W89012  22.207  29.607  10.874
23852W        W89013  29.236  13.769   1.316
23853W        W89014  23.188   7.985   2.009
23854W        W89015  37.328   0.771  11.634
23855W        W89016  28.932  15.111   0.875
23856W        W89017  10.089  27.949   1.276
23857W        W89018   1.048  29.190  11.974
23858W        W89019  12.148   5.485  13.817
23859W        W89020   8.785   2.910   4.304
23860W        W89021  34.959   5.318  14.034
23861W        W89022  17.750   1.182   4.571
23862W        W89023  35.203  19.236  11.603
23863W        W89024  17.928   0.849  11.623
23864W        W89025   6.748  41.198  12.468
23865W        W89026  28.705  33.416  12.322
23866W        W89027  35.602  13.275   4.501
23867W        W89028  12.568  17.746   3.245
23868W        W89029   2.875  30.838   0.963
23869W        W89030  23.156  33.428  10.327
23870W        W89031  13.597  38.570  12.538
23871W        W89032   6.706  11.610  13.763
23872W        W89033   1.332   6.830   4.764
23873W        W89034  18.208  27.890  13.860
23874W        W89035  16.538   6.179  13.916
23875W        W89036  15.149  29.877  11.528
23876W        W89037  43.935  33.030   1.410
23877W        W89038  38.831  38.514   4.507
23878W        W89039  31.496   2.198   1.409
23879W        W89040  12.669  30.665   1.468
23880W        W89041   5.548  29.669   1.107
23881W        W89042   5.864   1.125  14.582
23882W        W89043  27.669  17.528  14.591
23883W        W89044   4.449  42.530  13.955
23884W        W89045  38.066  39.532  14.012
23885W        W89046  34.645  11.591  12.458
23886W        W89047  40.625  37.503   1.100
23887W        W89048  16.170  38.304   3.795
23888W        W89049  31.564  18.772  13.100
23889W        W89050   4.148  31.626   2.167
23890W        W89051  27.697  10.549  14.732
23891W        W89052  34.390   6.770  14.980
23892W        W89053  18.862  28.666  12.932
23893W        W89054   8.267  32.254   4.593
23894W        W89055  31.846  42.865   2.738
23895W        W89056  19.302  43.880  12.133
23896W        W89057  18.599  29.126   1.688
23897W        W89058   2.085  36.589  10.221
23898W        W89059   0.255   8.315   1.778
23899W        W89060   8.679   4.894   0.436
23900W        W89061  20.021  29.519  11.192
23901W        W89062  11.391  28.181   0.710
23902W        W89063   8.193   2.905  12.463
23903W        W89064   9.818  30.522  13.453
23904W        W89065  15.727  38.853   0.335
23905W        W89066   5.139  43.864   3.459
23906W        W89067   8.070   3.749  11.427
23907W        W89068  38.581   7.643   3.139
23908W        W89069  37.541  28.695  11.134
23909W        W89070  36.327  22.009  14.172
23910W        W89071  35.616   1.301  14.996
23911W        W89072  43.367  22.058  13.398
23912W        W89073   4.519  22.077  10.923
23913W        W89074  38.521  42.463   2.194
23914W        W89075  31.659   2.244  13.284
23915W        W89076  32.871  20.921  11.676
23916W        W89077  30.338   0.412   1.454
23917W        W89078  17.833  27.454  12.997
23918W        W89079  38.299  33.001  11.546
23919W        W89080   3.969  19.518  13.918
23920W        W89081  28.814  11.140   4.535
23921W        W89082   1.287  28.346   3.464
23922W        W89083   9.867   6.399  13.996
23923W        W89084   5.221  13.282  12.154
23924W        W89085   8.367  44.811   0.914
23925W        W89086   3.276  20.213   3.798
23926W        W89087  29.113  15.195   2.559
23927W        W89088  27.822   3.985   4.488
23928W        W89089  28.952   3.497  14.275
23929W        W89090  44.794  13.884  12.157
23930W        W89091  24.397  29.967  14.195
23931W        W89092  36.607  34.448  10.691
23932W        W89093  21.347   2.145  13.332
23933W        W89094  11.213   0.082   0.255
23934W        W89095   7.599  38.351   4.397
23935W        W89096  21.363  17.226   9.815
23936W        W89097  41.584  36.496  12.262
23937W        W89098  29.592   0.568   2.194
23938W        W89099  14.416  36.034  12.103
23939W        W89100  36.002   9.867   1.731
23940W        W89101  12.267  13.626   3.948
23941W        W89102  25.244   7.202  10.517
23942W        W89103   1.367  11.246  11.294
23943W        W89104  29.735  42.805  14.371
23944W        W89105  38.009   0.879   0.974
23945W        W89106  10.718   8.594  13.874
23946W        W89107   0.995  33.456  11.874
23947W        W89108   4.613   2.396  11.115
23948W        W89109  12.101  21.057   9.850
23949W        W89110  32.828  24.085   0.684
23950W        W89111   3.337  30.676   3.177
23951W        W89112  21.450  44.037  10.502
23952W        W89113   7.856  39.914   5.003
23953W        W89114  17.423  16.840  11.738
23954W        W89115  37.358  35.040   0.309
23955W        W89116  26.537   6.654   2.814
23956W        W89117  14.676   7.115   0.457
23957W        W89118  36.933  18.144  12.462
23958W        W89119   6.744  28.953   4.688
23959W        W89120  23.544  19.273   0.303
23960W        W89121  27.237  16.316  12.570
23961W        W89122  36.646  31.014   3.451
23962W        W89123  36.164  18.031  14.312
23963W        W89124   5.556  44.866  14.084
23964W        W89125  21.189  44.518   4.135
23965W        W89126  23.046  18.046   2.178
23966W        W89127  14.801  40.908  13.521
23967W        W89128  24.200  38.287   2.730
23968W        W89129  28.974  11.037  11.163
23969W        W89130   0.489  25.615  14.719
23970W        W89131  40.012  27.077   1.661
23971W        W89132  12.930  38.708  11.161
23972W        W89133  15.743  11.165  11.655
23973W        W89134  42.060   3.341  12.016
23974W        W89135  43.281  23.522  11.091
23975W        W89136  42.904   0.252   4.904
23976W        W89137  42.555  43.382  12.439
23977W        W89138   9.767  14.020   0.036
23978W        W89139  18.735   2.433  13.960
23979W        W89140  13.230   6.761   0.249
23980W        W89141  18.067  23.426   3.803
23981W        W89142   1.744  22.411   1.807
23982W        W89143   9.644   4.335   2.299
23983W        W89144   6.971  37.913   2.151
23984W        W89145  22.548  11.301   4.651
23985W        W89146   7.687  34.411  11.138
23986W        W89147  16.850  33.090   3.767
23987W        W89148  21.008   0.509   1.735
23988W        W89149  21.247  28.743  14.511
23989W        W89150  36.079  17.569   3.196
23990W        W89151  11.674  15.096   4.140
23991W        W89152  27.512  44.043   2.633
23992W        W89153  10.699  38.571   3.655
23993W        W89154   1.926  17.548   0.987
23994W        W89155  17.164   8.752   3.276
23995W        W89156  44.827  10.313  13.947
23996W        W89157  20.337  15.567   0.815
23997W        W89158  25.976  14.053  11.599
23998W        W89159   7.780   1.130  13.828
23999W        W89160  28.210  24.750   2.306
24000W        W89161   6.750  32.552  12.966
24001W        W89162   2.693  40.104  13.635
24002W        W89163  35.551  27.032   4.906
24003W        W89164  27.996  43.136   0.463
24004W        W89165   0.186   7.692  12.906
24005W        W89166  34.630   6.720  11.151
24006W        W89167  14.523  35.349   1.411
24007W        W89168  12.419  29.391   1.758
24008W        W89169  19.031  41.264   0.366
24009W        W89170  17.077   1.809  13.033
24010W        W89171  38.405  38.663  11.525
24011W        W89172  34.868   2.792  12.395
24012W        W89173  34.895  40.267   2.031
24013W        W89174  29.977  38.738  14.967
24014W        W89175  16.989   5.654   4.334
24015W        W89176  27.122  36.905   0.726
24016W        W89177  25.187  28.930  11.216
24017W        W89178  18.313  32.048  13.877
24018W        W89179   4.708  10.670  11.578
24019W        W89180  33.880  40.303  12.021
24020W        W89181  20.441  29.981  12.227
24021W        W89182  20.321  17.665   1.741
24022W        W89183  12.874  17.272  12.864
24023W        W89184  44.188   5.873  11.148
24024W        W89185  30.498  16.128  11.608
24025W        W89186  30.162  22.160   9.821
24026W        W89187   0.155  11.675   1.705
24027W        W89188  21.829  25.532  13.547
24028W        W89189  40.389  11.659  11.032
24029W        W89190  41.091   4.800   0.399
24030W        W89191  17.707   6.939   3.912
24031W        W89192   8.688   8.353   2.651
24032W        W89193  25.197  34.675   4.268
24033W        W89194  30.002  18.215   3.241
24034W        W89195  11.835  43.121  13.340
24035W        W89196  15.914  23.466   1.098
24036W        W89197   7.677  13.665   0.342
24037W        W89198  16.620  31.976  14.911
24038W        W89199  24.022  22.192   2.198
24039W        W89200  14.263   0.504   9.991
24040W        W89201  20.186   9.329   4.247
24041W        W89202  39.785   2.907   4.263
24042W        W89203  21.975   5.755  12.963
24043W        W89204   8.361  40.392   3.937
24044W        W89205   7.381  10.851   2.284
24045W        W89206  13.302  30.206  12.467
24046W        W89207  19.865  30.559   1.817
24047W        W89208  41.467  30.372   4.560
24048W        W89209  24.330  16.827  12.019
24049W        W89210  25.129  21.569  12.448
24050W        W89211  25.587  28.197  13.614
24051W        W89212  24.084  36.187  12.022
24052W        W89213   5.738  17.314  14.828
24053W        W89214  35.690   4.358  14.801
24054W        W89215  33.301  20.659  11.603
24055W        W89216  15.102  43.449   4.588
24056W        W89217  31.114  43.254   3.583
24057W        W89218  41.571  10.611  11.255
24058W        W89219  35.452   1.369   3.834
24059W        W89220   5.427  40.053  11.587
24060W        W89221  29.545  36.060   3.276
24061W        W89222  28.041  43.512   2.343
24062W        W89223   0.639  29.170   2.172
24063W        W89224  35.981   7.692  14.469
24064W        W89225  44.216  33.485  13.075
24065W        W89226  29.977   7.659   4.775
24066W        W89227  15.066  16.653   4.804
24067W        W89228  15.186   4.718   4.686
24068W        W89229  39.044  20.527   2.667
24069W        W89230   5.031  15.729  13.438
24070W        W89231  43.705  44.263  10.095
24071W        W89232  36.963  11.913   0.409
24072W        W89233   2.960  31.929  12.108
24073W        W89234   1.141  29.144  13.761
24074W        W89235  24.298  28.000   0.806
24075W        W89236  21.968  19.181   0.383
24076W        W89237  43.685  22.010  11.052
24077W        W89238  24.360  35.973  12.401
24078W        W89239  30.434  11.812  12.892
24079W        W89240   9.618  18.286  13.403
24080W        W89241  23.560  35.302  12.955
24081W        W89242  33.089  37.677  11.151
24082W        W89243   3.892  39.800   0.547
24083W        W89244  20.943  29.493   0.744
24084W        W89245  14.166  43.704  14.227
24085W        W89246  40.368  33.337   2.531
24086W        W89247   4.487  38.815   1.728
24087W        W89248  38.474  35.426   0.794
24088W        W89249  39.493  44.005  13.304
24089W        W89250  32.927   6.989   1.350
24090W        W89251  27.503   6.721   0.731
24091W        W89252  14.693  25.014  11.556
24092W        W89253   5.650   2.974   0.961
24093W        W89254  26.950  16.325  11.696
24094W        W89255  12.871  32.954   4.259
24095W        W89256   6.668  24.872   3.161
24096W        W89257  34.641  23.203   4.219
24097W        W89258  33.965  14.538  12.774
24098W        W89259  29.632   5.178  11.135
24099W        W89260  26.521   7.227   2.918
24100W        W89261   7.003   0.242  13.843
24101W        W89262  12.541  12.378  14.399
24102W        W89263   8.496  13.172   0.657
24103W        W89264  27.646  29.396  13.033
24104W        W89265   1.985  13.659   9.893
24105W        W89266  29.500  24.253   1.312
24106W        W89267  32.702  44.393  12.141
24107W        W89268   1.762  19.516   1.320
24108W        W89269  35.603  37.846  12.887
24109W        W89270  35.055  30.580   5.024
24110W        W89271  13.889  36.377  11.269
24111W        W89272  33.506  26.004   0.413
24112W        W89273  22.614  27.026   3.244
24113W        W89274  16.699  42.842   3.617
24114W        W89275  31.596  29.096  11.528
24115W        W89276  21.577   8.219   4.700
24116W        W89277  36.206  23.342   0.835
24117W        W89278  29.966  31.565   1.423
24118W        W89279  38.165  34.591   3.304
24119W        W89280  12.187  20.238   1.833
24120W        W89281  19.589  23.897   1.416
24121W        W89282  24.401  42.925   4.605
24122W        W89283  33.751   2.294   3.163
24123W        W89284  28.228  24.003  11.999
24124W        W89285  28.434   6.181  13.756
24125W        W89286  30.413  31.101  12.418
24126W        W89287  44.740  13.539  13.899
24127W        W89288  40.037  34.237  14.390
24128W        W89289  32.726   0.936  11.639
24129W        W89290  35.631   9.969  14.310
24130W        W89291  28.605  13.207  10.899
24131W        W89292  31.708   0.281   0.383
24132W        W89293  18.864  15.879  12.406
24133W        W89294   1.933  20.669   4.867
24134W        W89295  28.642  10.282   3.280
24135W        W89296  12.057   2.197  14.932
24136W        W89297  43.703  22.624   2.084
24137W        W89298   7.787  21.527   4.311
24138W        W89299  42.058   2.692  11.494
24139W        W89300  36.732  32.910  14.920
24140W        W89301  44.341  16.563   0.660
24141W        W89302  32.428  33.103   0.757
24142W        W89303  31.241  23.667   3.041
24143W        W89304  40.853   3.367  11.597
24144W        W89305  19.847  25.959   3.374
24145W        W89306  40.757  22.188   3.945
24146W        W89307   8.043  19.556  13.811
24147W        W89308  17.755  22.219  13.374
24148W        W89309  12.663  41.980   1.173
24149W        W89310  23.896  44.024  12.646
24150W        W89311  28.721  17.746   3.291
24151W        W89312  18.916   9.214  14.938
24152W        W89313  32.401  27.938   1.481
24153W        W89314  21.594  38.595  14.446
24154W        W89315   0.894  22.673   3.165
24155W        W89316  13.108  34.518   2.689
24156W        W89317  30.159   8.213  13.381
24157W        W89318   6.287  16.607  14.521
24158W        W89319  37.049  15.619  11.170
24159W        W89320   5.832  10.306   0.442
24160W        W89321  19.242  15.116   2.121
24161W        W89322  18.128   4.911   2.829
24162W        W89323   6.545   5.159   1.647
24163W        W89324  24.009  16.755   4.845
24164W        W89325  17.152  43.044  14.560
24165W        W89326   6.158  24.956   3.099
24166W        W89327   6.952  28.233  13.634
24167W        W89328  34.914   3.949   3.734
24168W        W89329  32.223  18.756  11.537
24169W        W89330   6.816  14.358  11.212
24170W        W89331  31.501   6.871   2.812
24171W        W89332  21.713  19.237   2.974
24172W        W89333  38.406  17.797   1.761
24173W        W89334  17.529  28.898  11.056
24174W        W89335  41.559  43.785  10.783
24175W        W89336  31.566  12.217  10.764
24176W        W89337  25.947  32.003   1.627
24177W        W89338  37.104  31.578  10.707
24178W        W89339   9.933   7.268  12.456
24179W        W89340  18.577   4.318  12.004
24180W        W89341  34.832  13.065  14.802
24181W        W89342  10.787  38.117   3.407
24182W        W89343  41.306   5.545   2.675
24183W        W89344   4.247  23.388  11.987
24184W        W89345  28.415  14.129   3.692
24185W        W89346  27.747  16.279  12.498
24186W        W89347  43.431  16.736  10.519
24187W        W89348  13.708  36.561   0.621
24188W        W89349  38.887  11.029   3.108
24189W        W89350  12.278  10.318   1.800
24190W        W89351  30.633   7.866   4.109
24191W        W89352  37.907  14.098   3.279
24192W        W89353  25.200  33.408   2.213
24193W        W89354  39.342  21.543   3.155
24194W        W89355   7.528  15.228   4.857
24195W        W89356   6.832  27.202   1.395
24196W        W89357  26.752  28.190  11.655
24197W        W89358  14.180  37.027   2.216
24198W        W89359  36.967  43.785   3.282
24199W        W89360   7.267  34.622   0.889
24200W        W89361  31.150  12.189  11.943
24201W        W89362  36.954  25.143   0.311
24202W        W89363   4.427  19.596   1.035
24203W        W89364  16.267  15.907   3.402
24204W        W89365  33.284  31.517  12.460
24205W        W89366   7.593  32.119  13.052
24206W        W89367   7.150  43.731   2.785
24207W        W89368  44.384   5.268  10.699
24208W        W89369  23.857   0.066   0.809
24209W        W89370  23.712  31.160  14.841
24210W        W89371  30.223  19.103  11.843
24211W        W89372  41.013  32.072   3.233
24212W        W89373  10.362  43.285   3.170
24213W        W89374  37.169  40.784  11.359
24214W        W89375  37.020  40.006   0.645
24215W        W89376  16.815  18.565  12.916
24216W        W89377   8.116  44.972   0.484
24217W        W89378  14.136  20.173   4.588
24218W        W89379  39.957  10.875  12.047
24219W        W89380  12.661  21.453   2.889
24220W        W89381  20.535   2.340  14.857
24221W        W89382  34.698  35.450   4.810
24222W        W89383  15.639   1.983   0.567
24223W        W89384   5.689   3.435   2.697
24224W        W89385   5.567  28.003   1.746
24225W        W89386   3.902  35.070   2.192
24226W        W89387  11.817  34.026   4.762
24227W        W89388  27.982   8.891   0.407
24228W        W89389  12.761  29.434   2.663
24229W        W89390  12.382   4.267   2.891
24230W        W89391   3.862  38.368   3.642
24231W        W89392   7.749  43.638   1.049
24232W        W89393   3.779   1.140  13.851
24233W        W89394   0.040  17.336  14.906
24234W        W89395   3.362  25.464  11.178
24235W        W89396  16.047  33.642   0.733
24236W        W89397  24.821   1.727  10.849
24237W        W89398  29.337  16.477  14.957
24238W        W89399  36.845  23.139  10.745
24239W        W89400  12.876  42.037   0.163
24240W        W89401  26.421   0.653   3.788
24241W        W89402  22.086  14.764   1.362
24242W        W89403  31.078  38.617  14.417
24243W        W89404  15.702  22.755   3.225
24244W        W89405  43.066   4.958   2.357
24245W        W89406  23.868   2.040  10.854
24246W        W89407  33.017   9.312  11.682
24247W        W89408   1.949  39.834   2.779
24248W        W89409   4.438   5.177  11.530
24249W        W89410  36.917  32.338  11.988
24250W        W89411  41.860  36.164  10.605
24251W        W89412  30.722  30.482  11.245
24252W        W89413  18.052  40.310   2.392
24253W        W89414   4.942  32.422   2.748
24254W        W89415  16.981   6.373   3.392
24255W        W89416   4.389  34.497   4.608
24256W        W89417  29.244  16.884  10.760
24257W        W89418  21.329   8.632  10.323
24258W        W89419  42.819  44.870   0.003
24259W        W89420  34.883  16.543  14.912
24260W        W89421  23.756  38.391   1.770
24261W        W89422   8.744  28.083   3.748
24262W        W89423  13.905  20.193   0.725
24263W        W89424  26.548  33.153  13.963
24264W        W89425  32.172  13.268   1.138
24265W        W89426   6.671  34.402  11.205
24266W        W89427  16.898  33.157   2.777
24267W        W89428  28.988   2.233  12.941
24268W        W89429  19.821   8.375   0.630
24269W        W89430  44.858   9.165  11.068
24270W        W89431  42.450  44.197   0.532
24271W        W89432  43.540   7.331  10.541
24272W        W89433  40.101  37.893   0.948
24273W        W89434  34.033   0.517   1.982
24274W        W89435   8.866   3.644  14.899
24275W        W89436   5.693  27.758  11.156
24276W        W89437  20.355  22.178  12.476
24277W        W89438  35.291  28.541  14.350
24278W        W89439   0.497  40.482   3.286
24279W        W89440  10.494  37.976  11.981
24280W        W89441  24.419  42.433  14.245
24281W        W89442  25.406  39.350  12.824
24282W        W89443  17.206  27.475   1.947
24283W        W89444  24.574  27.695  14.870
24284W        W89445  36.548  20.004  13.737
24285W        W89446  44.426  27.363   1.813
24286W        W89447  38.050  23.775   0.725
24287W        W89448  16.508   4.892  12.152
24288W        W89449   6.038  28.098   4.720
24289W        W89450  40.340   7.356  12.991
24290W        W89451   9.830   4.129   1.273
24291W        W89452  41.061  20.983  13.957
24292W        W89453  11.683  26.412  10.765
24293W        W89454  18.817  16.169   3.163
24294W        W89455  44.697  18.020   3.985
24295W        W89456  21.415  11.311   3.165
24296W        W89457  21.145  16.606   2.707
24297W        W89458  27.086   8.577  10.703
24298W        W89459  30.505  38.766  10.176
24299W        W89460  37.608   5.719   1.871
24300W        W89461  39.759  17.550   0.717
24301W        W89462  17.170  42.891  13.197
24302W        W89463  44.687  42.005  10.641
24303W        W89464  26.672  13.245   1.826
24304W        W89465  25.572  30.418   0.512
24305W        W89466  11.599  19.470   0.292
24306W        W89467  18.297  18.485   4.519
24307W        W89468  11.359  11.374  10.090
24308W        W89469  21.894  17.621   3.845
24309W        W89470  38.411   7.440  13.533
24310W        W89471  23.799  31.594  13.055
24311W        W89472  11.940  14.039  10.090
24312W        W89473  32.944  36.412  10.797
24313W        W89474   0.992  37.312   1.184
24314W        W89475  37.517  23.494  11.471
24315W        W89476  37.439  40.135   2.510
24316W        W89477  36.888  35.415   1.972
24317W        W89478  40.609  42.189   0.208
24318W        W89479  31.121  29.359  12.528
24319W        W89480  37.394  18.672  12.108
24320W        W89481  44.020  41.626  11.153
24321W        W89482   5.167   3.346  12.524
24322W        W89483  17.242  32.593  12.860
24323W        W89484  11.258  27.787  13.028
24324W        W89485   8.096  38.467  11.989
24325W        W89486  39.791   4.186   0.491
24326W        W89487  14.052   0.780   3.608
24327W        W89488  19.739  11.830   4.688
24328W        W89489  36.213  40.500   4.195
24329W        W89490  19.268  21.113   4.093
24330W        W89491  32.842  27.864  13.931
24331W        W89492  38.996  32.055   1.511
24332W        W89493  11.246  44.746   3.151
24333W        W89494  36.980  37.473  10.704
24334W        W89495   9.716  11.318  13.307
24335W        W89496   5.543  43.641  11.935
24336W        W89497   6.045   7.831  11.202
24337W        W89498  16.747  31.233  13.889
24338W        W89499  12.728  31.875  10.782
24339W        W89500   3.806  34.402  13.870
24340W        W89501  31.766   1.748  11.577
24341W        W89502  37.073  34.027   1.737
24342W        W89503  23.985  35.303   2.519
24343W        W89504   2.471   9.897   1.609
24344W        W89505  28.980  40.352  10.832
24345W        W89506  28.206   1.808  11.527
24346W        W89507  43.666  11.251  14.300
24347W        W89508  18.242  29.175   2.074
24348W        W89509  18.664  34.501  10.786
24349W        W89510   9.325  43.870  13.295
24350W        W89511  42.984  16.973  10.391
24351W        W89512  25.374  37.977  10.832
24352W        W89513   1.442  19.055   0.410
24353W        W89514  23.210   8.284  10.960
24354W        W89515   8.834  17.613   0.372
24355W        W89516   3.878   2.958  11.395
24356W        W89517  28.355   4.841  14.509
24357W        W89518  17.025  35.118  11.082
24358W        W89519  24.965  18.366  11.380
24359W        W89520  20.033   8.912  14.346
24360W        W89521  30.160  17.122   4.787
24361W        W89522  30.554  42.878  10.743
24362W        W89523   7.079  37.577  14.883
24363W        W89524  34.109  39.466  12.464
24364W        W89525   5.476   3.239   1.349
24365W        W89526  15.232   1.159   2.440
24366W        W89527  12.353  14.665   3.132
24367W        W89528  39.835  13.757  10.706
24368W        W89529  35.106  26.235  11.493
24369W        W89530  34.824   8.010  14.448
24370W        W89531   8.780  19.325   3.666
24371W        W89532  34.015  25.186  14.444
24372W        W89533  43.536  25.502  11.189
24373W        W89534   9.437  35.056  11.607
24374W        W89535  25.449  42.580  11.842
24375W        W89536   8.180   2.556  14.092
24376W        W89537  36.832  37.809  11.630
24377W        W89538  38.382  18.734  12.066
24378W        W89539  39.232  19.216   1.452
24379W        W89540  37.731  40.420   4.912
24380W        W89541  19.031  29.992  12.343
24381W        W89542   2.828   4.896  13.831
24382W        W89543   4.344   2.772  11.608
24383W        W89544  24.983  39.881  13.331
24384W        W89545  44.137  20.537  12.931
24385W        W89546  23.107  22.585  10.770
24386W        W89547  32.454  13.021  11.645
24387W        W89548  10.896   1.565   4.308
24388W        W89549  34.832  24.019  11.208
24389W        W89550  38.425  27.785  12.668
24390W        W89551   9.180  27.562   3.286
24391W        W89552  35.213  24.687  13.725
24392W        W89553  23.049  14.814  12.522
24393W        W89554  39.949   4.890  12.133
24394W        W89555  23.783  42.574   4.128
24395W        W89556  17.319  15.209  11.552
24396W        W89557  14.744  43.516   2.418
24397W        W89558  26.954  22.813   9.852
24398W        W89559  16.300   7.337  14.248
24399W        W89560  31.648  37.003   1.965
24400W        W89561  26.564   4.011   1.365
24401W        W89562  42.810  28.144  14.436
24402W        W89563   7.963  16.704  12.092
24403W        W89564  41.525  24.763  12.547
24404W        W89565  36.590  38.105  13.427
24405W        W89566  31.851  37.792  11.598
24406W        W89567  28.287  34.423  11.714
24407W        W89568  25.865   2.768   4.127
24408W        W89569  43.754  14.037   2.321
24409W        W89570  30.630  31.413  14.318
24410W        W89571  23.094  22.277   4.019
24411W        W89572   2.744   9.404   2.305
24412W        W89573  10.515   1.074  14.409
24413W        W89574   9.434   2.521   4.963
24414W        W89575  29.932  26.971   2.892
24415W        W89576  41.896  11.288   1.221
24416W        W89577  31.654  19.577  11.667
24417W        W89578  26.416  30.440   4.229
24418W        W89579  12.830  12.057   1.653
24419W        W89580  11.971  26.121   1.874
24420W        W89581  13.893  38.032   4.858
24421W        W89582  26.938   8.328   1.050
24422W        W89583   5.443  17.889  11.174
24423W        W89584  28.460  41.081  10.589
24424W        W89585   8.113  14.274   2.883
24425W        W89586  11.342  40.495   2.308
24426W        W89587   9.012   6.565   2.235
24427W        W89588  12.775   2.073   0.936
24428W        W89589  11.723  13.339  12.157
24429W        W89590   6.288   1.808  14.944
24430W        W89591  36.196  37.568   1.198
24431W        W89592  16.273  14.002   4.098
24432W        W89593  40.089  19.811  13.845
24433W        W89594  38.486  25.492  14.676
24434W        W89595  43.310  29.743   0.875
24435W        W89596  13.770  22.230   4.129
24436W        W89597  11.111  18.272   0.289
24437W        W89598   7.410  43.483  14.349
24438W        W89599  36.408  26.509   4.651
24439W        W89600  25.951  26.298   0.364
24440W        W89601  18.637  11.861  11.248
24441W        W89602  24.747  31.528  10.662
24442W        W89603  21.912   7.307   0.212
24443W        W89604  35.825  21.157   1.932
24444W        W89605  40.249  30.502   1.748
24445W        W89606   9.283  35.272  11.136
24446W        W89607  14.130   3.773   2.539
24447W        W89608  18.790   6.222  11.867
24448W        W89609   7.935  31.608  13.419
24449W        W89610  34.061  33.002  10.614
24450W        W89611  19.340  42.955  10.709
24451W        W89612  28.587   1.501  12.807
24452W        W89613  27.316  20.794   1.963
24453W        W89614  26.187  14.056   3.200
24454W        W89615  13.892  19.700  11.219
24455W        W89616   1.933  42.347   4.911
24456W        W89617  42.824   2.417  13.025
24457W        W89618  39.144  43.623  10.638
24458W        W89619   3.509  39.994  13.553
24459W        W89620  32.412  32.211   3.566
24460W        W89621  29.479  12.981   5.908
24461W        W89622  37.568  34.426   2.279
24462W        W89623  28.655  44.400   0.971
24463W        W89624  34.880  37.518   0.648
24464W        W89625  24.282  19.958   3.623
24465W        W89626  10.256   0.988  10.655
24466W        W89627  27.245  13.120  12.432
24467W        W89628  31.196  24.120  14.945
24468W        W89629  15.275  20.645   4.163
24469W        W89630  35.086   4.133   0.534
24470W        W89631  37.869  19.250   4.808
24471W        W89632  17.741  38.732  12.048
24472W        W89633   7.451   8.704  10.717
24473W        W89634  30.874  38.602  12.110
24474W        W89635  15.145  19.458   3.708
24475W        W89636  20.571  14.895   3.489
24476W        W89637  10.290  21.375   4.708
24477W        W89638   4.126  32.464   3.179
24478W        W89639  25.185  17.760   2.269
24479W        W89640   2.852  44.448  10.186
24480W        W89641  11.597   5.817  14.848
24481W        W89642  10.376  42.600   2.428
24482W        W89643  30.125  30.685   3.601
24483W        W89644  34.896  31.425  12.799
24484W        W89645  32.680   4.121   1.712
24485W        W89646   6.895   7.782  10.545
24486W        W89647  36.046  15.337  11.671
24487W        W89648   3.596   4.270  13.465
24488W        W89649  43.943   2.310   0.321
24489W        W89650  32.519   5.443  13.470
24490W        W89651  43.848  20.050   2.928
24491W        W89652  42.836  29.162  11.283
24492W        W89653   1.426  32.177   4.540
24493W        W89654  30.526  34.071   3.129
24494W        W89655   5.515  26.537  12.115
24495W        W89656  16.541  14.837  12.507
24496W        W89657  35.694  21.523   2.315
24497W        W89658   1.864   2.856  14.701
24498W        W89659   3.418  25.782   4.163
24499W        W89660  38.008  16.196  12.046
24500W        W89661   1.504   4.719   1.201
24501W        W89662   2.843   0.764  12.051
24502W        W89663   4.686   5.300   0.458
24503W        W89664  29.974   8.405  10.531
24504W        W89665  39.775   5.027   9.997
24505W        W89666  25.838   4.373  11.980
24506W        W89667  20.107  41.328  11.728
24507W        W89668  42.591  18.095   0.817
24508W        W89669  43.311  40.109   4.093
24509W        W89670  28.445  10.705   0.963
24510W        W89671  33.006   0.360  10.816
24511W        W89672  43.433  20.740   4.694
24512W        W89673  42.762   2.401   1.493
24513W        W89674  16.332  30.708  11.940
24514W        W89675   5.702  12.647  12.438
24515W        W89676  35.598  37.604  11.597
24516W        W89677   1.288  18.915  13.527
24517W        W89678  17.484  26.360   2.844
24518W        W89679  19.920  23.003  11.436
24519W        W89680   5.785  42.809  10.357
24520W        W89681   8.949  11.423   1.385
24521W        W89682   6.541  11.655  11.137
24522W        W89683  37.339  33.343   0.198
24523W        W89684  32.083  36.979   1.686
24524W        W89685  37.995  11.397   4.580
24525W        W89686  11.414   0.424   2.756
24526W        W89687  15.318  33.398  13.442
24527W        W89688  12.650   3.392   4.512
24528W        W89689  37.099  39.911  11.012
24529W        W89690  17.551  43.845   3.686
24530W        W89691  25.814   8.159  14.538
24531W        W89692  26.448  14.516   3.816
24532W        W89693   8.501  19.856   0.100
24533W        W89694   3.847  13.355  14.450
24534W        W89695   3.193   1.036   3.664
24535W        W89696  14.163  11.263  13.059
24536W        W89697   0.209  28.752   1.048
24537W        W89698   5.094  27.406  11.833
24538W        W89699   3.705  28.818   1.033
24539W        W89700  34.888   5.759  14.276
24540W        W89701  16.612   5.699  12.451
24541W        W89702   7.367  43.047  12.013
24542W        W89703  22.746  31.691   0.773
24543W        W89704   2.509  28.020  10.696
24544W        W89705   3.815  18.990   2.163
24545W        W89706  35.910  32.071  11.587
24546W        W89707  41.024  44.942   4.519
24547W        W89708   3.307   7.242  10.806
24548W        W89709  27.185   8.708  12.496
24549W        W89710  13.091  12.523   1.414
24550W        W89711  30.621  12.691  11.549
24551W        W89712  24.977  29.343   0.854
24552W        W89713  24.665  26.425   0.352
24553W        W89714  21.166  34.747   0.890
24554W        W89715  19.061  20.886  11.186
24555W        W89716  40.315  42.768   4.719
24556W        W89717  25.703  38.583  12.980
24557W        W89718  22.244  29.792   2.168
24558W        W89719  12.616  23.590   3.126
24559W        W89720  36.198   3.682   4.274
24560W        W89721  17.876  33.017   1.768
24561W        W89722   5.927  40.723   3.249
24562W        W89723  17.594  30.461  11.104
24563W        W89724  24.695  27.625  13.001
24564W        W89725  41.243   4.876  12.857
24565W        W89726  39.031  42.798   3.155
24566W        W89727  26.827   1.903  12.795
24567W        W89728  11.756  43.169  14.169
24568W        W89729  27.559   6.958   1.195
24569W        W89730  23.039  20.701  14.038
24570W        W89731   9.078   0.518   2.296
24571W        W89732  42.820  29.503  13.889
24572W        W89733  40.003  20.735   0.336
24573W        W89734  27.028   7.338   2.559
24574W        W89735   0.909   2.961  14.397
24575W        W89736   5.672  21.538   1.106
24576W        W89737  28.042  18.318  14.825
24577W        W89738  28.493   5.153  13.039
24578W        W89739   2.875  44.350  11.562
24579W        W89740  39.297  18.638   0.483
24580W        W89741  35.894  24.179  14.343
24581W        W89742   6.661  26.936   0.722
24582W        W89743  32.558   9.379   2.593
24583W        W89744  27.522  34.828  10.115
24584W        W89745  17.967  28.986   4.076
24585W        W89746  23.462  43.770  13.535
24586W        W89747  31.586  19.584   3.831
24587W        W89748   1.898  37.775   0.085
24588W        W89749  14.184  35.512   4.402
24589W        W89750  30.700  35.120   1.912
24590W        W89751   8.310  29.910   3.532
24591W        W89752  14.165  12.881  13.641
24592W        W89753  28.867  11.239   0.988
24593W        W89754  24.023  44.222  13.107
24594W        W89755  40.659  30.606  12.336
24595W        W89756  25.968  22.149  14.820
24596W        W89757  14.556  28.147  11.861
24597W        W89758  39.591  24.159  11.107
24598W        W89759  26.152  26.709  13.124
24599W        W89760  32.959  16.995   4.084
24600W        W89761  37.820  21.736   0.829
24601W        W89762   1.728  35.089  12.206
24602W        W89763  21.700  21.173   2.796
24603W        W89764  44.526  31.513  13.815
24604W        W89765  34.556   3.440   3.879
24605W        W89766  17.285   1.864  13.486
24606W        W89767  30.622  37.547  13.384
24607W        W89768  42.742  27.489   1.657
24608W        W89769  43.983  32.698  14.427
24609W        W89770  30.589  13.413  12.530
24610W        W89771  17.111   4.310  11.385
24611W        W89772  14.366  13.893  14.342
24612W        W89773   8.146  12.390  13.044
24613W        W89774  25.118  13.588   4.291
24614W        W89775   4.925  24.875   4.714
24615W        W89776  11.958  32.433  10.415
24616W        W89777  12.386  33.904   1.895
24617W        W89778  38.980  33.702   0.619
24618W        W89779   3.888   7.017   1.940
24619W        W89780   6.702  10.362  11.435
24620W        W89781  28.634  44.234  12.309
24621W        W89782   8.211  22.380   4.883
24622W        W89783  26.091  39.170  14.704
24623W        W89784  34.057  34.003   2.467
24624W        W89785  10.742  14.554  13.578
24625W        W89786   2.910  11.076  14.858
24626W        W89787  23.994  21.285  13.145
24627W        W89788  44.277  26.262   3.372
24628W        W89789   5.979  28.158   2.743
24629W        W89790   8.099  22.422  11.022
24630W        W89791  12.142   9.358   1.501
24631W        W89792   8.148  20.187   3.737
24632W        W89793   7.196  37.864   3.530
24633W        W89794  10.256  21.481  12.010
24634W        W89795   9.246   2.758  12.516
24635W        W89796  25.190   1.237  12.917
24636W        W89797   2.457  13.818  13.542
24637W        W89798  10.621  13.325   3.863
24638W        W89799  41.122  18.862  14.835
24639W        W89800   4.486  29.548  10.555
24640W        W89801  44.797  10.115  12.642
24641W        W89802   6.757   5.796   4.887
24642W        W89803  12.918  35.838   1.704
24643W        W89804   8.774   8.641   1.731
24644W        W89805  30.223  15.372  14.408
24645W        W89806   6.797  12.503   4.217
24646W        W89807   2.435  25.033   1.834
24647W        W89808   0.997  13.812  12.597
24648W        W89809  11.830   2.719  12.581
24649W        W89810  34.083   9.310   1.819
24650W        W89811  12.731  27.856   0.315
24651W        W89812  36.372  14.296  14.355
24652W        W89813  19.332  42.585   0.839
24653W        W89814   7.690  38.950   0.003
24654W        W89815  40.625  19.447   2.278
24655W        W89816  20.096  22.802  13.192
24656W        W89817  35.378  32.301   3.714
24657W        W89818  33.651  35.282  13.638
24658W        W89819  39.858  36.538  12.962
24659W        W89820   4.237  22.166   3.687
24660W        W89821  14.843  11.536  11.216
24661W        W89822  40.360  25.762   1.815
24662W        W89823  38.152  13.500   1.375
24663W        W89824  27.164  12.858   2.031
24664W        W89825  19.725  29.499  12.808
24665W        W89826  31.478  27.532  11.679
24666W        W89827  37.525  13.704  12.072
24667W        W89828  32.208  16.645  12.459
24668W        W89829  10.761  18.052   0.922
24669W        W89830  36.548  21.763  11.937
24670W        W89831  25.038  11.401  14.015
24671W        W89832  29.018  43.690   0.781
24672W        W89833  26.354  14.056   0.465
24673W        W89834   6.168  41.217   0.881
24674W        W89835  32.888  30.938   2.485
24675W        W89836   3.238   3.458   4.268
24676W        W89837   8.794  27.341  14.482
24677W        W89838  13.233  15.079  14.364
24678W        W89839   0.566  34.877  10.654
24679W        W89840   8.145  10.223  12.088
24680W        W89841  44.336  13.615  12.050
24681W        W89842   6.144   1.773   2.420
24682W        W89843  17.206   4.681   3.689
24683W        W89844  42.014  21.648   4.061
24684W        W89845  28.710  20.604   1.284
24685W        W89846  27.586   4.702   3.542
24686W        W89847  35.512  37.124  11.756
24687W        W89848  14.250  14.603   3.116
24688W        W89849  28.193  17.102   4.092
24689W        W89850  38.382  11.184   3.784
24690W        W89851  34.390  29.877  13.007
24691W        W89852  24.931   2.783   4.270
24692W        W89853  10.383  12.837   0.589
24693W        W89854   0.306  24.482   3.711
24694W        W89855  42.508  22.157   1.589
24695W        W89856  28.992  12.938   5.160
24696W        W89857  22.245  40.948  10.748
24697W        W89858  35.541  17.850  13.843
24698W        W89859  38.879  33.300   0.295
24699W        W89860  37.949   3.041   4.400
24700W        W89861   1.670  20.383   1.732
24701W        W89862  23.024  21.230  10.212
24702W        W89863  29.587  38.521   1.741
24703W        W89864  30.509  11.443   0.486
24704W        W89865  29.017  12.429   5.014
24705W        W89866  16.823  14.723  11.048
24706W        W89867  30.427  39.452  13.965
24707W        W89868  42.739  13.834   1.243
24708W        W89869  20.248  14.158  14.509
24709W        W89870   9.723  11.584  14.412
24710W        W89871   6.170  22.167  14.986
24711W        W89872  11.806  20.360  11.123
24712W        W89873  25.105  24.631  10.861
24713W        W89874   0.609  41.530  14.472
24714W        W89875   0.356  26.561  10.745
24715W        W89876  38.761  14.803   0.919
24716W        W89877  40.885  22.546   2.930
24717W        W89878  32.427   4.782   4.263
24718W        W89879  18.569  30.005  12.106
24719W        W89880  15.118   4.496  12.110
24720W        W89881  34.970  16.277   1.520
24721W        W89882   6.530   5.377   4.517
24722W        W89883  31.606  34.450  12.514
24723W        W89884  30.875  13.786  10.387
24724W        W89885  26.103  16.516  14.986
24725W        W89886  31.969  17.427   4.844
24726W        W89887   2.242  15.353  14.774
24727W        W89888   6.779   4.901  10.237
24728W        W89889  32.696  37.295   4.603
24729W        W89890   4.472  36.881   3.284
24730W        W89891  23.601  38.090  10.040
24731W        W89892   2.974  17.622  14.550
24732W        W89893   2.222  28.162  10.256
24733W        W89894   2.809  23.924   1.323
24734W        W89895  42.951   1.209  14.951
24735W        W89896  18.143  18.469   2.769
24736W        W89897  38.293  11.836   4.610
24737W        W89898  33.840   5.346   3.263
24738W        W89899  29.128  24.149   1.765
24739W        W89900  33.543  21.693   4.816
24740W        W89901  14.699  39.726   1.519
24741W        W89902  20.963  21.167   3.421
24742W        W89903  43.955   9.906   1.705
24743W        W89904  26.447   0.316  12.659
24744W        W89905   7.774  23.551   2.657
24745W        W89906  11.207   4.261  13.367
24746W        W89907  24.919  16.165   0.212
24747W        W89908  17.251   1.250  12.937
24748W        W89909  35.172  12.502  10.339
24749W        W89910  36.670  40.010   0.263
24750W        W89911  22.216  28.111   4.323
24751W        W89912   8.362  13.864   1.732
24752W        W89913   5.937  34.835   4.218
24753W        W89914   9.925  20.163   1.991
24754W        W89915  25.523  24.006   1.000
24755W        W89916   0.208  11.107   0.320
24756W        W89917  15.192  25.733   4.073
24757W        W89918   0.823  33.522  12.351
24758W        W89919  14.668  23.592   4.253
24759W        W89920  34.677  38.010   3.514
24760W        W89921  21.736  19.634   0.344
24761W        W89922  15.056  29.119   1.105
24762W        W89923  26.686   8.181  14.157
24763W        W89924  11.442   2.179   1.726
24764W        W89925  43.980   6.151   3.595
24765W        W89926  28.689   1.025  12.585
24766W        W89927  13.684  11.302   4.591
24767W        W89928  19.232  19.951  14.740
24768W        W89929   2.920  38.776   4.754
24769W        W89930  37.152  22.477   2.837
24770W        W89931   3.885  13.452   0.359
24771W        W89932  18.701   6.106  12.380
24772W        W89933  40.387   0.635  10.756
24773W        W89934  37.601  17.986   2.194
24774W        W89935  32.845  24.092   5.354
24775W        W89936  11.037  44.198  10.299
24776W        W89937  30.516  44.015  10.514
24777W        W89938  42.366  13.866  12.020
24778W        W89939   8.139  42.273  14.827
24779W        W89940   1.925  19.069  11.573
24780W        W89941   2.777  32.414   1.808
24781W        W89942   0.246  14.291  14.492
24782W        W89943  34.896  32.931  12.120
24783W        W89944  13.233  11.676  12.324
24784W        W89945  14.278  33.361  13.102
24785W        W89946   2.320   9.192   2.638
24786W        W89947  43.293  43.430  14.638
24787W        W89948  24.762   8.973   1.309
24788W        W89949  31.071  43.486  13.566
24789W        W89950   6.161   8.193  10.883
24790W        W89951  10.306  31.011  14.263
24791W        W89952   2.441  40.815   1.712
24792W        W89953   1.186  17.622  11.490
24793W        W89954   7.924  20.631  12.559
24794W        W89955  34.854  25.653   2.865
24795W        W89956   1.349   0.529  13.810
24796W        W89957  37.135  34.846  14.872
24797W        W89958  15.251  17.560   1.372
24798W        W89959  32.471  20.522   3.544
24799W        W89960  17.956  44.731   1.970
24800W        W89961  35.530  24.796  14.131
24801W        W89962   0.964  22.459   5.211
24802W        W89963  36.845  36.127   0.663
24803W        W89964   9.268  34.129  13.436
24804W        W89965  40.339  42.884  13.357
24805W        W89966  22.584  28.211   4.684
24806W        W89967  33.666  29.107   1.541
24807W        W89968  41.050  30.401   0.391
24808W        W89969   7.160  15.409  14.286
24809W        W89970   8.542  28.255  12.012
24810W        W89971  44.308   8.356   0.287
24811W        W89972  40.234  15.884   3.667
24812W        W89973  38.993  44.407   3.658
24813W        W89974  17.130  16.895   2.867
24814W        W89975  42.055  36.885  13.816
24815W        W89976  18.764  35.889  10.719
24816W        W89977  23.506   8.810  14.858
24817W        W89978   3.467  22.419  10.299
24818W        W89979  30.011   9.274   1.781
24819W        W89980   6.526   3.267  14.793
24820W        W89981   7.816   3.461   0.461
24821W        W89982  30.887  31.157   4.817
24822W        W89983  32.301  15.326   3.134
24823W        W89984   1.802   6.631   4.631
24824W        W89985   8.114  39.887  14.443
24825W        W89986   3.405  21.598   4.331
24826W        W89987   6.399  31.778  10.710
24827W        W89988  38.631  30.219  14.024
24828W        W89989  39.475   8.204  10.957
24829W        W89990  27.086   3.485  14.201
24830W        W89991  23.045  34.400   0.441
24831W        W89992  28.485   9.551   4.806
24832W        W89993  24.532  32.931   0.871
24833W        W89994  35.536   9.251  14.850
24834W        W89995  23.468  22.430  10.426
24835W        W89996  30.574  17.354  12.588
24836W        W89997  19.167  36.935   4.048
24837W        W89998  20.580  26.309  11.925
24838W        W89999  21.231  41.104  12.506
24839W        W90000   0.689  11.874   4.985
24840W        W90001  20.038  41.904  14.560
24841W        W90002  17.810   6.725   0.072
24842W        W90003  34.441  18.173   2.314
24843W        W90004  29.484  41.979  11.955
24844W        W90005   0.155  12.148  13.053
24845W        W90006   8.248  21.733   4.164
24846W        W90007   2.351  33.629  13.850
24847W        W90008  14.549  39.056  13.951
24848W        W90009  19.750   2.898  13.352
24849W        W90010   8.184  35.642   0.794
24850W        W90011  17.454  36.008  12.336
24851W        W90012  43.773  12.324   0.305
24852W        W90013  12.377  29.498   4.183
24853W        W90014  23.598  35.629  13.524
24854W        W90015   3.983  34.956   2.708
24855W        W90016  21.510   5.377   0.800
24856W        W90017   4.129  17.595  13.765
24857W        W90018  22.800  41.037  13.908
24858W        W90019  24.870  43.756  14.439
24859W        W90020  11.440  21.002   1.712
24860W        W90021  38.734  42.955  12.905
24861W        W90022  21.194   9.449   3.585
24862W        W90023  18.862  15.783   2.796
24863W        W90024  18.870  30.442  10.858
24864W        W90025  28.093  18.866   2.225
24865W        W90026  34.867   2.286   1.045
24866W        W90027   8.974  41.181   1.780
24867W        W90028   1.783  21.301  14.805
24868W        W90029  19.355   9.389  14.723
24869W        W90030  31.663  40.487  13.367
24870W        W90031  34.610  33.014  11.145
24871W        W90032   2.881   4.823  12.426
24872W        W90033   3.475   1.327   4.197
24873W        W90034  16.713  12.616  11.132
24874W        W90035  21.116   0.320   2.214
24875W        W90036  28.706  44.531  13.055
24876W        W90037  23.981  12.336  14.404
24877W        W90038  22.615   5.225  13.542
24878W        W90039  32.200  18.219  11.565
24879W        W90040  12.613  19.412   3.837
24880W        W90041  23.599  10.369   1.027
24881W        W90042  37.600   8.748  12.640
24882W        W90043   9.242  43.682   0.639
24883W        W90044  10.273   3.837   4.429
24884W        W90045  24.043   5.643   1.915
24885W        W90046   1.327  28.018   1.774
24886W        W90047   2.844  11.757  11.154
24887W        W90048  13.633  19.377   4.572
24888W        W90049  16.839  22.164  13.320
24889W        W90050   6.282  29.450   1.684
24890W        W90051   6.823  42.818  13.105
24891W        W90052   6.651  43.338   3.219
24892W        W90053  44.038  19.162   3.723
24893W        W90054  19.586   7.618   5.125
24894W        W90055  29.061  38.833   1.398
24895W        W90056  21.088   3.223  12.007
24896W        W90057  43.707  40.640   3.318
24897W        W90058  38.514  36.143   0.445
24898W        W90059  43.183  40.554   4.987
24899W        W90060  42.070  37.349   2.383
24900W        W90061  30.538   7.558  10.847
24901W        W90062  26.759  13.763   2.460
24902W        W90063  32.136   2.116   4.517
24903W        W90064   5.675  10.420  14.110
24904W        W90065   9.242   7.002   1.412
24905W        W90066   1.529   5.743   1.209
24906W        W90067  10.597   2.389  11.108
24907W        W90068  41.266  34.035  11.725
24908W        W90069  43.355   7.304  14.895
24909W        W90070  38.412  38.473  12.456
24910W        W90071  40.830  35.681  12.899
24911W        W90072  34.514  29.514   4.585
24912W        W90073   8.763  16.810  14.079
24913W        W90074  17.352   0.945  13.530
24914W        W90075   3.711  36.217  10.774
24915W        W90076   5.714  12.236  13.781
24916W        W90077  19.774  43.203  11.075
24917W        W90078  35.478  41.998   1.753
24918W        W90079  24.748  15.203   4.621
24919W        W90080  26.205  27.536  11.513
24920W        W90081  10.637  16.325  11.406
24921W        W90082  16.621  27.280   1.800
24922W        W90083  34.957  28.913  11.475
24923W        W90084  22.595   4.404  12.294
24924W        W90085   7.706  43.841  13.708
24925W        W90086  14.624   7.632   0.494
24926W        W90087  27.261  12.753  12.806
24927W        W90088  34.510  38.053   0.375
24928W        W90089  34.044  25.495  13.998
24929W        W90090   8.152   0.777   4.611
24930W        W90091  22.123  25.058   4.454
24931W        W90092   3.533   3.986  12.495
24932W        W90093  15.898  24.756  10.704
24933W        W90094  40.775  23.883   3.325
24934W        W90095  36.186  39.359  11.891
24935W        W90096  19.503  21.627  14.450
24936W        W90097   3.231  18.053   3.150
24937W        W90098  29.131  41.219  13.559
24938W        W90099  30.549  43.356   2.899
24939W        W90100   6.001  40.911   2.389
24940W        W90101  12.740   9.614   2.664
24941W        W90102   2.392   1.356  10.902
24942W        W90103   5.074  19.645   4.286
24943W        W90104   7.628  10.663  14.986
24944W        W90105   5.670  12.240  11.790
24945W        W90106  15.039  19.268  14.978
24946W        W90107  14.606   3.481  11.083
24947W        W90108   1.201  18.062   4.894
24948W        W90109  12.705   8.333  13.795
24949W        W90110  37.247  18.633   0.835
24950W        W90111  28.957  29.767  11.851
24951W        W90112  31.451  21.672  11.416
24952W        W90113  14.671  10.464   2.387
24953W        W90114  42.901  27.637   2.689
24954W        W90115  14.230  42.309   0.414
24955W        W90116  26.624  14.276   4.966
24956W        W90117  22.266   8.869  12.009
24957W        W90118  26.117  32.838  13.295
24958W        W90119  23.099  17.423  11.091
24959W        W90120  40.516   7.422   1.241
24960W        W90121   2.319  43.981  13.865
24961W        W90122   0.057  20.479  13.819
24962W        W90123  36.684   0.725   4.148
24963W        W90124  19.254   2.876  13.508
24964W        W90125  37.415  16.107   4.195
24965W        W90126  24.769  17.634  10.756
24966W        W90127   9.721  38.938  11.477
24967W        W90128  32.087  40.779  11.658
24968W        W90129   9.647  39.950  11.659
24969W        W90130   1.761   3.508   3.736
24970W        W90131  44.798  34.106  13.940
24971W        W90132  10.793  11.186   3.255
24972W        W90133  26.163  24.177   0.734
24973W        W90134  41.280   0.711   1.139
24974W        W90135  21.118  33.615   3.254
24975W        W90136  33.844  20.649  12.597
24976W        W90137  44.253  37.830   3.103
24977W        W90138  30.975  36.132   1.734
24978W        W90139  33.569  32.112  13.991
24979W        W90140   6.774  33.129  10.686
24980W        W90141  16.576  38.533   2.443
24981W        W90142   5.373  37.824   0.151
24982W        W90143   6.436   0.924  11.155
24983W        W90144  31.708   8.993  12.005
24984W        W90145   8.658  18.974  13.928
24985W        W90146  19.560   6.325  11.132
24986W        W90147   4.744  22.748  11.465
24987W        W90148  13.099  12.363  11.486
24988W        W90149  19.017   1.525  13.483
24989W        W90150  17.781  30.228  10.670
24990W        W90151  19.197  15.551   2.450
24991W        W90152   3.260  32.352  11.938
24992W        W90153  18.391  29.983   2.656
24993W        W90154  37.032   9.461  13.749
24994W        W90155   3.879  29.156   3.581
24995W        W90156   2.812  22.610   2.896
24996W        W90157  30.380  31.201  11.512
24997W        W90158  30.886  41.648  14.422
24998W        W90159  27.524  23.096   2.407
24999W        W90160  11.676  41.929  11.680
25000W        W90161  13.124  19.161   4.602
25001W        W90162   0.326  14.928   3.651
25002W        W90163   9.284  44.902   3.178
25003W        W90164   6.628  21.518   0.927
25004W        W90165  13.591   9.166   0.411
25005W        W90166  28.530  13.752  12.986
25006W        W90167  39.508   5.010  13.516
25007W        W90168  32.631  13.521   0.234
25008W        W90169  28.487   7.001   4.182
25009W        W90170  10.666  11.682   3.189
25010W        W90171  21.766  41.534   0.254
25011W        W90172  38.968   1.812  11.999
25012W        W90173   0.775  28.185   1.743
25013W        W90174  22.617  19.763   1.784
25014W        W90175  27.168   6.355  10.812
25015W        W90176  30.750  40.860   4.634
25016W        W90177   0.891  19.575  12.573
25017W        W90178  12.981  35.326  11.272
25018W        W90179   2.505   5.948   1.425
25019W        W90180  25.501  30.730   4.086
25020W        W90181  15.544  37.069   3.704
25021W        W90182   2.928   0.448  12.583
25022W        W90183   6.716  21.010   0.923
25023W        W90184  24.131   9.881  11.131
25024W        W90185  20.293   1.544   3.877
25025W        W90186   6.252  14.320   0.317
25026W        W90187  23.092   0.238   3.713
25027W        W90188  25.429  11.422  12.078
25028W        W90189  17.302  33.873   2.697
25029W        W90190  11.685  42.893   4.978
25030W        W90191   9.398  19.280   1.956
25031W        W90192  37.944   2.465   2.595
25032W        W90193  27.786  16.611   3.820
25033W        W90194  11.287   7.882   0.154
25034W        W90195  38.652  24.212  12.557
25035W        W90196  21.363   9.815  10.107
25036W        W90197   3.532  40.179  10.960
25037W        W90198   4.535  39.830  13.294
25038W        W90199  19.372   0.937   4.150
25039W        W90200  40.428  44.735  12.531
25040W        W90201  42.020  10.346   4.131
25041W        W90202  34.001   7.916   4.681
25042W        W90203  25.804   7.500   3.131
25043W        W90204  43.053  41.619   2.254
25044W        W90205  18.600  36.385   4.595
25045W        W90206   6.734  34.138  10.703
25046W        W90207  33.438  18.824  12.009
25047W        W90208  13.665   0.533  10.866
25048W        W90209  41.242  28.536   3.858
25049W        W90210   0.939  39.470  13.249
25050W        W90211   2.697  10.640   4.255
25051W        W90212  36.351   7.603   2.133
25052W        W90213  22.903  12.270  10.643
25053W        W90214  26.161  17.026   3.679
25054W        W90215  40.609  17.327  13.569
25055W        W90216  24.470  41.535  11.177
25056W        W90217  34.988  44.415   1.199
25057W        W90218  22.760  17.152  11.575
25058W        W90219  44.023  36.486   4.047
25059W        W90220  43.338   0.929   4.846
25060W        W90221  14.138  39.007  11.240
25061W        W90222  24.274  23.075   1.779
25062W        W90223  30.937   8.675   4.131
25063W        W90224  29.380  33.907   1.533
25064W        W90225  13.347  31.207  12.924
25065W        W90226  25.004  24.927  11.798
25066W        W90227  13.630  33.423   3.723
25067W        W90228  35.951  20.131   4.540
25068W        W90229  10.231   3.888   3.929
25069W        W90230  27.018   5.331   1.475
25070W        W90231  35.890  18.497  13.126
25071W        W90232   9.733  31.870   4.472
25072W        W90233  34.750  17.984   5.178
25073W        W90234  10.825  29.371   1.523
25074W        W90235  15.785   2.808  11.371
25075W        W90236  15.656   4.089  13.572
25076W        W90237  24.270  33.342  12.959
25077W        W90238  29.046  27.153   0.056
25078W        W90239  34.389   8.324   4.597
25079W        W90240  30.631  28.154  13.046
25080W        W90241  20.633  17.291   1.178
25081W        W90242   6.424  30.463  14.970
25082W        W90243   3.544  40.644  11.200
25083W        W90244  40.853  25.679   3.190
25084W        W90245  22.007  43.257   2.439
25085W        W90246  37.933  42.047  13.604
25086W        W90247  43.407   0.551   0.530
25087W        W90248  33.303   1.253  11.168
25088W        W90249  14.312  34.929   0.185
25089W        W90250   7.762  43.403  10.610
25090W        W90251  14.103  20.840  12.877
25091W        W90252   0.800  32.066   1.319
25092W        W90253  20.288  39.674  12.460
25093W        W90254  18.285  23.082  14.065
25094W        W90255  32.321  20.616  12.455
25095W        W90256   5.790   8.113  14.193
25096W        W90257  16.342  37.818   3.050
25097W        W90258  21.253  43.251   3.873
25098W        W90259  37.089  11.632   2.262
25099W        W90260  20.526  36.763  13.975
25100W        W90261   7.259  13.919   3.147
25101W        W90262   1.955   7.359   4.107
25102W        W90263  34.712  26.632   2.384
25103W        W90264  21.169  14.118   1.803
25104W        W90265   0.227  30.110   3.262
25105W        W90266  13.675  26.356   2.196
25106W        W90267  13.192  34.433  13.856
25107W        W90268   3.857   7.784   2.579
25108W        W90269  16.621  29.925   4.401
25109W        W90270   8.838  20.263   5.067
25110W        W90271  31.395   1.759   2.717
25111W        W90272   1.909  31.815   3.756
25112W        W90273  42.873  30.584   2.402
25113W        W90274  37.862  33.320   0.256
25114W        W90275   6.867  27.860   2.650
25115W        W90276  33.379  36.919   2.339
25116W        W90277  44.435  23.088  13.755
25117W        W90278  12.338  24.938   1.442
25118W        W90279  37.454   8.261   1.270
25119W        W90280   8.782  43.390  12.314
25120W        W90281   8.009  11.716   0.134
25121W        W90282  21.754  27.480   4.247
25122W        W90283  13.512  37.092   0.705
25123W        W90284  29.515  19.693   2.777
25124W        W90285   8.779  30.550   1.285
25125W        W90286   5.457  11.879   2.779
25126W        W90287  38.849   8.489   1.310
25127W        W90288   0.216  36.424   1.805
25128W        W90289  41.379  13.700   3.696
25129W        W90290  12.026   0.876  10.747
25130W        W90291  22.440  27.677   1.843
25131W        W90292  11.715  34.433   1.027
25132W        W90293  36.242  33.144   3.229
25133W        W90294  42.128  43.346   2.765
25134W        W90295   4.913  27.289  13.466
25135W        W90296  22.657   6.908   2.859
25136W        W90297  38.665  26.697   1.274
25137W        W90298  23.443  37.091   0.463
25138W        W90299  37.958   6.665   3.591
25139W        W90300  25.389   5.184  12.129
25140W        W90301   5.245  24.314  12.248
25141W        W90302   0.652  40.629   0.157
25142W        W90303  27.725   2.829   2.777
25143W        W90304  40.942  12.236   3.995
25144W        W90305  35.037   9.846  10.651
25145W        W90306  30.611  12.725   3.513
25146W        W90307  38.532   0.174   1.443
25147W        W90308  22.026  43.434   4.269
25148W        W90309  12.540  41.773  11.176
25149W        W90310  19.259  30.215  14.828
25150W        W90311  22.587   7.597  12.566
25151W        W90312  10.339   9.131   3.688
25152W        W90313  36.649  28.681   4.653
25153W        W90314  17.696  37.450  10.790
25154W        W90315   2.730  26.178   9.726
25155W        W90316   3.981  19.240   1.712
25156W        W90317  14.319   5.209  10.543
25157W        W90318  33.412   1.449   0.818
25158W        W90319   0.275   2.690   0.251
25159W        W90320   1.510   4.958  12.084
25160W        W90321  21.740  13.139   4.517
25161W        W90322  11.489  44.144   4.036
25162W        W90323  21.842  39.813   3.584
25163W        W90324   9.845   8.409   0.221
25164W        W90325  38.320  34.960   1.364
25165W        W90326  17.157  35.704   0.819
25166W        W90327   9.361  44.221  12.501
25167W        W90328  26.630   6.388  11.515
25168W        W90329  41.639   7.737   2.234
25169W        W90330  44.948  18.529   3.302
25170W        W90331  23.959  28.387   0.858
25171W        W90332  28.907   6.565   1.808
25172W        W90333  22.768   1.378   3.438
25173W        W90334  35.560  41.013   3.601
25174W        W90335  33.084  20.023  13.464
25175W        W90336  43.336  43.006   1.830
25176W        W90337  31.524  12.166  11.278
25177W        W90338  36.313  18.670  13.372
25178W        W90339  24.641  17.973   3.190
25179W        W90340   7.373  34.672  10.808
25180W        W90341  23.775  31.425   0.307
25181W        W90342   1.472  41.420   3.827
25182W        W90343  12.862  15.252  13.007
25183W        W90344  17.613  14.567  14.376
25184W        W90345  36.807  33.334  14.425
25185W        W90346   6.307  19.746   2.151
25186W        W90347  26.642  24.697  13.570
25187W        W90348  22.517  40.496  11.435
25188W        W90349  25.510  43.537   2.752
25189W        W90350  34.523  21.449  14.335
25190W        W90351  32.383  32.606   0.861
25191W        W90352  35.902  18.218  11.396
25192W        W90353  40.004   2.941  11.622
25193W        W90354  30.338   6.255  14.766
25194W        W90355  21.058   2.454   1.538
25195W        W90356  16.107  31.577   4.550
25196W        W90357  29.160  25.154  11.197
25197W        W90358  40.600  12.316   0.157
25198W        W90359   6.424  35.935   1.721
25199W        W90360  11.834  43.365  11.945
25200W        W90361  33.446  13.211   1.880
25201W        W90362   8.081  28.037   1.992
25202W        W90363  20.258  38.781   0.968
25203W        W90364  44.988  12.975   0.120
25204W        W90365  37.340   6.372  10.664
25205W        W90366  14.341  22.350   3.072
25206W        W90367   8.362   1.924   3.625
25207W        W90368   0.219  27.634  14.975
25208W        W90369  28.858  24.562  14.883
25209W        W90370   3.882  10.971   2.769
25210W        W90371  24.568  37.434   5.492
25211W        W90372  33.503  20.890  11.177
25212W        W90373   0.479  16.156   1.317
25213W        W90374  34.493  27.444   2.115
25214W        W90375  36.511   6.385  14.496
25215W        W90376  42.733   8.478  11.766
25216W        W90377  31.596  23.562  12.777
25217W        W90378  38.661  40.678  11.035
25218W        W90379   9.162  22.596   0.046
25219W        W90380  12.337  14.749   1.343
25220W        W90381   5.913   7.720   3.367
25221W        W90382  39.036  35.394  11.662
25222W        W90383  37.893  12.386  13.365
25223W        W90384  36.129  21.410  13.833
25224W        W90385  17.523   7.881  14.447
25225W        W90386  37.783  13.436  11.726
25226W        W90387   0.477  14.738  13.893
25227W        W90388  31.906   2.424  14.505
25228W        W90389   0.679  43.147  11.712
25229W        W90390   2.689  18.243  10.680
25230W        W90391  26.493  36.461  12.929
25231W        W90392  25.512  27.922  14.624
25232W        W90393   7.507   3.230  13.885
25233W        W90394  42.966  35.866   1.982
25234W        W90395  13.276  38.687  13.454
25235W        W90396  19.587   6.790  14.369
25236W        W90397  26.757  17.843   2.269
25237W        W90398  16.564  25.383   3.895
25238W        W90399  41.779  33.811  12.452
25239W        W90400  27.051  15.585  11.232
25240W        W90401  25.653  24.362  11.614
25241W        W90402   5.803  30.395   4.483
25242W        W90403   8.562   7.714   3.250
25243W        W90404  35.563  39.042  13.079
25244W        W90405   4.940  24.517  14.674
25245W        W90406  32.117   6.252   4.008
25246W        W90407  34.627  26.783  12.115
25247W        W90408  31.861  16.156  13.087
25248W        W90409   7.363  19.119   4.436
25249W        W90410  15.052   4.994   4.276
25250W        W90411  22.756  26.110  13.957
25251W        W90412  39.347  14.709   4.575
25252W        W90413   1.613   5.981  14.552
25253W        W90414  34.591  44.940  12.641
25254W        W90415   8.914  35.312  12.933
25255W        W90416  33.510  14.480  12.469
25256W        W90417  30.435  24.627  14.772
25257W        W90418   5.455  22.739   3.345
25258W        W90419  15.841   8.160   5.118
25259W        W90420  13.234   3.449  13.244
25260W        W90421  38.799  20.113  12.564
25261W        W90422  39.058  31.008  12.609
25262W        W90423  15.391  38.478  12.560
25263W        W90424  32.512   1.367  11.462
25264W        W90425  12.290   0.455  11.610
25265W        W90426   1.941  31.962   2.747
25266W        W90427   2.482  30.684  14.755
25267W        W90428  14.332  13.830   0.418
25268W        W90429  12.264  32.409  13.980
25269W        W90430  32.010  25.243  14.529
25270W        W90431  19.613   5.588   3.591
25271W        W90432  38.840  26.654   1.799
25272W        W90433  36.343  44.458   3.677
25273W        W90434   8.789   2.617   2.157
25274W        W90435  43.460   8.163   1.885
25275W        W90436  44.662  25.943  12.800
25276W        W90437   6.624   7.185  13.379
25277W        W90438  38.200  39.130  12.571
25278W        W90439   3.465  18.139  13.423
25279W        W90440   3.209  39.577   4.471
25280W        W90441  16.801   2.643   4.069
25281W        W90442   7.112  26.938   0.987
25282W        W90443  39.763  38.149   1.774
25283W        W90444   8.099   5.878   3.412
25284W        W90445  43.242   3.097   1.286
25285W        W90446  42.090  35.197  14.091
25286W        W90447  37.557  35.153  14.846
25287W        W90448   0.585  43.648   3.543
25288W        W90449   0.816  29.660   2.100
25289W        W90450   6.397   1.229  12.432
25290W        W90451  38.558  23.062   0.415
25291W        W90452  17.581  37.040  10.520
25292W        W90453  41.362  22.697   3.730
25293W        W90454  13.341  38.434  12.995
25294W        W90455  19.498  42.373  12.148
25295W        W90456   9.815  29.703   3.875
25296W        W90457  25.866  25.272   4.028
25297W        W90458  14.094  10.803   1.731
25298W        W90459   9.754  21.549  11.984
25299W        W90460  11.201  27.552  10.875
25300W        W90461  35.207  36.559   4.037
25301W        W90462  37.507  31.583   0.785
25302W        W90463   7.870  16.643   1.442
25303W        W90464  15.126  24.433  14.347
25304W        W90465  29.220  15.637  12.874
25305W        W90466  14.629  22.353  13.508
25306W        W90467  40.458   0.388   3.383
25307W        W90468   5.014  38.883  12.394
25308W        W90469  19.675  23.278   2.601
25309W        W90470  43.819  22.910   4.217
25310W        W90471   7.372  40.462   4.581
25311W        W90472  30.985  20.804  14.428
25312W        W90473  17.811  11.658  11.856
25313W        W90474  27.277  30.118   2.193
25314W        W90475   5.345  24.917   5.473
25315W        W90476  33.398  16.652   3.987
25316W        W90477   9.543  30.923   1.835
25317W        W90478  22.410   2.976   4.716
25318W        W90479  31.566  34.109   4.169
25319W        W90480  17.496  35.303   2.788
25320W        W90481  25.615  35.391  13.495
25321W        W90482  10.792  43.390   4.139
25322W        W90483  19.167  17.736  12.908
25323W        W90484  34.929   2.337   0.544
25324W        W90485  38.928  22.667  14.542
25325W        W90486  32.673  30.471   4.009
25326W        W90487  19.472  24.243  14.857
25327W        W90488  24.561  25.373   0.408
25328W        W90489   3.343   9.937  13.042
25329W        W90490   9.341  37.607  12.470
25330W        W90491  43.005   5.991  13.969
25331W        W90492  41.342   5.564   4.642
25332W        W90493  16.655   7.881   0.905
25333W        W90494  27.733  21.555   4.253
25334W        W90495  22.077  17.366  13.074
25335W        W90496   4.925  43.423   4.245
25336W        W90497  34.106   1.945   0.298
25337W        W90498  39.522   3.127   1.348
25338W        W90499   3.969  36.083   1.747
25339W        W90500  39.493  37.568  12.470
25340W        W90501  32.941  14.696  14.239
25341W        W90502   7.742  30.225   2.387
25342W        W90503  17.193  20.043   3.169
25343W        W90504  32.498  42.979  12.607
25344W        W90505  23.587  10.092  13.400
25345W        W90506   6.238  12.460   4.543
25346W        W90507  39.400  42.427  11.865
25347W        W90508  31.060   4.907   4.588
25348W        W90509  37.848   4.268   0.768
25349W        W90510  44.833   9.725  11.009
25350W        W90511  26.229   5.160   2.293
25351W        W90512  40.448  43.853  12.327
25352W        W90513  15.623  44.950  11.874
25353W        W90514   2.807  33.660   1.201
25354W        W90515  39.072   4.816  12.128
25355W        W90516  42.022  13.882  12.825
25356W        W90517  43.000  40.284   3.740
25357W        W90518  17.203  11.071  14.263
25358W        W90519  18.710  37.566   3.610
25359W        W90520  38.121  33.162  10.539
25360W        W90521  30.871  16.142  12.895
25361W        W90522   6.927  34.483  13.988
25362W        W90523  41.610  12.158   2.302
25363W        W90524   4.129  33.393  11.488
25364W        W90525  19.045  28.200  12.054
25365W        W90526  18.435  33.591   5.029
25366W        W90527  39.477  32.247  11.904
25367W        W90528  35.891  35.883  14.514
25368W        W90529  15.577   3.671   4.082
25369W        W90530   2.018  12.017  13.297
25370W        W90531  44.903  22.941   0.948
25371W        W90532  16.355  20.250   1.728
25372W        W90533  28.896  28.181  11.120
25373W        W90534   4.478  41.880   4.322
25374W        W90535  40.549  43.397  13.780
25375W        W90536  44.020   0.741  13.028
25376W        W90537   5.124  17.151   1.382
25377W        W90538  20.108   1.476  10.925
25378W        W90539   6.732   4.274   2.718
25379W        W90540  20.031  31.670  12.102
25380W        W90541  13.111   1.623   2.341
25381W        W90542  20.567   6.442  13.975
25382W        W90543  12.650  30.644  13.865
25383W        W90544  22.022  11.436  13.812
25384W        W90545  28.134  24.698  10.729
25385W        W90546  12.363  24.991  11.034
25386W        W90547  33.465  39.575  12.324
25387W        W90548   3.909   1.877   4.934
25388W        W90549  16.012   7.900  10.658
25389W        W90550   2.670  40.492   4.500
25390W        W90551  13.698  12.841   1.022
25391W        W90552  41.859  23.826  11.159
25392W        W90553  22.694  25.006   2.107
25393W        W90554   9.635   4.404  13.594
25394W        W90555   3.132  20.681  12.007
25395W        W90556   6.462   2.881  10.969
25396W        W90557   6.724  36.867   3.746
25397W        W90558  39.288  25.253  12.110
25398W        W90559  25.339  17.495   0.539
25399W        W90560  41.769   3.217  13.416
25400W        W90561  17.508  30.964  14.417
25401W        W90562  32.467  13.964  14.322
25402W        W90563  33.662  40.017   0.481
25403W        W90564  35.856  22.764  12.516
25404W        W90565  16.584   7.196  11.678
25405W        W90566   3.110  32.576   3.202
25406W        W90567  40.420  43.412  10.990
25407W        W90568  13.513  21.298   4.168
25408W        W90569  32.365  15.155   1.204
25409W        W90570   4.692  15.941  13.815
25410W        W90571  21.021  23.786  14.543
25411W        W90572   1.013  33.465  14.717
25412W        W90573  32.316   9.786  14.707
25413W        W90574   3.212  30.162   4.900
25414W        W90575  40.586   5.492   3.642
25415W        W90576   4.084  34.856  12.933
25416W        W90577  10.239  35.544  13.897
25417W        W90578  26.486  32.981   2.269
25418W        W90579  17.280  14.381   1.882
25419W        W90580   8.688   0.153  13.016
25420W        W90581  25.219  37.494   1.314
25421W        W90582  24.950  22.035  14.551
25422W        W90583  22.439  38.175   3.326
25423W        W90584  19.741  10.603   1.585
25424W        W90585   5.946  37.943  12.931
25425W        W90586  27.167   7.096   0.864
25426W        W90587  38.530  33.403  13.100
25427W        W90588   5.830  32.573  13.350
25428W        W90589   9.699   2.718  11.874
25429W        W90590  32.670  37.148   4.111
25430W        W90591   7.107  11.847   3.692
25431W        W90592  32.152  30.919   0.286
25432W        W90593   8.165  18.234  14.844
25433W        W90594   0.378  21.948  14.363
25434W        W90595  34.633  12.834  12.620
25435W        W90596  21.528  24.939   1.248
25436W        W90597  25.513   3.239  10.719
25437W        W90598  32.881  18.752   0.278
25438W        W90599  31.440  44.484   4.631
25439W        W90600  23.646  28.406   4.328
25440W        W90601  13.531   7.906   0.463
25441W        W90602   4.422  24.077   4.687
25442W        W90603  44.674  39.478  11.003
25443W        W90604   6.329  24.920   2.611
25444W        W90605  25.236  18.050  11.059
25445W        W90606  20.620  17.873   4.434
25446W        W90607  24.960   1.701   2.330
25447W        W90608  12.177  33.973   0.747
25448W        W90609  14.072   4.327   4.595
25449W        W90610  13.076  44.189   3.338
25450W        W90611  35.655   4.488   4.772
25451W        W90612  34.082  10.289   2.720
25452W        W90613  22.811  22.418  11.626
25453W        W90614   7.066  12.210  14.559
25454W        W90615  23.763   6.645   2.072
25455W        W90616  23.736  35.875   3.245
25456W        W90617   5.665  26.251  11.163
25457W        W90618   1.547  13.808  12.612
25458W        W90619  12.172  13.705  13.600
25459W        W90620  22.856  40.055   1.828
25460W        W90621  32.579  23.766  13.084
25461W        W90622  10.581  36.994   1.330
25462W        W90623  41.813  35.608  14.296
25463W        W90624   1.904  36.136  13.652
25464W        W90625  26.511  44.799   0.364
25465W        W90626  27.221  22.805   3.738
25466W        W90627  30.079  35.043   4.080
25467W        W90628  17.204  42.164   9.691
25468W        W90629  39.905  23.052   0.862
25469W        W90630  34.898  17.098  10.685
25470W        W90631  19.835  15.699   0.880
25471W        W90632  31.900   9.134  13.779
25472W        W90633   2.326  16.816  14.944
25473W        W90634  12.524  37.649   0.238
25474W        W90635  16.441   7.690  11.636
25475W        W90636   7.400   5.278   1.931
25476W        W90637  20.669  38.458  10.347
25477W        W90638  42.013  40.392  10.759
25478W        W90639   3.297  16.506  10.466
25479W        W90640  44.814  41.004   1.507
25480W        W90641  17.681   3.468  11.128
25481W        W90642   6.448   3.647   4.592
25482W        W90643  15.812  28.621  12.850
25483W        W90644  42.924  20.676  13.475
25484W        W90645  16.158  43.789   1.365
25485W        W90646  17.957  30.194   2.835
25486W        W90647  11.752  21.281  11.710
25487W        W90648  27.955  35.628   2.704
25488W        W90649  17.421  17.283  12.011
25489W        W90650  37.613  32.137   4.448
25490W        W90651   1.572  21.244   5.074
25491W        W90652  27.708  35.837  10.289
25492W        W90653  16.978   3.857  11.150
25493W        W90654  41.248  30.936  13.970
25494W        W90655  13.142  34.273   4.101
25495W        W90656  13.224  25.142   1.652
25496W        W90657  42.930   1.313   0.454
25497W        W90658  37.111  40.264  12.468
25498W        W90659  42.316  23.092   0.338
25499W        W90660  29.935   5.360  13.868
25500W        W90661   6.040   0.470  11.979
25501W        W90662  18.569  26.170  11.590
25502W        W90663   4.190  39.410  11.662
25503W        W90664  12.269   3.277   4.848
25504W        W90665  12.364  24.933   2.363
25505W        W90666  20.561  30.974  11.991
25506W        W90667   1.736  29.349  12.463
25507W        W90668  20.744  27.302  12.134
25508W        W90669  13.409   7.275   3.968
25509W        W90670  21.964  30.527  12.394
25510W        W90671   9.869  27.598  14.653
25511W        W90672  15.623  13.112   3.252
25512W        W90673  26.102  43.573  13.429
25513W        W90674   2.693  24.637   4.052
25514W        W90675  28.678  42.611   3.117
25515W        W90676  31.058  17.531   3.606
25516W        W90677  19.330  23.063   2.928
25517W        W90678  33.973  12.258   1.800
25518W        W90679  19.173  17.853   1.300
25519W        W90680  10.765  17.837  14.413
25520W        W90681   4.913  24.320   2.029
25521W        W90682  20.726   0.381   3.874
25522W        W90683  42.022  14.443   3.829
25523W        W90684  36.350  36.312   4.676
25524W        W90685  29.664  32.180  14.061
25525W        W90686   6.470  17.753   2.470
25526W        W90687  25.974   6.258   0.928
25527W        W90688  10.933  21.208  14.602
25528W        W90689  43.075  37.502   2.405
25529W        W90690  31.567  39.350   0.862
25530W        W90691  24.709  32.883   2.771
25531W        W90692  24.115  17.985   4.643
25532W        W90693  14.939  15.839   2.249
25533W        W90694  12.743  27.074   1.391
25534W        W90695  30.020   3.331   4.965
25535W        W90696   7.117  38.956  13.908
25536W        W90697   5.726  19.226  11.192
25537W        W90698   4.523  41.861   0.163
25538W        W90699  11.034  43.910  11.149
25539W        W90700   5.117  16.094   2.712
25540W        W90701  23.627  34.968  14.332
25541W        W90702  15.844   8.514  14.118
25542W        W90703   2.816  35.490   3.216
25543W        W90704  25.326  19.896  11.727
25544W        W90705  30.425  29.958  12.151
25545W        W90706   5.284  25.580   0.740
25546W        W90707  18.020   8.192   0.713
25547W        W90708  27.122  36.820  13.748
25548W        W90709   6.245  23.480  11.956
25549W        W90710  15.652  20.083  11.577
25550W        W90711  36.091  24.740  12.395
25551W        W90712  29.086  33.262  13.100
25552W        W90713  24.806  11.847  14.597
25553W        W90714  29.600  17.113   4.600
25554W        W90715  42.742  28.008   1.808
25555W        W90716  27.745  20.588   1.726
25556W        W90717  12.231  33.948  14.123
25557W        W90718  27.642  20.501  12.749
25558W        W90719  18.797  12.855   3.676
25559W        W90720   5.226  33.091  12.976
25560W        W90721  41.028  29.105  12.081
25561W        W90722  19.853  26.425   1.774
25562W        W90723  34.832  31.486   3.364
25563W        W90724  11.218  20.542   1.780
25564W        W90725   4.335  29.681  14.955
25565W        W90726   0.992  31.124   3.673
25566W        W90727   6.662   2.444  13.600
25567W        W90728  17.587   4.742   0.340
25568W        W90729  15.469   3.983  11.499
25569W        W90730  38.534  19.213  12.152
25570W        W90731  35.886   2.953   0.901
25571W        W90732  41.482  36.845   4.216
25572W        W90733   4.245  40.617   1.989
25573W        W90734  24.749   5.282  14.874
25574W        W90735   2.043  24.675  13.456
25575W        W90736  12.813  37.005  12.366
25576W        W90737   6.626  28.817  14.191
25577W        W90738   5.348  20.270  13.125
25578W        W90739  23.133  37.387   2.078
25579W        W90740   6.634  29.615  13.823
25580W        W90741  19.577   6.799  14.881
25581W        W90742  13.540  17.189   0.470
25582W        W90743   6.297  43.336  12.942
25583W        W90744  44.296  39.087  13.439
25584W        W90745  18.513  37.420   2.126
25585W        W90746   0.842   6.209  11.390
25586W        W90747  28.525  42.564  10.959
25587W        W90748  42.085  44.007  10.740
25588W        W90749   2.391  30.154   2.852
25589W        W90750  19.558  13.685  11.984
25590W        W90751   2.416  38.375   2.282
25591W        W90752  38.011  40.909  14.707
25592W        W90753  25.574  13.420  14.896
25593W        W90754  26.472  20.087  11.563
25594W        W90755  38.523  42.844  14.313
25595W        W90756   4.413  25.138  12.701
25596W        W90757  38.011  38.035   3.800
25597W        W90758  30.500  22.259  11.050
25598W        W90759  42.421  18.701  14.778
25599W        W90760  43.782  31.771   4.146
25600W        W90761  41.271  42.384  10.725
25601W        W90762  22.814  14.813  14.309
25602W        W90763   2.712   0.914   0.509
25603W        W90764  11.806  37.842  14.669
25604W        W90765  25.122  16.232   0.671
25605W        W90766  42.781   4.528   2.366
25606W        W90767   0.957  40.003   1.994
25607W        W90768  35.973  10.611  10.820
25608W        W90769  42.418   9.087   3.680
25609W        W90770  26.967   5.470  14.020
25610W        W90771   6.834  34.192  11.916
25611W        W90772  16.717   7.448  10.400
25612W        W90773  19.171   7.873   0.237
25613W        W90774  42.806  20.944   3.731
25614W        W90775  30.540   5.414  13.125
25615W        W90776  42.832  29.177   2.638
25616W        W90777  44.883  20.133   1.418
25617W        W90778  28.140  33.528  12.888
25618W        W90779  44.774  21.662   3.706
25619W        W90780  13.771   2.673   3.247
25620W        W90781  10.243  17.889  12.844
25621W        W90782   2.085  16.227  12.444
25622W        W90783   0.457  12.077   0.416
25623W        W90784   1.524   7.177  11.510
25624W        W90785  10.954   9.854  10.940
25625W        W90786  27.483   1.459   4.194
25626W        W90787  39.928  27.839  14.117
25627W        W90788  11.870   3.762   4.383
25628W        W90789  19.982   1.761  14.307
25629W        W90790  41.265  19.160   4.895
25630W        W90791   3.529   9.196   1.518
25631W        W90792  17.675  37.432  12.408
25632W        W90793  17.921  19.566   0.376
25633W        W90794   3.827   3.908  11.826
25634W        W90795  10.001  30.412   3.204
25635W        W90796   6.095  27.755   4.099
25636W        W90797  20.169   2.503   4.458
25637W        W90798  35.337  44.809  11.684
25638W        W90799   3.255  17.314  11.056
25639W        W90800   8.596   9.251  13.975
25640W        W90801   4.734  35.873  11.622
25641W        W90802   3.791   8.759  13.122
25642W        W90803  15.648  40.391  14.813
25643W        W90804  29.606  25.594   0.306
25644W        W90805  33.933  42.925   2.738
25645W        W90806  30.365  10.842   2.161
25646W        W90807   8.504   7.224  11.501
25647W        W90808  10.798  10.953   3.713
25648W        W90809  42.267  19.668   4.120
25649W        W90810  40.472  24.056  10.216
25650W        W90811   7.180  43.327   3.311
25651W        W90812  23.848   4.985  14.838
25652W        W90813   0.917  44.016  11.152
25653W        W90814  10.375   3.185  10.403
25654W        W90815   2.549  11.710  12.479
25655W        W90816   8.426  21.375  13.969
25656W        W90817  13.637   0.354   0.012
25657W        W90818  33.893   0.509  13.873
25658W        W90819   7.252  31.443  10.913
25659W        W90820  42.231  32.601   3.273
25660W        W90821  21.010  43.943  13.160
25661W        W90822  30.356  15.923   2.546
25662W        W90823  31.732  28.664  12.431
25663W        W90824   7.851  31.607  11.097
25664W        W90825  27.784  40.900  12.606
25665W        W90826  21.052  26.045  12.569
25666W        W90827   1.462  22.011   3.702
25667W        W90828   4.928  37.095   2.308
25668W        W90829  34.857   0.183  13.017
25669W        W90830  21.062   5.534   2.948
25670W        W90831  32.940   0.695   3.094
25671W        W90832  19.205  39.962  11.463
25672W        W90833  36.696  25.081  10.612
25673W        W90834  30.984  26.252   0.255
25674W        W90835  18.525  27.856  14.289
25675W        W90836  20.546  34.669  11.939
25676W        W90837  13.168  44.195   5.037
25677W        W90838   1.123  14.130  14.507
25678W        W90839  29.804  23.267   1.489
25679W        W90840  30.257   2.391  11.185
25680W        W90841  23.117  35.965  14.087
25681W        W90842  34.022  27.898   1.641
25682W        W90843  40.108   9.779  14.827
25683W        W90844  35.430   9.441  12.277
25684W        W90845  14.100  16.822  14.873
25685W        W90846   3.281  27.778   3.283
25686W        W90847  25.191   6.892   0.679
25687W        W90848  33.352  30.447  14.189
25688W        W90849   5.309  26.295   1.266
25689W        W90850  39.403  26.759  11.414
25690W        W90851   3.800  11.759   2.138
25691W        W90852  37.946  43.184   4.204
25692W        W90853  34.948  42.407   5.122
25693W        W90854   9.391  34.382  12.777
25694W        W90855   3.261  40.431  10.598
25695W        W90856  44.248  37.012   0.823
25696W        W90857  12.173  24.726  13.334
25697W        W90858   9.238  25.472  14.402
25698W        W90859  15.217  34.089   4.527
25699W        W90860  35.584  40.421  13.300
25700W        W90861  20.857   0.795   2.144
25701W        W90862  26.033   8.364  13.378
25702W        W90863  31.214  39.987   0.883
25703W        W90864  13.245  20.214   2.732
25704W        W90865  40.342  25.616   0.864
25705W        W90866   6.832   0.778   4.824
25706W        W90867   5.187  43.417   1.388
25707W        W90868  37.888  37.509  14.795
25708W        W90869  39.577  43.188   2.675
25709W        W90870  22.579  43.395  10.932
25710W        W90871  22.259   7.831  12.915
25711W        W90872  44.771   2.601  11.525
25712W        W90873  10.143  22.965   2.650
25713W        W90874  31.637  15.230   4.238
25714W        W90875  29.045  35.277  12.446
25715W        W90876  22.293  30.542   4.199
25716W        W90877  17.965  35.067   2.789
25717W        W90878  33.894   2.504  11.661
25718W        W90879  23.111   9.069  12.572
25719W        W90880  13.587  40.003  11.572
25720W        W90881  26.729  39.477   2.207
25721W        W90882   8.305  25.217  12.526
25722W        W90883  24.569  13.708  13.508
25723W        W90884  23.424   0.210  11.862
25724W        W90885  37.864  22.570   3.608
25725W        W90886   5.289  39.159  14.863
25726W        W90887  25.795  34.552  12.644
25727W        W90888   6.684   7.898  13.986
25728W        W90889   8.833  28.576  12.598
25729W        W90890  42.913  41.074  13.982
25730W        W90891  28.202   5.499  11.927
25731W        W90892  19.351   2.192   2.492
25732W        W90893  19.257  27.884   1.026
25733W        W90894  31.352   5.825  13.056
25734W        W90895  28.034   1.052   2.213
25735W        W90896  15.671   7.177  11.804
25736W        W90897  13.182   6.127  12.341
25737W        W90898  21.292  24.122  12.090
25738W        W90899  10.767  23.714  12.494
25739W        W90900  41.497  11.901  11.434
25740W        W90901  35.354  21.209  12.124
25741W        W90902   1.953  26.930   4.450
25742W        W90903  27.743  31.369  13.589
25743W        W90904  30.495  31.594  12.959
25744W        W90905  26.152   9.435   1.789
25745W        W90906   4.894   4.372  11.146
25746W        W90907   2.866  27.563   0.427
25747W        W90908   1.837  41.379   2.652
25748W        W90909  40.300  13.217  14.673
25749W        W90910  44.014  43.345  13.506
25750W        W90911  26.636  16.194  13.784
25751W        W90912  28.507   3.941   3.314
25752W        W90913  29.922  32.400   0.344
25753W        W90914   7.817  41.410   0.189
25754W        W90915  35.081  29.503   1.913
25755W        W90916   7.343   3.009  12.970
25756W        W90917  14.252  16.092   2.679
25757W        W90918  26.600   7.696   4.102
25758W        W90919  32.046  35.653  10.673
25759W        W90920  32.315  31.910   1.679
25760W        W90921   0.074  11.561  10.697
25761W        W90922  18.857  19.595  14.405
25762W        W90923   2.017  35.843   1.876
25763W        W90924  19.293  31.421   1.126
25764W        W90925  14.936  29.694  12.003
25765W        W90926  31.905  33.862   0.314
25766W        W90927   4.805  43.994  11.553
25767W        W90928  18.337  44.355   1.617
25768W        W90929  31.019   9.854   2.325
25769W        W90930  36.115  18.530   3.220
25770W        W90931  22.692  33.065   1.689
25771W        W90932  37.420   3.306  10.133
25772W        W90933  36.317  33.971  11.556
25773W        W90934  41.848   0.837  10.697
25774W        W90935  35.878  34.119  12.598
25775W        W90936  17.844  24.283  14.352
25776W        W90937   2.454  22.178  14.281
25777W        W90938   6.267  39.781  11.501
25778W        W90939   5.528  14.857  14.712
25779W        W90940  33.172  28.960   0.276
25780W        W90941   0.376  18.295  14.825
25781W        W90942  19.098   9.601   0.652
25782W        W90943  40.255  10.981  13.819
25783W        W90944  21.099  22.537  13.390
25784W        W90945  39.435  25.155  12.999
25785W        W90946  32.973  29.143   0.780
25786W        W90947   8.516   0.342  14.244
25787W        W90948  44.516  33.662  13.491
25788W        W90949  13.778   6.856  13.717
25789W        W90950  30.923  32.020  13.406
25790W        W90951  41.030   6.214   2.235
25791W        W90952  36.827  35.548   0.860
25792W        W90953  19.654   6.664   3.530
25793W        W90954  17.123  32.103  14.935
25794W        W90955  19.363   5.726   0.824
25795W        W90956   8.348  24.371  12.009
25796W        W90957  11.531  15.063   3.279
25797W        W90958  22.221  25.424  12.124
25798W        W90959   0.174   9.676  10.198
25799W        W90960   1.212  17.713   4.084
25800W        W90961  44.957  43.605  11.123
25801W        W90962  24.465  37.204  14.073
25802W        W90963  23.529  11.817   4.988
25803W        W90964  20.966  30.053  12.055
25804W        W90965  35.542  35.959   0.703
25805W        W90966  11.712  28.508  14.097
25806W        W90967  18.648  22.534   4.622
25807W        W90968   8.859  42.274   2.836
25808W        W90969  19.177  16.586  14.002
25809W        W90970  42.375  18.131  13.519
25810W        W90971  21.522  14.572  10.758
25811W        W90972  35.482  44.554  13.046
25812W        W90973   9.004  37.775   4.196
25813W        W90974  35.276  44.601  14.439
25814W        W90975  15.662  36.172   2.570
25815W        W90976  11.395  31.076   0.078
25816W        W90977  15.768  13.060   0.736
25817W        W90978  29.363  36.031   3.778
25818W        W90979  39.937   9.142  13.023
25819W        W90980  26.533  21.999  10.862
25820W        W90981   3.972  17.278   0.303
25821W        W90982  34.258  27.802  12.469
25822W        W90983   7.365  44.196   2.869
25823W        W90984  22.221  39.979   0.978
25824W        W90985  42.608  20.319   1.802
25825W        W90986  13.565  33.538  11.451
25826W        W90987  37.358   3.292   4.840
25827W        W90988  32.929  18.151  13.133
25828W        W90989   6.150  25.445   2.883
25829W        W90990   5.884  13.063  11.636
25830W        W90991  26.644  14.854   0.058
25831W        W90992  10.340  16.157   2.832
25832W        W90993  13.105  27.175  14.488
25833W        W90994  27.042  16.490  13.012
25834W        W90995  21.773  18.765   2.139
25835W        W90996  27.680  25.659   4.500
25836W        W90997  41.907  36.011  13.960
25837W        W90998  37.054  40.851   0.033
25838W        W90999  18.780   9.931  11.370
25839W        W91000  28.619  40.293  10.237
25840W        W91001  16.523  18.883   3.678
25841W        W91002  37.467   5.601   1.026
25842W        W91003  31.062  11.202   4.654
25843W        W91004  14.062   4.288   4.030
25844W        W91005  13.886   2.859   1.431
25845W        W91006  40.957  42.659  12.399
25846W        W91007  19.745  21.489   2.331
25847W        W91008  44.921  22.108  14.059
25848W        W91009  20.601   6.810   3.697
25849W        W91010  24.058  15.590  10.180
25850W        W91011   4.373  16.710   4.768
25851W        W91012  11.662   1.347   1.743
25852W        W91013   5.917  30.962  12.769
25853W        W91014   4.125   6.095  11.517
25854W        W91015  22.193  33.664   1.729
25855W        W91016  32.825   8.373  14.365
25856W        W91017  31.767   6.244  10.680
25857W        W91018   4.837  24.491   3.249
25858W        W91019   4.402  18.582  14.488
25859W        W91020  16.795  32.388  14.614
25860W        W91021  10.300  25.312   3.715
25861W        W91022  11.311  33.102  11.515
25862W        W91023   3.972  41.207  12.806
25863W        W91024  10.700  28.659  14.387
25864W        W91025  26.243   6.039  11.391
25865W        W91026  27.254  22.607   2.475
25866W        W91027  23.314  20.572   0.396
25867W        W91028  11.239  26.817   3.821
25868W        W91029  36.131  40.915  10.726
25869W        W91030  26.686  13.063  14.559
25870W        W91031  41.346  23.509   1.179
25871W        W91032  30.255  30.639   2.666
25872W        W91033  28.451  35.308   3.517
25873W        W91034  22.298  22.614  12.087
25874W        W91035  38.313  11.359  13.250
25875W        W91036   9.200  30.359  13.877
25876W        W91037   6.251  40.802   2.863
25877W        W91038  27.611  32.997   4.916
25878W        W91039  43.911  31.890  11.106
25879W        W91040  25.640  27.777  12.156
25880W        W91041  44.675  40.964   2.339
25881W        W91042  36.747  10.856  14.926
25882W        W91043   4.257  43.247   3.260
25883W        W91044   5.766  41.362   2.348
25884W        W91045   4.761  22.037   3.644
25885W        W91046   2.685  33.497   3.264
25886W        W91047   2.513  41.189  13.033
25887W        W91048  36.712  28.069   3.836
25888W        W91049   4.584   6.407   0.315
25889W        W91050  39.451  36.433  12.111
25890W        W91051  14.259  25.616  12.230
25891W        W91052  24.466  17.274   1.630
25892W        W91053  44.350  21.617  10.063
25893W        W91054  31.460  19.964   2.140
25894W        W91055   1.621  32.569   3.356
25895W        W91056  26.106  11.771   0.846
25896W        W91057  14.735  11.889  13.438
25897W        W91058   5.238  21.751   0.881
25898W        W91059  35.534   7.114   4.284
25899W        W91060  41.944  27.744   4.192
25900W        W91061  33.093  23.494  12.996
25901W        W91062  22.581  17.995   3.766
25902W        W91063  16.072  32.375   1.640
25903W        W91064   9.140   9.180  12.563
25904W        W91065  21.704   9.003  14.252
25905W        W91066  40.075  18.631   2.540
25906W        W91067   1.595  43.217  12.509
25907W        W91068  40.585  41.340   1.333
25908W        W91069  19.004   9.881   3.632
25909W        W91070  37.841  40.893  10.101
25910W        W91071  15.401  21.550   4.301
25911W        W91072   1.879  21.562   4.807
25912W        W91073  28.502  36.838   4.567
25913W        W91074   0.783  12.506   1.313
25914W        W91075   7.464  33.175  11.632
25915W        W91076  27.426  13.278   4.468
25916W        W91077  22.187  11.668  10.984
25917W        W91078  25.252  41.100  13.414
25918W        W91079   9.689  16.479   1.921
25919W        W91080  29.392  42.989   3.568
25920W        W91081  16.810  42.417   4.971
25921W        W91082  19.754  25.715   0.509
25922W        W91083  33.484  40.889  10.619
25923W        W91084  35.404   0.424  10.845
25924W        W91085  10.790  38.959   3.973
25925W        W91086  31.116  35.900  13.357
25926W        W91087  28.642  11.441  10.856
25927W        W91088  24.501  24.681   2.243
25928W        W91089  19.352  20.239   4.582
25929W        W91090  41.521   0.172   4.545
25930W        W91091  29.126  44.197  12.922
25931W        W91092  26.781  38.523   1.338
25932W        W91093   3.016   6.634  11.051
25933W        W91094  24.795  15.214   9.864
25934W        W91095  14.609  18.769  10.570
25935W        W91096   0.850   8.589  13.968
25936W        W91097   5.232  24.961  11.158
25937W        W91098  10.914  30.485  12.560
25938W        W91099  36.394  29.121   4.770
25939W        W91100  27.551  42.757   0.873
25940W        W91101  27.751  30.049   2.390
25941W        W91102  16.750  12.163  14.093
25942W        W91103   4.430  43.477   1.773
25943W        W91104  26.946   4.647  12.098
25944W        W91105  21.589  12.385  11.029
25945W        W91106  40.938  25.623   1.698
25946W        W91107  26.118  20.984   1.239
25947W        W91108   7.224   8.587  14.210
25948W        W91109  36.844  14.132  14.797
25949W        W91110  44.273  34.633  13.439
25950W        W91111  42.915  21.599  13.469
25951W        W91112  27.966  33.052  11.160
25952W        W91113   0.321  42.830   1.777
25953W        W91114   3.419  34.646  11.174
25954W        W91115  14.098  19.178  10.609
25955W        W91116  29.543   3.270   3.698
25956W        W91117  31.946  35.598  14.352
25957W        W91118  20.681  18.855   1.142
25958W        W91119  40.628  15.084  13.541
25959W        W91120   2.959   3.030   1.191
25960W        W91121   8.789  15.117  12.570
25961W        W91122  38.083  11.913  11.140
25962W        W91123  38.446  43.944  12.424
25963W        W91124   9.652  12.937  12.144
25964W        W91125   9.890   8.256  14.744
25965W        W91126   1.063  17.196   3.165
25966W        W91127  29.396   3.804   4.376
25967W        W91128  43.919  20.047  11.185
25968W        W91129  35.615  20.637   2.742
25969W        W91130   2.203   5.936  11.548
25970W        W91131  18.285  19.191   3.240
25971W        W91132  19.220   1.299   2.381
25972W        W91133  10.202  36.432   3.872
25973W        W91134  19.752  31.898  12.483
25974W        W91135  32.519  33.273   4.959
25975W        W91136  21.790  34.315   1.400
25976W        W91137  43.533  13.902   2.795
25977W        W91138   8.266  43.042   1.678
25978W        W91139  29.426  15.220   3.570
25979W        W91140  28.615   3.558  10.708
25980W        W91141   1.232   2.212  12.561
25981W        W91142   0.037  23.317   2.401
25982W        W91143  16.374   2.217  11.549
25983W        W91144  13.793  15.636  10.202
25984W        W91145  31.639  18.899   2.193
25985W        W91146  20.386   9.044  14.007
25986W        W91147  10.336  28.951   2.304
25987W        W91148  12.314  25.695  13.589
25988W        W91149   4.793  13.197   2.086
25989W        W91150   6.893  39.050  14.347
25990W        W91151   6.570  27.992   1.697
25991W        W91152  12.789  31.177   2.707
25992W        W91153  34.935  37.035   1.441
25993W        W91154  19.451   9.920   2.141
25994W        W91155  39.488  34.799  11.242
25995W        W91156  33.762  22.480  10.523
25996W        W91157  15.816  12.373   2.756
25997W        W91158   7.428  18.657   3.680
25998W        W91159  39.356   6.807   1.376
25999W        W91160  23.603   7.087   3.742
26000W        W91161  18.330  35.815   2.300
26001W        W91162  35.354  15.425  11.318
26002W        W91163  27.391  27.587   0.269
26003W        W91164  15.994  37.298  14.553
26004W        W91165  33.845   0.117  10.591
26005W        W91166  17.615  18.358  14.786
26006W        W91167  36.116   5.692   0.918
26007W        W91168  36.564  38.945   0.959
26008W        W91169  33.819  33.633   3.721
26009W        W91170  12.365  42.531   1.850
26010W        W91171  22.282   0.791  14.320
26011W        W91172  21.262  10.563  11.074
26012W        W91173   0.773  31.572   3.869
26013W        W91174  28.186  13.775   0.285
26014W        W91175   3.017   3.326   0.750
26015W        W91176  13.761  12.337   2.665
26016W        W91177  14.651   1.762  13.425
26017W        W91178  39.876  11.973   4.012
26018W        W91179  22.479  27.461  10.602
26019W        W91180  17.224  22.629  13.968
26020W        W91181   1.521  19.163   4.079
26021W        W91182  31.824  34.383  11.148
26022W        W91183  13.003  16.563   2.003
26023W        W91184  11.149  30.192   3.717
26024W        W91185   3.878  26.480   0.246
26025W        W91186   8.802  35.171   3.198
26026W        W91187  30.013   4.921   4.419
26027W        W91188  14.708  20.570  13.001
26028W        W91189   9.928  29.981   0.206
26029W        W91190  22.225  12.989   1.707
26030W        W91191  33.972  24.236   1.839
26031W        W91192  24.250  14.327  14.364
26032W        W91193  24.975  33.325   4.654
26033W        W91194   0.491  23.150  12.955
26034W        W91195   8.310  34.016   2.681
26035W        W91196  22.076  18.146   3.697
26036W        W91197   4.224  37.562   4.683
26037W        W91198  39.381  41.874   3.234
26038W        W91199  38.894   7.604   2.265
26039W        W91200  37.619  12.302  14.017
26040W        W91201  20.261  13.177  13.513
26041W        W91202  20.184  24.221   3.110
26042W        W91203  22.898   4.194   0.325
26043W        W91204  33.383  30.541  13.237
26044W        W91205  12.282  15.290  14.528
26045W        W91206  43.602   7.008  12.935
26046W        W91207  28.535  25.209   4.069
26047W        W91208   7.377   8.741  12.242
26048W        W91209  26.516  33.777   0.945
26049W        W91210  24.168  15.952   3.224
26050W        W91211  34.973   1.966   1.465
26051W        W91212  44.891   7.614   3.342
26052W        W91213  36.576  34.606   3.780
26053W        W91214   8.525  41.507   0.806
26054W        W91215  34.828  21.932  14.366
26055W        W91216   0.661  27.573  13.063
26056W        W91217  22.177  12.871   5.211
26057W        W91218  28.179  27.371   3.867
26058W        W91219  27.036  43.831   2.564
26059W        W91220  20.192  38.879  13.538
26060W        W91221  40.040  16.739  12.946
26061W        W91222  41.193  10.382  11.580
26062W        W91223  43.963   8.506   4.147
26063W        W91224   1.775  26.014   4.246
26064W        W91225  24.940  25.196   1.169
26065W        W91226  42.733   5.765  14.353
26066W        W91227   0.486  37.848  12.444
26067W        W91228  44.259  10.254  10.541
26068W        W91229   5.948  42.465  13.887
26069W        W91230  11.517   7.022  13.575
26070W        W91231  19.086  22.713   3.201
26071W        W91232  37.900  12.832  13.117
26072W        W91233   1.822  38.677   0.441
26073W        W91234  44.538  34.822   1.884
26074W        W91235  30.557  27.680   4.191
26075W        W91236  23.648   1.054   0.835
26076W        W91237   5.416  21.087   2.944
26077W        W91238  38.317  18.538  10.791
26078W        W91239  25.417  32.662   4.387
26079W        W91240   5.194  42.402  14.532
26080W        W91241  39.927  40.361  10.788
26081W        W91242  10.143  41.472  14.911
26082W        W91243  31.874  16.199   0.337
26083W        W91244  24.088  42.967   1.343
26084W        W91245  35.377   7.354  13.483
26085W        W91246  10.926  21.774   0.357
26086W        W91247  34.306  44.765   2.211
26087W        W91248  26.205  40.428   4.773
26088W        W91249  37.091  30.824   4.862
26089W        W91250  21.495  25.059  14.307
26090W        W91251   3.822  27.877   1.289
26091W        W91252  18.182  30.213   3.742
26092W        W91253  18.999  30.458   9.837
26093W        W91254   0.439  15.059  12.641
26094W        W91255   5.855   6.186  13.863
26095W        W91256  20.463  33.967   2.249
26096W        W91257  14.814  30.867  12.178
26097W        W91258  25.081  20.294  14.019
26098W        W91259  12.755  10.136   2.713
26099W        W91260  23.472  20.169   4.303
26100W        W91261   8.255  43.833   4.104
26101W        W91262   0.410  43.369  13.628
26102W        W91263   7.480  41.839  14.310
26103W        W91264  16.552  41.364  14.845
26104W        W91265  25.640  39.742   0.052
26105W        W91266  20.977  32.462  13.747
26106W        W91267  34.908  26.638   4.624
26107W        W91268  42.192  27.645   0.914
26108W        W91269   0.206   3.825   4.473
26109W        W91270  17.002  25.603  14.291
26110W        W91271  37.298  10.285   0.959
26111W        W91272  22.024  22.221  14.311
26112W        W91273   7.890  41.782  10.707
26113W        W91274  40.929  13.354   0.838
26114W        W91275  18.125  13.234   4.756
26115W        W91276  38.142  40.703  11.141
26116W        W91277  12.789  20.751   3.194
26117W        W91278  35.352  39.774  12.033
26118W        W91279  18.226   7.835  11.175
26119W        W91280  43.895  17.420   1.314
26120W        W91281  18.881   5.684   4.069
26121W        W91282  43.074  13.694  12.519
26122W        W91283   6.139  38.886   1.133
26123W        W91284   7.602  38.714   3.097
26124W        W91285  15.176  38.527   3.335
26125W        W91286  28.000   8.853   3.795
26126W        W91287  16.809   3.080  12.199
26127W        W91288  19.087   4.194  12.098
26128W        W91289  24.009  37.429  14.306
26129W        W91290   6.264  35.751  12.459
26130W        W91291   6.962  19.320   3.649
26131W        W91292   9.166   0.419   1.212
26132W        W91293   3.199  21.971  12.993
26133W        W91294  21.904  17.360  14.268
26134W        W91295  28.708   9.670   0.228
26135W        W91296  31.089  11.486   3.480
26136W        W91297  13.289  14.655   2.216
26137W        W91298  42.833  16.511   4.595
26138W        W91299  22.222  18.391  14.942
26139W        W91300  19.610  29.441   4.597
26140W        W91301   6.379  42.308   3.747
26141W        W91302  25.573  37.755  10.382
26142W        W91303  14.752  18.632  13.536
26143W        W91304   5.174  17.102   2.789
26144W        W91305  20.056  33.539   1.311
26145W        W91306  37.597  11.355  14.899
26146W        W91307  35.167  29.525   3.251
26147W        W91308  35.547  13.692   2.783
26148W        W91309  11.616   3.858   1.812
26149W        W91310  20.531  43.284   2.432
26150W        W91311   2.473  24.693   4.510
26151W        W91312  14.676   5.809   4.230
26152W        W91313  14.625  18.698  14.028
26153W        W91314  38.029  17.582   4.338
26154W        W91315  44.437  34.913  13.844
26155W        W91316  13.485  12.485  13.352
26156W        W91317   1.295  13.285  13.496
26157W        W91318   5.375  37.694   0.807
26158W        W91319  23.786  35.533  10.583
26159W        W91320   9.257   8.927  14.048
26160W        W91321  35.456  10.921  11.501
26161W        W91322  44.329  26.268   2.135
26162W        W91323  16.509   1.187  11.074
26163W        W91324  16.724  32.589   3.683
26164W        W91325  36.753   9.004  11.217
26165W        W91326  13.994   8.846   4.733
26166W        W91327  15.614  14.616   4.341
26167W        W91328  16.952   3.443   2.450
26168W        W91329  31.956  16.781  14.340
26169W        W91330  28.450   0.284  12.450
26170W        W91331  33.636   3.221   4.671
26171W        W91332  19.400  35.782   2.383
26172W        W91333   6.218  42.886  11.617
26173W        W91334  44.763  19.098   0.934
26174W        W91335   4.793  11.621   2.289
26175W        W91336   2.732  29.804   0.964
26176W        W91337   8.835   2.782   3.359
26177W        W91338  32.524  25.522   1.708
26178W        W91339  28.692  22.359  11.195
26179W        W91340  10.638  38.601   1.960
26180W        W91341  16.879   9.307  12.503
26181W        W91342  33.395  23.264  12.408
26182W        W91343   3.268  42.685   4.042
26183W        W91344  10.516   6.157   0.565
26184W        W91345   1.631  12.073   5.489
26185W        W91346  12.193  43.547   4.239
26186W        W91347  27.562  34.450   1.573
26187W        W91348  15.876  41.892   2.381
26188W        W91349  28.980   7.740  13.005
26189W        W91350  10.316   5.108   2.377
26190W        W91351  34.967  13.646  13.588
26191W        W91352  17.318  15.635   4.138
26192W        W91353  38.869  11.942   4.080
26193W        W91354  43.835  35.976  11.385
26194W        W91355  38.133  29.326   0.180
26195W        W91356  12.044  28.213   1.336
26196W        W91357  36.287  44.950  14.331
26197W        W91358   0.814  33.307   1.557
26198W        W91359  11.104  27.841   3.629
26199W        W91360  11.957  17.522  12.551
26200W        W91361  43.216   2.820  14.556
26201W        W91362   1.132  17.113   1.289
26202W        W91363   7.529  39.027   2.693
26203W        W91364   3.472  41.911   5.075
26204W        W91365  34.449  40.629   4.420
26205W        W91366   0.685  18.838  11.050
26206W        W91367  33.834  41.054   4.916
26207W        W91368  31.474  44.028   1.260
26208W        W91369  38.438  19.642   4.531
26209W        W91370  37.833  16.437   4.196
26210W        W91371   4.313  37.372   1.157
26211W        W91372  43.251  21.143  11.654
26212W        W91373  16.182  26.635   2.247
26213W        W91374  26.677  42.506   1.206
26214W        W91375  23.576   6.907  14.512
26215W        W91376  38.170  25.252   0.524
26216W        W91377  23.980  38.019   5.003
26217W        W91378  30.682  14.916   1.446
26218W        W91379  41.810  20.235  14.430
26219W        W91380  24.020  21.620   0.018
26220W        W91381   8.758   1.310  11.891
26221W        W91382  27.375  14.018  11.574
26222W        W91383  26.181  41.946  12.995
26223W        W91384  38.658  10.024  12.837
26224W        W91385   5.803  11.725  13.018
26225W        W91386  38.336  33.090   0.339
26226W        W91387  38.446  22.599   4.325
26227W        W91388  36.451   6.191   1.354
26228W        W91389  14.658  13.364   2.620
26229W        W91390  35.530  28.562   3.073
26230W        W91391   9.171  32.694  14.740
26231W        W91392  28.720   1.344   2.840
26232W        W91393  18.192  22.784   3.132
26233W        W91394  26.263  35.372   1.960
26234W        W91395  14.108  10.446   2.565
26235W        W91396   4.715  34.372  11.526
26236W        W91397  35.926  17.827   2.760
26237W        W91398  21.594   1.492   3.693
26238W        W91399  28.155  21.021  14.839
26239W        W91400   9.941   6.812   2.845
26240W        W91401  31.010  14.857   2.680
26241W        W91402   4.276  44.551   4.558
26242W        W91403  39.889   8.664  12.833
26243W        W91404  20.810  26.586   1.030
26244W        W91405  10.806   5.217   0.754
26245W        W91406  11.612   7.783  14.135
26246W        W91407  25.079  33.638  10.629
26247W        W91408  19.121  24.999  14.447
26248W        W91409  43.380   8.468  13.898
26249W        W91410  32.059  25.721   1.860
26250W        W91411  32.827   4.702  12.952
26251W        W91412  22.243   6.367   4.890
26252W        W91413  11.592   8.803  11.936
26253W        W91414  23.181   5.952  14.548
26254W        W91415  35.540  15.599   0.891
26255W        W91416  22.158  25.690  11.688
26256W        W91417  41.009  41.402  14.243
26257W        W91418  12.572  26.669  11.534
26258W        W91419  33.586   7.730   3.217
26259W        W91420  35.922  10.090  13.544
26260W        W91421   3.509  43.132  11.543
26261W        W91422  19.122  24.126  10.774
26262W        W91423  36.391  14.627   2.968
26263W        W91424  39.353  35.293  14.645
26264W        W91425  41.984  20.528  12.545
26265W        W91426  14.330  28.224  12.553
26266W        W91427  15.661  29.943  14.838
26267W        W91428  37.011  43.835  13.624
26268W        W91429  21.956  29.992  11.120
26269W        W91430  35.310   6.720   2.161
26270W        W91431  10.071  30.825  13.837
26271W        W91432  20.204   6.411   0.240
26272W        W91433  26.240  44.245  14.478
26273W        W91434  22.005  37.756  10.685
26274W        W91435  36.555  39.988   2.622
26275W        W91436   1.922  23.252  10.719
26276W        W91437  35.984  18.608   2.364
26277W        W91438  20.169  35.305   3.634
26278W        W91439   6.368  32.797  10.724
26279W        W91440  17.329  26.838   1.331
26280W        W91441  12.727   9.061   1.740
26281W        W91442  13.276  18.772  11.856
26282W        W91443  37.516  40.894   5.009
26283W        W91444  34.915  44.014  13.902
26284W        W91445  19.825   3.165  11.171
26285W        W91446   1.157  32.571  14.858
26286W        W91447  12.578  13.246  14.490
26287W        W91448  33.291  19.479   4.171
26288W        W91449   6.273   8.124  10.393
26289W        W91450  37.196  26.678   5.051
26290W        W91451  12.750  13.366  12.191
26291W        W91452  28.178   5.535   0.520
26292W        W91453  17.845  18.615  12.338
26293W        W91454  26.738  20.667  12.580
26294W        W91455  12.176  12.203   3.788
26295W        W91456   4.443  17.275   0.526
26296W        W91457  22.177  29.356  12.237
26297W        W91458  33.665  15.596  10.640
26298W        W91459  10.356   6.360  14.357
26299W        W91460  16.850  34.107   1.784
26300W        W91461  30.055   0.292   2.284
26301W        W91462  29.560  13.796  11.123
26302W        W91463  14.014  36.061  12.434
26303W        W91464  33.988  26.864   4.620
26304W        W91465  29.358  32.198  10.284
26305W        W91466  34.472  26.421   3.694
26306W        W91467  23.488  40.802   0.375
26307W        W91468   6.659  27.624  13.995
26308W        W91469  10.213  23.821  11.636
26309W        W91470  41.915  12.372  14.857
26310W        W91471   5.653  25.945   0.931
26311W        W91472  41.510   4.932   4.098
26312W        W91473  30.279  42.193   3.354
26313W        W91474  20.672  14.532  11.600
26314W        W91475  41.018   5.512  12.491
26315W        W91476   1.373  43.397   1.696
26316W        W91477   2.485  44.737   4.559
26317W        W91478  15.460  42.607   2.747
26318W        W91479  11.769  33.393  10.540
26319W        W91480  16.081  27.683  12.551
26320W        W91481  25.496  15.603  14.092
26321W        W91482  29.894  30.391  14.440
26322W        W91483  13.272  38.590  11.566
26323W        W91484  15.206  25.747  12.113
26324W        W91485  36.730   5.941   3.056
26325W        W91486  30.559  37.851   3.882
26326W        W91487  42.828   3.472   3.496
26327W        W91488  13.239  10.705   0.425
26328W        W91489  38.943  38.456   2.124
26329W        W91490  44.777   4.875   4.228
26330W        W91491  43.663  39.594  10.997
26331W        W91492  23.058  17.614  12.058
26332W        W91493   9.318  33.117  10.939
26333W        W91494   6.190   3.503   3.684
26334W        W91495  24.233  12.577   1.186
26335W        W91496   7.436  38.312   3.363
26336W        W91497  36.436  21.708   1.795
26337W        W91498  37.044   9.102   2.903
26338W        W91499  11.309  33.551  12.653
26339W        W91500  12.598  12.417  11.595
26340W        W91501  11.841  32.668   3.288
26341W        W91502  32.996  27.485   3.824
26342W        W91503  42.036   6.209  12.117
26343W        W91504  42.295  13.108  11.177
26344W        W91505  31.900  27.564  12.065
26345W        W91506   6.198  41.264  13.394
26346W        W91507  43.965   9.496  13.342
26347W        W91508  11.220  41.984  14.783
26348W        W91509   7.125   7.801  14.303
26349W        W91510   7.369   1.767   3.184
26350W        W91511  14.559  43.700  11.576
26351W        W91512  38.634  22.264  14.429
26352W        W91513  26.936  23.520  14.032
26353W        W91514  31.492  12.692   4.128
26354W        W91515  19.697   1.273   0.260
26355W        W91516   0.753  10.423   4.090
26356W        W91517  41.819  43.319   2.346
26357W        W91518  22.813  11.130   2.124
26358W        W91519   2.590   3.702   4.625
26359W        W91520  41.849  39.990   3.264
26360W        W91521  38.130  28.043   3.766
26361W        W91522  17.129  42.438  12.900
26362W        W91523  29.432   0.297   3.556
26363W        W91524  21.181  12.436  10.717
26364W        W91525  33.415   6.490  13.575
26365W        W91526   4.575   2.397   3.245
26366W        W91527  23.269   1.209   2.834
26367W        W91528  29.717   3.241  11.283
26368W        W91529  43.221  15.598   0.346
26369W        W91530  15.609  12.511  12.057
26370W        W91531   2.460  42.214   2.699
26371W        W91532  42.345  12.346   2.179
26372W        W91533  34.345  10.325  12.100
26373W        W91534   0.957  41.933   2.215
26374W        W91535  14.389  23.117  13.924
26375W        W91536   0.084  32.556   1.222
26376W        W91537  29.231  27.618  14.899
26377W        W91538   7.890  31.028   1.229
26378W        W91539  10.577  43.265  12.522
26379W        W91540  43.415   3.510  14.142
26380W        W91541  19.270  35.580  14.097
26381W        W91542  32.525  19.778   4.007
26382W        W91543  43.869  39.336  12.439
26383W        W91544  38.973  13.126  12.990
26384W        W91545  15.825  41.821  14.774
26385W        W91546  11.367  39.317   3.711
26386W        W91547  10.670  23.628  11.482
26387W        W91548  22.489  36.657   0.471
26388W        W91549  27.719  17.720   3.146
26389W        W91550  13.619  11.530   3.275
26390W        W91551  11.635  44.451  14.894
26391W        W91552  23.846  33.677  13.856
26392W        W91553  10.283  42.009   0.266
26393W        W91554  43.269  41.003   4.739
26394W        W91555  36.312  30.992   0.312
26395W        W91556   6.964  28.771  11.457
26396W        W91557  38.058   0.932  13.405
26397W        W91558  22.587  40.831  12.155
26398W        W91559  34.983  11.233  14.296
26399W        W91560  20.742  34.398   1.496
26400W        W91561  14.260  24.531   4.881
26401W        W91562  44.886  10.402  14.888
26402W        W91563  35.957  19.203  11.399
26403W        W91564  19.412  42.908  12.076
26404W        W91565  30.964  21.424   2.778
26405W        W91566  40.256  29.714   0.428
26406W        W91567  15.771  40.800  13.408
26407W        W91568  13.291  22.376   0.212
26408W        W91569  42.910  42.229   3.343
26409W        W91570  28.995  21.756  14.011
26410W        W91571  31.787  41.695  14.486
26411W        W91572   5.980  19.602   2.949
26412W        W91573  27.199  24.516  10.560
26413W        W91574  14.563  22.337   0.184
26414W        W91575  23.696  16.582   0.485
26415W        W91576   0.907   1.236   3.199
26416W        W91577  32.677   2.726  12.935
26417W        W91578   9.412   6.565  11.228
26418W        W91579  29.917  37.137  13.805
26419W        W91580  37.964  27.891  12.934
26420W        W91581  43.280  20.107  13.805
26421W        W91582  33.007  17.404  14.953
26422W        W91583   8.388  17.638   2.654
26423W        W91584  28.008  19.002  10.730
26424W        W91585  20.931   4.202  14.096
26425W        W91586  24.756   6.762   2.889
26426W        W91587  28.933  30.463  11.579
26427W        W91588  28.602   9.128  11.551
26428W        W91589  43.810  35.431   2.875
26429W        W91590  35.045  23.846  13.435
26430W        W91591   8.792  26.958   4.213
26431W        W91592   2.807  20.842  11.551
26432W        W91593  22.493  17.271  10.137
26433W        W91594  12.615  26.155  11.596
26434W        W91595  42.238   0.758   2.791
26435W        W91596  36.121  11.183  13.908
26436W        W91597  11.613  10.277   0.691
26437W        W91598  24.288  23.203   0.907
26438W        W91599  22.970  44.304  10.293
26439W        W91600  36.002  12.260   1.881
26440W        W91601  41.809  28.410  11.213
26441W        W91602  20.237   6.592   2.786
26442W        W91603   0.359  20.114   4.095
26443W        W91604   7.237   2.740   2.277
26444W        W91605   1.279  36.124  14.334
26445W        W91606  20.298  17.348  13.456
26446W        W91607  11.346  18.142  14.840
26447W        W91608  35.729  29.212   3.826
26448W        W91609   2.702  17.472   3.121
26449W        W91610   0.180  32.904   9.446
26450W        W91611  20.313   7.109   2.849
26451W        W91612  27.028   0.312   3.290
26452W        W91613  41.188   2.722  11.189
26453W        W91614  25.385   0.301  13.135
26454W        W91615  22.574  44.193   5.049
26455W        W91616  20.758  28.221  12.044
26456W        W91617   3.826  36.539   2.331
26457W        W91618  28.982  17.936   5.020
26458W        W91619  42.835   7.409  11.227
26459W        W91620  31.094  38.618   0.358
26460W        W91621  37.484  17.685  14.511
26461W        W91622  30.608   9.926   3.193
26462W        W91623  19.151  30.986  12.889
26463W        W91624  17.790   1.358  11.889
26464W        W91625   7.232  39.549   4.570
26465W        W91626   2.324  28.695  12.190
26466W        W91627  38.983   9.976   4.380
26467W        W91628  11.654  22.868   0.354
26468W        W91629  43.771  36.503  13.127
26469W        W91630   6.874  29.936   4.594
26470W        W91631  11.881   1.992   2.769
26471W        W91632  40.656  37.562   4.579
26472W        W91633  14.022  18.679   4.649
26473W        W91634  35.669  23.096  11.458
26474W        W91635   7.603  16.829   2.775
26475W        W91636  14.516   3.467   4.262
26476W        W91637  30.448  21.299   5.500
26477W        W91638  11.992  37.771   0.154
26478W        W91639   8.396  40.348   1.926
26479W        W91640  14.992   3.914   0.253
26480W        W91641  22.952  25.591  11.243
26481W        W91642  33.575  20.296   0.044
26482W        W91643  29.898  30.520  13.503
26483W        W91644  31.163  17.476   0.273
26484W        W91645   5.919  34.306   2.687
26485W        W91646  14.943   7.373   3.119
26486W        W91647  29.180  38.873   0.039
26487W        W91648   4.996  32.154  11.977
26488W        W91649  30.454  41.671   4.058
26489W        W91650  42.995  23.300  13.297
26490W        W91651  44.717  36.877   0.996
26491W        W91652   0.288  29.429  11.590
26492W        W91653  34.662   2.716  11.561
26493W        W91654  10.143  39.005  14.005
26494W        W91655   0.761  44.439  12.068
26495W        W91656  35.268  15.611   2.808
26496W        W91657   9.286  38.986   1.238
26497W        W91658  32.362  29.058  11.117
26498W        W91659  20.277  39.576  10.632
26499W        W91660  44.820  24.410  11.033
26500W        W91661  43.189   6.445   4.131
26501W        W91662  43.281  21.054   1.805
26502W        W91663  35.544  44.793  14.850
26503W        W91664  17.186  13.277  14.253
26504W        W91665  30.500  21.175  11.151
26505W        W91666  26.204  31.658   2.934
26506W        W91667   5.040  11.428  11.015
26507W        W91668   9.790  38.480  10.717
26508W        W91669   2.930  37.639   2.363
26509W        W91670  23.334  27.037  11.244
26510W        W91671  31.989  36.255   5.086
26511W        W91672  36.908  39.016  12.972
26512W        W91673  22.685  18.129  10.349
26513W        W91674  39.798  27.517   1.368
26514W        W91675  21.529  39.098  14.016
26515W        W91676  43.740  32.846   2.467
26516W        W91677   7.196  23.462  14.406
26517W        W91678   5.908  20.975   2.738
26518W        W91679  31.098  29.200  13.528
26519W        W91680  11.099  20.852   1.348
26520W        W91681   8.909   2.805  11.125
26521W        W91682  26.648  44.030   2.254
26522W        W91683  17.688  34.124   0.277
26523W        W91684  11.730  14.123  11.578
26524W        W91685  34.363  43.778   1.309
26525W        W91686  13.261  35.025   1.901
26526W        W91687  36.731  23.051  11.655
26527W        W91688  37.923  24.583  10.482
26528W        W91689  31.344  10.374   1.487
26529W        W91690  26.811  21.255  10.402
26530W        W91691   8.812  19.550   0.389
26531W        W91692   3.465  27.072   1.901
26532W        W91693  44.828  22.784  12.293
26533W        W91694  26.071   7.469  11.925
26534W        W91695  44.451  15.084   2.391
26535W        W91696  14.341   1.045  12.858
26536W        W91697  14.662   3.922   2.655
26537W        W91698  10.412  26.023   1.259
26538W        W91699   3.821  38.926   4.625
26539W        W91700  18.358   0.947  13.507
26540W        W91701  31.192  27.660  10.384
26541W        W91702  38.764  34.381   1.855
26542W        W91703  38.146   3.467  11.665
26543W        W91704  31.183  35.343   1.257
26544W        W91705  17.649   5.464   3.497
26545W        W91706  32.426  31.105   2.238
26546W        W91707   0.159  26.101  12.850
26547W        W91708  25.616  13.850   5.409
26548W        W91709  37.928   8.342  14.404
26549W        W91710  37.606  17.534   3.573
26550W        W91711  43.930  38.936   1.238
26551W        W91712  18.671  37.748   4.431
26552W        W91713  41.827  20.679  14.689
26553W        W91714   9.419  20.720  11.205
26554W        W91715   1.974  38.983   2.838
26555W        W91716  18.204   1.262   2.975
26556W        W91717  36.626  22.002   2.236
26557W        W91718  19.635  44.046  13.030
26558W        W91719  14.323  31.047  14.133
26559W        W91720   5.195  25.775  14.784
26560W        W91721  24.300  43.706  14.438
26561W        W91722  14.065  34.947  13.820
26562W        W91723  11.027   6.388  11.105
26563W        W91724   2.745   7.200   2.647
26564W        W91725  16.664  35.958   0.892
26565W        W91726  34.680   7.378   4.374
26566W        W91727   4.868  35.005   3.140
26567W        W91728  41.794  10.932   0.859
26568W        W91729  38.439  36.833   4.020
26569W        W91730  29.941  15.740   2.830
26570W        W91731   3.438  17.646  13.065
26571W        W91732  41.059  25.094   1.821
26572W        W91733  17.469   3.876  14.298
26573W        W91734  15.262   9.428  10.765
26574W        W91735   6.130   9.722  11.512
26575W        W91736  12.304  26.026   0.902
26576W        W91737  25.134  24.630  12.803
26577W        W91738  23.135  30.435  13.394
26578W        W91739  20.585  21.847   4.592
26579W        W91740  16.034  36.531   3.781
26580W        W91741   6.203  29.212   2.231
26581W        W91742  27.690  32.900   0.497
26582W        W91743   9.722  17.128  14.344
26583W        W91744   8.182   3.352  14.463
26584W        W91745  15.640  29.945  14.294
26585W        W91746  35.960  32.909  14.342
26586W        W91747  41.360   3.891  14.296
26587W        W91748   1.884   9.696   4.626
26588W        W91749   4.878  34.132  14.350
26589W        W91750  39.173  35.618  13.703
26590W        W91751   5.201  29.612   4.211
26591W        W91752  42.991  19.977   1.257
26592W        W91753  31.493  37.025   4.595
26593W        W91754  13.914  19.921  12.958
26594W        W91755  21.289  15.278  14.174
26595W        W91756   1.073  26.299  12.397
26596W        W91757  31.624  31.144   3.731
26597W        W91758  24.957  30.156  13.853
26598W        W91759   9.734  22.222  13.518
26599W        W91760   7.684  16.589  11.144
26600W        W91761  25.482  28.472   1.686
26601W        W91762  30.088  31.423  14.396
26602W        W91763  29.485   5.683  13.390
26603W        W91764  13.670  12.756  14.277
26604W        W91765  37.651  23.799  13.490
26605W        W91766   6.808   7.858   4.709
26606W        W91767  31.021  43.054   5.040
26607W        W91768  33.623  33.467  14.469
26608W        W91769  22.080   4.463   0.783
26609W        W91770  37.973   8.802   0.082
26610W        W91771  44.063  20.602   4.096
26611W        W91772  39.410  23.541  14.270
26612W        W91773  15.802  14.069   0.977
26613W        W91774  10.637  19.197   1.867
26614W        W91775  26.179   4.136  12.310
26615W        W91776   0.112  33.176   2.396
26616W        W91777  32.412  15.298   0.189
26617W        W91778  35.431  34.118  13.368
26618W        W91779  40.443   1.654  14.262
26619W        W91780  19.191  27.237  11.173
26620W        W91781  15.189  26.075   4.463
26621W        W91782  24.604  42.898   1.381
26622W        W91783   2.990  38.227   3.200
26623W        W91784  24.652  33.570   0.243
26624W        W91785  11.408  44.713  12.015
26625W        W91786   8.165  42.769   2.113
26626W        W91787  40.715   2.938  12.481
26627W        W91788  24.040  36.908  14.011
26628W        W91789   5.421   2.933   1.748
26629W        W91790   9.336  20.750   4.387
26630W        W91791  24.778  30.619  10.552
26631W        W91792  27.518  12.897   1.634
26632W        W91793   3.863   7.451  14.083
26633W        W91794   8.834  28.608   3.760
26634W        W91795   8.126   4.253  11.539
26635W        W91796  20.161  25.539   0.228
26636W        W91797  21.945  29.948   1.149
26637W        W91798  17.586   9.833   0.715
26638W        W91799  24.676  22.817   3.795
26639W        W91800  12.191  28.385  13.808
26640W        W91801   9.983  10.176   3.739
26641W        W91802   1.711  26.676   2.473
26642W        W91803  39.725  29.477  14.867
26643W        W91804  25.452  31.677   3.616
26644W        W91805  40.593   4.581   5.195
26645W        W91806  15.700  24.326  10.513
26646W        W91807  21.552  36.308  10.642
26647W        W91808  16.264  42.477   5.044
26648W        W91809   2.616  37.514  13.955
26649W        W91810  12.680  41.934   3.142
26650W        W91811   0.077  31.138  12.104
26651W        W91812  44.799  10.829   5.508
26652W        W91813  39.008   9.805  10.440
26653W        W91814   9.883  42.085  12.973
26654W        W91815  34.455  32.059   5.077
26655W        W91816  32.068  10.274   2.516
26656W        W91817  17.727  19.071   0.315
26657W        W91818  37.984  41.394   0.865
26658W        W91819  23.087  32.257  11.384
26659W        W91820  40.937  43.712  12.168
26660W        W91821   7.464   3.690   3.099
26661W        W91822  14.292  18.266  12.175
26662W        W91823  29.693  14.646   4.353
26663W        W91824  38.948   6.302  13.343
26664W        W91825  33.025   2.767  14.942
26665W        W91826  22.879  35.221   0.732
26666W        W91827  31.397  25.674   4.947
26667W        W91828   6.849  24.400   1.779
26668W        W91829  32.142   7.893  11.004
26669W        W91830   8.351  10.386   0.507
26670W        W91831  10.532  14.808  11.954
26671W        W91832  20.787   9.259   0.904
26672W        W91833  34.089   5.373  14.009
26673W        W91834  30.868  11.837  11.373
26674W        W91835  20.768  36.504   4.483
26675W        W91836  30.548  10.922   0.616
26676W        W91837  35.371  25.020   4.555
26677W        W91838  17.034  23.642  13.970
26678W        W91839  32.447   1.929   1.012
26679W        W91840  27.564   7.343  14.901
26680W        W91841  21.703   6.614  12.435
26681W        W91842  20.054  42.729   9.843
26682W        W91843  18.899  30.026   2.713
26683W        W91844  31.530  11.108  14.021
26684W        W91845  13.104  29.044  10.450
26685W        W91846   1.580  39.265  13.949
26686W        W91847   0.270  41.622   0.278
26687W        W91848   2.823  17.098   3.642
26688W        W91849  11.701  38.765  14.962
26689W        W91850  25.564  27.450  14.837
26690W        W91851  31.368  24.376  14.519
26691W        W91852  16.770   8.669  11.706
26692W        W91853  20.871  24.606   3.734
26693W        W91854  24.757  41.117   3.979
26694W        W91855  11.687  10.379   2.250
26695W        W91856  30.531  29.233  14.507
26696W        W91857  32.306  19.560  12.465
26697W        W91858   7.476   0.357  13.652
26698W        W91859  36.311  31.165  12.653
26699W        W91860  11.349  31.939   1.038
26700W        W91861   8.310   0.006   3.512
26701W        W91862   4.024  31.944  13.926
26702W        W91863  22.253  16.639  10.450
26703W        W91864   4.649  36.441  12.408
26704W        W91865   8.406  35.361  12.844
26705W        W91866  27.857  38.121  11.660
26706W        W91867   0.703  26.502   3.315
26707W        W91868  24.272  35.492  10.331
26708W        W91869   0.772   1.217  13.619
26709W        W91870  34.820   6.953   3.794
26710W        W91871  20.755  32.805   3.483
26711W        W91872  33.941  10.964  14.908
26712W        W91873  44.501  15.551  13.450
26713W        W91874  33.149  29.828   0.228
26714W        W91875  28.420   5.133   1.345
26715W        W91876  12.234  16.617  12.624
26716W        W91877  44.939  20.607  11.434
26717W        W91878  20.093   8.178  11.203
26718W        W91879  41.286  32.219  10.724
26719W        W91880   5.732  39.912   4.344
26720W        W91881  23.627  25.486   0.900
26721W        W91882   8.832  21.310   4.645
26722W        W91883   5.373   7.791  13.510
26723W        W91884   4.381   7.716   2.786
26724W        W91885  32.969  43.198   9.829
26725W        W91886   2.255  29.335  12.431
26726W        W91887  21.454  15.677  12.157
26727W        W91888  38.463  37.769   1.744
26728W        W91889  27.901  22.276  11.580
26729W        W91890   8.286  32.128  11.684
26730W        W91891  35.762  42.397  14.863
26731W        W91892  39.388   4.540   0.316
26732W        W91893  13.045  37.989   1.009
26733W        W91894  38.243  37.383   0.822
26734W        W91895  13.874  32.147  12.412
26735W        W91896   7.449  17.123   1.176
26736W        W91897   6.653  41.450  12.011
26737W        W91898  36.520  11.701   2.388
26738W        W91899  38.400   6.735   3.313
26739W        W91900   5.420  22.092   0.524
26740W        W91901  42.303  33.015   1.505
26741W        W91902  36.788   1.703  14.010
26742W        W91903   9.254  21.527   1.976
26743W        W91904  30.345  20.838   1.254
26744W        W91905  19.145   5.760  13.142
26745W        W91906  32.460  26.085  11.696
26746W        W91907  19.998   1.497  14.770
26747W        W91908   5.832  20.764  10.396
26748W        W91909  13.617  42.337   2.777
26749W        W91910  33.109   2.450  11.215
26750W        W91911   1.415  16.844  14.831
26751W        W91912  14.586  22.978   1.878
26752W        W91913  30.631  28.718  13.002
26753W        W91914  25.776  36.655   1.228
26754W        W91915  27.032  35.786  13.373
26755W        W91916  21.016  10.675   2.816
26756W        W91917   9.934  11.880  14.016
26757W        W91918   1.433  21.656  13.390
26758W        W91919  39.365  32.474  11.330
26759W        W91920  27.457   3.854   2.214
26760W        W91921  42.255  36.131  11.509
26761W        W91922   2.523   9.707   4.010
26762W        W91923  13.899  16.288   2.996
26763W        W91924  28.007  40.527  12.868
26764W        W91925   7.938   4.995  14.772
26765W        W91926   5.285  19.619  11.411
26766W        W91927  43.538  18.678  13.053
26767W        W91928  42.159   6.399   2.866
26768W        W91929   3.313  30.879   0.297
26769W        W91930  42.460   5.737  12.716
26770W        W91931  34.262  26.570  13.376
26771W        W91932  40.713   8.277  11.077
26772W        W91933   2.124  11.900   1.636
26773W        W91934  36.163  25.890   4.033
26774W        W91935  20.615   8.195   1.922
26775W        W91936  20.479   8.389   1.439
26776W        W91937  36.097   1.248  11.592
26777W        W91938   2.471  23.045  12.373
26778W        W91939  34.099  36.057   1.857
26779W        W91940  19.327   1.759  11.379
26780W        W91941  13.050   8.381   3.893
26781W        W91942  10.764  31.196  14.038
26782W        W91943  22.466  33.196  12.067
26783W        W91944  30.660  29.499   2.674
26784W        W91945  23.343  35.547  14.904
26785W        W91946   2.692  11.579   0.807
26786W        W91947  18.221  40.878  10.499
26787W        W91948  20.566   9.897   3.249
26788W        W91949  12.244  23.194   1.894
26789W        W91950  17.009  38.818  12.990
26790W        W91951  32.019  40.322   2.859
26791W        W91952  41.021  23.744  11.175
26792W        W91953  40.097   1.385  14.547
26793W        W91954  20.643   8.748  14.338
26794W        W91955  36.074  23.035  11.165
26795W        W91956  35.633  20.695   0.387
26796W        W91957  31.046  33.609   5.039
26797W        W91958  31.850   3.321   3.169
26798W        W91959  22.327  40.646   0.385
26799W        W91960  30.652   3.246  12.054
26800W        W91961  16.297  14.775   1.910
26801W        W91962  23.903  39.821   0.784
26802W        W91963   1.176   3.519  14.337
26803W        W91964  21.586  11.648  12.132
26804W        W91965  41.871  29.085   1.304
26805W        W91966  33.562  27.924  12.594
26806W        W91967  33.412  44.374  11.610
26807W        W91968   7.045  29.017  12.484
26808W        W91969   4.910  29.520  13.018
26809W        W91970   3.913  17.780   3.738
26810W        W91971  38.913  40.649   4.995
26811W        W91972  29.446  36.044   0.316
26812W        W91973  25.738  16.801   4.876
26813W        W91974  43.768  43.339   1.296
26814W        W91975  15.263  28.009   4.631
26815W        W91976  26.695  20.999   3.017
26816W        W91977  14.388  33.854  11.085
26817W        W91978  16.157  43.823  14.898
26818W        W91979  37.393  14.613   5.215
26819W        W91980  20.100  31.972  14.970
26820W        W91981  24.562   9.208  13.909
26821W        W91982  44.142  39.886  14.693
26822W        W91983   2.061  10.850   5.531
26823W        W91984  30.985  25.424  10.865
26824W        W91985  19.057  36.444   1.388
26825W        W91986  41.509  31.441  11.043
26826W        W91987  44.544  33.877   1.221
26827W        W91988  15.092  20.450   3.712
26828W        W91989   1.263   9.873  14.299
26829W        W91990  32.503   8.113   0.893
26830W        W91991  23.431  32.145  14.994
26831W        W91992   4.738  10.304   3.190
26832W        W91993  35.875  31.058  14.986
26833W        W91994  25.475   6.791   3.660
26834W        W91995  36.900  22.123  11.740
26835W        W91996  44.437  24.475   2.670
26836W        W91997  37.609  43.222   3.831
26837W        W91998  35.024  27.583  14.017
26838W        W91999   6.224  40.355  14.420
26839W        W92000  22.130  20.610   4.933
26840W        W92001  34.385  17.773   0.821
26841W        W92002  19.967  40.857  14.352
26842W        W92003  44.264  33.816  13.904
26843W        W92004  25.410  35.831  10.970
26844W        W92005  12.732  40.594   3.002
26845W        W92006  44.031  27.961  12.551
26846W        W92007  41.719  42.902  12.118
26847W        W92008  27.440  29.523  14.470
26848W        W92009  25.241  44.680  11.629
26849W        W92010  13.863  43.414  13.318
26850W        W92011  20.444  42.256   4.034
26851W        W92012   9.845  32.625  10.388
26852W        W92013  19.538  26.045   0.851
26853W        W92014  44.474  36.366   1.587
26854W        W92015  10.733  10.670   3.283
26855W        W92016  31.934  37.399  11.186
26856W        W92017   1.101  26.202  11.904
26857W        W92018  30.921   8.249  14.281
26858W        W92019  25.643  20.444  10.422
26859W        W92020   9.194   8.395  14.031
26860W        W92021  38.441  34.161  12.584
26861W        W92022  28.978  34.304   1.431
26862W        W92023  22.558  17.985   2.361
26863W        W92024   3.251  33.105  13.983
26864W        W92025  25.495   5.495  11.251
26865W        W92026  14.156   4.367  11.958
26866W        W92027  37.049  27.765  14.947
26867W        W92028  41.980  26.101   1.283
26868W        W92029  32.524  39.087  12.116
26869W        W92030  35.653  33.258  14.074
26870W        W92031  36.124  42.968  13.013
26871W        W92032  14.764   9.133  14.140
26872W        W92033  15.571  21.256  13.289
26873W        W92034   7.974  17.091  10.445
26874W        W92035  12.125  34.246  10.747
26875W        W92036  15.967   3.213   3.125
26876W        W92037   3.070  36.913   4.987
26877W        W92038  38.457   6.259  14.254
26878W        W92039  26.683  20.005   4.625
26879W        W92040  42.916  30.571   2.909
26880W        W92041  21.521   3.921   3.179
26881W        W92042  20.911  41.257  10.322
26882W        W92043  15.764  18.213   9.745
26883W        W92044  40.328  14.067   1.390
26884W        W92045  31.027   8.180  13.323
26885W        W92046  25.147  38.389  14.515
26886W        W92047   4.781  21.611   1.531
26887W        W92048  16.178  40.412   1.940
26888W        W92049  10.647  25.619  13.506
26889W        W92050  21.736  19.522   4.454
26890W        W92051  10.474  29.693   4.994
26891W        W92052  10.298  15.771  10.533
26892W        W92053  30.380  26.658   2.770
26893W        W92054   7.590  16.002  14.904
26894W        W92055  32.099  15.333   2.642
26895W        W92056  28.162  24.261  14.077
26896W        W92057  43.311  25.619  13.487
26897W        W92058  44.744  29.302  14.486
26898W        W92059  17.236  25.708   3.259
26899W        W92060  25.391   3.411  12.565
26900W        W92061  23.955  32.839   0.564
26901W        W92062  21.569  34.971   0.660
26902W        W92063   4.522  27.432   0.381
26903W        W92064  42.511  33.892   4.634
26904W        W92065  16.869  40.172   3.177
26905W        W92066  44.828  19.313  10.658
26906W        W92067  16.055  13.401  12.437
26907W        W92068  43.739   9.672   2.117
26908W        W92069   4.329  16.556   0.959
26909W        W92070   3.450  32.360  11.452
26910W        W92071   2.912   9.130  11.097
26911W        W92072  21.619  33.441   4.344
26912W        W92073  37.581  42.906   4.938
26913W        W92074  21.284  28.335  11.993
26914W        W92075  36.026  40.319  11.259
26915W        W92076  25.434  34.024  12.789
26916W        W92077  24.185  29.116  14.244
26917W        W92078   0.934  39.049   4.203
26918W        W92079  41.837  15.827   0.816
26919W        W92080  36.839   9.421   2.431
26920W        W92081  30.266  38.328  10.284
26921W        W92082  10.173   7.937  12.034
26922W        W92083  20.798  39.978  11.519
26923W        W92084  20.697  18.263   3.623
26924W        W92085  16.619   9.704   1.367
26925W        W92086   0.296   5.067  12.151
26926W        W92087  33.077  15.352  13.984
26927W        W92088  16.178  17.733  14.433
26928W        W92089  35.775  23.717   0.171
26929W        W92090  27.748  30.099  12.040
26930W        W92091  18.457  43.192  12.935
26931W        W92092  32.579   2.779   3.623
26932W        W92093  32.940  11.240  11.562
26933W        W92094  30.097   0.390   3.233
26934W        W92095  39.184   6.398  13.850
26935W        W92096   6.895  25.221   1.376
26936W        W92097  29.631  36.477  11.562
26937W        W92098  15.165   7.251   1.150
26938W        W92099  16.230   2.708  11.603
26939W        W92100  31.792   7.523  11.077
26940W        W92101  44.064  13.602  14.369
26941W        W92102   0.718   7.333   2.724
26942W        W92103  31.680  13.241  13.245
26943W        W92104   2.168  34.925   1.900
26944W        W92105  41.914  26.994   4.673
26945W        W92106   3.683  32.688  11.997
26946W        W92107  23.580  22.968   1.020
26947W        W92108  14.501  40.668   2.671
26948W        W92109  11.931  42.505  12.755
26949W        W92110   0.877  37.560   0.319
26950W        W92111  12.376  20.121  11.769
26951W        W92112  11.225   7.362   2.130
26952W        W92113  32.653   3.218   3.360
26953W        W92114  12.538   5.671  11.654
26954W        W92115  18.355   7.425   3.743
26955W        W92116  17.424  11.703   1.340
26956W        W92117   7.489   1.765   4.634
26957W        W92118  21.534   7.732   0.387
26958W        W92119  20.630   2.507   2.678
26959W        W92120  14.144  10.095  12.646
26960W        W92121  33.527  35.351  12.369
26961W        W92122   8.906  10.384  14.471
26962W        W92123  20.003  42.840  13.876
26963W        W92124  11.223  40.429  13.815
26964W        W92125  20.233   2.028  13.928
26965W        W92126  26.191   1.243   1.358
26966W        W92127  21.556  15.413  11.737
26967W        W92128  26.780  41.909   3.355
26968W        W92129  15.272  30.903  13.862
26969W        W92130  43.999  18.877  12.007
26970W        W92131  29.430  40.406   1.922
26971W        W92132  34.368   7.649   1.057
26972W        W92133  10.777   1.426  12.118
26973W        W92134  33.719  41.902  11.545
26974W        W92135  36.033  42.444   1.601
26975W        W92136  29.921   0.248  12.722
26976W        W92137  39.579  32.582  13.492
26977W        W92138   6.236  13.459   1.198
26978W        W92139  24.766   2.280   4.060
26979W        W92140  42.740  12.381   3.711
26980W        W92141   2.743  26.671  12.012
26981W        W92142  28.563  31.427   0.270
26982W        W92143  21.616   0.412  12.392
26983W        W92144  16.105   7.123  10.969
26984W        W92145  33.326   2.378   2.288
26985W        W92146   6.207   9.303   0.982
26986W        W92147  15.302  43.201  13.505
26987W        W92148  38.790  12.041  13.556
26988W        W92149  18.251  18.757  12.976
26989W        W92150  25.847  11.623   0.382
26990W        W92151  23.021  12.191   3.738
26991W        W92152  30.723  41.841   2.835
26992W        W92153  29.250  35.985  13.999
26993W        W92154  20.049  22.195   1.915
26994W        W92155  23.970  16.363  14.436
26995W        W92156  24.123  23.714   0.826
26996W        W92157  26.098  27.104   3.338
26997W        W92158  17.021   3.485   3.125
26998W        W92159  27.281  38.992  13.626
26999W        W92160  36.306  30.923   1.385
27000W        W92161  37.322  17.496  13.474
27001W        W92162  42.990   6.659   2.767
27002W        W92163  24.015   6.597  12.025
27003W        W92164  29.495   7.788  13.042
27004W        W92165  12.210  34.510   0.859
27005W        W92166  28.076  42.831   0.946
27006W        W92167  19.627  22.024  11.644
27007W        W92168  15.812  11.245  12.578
27008W        W92169   5.435   7.493   3.416
27009W        W92170  12.168  29.378  13.806
27010W        W92171  40.573   6.814   4.125
27011W        W92172  26.185  23.077  13.427
27012W        W92173  13.150   0.405  13.732
27013W        W92174   5.832   2.704  13.413
27014W        W92175  33.508  27.186   0.537
27015W        W92176  34.741  21.234   2.447
27016W        W92177  16.038  19.085  11.481
27017W        W92178  25.555  23.949  13.658
27018W        W92179  26.484   2.775  10.467
27019W        W92180  36.526  38.796   0.450
27020W        W92181  41.230  12.658   3.921
27021W        W92182  17.822  14.914  12.837
27022W        W92183   4.123  41.787  14.204
27023W        W92184   8.938   3.667  14.393
27024W        W92185   7.183   9.649  10.814
27025W        W92186   3.217  41.436   4.521
27026W        W92187  43.964  42.848   2.196
27027W        W92188  36.535  28.078  10.455
27028W        W92189  29.107  21.269   0.398
27029W        W92190   5.174  12.390  13.062
27030W        W92191  14.561  24.460  11.151
27031W        W92192   6.760   3.965  11.392
27032W        W92193  27.038   7.868   1.297
27033W        W92194  20.568   6.757  14.389
27034W        W92195  37.029  38.257   3.750
27035W        W92196  34.485   9.114  14.639
27036W        W92197  41.531  25.063   4.635
27037W        W92198   9.220  18.367  11.026
27038W        W92199  16.099  43.157   0.336
27039W        W92200   2.780  30.585   0.508
27040W        W92201  30.872  33.540  14.731
27041W        W92202  37.427   7.911   3.715
27042W        W92203  27.987  34.493   2.861
27043W        W92204  30.003  19.507   1.704
27044W        W92205  29.437  31.103  10.559
27045W        W92206  27.614  29.510  11.269
27046W        W92207  29.058   3.906   0.200
27047W        W92208   5.323  38.357  14.312
27048W        W92209  26.474  12.992  12.569
27049W        W92210  13.127  14.140  14.379
27050W        W92211  33.381   6.980  12.081
27051W        W92212  13.594  35.022  14.765
27052W        W92213  30.521  13.588   3.208
27053W        W92214  17.169  23.211   3.832
27054W        W92215  15.136   7.760   4.026
27055W        W92216  18.687   1.280  13.041
27056W        W92217  31.067   0.718  11.566
27057W        W92218  20.921   0.355  11.026
27058W        W92219   8.442  15.585   4.175
27059W        W92220   9.940  43.554   4.187
27060W        W92221  25.561   3.874   2.217
27061W        W92222  41.855   1.063  12.990
27062W        W92223  17.744  14.212   2.115
27063W        W92224  29.241  20.285   2.644
27064W        W92225  40.401  31.597   3.197
27065W        W92226  16.621  30.739  14.733
27066W        W92227  34.028  18.595   2.812
27067W        W92228  33.983  40.128   3.649
27068W        W92229   1.979  29.892   2.670
27069W        W92230  30.297  28.932   3.631
27070W        W92231  18.706  15.567   1.359
27071W        W92232  40.041  17.040   2.601
27072W        W92233  19.110  27.200  14.612
27073W        W92234  20.536  39.807  11.062
27074W        W92235  44.199  17.033   4.997
27075W        W92236   4.596  39.346  12.996
27076W        W92237   6.081  43.442  13.920
27077W        W92238  23.716  26.350   0.642
27078W        W92239  39.163  17.184  13.930
27079W        W92240  16.182  14.312   1.269
27080W        W92241  32.505  41.777   2.702
27081W        W92242  27.509  34.579  14.877
27082W        W92243  44.350   4.992  14.924
27083W        W92244   1.281  16.349  14.827
27084W        W92245  40.469  15.948   0.345
27085W        W92246  13.770   3.877  10.578
27086W        W92247  28.039  40.803  14.446
27087W        W92248  20.826  16.504   0.421
27088W        W92249  19.814  37.812  12.035
27089W        W92250   2.447   3.844  13.800
27090W        W92251  40.522  43.745   4.619
27091W        W92252   4.405  32.869   4.357
27092W        W92253  44.430  19.312  11.460
27093W        W92254  10.352  30.990   1.010
27094W        W92255   6.280  11.365   4.662
27095W        W92256  33.655  14.803   4.620
27096W        W92257  37.571   4.200  13.837
27097W        W92258  17.269   3.938  12.172
27098W        W92259  40.337  19.581   0.825
27099W        W92260  34.273  36.067   3.739
27100W        W92261  30.870  35.050  13.908
27101W        W92262  44.481  21.318   4.160
27102W        W92263   8.726  28.174   2.837
27103W        W92264  39.543  34.331   3.772
27104W        W92265  41.408  36.443   0.997
27105W        W92266  18.108  42.089  14.404
27106W        W92267  25.755  16.313   4.076
27107W        W92268   2.330   3.282  11.410
27108W        W92269   7.325  17.505  12.839
27109W        W92270   5.179  10.928  10.445
27110W        W92271  32.492  42.902  13.123
27111W        W92272  21.613   0.198   2.359
27112W        W92273  15.226  25.893  14.516
27113W        W92274  41.171  12.280  12.719
27114W        W92275  32.419  19.330  11.987
27115W        W92276  22.593  44.254   2.797
27116W        W92277  16.446   7.199   0.044
27117W        W92278  22.649  41.397  11.465
27118W        W92279  16.283  21.614   3.983
27119W        W92280  24.039  14.091   3.182
27120W        W92281  38.963  35.535  12.669
27121W        W92282  17.744  12.807  10.619
27122W        W92283   6.661   3.210  12.389
27123W        W92284  33.626  31.119   0.811
27124W        W92285  34.605  37.798  10.255
27125W        W92286  31.166  44.007   0.824
27126W        W92287  42.704  18.982   4.584
27127W        W92288  18.210  14.342  13.519
27128W        W92289  13.656  24.373  13.422
27129W        W92290  17.237  22.626   1.349
27130W        W92291  41.184  10.576   3.126
27131W        W92292  19.573  30.584  11.213
27132W        W92293  29.233  19.180  11.649
27133W        W92294  40.172   5.324  14.936
27134W        W92295  40.249  17.559  10.632
27135W        W92296  28.658  19.118   3.716
27136W        W92297  42.563  38.490   1.839
27137W        W92298  29.533  23.189   2.720
27138W        W92299  24.250  12.722   2.537
27139W        W92300  37.642  12.846   3.179
27140W        W92301   5.194  23.522  13.240
27141W        W92302  32.869  30.068   3.111
27142W        W92303  29.611  21.107  14.060
27143W        W92304  15.804  28.208   3.379
27144W        W92305   6.542  18.191   0.447
27145W        W92306   5.176  12.980   1.837
27146W        W92307  44.015  34.462  14.495
27147W        W92308   3.709  24.222   1.322
27148W        W92309  21.807  16.214   3.599
27149W        W92310  14.220   1.372  13.281
27150W        W92311  41.270  32.710   0.916
27151W        W92312  15.623  28.704  12.378
27152W        W92313  33.994  11.557  13.882
27153W        W92314   3.440  26.236  12.203
27154W        W92315  33.071  32.502   0.115
27155W        W92316  36.988  14.376  10.580
27156W        W92317  39.501  22.297   3.658
27157W        W92318   8.888  23.708   3.715
27158W        W92319  10.774  44.529  13.547
27159W        W92320  29.239  14.700  13.166
27160W        W92321   4.401  20.557  11.571
27161W        W92322  41.769  16.221   1.810
27162W        W92323   0.679  18.748   3.702
27163W        W92324  39.498   3.432   3.364
27164W        W92325   3.234   6.616   0.195
27165W        W92326   4.584   2.536   4.152
27166W        W92327  12.787  18.626   2.304
27167W        W92328  23.266  36.932  13.627
27168W        W92329  22.770  43.364  13.509
27169W        W92330  39.121   6.810   0.388
27170W        W92331  22.287  14.079   4.082
27171W        W92332  21.243  30.940  10.580
27172W        W92333  17.753   7.195   3.426
27173W        W92334  11.343  28.171   4.001
27174W        W92335  23.090   6.942  10.943
27175W        W92336  37.437  27.135  12.972
27176W        W92337   3.457   5.400   3.759
27177W        W92338  20.568  37.363   0.637
27178W        W92339  17.739   3.803  12.339
27179W        W92340   9.839  32.757   4.217
27180W        W92341   6.378   6.240  10.547
27181W        W92342  19.653  39.420   0.151
27182W        W92343  31.151  35.908   3.160
27183W        W92344  30.002   5.193  14.365
27184W        W92345  38.112  23.980  12.987
27185W        W92346  35.804  12.274  12.644
27186W        W92347   5.293  28.946  12.363
27187W        W92348  44.439  43.740   3.344
27188W        W92349  35.524  23.802  14.332
27189W        W92350  34.270  29.713  12.243
27190W        W92351  18.289  41.020   3.393
27191W        W92352  17.721  13.782   0.703
27192W        W92353  43.642  32.586   1.356
27193W        W92354  20.082   6.272  11.115
27194W        W92355  38.441  35.552  12.347
27195W        W92356  16.740  29.081  12.791
27196W        W92357   9.812  16.980   1.011
27197W        W92358  18.531  42.972  14.558
27198W        W92359  41.414   4.172  13.373
27199W        W92360  12.381  25.454   3.227
27200W        W92361   8.156  30.657   2.254
27201W        W92362  13.746  11.746   1.271
27202W        W92363  36.347  40.472   2.668
27203W        W92364  35.562   3.171   2.359
27204W        W92365  29.730  43.190   4.825
27205W        W92366  28.098  19.055  13.713
27206W        W92367  17.770   6.586   2.958
27207W        W92368  32.862   1.072   0.852
27208W        W92369  33.996  33.332   4.607
27209W        W92370   4.790  20.096  13.885
27210W        W92371  14.340   0.950  11.939
27211W        W92372   8.278  26.636  14.509
27212W        W92373  18.303  20.612  13.457
27213W        W92374   2.430  27.679   2.699
27214W        W92375  27.959  10.431   3.765
27215W        W92376  12.817   0.734  11.997
27216W        W92377  10.299   9.716  11.462
27217W        W92378  32.431  40.514   4.432
27218W        W92379  16.414  23.302   2.206
27219W        W92380  41.013  30.234  14.115
27220W        W92381  35.971  36.369  11.671
27221W        W92382  10.074  25.032   0.293
27222W        W92383  22.869  21.806   4.153
27223W        W92384   2.543  28.146   2.168
27224W        W92385   2.892  19.727   4.438
27225W        W92386  27.424   0.682  11.605
27226W        W92387  10.269   5.230  11.314
27227W        W92388  19.370  42.033   4.811
27228W        W92389  24.071   5.492   0.839
27229W        W92390  41.271   8.401   1.369
27230W        W92391  42.061  27.981  14.857
27231W        W92392   4.388   5.380  13.089
27232W        W92393  15.646  29.138  14.422
27233W        W92394   8.391  17.754   3.487
27234W        W92395  24.165  20.474   3.638
27235W        W92396  24.714  28.246   1.241
27236W        W92397   0.371  39.255   1.630
27237W        W92398  44.410  27.769   1.004
27238W        W92399  26.840  16.896   2.908
27239W        W92400  34.438  43.332  11.568
27240W        W92401   4.549   2.246  12.511
27241W        W92402   2.793  15.741  13.906
27242W        W92403  42.497  38.998   1.770
27243W        W92404  35.299   6.172   0.030
27244W        W92405  34.120  44.913   3.643
27245W        W92406  11.199  25.476  11.179
27246W        W92407   7.914  38.446   3.458
27247W        W92408  21.661  44.207   2.428
27248W        W92409  29.788  24.452   3.045
27249W        W92410   8.507  43.700   2.076
27250W        W92411  11.797  34.031  11.599
27251W        W92412  36.528  16.307  11.559
27252W        W92413  14.841  35.259   2.286
27253W        W92414  25.463  33.041  12.909
27254W        W92415   0.212  35.047  13.316
27255W        W92416  11.321  16.205   0.445
27256W        W92417  43.361  15.241   4.041
27257W        W92418  10.572  27.368  10.315
27258W        W92419  32.457  42.018   0.394
27259W        W92420  40.267  11.439   4.730
27260W        W92421  29.885   5.732  11.186
27261W        W92422  30.423   5.448  13.652
27262W        W92423   8.372   0.309  13.437
27263W        W92424  26.904  15.262  14.846
27264W        W92425   6.772   0.253  14.306
27265W        W92426  26.562  27.177   0.358
27266W        W92427  44.810  17.569  14.485
27267W        W92428   8.696  13.373   4.048
27268W        W92429  24.776  40.864   0.475
27269W        W92430   8.472   6.924  13.395
27270W        W92431   5.144  14.878   2.275
27271W        W92432  33.094  30.369   0.158
27272W        W92433  41.986  41.383   9.849
27273W        W92434  44.374   3.869  13.017
27274W        W92435  41.382   6.383  12.742
27275W        W92436  35.323  29.992   1.450
27276W        W92437  17.151  22.222  12.031
27277W        W92438  28.095  44.385  11.295
27278W        W92439  19.248  37.522  13.488
27279W        W92440  43.424  34.291  10.721
27280W        W92441   5.554  43.394  13.860
27281W        W92442  20.601  39.816  13.104
27282W        W92443  27.612   9.090   2.582
27283W        W92444   6.862   6.356   4.647
27284W        W92445  32.837  29.376  13.851
27285W        W92446  36.868  16.815   0.865
27286W        W92447  40.026  30.930  12.894
27287W        W92448   1.726  25.777   3.595
27288W        W92449  32.625  22.373  13.132
27289W        W92450  44.102   1.207   3.743
27290W        W92451  27.015   1.854   3.700
27291W        W92452  26.470   8.794   2.322
27292W        W92453  16.630   7.176   1.432
27293W        W92454   6.072  25.983   2.801
27294W        W92455  28.688  30.027   3.050
27295W        W92456   7.270  41.971   2.411
27296W        W92457  29.541  31.918  12.196
27297W        W92458   9.728   5.765  14.823
27298W        W92459  23.081  26.861  12.452
27299W        W92460  31.973   8.232  12.214
27300W        W92461  32.900  14.277   0.673
27301W        W92462  29.287  19.661  11.844
27302W        W92463   3.241  30.677  11.025
27303W        W92464   9.930  32.470  14.231
27304W        W92465  24.145  29.084   1.848
27305W        W92466   3.333  13.871  14.525
27306W        W92467  13.353  32.612  13.448
27307W        W92468  11.614  18.013   3.885
27308W        W92469  39.689  25.907   4.572
27309W        W92470  39.958  31.526   2.354
27310W        W92471  20.034  27.464   0.893
27311W        W92472   9.722   5.406   2.703
27312W        W92473  11.643  11.295   3.634
27313W        W92474  33.475  31.724  10.680
27314W        W92475  18.134   6.692   4.190
27315W        W92476  31.608  44.162   3.689
27316W        W92477  12.609  36.342  10.565
27317W        W92478  42.484  37.680  14.373
27318W        W92479   4.758  28.623   3.475
27319W        W92480  32.646   5.661  12.303
27320W        W92481  41.477  40.782   1.340
27321W        W92482  37.303   6.208   0.144
27322W        W92483  25.227  31.185  11.061
27323W        W92484  38.100  25.602  12.747
27324W        W92485  13.752  10.697   0.479
27325W        W92486  22.188  43.438  14.236
27326W        W92487  43.432  28.551   0.334
27327W        W92488  33.470   8.065  12.871
27328W        W92489  33.039  12.125  12.087
27329W        W92490  16.277  25.246  12.445
27330W        W92491  25.741   9.880   0.951
27331W        W92492   5.755  27.037  10.594
27332W        W92493   4.178  19.085   4.822
27333W        W92494  19.859   5.925   1.574
27334W        W92495  34.564  20.531   2.716
27335W        W92496  10.848   1.505   1.447
27336W        W92497   1.619   2.279   2.367
27337W        W92498  13.764  38.259  12.148
27338W        W92499  31.536  26.384   2.020
27339W        W92500  25.951  13.150  12.894
27340W        W92501  34.566  25.579   4.875
27341W        W92502  35.843  35.068  10.653
27342W        W92503  19.490  21.762   5.416
27343W        W92504  11.592  15.693  13.838
27344W        W92505   9.076  23.259   1.521
27345W        W92506  41.575  32.943   2.708
27346W        W92507   4.298  37.108   0.214
27347W        W92508  12.082  25.120   4.492
27348W        W92509  39.361   8.609   2.887
27349W        W92510  33.915  23.906   1.434
27350W        W92511  14.485  39.687  10.235
27351W        W92512  23.042  41.038   0.203
27352W        W92513   3.908  25.078   4.471
27353W        W92514  12.804  32.924   1.923
27354W        W92515  12.630  34.531   2.872
27355W        W92516  12.916  25.395   4.596
27356W        W92517  15.078  29.554  12.550
27357W        W92518   1.984  24.330  13.049
27358W        W92519   8.664  15.266   3.792
27359W        W92520  24.467  18.187   3.676
27360W        W92521  41.305  27.649   2.160
27361W        W92522  18.779   5.140   4.925
27362W        W92523  37.663  38.835   1.806
27363W        W92524  32.352  24.516   1.502
27364W        W92525  21.602   0.901   2.867
27365W        W92526  12.784  13.132   1.533
27366W        W92527  42.532  32.089   2.910
27367W        W92528   9.305   5.249   2.197
27368W        W92529  40.358  30.664   4.850
27369W        W92530  35.068  42.975   0.024
27370W        W92531  27.457  43.384  13.829
27371W        W92532  16.296  42.446   1.465
27372W        W92533   5.501   6.182   4.546
27373W        W92534  33.917  30.377   3.758
27374W        W92535  23.137  25.065  13.324
27375W        W92536  44.511  32.710   0.525
27376W        W92537   3.302  32.378   2.769
27377W        W92538   6.703  20.643  11.002
27378W        W92539   1.300  40.991  10.529
27379W        W92540  27.881  24.204  12.445
27380W        W92541   4.220  32.232  12.471
27381W        W92542  38.897   4.986  10.608
27382W        W92543  24.094  22.747  11.847
27383W        W92544  13.675  19.895   4.562
27384W        W92545  33.973  13.267   1.836
27385W        W92546  43.286  28.053  12.446
27386W        W92547  29.961   2.208  12.922
27387W        W92548   6.409   5.708  11.684
27388W        W92549  35.008  27.230   3.752
27389W        W92550  14.341  15.622  14.517
27390W        W92551   6.055  11.328  13.477
27391W        W92552  41.876  21.023   4.627
27392W        W92553  40.287  41.305  14.911
27393W        W92554  12.455  33.585  11.194
27394W        W92555   2.943   2.754  12.894
27395W        W92556  15.323  34.550  11.179
27396W        W92557   6.700  27.091  13.887
27397W        W92558  22.465  16.550   0.918
27398W        W92559   4.171  15.834   3.766
27399W        W92560  20.987  27.372  12.645
27400W        W92561  29.148  23.226   3.065
27401W        W92562  21.999  40.915   3.315
27402W        W92563  24.436  10.178   4.118
27403W        W92564  21.890   9.476  10.432
27404W        W92565  14.380   1.695  10.691
27405W        W92566  44.328  23.701  12.945
27406W        W92567  27.149  22.003   4.751
27407W        W92568  13.720  21.182  12.578
27408W        W92569   6.271  34.925   3.814
27409W        W92570  32.159  18.242  14.929
27410W        W92571  38.538  38.853   0.558
27411W        W92572  25.992  30.476   0.209
27412W        W92573  20.760  37.395  11.770
27413W        W92574  19.315  13.104  12.579
27414W        W92575  40.744  14.134   3.186
27415W        W92576  37.059   9.290  12.866
27416W        W92577  37.291  10.311  12.013
27417W        W92578   0.360   1.275   3.437
27418W        W92579   5.446  16.822  13.854
27419W        W92580   5.605  29.042  11.094
27420W        W92581  11.810   4.178   3.502
27421W        W92582   2.232   2.786   0.679
27422W        W92583  15.787  40.996  12.113
27423W        W92584  11.248  28.424   2.302
27424W        W92585   6.549  42.397  14.841
27425W        W92586  40.361  21.488  14.377
27426W        W92587  17.757  33.148   4.348
27427W        W92588   2.857   8.620  11.197
27428W        W92589  28.460  12.307  10.303
27429W        W92590  24.772  32.571  13.996
27430W        W92591   4.195   5.243   1.619
27431W        W92592  14.354  31.932  13.644
27432W        W92593   8.859  41.874  13.806
27433W        W92594  11.606   3.165  12.388
27434W        W92595  26.519   0.945  12.924
27435W        W92596  20.097   3.689   2.312
27436W        W92597  37.554  31.234  11.241
27437W        W92598   2.172   3.756  14.363
27438W        W92599  22.582  21.506   0.289
27439W        W92600  29.546  42.585  13.456
27440W        W92601  28.228  13.135   3.189
27441W        W92602   4.420   3.005   4.358
27442W        W92603  23.699  19.028   0.955
27443W        W92604   4.239  19.152   1.248
27444W        W92605   8.338  44.850   0.012
27445W        W92606   9.879  42.782  12.449
27446W        W92607  24.295  36.175   4.136
27447W        W92608   5.925   2.895   4.279
27448W        W92609   4.961  31.920   9.754
27449W        W92610  29.618  22.696   2.839
27450W        W92611  17.168  12.628  13.987
27451W        W92612  29.405  39.957   0.265
27452W        W92613  18.763  14.982   2.597
27453W        W92614  43.631  12.684  13.995
27454W        W92615  20.673  15.547  11.595
27455W        W92616  28.156  30.064   2.087
27456W        W92617  30.633  43.281  14.510
27457W        W92618  40.864  31.342  14.842
27458W        W92619  27.626  38.226   2.562
27459W        W92620  18.673  34.696   3.120
27460W        W92621  13.162  34.891  12.973
27461W        W92622   6.198  36.455  13.184
27462W        W92623  15.790  38.848  10.955
27463W        W92624  39.901  33.570   0.292
27464W        W92625  30.952   4.346   0.421
27465W        W92626   6.131  22.086   1.375
27466W        W92627  23.489  26.937   5.010
27467W        W92628  36.152  16.582  10.587
27468W        W92629  24.137  40.418   0.676
27469W        W92630   8.818   2.944   2.577
27470W        W92631  24.237   8.795   3.885
27471W        W92632  12.762  16.798   3.835
27472W        W92633  17.234   9.773   2.939
27473W        W92634  23.613  11.209  11.258
27474W        W92635   3.182  17.861   3.963
27475W        W92636  27.499  35.873  11.176
27476W        W92637   9.278   2.009   0.353
27477W        W92638  37.546   9.406  14.453
27478W        W92639  37.684  30.049   4.115
27479W        W92640  19.657  27.734  13.347
27480W        W92641  39.268  14.777   0.353
27481W        W92642  14.545   2.225   2.958
27482W        W92643  28.574  43.018  10.558
27483W        W92644  16.530  32.110   4.470
27484W        W92645   1.458  19.645  11.217
27485W        W92646  30.479  24.080  13.376
27486W        W92647  41.852  44.440   3.569
27487W        W92648  38.598  25.545   3.691
27488W        W92649  12.209   2.800   0.344
27489W        W92650   4.231  40.000   0.204
27490W        W92651  23.441  29.202  14.994
27491W        W92652  37.320  13.241   5.112
27492W        W92653   9.775  10.378   2.366
27493W        W92654  23.304  13.555  14.314
27494W        W92655  22.609  26.189  11.051
27495W        W92656  26.531   9.442  12.415
27496W        W92657  33.563   9.358   3.824
27497W        W92658   4.871  41.816  12.623
27498W        W92659  39.045  25.799   3.729
27499W        W92660  20.510  21.094   3.689
27500W        W92661   2.979  16.836   9.738
27501W        W92662   2.617  12.775   2.789
27502W        W92663  14.579   5.630   3.374
27503W        W92664  17.245  33.927  10.655
27504W        W92665  31.528   0.390  11.497
27505W        W92666  39.134  19.730   2.292
27506W        W92667  10.256  43.805   4.499
27507W        W92668  13.555  30.601   1.823
27508W        W92669  22.640  19.783  10.751
27509W        W92670   7.122  43.842  11.435
27510W        W92671   7.430  44.710   4.678
27511W        W92672   1.273  42.254  11.234
27512W        W92673  13.804  33.635   3.229
27513W        W92674  37.640  41.416   4.449
27514W        W92675  28.529  22.682   4.503
27515W        W92676   2.482   2.192   4.592
27516W        W92677  41.814  25.107   4.211
27517W        W92678  18.049  44.537  11.110
27518W        W92679   2.204   3.420  13.968
27519W        W92680  26.177  30.448  10.859
27520W        W92681  23.938  42.438   2.266
27521W        W92682  31.786  32.376   0.220
27522W        W92683  31.703  24.099  14.998
27523W        W92684  28.296  30.013   0.280
27524W        W92685  22.590  43.194  14.457
27525W        W92686  27.691  43.459   4.042
27526W        W92687  28.584  41.486  12.009
27527W        W92688  15.820  31.536  13.361
27528W        W92689  12.683  19.717  13.850
27529W        W92690  17.772  20.427  14.318
27530W        W92691  44.430   1.767  10.730
27531W        W92692  33.643  38.527   3.047
27532W        W92693  21.632  33.345  14.503
27533W        W92694  14.731   5.204   0.585
27534W        W92695  42.073  36.470   2.212
27535W        W92696  36.443   3.874  14.940
27536W        W92697  32.041  25.121  13.541
27537W        W92698   1.027  21.316   4.089
27538W        W92699  20.801  30.404   1.818
27539W        W92700  13.140  33.181   2.602
27540W        W92701   6.788   7.970   0.810
27541W        W92702  19.670  34.836   1.130
27542W        W92703  43.291  32.003   1.919
27543W        W92704  43.763  44.366  12.072
27544W        W92705  11.921  19.284   2.315
27545W        W92706  41.334   4.422   1.890
27546W        W92707  11.233  32.085   0.449
27547W        W92708  28.934  20.660   3.180
27548W        W92709   1.716  35.795   3.786
27549W        W92710  37.779  24.694  13.418
27550W        W92711   5.279  19.170   4.166
27551W        W92712  30.533  16.211  12.518
27552W        W92713  14.123  34.844  11.984
27553W        W92714  33.040   4.359  12.365
27554W        W92715   8.724  30.914   4.309
27555W        W92716  22.560  10.276   0.258
27556W        W92717  28.704  17.677  13.049
27557W        W92718  40.728  10.754   3.282
27558W        W92719  35.849   7.783   2.282
27559W        W92720  40.009  40.061   2.391
27560W        W92721   0.869  26.776  13.241
27561W        W92722  39.434  15.845  12.460
27562W        W92723  33.251  37.888  12.896
27563W        W92724  18.523  24.577  10.897
27564W        W92725  17.519  38.482   2.248
27565W        W92726  36.109  31.809  11.167
27566W        W92727  24.492  15.075   2.781
27567W        W92728  44.488  18.798  14.943
27568W        W92729   2.478  36.004  12.525
27569W        W92730  17.816  25.522   1.035
27570W        W92731  16.108  20.654   2.798
27571W        W92732  26.461  20.519   3.190
27572W        W92733  38.638  32.885   2.120
27573W        W92734  37.884   6.448  12.885
27574W        W92735   5.299  37.895  14.066
27575W        W92736  26.571   1.757   4.603
27576W        W92737  32.170  41.820   0.849
27577W        W92738  23.296   2.337   4.219
27578W        W92739  17.205  29.502   2.276
27579W        W92740  34.332  16.591  13.919
27580W        W92741  36.625  31.158   0.993
27581W        W92742  31.546  24.869   3.601
27582W        W92743  27.005   4.985   1.883
27583W        W92744   2.919  30.219  12.559
27584W        W92745  42.340  38.816  12.983
27585W        W92746  33.992  25.681   2.292
27586W        W92747  33.327  17.134  10.801
27587W        W92748  33.649   6.267   2.903
27588W        W92749  15.024  37.237   3.656
27589W        W92750  21.969  20.219  14.449
27590W        W92751  24.605   4.174   4.840
27591W        W92752  33.313   7.680   2.717
27592W        W92753   9.695   0.424  11.474
27593W        W92754  38.001  18.194  12.466
27594W        W92755  35.546  36.629  11.889
27595W        W92756   9.306  13.861   3.130
27596W        W92757   8.057   2.025  14.213
27597W        W92758  22.332  39.126  14.448
27598W        W92759  25.012  40.798   3.179
27599W        W92760  34.537  14.727   4.475
27600W        W92761  27.942  12.406   0.813
27601W        W92762  12.911   0.401   2.012
27602W        W92763  10.384  11.156   0.754
27603W        W92764  41.517  15.348  12.478
27604W        W92765  33.934  36.465   3.742
27605W        W92766  31.185  37.064   4.187
27606W        W92767  22.441   7.275  12.188
27607W        W92768   5.726  13.409   1.288
27608W        W92769  15.850  44.982   0.043
27609W        W92770  19.248  28.430   4.143
27610W        W92771  13.320   8.901  10.776
27611W        W92772  41.612   4.281   2.314
27612W        W92773  27.742  32.606   1.346
27613W        W92774   3.123   6.085   0.278
27614W        W92775  41.997   5.758   2.288
27615W        W92776   7.769  44.742  12.070
27616W        W92777   1.185   2.168   4.890
27617W        W92778  42.730  42.285  12.988
27618W        W92779   1.136  18.826   0.988
27619W        W92780  15.181   8.214  14.823
27620W        W92781   4.871  37.735   4.097
27621W        W92782   7.927  43.093  11.451
27622W        W92783  28.889   4.006  12.446
27623W        W92784  24.434  38.944   1.292
27624W        W92785  28.136  28.011   1.361
27625W        W92786  21.485  24.081   3.225
27626W        W92787   0.404  42.931   4.514
27627W        W92788  28.657  16.355   1.351
27628W        W92789  19.991  42.522  12.302
27629W        W92790  28.062  43.829   4.151
27630W        W92791   5.827  34.966   3.235
27631W        W92792  28.521  39.549   3.404
27632W        W92793  24.342  37.001  13.611
27633W        W92794   8.122  25.043   3.677
27634W        W92795  12.290  33.983   3.622
27635W        W92796   4.093  33.188   4.603
27636W        W92797   1.386   5.521  12.903
27637W        W92798  40.941  26.921  10.731
27638W        W92799  36.616  17.768  14.484
27639W        W92800  11.253  24.212  12.043
27640W        W92801  34.287  33.443   0.883
27641W        W92802  17.225   5.429   0.289
27642W        W92803  26.136  31.260  14.430
27643W        W92804  17.112  30.899  12.422
27644W        W92805  17.524  13.382   3.278
27645W        W92806  42.941  28.157   2.786
27646W        W92807  34.376  37.063  11.862
27647W        W92808  32.515  30.530   0.262
27648W        W92809  33.927   7.953  12.014
27649W        W92810  29.064   6.308  10.633
27650W        W92811  21.837  27.512   3.380
27651W        W92812  20.541  27.680  11.380
27652W        W92813  13.408  40.473   3.865
27653W        W92814   2.506  34.513   2.600
27654W        W92815  19.339  43.428   1.806
27655W        W92816  21.458  26.058  12.220
27656W        W92817  11.329  35.013   3.759
27657W        W92818  24.193  15.177  13.140
27658W        W92819  36.786   4.380   4.219
27659W        W92820  24.218  12.916  12.344
27660W        W92821  26.837  39.809  12.953
27661W        W92822  31.045   5.668   3.181
27662W        W92823   2.149  34.143  12.457
27663W        W92824  37.636  40.213   1.325
27664W        W92825  23.711  35.455  14.497
27665W        W92826  11.597  43.387  12.410
27666W        W92827   0.835   1.203   2.170
27667W        W92828  40.578  22.466  13.424
27668W        W92829  33.052  36.773  13.220
27669W        W92830   5.648  14.810  13.055
27670W        W92831   6.231   6.363   3.011
27671W        W92832  19.319  15.387  10.611
27672W        W92833   6.718  34.760   1.321
27673W        W92834  12.682  25.972   3.674
27674W        W92835  10.152  12.206   2.782
27675W        W92836  26.185  29.584   3.333
27676W        W92837  20.622  11.348   1.800
27677W        W92838  19.065  20.320   4.165
27678W        W92839  14.958  11.310   0.782
27679W        W92840  42.090  19.387  10.827
27680W        W92841  30.565   7.905   2.416
27681W        W92842  32.116   4.708  14.420
27682W        W92843   4.391  42.268  10.845
27683W        W92844  23.077  35.867  13.566
27684W        W92845  12.474  40.016   0.848
27685W        W92846  25.454   2.224  14.980
27686W        W92847  13.369  12.775   0.071
27687W        W92848  39.935   2.475   2.809
27688W        W92849  37.672  11.429  11.602
27689W        W92850  13.387  27.756  11.195
27690W        W92851  42.915   5.985   2.379
27691W        W92852  37.423   3.791   5.036
27692W        W92853  29.619  21.279   0.517
27693W        W92854  27.126  43.484  10.624
27694W        W92855   0.351  32.938   0.949
27695W        W92856  41.539  18.301   4.362
27696W        W92857  24.759  31.582  11.596
27697W        W92858  17.524  28.840   4.521
27698W        W92859  35.874   9.686   0.825
27699W        W92860   9.897  37.873   0.852
27700W        W92861  43.842  38.862  11.562
27701W        W92862   7.066   5.945  13.622
27702W        W92863   5.342  29.028   4.788
27703W        W92864  27.439  21.676   2.359
27704W        W92865   6.309  41.530  11.212
27705W        W92866  10.372  35.007  13.192
27706W        W92867  13.404  12.766  11.460
27707W        W92868  24.708  27.227   0.976
27708W        W92869  13.617  35.467   1.194
27709W        W92870  25.748  21.378   9.987
27710W        W92871  17.662  37.947   4.358
27711W        W92872  22.958  30.869   3.360
27712W        W92873  19.186  26.384   1.307
27713W        W92874  20.832   6.263  10.684
27714W        W92875   3.674  21.095   4.651
27715W        W92876   3.886   0.796   1.729
27716W        W92877  27.178  36.560   2.303
27717W        W92878   2.876  32.179   0.456
27718W        W92879  11.312  38.590   2.232
27719W        W92880  33.133  37.440  12.159
27720W        W92881  44.473  10.724   2.850
27721W        W92882   8.281  30.698   1.394
27722W        W92883   8.925  14.277   0.364
27723W        W92884  31.625   2.916  11.139
27724W        W92885  19.264  25.267   4.290
27725W        W92886  27.655  20.966  11.264
27726W        W92887   1.925  26.645  10.527
27727W        W92888  18.500  20.267   1.284
27728W        W92889  22.702  24.489   2.269
27729W        W92890  25.170  27.222   2.454
27730W        W92891  42.678  43.357  11.175
27731W        W92892  22.541  29.268  11.089
27732W        W92893  21.219   0.788   3.336
27733W        W92894  19.165  11.860  12.121
27734W        W92895  20.706  36.340   2.010
27735W        W92896   4.176   8.773   2.882
27736W        W92897  35.567  39.948  13.515
27737W        W92898  17.617  26.388  14.898
27738W        W92899  33.318  13.830  13.379
27739W        W92900  41.065  25.094  11.519
27740W        W92901  25.732  39.373  10.279
27741W        W92902   9.220  12.132   2.939
27742W        W92903  44.309   5.455   2.848
27743W        W92904  36.870   4.381  12.071
27744W        W92905   2.829  33.856  12.983
27745W        W92906  17.629  25.412   3.466
27746W        W92907   6.913  40.513   3.680
27747W        W92908  21.126  26.898  12.377
27748W        W92909  13.697  20.214  12.600
27749W        W92910   8.442  37.881  14.853
27750W        W92911  25.785   5.899  11.128
27751W        W92912  35.081   3.352   0.701
27752W        W92913  30.817  22.439   1.793
27753W        W92914  36.412  26.698  14.024
27754W        W92915  25.546  25.577  14.373
27755W        W92916  44.647  38.061   4.985
27756W        W92917  10.099   0.304   2.278
27757W        W92918  32.987  26.615   1.638
27758W        W92919  33.506   9.792  10.219
27759W        W92920  13.553  31.277   2.377
27760W        W92921  12.867  15.606  11.623
27761W        W92922  44.280  22.032   1.802
27762W        W92923  28.396   8.462  12.684
27763W        W92924  40.379  34.851   3.663
27764W        W92925  30.756  23.165   3.274
27765W        W92926   8.300  35.068  14.596
27766W        W92927  30.646  38.113  12.037
27767W        W92928  42.866  42.765   3.231
27768W        W92929  30.869  30.341  14.338
27769W        W92930  29.323  34.464  12.632
27770W        W92931  22.741  24.966  13.010
27771W        W92932   8.734  43.311  10.408
27772W        W92933  37.474  38.910   1.325
27773W        W92934  21.823  15.188   4.605
27774W        W92935  25.924   8.244  11.584
27775W        W92936  20.502  39.729   1.409
27776W        W92937  29.490  12.941   5.052
27777W        W92938  33.126  40.698   3.469
27778W        W92939  19.262  12.800  13.572
27779W        W92940   4.321  44.432  12.540
27780W        W92941  12.048   0.961  14.413
27781W        W92942  19.165  11.588  14.958
27782W        W92943  18.680   1.682   4.690
27783W        W92944  20.029   1.969   3.233
27784W        W92945  21.998  36.672  14.303
27785W        W92946  38.711  10.241   2.182
27786W        W92947  17.316  29.746  13.005
27787W        W92948   5.409  36.287   2.805
27788W        W92949  22.487   2.261   0.481
27789W        W92950  38.078  40.932  12.943
27790W        W92951   0.280  36.515  12.516
27791W        W92952  11.865  35.987   4.001
27792W        W92953   9.676  19.288  12.446
27793W        W92954   5.670  22.279  14.967
27794W        W92955  28.960  24.037  14.894
27795W        W92956  26.172  41.762   4.992
27796W        W92957   5.678  33.420  11.632
27797W        W92958  13.778  27.461   2.668
27798W        W92959  19.164   0.284  10.896
27799W        W92960   5.534  40.338   4.655
27800W        W92961   2.315  33.212  14.390
27801W        W92962  43.929   4.363  14.266
27802W        W92963  43.287   6.889  10.669
27803W        W92964   2.771  20.463   2.543
27804W        W92965  36.319   5.271   4.180
27805W        W92966   6.799  31.526   0.306
27806W        W92967  39.314  12.755  12.815
27807W        W92968  30.001  36.024  11.964
27808W        W92969   0.700  43.304  10.434
27809W        W92970  38.953  33.115  14.200
27810W        W92971  17.822  15.439  12.085
27811W        W92972  23.926   1.825   4.014
27812W        W92973  13.149  31.565   4.237
27813W        W92974  40.975  38.227   5.634
27814W        W92975   8.498  28.089   4.194
27815W        W92976  11.390   3.376   1.881
27816W        W92977  22.301  20.591   1.886
27817W        W92978   6.199  32.582   2.229
27818W        W92979  40.203   1.486   0.405
27819W        W92980   6.363   7.240   0.775
27820W        W92981  18.121  14.120  10.514
27821W        W92982  33.830   2.025  14.439
27822W        W92983  42.552  28.062  13.990
27823W        W92984  29.531  10.982  12.321
27824W        W92985   7.315  13.204   4.137
27825W        W92986   8.688   3.440   0.322
27826W        W92987  26.049  42.265  12.080
27827W        W92988   0.851  39.566   4.254
27828W        W92989  36.706  22.349  14.083
27829W        W92990  10.950  35.554  12.539
27830W        W92991  12.174  20.613  11.579
27831W        W92992   9.357  39.631   4.579
27832W        W92993  25.253  41.017   0.530
27833W        W92994   8.879  40.569  10.954
27834W        W92995  26.025  43.388   3.287
27835W        W92996   6.309  21.446  11.215
27836W        W92997  24.504  34.032  12.723
27837W        W92998  22.562  24.989   3.135
27838W        W92999  34.947   1.912  12.397
27839W        W93000  37.727  10.013   2.215
27840W        W93001  30.576  34.634   1.751
27841W        W93002  20.724  26.459  13.421
27842W        W93003   3.177   3.341   1.579
27843W        W93004  16.763  32.579   4.508
27844W        W93005  12.662  20.262   4.586
27845W        W93006   0.155   4.942  14.355
27846W        W93007  12.446  24.525  11.254
27847W        W93008  36.899   1.011  14.911
27848W        W93009  43.606  22.972  11.996
27849W        W93010  16.852  41.412   2.774
27850W        W93011  39.811  11.637   4.823
27851W        W93012   0.538  40.816   2.878
27852W        W93013   7.621  32.860   1.812
27853W        W93014   4.529  32.634  12.514
27854W        W93015  34.854  32.301   0.210
27855W        W93016  10.310  37.880   3.113
27856W        W93017  21.746  37.406  12.001
27857W        W93018  40.557  26.984   3.623
27858W        W93019  17.671  31.180  10.622
27859W        W93020  44.529  26.079   3.787
27860W        W93021  23.584  41.350   4.133
27861W        W93022   3.840  41.925   4.194
27862W        W93023  18.141  32.398  10.443
27863W        W93024   2.801  44.875   3.897
27864W        W93025   4.595  15.994   2.748
27865W        W93026  12.381   1.391  11.552
27866W        W93027  29.608  23.557   3.081
27867W        W93028  11.907  33.952   0.289
27868W        W93029  43.877  24.190  11.696
27869W        W93030  22.706   0.115  13.779
27870W        W93031  17.907  30.715  10.746
27871W        W93032  19.355  16.107  11.566
27872W        W93033   4.793  41.511   9.933
27873W        W93034   9.273   3.967  14.818
27874W        W93035  35.943  42.315   2.787
27875W        W93036   5.803  13.608  12.457
27876W        W93037  43.845   4.861   3.525
27877W        W93038  41.941  29.108  12.087
27878W        W93039  28.402  21.538   0.218
27879W        W93040  28.572   8.451  14.579
27880W        W93041   3.448  18.577  10.528
27881W        W93042  15.368  20.588   2.359
27882W        W93043  18.981  30.437   4.238
27883W        W93044  17.698  39.356  13.985
27884W        W93045  44.834  28.392  13.848
27885W        W93046  11.631  24.265   4.584
27886W        W93047  40.835   5.268   0.416
27887W        W93048  30.586  21.732  14.748
27888W        W93049  13.736  20.671  14.501
27889W        W93050  41.293   2.255  12.318
27890W        W93051  43.426  35.824  12.185
27891W        W93052  28.978  42.143  13.746
27892W        W93053  37.468  18.267  10.450
27893W        W93054   3.315  36.478  12.087
27894W        W93055  11.936  28.715  12.399
27895W        W93056  13.554  23.667   3.301
27896W        W93057   4.303   2.608   0.785
27897W        W93058  35.447  29.027   1.201
27898W        W93059   4.640  18.088  14.410
27899W        W93060   6.646  20.169   2.699
27900W        W93061  17.348  42.101   3.105
27901W        W93062  17.788  24.782  14.415
27902W        W93063  18.597  39.957  14.522
27903W        W93064  32.474  30.639   1.951
27904W        W93065  14.701  40.383  13.698
27905W        W93066  10.651  23.694   4.993
27906W        W93067  18.899  39.811  10.258
27907W        W93068  18.445   9.019  10.941
27908W        W93069  14.114  36.104  13.314
27909W        W93070  32.608   0.218   4.219
27910W        W93071  19.350  10.807  12.455
27911W        W93072   0.363   7.847  10.968
27912W        W93073  37.975   5.816   4.439
27913W        W93074  43.056  31.381   4.787
27914W        W93075  21.230  32.026   0.956
27915W        W93076   7.553  35.664  11.636
27916W        W93077   2.688  12.278   2.384
27917W        W93078  39.167  37.388  12.085
27918W        W93079  31.443  13.852  14.825
27919W        W93080  18.417  38.970   1.686
27920W        W93081  26.996  43.709   1.686
27921W        W93082  23.661  12.153  14.028
27922W        W93083  42.807   9.074   2.875
27923W        W93084  21.190   3.880   0.826
27924W        W93085   4.754  44.522  13.839
27925W        W93086  22.330  16.072  12.548
27926W        W93087   9.288  13.207   1.918
27927W        W93088  16.604  12.294  13.609
27928W        W93089   8.859  36.347   1.227
27929W        W93090  40.944  15.767  13.013
27930W        W93091  42.440  28.005   4.994
27931W        W93092  35.108  27.488   4.312
27932W        W93093   0.318  11.663  14.691
27933W        W93094  14.700  42.231   4.176
27934W        W93095   3.688  17.746   4.557
27935W        W93096  29.717   8.267  13.115
27936W        W93097  40.051  19.947   3.964
27937W        W93098  13.173  19.143  10.669
27938W        W93099   5.803  12.152   4.400
27939W        W93100   9.392  40.344  11.024
27940W        W93101  43.032  43.203  13.096
27941W        W93102   9.164  14.129   2.311
27942W        W93103  15.626  20.742  12.657
27943W        W93104  33.308   8.215  12.413
27944W        W93105  43.967  13.204   0.197
27945W        W93106  23.182  14.118   3.726
27946W        W93107  22.030  35.465   1.176
27947W        W93108  14.180  14.974   4.414
27948W        W93109  22.303  40.302  13.555
27949W        W93110  43.940  33.201  14.460
27950W        W93111  18.297  32.295   1.420
27951W        W93112   7.786   9.311  13.577
27952W        W93113  14.713   1.296  12.604
27953W        W93114   4.520  23.516   9.995
27954W        W93115   6.445  42.892  12.056
27955W        W93116  29.125  39.790  12.614
27956W        W93117   5.757  11.639  10.491
27957W        W93118   0.789  31.995   4.193
27958W        W93119  23.701   6.276  10.407
27959W        W93120   2.874  32.384  13.725
27960W        W93121  42.677   9.725   1.249
27961W        W93122  29.104  10.093  13.973
27962W        W93123  22.176  14.596  13.529
27963W        W93124   3.213  25.577   2.176
27964W        W93125  13.084  14.160  12.036
27965W        W93126  32.904  30.899  12.509
27966W        W93127  37.961  42.208   4.071
27967W        W93128   6.392  44.547   2.760
27968W        W93129  10.831  22.026   4.371
27969W        W93130  28.411  33.440  13.842
27970W        W93131  25.484  36.133   3.544
27971W        W93132  27.031   7.857   2.750
27972W        W93133  34.669  21.766  11.022
27973W        W93134  23.673   1.416   3.645
27974W        W93135  43.077  22.933  10.715
27975W        W93136  31.474  42.271  14.129
27976W        W93137  23.415  36.028  13.211
27977W        W93138  38.222  44.891   0.318
27978W        W93139   5.715  21.796   0.121
27979W        W93140  30.088  31.894  13.341
27980W        W93141  25.035  43.341   3.441
27981W        W93142  14.685  13.872   0.025
27982W        W93143  44.152  33.656   0.363
27983W        W93144   0.900  15.241   0.521
27984W        W93145  44.358   0.919   2.956
27985W        W93146  38.968  39.941   3.872
27986W        W93147  18.839  32.550   3.794
27987W        W93148   8.883  23.795  11.145
27988W        W93149   4.174  26.000   0.293
27989W        W93150  26.280  17.708   3.199
27990W        W93151  13.116  30.983  12.139
27991W        W93152   8.800  44.653  12.943
27992W        W93153   2.677   6.100   0.001
27993W        W93154  40.338  30.183   1.316
27994W        W93155  31.969  25.435   2.310
27995W        W93156   0.404   7.927   0.817
27996W        W93157   4.619  41.560  14.320
27997W        W93158  26.931  33.589  11.313
27998W        W93159  18.339  11.860   0.434
27999W        W93160  15.863   2.714   3.271
28000W        W93161  26.407   9.436   3.567
28001W        W93162  36.650   3.804  11.992
28002W        W93163  41.561  16.229  12.443
28003W        W93164  12.383  22.271   0.728
28004W        W93165  41.609  28.310  11.908
28005W        W93166   1.913  35.265  13.458
28006W        W93167   3.801  22.292  11.553
28007W        W93168  20.713  36.067   0.246
28008W        W93169  28.326  22.574   2.752
28009W        W93170   2.448  20.682   3.610
28010W        W93171  36.364  21.153   2.812
28011W        W93172   8.408  36.372  10.794
28012W        W93173  20.032  18.847   5.085
28013W        W93174   6.468  42.452  13.956
28014W        W93175   1.943  15.659  10.964
28015W        W93176  41.296   7.174  14.855
28016W        W93177  27.112  35.549   2.129
28017W        W93178  38.537  24.249   4.433
28018W        W93179  22.181   1.789  14.897
28019W        W93180  24.274   4.843  12.723
28020W        W93181  38.905  15.731  12.856
28021W        W93182   4.495  11.524  12.432
28022W        W93183   7.309  24.240  11.618
28023W        W93184   9.722  28.990  11.184
28024W        W93185  22.698   7.860   4.385
28025W        W93186  44.338  39.339   1.905
28026W        W93187  10.745   8.698   2.362
28027W        W93188  37.382  30.167  13.177
28028W        W93189   9.761  11.154   3.720
28029W        W93190  11.591  29.912  13.649
28030W        W93191  25.220  15.546   4.115
28031W        W93192  21.221  31.855   2.319
28032W        W93193  26.642  38.574  14.525
28033W        W93194  15.224  14.624  12.115
28034W        W93195   8.276  37.762   1.897
28035W        W93196   2.495  43.037   3.141
28036W        W93197  34.376   8.388  13.248
28037W        W93198  30.893   8.356   1.772
28038W        W93199  13.238  36.078   4.558
28039W        W93200  37.971   2.898  13.156
28040W        W93201   9.849   1.461  10.655
28041W        W93202  40.066   5.444  10.903
28042W        W93203   4.746  17.765  10.822
28043W        W93204  22.643  23.237   3.114
28044W        W93205   3.607  17.550   2.328
28045W        W93206   9.890  39.543   3.736
28046W        W93207   4.416  35.461   0.061
28047W        W93208  42.542  14.094  11.573
28048W        W93209  34.886  14.764  11.621
28049W        W93210  41.486   5.850  13.898
28050W        W93211  17.615  21.720  14.897
28051W        W93212  30.311  37.688   0.819
28052W        W93213  23.939   6.667  10.692
28053W        W93214   1.745  40.926  14.058
28054W        W93215   0.258  41.984  12.875
28055W        W93216  30.856   4.764   1.833
28056W        W93217  21.549  34.833   2.073
28057W        W93218  12.996   6.651   4.153
28058W        W93219  28.161  34.414   2.388
28059W        W93220  40.433  22.555   3.180
28060W        W93221  23.792  22.090   1.685
28061W        W93222   1.744  14.079  10.742
28062W        W93223  22.588  31.836   4.222
28063W        W93224   2.062  37.556  14.616
28064W        W93225  29.059  29.253   1.859
28065W        W93226  14.003  43.743  12.439
28066W        W93227   8.811  13.177   4.501
28067W        W93228   3.092  17.462   2.284
28068W        W93229  33.031  16.380   0.081
28069W        W93230  20.775  15.215  12.444
28070W        W93231   4.319  14.191   1.800
28071W        W93232   7.500  31.907   5.092
28072W        W93233  14.502  31.385   1.186
28073W        W93234  10.247  22.975   1.313
28074W        W93235  40.325   7.854   4.988
28075W        W93236  40.030  12.127   2.250
28076W        W93237  43.462   6.412   2.834
28077W        W93238  24.641  11.903  13.041
28078W        W93239   9.243  11.798   3.335
28079W        W93240   8.178  17.113  13.810
28080W        W93241  31.986  37.875   1.723
28081W        W93242  43.984  26.841  14.084
28082W        W93243  19.779  14.841  13.018
28083W        W93244  27.032  43.349  13.481
28084W        W93245  31.824  14.294   3.627
28085W        W93246  44.352   9.132  13.256
28086W        W93247  15.947  17.706  10.982
28087W        W93248  10.145  28.249   1.755
28088W        W93249  20.254  38.277   0.799
28089W        W93250  34.052  13.417  13.538
28090W        W93251  10.915  31.668   1.669
28091W        W93252   5.109  26.709  12.352
28092W        W93253  43.281   9.086   1.784
28093W        W93254  13.812  17.653  13.046
28094W        W93255  24.674  16.762  14.275
28095W        W93256  35.798  14.871  10.605
28096W        W93257   2.084   6.397  11.330
28097W        W93258  15.680  43.747   4.036
28098W        W93259   1.389  16.283   2.421
28099W        W93260   3.391  14.069   2.210
28100W        W93261  22.519  29.982   0.394
28101W        W93262   5.266  31.885   1.546
28102W        W93263   9.818  12.574   3.811
28103W        W93264   6.694   0.785  12.474
28104W        W93265  31.190  21.471   2.307
28105W        W93266   4.499  12.275   1.913
28106W        W93267  17.951  28.552   0.874
28107W        W93268  20.514  11.619   4.318
28108W        W93269  11.098  27.207  14.347
28109W        W93270  34.130  33.986   3.510
28110W        W93271  44.845  35.839  13.116
28111W        W93272  38.645  30.015   4.448
28112W        W93273   4.154  16.667  10.963
28113W        W93274  34.666  32.182  11.129
28114W        W93275  42.430  19.282  14.249
28115W        W93276  22.811  24.460  14.387
28116W        W93277   9.470  20.917  14.481
28117W        W93278  35.624  32.354   4.157
28118W        W93279  25.667  11.227  13.822
28119W        W93280  26.607  14.722  10.776
28120W        W93281  42.095  37.354   2.921
28121W        W93282   8.261   2.013   2.168
28122W        W93283   5.357  17.769   0.551
28123W        W93284  32.848  32.870   2.985
28124W        W93285  28.246   1.602   3.030
28125W        W93286  28.477   7.845   4.924
28126W        W93287  35.552   2.925   4.641
28127W        W93288  33.234  35.994  10.682
28128W        W93289  22.346  19.643  10.114
28129W        W93290   3.880  37.492   2.866
28130W        W93291  36.473  11.816  12.048
28131W        W93292  15.876  13.634  14.452
28132W        W93293  23.457   7.260   1.343
28133W        W93294   1.024  22.188   1.243
28134W        W93295   8.658  39.516   1.787
28135W        W93296  30.795   4.930  11.626
28136W        W93297  20.628  24.702   2.861
28137W        W93298  29.449   5.985  12.428
28138W        W93299  29.991  18.073   0.299
28139W        W93300  33.931  15.529   2.839
28140W        W93301   6.386   9.577   2.800
28141W        W93302  18.532  38.797  14.959
28142W        W93303  21.951  34.265  14.659
28143W        W93304  33.491  25.660  11.425
28144W        W93305  35.181  11.576   2.906
28145W        W93306  33.897  31.733  12.005
28146W        W93307  34.953  23.005   2.746
28147W        W93308  36.266  43.532   4.674
28148W        W93309  38.221  20.898   1.853
28149W        W93310  39.626   4.769   4.164
28150W        W93311  23.018  42.262  14.305
28151W        W93312   6.933  19.410   4.524
28152W        W93313  17.629  41.551  12.027
28153W        W93314   4.802   6.186  10.733
28154W        W93315   2.921   1.758   3.427
28155W        W93316  25.973  27.877   1.440
28156W        W93317   7.738  41.931   2.659
28157W        W93318   2.278   6.867   1.251
28158W        W93319  44.780   3.760   1.755
28159W        W93320  28.534  30.469   3.325
28160W        W93321  10.727  10.309   1.790
28161W        W93322  17.572  35.566   0.177
28162W        W93323  26.251   0.426  12.213
28163W        W93324  44.519   9.678   4.766
28164W        W93325  31.995  28.669   1.161
28165W        W93326  16.646  11.303   2.433
28166W        W93327  35.337   7.755   0.805
28167W        W93328   5.494  20.556  11.554
28168W        W93329  20.293   7.205   3.499
28169W        W93330   6.188  24.570   1.367
28170W        W93331  24.672   3.197   5.494
28171W        W93332  16.171   0.514  12.085
28172W        W93333  29.155  27.899  10.766
28173W        W93334  16.085  27.500  13.850
28174W        W93335  16.723  22.305  10.732
28175W        W93336  16.113  26.983  13.769
28176W        W93337   7.919  26.482   9.851
28177W        W93338   8.704  43.897  14.481
28178W        W93339  41.340  37.480  10.233
28179W        W93340  24.512  31.689   3.445
28180W        W93341  32.553  13.006   0.327
28181W        W93342  28.770   2.613  13.587
28182W        W93343   8.929  27.127   3.697
28183W        W93344  33.656  10.842  11.911
28184W        W93345   3.211  41.476  10.726
28185W        W93346  39.360   7.398   2.209
28186W        W93347   2.525  27.115  12.169
28187W        W93348   4.335  22.411   2.794
28188W        W93349  26.661  39.409   9.945
28189W        W93350  10.570  23.523   0.874
28190W        W93351  25.153  27.578   4.449
28191W        W93352   7.202  38.422  12.159
28192W        W93353   2.738  31.207   3.761
28193W        W93354  40.778  20.556   3.338
28194W        W93355  11.754  20.044   3.603
28195W        W93356  14.636  27.962  14.787
28196W        W93357  18.741  15.606  11.999
28197W        W93358  10.678  24.055  14.976
28198W        W93359  25.085  25.081  14.711
28199W        W93360  35.911  14.908  14.915
28200W        W93361   9.294  16.722   0.504
28201W        W93362  20.152  29.985  11.428
28202W        W93363  21.645   8.212   0.774
28203W        W93364  25.631  26.155  14.750
28204W        W93365  31.861   5.815  13.008
28205W        W93366  24.086  17.572   1.414
28206W        W93367  40.415   3.880  14.076
28207W        W93368  10.252  20.062   0.235
28208W        W93369   4.268  34.955   1.793
28209W        W93370  41.188  30.030  13.672
28210W        W93371   3.389   4.212   1.225
28211W        W93372  26.688  34.588  13.153
28212W        W93373   9.682  31.977   1.157
28213W        W93374  40.464  42.671  14.360
28214W        W93375  40.612  42.403  13.931
28215W        W93376  10.598  25.646   2.356
28216W        W93377  42.404  27.766  13.525
28217W        W93378  28.234  23.060   1.717
28218W        W93379  44.383  41.979  11.945
28219W        W93380  44.961  19.034  13.423
28220W        W93381  36.924  37.378   3.596
28221W        W93382  35.092  11.192  13.795
28222W        W93383   0.765   2.861  10.726
28223W        W93384  13.470  27.781   5.283
28224W        W93385   9.194  11.110  13.062
28225W        W93386  25.719  41.701   3.686
28226W        W93387  17.434  10.780  11.881
28227W        W93388  21.316  12.933  14.493
28228W        W93389  10.152  25.583   1.266
28229W        W93390  37.371   4.414  13.407
28230W        W93391   0.227  41.467  12.921
28231W        W93392  39.690  44.718   4.127
28232W        W93393  27.705  29.635  13.908
28233W        W93394  36.860   5.243  12.064
28234W        W93395  41.836  21.186  13.873
28235W        W93396  37.484  30.915   1.957
28236W        W93397  12.114   5.013  11.201
28237W        W93398  30.682  38.344  13.423
28238W        W93399   1.797  30.997   4.094
28239W        W93400  22.996  14.283   1.943
28240W        W93401  20.631   9.533  14.013
28241W        W93402  38.521  15.688   2.874
28242W        W93403  33.392   8.993   3.505
28243W        W93404  38.957  27.938   1.134
28244W        W93405   6.145  40.718  11.639
28245W        W93406  25.891   1.996  13.582
28246W        W93407  27.708  24.733  13.432
28247W        W93408  18.489  24.194   1.926
28248W        W93409  21.470  38.840  14.892
28249W        W93410  32.368  17.574  13.866
28250W        W93411   3.713  13.974   2.919
28251W        W93412  38.914  18.052  10.766
28252W        W93413  30.700  23.794   3.064
28253W        W93414  13.240  14.366  11.554
28254W        W93415  42.868  25.451  12.461
28255W        W93416  15.805  23.202  14.324
28256W        W93417  25.204  27.688   2.254
28257W        W93418  42.902  34.200   3.395
28258W        W93419   2.741  40.111   4.119
28259W        W93420  24.250   7.304  12.174
28260W        W93421  30.595  10.096   0.256
28261W        W93422   3.456   2.748  11.196
28262W        W93423   2.247   0.983   1.405
28263W        W93424  32.627   0.718  10.810
28264W        W93425  10.608  10.755  13.922
28265W        W93426   2.439  10.335   1.899
28266W        W93427   8.328  38.258  12.858
28267W        W93428  18.641  25.571   3.312
28268W        W93429  12.413  38.510  14.714
28269W        W93430   3.399  12.127  12.305
28270W        W93431   6.012   9.856   1.477
28271W        W93432  14.154  37.525   3.655
28272W        W93433  34.178  41.373  10.910
28273W        W93434   5.263  23.542  11.077
28274W        W93435  31.683  17.496   0.205
28275W        W93436  27.105  22.505   1.757
28276W        W93437  44.818  23.493  11.889
28277W        W93438  15.985  24.095  13.271
28278W        W93439  23.942  10.741   1.246
28279W        W93440  23.757  22.253  12.411
28280W        W93441  40.527  25.547   1.351
28281W        W93442  22.256  32.979  13.498
28282W        W93443  39.610   7.854   3.287
28283W        W93444  25.203  41.077  13.934
28284W        W93445   6.858  31.804  10.088
28285W        W93446  38.075   5.953  14.452
28286W        W93447   3.218  33.895   2.492
28287W        W93448  21.247  42.653   4.527
28288W        W93449  27.613  38.593  13.523
28289W        W93450  18.112  44.735   4.514
28290W        W93451  38.200  23.402  12.135
28291W        W93452  20.256   1.811   2.807
28292W        W93453  17.213  15.347  14.458
28293W        W93454  39.319  31.566   0.929
28294W        W93455  44.887  24.963  13.850
28295W        W93456  39.890  20.202  14.522
28296W        W93457   3.794  34.333  11.013
28297W        W93458  38.369  43.323  12.985
28298W        W93459  13.757   5.410  14.506
28299W        W93460  44.830  11.389   1.375
28300W        W93461  10.203   6.290   2.838
28301W        W93462  37.101  22.917  13.280
28302W        W93463  10.603  25.221   3.251
28303W        W93464  18.202  40.651  13.267
28304W        W93465  15.549  16.574   0.750
28305W        W93466  43.514  32.925  10.953
28306W        W93467  34.554   7.632   2.058
28307W        W93468  16.530   7.330   3.148
28308W        W93469   5.463  32.474   2.715
28309W        W93470  27.417  29.017  11.249
28310W        W93471  16.312  10.168   2.896
28311W        W93472  43.919  41.716  12.059
28312W        W93473  36.998  11.633  14.070
28313W        W93474   3.472  34.337  12.586
28314W        W93475  31.767  10.478  14.796
28315W        W93476  32.588   3.174   1.434
28316W        W93477  19.267  27.010  10.723
28317W        W93478   4.770  27.876   0.236
28318W        W93479   5.899   4.264   3.391
28319W        W93480  11.947  36.709   0.835
28320W        W93481  37.635  17.804  11.528
28321W        W93482  34.378   4.500  11.331
28322W        W93483  22.055  40.962  12.093
28323W        W93484   6.400   1.956  11.195
28324W        W93485  36.947  41.301   1.375
28325W        W93486  27.017   2.869   0.230
28326W        W93487   0.863  35.311  10.663
28327W        W93488  17.647  33.112  13.535
28328W        W93489  32.712  35.373   3.439
28329W        W93490  11.483  29.966   0.320
28330W        W93491   6.014  32.126  11.133
28331W        W93492  16.124  16.830   2.343
28332W        W93493  13.610  17.785   4.533
28333W        W93494  26.774  29.131  12.417
28334W        W93495  12.889  17.154   2.329
28335W        W93496  29.293  21.582  14.408
28336W        W93497  28.566   6.099   1.968
28337W        W93498  20.200  37.355   1.007
28338W        W93499  26.417  15.115  12.462
28339W        W93500  28.451   6.521  13.330
28340W        W93501  30.724  20.442  11.459
28341W        W93502  38.824  32.944  10.310
28342W        W93503  14.759  20.174  14.619
28343W        W93504  17.314  42.598   3.225
28344W        W93505   9.548  24.833  10.084
28345W        W93506  40.015  16.523   2.664
28346W        W93507  39.848  11.319  13.858
28347W        W93508  32.544  15.737   4.891
28348W        W93509  16.587  15.353  12.534
28349W        W93510  28.655  12.296   4.651
28350W        W93511  40.895  44.320  13.948
28351W        W93512   0.976  10.217  14.664
28352W        W93513  43.047  43.008   2.322
28353W        W93514   8.597  15.809  14.862
28354W        W93515  18.759   8.793  11.843
28355W        W93516  13.953  22.499  11.498
28356W        W93517  12.707  19.082  11.567
28357W        W93518  30.681   9.476   2.376
28358W        W93519  38.396  21.465   4.000
28359W        W93520  25.725  41.961  11.215
28360W        W93521  28.138  25.846  12.857
28361W        W93522  27.981  20.067  13.068
28362W        W93523  27.433   0.998  12.000
28363W        W93524  20.516  23.103  10.694
28364W        W93525  43.311  15.092  10.626
28365W        W93526   2.127  37.087   3.693
28366W        W93527  13.006  42.880   3.827
28367W        W93528  33.697  29.687   4.208
28368W        W93529  13.764  34.150   1.347
28369W        W93530  16.750  12.166  12.019
28370W        W93531  22.725  12.170   2.869
28371W        W93532   6.453  41.945   4.078
28372W        W93533  44.794   9.341  12.357
28373W        W93534   2.275  30.343  11.035
28374W        W93535   0.501   2.050  13.066
28375W        W93536  16.344   5.929   2.846
28376W        W93537  25.641   7.338  12.493
28377W        W93538  14.861   6.649   4.722
28378W        W93539  26.369  35.818  12.439
28379W        W93540   9.095   8.194  12.641
28380W        W93541  14.724  20.983  14.848
28381W        W93542   4.690  23.671   2.671
28382W        W93543   1.174  29.555   1.709
28383W        W93544  41.948  27.969  13.383
28384W        W93545  23.979  31.058  14.391
28385W        W93546  37.470   3.717  10.826
28386W        W93547  42.788  43.452  11.675
28387W        W93548  41.340  27.591   3.776
28388W        W93549  38.399  17.039   2.345
28389W        W93550   8.227  42.499  13.397
28390W        W93551  25.663  14.225  14.503
28391W        W93552   1.410  35.511  10.643
28392W        W93553  35.200   2.379  13.618
28393W        W93554   3.636  38.795   3.256
28394W        W93555  29.439   2.772   1.773
28395W        W93556   4.952  33.123   2.351
28396W        W93557  44.237  20.107  13.539
28397W        W93558  19.811  38.680  13.104
28398W        W93559   0.480  21.635  10.898
28399W        W93560  10.338  20.584   2.241
28400W        W93561  30.082   3.808  14.601
28401W        W93562  26.008  15.531  13.965
28402W        W93563  33.989  11.666   1.391
28403W        W93564   1.283  27.203   4.537
28404W        W93565   4.663  39.565  11.903
28405W        W93566  38.753  44.224  14.845
28406W        W93567  21.603  13.775   1.908
28407W        W93568  14.106  21.887   4.549
28408W        W93569  40.329  42.680   2.801
28409W        W93570  10.305  44.842   3.160
28410W        W93571  37.991  23.046  12.984
28411W        W93572  14.297  10.768  13.326
28412W        W93573   0.698  26.159   4.844
28413W        W93574  20.535  35.344  13.955
28414W        W93575  40.155  32.329  11.996
28415W        W93576  24.653   0.740  10.491
28416W        W93577  21.059  15.988  12.973
28417W        W93578  11.057  24.293  14.238
28418W        W93579  34.848  10.653  13.516
28419W        W93580  43.452   3.301  11.158
28420W        W93581  27.942   8.385  14.240
28421W        W93582   5.160  42.311   3.131
28422W        W93583  38.948  30.962  12.077
28423W        W93584  31.052  40.473   0.765
28424W        W93585  30.774  34.885  12.562
28425W        W93586  34.979  22.252  11.236
28426W        W93587  25.353  40.254   1.697
28427W        W93588  35.341  11.201  10.698
28428W        W93589  37.810  19.108  12.604
28429W        W93590  28.842  35.423  11.183
28430W        W93591  30.083  16.274   2.830
28431W        W93592  42.842  29.857   5.076
28432W        W93593  17.540   7.464   0.622
28433W        W93594  22.967  26.587  13.931
28434W        W93595  22.882  26.534   2.598
28435W        W93596  32.147   6.508  10.926
28436W        W93597  28.359  22.058  10.936
28437W        W93598  12.133   6.439  11.987
28438W        W93599  29.916  31.877   1.853
28439W        W93600   2.275  12.397  13.892
28440W        W93601  40.922   7.651   2.773
28441W        W93602  20.240  32.800  12.151
28442W        W93603  28.665  39.859  12.894
28443W        W93604   4.290  24.627  12.528
28444W        W93605   2.772  11.820  12.969
28445W        W93606   7.755   8.938  14.820
28446W        W93607   7.152  20.263  11.618
28447W        W93608  29.526  35.256   0.980
28448W        W93609  14.734   2.833   4.710
28449W        W93610   5.115  42.201   1.331
28450W        W93611  10.622   7.765  13.442
28451W        W93612  22.919  32.984   3.339
28452W        W93613  17.063   8.580  13.419
28453W        W93614  38.963  44.620  11.569
28454W        W93615   1.414   6.709  14.949
28455W        W93616  34.980  41.011  12.907
28456W        W93617   3.380  10.649  12.064
28457W        W93618  19.321  39.799   9.960
28458W        W93619  21.804   2.965  12.518
28459W        W93620  39.271  25.604   2.465
28460W        W93621  43.772  32.539  12.165
28461W        W93622  39.269  28.627  12.960
28462W        W93623   3.714  12.312   4.300
28463W        W93624  10.880  39.470  12.959
28464W        W93625   1.356  33.983   4.137
28465W        W93626  21.684  20.044   4.405
28466W        W93627  18.167  32.494  11.472
28467W        W93628  39.991   5.404  12.099
28468W        W93629  16.951  11.699  13.842
28469W        W93630   2.042  10.345  11.959
28470W        W93631  27.264  35.112  11.650
28471W        W93632  18.559   0.006   3.806
28472W        W93633  44.275  27.732   4.086
28473W        W93634  12.086  31.300   0.834
28474W        W93635   2.927  44.859  10.780
28475W        W93636   5.794   2.405   4.124
28476W        W93637  28.911  22.713  12.434
28477W        W93638  13.690  29.971   3.739
28478W        W93639  12.814   5.287  13.458
28479W        W93640  10.680  41.549  12.946
28480W        W93641  39.965  43.754  12.494
28481W        W93642  41.929  31.636  12.582
28482W        W93643   8.628  38.928   2.659
28483W        W93644  42.394  20.115  11.010
28484W        W93645   8.980  36.089   3.160
28485W        W93646  28.752  14.748   4.539
28486W        W93647  30.548  32.567  14.747
28487W        W93648  19.377  23.359  13.552
28488W        W93649  12.565  25.472  12.650
28489W        W93650  17.245  10.914  10.901
28490W        W93651  30.263  29.652  13.969
28491W        W93652   3.641   3.895  11.112
28492W        W93653  28.999  10.632   9.811
28493W        W93654  30.629  31.901   1.494
28494W        W93655   5.924  19.606  10.750
28495W        W93656  25.624  36.910   0.035
28496W        W93657  31.553  29.420  13.353
28497W        W93658  11.348  33.059  10.623
28498W        W93659  10.609  26.256   3.936
28499W        W93660  21.979  10.351  12.929
28500W        W93661  17.823  32.079  10.721
28501W        W93662  20.172   5.167   3.284
28502W        W93663  21.165   9.852  14.880
28503W        W93664  15.707  27.381   0.025
28504W        W93665   3.252   4.329  14.808
28505W        W93666  38.910  38.361   2.623
28506W        W93667  35.972  27.468  14.381
28507W        W93668  30.431   0.890   1.228
28508W        W93669  33.921  20.075  13.261
28509W        W93670   8.719  33.121   0.391
28510W        W93671   5.319  34.599   1.425
28511W        W93672  38.897   3.930   1.369
28512W        W93673  29.192  40.323   3.228
28513W        W93674  18.319  44.254  11.935
28514W        W93675  16.173  16.894  13.987
28515W        W93676  31.541   9.409  12.248
28516W        W93677  18.565  11.102  14.444
28517W        W93678  18.351  17.647  10.169
28518W        W93679   9.797  36.625   2.266
28519W        W93680  42.852   5.414  12.618
28520W        W93681  33.468  33.487   4.616
28521W        W93682  36.184  27.026   1.642
28522W        W93683  35.124  31.890   2.615
28523W        W93684  23.707  39.136  14.548
28524W        W93685   3.546  14.294  11.072
28525W        W93686  12.701   8.352   4.699
28526W        W93687   1.565  14.833  10.717
28527W        W93688  10.451  41.555  14.424
28528W        W93689  42.926  27.076   3.483
28529W        W93690  26.873  44.935   2.403
28530W        W93691  14.094   7.309  14.879
28531W        W93692  22.277   8.602   2.861
28532W        W93693  14.234  13.097   2.597
28533W        W93694  25.044   1.604  12.566
28534W        W93695  35.008   1.215   4.706
28535W        W93696  28.489  10.682   9.810
28536W        W93697  30.180  18.072  13.398
28537W        W93698  40.439  28.123   4.918
28538W        W93699   1.421   0.935   1.234
28539W        W93700  20.641  14.295   1.517
28540W        W93701  34.590   8.863   2.299
28541W        W93702   4.437  44.205   4.209
28542W        W93703  17.983   8.584  12.184
28543W        W93704  41.432  10.363   0.415
28544W        W93705  24.218  29.608  12.509
28545W        W93706   4.039  20.374   4.225
28546W        W93707   3.203  17.222   1.281
28547W        W93708  17.799  40.741  12.924
28548W        W93709  23.172  42.066   3.238
28549W        W93710  37.516  11.317   2.320
28550W        W93711  27.915  42.360  13.420
28551W        W93712   8.222  34.468   3.365
28552W        W93713  41.840   0.988  14.194
28553W        W93714   4.081  20.661  10.701
28554W        W93715  12.958  25.702   1.082
28555W        W93716  35.022  43.947  14.895
28556W        W93717  13.817   9.416  13.036
28557W        W93718  14.910   6.731  12.897
28558W        W93719   4.263   4.217  10.506
28559W        W93720  44.692  27.670  13.281
28560W        W93721  44.283  17.868   3.682
28561W        W93722   8.901   1.563   2.860
28562W        W93723  13.783  30.044  13.410
28563W        W93724   0.870   9.705   3.696
28564W        W93725  21.389  41.261   3.881
28565W        W93726   8.658  15.576  10.097
28566W        W93727  30.651  33.432   0.196
28567W        W93728  39.071  29.988   2.705
28568W        W93729  20.771  20.213  12.392
28569W        W93730  10.548  36.285   2.886
28570W        W93731  12.630  19.306   4.605
28571W        W93732   3.709   9.931   1.398
28572W        W93733  12.225  10.278  13.850
28573W        W93734   1.049  38.966  11.187
28574W        W93735  44.743  36.822   1.500
28575W        W93736  24.548  31.190   2.684
28576W        W93737  14.432  43.167  14.986
28577W        W93738  41.908  30.635   4.716
28578W        W93739  28.730  14.583  13.275
28579W        W93740  11.942  21.300  14.456
28580W        W93741  35.175   3.650  11.693
28581W        W93742  22.709  19.203  11.615
28582W        W93743  23.992  36.521  13.434
28583W        W93744  34.996   8.991  10.596
28584W        W93745  22.174   9.968   1.363
28585W        W93746   4.793  26.177  13.041
28586W        W93747  42.286  24.157   1.244
28587W        W93748  13.364  28.167  12.492
28588W        W93749  27.219   5.922   4.101
28589W        W93750  14.349  14.182   3.464
28590W        W93751   4.693  30.250   1.831
28591W        W93752   5.701  33.865  13.946
28592W        W93753   6.145  40.171   0.762
28593W        W93754  28.691  20.674   3.641
28594W        W93755  26.873  17.175   1.526
28595W        W93756  28.532   5.525   0.889
28596W        W93757   0.603  26.640  10.302
28597W        W93758  44.891  24.770   1.336
28598W        W93759  37.324  40.017   2.005
28599W        W93760  30.209  18.222  14.833
28600W        W93761  18.808  31.992  13.798
28601W        W93762  42.786  36.672  14.549
28602W        W93763  23.573  33.322   2.748
28603W        W93764  24.626  29.201   1.667
28604W        W93765  25.719  23.627  14.728
28605W        W93766  16.571  16.058  12.005
28606W        W93767  41.517   7.864  11.764
28607W        W93768  37.643   5.807   0.057
28608W        W93769  32.107  14.349  13.395
28609W        W93770  43.516  35.340  12.221
28610W        W93771  12.232  15.618   3.764
28611W        W93772  13.610  34.810  12.040
28612W        W93773  13.566  25.066  13.992
28613W        W93774  20.554   3.315  13.019
28614W        W93775  29.611  11.849   0.035
28615W        W93776   9.861  23.014   1.641
28616W        W93777   8.030   4.834  11.656
28617W        W93778  25.010  34.066  12.480
28618W        W93779  15.806   3.297  11.100
28619W        W93780  27.106   6.435  11.723
28620W        W93781  40.018  25.167   2.754
28621W        W93782  42.903   7.845   0.430
28622W        W93783   3.400   3.939   4.110
28623W        W93784  20.025  40.810  13.444
28624W        W93785  29.710  24.210  14.775
28625W        W93786  36.862  40.033  12.096
28626W        W93787  35.753  28.660  12.757
28627W        W93788  26.944  17.680   0.975
28628W        W93789  10.232  34.456  10.754
28629W        W93790  29.913  30.602   2.262
28630W        W93791  38.450  21.664  13.032
28631W        W93792  37.341   8.356   4.423
28632W        W93793  24.939  15.051   2.043
28633W        W93794  14.807  11.830  10.792
28634W        W93795  21.371  17.516   3.677
28635W        W93796  39.048  14.280   4.742
28636W        W93797  32.931  30.950  11.649
28637W        W93798  42.474  37.955   0.718
28638W        W93799  18.800  15.002   4.609
28639W        W93800  37.914  17.957  14.423
28640W        W93801   6.488  16.913   0.985
28641W        W93802  24.870  15.869   2.383
28642W        W93803   5.379  25.442   4.548
28643W        W93804  44.618  15.838  10.690
28644W        W93805   7.681  24.690  13.268
28645W        W93806  25.573   2.745  10.904
28646W        W93807  23.693  11.029   0.491
28647W        W93808  25.193  34.311   1.905
28648W        W93809   8.145  25.119   3.125
28649W        W93810  13.403  17.125   2.330
28650W        W93811  22.426  20.154   9.963
28651W        W93812  26.193  43.317   1.786
28652W        W93813  26.028  15.929   4.697
28653W        W93814  29.957   3.577   0.436
28654W        W93815  31.238  10.897  11.954
28655W        W93816  12.375   9.064   2.468
28656W        W93817  39.538  37.044   4.009
28657W        W93818  28.177  13.325   2.729
28658W        W93819  31.164  17.214  11.953
28659W        W93820  28.614   9.265   0.889
28660W        W93821  39.467   7.433   3.581
28661W        W93822  10.769  44.867   0.422
28662W        W93823  29.150  26.168   2.254
28663W        W93824  12.624  23.204   2.685
28664W        W93825  15.363  40.247  12.384
28665W        W93826  44.959  33.918  14.390
28666W        W93827   9.684   3.699  13.918
28667W        W93828  15.054  36.414   0.372
28668W        W93829  14.623  14.254  12.642
28669W        W93830  25.826  43.814   2.139
28670W        W93831  15.680   4.244  14.086
28671W        W93832  43.446   8.337   4.928
28672W        W93833  27.953  32.528  14.764
28673W        W93834  30.850  18.703  12.013
28674W        W93835  42.280   6.735   0.577
28675W        W93836  38.010  39.277   3.004
28676W        W93837  17.765  16.228  14.268
28677W        W93838  11.896  12.544  13.553
28678W        W93839  25.975  32.316  10.828
28679W        W93840  25.939   3.850   3.260
28680W        W93841  11.266  24.732   1.386
28681W        W93842  29.681  22.777  13.822
28682W        W93843  41.291  25.990   4.300
28683W        W93844   7.388  17.386   0.700
28684W        W93845   3.176   2.229  14.546
28685W        W93846  15.274  32.848   1.772
28686W        W93847  28.879   2.382   2.389
28687W        W93848  34.003  11.733   4.435
28688W        W93849  26.721   5.877  11.501
28689W        W93850  43.472  43.904  12.082
28690W        W93851   0.168  13.803  11.201
28691W        W93852  19.733  34.964   0.176
28692W        W93853  32.935   3.888   2.976
28693W        W93854  14.890   9.682   4.162
28694W        W93855  39.130  31.346   0.443
28695W        W93856  16.261  22.491   4.213
28696W        W93857  34.914  37.473  11.120
28697W        W93858  25.800  23.029   4.108
28698W        W93859   8.391  24.504   0.182
28699W        W93860  21.735  20.557   0.374
28700W        W93861  21.064  14.123   0.890
28701W        W93862  25.459  37.944  14.349
28702W        W93863   0.055  21.162   2.668
28703W        W93864   1.744  14.797   0.471
28704W        W93865  17.322  42.057   0.834
28705W        W93866  14.622  10.308  12.649
28706W        W93867  30.365  30.147   0.607
28707W        W93868  19.040   6.437   2.294
28708W        W93869  42.262  12.532  11.622
28709W        W93870  38.043   8.130   2.520
28710W        W93871  16.395   1.672   0.666
28711W        W93872   3.971  17.234  11.619
28712W        W93873  21.629  21.352  13.388
28713W        W93874  43.802  19.745  10.773
28714W        W93875  20.779  28.138  11.151
28715W        W93876  30.591  21.206  14.444
28716W        W93877  22.191  32.862   0.007
28717W        W93878  41.848  12.891  14.836
28718W        W93879   8.700   6.829  12.517
28719W        W93880  17.995   7.421   4.599
28720W        W93881  24.728  34.980   0.948
28721W        W93882   0.511  44.898  13.398
28722W        W93883   7.234   2.021  14.276
28723W        W93884  18.306  25.524  12.483
28724W        W93885  41.058  30.702   3.574
28725W        W93886   4.811  32.435   0.511
28726W        W93887   8.834  40.509   4.172
28727W        W93888  16.542   4.919   2.353
28728W        W93889  29.550   8.855  12.430
28729W        W93890  32.974  22.264  12.022
28730W        W93891   5.857   1.236  11.570
28731W        W93892  37.915  18.450  14.368
28732W        W93893  43.358  33.599  12.885
28733W        W93894  29.053  39.812  10.823
28734W        W93895  43.281  16.337   2.356
28735W        W93896  11.298   3.462  12.102
28736W        W93897  11.631  44.955   2.841
28737W        W93898  29.270  29.024  13.465
28738W        W93899  29.676  19.858  10.909
28739W        W93900   2.374  12.886  13.573
28740W        W93901  12.472   1.562   4.432
28741W        W93902   0.414   5.300  11.685
28742W        W93903  20.707   9.855   1.749
28743W        W93904  35.171  44.720   4.476
28744W        W93905   1.862  28.525  10.966
28745W        W93906  13.117   7.022   3.380
28746W        W93907   2.782  32.110   4.169
28747W        W93908  38.436  27.887  13.566
28748W        W93909   7.717  24.011  11.264
28749W        W93910   5.735   5.759   4.707
28750W        W93911  25.743  35.267   0.353
28751W        W93912   3.220  32.145   1.832
28752W        W93913  41.652  35.138  12.456
28753W        W93914  34.679  25.917   3.535
28754W        W93915  10.298  33.034   4.197
28755W        W93916  33.290   7.589  12.982
28756W        W93917   0.414   0.514   4.653
28757W        W93918  12.539   2.337   2.821
28758W        W93919  36.522  43.513   3.262
28759W        W93920  19.644  34.598  11.957
28760W        W93921  19.534  44.989   1.522
28761W        W93922   2.385  44.534  13.291
28762W        W93923  17.221  22.882  12.952
28763W        W93924   5.855  11.272   2.170
28764W        W93925  40.707  14.268  10.449
28765W        W93926  30.064  23.903  14.479
28766W        W93927  30.716  31.874   2.109
28767W        W93928  43.967   0.791  12.149
28768W        W93929  12.086  21.716   4.792
28769W        W93930  21.288  16.338  14.536
28770W        W93931  15.110  42.618   1.628
28771W        W93932  19.729  11.622  13.482
28772W        W93933  19.187  15.313   3.372
28773W        W93934  16.853  29.155  12.238
28774W        W93935   9.635  18.076   2.706
28775W        W93936  36.570  25.645   1.676
28776W        W93937  30.505   5.075  11.196
28777W        W93938  40.768  39.392  14.234
28778W        W93939  15.302  28.155   0.873
28779W        W93940   9.911  15.087   3.525
28780W        W93941   5.498  24.723   2.756
28781W        W93942  26.864  40.384   1.847
28782W        W93943  21.025  36.277   3.702
28783W        W93944  35.861  26.014  14.766
28784W        W93945   7.309  29.639   3.327
28785W        W93946  10.291   8.613  11.416
28786W        W93947   2.242  24.792  12.987
28787W        W93948  14.560  14.606  13.437
28788W        W93949  23.535   1.828  11.187
28789W        W93950   0.956  23.429  14.857
28790W        W93951  19.706  11.534   0.316
28791W        W93952   5.001  31.221  14.452
28792W        W93953  11.354  15.214   3.751
28793W        W93954  24.537  31.891  11.218
28794W        W93955  22.581  21.632  14.789
28795W        W93956  17.838  24.886   2.410
28796W        W93957  42.804  34.507   2.419
28797W        W93958  31.642   9.351   4.332
28798W        W93959  44.390  33.846   4.707
28799W        W93960   5.772   5.407   2.851
28800W        W93961  31.913  30.970   4.582
28801W        W93962  19.016  29.144   2.511
28802W        W93963   2.992  29.444  12.033
28803W        W93964   1.210  38.908  11.829
28804W        W93965  43.269   4.595  10.289
28805W        W93966   4.247  28.054  13.141
28806W        W93967  21.987  36.150  14.402
28807W        W93968  24.912  22.958  12.811
28808W        W93969  17.215  35.606  12.569
28809W        W93970  36.383   0.215  13.919
28810W        W93971  25.132  12.856   2.914
28811W        W93972  36.258  42.610   4.720
28812W        W93973  41.055  13.715  14.439
28813W        W93974  16.710  39.448  12.579
28814W        W93975  28.992  29.623   0.967
28815W        W93976  36.658   4.971  14.293
28816W        W93977   4.928  39.557   0.430
28817W        W93978  29.586  11.705   2.646
28818W        W93979  23.267  44.975   2.411
28819W        W93980  12.838  40.487  10.726
28820W        W93981   0.131  34.041   1.861
28821W        W93982  27.264  36.335  13.983
28822W        W93983   1.787  40.619   4.139
28823W        W93984  17.598  31.032   2.768
28824W        W93985  27.618  27.078   1.386
28825W        W93986  23.135  14.743   0.300
28826W        W93987  36.346   5.253  12.145
28827W        W93988  13.398  17.152   1.424
28828W        W93989  27.660  21.670   0.921
28829W        W93990   5.327  22.251  13.011
28830W        W93991  41.461  22.739  11.578
28831W        W93992  20.912  18.321  14.817
28832W        W93993  33.316   8.373  11.105
28833W        W93994  32.413   5.825   3.283
28834W        W93995  40.976  41.749  11.170
28835W        W93996  14.823  20.256   0.561
28836W        W93997  18.257  39.034   3.577
28837W        W93998  14.026  16.280  14.850
28838W        W93999  11.402  20.145  13.978
28839W        W94000  26.349  28.376   1.850
28840W        W94001  14.473   6.729  11.460
28841W        W94002  25.945  44.843   3.749
28842W        W94003  43.314  16.055   3.701
28843W        W94004  18.100  28.115   0.077
28844W        W94005   7.978  20.709   3.874
28845W        W94006  26.190  32.541   3.329
28846W        W94007  13.806  29.728   2.376
28847W        W94008  21.888  19.078   4.216
28848W        W94009  15.141  14.687   3.099
28849W        W94010   5.180  32.455   0.895
28850W        W94011  19.730  17.716   3.329
28851W        W94012  19.331  43.962  14.956
28852W        W94013  42.478  17.669  13.375
28853W        W94014  34.381  37.052  14.843
28854W        W94015   0.430  17.566  13.532
28855W        W94016  21.331  29.580  11.642
28856W        W94017   3.825  24.065   3.675
28857W        W94018  44.715  41.575  14.744
28858W        W94019  20.926  17.747   3.528
28859W        W94020  30.493  24.282  11.170
28860W        W94021  39.109  20.141  12.152
28861W        W94022  35.952  35.431   1.898
28862W        W94023  27.493  15.824  11.147
28863W        W94024  36.866  29.377  11.108
28864W        W94025  13.668  15.495   4.906
28865W        W94026  13.683   2.422   3.687
28866W        W94027  28.505  38.648  13.476
28867W        W94028  43.961  10.815  11.903
28868W        W94029  16.320   3.368  11.537
28869W        W94030  26.885   3.052  12.612
28870W        W94031   4.025  28.497  12.952
28871W        W94032  17.810  24.078  12.086
28872W        W94033  26.421   6.887   0.504
28873W        W94034   2.000  34.444  10.072
28874W        W94035   4.636  29.278  13.994
28875W        W94036  38.111  40.456  13.838
28876W        W94037  34.292   0.315  14.864
28877W        W94038  12.806  12.545   1.839
28878W        W94039  24.902   3.266  12.815
28879W        W94040   5.724  21.049  13.590
28880W        W94041  23.723   3.361   0.711
28881W        W94042  21.992   9.811  12.172
28882W        W94043  23.538   3.309   0.228
28883W        W94044   6.172  11.086  11.598
28884W        W94045  41.196  40.838  10.732
28885W        W94046  10.637  36.903   0.378
28886W        W94047  18.748  36.398  10.756
28887W        W94048  42.304  29.534   4.701
28888W        W94049  36.096  20.488   4.177
28889W        W94050  18.154  10.810  14.566
28890W        W94051  17.767  38.410   4.601
28891W        W94052  35.069   6.967  10.765
28892W        W94053  17.357   0.202  11.603
28893W        W94054  31.558  36.152   4.216
28894W        W94055  27.456  16.499  10.574
28895W        W94056  14.445  11.168   0.762
28896W        W94057  22.004  42.820   3.425
28897W        W94058  25.794  16.316   2.561
28898W        W94059  12.821  28.991   4.481
28899W        W94060   8.857   1.973   3.803
28900W        W94061  39.088  39.574  13.800
28901W        W94062  38.471   7.043  11.667
28902W        W94063   9.592   0.133  14.197
28903W        W94064   0.287  20.767  10.703
28904W        W94065   8.768  13.296   3.128
28905W        W94066  17.337   8.847  12.959
28906W        W94067  36.199  25.994   4.559
28907W        W94068  35.730   8.076   2.687
28908W        W94069  38.679  30.117  11.080
28909W        W94070   3.456  40.362   1.716
28910W        W94071  40.339  26.804  13.587
28911W        W94072  34.856  33.604  14.305
28912W        W94073  37.891  15.342  13.858
28913W        W94074  11.874  42.300  11.405
28914W        W94075   6.244  30.899   2.853
28915W        W94076  28.023  35.557  12.927
28916W        W94077  39.934  26.590  12.252
28917W        W94078  25.024  34.093   0.195
28918W        W94079  38.265  30.901  10.814
28919W        W94080  12.078   4.378   4.805
28920W        W94081  30.368   7.877  11.230
28921W        W94082  31.551  35.633   0.992
28922W        W94083  13.051  13.294   3.311
28923W        W94084   1.811  35.423  14.737
28924W        W94085  39.076  43.759  12.444
28925W        W94086   5.155  35.821   4.026
28926W        W94087  13.090   9.653   1.208
28927W        W94088  23.545  21.734  14.397
28928W        W94089  42.804  23.074   2.257
28929W        W94090  37.741   7.305  10.684
28930W        W94091  33.362   7.243   3.240
28931W        W94092  24.346   8.652   1.462
28932W        W94093  36.675   0.408  14.307
28933W        W94094  25.324  43.774   2.251
28934W        W94095   4.056   2.465   3.224
28935W        W94096  12.727  44.945   1.864
28936W        W94097   6.999  30.285  14.290
28937W        W94098  37.853  11.639   0.932
28938W        W94099  25.344  26.557  12.437
28939W        W94100  13.470  25.576  12.781
28940W        W94101  44.790  27.677   4.173
28941W        W94102   4.212   8.784  10.681
28942W        W94103  23.743   0.867   0.312
28943W        W94104  15.017   9.109   3.786
28944W        W94105  16.758  30.007   0.209
28945W        W94106  12.369  24.934   3.244
28946W        W94107  21.936  31.247   1.357
28947W        W94108  32.055   9.656   1.223
28948W        W94109  42.070  43.640   3.787
28949W        W94110  26.734  16.894   0.323
28950W        W94111  42.985  28.035   5.008
28951W        W94112   4.585  27.606  13.173
28952W        W94113   5.924   0.995  11.103
28953W        W94114  27.038  39.897   1.944
28954W        W94115  12.251   9.877  14.572
28955W        W94116   2.631  24.024  14.834
28956W        W94117  39.573  13.460   1.235
28957W        W94118  33.497  33.008  12.573
28958W        W94119  15.567  23.607   9.930
28959W        W94120   7.876   4.730   3.752
28960W        W94121  39.364  36.878   2.697
28961W        W94122  38.913  40.845   3.678
28962W        W94123  37.554  20.324  12.875
28963W        W94124  35.127  12.159   4.713
28964W        W94125   2.031   3.248  14.420
28965W        W94126  34.138  20.564   1.725
28966W        W94127  27.777  15.058   4.540
28967W        W94128  30.444   5.140  12.112
28968W        W94129   3.319  20.733   3.749
28969W        W94130  10.138  25.409   2.307
28970W        W94131  12.542  14.723  10.341
28971W        W94132  35.315   6.711   2.663
28972W        W94133  39.499  28.444   1.729
28973W        W94134   5.711  41.913   2.269
28974W        W94135  27.501  13.152  14.772
28975W        W94136  31.484  15.759   2.841
28976W        W94137  29.964   9.626   2.583
28977W        W94138  13.616  13.715  14.983
28978W        W94139  23.264  26.204  14.088
28979W        W94140   1.484  22.476   2.371
28980W        W94141  19.259  23.654  12.212
28981W        W94142  22.167  21.642  14.190
28982W        W94143  11.609  34.474   4.594
28983W        W94144   5.596   0.485  11.120
28984W        W94145  41.079  16.825  14.770
28985W        W94146  15.712  22.270  11.548
28986W        W94147  40.623  25.665  12.184
28987W        W94148  30.690  29.441  13.338
28988W        W94149   7.186   9.591  12.112
28989W        W94150  18.794  10.747  11.664
28990W        W94151  11.756  13.055  13.648
28991W        W94152  41.045  41.415   4.675
28992W        W94153  41.784   8.401   1.331
28993W        W94154  40.381  44.245  14.080
28994W        W94155  25.896   5.193  12.280
28995W        W94156  30.608  43.131   4.229
28996W        W94157  16.829  20.634   0.235
28997W        W94158  28.973  37.076  12.817
28998W        W94159  32.544  29.015   3.057
28999W        W94160  42.416  40.726   1.317
29000W        W94161  43.518  23.032   1.824
29001W        W94162  41.012  39.952  10.797
29002W        W94163  11.210  38.354   4.077
29003W        W94164  18.153  35.910   3.206
29004W        W94165  32.604  14.201   3.188
29005W        W94166  23.381   3.885   1.889
29006W        W94167   4.765   0.246   1.951
29007W        W94168  19.281  34.168  11.601
29008W        W94169   1.937   0.894   4.506
29009W        W94170   6.184  22.541  14.487
29010W        W94171  31.598  40.919  13.105
29011W        W94172  20.159  18.212   1.334
29012W        W94173  27.905  26.339   1.731
29013W        W94174   8.606  10.523   4.597
29014W        W94175  20.591  43.047  10.613
29015W        W94176  35.572   9.864  10.769
29016W        W94177  12.972  44.826  12.021
29017W        W94178  30.607  21.988  11.467
29018W        W94179   3.287  43.007   2.699
29019W        W94180   8.065  33.372   0.299
29020W        W94181  39.196  19.632   3.835
29021W        W94182  19.569  11.827   2.645
29022W        W94183  42.035  35.881   5.051
29023W        W94184  18.769  33.899  13.807
29024W        W94185  17.470  22.513  11.128
29025W        W94186   3.768  32.418   0.818
29026W        W94187  24.123  35.089   0.941
29027W        W94188  19.478  15.510   1.233
29028W        W94189  10.199  15.440   3.306
29029W        W94190  28.793  36.176   0.019
29030W        W94191  13.800  40.968   2.240
29031W        W94192   5.602  16.805   3.692
29032W        W94193  35.473  41.057  13.818
29033W        W94194  23.421   1.826   3.906
29034W        W94195   7.693  34.102  13.571
29035W        W94196   0.375   5.385   0.994
29036W        W94197  29.028  22.195  12.492
29037W        W94198  44.049   9.876   3.074
29038W        W94199  31.557  33.073   2.635
29039W        W94200  17.574   2.709   3.344
29040W        W94201  41.152  29.420  14.981
29041W        W94202  13.746  11.859   4.586
29042W        W94203  15.643   3.945  12.514
29043W        W94204  27.304  26.798   3.435
29044W        W94205  22.025  42.795   1.438
29045W        W94206  35.090  26.066   2.659
29046W        W94207  26.063  19.191   2.227
29047W        W94208  20.991   8.139  14.846
29048W        W94209  33.394   0.354   3.589
29049W        W94210  17.191   0.522   4.831
29050W        W94211  35.316   3.429   2.829
29051W        W94212  40.103  42.065   0.338
29052W        W94213   3.020  32.590   4.055
29053W        W94214   8.213  14.061  13.349
29054W        W94215  41.512  16.757   1.656
29055W        W94216   4.145  44.411  10.731
29056W        W94217   0.666  35.952   0.371
29057W        W94218   3.386  44.394  13.339
29058W        W94219  22.701  30.854   4.298
29059W        W94220  43.302  20.269  13.320
29060W        W94221   2.570  37.502  14.488
29061W        W94222  35.816  33.076  12.419
29062W        W94223  19.178  37.982  13.247
29063W        W94224   8.205  26.559  12.472
29064W        W94225  32.889  10.665  14.320
29065W        W94226  23.679  10.665  14.095
29066W        W94227  11.401  40.878  10.993
29067W        W94228  36.482   0.915  12.595
29068W        W94229  10.883   5.960  12.454
29069W        W94230   4.277  35.670   2.900
29070W        W94231  10.088  37.453  11.169
29071W        W94232   9.410  27.995  11.068
29072W        W94233   6.916  18.209   1.395
29073W        W94234  14.250  44.765   2.751
29074W        W94235  30.671   0.866   2.128
29075W        W94236  11.721  20.823  10.336
29076W        W94237  25.024  42.837   2.799
29077W        W94238   7.740  32.097   2.736
29078W        W94239  15.033  13.078  11.008
29079W        W94240  13.226  18.039  13.839
29080W        W94241   8.316  30.525  11.564
29081W        W94242  44.051   7.481   4.282
29082W        W94243   2.249   0.968   3.732
29083W        W94244  23.074   5.355   4.689
29084W        W94245   4.380  23.692   1.812
29085W        W94246  34.462  14.097  14.728
29086W        W94247  39.492  31.474  13.612
29087W        W94248  13.174  41.936   1.415
29088W        W94249  17.829  34.549   2.579
29089W        W94250  13.200  30.023  14.670
29090W        W94251  23.656  32.683  12.520
29091W        W94252  31.157   8.573  10.113
29092W        W94253  10.140  11.518  12.134
29093W        W94254  17.730  36.010  11.533
29094W        W94255  13.273  39.233  14.524
29095W        W94256  29.733  37.453   4.951
29096W        W94257  10.926   4.753  11.804
29097W        W94258  30.620  36.664  12.186
29098W        W94259  18.797   9.534  14.507
29099W        W94260  44.279  12.175   0.318
29100W        W94261  15.988  39.337  12.154
29101W        W94262  25.742  11.678   1.777
29102W        W94263  10.763  39.481  14.775
29103W        W94264  44.649   3.475   9.935
29104W        W94265   8.902   9.641   4.511
29105W        W94266  42.410  36.956   2.801
29106W        W94267   6.722  40.754   0.251
29107W        W94268  44.435  13.333  12.464
29108W        W94269  33.536  43.919   4.807
29109W        W94270   9.914  20.566  10.977
29110W        W94271  26.325  32.453   3.829
29111W        W94272  23.993   9.391  12.011
29112W        W94273   4.885  22.487   3.916
29113W        W94274  39.023   3.754   2.333
29114W        W94275  22.020  31.119   1.895
29115W        W94276  19.029  29.586   4.593
29116W        W94277  35.475  40.296  10.592
29117W        W94278  36.401   5.117  12.987
29118W        W94279  16.325  13.095  13.697
29119W        W94280   8.754   3.288  11.006
29120W        W94281   3.445   2.927  11.695
29121W        W94282   4.267  28.055   2.007
29122W        W94283  30.434  40.721   3.253
29123W        W94284   3.000  33.580  14.315
29124W        W94285  37.854  36.555  11.097
29125W        W94286  32.537   3.638  11.983
29126W        W94287  43.801  16.238  10.186
29127W        W94288  13.736  33.529  11.937
29128W        W94289  16.205  31.235  11.063
29129W        W94290  36.002  41.246   4.506
29130W        W94291  25.145  24.541  11.432
29131W        W94292  43.548  10.616   3.703
29132W        W94293  24.129   2.874   0.695
29133W        W94294  30.430  11.284   0.981
29134W        W94295  19.185  11.146   0.913
29135W        W94296  33.554  16.462  11.610
29136W        W94297  44.853  18.523   2.810
29137W        W94298  23.949   0.346  11.824
29138W        W94299  34.813  44.288   4.546
29139W        W94300   0.990  12.171   0.925
29140W        W94301   5.692  36.136  13.879
29141W        W94302   2.574   3.936   1.281
29142W        W94303  41.965  18.646   4.329
29143W        W94304  12.182   7.360  12.018
29144W        W94305  18.163  19.456   0.813
29145W        W94306  18.349  28.581  11.118
29146W        W94307  24.115  31.483  12.653
29147W        W94308  14.123  40.919   5.455
29148W        W94309  35.899  44.357   1.684
29149W        W94310   0.297  39.255   2.725
29150W        W94311   7.367  30.102  10.669
29151W        W94312   7.782  10.084   1.210
29152W        W94313   2.844  37.901  10.731
29153W        W94314  28.060  40.803  11.959
29154W        W94315  28.021  12.796   1.763
29155W        W94316   2.040  36.494   1.329
29156W        W94317  23.028  13.109   1.276
29157W        W94318   8.057  12.514  14.757
29158W        W94319  14.712  18.205  14.859
29159W        W94320  16.315  41.822  14.908
29160W        W94321  25.116   2.008  12.240
29161W        W94322  13.017  11.877   2.750
29162W        W94323   3.237  21.005   1.819
29163W        W94324  26.762  32.114  14.007
29164W        W94325  14.035  39.656   4.992
29165W        W94326  44.493  10.071  10.118
29166W        W94327  32.450  16.269   4.216
29167W        W94328   2.603  17.531  11.358
29168W        W94329  37.955   5.241   3.141
29169W        W94330  35.464  16.375  11.623
29170W        W94331  23.157  20.681  11.091
29171W        W94332  29.640  17.768  10.780
29172W        W94333  22.168  30.033  11.641
29173W        W94334  29.208  35.061  11.088
29174W        W94335  32.707  37.261  12.383
29175W        W94336   1.770  35.924  14.593
29176W        W94337  17.506  42.491   2.740
29177W        W94338  21.456  29.090  12.402
29178W        W94339  36.485  33.171  11.955
29179W        W94340  44.416  13.817   3.660
29180W        W94341  11.382  39.398  12.951
29181W        W94342  42.810  10.242  12.551
29182W        W94343  38.579   2.064  12.275
29183W        W94344   8.234  30.318   2.631
29184W        W94345  26.840  15.589  13.377
29185W        W94346   7.811  44.210  12.423
29186W        W94347  16.833  26.414  11.923
29187W        W94348  31.592  28.735  13.797
29188W        W94349   8.148  30.620  12.078
29189W        W94350  28.080  37.134  11.675
29190W        W94351  41.412   3.859  12.013
29191W        W94352  17.263  34.797   3.295
29192W        W94353  34.598  21.235   1.247
29193W        W94354  21.788   6.156  13.431
29194W        W94355  33.462  40.898  12.417
29195W        W94356  18.244  32.956   3.134
29196W        W94357  16.215   2.272  14.289
29197W        W94358  19.024  34.473   1.278
29198W        W94359   7.775  14.560   4.047
29199W        W94360   5.417   2.379  14.943
29200W        W94361   5.754  27.954   3.184
29201W        W94362   8.447   3.295  12.162
29202W        W94363  10.575  18.837  12.877
29203W        W94364  38.338  16.264   1.752
29204W        W94365  40.617  44.720  11.002
29205W        W94366  11.374  24.741   1.906
29206W        W94367  14.899  43.900   5.419
29207W        W94368  39.270  10.288  13.003
29208W        W94369  10.925  25.913  11.126
29209W        W94370  36.508  16.102   4.750
29210W        W94371   0.238   8.288  14.111
29211W        W94372  27.461  18.360   3.847
29212W        W94373   7.055  25.631   2.736
29213W        W94374   5.909  27.675   3.605
29214W        W94375   8.740  24.115   4.694
29215W        W94376   9.565  29.452   2.992
29216W        W94377  12.856  43.774  14.455
29217W        W94378  11.851  44.980   1.447
29218W        W94379  29.122  14.024   3.325
29219W        W94380  27.018   8.536   0.264
29220W        W94381  12.375  27.400  10.382
29221W        W94382  30.743  33.989   4.812
29222W        W94383   8.641  43.416  13.574
29223W        W94384  19.971  37.039   2.258
29224W        W94385  10.285  32.638   0.030
29225W        W94386  26.671  35.764   4.137
29226W        W94387  16.180  26.138  14.332
29227W        W94388  37.922  14.863  14.732
29228W        W94389  37.783   6.270  14.897
29229W        W94390   7.174  23.380  13.507
29230W        W94391  43.677  13.643   0.204
29231W        W94392  29.578  16.330  14.533
29232W        W94393  30.354  15.089   3.278
29233W        W94394   0.934  33.886  14.388
29234W        W94395  17.594  19.077   4.086
29235W        W94396  10.716  21.255  11.158
29236W        W94397  44.737  34.846   4.046
29237W        W94398  29.251  35.693   5.064
29238W        W94399   1.768  19.282   4.525
29239W        W94400   4.423   9.214   2.788
29240W        W94401  29.430  30.447  11.779
29241W        W94402   1.254   7.775   3.356
29242W        W94403  38.120  15.336  12.571
29243W        W94404  34.148  12.620  12.635
29244W        W94405  37.110  34.491  13.575
29245W        W94406   0.557  31.834  14.983
29246W        W94407   8.589  13.314  11.527
29247W        W94408  32.508  27.860   9.897
29248W        W94409  32.064  26.093  14.487
29249W        W94410  11.216  38.796   3.739
29250W        W94411  24.197  37.150   0.669
29251W        W94412  31.151  30.604   2.165
29252W        W94413  30.031  44.755  12.005
29253W        W94414  12.558  16.661  13.033
29254W        W94415  35.599  44.892  12.465
29255W        W94416  10.695   3.257  11.555
29256W        W94417   4.240  41.382  13.383
29257W        W94418  23.066   0.505  12.126
29258W        W94419  10.612  13.575   2.116
29259W        W94420  31.705  32.709   1.686
29260W        W94421   4.957  30.166   0.050
29261W        W94422  37.095  43.169  10.359
29262W        W94423  11.416  18.576   4.603
29263W        W94424  40.228  23.459  12.555
29264W        W94425  32.647  39.017   1.894
29265W        W94426  21.732  31.402   0.408
29266W        W94427  31.176   6.151   2.237
29267W        W94428  17.642  21.046   3.680
29268W        W94429  40.004   0.923  10.577
29269W        W94430  41.472  37.360  12.834
29270W        W94431   1.565  43.731   1.311
29271W        W94432  36.755  19.801  14.832
29272W        W94433  26.552  32.256   0.881
29273W        W94434  29.911  32.297  13.624
29274W        W94435  27.427  40.531  12.490
29275W        W94436  44.169  10.180   2.661
29276W        W94437  34.052  27.709  14.769
29277W        W94438  40.947  12.266  14.774
29278W        W94439  36.800  20.600   3.733
29279W        W94440  14.194   6.867   0.186
29280W        W94441  32.517  23.809   0.330
29281W        W94442  18.050  32.344  14.826
29282W        W94443   9.158  14.843  14.464
29283W        W94444  18.791  21.275  10.858
29284W        W94445  38.792  32.933  13.719
29285W        W94446  32.594  38.164   2.493
29286W        W94447  15.563  16.113  12.579
29287W        W94448   1.312  34.247  14.368
29288W        W94449   8.097   2.409  13.257
29289W        W94450  40.355  28.890  12.215
29290W        W94451  35.077  40.016  14.456
29291W        W94452  42.932  34.972  11.824
29292W        W94453  34.541  12.688   4.332
29293W        W94454   0.012  13.228   2.332
29294W        W94455  10.135  44.419   0.761
29295W        W94456  12.206  19.186   0.030
29296W        W94457  31.125  16.526   2.696
29297W        W94458  33.877   8.286  14.027
29298W        W94459   9.035  37.196  12.479
29299W        W94460  44.565   4.840   2.910
29300W        W94461   2.492  37.275   4.174
29301W        W94462  20.282  39.192   2.020
29302W        W94463   2.936  18.739   1.403
29303W        W94464  44.367  17.069  12.698
29304W        W94465  42.549   9.316  11.980
29305W        W94466  23.194   8.190   0.899
29306W        W94467   8.386  16.843   3.388
29307W        W94468  19.481  34.419  12.441
29308W        W94469  40.479  35.173  13.437
29309W        W94470  12.076  11.856   1.740
29310W        W94471  44.418  41.274  11.011
29311W        W94472  24.540  33.627   4.709
29312W        W94473  44.342  36.007   4.488
29313W        W94474  25.245   1.507  13.991
29314W        W94475   3.186  42.185   3.981
29315W        W94476  31.455  41.189   0.002
29316W        W94477   3.971  44.458   4.151
29317W        W94478  41.172  24.692   2.916
29318W        W94479  32.560  37.803  11.114
29319W        W94480   3.727  20.775   0.850
29320W        W94481   1.991   1.017   1.871
29321W        W94482  23.470  16.780   0.942
29322W        W94483   7.395  30.937   3.902
29323W        W94484  34.587  26.925   3.774
29324W        W94485  36.605   5.728   4.054
29325W        W94486  25.616  43.954   4.439
29326W        W94487   4.788  30.654   0.093
29327W        W94488  17.066  28.423  14.717
29328W        W94489   9.864  41.566  14.041
29329W        W94490  33.347  42.577  13.544
29330W        W94491  25.761  20.759   4.511
29331W        W94492   9.788  38.537   4.095
29332W        W94493  33.385  23.957   3.730
29333W        W94494  41.999  18.107   4.184
29334W        W94495   5.414  23.641   0.724
29335W        W94496  24.905  23.014   0.266
29336W        W94497   6.605  10.391  10.466
29337W        W94498   2.527  28.176  11.546
29338W        W94499  37.836  12.736  11.109
29339W        W94500  20.738  30.727   4.176
29340W        W94501  34.585  24.570   1.314
29341W        W94502  37.652  38.346  12.834
29342W        W94503  23.276  13.806   4.144
29343W        W94504  33.972  43.824  14.953
29344W        W94505  32.441  29.730   4.237
29345W        W94506   7.725  23.437  13.443
29346W        W94507  11.631  25.673   2.383
29347W        W94508  20.194  27.262   2.110
29348W        W94509  26.728  44.905  10.238
29349W        W94510  34.002  44.068   1.066
29350W        W94511  36.777  40.351  10.100
29351W        W94512  38.550  11.193  11.415
29352W        W94513  21.170  23.746   0.957
29353W        W94514  31.322  32.488   0.415
29354W        W94515  23.541  31.925   1.994
29355W        W94516   2.453  16.958   2.276
29356W        W94517  39.352  43.976  13.813
29357W        W94518  44.274  10.618   0.610
29358W        W94519  12.002  36.052  13.186
29359W        W94520  22.086   3.760   0.335
29360W        W94521  35.945  20.777  10.758
29361W        W94522   5.640  19.275   2.718
29362W        W94523  28.552  20.451  12.593
29363W        W94524  18.641   7.607   2.315
29364W        W94525  17.077  44.831   5.363
29365W        W94526  12.573  18.585   3.633
29366W        W94527   4.679  38.445  13.587
29367W        W94528  42.242  41.607   3.116
29368W        W94529  11.969  35.714  11.059
29369W        W94530  27.654  26.070   1.366
29370W        W94531  40.869  30.910   1.272
29371W        W94532  11.434   3.026   3.901
29372W        W94533  34.628  42.368  14.177
29373W        W94534  31.755  36.982   0.338
29374W        W94535   5.961  41.830  14.389
29375W        W94536  16.470   5.400   0.957
29376W        W94537  44.360  13.029  12.861
29377W        W94538  26.076  17.679  14.444
29378W        W94539  37.624  33.830   0.906
29379W        W94540  31.073  15.113  12.015
29380W        W94541  36.877  33.871  12.224
29381W        W94542  11.261   0.639  11.567
29382W        W94543  25.462  32.110  14.012
29383W        W94544  12.611  13.312  11.689
29384W        W94545  18.275   2.123   2.871
29385W        W94546  12.169  28.241  14.954
29386W        W94547  16.249  10.255  12.371
29387W        W94548  27.701   6.356  11.011
29388W        W94549   4.246  21.124  14.607
29389W        W94550  30.195  25.581   2.985
29390W        W94551  17.288  24.283   0.302
29391W        W94552  38.735   1.998  12.759
29392W        W94553  28.512  29.567  11.185
29393W        W94554   1.745  32.525  12.201
29394W        W94555  31.123   2.696   3.256
29395W        W94556  13.354   1.248  10.745
29396W        W94557  14.341   9.812   1.798
29397W        W94558  37.295  25.542   0.203
29398W        W94559   0.774  30.367  13.841
29399W        W94560   0.742  38.998   1.888
29400W        W94561   2.699  29.560   3.246
29401W        W94562  30.433  22.325  10.223
29402W        W94563  17.627  16.257   2.825
29403W        W94564  26.188  22.062  13.539
29404W        W94565  37.638  31.999   5.044
29405W        W94566  34.311  35.434   2.606
29406W        W94567  41.522  42.790   1.372
29407W        W94568  34.913   1.759  14.411
29408W        W94569  18.490  25.753  12.900
29409W        W94570   5.661   9.327   4.575
29410W        W94571  40.000  33.874   1.525
29411W        W94572  26.524  19.772   4.009
29412W        W94573  19.326  34.830   5.161
29413W        W94574  39.867  16.173  11.634
29414W        W94575  44.037  36.333   2.437
29415W        W94576  10.482  18.778   4.089
29416W        W94577  17.831  27.234  14.631
29417W        W94578  16.763   2.580  12.935
29418W        W94579  26.451  41.396  10.311
29419W        W94580   0.679  35.364   3.141
29420W        W94581  10.113   7.786  12.528
29421W        W94582  35.839  13.177  14.781
29422W        W94583  29.873  43.287  14.104
29423W        W94584  37.930   5.900  12.904
29424W        W94585   0.715  44.210  14.504
29425W        W94586  39.418  35.858   3.806
29426W        W94587  15.055   4.171   4.661
29427W        W94588   0.417  26.581   4.618
29428W        W94589  28.034  24.009   1.623
29429W        W94590  11.892  40.292   1.431
29430W        W94591   3.492  24.320   3.008
29431W        W94592  15.845  43.357  12.152
29432W        W94593  12.102  29.604   4.626
29433W        W94594  41.597   7.819   4.923
29434W        W94595  19.557  19.262  12.447
29435W        W94596  38.580  32.089   4.416
29436W        W94597  20.095  15.360  14.919
29437W        W94598  14.030  12.204  10.975
29438W        W94599  21.065  17.146  10.277
29439W        W94600  43.844  19.374  12.061
29440W        W94601  22.706   8.749   4.833
29441W        W94602  43.561  15.736   4.036
29442W        W94603  33.850  34.571  11.035
29443W        W94604  10.170  39.454  13.443
29444W        W94605  31.431  22.193  11.455
29445W        W94606  33.549   5.863  11.429
29446W        W94607  21.026  24.547   2.576
29447W        W94608  32.468  13.143   4.128
29448W        W94609  12.646   6.657  12.907
29449W        W94610   8.378  15.165   0.457
29450W        W94611  29.868  14.205  10.932
29451W        W94612  39.853  18.166   3.266
29452W        W94613  24.119  44.447  13.539
29453W        W94614  22.614  38.126  14.016
29454W        W94615  14.376  12.614  14.856
29455W        W94616  24.681   8.688  12.920
29456W        W94617  10.634  18.633   2.132
29457W        W94618  15.713  10.274  11.153
29458W        W94619  14.118  34.473  14.431
29459W        W94620   1.977  27.591  11.262
29460W        W94621  12.567   4.517   4.544
29461W        W94622  42.405  16.228  14.462
29462W        W94623  33.895  33.318  11.426
29463W        W94624  28.937  15.169  11.836
29464W        W94625  43.477  14.424   1.942
29465W        W94626  43.391  17.218  10.706
29466W        W94627   2.290  33.956   4.373
29467W        W94628  10.683  15.786  10.179
29468W        W94629  18.017   7.700  12.619
29469W        W94630   5.347  19.276  12.910
29470W        W94631  29.860  13.268   4.928
29471W        W94632  27.988   6.380  11.465
29472W        W94633  26.919  14.336  10.036
29473W        W94634   1.815  13.436   4.519
29474W        W94635  38.576  43.384   2.370
29475W        W94636   2.402  38.174   1.807
29476W        W94637  12.159  44.813   0.673
29477W        W94638  43.590   7.347   3.458
29478W        W94639  14.230  28.877   4.220
29479W        W94640  26.703  30.219  14.860
29480W        W94641  16.459  14.292   1.744
29481W        W94642  24.083   6.903   3.802
29482W        W94643  30.841  20.564   2.195
29483W        W94644  34.994   7.206   2.178
29484W        W94645  30.186   4.565   2.865
29485W        W94646   2.912  24.162   4.140
29486W        W94647  38.998  32.025  11.182
29487W        W94648  14.656   4.483  11.902
29488W        W94649  42.536  23.051  12.122
29489W        W94650  25.871  16.540   1.421
29490W        W94651  37.154  18.758   3.265
29491W        W94652  22.431  22.632   1.997
29492W        W94653  23.916  16.983  12.931
29493W        W94654  43.761  38.025   3.113
29494W        W94655   5.764  11.757  12.058
29495W        W94656  40.594  36.351  11.192
29496W        W94657  40.951  36.082  10.187
29497W        W94658   0.787  14.413   2.180
29498W        W94659  28.095  20.284   3.179
29499W        W94660  30.466  11.719   2.395
29500W        W94661  37.031  22.643  13.819
29501W        W94662   7.797   1.203  13.047
29502W        W94663   0.064  14.113   4.642
29503W        W94664  10.222  33.581   3.812
29504W        W94665   6.417  40.421   3.932
29505W        W94666  28.977   7.861   3.258
29506W        W94667   8.021  36.692  14.391
29507W        W94668  32.063   2.184  11.498
29508W        W94669  36.681   6.416  12.927
29509W        W94670  23.672  33.103  11.579
29510W        W94671  28.459   5.300   3.624
29511W        W94672  39.360   8.365  12.669
29512W        W94673  14.277  23.109  12.609
29513W        W94674  41.815  19.049  12.577
29514W        W94675  43.533  39.875  12.906
29515W        W94676  37.076   2.326   4.918
29516W        W94677   4.792  30.685   0.639
29517W        W94678   8.272  38.436   3.090
29518W        W94679  26.298  42.286   4.083
29519W        W94680  34.983  22.819   0.940
29520W        W94681  33.169  10.210   0.162
29521W        W94682  15.198  43.235  12.052
29522W        W94683   1.392  23.470  14.522
29523W        W94684   3.238  44.201  14.046
29524W        W94685  35.000  34.361   5.420
29525W        W94686  35.632  10.730  12.913
29526W        W94687  24.694  16.451   3.217
29527W        W94688  36.980  13.684   0.859
29528W        W94689  17.228  42.939  12.693
29529W        W94690  31.692  13.760   1.901
29530W        W94691  31.623   7.853   3.189
29531W        W94692  29.592   0.468   3.097
29532W        W94693   3.962   6.964  13.398
29533W        W94694  40.233   6.835  11.990
29534W        W94695   0.313  26.178  10.369
29535W        W94696  32.417  35.881   3.835
29536W        W94697  24.677   1.244   2.196
29537W        W94698  44.607  10.793  12.855
29538W        W94699  21.970   3.251   4.574
29539W        W94700  36.291   1.677   9.992
29540W        W94701  15.257  17.128   3.546
29541W        W94702  18.779  21.924   4.128
29542W        W94703  42.572  41.058   2.770
29543W        W94704  34.910  12.404   2.985
29544W        W94705  36.407  40.092   1.700
29545W        W94706  37.309  10.378  10.667
29546W        W94707  26.068  25.948   4.710
29547W        W94708  37.403  21.604  14.016
29548W        W94709   4.307  41.302   3.648
29549W        W94710  11.223  18.791   3.475
29550W        W94711  33.025  37.060   2.701
29551W        W94712  18.804  21.258  13.901
29552W        W94713   4.349  24.813  10.245
29553W        W94714  26.016  37.965  14.963
29554W        W94715   2.214  32.857  13.391
29555W        W94716   7.681  37.982   3.657
29556W        W94717  43.702  38.380  11.461
29557W        W94718   1.730  36.658   5.314
29558W        W94719  39.397   6.665   0.847
29559W        W94720  12.499  22.760  12.404
29560W        W94721  44.725  14.765   4.074
29561W        W94722  24.524  13.707  14.049
29562W        W94723  21.375  21.366  13.848
29563W        W94724  17.208  29.412  11.758
29564W        W94725  17.254  32.404  11.461
29565W        W94726  10.169  44.987  11.463
29566W        W94727   0.955   2.569   0.915
29567W        W94728  23.711  13.587   2.003
29568W        W94729   3.243  16.630   4.075
29569W        W94730  39.732   2.000   2.822
29570W        W94731  35.247   5.232   0.988
29571W        W94732  31.270  34.479   0.482
29572W        W94733  13.346  20.175  11.781
29573W        W94734  32.934  43.811   3.318
29574W        W94735  31.870   9.330  12.946
29575W        W94736  17.805  17.706   3.572
29576W        W94737  39.226   1.093   3.685
29577W        W94738  43.470  34.115   0.908
29578W        W94739  36.101   3.300   1.674
29579W        W94740   3.925  25.002  12.834
29580W        W94741  11.751  21.575   2.283
29581W        W94742   0.994  14.833   1.346
29582W        W94743  33.947   9.521  12.428
29583W        W94744  11.182  40.304   4.608
29584W        W94745  15.858  24.452   1.345
29585W        W94746  21.062  24.959   0.974
29586W        W94747  40.545  14.881   1.993
29587W        W94748  15.541  42.568  12.981
29588W        W94749  38.551  35.517   3.228
29589W        W94750   1.144  43.335   0.441
29590W        W94751  40.542   6.916  11.589
29591W        W94752   8.816  16.215  12.365
29592W        W94753  26.023  18.905   0.357
29593W        W94754  37.392  42.034   3.228
29594W        W94755   5.207  42.310   3.666
29595W        W94756   0.260  15.689   2.147
29596W        W94757  21.411  42.770  13.276
29597W        W94758   3.463  17.004  10.639
29598W        W94759  39.030  40.460   2.684
29599W        W94760  39.768  14.754   0.529
29600W        W94761  29.372  27.589  11.149
29601W        W94762  14.490  39.727   5.233
29602W        W94763  43.887   3.305  13.394
29603W        W94764   7.340   7.742  10.257
29604W        W94765   3.590   1.893   0.806
29605W        W94766   4.537  31.401  13.555
29606W        W94767  33.783  19.586   4.065
29607W        W94768  39.592  10.126   1.566
29608W        W94769  36.266  42.318  14.837
29609W        W94770  22.038  10.093   1.897
29610W        W94771  12.836  42.323  14.341
29611W        W94772   8.401  42.421   2.447
29612W        W94773  25.472  26.931  14.996
29613W        W94774  11.068  33.117  11.053
29614W        W94775  15.433  33.532  11.118
29615W        W94776  14.788  15.687  12.423
29616W        W94777  38.639  19.590  11.596
29617W        W94778  12.813  28.505  11.139
29618W        W94779  17.213  34.809   0.504
29619W        W94780  42.906  13.419  12.948
29620W        W94781  34.166  11.827  13.440
29621W        W94782  38.812  44.872   2.309
29622W        W94783  26.823   3.498  14.656
29623W        W94784   1.197  28.495   2.466
29624W        W94785   5.815   7.037   1.971
29625W        W94786   1.973  41.989  10.727
29626W        W94787  14.936  33.341   2.858
29627W        W94788  20.705  22.139   5.002
29628W        W94789  39.333  28.518  14.333
29629W        W94790   9.596  31.427  12.668
29630W        W94791  36.821  38.441   5.099
29631W        W94792  30.514  16.639  11.581
29632W        W94793  40.848  30.982   2.719
29633W        W94794  26.493  32.350  11.629
29634W        W94795   4.839  33.121  14.282
29635W        W94796  44.924  20.800   2.305
29636W        W94797   6.100  29.132   3.565
29637W        W94798  19.158  35.050   0.382
29638W        W94799  19.205  24.285   0.901
29639W        W94800  29.830  32.799  13.395
29640W        W94801   2.452  12.532  14.361
29641W        W94802  42.514   6.067   3.678
29642W        W94803  41.055   9.347   2.321
29643W        W94804  32.562  21.347   0.343
29644W        W94805  23.258  22.167  11.540
29645W        W94806  31.309  32.082  10.719
29646W        W94807   9.838  11.465   2.267
29647W        W94808  41.450  38.793  13.139
29648W        W94809  31.588  22.029  10.980
29649W        W94810  15.020   4.768   0.499
29650W        W94811  17.313   0.662   1.883
29651W        W94812   3.299  36.262   3.288
29652W        W94813  36.839   4.819  12.471
29653W        W94814  15.783  22.657   4.123
29654W        W94815  31.589  21.932  12.945
29655W        W94816  33.601  37.173   4.574
29656W        W94817  42.730   9.659   2.239
29657W        W94818  18.241  42.383  13.306
29658W        W94819  44.281  39.637  12.591
29659W        W94820  37.895  41.268   4.908
29660W        W94821  40.361  40.364  10.470
29661W        W94822  27.370  39.175  14.097
29662W        W94823  41.097  28.593   0.677
29663W        W94824  33.444  22.205   2.485
29664W        W94825   9.071   9.903  14.252
29665W        W94826  17.493  14.233   0.870
29666W        W94827   6.611  19.972  12.602
29667W        W94828  14.902  33.962  11.457
29668W        W94829   6.600  31.377   1.964
29669W        W94830  44.421  30.108  11.055
29670W        W94831   4.940  25.827   1.778
29671W        W94832  18.135  26.455   3.189
29672W        W94833  40.497  15.657  11.662
29673W        W94834   1.962  37.534   2.246
29674W        W94835   7.002   7.704  12.078
29675W        W94836   5.195  15.110   3.661
29676W        W94837  32.556   9.797   3.019
29677W        W94838  14.373  40.422  12.498
29678W        W94839   1.061  29.960  13.100
29679W        W94840  32.940  17.034   2.696
29680W        W94841  35.505  35.457   2.198
29681W        W94842  21.478  16.654   3.582
29682W        W94843  20.001  35.921  13.036
29683W        W94844  17.550  23.539  13.827
29684W        W94845  11.626  15.008  12.485
29685W        W94846   0.402  22.240  13.934
29686W        W94847  15.646  22.131   4.150
29687W        W94848  26.685  41.743  14.588
29688W        W94849  37.058   5.980  10.846
29689W        W94850  41.836   5.907  14.693
29690W        W94851  44.503  16.280   3.362
29691W        W94852  18.188  26.860   4.175
29692W        W94853  28.572  21.766   1.074
29693W        W94854  27.894  27.538   4.797
29694W        W94855  34.947  11.575  11.996
29695W        W94856  44.614   4.855  13.031
29696W        W94857   6.664  44.731  13.032
29697W        W94858  41.214  41.454  11.493
29698W        W94859  11.824  24.525   1.809
29699W        W94860   8.692  28.495  10.747
29700W        W94861  34.495  43.469  12.488
29701W        W94862   5.638   4.221   1.540
29702W        W94863  39.890   7.706  12.825
29703W        W94864  39.341  33.061  12.503
29704W        W94865  18.253  24.620   1.735
29705W        W94866  40.261  31.576  12.425
29706W        W94867  37.167  42.147   1.280
29707W        W94868  27.919  15.281   2.830
29708W        W94869  24.025  42.769  12.932
29709W        W94870  21.513  21.087   4.634
29710W        W94871  40.502  27.033  14.017
29711W        W94872  40.099   8.869   1.786
29712W        W94873  20.654  13.164   2.792
29713W        W94874  35.395  29.057  12.819
29714W        W94875  32.263   3.241  11.056
29715W        W94876  29.204   3.171  12.113
29716W        W94877   8.436  43.725   0.791
29717W        W94878  32.442  31.481  13.998
29718W        W94879   6.096   4.756   0.527
29719W        W94880   2.552   2.323   2.178
29720W        W94881  36.841   3.859   3.108
29721W        W94882  23.036   4.374  12.848
29722W        W94883  21.178  18.251  11.228
29723W        W94884   6.351  32.433  14.013
29724W        W94885  39.866   4.436   1.240
29725W        W94886  13.794  14.940   2.191
29726W        W94887  22.346  24.962   1.691
29727W        W94888  20.780  22.109   2.712
29728W        W94889  32.088   9.771   3.334
29729W        W94890   9.480  35.948   0.283
29730W        W94891  33.202  38.365   1.265
29731W        W94892  16.209  18.561   1.441
29732W        W94893  34.563   4.342   1.997
29733W        W94894   4.771  10.903   3.006
29734W        W94895  19.516   6.968  13.506
29735W        W94896   3.839  28.697   3.844
29736W        W94897  32.471  34.016   1.673
29737W        W94898   1.522   1.775  14.709
29738W        W94899   6.674   9.572   3.618
29739W        W94900  21.287   9.486  11.824
29740W        W94901  41.877   1.307   0.024
29741W        W94902  15.101  39.145   5.584
29742W        W94903  39.079   7.291  13.360
29743W        W94904  16.302  21.220   3.618
29744W        W94905  10.355   2.371   4.422
29745W        W94906  38.625  19.630   2.695
29746W        W94907   7.265  18.971   1.382
29747W        W94908   9.238   2.315  14.013
29748W        W94909  30.430   9.329   4.919
29749W        W94910   8.591  13.167   3.585
29750W        W94911  30.428  14.810   1.885
29751W        W94912  11.206  19.399  12.518
29752W        W94913  19.097  41.744  14.330
29753W        W94914   6.445  22.127   4.295
29754W        W94915  13.713  37.935   3.180
29755W        W94916  44.788   2.165   1.869
29756W        W94917  30.601  39.046  12.128
29757W        W94918  37.526   1.838  13.361
29758W        W94919  43.440  40.367   2.325
29759W        W94920  39.226  38.957   2.268
29760W        W94921  44.661  20.031   1.877
29761W        W94922  12.832  15.834  13.366
29762W        W94923  32.869  17.135   0.379
29763W        W94924   6.837   1.724  12.948
29764W        W94925   4.305  44.500   2.686
29765W        W94926  33.093   2.627   0.889
29766W        W94927  18.734  18.550   1.328
29767W        W94928  20.073  20.503   1.066
29768W        W94929  20.075  42.098  10.105
29769W        W94930  32.236  34.086  14.316
29770W        W94931  24.486   1.877  14.515
29771W        W94932   7.189  35.458  10.678
29772W        W94933  38.361   4.232  11.221
29773W        W94934  27.546  31.650  11.113
29774W        W94935  34.640  28.576   4.552
29775W        W94936   9.756  33.909   1.928
29776W        W94937   4.912  31.480  11.596
29777W        W94938  17.237  14.603   2.780
29778W        W94939  34.041  41.798  14.343
29779W        W94940   2.800   1.991  13.394
29780W        W94941   2.023  11.652  12.444
29781W        W94942  17.599  34.532   1.602
29782W        W94943  39.834  14.307  13.274
29783W        W94944  26.016  34.094  14.746
29784W        W94945   8.348  22.433   2.507
29785W        W94946  25.733  31.893  13.350
29786W        W94947  30.908   2.155  12.920
29787W        W94948  36.409   8.023  14.474
29788W        W94949  30.395   9.178  14.992
29789W        W94950   0.749  19.365  14.319
29790W        W94951  40.766  36.468  10.522
29791W        W94952   2.226  41.737   0.226
29792W        W94953  38.564   6.631   1.251
29793W        W94954  10.264  44.966  14.882
29794W        W94955  24.101  13.727   0.243
29795W        W94956  39.985   0.946  14.844
29796W        W94957  30.975  41.783   3.274
29797W        W94958  19.644  29.518  13.320
29798W        W94959   3.067  35.297   9.846
29799W        W94960  34.441  34.264   3.195
29800W        W94961   7.186  32.993  14.110
29801W        W94962  30.620  31.179  13.457
29802W        W94963  31.286  20.574   3.319
29803W        W94964  19.613  23.571   0.995
29804W        W94965   1.218  15.814  12.140
29805W        W94966  18.576   4.385  14.600
29806W        W94967  38.882  11.720  12.707
29807W        W94968  10.950  12.356  12.533
29808W        W94969   7.699  34.879  12.694
29809W        W94970  20.259  35.436   2.634
29810W        W94971  40.572   4.324   2.322
29811W        W94972   1.200   7.179  14.961
29812W        W94973  42.255  17.757  14.847
29813W        W94974  18.219  22.993  12.867
29814W        W94975  19.953  20.712   1.969
29815W        W94976  30.866  11.218  12.403
29816W        W94977   2.512   9.314  14.715
29817W        W94978  16.473  43.588   3.290
29818W        W94979   4.206   6.465   3.238
29819W        W94980  28.629   6.038   0.712
29820W        W94981  18.224  33.018   3.648
29821W        W94982   7.406   2.899   2.761
29822W        W94983  29.484   3.494  10.421
29823W        W94984   4.781   3.767   2.589
29824W        W94985  14.614  14.366  12.110
29825W        W94986   3.430  32.112   2.328
29826W        W94987   4.387  41.011  13.054
29827W        W94988  18.581  18.652  13.826
29828W        W94989  28.171  30.370   4.099
29829W        W94990  20.902  39.047   3.651
29830W        W94991  26.208  25.678  10.691
29831W        W94992  40.451  40.270   2.622
29832W        W94993  24.006  34.985   5.086
29833W        W94994  39.581  22.821   0.042
29834W        W94995   2.866  38.279  11.156
29835W        W94996  44.896   3.981   2.629
29836W        W94997  19.558  16.507   2.711
29837W        W94998   1.388  34.100  11.598
29838W        W94999  31.304  11.767  11.683
29839W        W95000  19.309  18.650   3.482
29840W        W95001  42.079  16.997  13.459
29841W        W95002  43.761  19.349   0.305
29842W        W95003  41.420  33.524   3.897
29843W        W95004   7.493  23.935   2.287
29844W        W95005  36.062  36.994  14.316
29845W        W95006   3.471   0.915  11.133
29846W        W95007   7.830  40.733  14.251
29847W        W95008  22.166  33.137   1.734
29848W        W95009   2.707  40.810   3.530
29849W        W95010   5.593  33.366  13.250
29850W        W95011  11.284  13.322  12.425
29851W        W95012   3.019  12.305  11.980
29852W        W95013  10.321  41.884  11.719
29853W        W95014   2.216  19.648  10.172
29854W        W95015  30.870  44.098  14.784
29855W        W95016   5.845  17.797   3.088
29856W        W95017   1.424  24.503   3.530
29857W        W95018  17.716  16.692   1.514
29858W        W95019  41.611  31.782  12.981
29859W        W95020  30.970  29.704   1.788
29860W        W95021   7.719  20.679   0.717
29861W        W95022  10.218   1.734   9.934
29862W        W95023  18.249  27.133  14.935
29863W        W95024  41.979  16.704   1.902
29864W        W95025  11.874   8.593  14.457
29865W        W95026  34.449  15.090   1.792
29866W        W95027  31.099  40.385  11.583
29867W        W95028  30.581  26.098  14.259
29868W        W95029  43.410  16.538  12.074
29869W        W95030   6.806  19.660   2.263
29870W        W95031   0.009  32.324  13.715
29871W        W95032   1.768  20.047   1.298
29872W        W95033  37.489  41.057  11.006
29873W        W95034  43.544  21.542   0.806
29874W        W95035  28.701  16.682  14.864
29875W        W95036  42.237  20.442  11.928
29876W        W95037  40.272   2.418  13.898
29877W        W95038  21.174  26.861   1.327
29878W        W95039  30.245   1.779  14.149
29879W        W95040  15.374   6.364   2.103
29880W        W95041  15.758  44.473   3.563
29881W        W95042  25.659   7.843  12.589
29882W        W95043  27.897  15.723   1.492
29883W        W95044  17.682  21.285  13.120
29884W        W95045  16.148  14.301  10.551
29885W        W95046   5.417   4.989  13.449
29886W        W95047  38.392  24.444  12.126
29887W        W95048  19.690  19.005  12.973
29888W        W95049   5.224  12.768   4.758
29889W        W95050   4.353  29.882  12.864
29890W        W95051  26.717  28.238  12.666
29891W        W95052  40.939  38.640   4.652
29892W        W95053  22.798  29.728  11.137
29893W        W95054   5.396   8.361  11.473
29894W        W95055  20.206  15.210   2.180
29895W        W95056  37.960  40.548  12.561
29896W        W95057  10.694   2.745  11.542
29897W        W95058  17.915   2.617  14.527
29898W        W95059  15.816  16.135   3.302
29899W        W95060  30.659  30.564  14.835
29900W        W95061  44.324   7.028   4.576
29901W        W95062   6.970  21.313   1.306
29902W        W95063  13.199  26.178   4.927
29903W        W95064  20.969  22.638  12.101
29904W        W95065  38.021   5.043   0.629
29905W        W95066   0.851  37.931  14.086
29906W        W95067  21.067  12.112   1.642
29907W        W95068  32.481  18.328  12.856
29908W        W95069  25.611  30.868   3.097
29909W        W95070  23.048   3.236   2.202
29910W        W95071  43.921   2.368  11.584
29911W        W95072  32.593  13.024   3.649
29912W        W95073  44.175  21.038   3.850
29913W        W95074  40.585   4.230  13.204
29914W        W95075   5.648   2.496   3.263
29915W        W95076   0.527  23.124  12.076
29916W        W95077  31.147  36.323   3.472
29917W        W95078  26.703   0.948   4.114
29918W        W95079  37.284  43.393   4.700
29919W        W95080  31.466  10.693   0.525
29920W        W95081  40.239  44.793   4.070
29921W        W95082   4.908  17.331  11.645
29922W        W95083  32.515  12.211  12.068
29923W        W95084  27.994  13.010  14.943
29924W        W95085   2.147  44.355  14.244
29925W        W95086  12.238  30.202   2.676
29926W        W95087   0.266   1.922  11.216
29927W        W95088  33.574  18.060  10.727
29928W        W95089  10.365  20.747  11.181
29929W        W95090   5.351   5.884   3.772
29930W        W95091  16.766  24.574  11.860
29931W        W95092   6.379  34.372  12.057
29932W        W95093  17.692  36.943  14.467
29933W        W95094  18.519  30.190  11.632
29934W        W95095  15.791  23.580  13.467
29935W        W95096   0.920  40.662  10.682
29936W        W95097  29.386  34.434  14.500
29937W        W95098  34.994   1.825   1.990
29938W        W95099   5.031  33.304   1.226
29939W        W95100  27.049  26.990  10.502
29940W        W95101  25.834  33.568   1.866
29941W        W95102  39.997  40.492   2.696
29942W        W95103  15.801  27.021  14.688
29943W        W95104   2.593   9.828  10.788
29944W        W95105  27.586  37.981   0.494
29945W        W95106  28.980  27.152  12.083
29946W        W95107  21.602   5.035   0.394
29947W        W95108  31.838  31.902   1.877
29948W        W95109  44.984  14.216  13.630
29949W        W95110  28.260   5.136  10.184
29950W        W95111  23.773  42.862  13.874
29951W        W95112   8.800   8.563  12.893
29952W        W95113  13.994  22.561   3.782
29953W        W95114  28.197  19.138  12.438
29954W        W95115  44.829  34.861   2.306
29955W        W95116   8.899  17.150   1.791
29956W        W95117  11.330  38.538  12.036
29957W        W95118  19.848  27.686   2.124
29958W        W95119   5.667  21.087  11.600
29959W        W95120  26.679  27.523  14.545
29960W        W95121  29.657  43.346   3.813
29961W        W95122  27.467  25.108  12.078
29962W        W95123  34.832   0.202   2.950
29963W        W95124  28.976   2.712  12.079
29964W        W95125  18.043  36.939  11.695
29965W        W95126  15.806  35.196  11.678
29966W        W95127  24.923  24.626   0.014
29967W        W95128  24.500   7.002   0.312
29968W        W95129   3.465  35.457  11.515
29969W        W95130  16.333   2.856   2.358
29970W        W95131  44.467  40.497   2.266
29971W        W95132  33.839   6.386  12.587
29972W        W95133  43.873  29.469   0.086
29973W        W95134  43.252   2.144  13.241
29974W        W95135  30.537  30.958   1.104
29975W        W95136  40.730  44.294  14.466
29976W        W95137   8.167  26.141  13.783
29977W        W95138   4.928  33.042  10.224
29978W        W95139  37.194   9.656  12.483
29979W        W95140  12.192  25.894   2.285
29980W        W95141  16.400  21.667  14.393
29981W        W95142  14.434  16.139  10.747
29982W        W95143   7.447  14.633   2.765
29983W        W95144  28.674  10.579   5.755
29984W        W95145  39.304  37.798  13.497
29985W        W95146   3.277  16.811   2.709
29986W        W95147  21.601   6.333  11.022
29987W        W95148  43.918  35.135   3.779
29988W        W95149  38.777  39.715   5.005
29989W        W95150  35.644  44.469  12.090
29990W        W95151  13.864  37.342  13.568
29991W        W95152  19.090  10.884  14.350
29992W        W95153  41.131  32.189  13.916
29993W        W95154  23.990   6.355  11.117
29994W        W95155  19.093  12.790  12.235
29995W        W95156  40.006  41.489   4.633
29996W        W95157  17.598  19.529   3.810
29997W        W95158  15.601  15.568  14.278
29998W        W95159   2.943   6.683   0.886
29999W        W95160  32.580  24.525  12.041
30000W        W95161  41.509  43.253  12.853
30001W        W95162   7.669  26.236   2.188
30002W        W95163  18.075   1.795  14.913
30003W        W95164  27.861  21.349  10.413
30004W        W95165  38.471  37.969  10.421
30005W        W95166  10.998  33.470  10.671
30006W        W95167  22.247  15.097   3.728
30007W        W95168  26.596   3.850  10.550
30008W        W95169  25.794  43.851   3.192
30009W        W95170  14.442  21.145   1.491
30010W        W95171  25.062  35.122  14.271
30011W        W95172  12.816  39.224  12.014
30012W        W95173  33.999  16.156  11.509
30013W        W95174  14.300  31.837  14.652
30014W        W95175   7.341  27.428  13.287
30015W        W95176  21.948  40.477  10.658
30016W        W95177   9.853  26.513  14.848
30017W        W95178  16.150  11.359   2.243
30018W        W95179  26.095   6.392   3.049
30019W        W95180  42.778  10.383   0.426
30020W        W95181  34.358  27.928   1.230
30021W        W95182  31.204  25.906   4.476
30022W        W95183  27.063  26.198  14.733
30023W        W95184  36.978   0.698   3.703
30024W        W95185   9.046  17.857  14.939
30025W        W95186  25.307  10.085  10.299
30026W        W95187   8.166  42.392   1.075
30027W        W95188  44.420   1.154  14.248
30028W        W95189  16.989  16.111  13.940
30029W        W95190  41.819   6.984   0.697
30030W        W95191  27.968  31.602   3.646
30031W        W95192  34.683  12.554  13.505
30032W        W95193  11.446  40.826   1.773
30033W        W95194  26.907  32.597   1.121
30034W        W95195  27.924  16.007   0.049
30035W        W95196  24.804   1.270  13.940
30036W        W95197  21.087   8.053   2.087
30037W        W95198  20.599  14.555   3.889
30038W        W95199  22.344  21.307   4.553
30039W        W95200  23.043  40.232  10.770
30040W        W95201  30.674  32.635   3.790
30041W        W95202   5.859  14.570   3.258
30042W        W95203  43.422  24.395   2.230
30043W        W95204  10.769  36.985  11.358
30044W        W95205  35.054  14.265   0.856
30045W        W95206  13.682  40.268  12.019
30046W        W95207  41.081  19.507  14.263
30047W        W95208  26.674  38.257  14.115
30048W        W95209   7.404  29.571   2.792
30049W        W95210  36.121  37.917   3.198
30050W        W95211  34.181  31.792   0.598
30051W        W95212   3.267  38.542   1.399
30052W        W95213   6.473  12.502  12.049
30053W        W95214  10.937  21.224  14.102
30054W        W95215  13.808   1.039  10.822
30055W        W95216  21.144  37.899   2.263
30056W        W95217   3.349  38.443  10.241
30057W        W95218  36.604  29.994  12.008
30058W        W95219  17.861  44.353  12.895
30059W        W95220  31.753  26.441   2.489
30060W        W95221  24.536  39.015   3.034
30061W        W95222  25.087  43.314   2.944
30062W        W95223   0.371  29.526   4.002
30063W        W95224  42.928  19.259  14.071
30064W        W95225  35.889  24.580   0.779
30065W        W95226  17.344   4.669  13.974
30066W        W95227   0.113  43.061   4.057
30067W        W95228  16.887  23.120  14.079
30068W        W95229  21.271  34.051   3.464
30069W        W95230   1.980  23.541  11.147
30070W        W95231  40.062  12.725  13.348
30071W        W95232   8.586  19.616   1.792
30072W        W95233  33.960   5.285   2.387
30073W        W95234  36.250  20.153  11.570
30074W        W95235  29.498  24.707   0.264
30075W        W95236  15.328  41.609   3.712
30076W        W95237   7.836  26.489   3.503
30077W        W95238  10.416   8.264   1.373
30078W        W95239  13.316  22.008  14.334
30079W        W95240  34.604  36.423   2.868
30080W        W95241  20.370  44.350   4.745
30081W        W95242  36.710   0.213   4.041
30082W        W95243   7.488  36.260   2.815
30083W        W95244   1.749  35.683  10.985
30084W        W95245  25.769  38.988   0.527
30085W        W95246  12.638   5.412  12.550
30086W        W95247  11.923  18.601   0.650
30087W        W95248   6.577  37.039  11.448
30088W        W95249  21.621   2.327  13.761
30089W        W95250  10.258  19.130  11.398
30090W        W95251  44.822  32.067   4.840
30091W        W95252  19.635  17.970   0.692
30092W        W95253  36.513  23.754   0.833
30093W        W95254  38.170   3.465   2.791
30094W        W95255   6.438  14.869  11.536
30095W        W95256   9.833  32.410   0.261
30096W        W95257   4.198  23.471   1.393
30097W        W95258  14.097   0.427   0.249
30098W        W95259  43.825  36.918   2.107
30099W        W95260   0.856   6.186   3.669
30100W        W95261  39.473  32.819  12.935
30101W        W95262  22.211  36.472   0.897
30102W        W95263   4.373   9.264   1.194
30103W        W95264   8.288  20.589  14.501
30104W        W95265  22.548  18.668   3.186
30105W        W95266   0.276  21.765  10.448
30106W        W95267  27.575  39.089   0.476
30107W        W95268   2.370  36.956  10.520
30108W        W95269  24.871  41.840  11.426
30109W        W95270  28.970  16.844  12.523
30110W        W95271  36.799  38.340  14.674
30111W        W95272  39.410  41.286   1.862
30112W        W95273  27.024  39.969   4.156
30113W        W95274  33.506  34.019  14.521
30114W        W95275  34.460  42.120  13.167
30115W        W95276   1.054  28.214  14.467
30116W        W95277  14.460  32.623  11.701
30117W        W95278  17.377  44.167   9.747
30118W        W95279  25.019  14.100  11.649
30119W        W95280  13.294   9.766   1.737
30120W        W95281  26.534  36.597   0.527
30121W        W95282  36.060   4.190   1.411
30122W        W95283  28.756  34.461   0.437
30123W        W95284  31.321  34.141  14.580
30124W        W95285  22.986  17.623   4.495
30125W        W95286  31.340   4.361  14.008
30126W        W95287  26.730  17.032  11.540
30127W        W95288  21.348  35.438  11.203
30128W        W95289  13.777  38.706  13.627
30129W        W95290  39.516  24.183   4.870
30130W        W95291  16.620   5.162  13.882
30131W        W95292  19.548  27.719   3.924
30132W        W95293  27.492  41.080  13.381
30133W        W95294  15.717  28.649   3.121
30134W        W95295  19.302  31.968  11.691
30135W        W95296  44.326   0.096  11.248
30136W        W95297  30.183  21.172  10.757
30137W        W95298  16.022  27.509  14.371
30138W        W95299  15.711  16.839  11.150
30139W        W95300  28.986  43.875   1.754
30140W        W95301  38.416  20.185   0.573
30141W        W95302  44.375  44.723   4.226
30142W        W95303  10.300  32.543  10.695
30143W        W95304  21.244  12.187   2.636
30144W        W95305  20.067   2.340  14.466
30145W        W95306   6.674  16.845  11.887
30146W        W95307  14.513  40.412   9.759
30147W        W95308  28.825  26.532   2.075
30148W        W95309  30.942   2.739  12.845
30149W        W95310  21.629  37.277   2.660
30150W        W95311  30.879  29.499   3.185
30151W        W95312  13.929   6.376   5.013
30152W        W95313  23.684  44.226   3.625
30153W        W95314  19.784  14.656   0.776
30154W        W95315   8.133  26.037   2.258
30155W        W95316   5.846  22.544   2.106
30156W        W95317  26.707  19.699  11.801
30157W        W95318  19.282  26.548  12.539
30158W        W95319  15.184  33.354  10.707
30159W        W95320  34.627  16.971  14.108
30160W        W95321  15.990  43.845   2.760
30161W        W95322  34.360   4.073  14.684
30162W        W95323  39.972  35.556   2.268
30163W        W95324  28.187  26.197   2.751
30164W        W95325   9.786   1.233  12.136
30165W        W95326  34.176   8.934   3.232
30166W        W95327   2.901  42.197   0.103
30167W        W95328  21.722  29.138   3.205
30168W        W95329  27.443   6.487  14.822
30169W        W95330  19.146  24.130   1.407
30170W        W95331  38.304  35.086  11.471
30171W        W95332   1.817  26.225  14.942
30172W        W95333  23.608  39.999   3.174
30173W        W95334  22.558  19.352   2.060
30174W        W95335  33.723   6.412  14.102
30175W        W95336  32.642  42.794   2.283
30176W        W95337   1.448  30.948   0.481
30177W        W95338   3.946  38.322  13.799
30178W        W95339   8.213  20.283  14.946
30179W        W95340   0.293  30.983  11.630
30180W        W95341  12.363  21.755   0.871
30181W        W95342  33.585  15.733  11.128
30182W        W95343   1.489  30.630  14.273
30183W        W95344   3.392  26.442   0.901
30184W        W95345  13.902   9.137   2.809
30185W        W95346  27.429   2.887  14.874
30186W        W95347   0.377  31.088  13.347
30187W        W95348  21.963   2.959   2.689
30188W        W95349  19.104  19.857  11.134
30189W        W95350  31.975   6.778  12.352
30190W        W95351   9.960  25.757  11.938
30191W        W95352  32.915  28.925  12.040
30192W        W95353  44.968  14.135   3.687
30193W        W95354  19.486  34.054   2.891
30194W        W95355  22.297  16.290   3.482
30195W        W95356  15.519  10.113  13.096
30196W        W95357  24.662  24.758  13.076
30197W        W95358  17.585  26.639  14.007
30198W        W95359  20.087  28.734  14.744
30199W        W95360  29.126  34.240   4.103
30200W        W95361  33.451  33.800   1.809
30201W        W95362   6.874  32.430   3.212
30202W        W95363   4.663  23.024   0.255
30203W        W95364  38.442  31.607   1.228
30204W        W95365  39.787  24.608  13.938
30205W        W95366  39.510  18.730   3.670
30206W        W95367  14.657  35.895   3.113
30207W        W95368  14.749   4.359   0.320
30208W        W95369  37.348  28.495  10.687
30209W        W95370  14.255  40.928   0.992
30210W        W95371  38.860  41.174  10.977
30211W        W95372  28.985  43.226  11.914
30212W        W95373  22.740  31.175   0.719
30213W        W95374  37.354  14.989   2.128
30214W        W95375  31.586  43.977   4.489
30215W        W95376  43.356  27.569  10.974
30216W        W95377  25.463  25.293   4.956
30217W        W95378  38.087  33.167  14.385
30218W        W95379  27.113  10.326   1.566
30219W        W95380  41.487  41.932   0.347
30220W        W95381  14.809   4.990   3.634
30221W        W95382  31.981  43.830   2.545
30222W        W95383  11.267  34.835   2.797
30223W        W95384  20.573  29.374   1.979
30224W        W95385  40.801   9.917   3.838
30225W        W95386  27.100  10.328   4.078
30226W        W95387  21.275  19.615   1.315
30227W        W95388   7.712  34.528   2.205
30228W        W95389  32.554  32.066   2.552
30229W        W95390  22.671  16.652   2.710
30230W        W95391  16.699   5.803   0.227
30231W        W95392  35.112  24.471  11.061
30232W        W95393   7.472  12.222  12.493
30233W        W95394  18.110  11.960  13.598
30234W        W95395  29.936  27.836   5.682
30235W        W95396  20.235  31.161  12.348
30236W        W95397  16.850  26.663   0.364
30237W        W95398  20.798  20.066  12.929
30238W        W95399  37.472  36.841  13.947
30239W        W95400  21.771  30.906   2.537
30240W        W95401  21.761  23.650  11.802
30241W        W95402  41.800  33.039  13.133
30242W        W95403  41.617  40.396  12.107
30243W        W95404  25.033  31.043   1.838
30244W        W95405  13.524  27.461  14.757
30245W        W95406  17.210  41.426   4.992
30246W        W95407  31.105  34.530   1.827
30247W        W95408  10.434  25.669  11.729
30248W        W95409  12.646  12.891  11.983
30249W        W95410  41.863  31.059  12.108
30250W        W95411   6.258  13.727   3.587
30251W        W95412  16.259  15.182  11.414
30252W        W95413  24.563   0.015   2.753
30253W        W95414  18.203  12.596  10.732
30254W        W95415  13.596  12.073   3.309
30255W        W95416   8.824  14.665   2.400
30256W        W95417  12.910   2.425  14.992
30257W        W95418  10.316  18.518   3.676
30258W        W95419  10.831  27.526   4.635
30259W        W95420  43.889   9.296  11.111
30260W        W95421  13.495  39.937  12.415
30261W        W95422  18.472   3.301  13.446
30262W        W95423  21.801  13.661   0.825
30263W        W95424  13.462  14.177   1.549
30264W        W95425  12.159  15.140  10.409
30265W        W95426  33.493  32.546  12.343
30266W        W95427  22.045  11.596  11.893
30267W        W95428  12.135  24.224  10.521
30268W        W95429   6.765   8.709  14.007
30269W        W95430   8.906  32.748  11.529
30270W        W95431  36.932  19.515   3.822
30271W        W95432  31.685  12.180   1.917
30272W        W95433  11.773  13.937  13.368
30273W        W95434  27.196  15.213   0.266
30274W        W95435  21.031  19.197   0.186
30275W        W95436  35.000   7.534   1.780
30276W        W95437   0.210  34.510   3.126
30277W        W95438  20.625  39.308  13.953
30278W        W95439  35.615  22.105  13.002
30279W        W95440  37.831  41.943   2.347
30280W        W95441   9.544  10.333   1.865
30281W        W95442  14.569  13.644   0.853
30282W        W95443   5.240  11.654  14.678
30283W        W95444   5.574  42.461  14.878
30284W        W95445  18.438  23.371  10.728
30285W        W95446  12.147   2.923  11.661
30286W        W95447  44.096  24.944  13.492
30287W        W95448  28.487   5.973  13.281
30288W        W95449  20.816  39.604  14.967
30289W        W95450  38.353  37.036  10.698
30290W        W95451  36.902  33.573   2.441
30291W        W95452  38.067  15.392  11.553
30292W        W95453   5.416  37.384   2.599
30293W        W95454  35.987  28.289   0.386
30294W        W95455  34.267  39.368   1.094
30295W        W95456   3.816  44.957  13.055
30296W        W95457  20.131  18.684   5.567
30297W        W95458  31.465   4.580  11.235
30298W        W95459  40.764  38.968  12.502
30299W        W95460  27.781  43.216   5.022
30300W        W95461  22.379  21.573  13.576
30301W        W95462   7.381  28.532  13.567
30302W        W95463   3.119   6.703   1.476
30303W        W95464  17.018  20.045  14.210
30304W        W95465  26.124  19.298  12.625
30305W        W95466  44.023  26.052  14.055
30306W        W95467  23.863   7.345   0.877
30307W        W95468  15.711   1.193  12.842
30308W        W95469  12.534  28.174   1.254
30309W        W95470  29.393  42.348   4.340
30310W        W95471   6.159  43.003   2.862
30311W        W95472  21.465   2.386   0.194
30312W        W95473   8.919  16.241   4.795
30313W        W95474  20.253  42.350   0.783
30314W        W95475  25.923  30.995   4.275
30315W        W95476   0.040  19.588  13.878
30316W        W95477  23.140   6.631  11.799
30317W        W95478  32.472   0.897   2.933
30318W        W95479  38.096  32.035   2.138
30319W        W95480   3.973  30.893  10.703
30320W        W95481   6.680  34.471  14.455
30321W        W95482  30.683  24.533   0.247
30322W        W95483   2.303  37.692   1.685
30323W        W95484  24.198  16.126  12.642
30324W        W95485   6.520  41.723   4.963
30325W        W95486   3.869  19.775  12.937
30326W        W95487  36.438  35.948  13.797
30327W        W95488  30.687  23.627  13.591
30328W        W95489  29.939  40.417   4.570
30329W        W95490  41.829   2.021   2.774
30330W        W95491  39.933  29.508   4.825
30331W        W95492  10.835  25.164  14.793
30332W        W95493  35.399  10.368  14.534
30333W        W95494   2.415   7.134  13.890
30334W        W95495   2.419  35.385  13.491
30335W        W95496  19.577  31.006  14.862
30336W        W95497  42.582  33.842   3.700
30337W        W95498  40.242  10.068   0.313
30338W        W95499   9.632   6.647   3.240
30339W        W95500  42.204  37.844   3.102
30340W        W95501   5.747  28.129   4.221
30341W        W95502  18.749  39.916   2.776
30342W        W95503  35.874  12.909  11.995
30343W        W95504  44.780  31.033  13.901
30344W        W95505  20.471  14.771   2.202
30345W        W95506  11.880  22.959   2.211
30346W        W95507  35.656  26.207  14.309
30347W        W95508  21.135  37.340   4.779
30348W        W95509  37.182  15.095   1.214
30349W        W95510  39.151  29.760  13.860
30350W        W95511  22.459  34.400  13.348
30351W        W95512  42.093  40.839   2.822
30352W        W95513  37.347  21.528   1.753
30353W        W95514  22.464  27.247  12.945
30354W        W95515  38.498  41.532  12.432
30355W        W95516   5.186  38.285  12.587
30356W        W95517  20.969   2.932   1.758
30357W        W95518  38.077  13.163  14.069
30358W        W95519  36.313  31.543   2.899
30359W        W95520  14.704   8.038   4.022
30360W        W95521  14.671  12.189   4.141
30361W        W95522  19.258  20.597   2.365
30362W        W95523  26.740  33.876  10.410
30363W        W95524  13.841  10.887   3.581
30364W        W95525  13.850  15.917  13.401
30365W        W95526  13.118  10.328  14.235
30366W        W95527  37.360   3.687   3.036
30367W        W95528  35.136  40.280  13.566
30368W        W95529  31.485  31.689  14.492
30369W        W95530  44.281   6.832  11.689
30370W        W95531  40.579  12.611   0.987
30371W        W95532  14.807  40.962   2.308
30372W        W95533  11.290  32.062  10.400
30373W        W95534  20.517  32.881   0.028
30374W        W95535  31.145  20.511  14.041
30375W        W95536  30.449  42.813   2.752
30376W        W95537  34.580  11.655  10.807
30377W        W95538  28.867   5.281  11.457
30378W        W95539  18.933  35.452   3.099
30379W        W95540  28.250  23.191   3.116
30380W        W95541  33.833  20.727   0.358
30381W        W95542  36.579  38.668  11.962
30382W        W95543  13.956  18.694  14.834
30383W        W95544   5.110   5.693  14.346
30384W        W95545  30.445   1.357   3.201
30385W        W95546  31.416  15.059  12.561
30386W        W95547  33.663  29.916   0.296
30387W        W95548  37.961  17.351   3.209
30388W        W95549  16.339  11.236  12.615
30389W        W95550  22.487  28.109  13.536
30390W        W95551  20.913  34.541  14.343
30391W        W95552  41.180  29.662   0.441
30392W        W95553  34.060  13.629  14.012
30393W        W95554  20.579  34.209   4.386
30394W        W95555  13.602  26.695   3.665
30395W        W95556   6.367  37.891  11.108
30396W        W95557  17.301  32.034   3.179
30397W        W95558  19.041   8.375  12.071
30398W        W95559  24.277  12.728   3.551
30399W        W95560  10.111  32.446   1.812
30400W        W95561  14.401  10.637   0.758
30401W        W95562  12.677  18.115   2.327
30402W        W95563   6.173  10.005  10.661
30403W        W95564  22.989   2.313  11.688
30404W        W95565  15.965  10.421   3.191
30405W        W95566  36.993   1.952   0.756
30406W        W95567  12.690   7.948  12.402
30407W        W95568  21.897  27.666   4.706
30408W        W95569  23.639  34.792  12.017
30409W        W95570   4.817  27.586   4.636
30410W        W95571  42.509  24.236   4.626
30411W        W95572  22.121  25.005   2.628
30412W        W95573  42.845  26.502  11.639
30413W        W95574  39.805  28.875  12.119
30414W        W95575  42.955   2.245   0.460
30415W        W95576  32.814   2.239  13.856
30416W        W95577  20.133  25.032   0.442
30417W        W95578  27.271   2.323  14.343
30418W        W95579  21.439  23.640  14.275
30419W        W95580   3.216  42.447  12.373
30420W        W95581   4.515  20.974  10.763
30421W        W95582  44.372  17.182   2.745
30422W        W95583   7.196  35.431   4.163
30423W        W95584  42.365   2.846   0.910
30424W        W95585  24.541   4.462   3.488
30425W        W95586  19.923  40.426  13.101
30426W        W95587  40.601  39.054   2.734
30427W        W95588  38.114   7.982  12.766
30428W        W95589  15.875   0.013   0.961
30429W        W95590  15.675   3.715   1.724
30430W        W95591  27.937   5.224  10.588
30431W        W95592  37.280  27.521   0.405
30432W        W95593  29.024  11.126   1.998
30433W        W95594  18.217   1.640   2.158
30434W        W95595  27.597  43.033  12.887
30435W        W95596  12.986  39.890   3.236
30436W        W95597   7.321  39.391   0.497
30437W        W95598  32.438  44.976   3.303
30438W        W95599  40.989  38.233   2.797
30439W        W95600  22.225   7.268  11.452
30440W        W95601  34.267  28.961   2.860
30441W        W95602  14.003   2.061  10.760
30442W        W95603  20.205  18.228  14.433
30443W        W95604   0.290  10.834  13.625
30444W        W95605   8.115  19.489   1.678
30445W        W95606  20.764  37.770  13.939
30446W        W95607  42.336  10.085  10.870
30447W        W95608   1.105  25.041  12.942
30448W        W95609  27.721  40.356   2.185
30449W        W95610  17.044  10.791   9.980
30450W        W95611  44.458  42.773   1.986
30451W        W95612  41.033  35.884   5.145
30452W        W95613   1.229  11.449  13.553
30453W        W95614  10.572   9.691   3.297
30454W        W95615  43.577  41.312   0.883
30455W        W95616  15.666  30.852  14.248
30456W        W95617  35.015  41.641  13.479
30457W        W95618  44.141   0.174   0.966
30458W        W95619  38.905  38.031   1.760
30459W        W95620   5.643  29.433  14.004
30460W        W95621  19.587  38.972  14.856
30461W        W95622  38.851  23.147  14.979
30462W        W95623  21.121  11.830   0.410
30463W        W95624  30.004  14.486  13.500
30464W        W95625  29.530   4.291  13.427
30465W        W95626  28.420  11.738   4.949
30466W        W95627  31.894  13.045   3.150
30467W        W95628  27.184   3.159  11.102
30468W        W95629  28.571  15.496   3.757
30469W        W95630  32.636  19.246  10.791
30470W        W95631   0.976   9.220  12.041
30471W        W95632  32.415   0.305   3.742
30472W        W95633  21.673   3.497  14.368
30473W        W95634  24.115  13.844  12.495
30474W        W95635  19.851  14.099  12.087
30475W        W95636  23.023  23.588  10.885
30476W        W95637   4.716  20.156  14.760
30477W        W95638  38.381  44.282   4.762
30478W        W95639   7.846  18.364  13.603
30479W        W95640  13.823  17.295   4.553
30480W        W95641  17.319  20.575   0.404
30481W        W95642   5.089  14.255   4.574
30482W        W95643  35.499  20.442   4.917
30483W        W95644  16.848  27.743  13.834
30484W        W95645  23.630  13.160  14.032
30485W        W95646  34.278  36.574  14.107
30486W        W95647  39.771   6.196   4.621
30487W        W95648  21.042  32.461  12.068
30488W        W95649   8.296  18.636   1.350
30489W        W95650  36.233  18.230   4.014
30490W        W95651  34.887  24.939  11.154
30491W        W95652  28.084  16.595   3.223
30492W        W95653  23.584  41.993  14.048
30493W        W95654  22.634  13.180   2.837
30494W        W95655  21.090  26.793   2.493
30495W        W95656  25.950   1.854   2.756
30496W        W95657  44.231   0.208   4.116
30497W        W95658  36.202   6.246  12.030
30498W        W95659  11.631   5.032  10.996
30499W        W95660  26.585  14.791  12.035
30500W        W95661  27.625   1.452  14.210
30501W        W95662   4.924   8.071  10.630
30502W        W95663  37.999  23.774   3.398
30503W        W95664  29.696   7.344   4.482
30504W        W95665  31.978  19.404   3.253
30505W        W95666  23.190   7.351   0.091
30506W        W95667  33.864   7.929   0.948
30507W        W95668  12.293  35.653  10.658
30508W        W95669  11.238  19.667  14.110
30509W        W95670  18.135   8.447   4.577
30510W        W95671   1.904   5.865  13.568
30511W        W95672  39.556  33.619  10.634
30512W        W95673  23.670  25.766  12.935
30513W        W95674  41.876  19.301   2.252
30514W        W95675  38.096  19.835  14.744
30515W        W95676   4.841   1.702  11.763
30516W        W95677  31.913   2.285  10.624
30517W        W95678  43.497  31.658  10.332
30518W        W95679  30.477  15.853   4.670
30519W        W95680   2.884   8.799  12.057
30520W        W95681  34.085  30.609   4.752
30521W        W95682  15.610   1.716   0.107
30522W        W95683  10.626   0.285   2.298
30523W        W95684  31.535   3.255   3.897
30524W        W95685  38.145  13.638   2.075
30525W        W95686   4.294   9.850  13.064
30526W        W95687  23.330  16.037   3.672
30527W        W95688  14.879  12.218  12.522
30528W        W95689  25.527  38.078  11.978
30529W        W95690  44.486   1.696  11.499
30530W        W95691   1.029  21.644   2.191
30531W        W95692  21.981  18.502   4.190
30532W        W95693   7.796  43.894   4.311
30533W        W95694   5.229  28.345  13.461
30534W        W95695  37.894   4.811   2.814
30535W        W95696  41.369  37.402   3.532
30536W        W95697  24.195  39.143   2.336
30537W        W95698   9.872  13.057  10.848
30538W        W95699  33.618   0.893  12.086
30539W        W95700  42.544  38.396   0.962
30540W        W95701   6.779  18.838  12.880
30541W        W95702  39.742  33.065   0.282
30542W        W95703  21.088  22.936   2.732
30543W        W95704  13.806  16.026  12.082
30544W        W95705  15.841  35.452  12.107
30545W        W95706  15.854  43.993   4.456
30546W        W95707  16.480   3.931  14.419
30547W        W95708  35.968  32.122   3.183
30548W        W95709  23.779  31.532  14.448
30549W        W95710  28.913  42.728  11.674
30550W        W95711   5.504  33.875   0.720
30551W        W95712  25.836  27.412   1.300
30552W        W95713  33.240  44.302  14.078
30553W        W95714  44.849   7.875   4.348
30554W        W95715  14.300  27.238  11.211
30555W        W95716  42.246  33.102  12.849
30556W        W95717   7.833   4.684   2.142
30557W        W95718   0.640  40.357   1.299
30558W        W95719  44.075   3.277  14.949
30559W        W95720   1.546  36.258   5.623
30560W        W95721  42.610   0.814  12.524
30561W        W95722  24.620  32.479  14.923
30562W        W95723  15.634  11.768  10.684
30563W        W95724  13.145   2.494   3.676
30564W        W95725  44.516   2.844   4.761
30565W        W95726  12.708   3.583  14.307
30566W        W95727  28.976   9.321  14.405
30567W        W95728  39.944  14.202   1.715
30568W        W95729   3.261   7.654   5.347
30569W        W95730   3.358  13.149   1.319
30570W        W95731  10.430  10.647   0.889
30571W        W95732  11.739  29.969   0.792
30572W        W95733  24.029  18.981  10.511
30573W        W95734  20.242  11.811   9.865
30574W        W95735   5.908  15.084   3.167
30575W        W95736  16.826  13.358  10.824
30576W        W95737  31.146   1.770   4.522
30577W        W95738   1.059   1.323   0.391
30578W        W95739   3.901  42.045  12.045
30579W        W95740  40.963  28.010   4.789
30580W        W95741  38.070   1.351   4.510
30581W        W95742  22.015  30.048  10.582
30582W        W95743  23.668  25.291   1.440
30583W        W95744  19.408  34.868   3.783
30584W        W95745  32.904  15.435   0.509
30585W        W95746  39.810   0.534   1.877
30586W        W95747  12.811  38.980   0.890
30587W        W95748  39.402  18.697  11.949
30588W        W95749  12.467   0.493   2.724
30589W        W95750  40.918   0.084  13.076
30590W        W95751  41.584   6.268  10.892
30591W        W95752  28.411   5.931   0.248
30592W        W95753  27.383   7.442  12.025
30593W        W95754  37.001   0.326   2.305
30594W        W95755   5.854  36.840   0.941
30595W        W95756  13.171  37.938  12.983
30596W        W95757  39.325  32.516  12.535
30597W        W95758   4.433  42.251  11.363
30598W        W95759  13.363  10.097  12.398
30599W        W95760  44.015  30.872  12.526
30600W        W95761  36.466  19.516   2.203
30601W        W95762  21.328  40.911   2.602
30602W        W95763  36.398  40.821   4.943
30603W        W95764   1.898  11.892  11.110
30604W        W95765  38.268  28.548   4.638
30605W        W95766  40.757  19.344  11.554
30606W        W95767  18.155  34.389   0.241
30607W        W95768  37.285  35.782  11.479
30608W        W95769   0.433   4.713   2.137
30609W        W95770  14.083  20.052   3.089
30610W        W95771  38.611  40.054   0.516
30611W        W95772   3.354  22.610  11.356
30612W        W95773  29.450   7.922   3.997
30613W        W95774  40.770   6.389   4.384
30614W        W95775  13.783  24.956   0.972
30615W        W95776  15.572   0.823  12.442
30616W        W95777  25.453  14.112   2.646
30617W        W95778   3.052  11.814  12.515
30618W        W95779  15.745  34.782   4.013
30619W        W95780  24.100   9.275   3.663
30620W        W95781  14.557  29.008   2.856
30621W        W95782  38.783  30.598  12.883
30622W        W95783  41.094  13.279  13.984
30623W        W95784  13.935  14.177   0.630
30624W        W95785  36.397   6.992   0.753
30625W        W95786  21.256   5.261  11.779
30626W        W95787  29.276  40.804  13.311
30627W        W95788  34.559  17.594   3.904
30628W        W95789  39.150  15.074  10.697
30629W        W95790  26.414  21.600   2.279
30630W        W95791  24.535  38.994   0.776
30631W        W95792   1.276   4.855  12.536
30632W        W95793  28.998  17.311  10.644
30633W        W95794  33.299  27.774  11.412
30634W        W95795   2.908  34.585  11.224
30635W        W95796   5.974  24.723   9.798
30636W        W95797  28.320   3.413  13.592
30637W        W95798  35.790  42.900  14.329
30638W        W95799  18.102  14.437  14.267
30639W        W95800  10.816  38.551  12.876
30640W        W95801  31.942   4.666   2.013
30641W        W95802   7.995  19.292  12.017
30642W        W95803  18.702  17.977  12.895
30643W        W95804   8.821  26.189  13.496
30644W        W95805  14.074  26.672   2.922
30645W        W95806   4.946  23.674  14.259
30646W        W95807  38.073   1.375  10.845
30647W        W95808  29.469  27.216  13.237
30648W        W95809  37.047  41.869   1.896
30649W        W95810  21.661  40.289   3.658
30650W        W95811   4.714   0.727   1.444
30651W        W95812  11.433   4.325  13.836
30652W        W95813  24.976  11.718   3.688
30653W        W95814  12.097  22.070   4.241
30654W        W95815  29.710  26.448   0.320
30655W        W95816   6.430   1.176   4.126
30656W        W95817  42.680   4.758   2.836
30657W        W95818  43.049  25.603   2.806
30658W        W95819  41.969  23.139  14.089
30659W        W95820  27.592  35.777   4.361
30660W        W95821  12.763  15.071  14.583
30661W        W95822  42.420  13.645  13.070
30662W        W95823   0.011  19.455   3.080
30663W        W95824   2.455  37.609   2.915
30664W        W95825  38.783   1.305   0.075
30665W        W95826   2.026  12.398  11.176
30666W        W95827   7.181   4.759   3.145
30667W        W95828  30.926  31.472   0.475
30668W        W95829  12.888  32.130  14.788
30669W        W95830  13.636  29.963  11.474
30670W        W95831   4.280   6.227  10.704
30671W        W95832  40.259   5.185   1.814
30672W        W95833   2.478  18.294   0.451
30673W        W95834   2.677  17.713  14.970
30674W        W95835   8.979  37.859  13.763
30675W        W95836  35.570  34.176  11.017
30676W        W95837  24.493  44.259   0.432
30677W        W95838  32.444  29.011   0.775
30678W        W95839  38.124  38.305  10.644
30679W        W95840  13.278  19.607   3.145
30680W        W95841  12.344   8.590  14.677
30681W        W95842   2.012  22.112  12.424
30682W        W95843  42.010  44.493  10.930
30683W        W95844  14.866   7.520  11.242
30684W        W95845  13.889  12.444   0.669
30685W        W95846   7.943   4.339   0.351
30686W        W95847  16.244  36.968  11.875
30687W        W95848   3.642  12.779  10.224
30688W        W95849  40.976  34.985  11.973
30689W        W95850  19.035  10.842   2.185
30690W        W95851  33.438  43.220   1.838
30691W        W95852  41.391  44.539  12.494
30692W        W95853  17.932  42.441   9.800
30693W        W95854  25.932  11.799   2.649
30694W        W95855  16.779  10.944   2.773
30695W        W95856   6.740  17.089  14.914
30696W        W95857  10.106  38.794   4.590
30697W        W95858  35.769  28.147   0.899
30698W        W95859  11.054   1.246  13.033
30699W        W95860  10.112  19.412  11.796
30700W        W95861  27.938  24.462   5.246
30701W        W95862  30.483  39.894   2.147
30702W        W95863   0.106  34.580  12.989
30703W        W95864   3.626  20.594  11.931
30704W        W95865  38.741  33.844  11.573
30705W        W95866  23.243  42.096  12.402
30706W        W95867  41.964   8.488   4.522
30707W        W95868  42.862  11.282  12.120
30708W        W95869  30.697  13.143  12.958
30709W        W95870  17.171   8.242  11.046
30710W        W95871  15.121  33.865  14.272
30711W        W95872   9.980  43.704   1.835
30712W        W95873  21.250   4.215  11.552
30713W        W95874  13.659  26.488   2.679
30714W        W95875  33.995   7.381  14.006
30715W        W95876  27.889  13.971  11.619
30716W        W95877  31.989  21.066   0.097
30717W        W95878  36.358  21.148   9.912
30718W        W95879  32.593  26.564  12.949
30719W        W95880  30.720   5.297  14.428
30720W        W95881  27.037   0.744   4.637
30721W        W95882  35.576  26.011  13.388
30722W        W95883   6.243  30.567  12.818
30723W        W95884  25.997   0.236   2.825
30724W        W95885   8.871  17.108  13.079
30725W        W95886  23.654   4.156  14.798
30726W        W95887   1.925  29.484  10.179
30727W        W95888  30.465   8.861   0.973
30728W        W95889  41.689  10.192  11.545
30729W        W95890  34.865   6.334   2.013
30730W        W95891   9.828  37.844   2.841
30731W        W95892  12.929  17.669   2.351
30732W        W95893  30.980  21.152  14.802
30733W        W95894  34.874  43.508   2.449
30734W        W95895  39.216  29.592   4.827
30735W        W95896  44.440  29.203  14.886
30736W        W95897   9.684  40.055   4.633
30737W        W95898   2.801   4.732   4.720
30738W        W95899   2.865  32.875   3.610
30739W        W95900  32.471  16.252   3.699
30740W        W95901  39.477   5.300   2.121
30741W        W95902   8.937  25.005   2.698
30742W        W95903  31.929  16.081  12.079
30743W        W95904  22.541  41.306  12.467
30744W        W95905   8.902  14.646   4.514
30745W        W95906  29.879  36.127   4.542
30746W        W95907  37.467  18.677  11.267
30747W        W95908  35.327   2.951   1.938
30748W        W95909  27.190  37.374  13.615
30749W        W95910  31.882  30.121  13.676
30750W        W95911  11.375  34.965   4.625
30751W        W95912  31.219   0.242   3.077
30752W        W95913  11.955  21.994  14.353
30753W        W95914   4.177  12.822   5.585
30754W        W95915   3.393  22.152  13.972
30755W        W95916  40.788  30.628  11.253
30756W        W95917  41.240  41.937  13.566
30757W        W95918   2.638  25.879   0.361
30758W        W95919   1.335  42.836   1.753
30759W        W95920  16.240  24.667   1.725
30760W        W95921  23.006  20.678   0.784
30761W        W95922  44.788   8.356  12.840
30762W        W95923  13.418   0.446   2.728
30763W        W95924   6.665  31.867   4.755
30764W        W95925  19.302  39.522   1.784
30765W        W95926  38.919   8.364   2.766
30766W        W95927  17.143  16.412   2.677
30767W        W95928  41.542   8.619  13.255
30768W        W95929  15.698  32.594  11.958
30769W        W95930   0.002   7.339  11.596
30770W        W95931  11.996   9.126  11.912
30771W        W95932  26.399  32.083   2.722
30772W        W95933  41.204  41.927   0.905
30773W        W95934  10.737   1.151  14.870
30774W        W95935   8.800   1.836   0.445
30775W        W95936  21.211  33.415   5.125
30776W        W95937  12.694   8.686  13.419
30777W        W95938  42.957  21.520  14.020
30778W        W95939  42.788  26.624   3.698
30779W        W95940   8.730  39.319  13.609
30780W        W95941  40.370  19.433  12.608
30781W        W95942  32.111  33.020  11.936
30782W        W95943  19.141   5.341  12.831
30783W        W95944   4.227  14.712  13.616
30784W        W95945  31.904  17.246  14.558
30785W        W95946  13.774  25.870  13.503
30786W        W95947   3.191   2.212  13.101
30787W        W95948   6.266   8.080   0.183
30788W        W95949  37.675  18.844  11.718
30789W        W95950  31.438  11.583   2.723
30790W        W95951  32.603  10.757  12.972
30791W        W95952   4.298  30.359   2.742
30792W        W95953  26.018  19.683   0.959
30793W        W95954  20.244  27.433   2.613
30794W        W95955  44.660  11.851   1.674
30795W        W95956  19.625   2.445  13.036
30796W        W95957  21.286  37.013   4.015
30797W        W95958  31.110  31.935  14.782
30798W        W95959   7.241  29.412  14.336
30799W        W95960  16.086  20.149  14.258
30800W        W95961  11.345  20.094   2.857
30801W        W95962  42.323  10.186   5.084
30802W        W95963  15.241  11.593   1.832
30803W        W95964  20.850  20.200  13.431
30804W        W95965  17.743   3.260   1.282
30805W        W95966  14.793  25.952   0.752
30806W        W95967  36.089  37.768   3.685
30807W        W95968   3.271   1.567   4.638
30808W        W95969  38.548  11.683   3.725
30809W        W95970  26.909  10.872  14.746
30810W        W95971  35.805  10.740   3.579
30811W        W95972  43.304  15.620   2.639
30812W        W95973  19.357  20.326  13.360
30813W        W95974  42.226  23.599  12.543
30814W        W95975  14.751  40.055   3.073
30815W        W95976   5.672  24.636   0.496
30816W        W95977  10.349  36.787  11.577
30817W        W95978  27.580  30.640   1.427
30818W        W95979  15.802  32.963  14.903
30819W        W95980  27.647  22.611   5.014
30820W        W95981  31.609  16.717   2.388
30821W        W95982  28.625  33.992  14.411
30822W        W95983  13.361  34.958   2.827
30823W        W95984   8.988   4.904   2.772
30824W        W95985  17.108   2.967  11.245
30825W        W95986  15.746  19.445  14.404
30826W        W95987  44.389  39.110  10.745
30827W        W95988   1.037  29.921   2.845
30828W        W95989  27.461  36.946  14.485
30829W        W95990  23.625  40.839   4.300
30830W        W95991  10.673   0.726  13.805
30831W        W95992  21.233  33.676  11.555
30832W        W95993  11.536  10.413  14.928
30833W        W95994   6.562   4.385   3.637
30834W        W95995   8.278  24.316   0.672
30835W        W95996   2.885  19.038  11.626
30836W        W95997  23.080  39.415  12.778
30837W        W95998  29.105  42.489  14.469
30838W        W95999  37.104  27.947   2.957
30839W        W96000  23.350   9.670   4.501
30840W        W96001  26.011  26.596   1.829
30841W        W96002  34.417   2.359   4.483
30842W        W96003  38.267  13.760   4.656
30843W        W96004  12.385  42.011   0.402
30844W        W96005  15.041   6.213  14.025
30845W        W96006  11.304  29.398  10.942
30846W        W96007  35.969  27.591  11.010
30847W        W96008  28.928   8.921   3.261
30848W        W96009   8.236   9.134  14.927
30849W        W96010  35.934  21.156  12.737
30850W        W96011   2.923  35.959   0.382
30851W        W96012   0.967  19.070   4.074
30852W        W96013  25.359  10.101   1.800
30853W        W96014  35.367  28.489   1.059
30854W        W96015   1.051   7.255   4.541
30855W        W96016   9.028  40.710  13.347
30856W        W96017  21.722  25.448   1.242
30857W        W96018   3.366   8.762  11.840
30858W        W96019   9.428  18.979  13.268
30859W        W96020  44.336  34.321  13.835
30860W        W96021  32.896  11.197  13.084
30861W        W96022  21.209  35.279   0.951
30862W        W96023  10.909  33.527  13.962
30863W        W96024   0.061  26.680   0.437
30864W        W96025   6.848  21.114   4.277
30865W        W96026  38.455  14.366   0.886
30866W        W96027  15.147  36.502  10.663
30867W        W96028   1.878   9.567  11.593
30868W        W96029  14.639   2.958   0.253
30869W        W96030  10.894  14.395  11.878
30870W        W96031  35.778  16.243   0.856
30871W        W96032  36.061  23.047   4.103
30872W        W96033   7.853  39.686   1.322
30873W        W96034  10.778  26.531  12.810
30874W        W96035  42.342  25.980  10.754
30875W        W96036  28.653  43.678  11.413
30876W        W96037  31.460   3.863  13.865
30877W        W96038   4.695  10.784   1.757
30878W        W96039  28.159  22.244   0.272
30879W        W96040  27.108  24.741   3.700
30880W        W96041  26.144   7.135  12.498
30881W        W96042  34.329  23.255   1.988
30882W        W96043  14.989   4.277   3.746
30883W        W96044  33.878  36.920  14.124
30884W        W96045   0.678  29.355   1.666
30885W        W96046   5.041  17.554  11.198
30886W        W96047   1.859  16.480   1.774
30887W        W96048  10.375  33.199   4.685
30888W        W96049  28.766  36.850   4.114
30889W        W96050  24.274  32.536   2.336
30890W        W96051  10.785  14.129  14.828
30891W        W96052  28.585  43.499   1.746
30892W        W96053  40.957  22.056   4.801
30893W        W96054   5.874  13.929   1.210
30894W        W96055  37.521  11.111  13.473
30895W        W96056   9.410  11.723   1.337
30896W        W96057   6.424  39.737  11.007
30897W        W96058  13.688   3.525  12.126
30898W        W96059  22.669  44.884   1.233
30899W        W96060  43.517  16.779  14.335
30900W        W96061  28.640  21.270  13.002
30901W        W96062  27.036  18.371   1.725
30902W        W96063   8.461  14.716   2.818
30903W        W96064  15.807  32.123   2.009
30904W        W96065  38.572  29.033   4.627
30905W        W96066  26.473  36.088  14.238
30906W        W96067   6.396  43.864   2.221
30907W        W96068  17.072   0.378   3.801
30908W        W96069  20.994  34.608  10.245
30909W        W96070  21.126  32.228   5.087
30910W        W96071  41.131   3.379   0.441
30911W        W96072  32.377  42.804  11.966
30912W        W96073   1.748  34.032  14.670
30913W        W96074   2.702  26.697  13.784
30914W        W96075  35.486  16.785  12.600
30915W        W96076  14.817  34.936  11.650
30916W        W96077  25.443  39.638   4.533
30917W        W96078  18.366  28.634  13.036
30918W        W96079  22.531  40.474   1.896
30919W        W96080   1.294  17.798  12.642
30920W        W96081  30.660  39.051   2.792
30921W        W96082  30.128   8.244   4.147
30922W        W96083  20.598  13.373   3.318
30923W        W96084  37.437   7.451   0.487
30924W        W96085  10.691  25.598  14.489
30925W        W96086  29.906  30.714  11.838
30926W        W96087  17.112  25.535   5.069
30927W        W96088  25.895  24.443  11.178
30928W        W96089  34.643  23.594  14.384
30929W        W96090  20.138   5.016   2.761
30930W        W96091  39.994  23.245  14.283
30931W        W96092  16.543  32.130  11.467
30932W        W96093   1.403  16.278  11.967
30933W        W96094  27.353   3.495  10.761
30934W        W96095  36.051  26.731  12.001
30935W        W96096  27.604  12.836  13.788
30936W        W96097  24.012  38.364  11.673
30937W        W96098   6.478  40.332   0.378
30938W        W96099   1.830  24.374  14.269
30939W        W96100  18.211  14.050  13.946
30940W        W96101  14.541  22.182   1.585
30941W        W96102  14.439  35.292  12.022
30942W        W96103   0.948  23.614  14.247
30943W        W96104   4.344   0.285  10.631
30944W        W96105  13.476   1.402   0.351
30945W        W96106  28.566  17.037   0.242
30946W        W96107   1.344   0.289  13.344
30947W        W96108  28.448  10.551   5.000
30948W        W96109  40.656  16.286  13.723
30949W        W96110  24.001  44.424   0.365
30950W        W96111  43.415  33.816  12.010
30951W        W96112  17.495   6.319   3.308
30952W        W96113  10.199  32.150   4.491
30953W        W96114  10.851  10.051  10.478
30954W        W96115  42.762   4.451   0.375
30955W        W96116  33.990  29.593   4.630
30956W        W96117  38.406   9.617   1.758
30957W        W96118  36.887  37.991  14.027
30958W        W96119  27.715   8.707  12.469
30959W        W96120  42.530  14.615  11.514
30960W        W96121  19.127  22.204   1.958
30961W        W96122  42.054  24.576   3.349
30962W        W96123  12.644   1.690   3.126
30963W        W96124  38.892  36.976   1.828
30964W        W96125   9.529  13.249   0.427
30965W        W96126  34.409  42.227   0.465
30966W        W96127  36.820  18.963  10.939
30967W        W96128  14.422  10.131   0.864
30968W        W96129  16.640   4.290  14.048
30969W        W96130   7.456  25.350   3.349
30970W        W96131   0.646  32.491  14.856
30971W        W96132  24.639  24.388   3.737
30972W        W96133  34.144  10.079  13.391
30973W        W96134  28.457  10.119  13.216
30974W        W96135  13.400  26.570   5.205
30975W        W96136  34.511  39.783  12.466
30976W        W96137  34.601   9.817  11.981
30977W        W96138  10.200   1.374   0.864
30978W        W96139  14.322  41.428   3.717
30979W        W96140  30.902  39.836  13.431
30980W        W96141  34.639   1.091  13.370
30981W        W96142  36.045  11.310   1.867
30982W        W96143  35.994  27.966   2.349
30983W        W96144  18.699  27.246   0.323
30984W        W96145  17.227  43.337   4.680
30985W        W96146  11.206  25.228  12.958
30986W        W96147  41.799  39.073  11.871
30987W        W96148  31.582  24.952   2.674
30988W        W96149   7.393  41.934   4.459
30989W        W96150  43.730  38.623   4.197
30990W        W96151   2.241  38.880  15.000
30991W        W96152   8.378  31.327  13.400
30992W        W96153  11.564   8.860  14.781
30993W        W96154   2.685  13.495   2.303
30994W        W96155  15.217  43.790  12.620
30995W        W96156  19.211  26.241   4.982
30996W        W96157  33.048  14.742   0.829
30997W        W96158  17.838   0.060   4.947
30998W        W96159   2.287  13.679  12.005
30999W        W96160  42.310  38.362   3.195
31000W        W96161  22.782   8.295  10.655
31001W        W96162  26.709  15.723   0.000
31002W        W96163  15.850  33.188   3.691
31003W        W96164  26.210   6.343  11.832
31004W        W96165  10.625   7.808  12.559
31005W        W96166  34.588   1.249  13.985
31006W        W96167   8.789   9.691   0.186
31007W        W96168  30.854   1.250  13.050
31008W        W96169   7.716  37.151   0.099
31009W        W96170  21.210  25.412   2.867
31010W        W96171  26.200  22.117   1.201
31011W        W96172  14.123   1.873  13.489
31012W        W96173  32.640  11.572  14.844
31013W        W96174   2.184  32.533  12.974
31014W        W96175   7.226  39.082  10.662
31015W        W96176  36.106  41.283   0.847
31016W        W96177  18.061  25.140   3.344
31017W        W96178  26.689  10.096   2.780
31018W        W96179  31.851  43.442  12.859
31019W        W96180  44.422  16.056  11.120
31020W        W96181  29.941  25.088  13.905
31021W        W96182  18.620  33.089  14.406
31022W        W96183   6.821  33.734   1.314
31023W        W96184   2.745  38.177   5.539
31024W        W96185   5.312   0.752  14.091
31025W        W96186  39.273   4.724   2.681
31026W        W96187   7.800   9.810  12.094
31027W        W96188  14.614  13.721   1.785
31028W        W96189  15.651  16.946  10.250
31029W        W96190  24.091   9.586   2.912
31030W        W96191  29.513  24.307  13.877
31031W        W96192  17.271  41.394  14.313
31032W        W96193   1.430   7.294   4.168
31033W        W96194  36.395  27.389   4.334
31034W        W96195  16.649  12.453   3.108
31035W        W96196  34.522  10.953   4.134
31036W        W96197  28.918   8.662   4.377
31037W        W96198  40.896  40.512   2.393
31038W        W96199  20.989  40.313  14.822
31039W        W96200  29.135  25.453   4.192
31040W        W96201   5.288   6.761  12.193
31041W        W96202  22.214  31.581   1.706
31042W        W96203  35.600  26.685   0.877
31043W        W96204  40.839  24.125   0.467
31044W        W96205   1.307  15.227  13.817
31045W        W96206  30.534  37.839  12.456
31046W        W96207  16.804  17.698   2.728
31047W        W96208  36.148  30.603   1.831
31048W        W96209   3.506  39.885   2.651
31049W        W96210  36.093  39.989  10.521
31050W        W96211   1.851  43.079  12.045
31051W        W96212  34.404   2.511  13.924
31052W        W96213  30.727  26.257   2.902
31053W        W96214  15.997   3.994  10.959
31054W        W96215   6.354   6.609   4.521
31055W        W96216  26.473  28.494  11.957
31056W        W96217  28.845  31.156  11.003
31057W        W96218  23.215  32.526   0.453
31058W        W96219  34.022   9.156  11.375
31059W        W96220  29.122  44.796   4.103
31060W        W96221  19.753  10.288  11.090
31061W        W96222   8.295  44.227   3.703
31062W        W96223  18.336  36.600   2.738
31063W        W96224  37.353   7.496  12.641
31064W        W96225  25.887   0.344  13.113
31065W        W96226  41.838  17.075  14.354
31066W        W96227  14.179  36.287   0.751
31067W        W96228  21.117  17.072   5.653
31068W        W96229  15.981   6.930  14.979
31069W        W96230  33.818  15.684  13.525
31070W        W96231   0.851  14.066   0.678
31071W        W96232  11.661  36.422  11.613
31072W        W96233   2.504   3.001  14.775
31073W        W96234  17.856  23.765  13.405
31074W        W96235   3.331  41.209   4.067
31075W        W96236  38.882   9.337   0.786
31076W        W96237   8.899  21.611   0.787
31077W        W96238   3.924  32.966   2.277
31078W        W96239   7.056  22.686  12.759
31079W        W96240  26.585  11.544  12.233
31080W        W96241   6.856  32.080  10.545
31081W        W96242  16.102  40.482   1.379
31082W        W96243  12.968  25.007   0.317
31083W        W96244  18.954  39.845   5.725
31084W        W96245   8.237   8.393   1.742
31085W        W96246  34.477   4.569  13.855
31086W        W96247  24.762  26.373  10.718
31087W        W96248  44.315  23.518   3.728
31088W        W96249  44.364  31.151   1.723
31089W        W96250  26.435   1.725   2.787
31090W        W96251  41.495  35.119   0.858
31091W        W96252  25.428  39.784  13.095
31092W        W96253  40.371  10.486  14.084
31093W        W96254  27.705  37.926  10.262
31094W        W96255  27.708  19.257   4.597
31095W        W96256  29.997  23.946  12.580
31096W        W96257  36.325  28.926   2.884
31097W        W96258  33.453  23.260   2.346
31098W        W96259  42.007  34.378   2.372
31099W        W96260  18.604   4.645  12.599
31100W        W96261   2.461  18.255   2.446
31101W        W96262  32.070  41.450  13.373
31102W        W96263  36.488  37.357  10.486
31103W        W96264  25.864  25.932  13.430
31104W        W96265  33.281  14.615   2.163
31105W        W96266  14.685  33.730   4.210
31106W        W96267  16.692  18.112   2.388
31107W        W96268   9.233  18.917   4.702
31108W        W96269  30.182  33.068   3.269
31109W        W96270   1.207  32.408   2.360
31110W        W96271   6.673  15.604   4.645
31111W        W96272  16.699  24.136   2.875
31112W        W96273  41.278  14.852  11.200
31113W        W96274   5.439  41.247   1.483
31114W        W96275  23.345  11.213   9.704
31115W        W96276  44.936  19.024   2.791
31116W        W96277   6.452  29.721  14.391
31117W        W96278  33.466   8.981   2.195
31118W        W96279  28.979  13.378   0.550
31119W        W96280   2.429  38.524  11.112
31120W        W96281  35.162   0.598   3.218
31121W        W96282   4.373  21.126  12.151
31122W        W96283   8.133  14.695  12.168
31123W        W96284  14.958   9.306   2.939
31124W        W96285   0.990   7.294   0.432
31125W        W96286   5.331  37.527  11.908
31126W        W96287  20.615  12.814  13.718
31127W        W96288   6.154  14.053   2.327
31128W        W96289  19.517  22.985  10.585
31129W        W96290  44.282  36.594   2.791
31130W        W96291  23.576  36.779   4.529
31131W        W96292   2.874   6.752  14.281
31132W        W96293  38.246  29.117   1.015
31133W        W96294  31.326  28.584  14.196
31134W        W96295  20.526  35.921   1.287
31135W        W96296  19.630  23.714  12.561
31136W        W96297   6.469  36.547  13.611
31137W        W96298   4.710  27.896   1.747
31138W        W96299  10.735  33.803   0.117
31139W        W96300  10.253   2.202  14.463
31140W        W96301   9.579   9.594   2.252
31141W        W96302  20.799  31.506   0.809
31142W        W96303  42.367   0.709  11.815
31143W        W96304  19.338  34.453  14.781
31144W        W96305   8.234  17.516  14.418
31145W        W96306  31.796  23.581  13.757
31146W        W96307  39.926  36.614  12.188
31147W        W96308   7.825  38.337  11.448
31148W        W96309  18.995  26.547  10.684
31149W        W96310  38.913  29.068  11.981
31150W        W96311  29.903  16.670   2.168
31151W        W96312  42.505   8.824   1.233
31152W        W96313  33.112  32.398   0.628
31153W        W96314  21.066   0.455  13.049
31154W        W96315  13.770  33.061   0.286
31155W        W96316  40.723  18.087   1.352
31156W        W96317   2.176  15.712  12.134
31157W        W96318  35.073  25.647  14.614
31158W        W96319  32.931  33.270   1.193
31159W        W96320  23.316   8.489   1.307
31160W        W96321  18.541  18.060   4.354
31161W        W96322  24.391  25.574  11.117
31162W        W96323  37.139   3.936  12.078
31163W        W96324   9.139  38.385   1.970
31164W        W96325  37.341  30.354   4.835
31165W        W96326  12.790  36.949   4.915
31166W        W96327  42.981   3.154  13.412
31167W        W96328   5.830  18.341   3.081
31168W        W96329  19.833  10.578  12.543
31169W        W96330  31.695  27.697   9.597
31170W        W96331  34.721   2.174  13.690
31171W        W96332   6.601  16.004   0.863
31172W        W96333   8.444  21.599   0.486
31173W        W96334  19.144  17.853  10.713
31174W        W96335  32.997  44.778   0.981
31175W        W96336  11.831  22.999  12.930
31176W        W96337  26.569  11.161  13.915
31177W        W96338  40.892  17.129  10.826
31178W        W96339  19.130  31.589  10.747
31179W        W96340  24.019  34.110   1.271
31180W        W96341  32.973  28.686   2.977
31181W        W96342  21.200  11.301   4.145
31182W        W96343  11.164   7.190   4.513
31183W        W96344  39.597  12.659   3.630
31184W        W96345  33.318   0.132  10.458
31185W        W96346   3.724  37.640   4.654
31186W        W96347  41.250   3.152  13.464
31187W        W96348   7.324  37.713  11.084
31188W        W96349   1.166  38.965  13.679
31189W        W96350  31.432  44.653  14.432
31190W        W96351  43.098  44.374   1.847
31191W        W96352  28.661  28.481   0.799
31192W        W96353  32.901   3.872  11.029
31193W        W96354  22.020  16.869  13.432
31194W        W96355   8.385  24.842   0.566
31195W        W96356  34.481   2.894   3.197
31196W        W96357  28.157   6.380  14.531
31197W        W96358   0.042   5.015   2.808
31198W        W96359   8.950  22.644  14.041
31199W        W96360   5.288   4.662  14.487
31200W        W96361  12.175  22.628   3.021
31201W        W96362   9.117   9.819   2.213
31202W        W96363  28.600  10.836   1.876
31203W        W96364  13.474  44.966  11.953
31204W        W96365  39.333  40.794   1.700
31205W        W96366   4.958  24.500  11.174
31206W        W96367  16.434  17.837  10.938
31207W        W96368  22.949  19.544   2.334
31208W        W96369  10.871   6.128   2.229
31209W        W96370   9.861  37.054   3.223
31210W        W96371   6.729  16.054  12.826
31211W        W96372  20.950   8.771  12.474
31212W        W96373  16.214  10.442  12.838
31213W        W96374   2.407  22.675  14.443
31214W        W96375  28.991  42.396  10.834
31215W        W96376  38.731  11.136  13.943
31216W        W96377  23.133   7.213   0.924
31217W        W96378   0.494  12.101   2.687
31218W        W96379  38.334  32.325  14.326
31219W        W96380   3.274  33.699   0.986
31220W        W96381   0.806  17.485  12.697
31221W        W96382  18.108   5.690   1.796
31222W        W96383  19.638  41.751   4.478
31223W        W96384   2.388   3.837  11.528
31224W        W96385  44.972   4.436  14.446
31225W        W96386  30.267  27.576  14.910
31226W        W96387   4.930   6.847  13.432
31227W        W96388  38.889  25.941  14.111
31228W        W96389   0.911  32.151  12.123
31229W        W96390   8.483  44.314  10.346
31230W        W96391  33.135  27.465  14.825
31231W        W96392  38.910  10.844  11.507
31232W        W96393   9.932  39.421  14.785
31233W        W96394  22.600   5.850   1.754
31234W        W96395  43.286  43.809  14.977
31235W        W96396  28.128  41.592  14.826
31236W        W96397   5.700  11.568   0.755
31237W        W96398  33.977  42.238  13.397
31238W        W96399  22.037  27.169  10.586
31239W        W96400  29.063  17.328   1.918
31240W        W96401  29.269   1.818   1.726
31241W        W96402  26.095  15.694  10.952
31242W        W96403  43.534  42.541   4.573
31243W        W96404  40.871   4.257   4.858
31244W        W96405  29.485  21.468  13.366
31245W        W96406  20.067  14.710  14.322
31246W        W96407  24.759  31.385  12.976
31247W        W96408  42.483  11.371   4.173
31248W        W96409  11.265  42.011  12.440
31249W        W96410  30.377  15.937   3.090
31250W        W96411  30.443  39.234   0.983
31251W        W96412  26.835  31.926   1.848
31252W        W96413  11.282  44.727   3.676
31253W        W96414  20.141  41.470  14.830
31254W        W96415  23.447  34.226  12.416
31255W        W96416  37.060  45.000  13.561
31256W        W96417  17.267  34.353  11.024
31257W        W96418   4.637  22.184  13.473
31258W        W96419  22.961  30.294  11.371
31259W        W96420  25.170  28.624   3.083
31260W        W96421  27.431  30.399   3.396
31261W        W96422   8.142   4.655  12.915
31262W        W96423  42.429  37.561   4.520
31263W        W96424   4.037  11.422   2.427
31264W        W96425   7.421  20.862  14.362
31265W        W96426   3.590   2.706   0.396
31266W        W96427  20.667  20.635   0.359
31267W        W96428  33.401   8.436   3.754
31268W        W96429   9.781  27.472  12.813
31269W        W96430  36.989  26.232   4.574
31270W        W96431  41.941  21.312  10.823
31271W        W96432   9.343   2.594   0.505
31272W        W96433  32.177   1.914   2.173
31273W        W96434   7.210  28.905   2.243
31274W        W96435  33.654  19.570   2.738
31275W        W96436  34.140  37.011   5.428
31276W        W96437   1.635  28.232   4.663
31277W        W96438  29.448  17.783   2.774
31278W        W96439   4.459  30.982  13.886
31279W        W96440  42.595  29.572  11.026
31280W        W96441   8.722  25.987  12.922
31281W        W96442  40.818   7.465  13.758
31282W        W96443  33.023  31.319  14.898
31283W        W96444  37.580  31.892   1.257
31284W        W96445   8.769   0.187  10.332
31285W        W96446  13.715  38.570   3.659
31286W        W96447  41.939  41.024   2.342
31287W        W96448  11.889  16.656   4.260
31288W        W96449  22.173   5.023  14.783
31289W        W96450  41.802  28.180   3.263
31290W        W96451  30.587  33.633   1.790
31291W        W96452  11.116  39.336   0.858
31292W        W96453   7.066  37.052  11.526
31293W        W96454  16.050   2.316  10.675
31294W        W96455   1.935   4.947   1.365
31295W        W96456  31.550  27.817  11.245
31296W        W96457  35.967   2.348   1.385
31297W        W96458   4.119  37.534  11.681
31298W        W96459  24.286  23.668  12.847
31299W        W96460  44.037  14.792  12.042
31300W        W96461  18.133   5.134  13.422
31301W        W96462  10.655   4.330  10.452
31302W        W96463  18.320  35.136  11.909
31303W        W96464  44.394  17.729   2.663
31304W        W96465  29.287  37.696  14.009
31305W        W96466  24.364  16.876  11.262
31306W        W96467  34.112  29.384  11.853
31307W        W96468  35.193  17.720   0.316
31308W        W96469  29.999   2.605  11.953
31309W        W96470  18.173  28.904  13.931
31310W        W96471   1.321  12.848  12.498
31311W        W96472   9.738  23.204  14.195
31312W        W96473  22.548  38.534   3.684
31313W        W96474   9.307  35.376   2.379
31314W        W96475  39.987  19.308  13.973
31315W        W96476  28.717  28.086   2.215
31316W        W96477   3.585  10.718   2.434
31317W        W96478   6.772  17.148  13.363
31318W        W96479  26.564  12.036   3.230
31319W        W96480  28.568   6.174  10.567
31320W        W96481   3.646  25.515   4.603
31321W        W96482  36.972  29.896   0.668
31322W        W96483  37.041  28.171  12.469
31323W        W96484   6.042  24.122  10.668
31324W        W96485  26.186  35.518   0.424
31325W        W96486  10.058   1.306  14.480
31326W        W96487  41.389  41.159  13.977
31327W        W96488  19.109  33.776   2.183
31328W        W96489   5.663  18.752   3.391
31329W        W96490   3.964  21.294  11.362
31330W        W96491   6.737  10.149   2.218
31331W        W96492   0.193  18.889   3.574
31332W        W96493  17.520  14.790   1.183
31333W        W96494   0.492  24.770  12.604
31334W        W96495   9.147  27.804  11.584
31335W        W96496  36.834  37.634  13.299
31336W        W96497  24.553  10.915  13.539
31337W        W96498   3.715  40.717   3.177
31338W        W96499  42.565  14.164   1.869
31339W        W96500  42.419  14.581   4.166
31340W        W96501  24.731  32.410  12.044
31341W        W96502  29.519   6.373   2.935
31342W        W96503  11.809  25.826   1.473
31343W        W96504  15.840  24.997  12.490
31344W        W96505  41.599  21.986  14.738
31345W        W96506   8.960  40.225   1.061
31346W        W96507   5.215  39.001   1.220
31347W        W96508  35.608  16.778   0.304
31348W        W96509  25.566  14.960   2.803
31349W        W96510  23.010  23.928  12.535
31350W        W96511  17.123  34.733  11.402
31351W        W96512  10.579  40.786   1.414
31352W        W96513  30.180   1.712   0.168
31353W        W96514  34.630  31.833  14.500
31354W        W96515  32.479  31.061   1.149
31355W        W96516  28.460   1.855  11.080
31356W        W96517  28.412   3.887  13.371
31357W        W96518   5.194  16.569  12.242
31358W        W96519  32.524   4.284   3.682
31359W        W96520  11.447   0.933   5.172
31360W        W96521  12.423   7.703   2.238
31361W        W96522   8.219  20.649  13.011
31362W        W96523  33.007  27.930   3.554
31363W        W96524  15.275  32.597   4.129
31364W        W96525  36.375  36.881  13.798
31365W        W96526  39.584   4.996   0.495
31366W        W96527  19.666  28.928   4.702
31367W        W96528  28.181  25.609  14.279
31368W        W96529  36.738  10.065   0.967
31369W        W96530  38.302  16.356  14.953
31370W        W96531  43.186   9.067  14.916
31371W        W96532  15.831  37.306   0.756
31372W        W96533  34.161  35.055   0.519
31373W        W96534  39.344  11.252   3.853
31374W        W96535   6.192  22.656  10.826
31375W        W96536  28.112  28.622  14.980
31376W        W96537  33.541  20.692  10.248
31377W        W96538  12.132  24.187  11.904
31378W        W96539  36.407   6.842  12.997
31379W        W96540   1.329  31.385  14.180
31380W        W96541  18.225  13.351  14.448
31381W        W96542  11.179  14.037  11.615
31382W        W96543  30.997  34.681   2.832
31383W        W96544  11.265  35.331   1.016
31384W        W96545  37.072   7.890  14.923
31385W        W96546  19.102   2.228   2.023
31386W        W96547  29.736  20.495   1.843
31387W        W96548  39.294  41.027   4.562
31388W        W96549  28.508   1.350  14.111
31389W        W96550   8.313  31.145  10.740
31390W        W96551  30.757  34.134   1.731
31391W        W96552  12.590   8.077  11.568
31392W        W96553   6.321  38.287  13.016
31393W        W96554  38.856   1.099  12.486
31394W        W96555  14.807  18.186  11.513
31395W        W96556  14.846  21.291  11.673
31396W        W96557  10.707  26.492  14.692
31397W        W96558  37.465  38.156  13.252
31398W        W96559  43.649   5.161   1.801
31399W        W96560  32.152  24.358   2.296
31400W        W96561  26.159  15.380   3.934
31401W        W96562  15.248  11.665   3.840
31402W        W96563   3.907   3.911  14.268
31403W        W96564  32.871  36.459   1.689
31404W        W96565  43.807  15.435  13.117
31405W        W96566  42.469  32.889  12.415
31406W        W96567  14.740  18.545  13.022
31407W        W96568  28.946  36.630   4.901
31408W        W96569  34.494   6.023   4.109
31409W        W96570   0.779   8.653   1.213
31410W        W96571  23.588  17.835   3.848
31411W        W96572  25.193  23.220  12.465
31412W        W96573  43.868  26.515   2.722
31413W        W96574   2.413   1.920   3.554
31414W        W96575  38.917  13.310   3.853
31415W        W96576   3.869  40.138   0.967
31416W        W96577  21.176  40.397   3.800
31417W        W96578  34.115  31.142   4.774
31418W        W96579  12.260  31.799   3.656
31419W        W96580  19.165  26.121  11.945
31420W        W96581  13.017  21.599  13.460
31421W        W96582   2.436  26.053   3.958
31422W        W96583  20.222  28.638   2.392
31423W        W96584   2.421  18.238   2.952
31424W        W96585   6.210  32.084   3.673
31425W        W96586  14.867  33.652  14.746
31426W        W96587  15.412  42.511   1.137
31427W        W96588  41.744  18.774  13.068
31428W        W96589  25.079   2.438  12.514
31429W        W96590  10.688  34.502   2.017
31430W        W96591  18.291  24.652  12.633
31431W        W96592   5.875  14.336  13.079
31432W        W96593  25.973  40.156   0.020
31433W        W96594  25.706  32.973  10.781
31434W        W96595  31.572  14.391  11.958
31435W        W96596  40.301   1.457   2.851
31436W        W96597  25.128  15.955  14.314
31437W        W96598   1.759   4.608   4.613
31438W        W96599  43.361  31.891  11.100
31439W        W96600  29.005  37.402   0.509
31440W        W96601  25.049  11.871   2.262
31441W        W96602  36.079  28.570  11.519
31442W        W96603  26.436  19.725  12.638
31443W        W96604  13.113   3.461   4.751
31444W        W96605   5.413  24.561  14.927
31445W        W96606   0.365  16.063  13.359
31446W        W96607  27.047  24.983  11.459
31447W        W96608  15.646  14.823  12.346
31448W        W96609   1.186  24.146   3.254
31449W        W96610  40.116  39.395  11.642
31450W        W96611  15.168  26.602  13.270
31451W        W96612  41.029   2.516  13.176
31452W        W96613  20.723  11.016  13.776
31453W        W96614  24.610  38.386   0.259
31454W        W96615  41.885  27.873  11.835
31455W        W96616  13.794  38.146   2.681
31456W        W96617  23.208  30.987   4.353
31457W        W96618  26.706  33.528   4.582
31458W        W96619  11.782  28.406  14.611
31459W        W96620  39.526   3.457   0.922
31460W        W96621   7.667  30.450  10.302
31461W        W96622  23.067   0.812   3.712
31462W        W96623  22.217  14.632   0.421
31463W        W96624   2.114  43.118  11.582
31464W        W96625  43.264   2.821  11.127
31465W        W96626  34.569   8.304   3.639
31466W        W96627  17.470  10.349  13.091
31467W        W96628  38.307  16.267   4.525
31468W        W96629   4.716  12.302  11.355
31469W        W96630  43.044  28.038  10.695
31470W        W96631  42.347  25.036   2.593
31471W        W96632  41.964  26.073  11.570
31472W        W96633  41.336  20.248  12.483
31473W        W96634  19.530   2.440  13.545
31474W        W96635  23.764  38.032  14.369
31475W        W96636  15.323   3.641  12.230
31476W        W96637  13.272   7.356   1.410
31477W        W96638  13.637  41.338  10.189
31478W        W96639  36.946  19.902   1.700
31479W        W96640  22.114   3.471   2.727
31480W        W96641  34.545  18.770  14.265
31481W        W96642  32.888   3.848  12.397
31482W        W96643   4.801   4.399   3.802
31483W        W96644  40.402  43.715   1.249
31484W        W96645  36.578   6.429  13.978
31485W        W96646  22.229   5.911  11.495
31486W        W96647   2.853  41.842   3.785
31487W        W96648  15.294  31.263   2.823
31488W        W96649  30.417  17.423  14.429
31489W        W96650   7.836  32.558   0.374
31490W        W96651   0.545  41.359  11.599
31491W        W96652  37.463  39.775   1.565
31492W        W96653  24.650  19.040  12.586
31493W        W96654  19.210  24.225   2.356
31494W        W96655  22.196  16.829   2.736
31495W        W96656  19.469  43.537   0.435
31496W        W96657   9.563  44.344   2.246
31497W        W96658   7.647   1.076   1.315
31498W        W96659  16.539   8.279   4.273
31499W        W96660  41.090   2.617  12.648
31500W        W96661  42.805  29.908   3.538
31501W        W96662   7.884   8.806  12.390
31502W        W96663  11.683  28.511  11.986
31503W        W96664  12.297   1.304   0.781
31504W        W96665  44.930  18.258  12.109
31505W        W96666  26.560   9.215   3.120
31506W        W96667  12.403  13.824   3.081
31507W        W96668  27.538  39.938  13.517
31508W        W96669   1.502  40.823  13.152
31509W        W96670  13.766  10.788   1.334
31510W        W96671   7.300  30.689  14.370
31511W        W96672  13.670  33.996  14.526
31512W        W96673  34.452  27.615   4.602
31513W        W96674   7.210  32.903   1.308
31514W        W96675  37.142  11.092  10.728
31515W        W96676   9.238  27.085   2.000
31516W        W96677  35.912  22.686   3.220
31517W        W96678  25.374  38.821   3.584
31518W        W96679  13.031  11.855  14.565
31519W        W96680  17.804   5.596  14.164
31520W        W96681  33.191   2.736  12.957
31521W        W96682  43.450  28.701  14.813
31522W        W96683  12.915   2.088  12.094
31523W        W96684   5.923  18.979  11.594
31524W        W96685  42.821  32.445  11.709
31525W        W96686   3.737  39.480   1.800
31526W        W96687   5.754  34.627  14.436
31527W        W96688  33.625  43.632  14.504
31528W        W96689   2.965   7.039  12.014
31529W        W96690  12.094  23.970   1.379
31530W        W96691  42.049  32.947  12.119
31531W        W96692   0.905  11.892  11.158
31532W        W96693  38.140  26.679   2.288
31533W        W96694  34.861   0.388   4.029
31534W        W96695  12.081   3.538  11.057
31535W        W96696  10.194  35.935  10.258
31536W        W96697  30.051  20.570  14.031
31537W        W96698   4.638  15.680  12.071
31538W        W96699  26.283  19.703   4.582
31539W        W96700  39.029  35.613   2.388
31540W        W96701  33.079  28.747  14.763
31541W        W96702  41.319  12.357  13.553
31542W        W96703  12.574   3.844   1.270
31543W        W96704   7.838  12.977  12.567
31544W        W96705  28.130  12.216  10.724
31545W        W96706  15.192  38.128  13.401
31546W        W96707  13.624  33.200  13.969
31547W        W96708   8.210  39.238   1.796
31548W        W96709   1.637  16.197  10.225
31549W        W96710   9.659  37.117   2.365
31550W        W96711  33.915  13.738   4.890
31551W        W96712  16.363  39.419  13.896
31552W        W96713  15.202  15.841   4.834
31553W        W96714  16.361  39.467  14.427
31554W        W96715   1.831   5.256  12.933
31555W        W96716  28.015  10.356   4.662
31556W        W96717  24.531  35.474   2.642
31557W        W96718   1.459  37.389   2.069
31558W        W96719  13.789   1.661   1.306
31559W        W96720  19.721  38.352  13.516
31560W        W96721  44.902   1.063  13.505
31561W        W96722   8.107  24.398  13.401
31562W        W96723   8.692   7.622  12.855
31563W        W96724  35.733  39.164   0.999
31564W        W96725  14.707  15.833   2.705
31565W        W96726  20.723  14.203   0.496
31566W        W96727  28.639  19.726   4.645
31567W        W96728  13.394  42.382  12.182
31568W        W96729   8.727  20.730  13.317
31569W        W96730   8.789  28.141   0.318
31570W        W96731  26.036   9.386  13.778
31571W        W96732  20.032  29.170  13.302
31572W        W96733   0.768  17.466   4.224
31573W        W96734  44.592  26.872  12.011
31574W        W96735  26.406  29.517  14.356
31575W        W96736  14.706  19.028   0.344
31576W        W96737   7.291  21.625  11.444
31577W        W96738  28.339  43.012   3.134
31578W        W96739  36.122  35.927   1.957
31579W        W96740  28.581  35.031  12.617
31580W        W96741  26.859   1.418   3.942
31581W        W96742  36.978  21.486   3.881
31582W        W96743  23.166  33.453   3.400
31583W        W96744  30.500  28.582  12.364
31584W        W96745  41.400  42.609  14.782
31585W        W96746  17.154  10.224  11.361
31586W        W96747  21.117   2.990   4.327
31587W        W96748   3.863  27.649  10.702
31588W        W96749   8.869  16.194  13.400
31589W        W96750  21.992   6.842   4.722
31590W        W96751  20.166  34.034   4.698
31591W        W96752  10.143  29.466   1.416
31592W        W96753  32.160  14.648   4.944
31593W        W96754  29.524  41.022   0.054
31594W        W96755  21.623  17.252  12.830
31595W        W96756  18.538   5.287   1.709
31596W        W96757  12.167   5.731   1.000
31597W        W96758  25.545   6.925   2.279
31598W        W96759  39.941  32.418  13.836
31599W        W96760   5.122   5.568   3.177
31600W        W96761  37.388  30.441   4.285
31601W        W96762   8.188  13.899  11.610
31602W        W96763  27.410  21.730  14.828
31603W        W96764  26.616  20.819   4.210
31604W        W96765  26.197  35.942   4.066
31605W        W96766  15.133  37.877  11.889
31606W        W96767  38.664   6.063   1.187
31607W        W96768  31.093  16.970  14.779
31608W        W96769  23.232  36.099  14.944
31609W        W96770  24.483  26.518  11.121
31610W        W96771  26.540  20.358  14.413
31611W        W96772   9.797  35.218  11.228
31612W        W96773  31.552  29.515  10.475
31613W        W96774   0.817  18.423  14.558
31614W        W96775  21.772  39.974  10.618
31615W        W96776  41.811  18.319   2.200
31616W        W96777  14.282   1.446   1.389
31617W        W96778  16.219  42.820  12.866
31618W        W96779   2.187  19.077  14.400
31619W        W96780   1.986  14.919  11.700
31620W        W96781  12.187  19.747   0.887
31621W        W96782   2.456  33.541   2.784
31622W        W96783  21.155   0.451  11.586
31623W        W96784   7.288  14.370  11.511
31624W        W96785   5.722  11.775  11.543
31625W        W96786  12.336  28.374   4.087
31626W        W96787  18.707  33.338   2.979
31627W        W96788  41.000  44.528   2.411
31628W        W96789  36.293  20.008  14.829
31629W        W96790  38.063  42.061  13.118
31630W        W96791  24.092  14.707   3.471
31631W        W96792   9.341  37.293  12.922
31632W        W96793  26.419  15.292  11.984
31633W        W96794  23.731  24.140   0.431
31634W        W96795  43.874  22.342   3.517
31635W        W96796   8.260  26.462   1.577
31636W        W96797  21.667  31.892  10.769
31637W        W96798  19.589  32.419   3.155
31638W        W96799  20.470   3.410  11.730
31639W        W96800   2.223   7.233  10.792
31640W        W96801   4.386  39.341   0.944
31641W        W96802   8.271  27.854   2.819
31642W        W96803   7.280  13.253   1.237
31643W        W96804   6.910  18.881   4.565
31644W        W96805  12.525   8.347   0.409
31645W        W96806   3.487  32.484  13.588
31646W        W96807  26.087  37.042  13.751
31647W        W96808  22.473  28.145   3.866
31648W        W96809  11.630   4.686   2.189
31649W        W96810  16.747   5.594  11.584
31650W        W96811  17.674  32.487   2.600
31651W        W96812  25.988  40.680   0.405
31652W        W96813   8.448  25.420   3.550
31653W        W96814  28.118  42.346  14.404
31654W        W96815  39.050   0.308   2.184
31655W        W96816  11.695  11.770   1.386
31656W        W96817  38.851   7.851   1.804
31657W        W96818  29.435  40.399   4.608
31658W        W96819  27.469  39.706   2.792
31659W        W96820   7.003  40.994  11.139
31660W        W96821  38.906  21.567  14.979
31661W        W96822  42.200   9.436   3.328
31662W        W96823   0.575  20.621  13.864
31663W        W96824   5.789  19.509  12.191
31664W        W96825   2.604  21.530  11.815
31665W        W96826  43.677  37.433   0.935
31666W        W96827  27.527  43.296  13.332
31667W        W96828  16.759  44.045   3.249
31668W        W96829   2.519  23.022  14.037
31669W        W96830  29.596  15.108   4.616
31670W        W96831  44.563  37.836   4.476
31671W        W96832  40.983  29.057  14.037
31672W        W96833  30.927  37.135   3.405
31673W        W96834   4.260  15.640  13.850
31674W        W96835  42.191  20.571   4.082
31675W        W96836  23.170  20.387   2.035
31676W        W96837  11.021  36.246  13.022
31677W        W96838  25.103  28.025   1.504
31678W        W96839   1.837  27.606  12.198
31679W        W96840  23.152  44.732  12.977
31680W        W96841  36.942   2.157   2.898
31681W        W96842  43.071   8.396  13.474
31682W        W96843  31.381  32.856   4.535
31683W        W96844  21.992  23.058   2.858
31684W        W96845  14.189   4.556   5.073
31685W        W96846  38.966  26.486  12.468
31686W        W96847   1.842   3.814   4.175
31687W        W96848  30.458  40.631  11.567
31688W        W96849  34.477   1.543  13.550
31689W        W96850  39.416  34.838   3.724
31690W        W96851  11.744   7.160   3.318
31691W        W96852  43.529  38.028  11.132
31692W        W96853   9.873  17.178  14.906
31693W        W96854   5.353   0.755  13.070
31694W        W96855  25.804  10.131  10.480
31695W        W96856   0.561  11.503  14.080
31696W        W96857  31.162  26.481   2.404
31697W        W96858  43.526   5.848  13.967
31698W        W96859  22.785  20.531   0.346
31699W        W96860  32.578   3.047  14.955
31700W        W96861  42.761   5.832   4.556
31701W        W96862  21.567  12.302  12.365
31702W        W96863   6.894  42.670   0.134
31703W        W96864   9.093  43.837   2.828
31704W        W96865  29.755   2.332  14.401
31705W        W96866  30.525  24.740   0.717
31706W        W96867  36.390  40.513   0.564
31707W        W96868  32.635  34.051   3.201
31708W        W96869  11.416   6.320  14.970
31709W        W96870  31.364  30.368   4.215
31710W        W96871  40.378  37.991   4.552
31711W        W96872  19.194  12.361  11.982
31712W        W96873   8.825  29.971   3.311
31713W        W96874  36.843  21.388   0.919
31714W        W96875  13.650   9.732  11.078
31715W        W96876   6.297  41.605   3.082
31716W        W96877   3.839  40.302   0.362
31717W        W96878  32.415  38.106  12.463
31718W        W96879  35.295   1.440   1.853
31719W        W96880  14.051  26.557   3.846
31720W        W96881  36.712  42.330   1.479
31721W        W96882   0.003  39.469  14.753
31722W        W96883  34.055  39.053  13.876
31723W        W96884  31.306   7.524  10.909
31724W        W96885  38.316  18.554  12.958
31725W        W96886   8.333  44.020   0.351
31726W        W96887   0.017  34.127   3.488
31727W        W96888  13.104   8.688   4.671
31728W        W96889  10.742   1.746  14.871
31729W        W96890  13.557  16.048  14.648
31730W        W96891  44.058  31.113   0.306
31731W        W96892  43.994  44.869  11.889
31732W        W96893  33.420  36.775   2.893
31733W        W96894  29.822  23.265   2.258
31734W        W96895   6.199   4.696   3.431
31735W        W96896  36.915  12.141   0.869
31736W        W96897  39.510  32.098   4.462
31737W        W96898  22.658   6.681  11.060
31738W        W96899   4.514  26.254  13.493
31739W        W96900  18.680  42.873  12.573
31740W        W96901  12.432  16.528  14.378
31741W        W96902  24.162  42.561  13.365
31742W        W96903   5.195  15.201   0.331
31743W        W96904  35.964  14.234   3.821
31744W        W96905  35.485   4.263   0.829
31745W        W96906  41.299  15.437   4.482
31746W        W96907   3.969  31.607   1.140
31747W        W96908   8.022  39.345   0.012
31748W        W96909  15.575  21.638  12.106
31749W        W96910   9.212  15.074  14.945
31750W        W96911  15.260   2.173   0.268
31751W        W96912  18.507  44.772  11.178
31752W        W96913   9.234   4.414  10.785
31753W        W96914  24.844  31.414   0.711
31754W        W96915  19.438  18.757   0.925
31755W        W96916  10.207   9.619  12.480
31756W        W96917  41.939   9.181   3.847
31757W        W96918  28.536  27.424  11.977
31758W        W96919  33.048  11.884  14.861
31759W        W96920  28.234  31.205  13.357
31760W        W96921  30.476   8.673  11.646
31761W        W96922  25.037  38.543   2.349
31762W        W96923  12.226  14.255  11.532
31763W        W96924  19.785   5.659   1.151
31764W        W96925  34.023   4.267  13.767
31765W        W96926   8.932   0.633  14.053
31766W        W96927   9.946  34.352   1.706
31767W        W96928  21.759   2.082  14.893
31768W        W96929  34.557  16.988  11.056
31769W        W96930  41.472  26.183  12.514
31770W        W96931  38.107  34.433  11.651
31771W        W96932  43.874   6.107  11.979
31772W        W96933  23.312  25.302   3.773
31773W        W96934  37.769  23.497   0.386
31774W        W96935  21.356  17.706   1.865
31775W        W96936  10.526  12.827   3.233
31776W        W96937  10.433  42.432   0.548
31777W        W96938  22.760  10.161   3.974
31778W        W96939  40.146  14.569   2.000
31779W        W96940  16.561  27.883   3.718
31780W        W96941  18.646   1.035  10.589
31781W        W96942  41.604  39.372   0.097
31782W        W96943   4.415  12.050   3.647
31783W        W96944   5.420  35.411   3.870
31784W        W96945  14.926  38.340   2.899
31785W        W96946  17.841  22.568   3.897
31786W        W96947  17.990  20.233  13.885
31787W        W96948  38.377  26.617   0.262
31788W        W96949  29.152  27.444   2.974
31789W        W96950  17.636  18.498   2.103
31790W        W96951  28.902  18.672   3.830
31791W        W96952  19.570   9.716   0.806
31792W        W96953   0.986   0.651  14.539
31793W        W96954  22.234  17.627  13.924
31794W        W96955   4.938  33.417   5.069
31795W        W96956  43.979  17.447  13.486
31796W        W96957  14.973  28.067  14.376
31797W        W96958  19.687  34.906   1.668
31798W        W96959   2.184  24.734   2.182
31799W        W96960   0.314   8.138  14.606
31800W        W96961  20.946  21.088  12.378
31801W        W96962  22.132  38.028  13.529
31802W        W96963  21.191  17.761   4.992
31803W        W96964   9.872  40.906   3.362
31804W        W96965   6.990  41.705   1.714
31805W        W96966  15.248  31.584   4.105
31806W        W96967   1.304  30.812  11.547
31807W        W96968  37.296  23.840   4.113
31808W        W96969  39.683  23.696   3.241
31809W        W96970   6.681  26.712   3.652
31810W        W96971  22.985   3.837  11.090
31811W        W96972  43.688  44.554  12.570
31812W        W96973  40.991  27.052  14.269
31813W        W96974   2.844  43.404  14.129
31814W        W96975  42.844  36.813   0.882
31815W        W96976   7.657  30.587  10.840
31816W        W96977  24.850  19.279   3.195
31817W        W96978   4.851   0.945  12.351
31818W        W96979   6.440  19.145  11.540
31819W        W96980  40.046  44.428   4.402
31820W        W96981  43.263  33.479  11.040
31821W        W96982  15.268  44.364   3.318
31822W        W96983  30.497  21.630   5.123
31823W        W96984   5.374  38.818   3.626
31824W        W96985  27.520  28.553   2.366
31825W        W96986  34.015  34.987   2.638
31826W        W96987  10.707  29.462   4.384
31827W        W96988  20.335   6.415  11.542
31828W        W96989  36.637  29.022  10.733
31829W        W96990   7.415   5.712  14.838
31830W        W96991  19.666   2.752   4.776
31831W        W96992  36.579  39.045   4.529
31832W        W96993   2.334   8.306  11.775
31833W        W96994   6.240  43.525  10.377
31834W        W96995  19.775   2.822   4.153
31835W        W96996   4.472  20.380  12.943
31836W        W96997  10.432  16.179   0.060
31837W        W96998   8.593  10.136  14.029
31838W        W96999  10.492  33.603  13.164
31839W        W97000  41.496  29.362  11.989
31840W        W97001  14.749   0.433   3.922
31841W        W97002   0.594  29.709   2.573
31842W        W97003  33.690  42.835   2.275
31843W        W97004  37.703  16.165   3.748
31844W        W97005  20.787  30.790  13.637
31845W        W97006  27.628  32.062  14.048
31846W        W97007  11.591  16.654   1.469
31847W        W97008   7.319  29.978   9.968
31848W        W97009  19.796  32.921  13.895
31849W        W97010  27.763  22.733   3.739
31850W        W97011  41.080  27.543  14.148
31851W        W97012  40.321  25.538  12.582
31852W        W97013  41.973   9.706   3.858
31853W        W97014  29.456  15.645   3.255
31854W        W97015  20.710  27.043   1.308
31855W        W97016   2.732  22.687   1.913
31856W        W97017  26.345  22.513  12.332
31857W        W97018  29.237  29.040  14.349
31858W        W97019  41.143  17.154   3.859
31859W        W97020  17.702  21.204  12.613
31860W        W97021  16.191  31.997   3.259
31861W        W97022   9.048  31.390  14.058
31862W        W97023  23.068  22.216   2.221
31863W        W97024   7.752  33.872  14.032
31864W        W97025  38.400  27.088  11.138
31865W        W97026  26.687  37.491  12.400
31866W        W97027  15.812   8.803   2.824
31867W        W97028  20.241  39.076  10.787
31868W        W97029  23.873   9.640  13.326
31869W        W97030  39.530  13.096  14.947
31870W        W97031  36.885   0.838   2.825
31871W        W97032  31.153  12.564  10.964
31872W        W97033  21.290  20.300   0.781
31873W        W97034   9.042  32.479   0.198
31874W        W97035  16.135  31.842  11.658
31875W        W97036  37.582   2.222  10.598
31876W        W97037  14.280  10.223  13.983
31877W        W97038   2.248  31.128  14.633
31878W        W97039  20.195  38.953  14.473
31879W        W97040  11.312  31.688   2.019
31880W        W97041   3.357  29.617   0.901
31881W        W97042   8.762   7.288  10.337
31882W        W97043  32.795  24.718   1.312
31883W        W97044  22.630  18.552   4.912
31884W        W97045  23.166  33.522   1.967
31885W        W97046  27.666  10.007   2.349
31886W        W97047  37.095  32.178   2.141
31887W        W97048  41.314   5.371  11.591
31888W        W97049   2.333  38.847  11.622
31889W        W97050  43.493  43.371   4.614
31890W        W97051   5.872  34.120  14.419
31891W        W97052   3.308  12.900  14.096
31892W        W97053  25.620  42.842  13.764
31893W        W97054  26.974  29.626   0.725
31894W        W97055  32.174   3.806  10.341
31895W        W97056  33.319  10.363  12.020
31896W        W97057  20.602  36.479   2.484
31897W        W97058  19.122  20.658  12.050
31898W        W97059  19.711   3.709   2.682
31899W        W97060  25.006  15.256  12.798
31900W        W97061  30.831  34.225  11.997
31901W        W97062  38.181  21.948  12.682
31902W        W97063  29.942  44.668   2.679
31903W        W97064  35.879  34.404   1.894
31904W        W97065  23.172  41.785  11.980
31905W        W97066   4.319  29.170  13.588
31906W        W97067  11.880  44.371  13.619
31907W        W97068  40.857  35.449   1.268
31908W        W97069   9.899   7.077  10.941
31909W        W97070  38.019  34.917  14.027
31910W        W97071  16.346  15.228  13.024
31911W        W97072  13.864  36.693   4.200
31912W        W97073  18.278  19.601  13.375
31913W        W97074  36.731   8.899  12.904
31914W        W97075  29.523  11.854  11.151
31915W        W97076  14.187  39.554  12.089
31916W        W97077   4.733  24.462  10.208
31917W        W97078  16.687  43.420   4.681
31918W        W97079  31.357  31.732  13.550
31919W        W97080  23.811   8.077  12.834
31920W        W97081   7.763  31.649   3.977
31921W        W97082  26.829  28.194   1.779
31922W        W97083  36.335  21.595   0.246
31923W        W97084  43.103   8.715   0.814
31924W        W97085  15.656  34.027  11.937
31925W        W97086   1.823  12.506   2.727
31926W        W97087  33.627  14.186   2.874
31927W        W97088   3.624  14.611  10.650
31928W        W97089   1.490  25.126   1.963
31929W        W97090  43.470   0.352   0.056
31930W        W97091  29.411   4.818   0.439
31931W        W97092  27.537   3.377   4.703
31932W        W97093   2.508  36.343  13.511
31933W        W97094  28.969  33.900  14.790
31934W        W97095   3.482  16.159   4.135
31935W        W97096   2.283   7.963   0.973
31936W        W97097   8.577  32.087  12.978
31937W        W97098  32.597  33.580   3.423
31938W        W97099  28.305  10.880  12.000
31939W        W97100  20.490   2.043   4.640
31940W        W97101   1.634   6.134  11.412
31941W        W97102  33.644  10.367   0.248
31942W        W97103  37.436  17.645  12.094
31943W        W97104   6.177  21.619  10.704
31944W        W97105  42.075   5.327   1.372
31945W        W97106  12.628  32.409  12.075
31946W        W97107  32.412  14.286   4.450
31947W        W97108  28.552  38.070  10.811
31948W        W97109  11.088  15.351  11.908
31949W        W97110  10.376  34.940  11.358
31950W        W97111  29.225   0.987   2.157
31951W        W97112  15.436  39.776  12.636
31952W        W97113  29.081   9.703  11.798
31953W        W97114  24.587   1.377  14.388
31954W        W97115  43.713  10.129   3.814
31955W        W97116  13.061   8.649   2.608
31956W        W97117  23.621   8.112   0.637
31957W        W97118  41.518  16.188  13.396
31958W        W97119   3.919  38.496   0.795
31959W        W97120  41.763   8.011   4.475
31960W        W97121  40.830  10.634  12.930
31961W        W97122  32.475  20.904  12.870
31962W        W97123  13.117  37.383   4.210
31963W        W97124  34.996  35.602   2.275
31964W        W97125  20.875   5.856  11.911
31965W        W97126  43.355  17.685   2.095
31966W        W97127  13.395  29.144  14.347
31967W        W97128  10.930   0.742  12.933
31968W        W97129  41.993   3.942  14.035
31969W        W97130  18.183  22.276   3.119
31970W        W97131  33.891  12.122  11.604
31971W        W97132  39.905  19.131  13.451
31972W        W97133  22.712  21.045   1.387
31973W        W97134  22.138   1.824   0.441
31974W        W97135  31.130  25.220  13.526
31975W        W97136  16.394  32.106  11.993
31976W        W97137  25.679  27.057   9.900
31977W        W97138  39.950  26.654   4.165
31978W        W97139   0.364   6.133   3.172
31979W        W97140   5.440  37.185   0.881
31980W        W97141  24.678  33.919  10.446
31981W        W97142  27.907  38.671   2.574
31982W        W97143  21.067  29.953   3.354
31983W        W97144  35.318  39.828   9.826
31984W        W97145  24.401  28.079  11.461
31985W        W97146   9.860   9.217  10.665
31986W        W97147   5.655   4.754  12.906
31987W        W97148   4.410   7.452   0.430
31988W        W97149  34.342  40.375   2.635
31989W        W97150  34.370  27.596  11.142
31990W        W97151   4.186  20.806  12.904
31991W        W97152  16.341  42.945  10.262
31992W        W97153  22.048   4.772  13.492
31993W        W97154  15.658  37.448  14.181
31994W        W97155  25.576  37.419  11.546
31995W        W97156   8.186   8.620  14.990
31996W        W97157  42.757  14.869  12.608
31997W        W97158  44.405  21.906  14.315
31998W        W97159  32.837  32.960  14.831
31999W        W97160  16.597  24.028   4.843
32000W        W97161  30.854  26.512  11.549
32001W        W97162  35.294  34.134  12.503
32002W        W97163  39.997  28.924  13.940
32003W        W97164  34.859  35.109  14.924
32004W        W97165  41.063  12.540   4.410
32005W        W97166  43.046  13.164  13.816
32006W        W97167  16.711  24.817  12.737
32007W        W97168  11.884   3.804   0.973
32008W        W97169  18.478  35.328  11.406
32009W        W97170   4.767  21.542   1.023
32010W        W97171   2.533  10.516   3.154
32011W        W97172  25.115  27.528  13.321
32012W        W97173   9.698  22.868   0.896
32013W        W97174   4.947  24.259  12.814
32014W        W97175  16.838  14.737  12.910
32015W        W97176  22.041  31.385  13.431
32016W        W97177   7.703  42.991  12.817
32017W        W97178  12.725  14.924  11.064
32018W        W97179  43.189  11.039  11.441
32019W        W97180  26.354  43.158   9.746
32020W        W97181  25.243  28.461  11.554
32021W        W97182  38.111  26.128   0.439
32022W        W97183  33.425  28.026   1.319
32023W        W97184  19.123  28.736   0.469
32024W        W97185  44.752   2.489  13.417
32025W        W97186  37.421   1.242  12.557
32026W        W97187  34.094   6.410   1.731
32027W        W97188   2.169  21.239  13.893
32028W        W97189   3.197  25.116   2.768
32029W        W97190  42.970   3.961   0.431
32030W        W97191  39.278  33.722   3.204
32031W        W97192  20.940   4.232  12.992
32032W        W97193   9.364  18.317  14.275
32033W        W97194  34.681  42.849   4.121
32034W        W97195   2.437  18.060  13.931
32035W        W97196  23.065   8.638   0.654
32036W        W97197  34.599  11.450  14.546
32037W        W97198  20.249   5.260   2.270
32038W        W97199  44.732  43.841   2.697
32039W        W97200   7.999  40.755   2.257
32040W        W97201  42.609  35.051  14.986
32041W        W97202   4.294  40.906  11.284
32042W        W97203  10.913  19.093   4.092
32043W        W97204  37.627  26.889   1.509
32044W        W97205  35.067   4.120  12.004
32045W        W97206  36.872  15.738   4.646
32046W        W97207  13.517  33.863  13.031
32047W        W97208  20.333  44.959   2.397
32048W        W97209  27.658  18.600  14.294
32049W        W97210   3.980  16.208   3.245
32050W        W97211  10.162  20.111   3.346
32051W        W97212  17.806  33.630  12.078
32052W        W97213  13.188   4.269  13.951
32053W        W97214  34.587  16.759  12.461
32054W        W97215  39.099  15.421  13.459
32055W        W97216  41.059  39.434  10.726
32056W        W97217  15.285  27.947  11.624
32057W        W97218  15.289   8.896  10.723
32058W        W97219   1.546  31.619   1.432
32059W        W97220  13.133  43.608   4.171
32060W        W97221  43.508  36.130   2.599
32061W        W97222  11.093  35.593   1.509
32062W        W97223   4.249   4.953   4.858
32063W        W97224  10.615  44.956   2.712
32064W        W97225  38.074   2.203   0.795
32065W        W97226  27.521  30.472   0.923
32066W        W97227  43.788  13.798   4.642
32067W        W97228  22.485   1.377   1.002
32068W        W97229  10.863  25.492  10.790
32069W        W97230  21.257  25.543  11.982
32070W        W97231  44.594  26.120   0.766
32071W        W97232  38.939  37.820  10.288
32072W        W97233  41.305   6.803   1.411
32073W        W97234  22.184  38.056   0.313
32074W        W97235  26.218  16.014  14.030
32075W        W97236  39.947  33.007  13.015
32076W        W97237  11.921  21.006   1.546
32077W        W97238   5.855   1.497  13.672
32078W        W97239  24.667  36.245  13.992
32079W        W97240  42.027  15.338  12.521
32080W        W97241   3.357  33.205   0.813
32081W        W97242  32.716   0.731   4.414
32082W        W97243   7.571  16.669   1.914
32083W        W97244  33.947  18.210   1.906
32084W        W97245  25.274  15.620  13.056
32085W        W97246   7.673  21.999  14.921
32086W        W97247  36.644   5.466   1.761
32087W        W97248  17.619  16.775   2.747
32088W        W97249  17.869  25.139  10.953
32089W        W97250  41.126  32.828   5.024
32090W        W97251  10.597  39.214  12.593
32091W        W97252  30.436  11.118  10.703
32092W        W97253  12.645  13.165  11.204
32093W        W97254  24.662  38.604  14.759
32094W        W97255  20.610  43.050  13.873
32095W        W97256  44.728  10.132  12.135
32096W        W97257  29.055   5.807   4.409
32097W        W97258   6.764  10.591  12.916
32098W        W97259  41.988   3.786   3.340
32099W        W97260  29.357  24.211   2.260
32100W        W97261   5.423  25.005  10.676
32101W        W97262  18.214  22.144  13.626
32102W        W97263   4.285   1.387   0.940
32103W        W97264  19.715  32.124  12.947
32104W        W97265  35.850  17.115  14.096
32105W        W97266  34.098  37.884  14.449
32106W        W97267  31.125   9.800   1.431
32107W        W97268   6.970   3.289  13.899
32108W        W97269  28.564   8.148  14.991
32109W        W97270  37.507  15.262  12.134
32110W        W97271  10.426  44.227  11.535
32111W        W97272  22.273  24.534  13.465
32112W        W97273  18.709   4.297   4.419
32113W        W97274  20.787  42.344  11.984
32114W        W97275  20.894  29.465   2.361
32115W        W97276  31.108  26.037   3.980
32116W        W97277  23.501  35.797   1.734
32117W        W97278  30.099  40.657   2.072
32118W        W97279  40.330  21.508   2.129
32119W        W97280  10.648  30.413  12.037
32120W        W97281  38.530   0.284   4.576
32121W        W97282  38.527  44.025   2.910
32122W        W97283   2.726   7.636  14.487
32123W        W97284  14.091  44.479   4.401
32124W        W97285  32.338   8.125  14.899
32125W        W97286  37.660  22.095  14.223
32126W        W97287  38.466  16.184  14.495
32127W        W97288   3.713  37.857  11.506
32128W        W97289  29.217  12.915   2.152
32129W        W97290  12.652  29.378  10.789
32130W        W97291   6.567  41.472   4.502
32131W        W97292  23.901  23.143   2.730
32132W        W97293  41.108  14.912  13.520
32133W        W97294   6.877  17.064   3.224
32134W        W97295  30.586  16.691   0.434
32135W        W97296  29.460  38.164   4.801
32136W        W97297  25.905  28.155  11.950
32137W        W97298   4.924  40.067   2.899
32138W        W97299   0.740  16.184   0.772
32139W        W97300  16.191   4.462  10.988
32140W        W97301  28.810  25.172  12.527
32141W        W97302  31.647  33.700   1.793
32142W        W97303   5.676  41.976   0.838
32143W        W97304  36.537  31.352  14.988
32144W        W97305  12.044  17.766  11.198
32145W        W97306  22.033   1.205   1.272
32146W        W97307  29.940  37.805  11.967
32147W        W97308  35.549   0.328  14.925
32148W        W97309  20.289   0.801   0.758
32149W        W97310  14.155  28.380   4.147
32150W        W97311  21.568   0.905  13.968
32151W        W97312  23.611  37.027  14.940
32152W        W97313  36.351  33.086   1.741
32153W        W97314   5.903  10.447  13.613
32154W        W97315  24.362  15.213  11.013
32155W        W97316  16.832   9.324   4.275
32156W        W97317   6.696  42.113   1.333
32157W        W97318   9.831  32.475  11.906
32158W        W97319  22.398  18.315   1.224
32159W        W97320   0.071  12.179   0.012
32160W        W97321   1.914  41.121  13.051
32161W        W97322  18.998  28.833   1.554
32162W        W97323  40.521   5.466   4.662
32163W        W97324   1.886  39.135   4.342
32164W        W97325  24.904  36.759   4.816
32165W        W97326  33.981   6.386   0.896
32166W        W97327  41.018   4.706  14.096
32167W        W97328  24.688   9.057  10.855
32168W        W97329   9.164   2.660  12.020
32169W        W97330  10.899  13.085  12.042
32170W        W97331  43.825  28.178   0.314
32171W        W97332  36.103  36.579   4.153
32172W        W97333   4.702  29.828   0.908
32173W        W97334  33.976  44.977  12.971
32174W        W97335  13.393   2.001   2.035
32175W        W97336   7.362  18.498   1.215
32176W        W97337  39.463   9.675   0.642
32177W        W97338  19.777  39.128  13.351
32178W        W97339  20.043  19.262  11.445
32179W        W97340   1.002  34.152   1.354
32180W        W97341  30.900  34.909   2.348
32181W        W97342  24.237  43.130   5.067
32182W        W97343  20.216   0.973  11.007
32183W        W97344  44.091   4.642   0.220
32184W        W97345  24.296  19.675  10.091
32185W        W97346   6.883  11.764  14.248
32186W        W97347  35.376  28.692   2.079
32187W        W97348  36.453  10.724   4.822
32188W        W97349  32.397  17.429  14.491
32189W        W97350   7.048   5.538  11.067
32190W        W97351  24.417  18.612   4.197
32191W        W97352  13.810   8.355   0.672
32192W        W97353  25.015   4.542  13.997
32193W        W97354  31.384  38.365   1.452
32194W        W97355  21.264  40.863   4.499
32195W        W97356   8.407  16.826  12.361
32196W        W97357  31.526  12.591  11.609
32197W        W97358   7.268  22.120  13.959
32198W        W97359  32.340  39.946   2.718
32199W        W97360  38.123   8.946   1.295
32200W        W97361  11.083  13.913   2.773
32201W        W97362  34.636  14.605   0.873
32202W        W97363  12.247  42.707  12.240
32203W        W97364   1.532   7.627   1.436
32204W        W97365   9.329  25.282   3.673
32205W        W97366  31.586  31.960   2.436
32206W        W97367  34.006  14.391  13.525
32207W        W97368  17.484  40.203  11.153
32208W        W97369  44.446  34.875   1.240
32209W        W97370  26.104  25.980  13.904
32210W        W97371  41.142  25.550  12.141
32211W        W97372  35.909  35.498  12.933
32212W        W97373  36.977   9.221   0.391
32213W        W97374  14.643  22.643  13.930
32214W        W97375  17.324   4.319   4.657
32215W        W97376  22.710  30.960   2.469
32216W        W97377  13.667  31.482  12.616
32217W        W97378  38.480  38.051   4.698
32218W        W97379   3.472  13.823   1.773
32219W        W97380  12.370  32.902  14.218
32220W        W97381  13.257   3.928   4.611
32221W        W97382  39.541  27.953  10.815
32222W        W97383  10.782   5.164  13.831
32223W        W97384   4.969   2.995   0.484
32224W        W97385  29.271  13.763   4.671
32225W        W97386  19.122  23.286  10.671
32226W        W97387  16.085   7.207  12.429
32227W        W97388   8.638  13.832  13.113
32228W        W97389   9.285  38.357   0.290
32229W        W97390   0.388  20.842  12.515
32230W        W97391  13.110  10.794   4.598
32231W        W97392  17.101  41.847  14.524
32232W        W97393  21.037  26.342   0.544
32233W        W97394  32.572  42.077   1.763
32234W        W97395  15.166  39.293   2.808
32235W        W97396   5.772  22.122   3.971
32236W        W97397  22.677  44.469   2.342
32237W        W97398  32.827  41.376   2.215
32238W        W97399  14.306  19.397  13.815
32239W        W97400  24.998   7.270  11.501
32240W        W97401  25.146  16.007   2.821
32241W        W97402  27.720  23.039   1.651
32242W        W97403   4.107  27.197   3.081
32243W        W97404   8.201  31.973  11.209
32244W        W97405  44.227  25.314  14.462
32245W        W97406  26.199   4.349   3.105
32246W        W97407   1.370  40.409  10.569
32247W        W97408  30.046  24.749  12.157
32248W        W97409  19.760   0.864   4.479
32249W        W97410  37.997   0.484  10.878
32250W        W97411  41.007   0.482   1.511
32251W        W97412  40.917  10.309   4.627
32252W        W97413   4.335  30.396  14.402
32253W        W97414  21.665   4.305  12.369
32254W        W97415   6.613   3.216   4.852
32255W        W97416   7.507  11.615   0.185
32256W        W97417  15.519  39.010  12.944
32257W        W97418  22.001   7.638   2.169
32258W        W97419  18.397  36.979   3.916
32259W        W97420  20.223  11.105  11.005
32260W        W97421  24.425   0.923   2.516
32261W        W97422  31.595  28.438   1.689
32262W        W97423  35.427  24.598  13.235
32263W        W97424   8.746  34.097  13.489
32264W        W97425   1.307   3.010  12.886
32265W        W97426  11.014   0.225  11.386
32266W        W97427  17.741  16.565   0.032
32267W        W97428  23.492  43.129  14.651
32268W        W97429   6.135  28.440  13.551
32269W        W97430  13.392  42.892  14.341
32270W        W97431  17.595  24.617   4.690
32271W        W97432  37.380   1.907   4.894
32272W        W97433  33.881  43.421   2.857
32273W        W97434  24.545  31.889   0.700
32274W        W97435  36.551  30.424   1.499
32275W        W97436  32.325  13.753   1.040
32276W        W97437  22.658   5.930   1.243
32277W        W97438  43.854  29.796   1.833
32278W        W97439  12.178  24.308  14.999
32279W        W97440  34.666  11.365   0.325
32280W        W97441   0.777  44.941  10.870
32281W        W97442  26.273  16.116  10.708
32282W        W97443  18.091  38.715   2.619
32283W        W97444   6.310  44.243   0.879
32284W        W97445   5.867  31.049   1.447
32285W        W97446  18.754   5.765  14.910
32286W        W97447  27.617  22.056  14.370
32287W        W97448  32.079  25.736  11.140
32288W        W97449   0.049  18.998  12.591
32289W        W97450  19.257  30.634   1.096
32290W        W97451  14.329  19.264   2.090
32291W        W97452  27.489  37.142  14.003
32292W        W97453  35.876  13.131   2.338
32293W        W97454  41.635   6.466   3.745
32294W        W97455  18.280  28.579  14.882
32295W        W97456  26.482  20.742   0.349
32296W        W97457  30.178  38.321  10.798
32297W        W97458   6.891  24.733   4.035
32298W        W97459  32.504  36.009   1.704
32299W        W97460  24.691   7.271  11.056
32300W        W97461  42.989  20.747  12.431
32301W        W97462  36.593  13.392   0.603
32302W        W97463   5.812  26.907   1.853
32303W        W97464  21.973  22.106   3.143
32304W        W97465  22.894  14.071   1.485
32305W        W97466  15.642   5.729   4.736
32306W        W97467   4.360  14.385   3.243
32307W        W97468   9.768  35.333  13.790
32308W        W97469  17.279  10.772   4.871
32309W        W97470  39.190  17.627  10.653
32310W        W97471  29.467   5.460  12.508
32311W        W97472  33.855   0.739  11.468
32312W        W97473  29.392  44.995   1.259
32313W        W97474   7.195  15.734  10.996
32314W        W97475  40.331  23.751   3.669
32315W        W97476  36.416  42.701   3.696
32316W        W97477  21.744  19.970  14.047
32317W        W97478  18.649  11.880  12.347
32318W        W97479   4.466  35.652  13.890
32319W        W97480  33.361  34.144  10.667
32320W        W97481  27.725  16.530  14.798
32321W        W97482   9.312  33.156  10.410
32322W        W97483  25.705  28.672   3.165
32323W        W97484  15.238   8.767   4.102
32324W        W97485  18.131  22.574   0.789
32325W        W97486  24.198  33.023  10.581
32326W        W97487   2.945  27.258   2.131
32327W        W97488  41.584  14.325   2.730
32328W        W97489  11.723  16.088   3.208
32329W        W97490  44.881  20.731  13.415
32330W        W97491  26.321   3.424  14.859
32331W        W97492  25.591   8.338  10.768
32332W        W97493  12.133  16.171   0.947
32333W        W97494  34.680  26.973  14.151
32334W        W97495  28.055   3.700  11.930
32335W        W97496   0.264  15.230   2.815
32336W        W97497   2.853  38.608  11.534
32337W        W97498   7.938  25.205  10.591
32338W        W97499  29.796  13.742   4.752
32339W        W97500   2.908  17.004   4.157
32340W        W97501   1.823   6.094   4.623
32341W        W97502  27.199  36.161  12.473
32342W        W97503  15.731   8.321  10.817
32343W        W97504   6.391  16.720   3.862
32344W        W97505  32.314  21.608  11.245
32345W        W97506  30.019  18.500   4.628
32346W        W97507   2.842   1.998   4.282
32347W        W97508  23.478  19.416   2.245
32348W        W97509  42.561  43.683   4.196
32349W        W97510  12.651   9.147   4.245
32350W        W97511  35.638   2.997  13.049
32351W        W97512  14.488  39.190  10.301
32352W        W97513   6.913  29.901  12.034
32353W        W97514   7.287  17.560   4.772
32354W        W97515   7.770  31.060   0.221
32355W        W97516  25.519  39.714   3.628
32356W        W97517  11.278  24.092  10.801
32357W        W97518  15.143  29.995  14.776
32358W        W97519  25.677   8.556  13.732
32359W        W97520  31.808  33.397  12.101
32360W        W97521   5.501  40.823   2.296
32361W        W97522  11.665  26.474  12.962
32362W        W97523  23.282  19.287   1.321
32363W        W97524   1.577  41.340   1.575
32364W        W97525  18.626   9.890  10.899
32365W        W97526  43.082  30.929   5.147
32366W        W97527   3.003  23.664  14.837
32367W        W97528  43.410  20.753   1.256
32368W        W97529  11.531   8.120  14.607
32369W        W97530  27.677  18.773  11.046
32370W        W97531  30.139  41.510  14.987
32371W        W97532  32.630  22.510  14.125
32372W        W97533  39.749  24.478  11.891
32373W        W97534  23.222   2.491   0.935
32374W        W97535  29.928  16.814   3.304
32375W        W97536  28.054  35.816   2.134
32376W        W97537  24.060  29.144   4.313
32377W        W97538  43.603   1.335   3.632
32378W        W97539  24.568   3.558   0.432
32379W        W97540   9.850  17.598  14.489
32380W        W97541  44.019  26.154  10.894
32381W        W97542  25.727   9.645  12.020
32382W        W97543  20.264  35.950   5.052
32383W        W97544  13.638   2.598   1.870
32384W        W97545  28.122  38.966  12.143
32385W        W97546  21.969  24.111  13.350
32386W        W97547   7.660  35.585   0.771
32387W        W97548   2.329  19.676   1.503
32388W        W97549  20.674   0.328  14.314
32389W        W97550  32.517   6.313  13.067
32390W        W97551  31.563  14.211   4.173
32391W        W97552  30.044  10.628   2.864
32392W        W97553  44.521   7.605   1.373
32393W        W97554   4.874  17.583   0.339
32394W        W97555   6.650  20.759   4.622
32395W        W97556   6.247   8.547  12.671
32396W        W97557   6.197  44.387   4.296
32397W        W97558  10.815  16.445  10.956
32398W        W97559  17.830  15.183   4.101
32399W        W97560   1.759  14.018  11.595
32400W        W97561  44.582   5.773   3.165
32401W        W97562   0.781  22.338  14.291
32402W        W97563   1.564  41.323  11.512
32403W        W97564  30.605  38.547  10.638
32404W        W97565   8.066   7.074  11.804
32405W        W97566  37.852  36.568   1.900
32406W        W97567   6.432  16.682   0.024
32407W        W97568  35.507  29.610   1.105
32408W        W97569  23.894   9.908  11.986
32409W        W97570  15.967   5.502   0.906
32410W        W97571  11.856  26.753  12.500
32411W        W97572  16.682  36.564  12.700
32412W        W97573  16.579   1.758   3.723
32413W        W97574  25.446  42.950   4.654
32414W        W97575  25.884  42.832  12.710
32415W        W97576  36.420  27.037   3.347
32416W        W97577  31.524  32.661   0.862
32417W        W97578   5.708  44.470  11.447
32418W        W97579  23.549  13.163   2.977
32419W        W97580   5.373  36.082  12.234
32420W        W97581   4.872   7.738  13.685
32421W        W97582  13.224   2.970   4.595
32422W        W97583  21.881  16.203  10.397
32423W        W97584  41.844   2.308   1.399
32424W        W97585   5.954   9.762  12.931
32425W        W97586  29.616  37.852   5.246
32426W        W97587  21.586  10.702   3.772
32427W        W97588  13.182   7.789   4.584
32428W        W97589   2.881  20.153   4.109
32429W        W97590   2.190   0.931  12.600
32430W        W97591  33.758  14.197  11.923
32431W        W97592  41.044  26.748  12.956
32432W        W97593   9.277   4.975  14.762
32433W        W97594  17.650   6.185   2.650
32434W        W97595  38.359  10.369   3.289
32435W        W97596  30.903   6.824  10.822
32436W        W97597  43.813  13.315  12.061
32437W        W97598  41.960  26.437   1.697
32438W        W97599  14.386  27.697   0.825
32439W        W97600  23.450  39.533  10.714
32440W        W97601  29.953  10.771  11.393
32441W        W97602  32.903  36.052   1.351
32442W        W97603   0.805  27.442  14.049
32443W        W97604  39.642  12.056  14.932
32444W        W97605  23.228  28.835   2.159
32445W        W97606  23.135  23.966   1.924
32446W        W97607  32.478  13.371   0.707
32447W        W97608   6.160  27.478  13.929
32448W        W97609  33.621  26.174  10.205
32449W        W97610  14.274   9.395  12.820
32450W        W97611  34.359  32.957   4.490
32451W        W97612  36.598  12.527   4.977
32452W        W97613  21.723  42.796  14.251
32453W        W97614  15.708   4.508  10.773
32454W        W97615  31.941  44.202  12.324
32455W        W97616  24.638  16.610   1.234
32456W        W97617  22.064  19.716  14.393
32457W        W97618  12.273  41.801   3.448
32458W        W97619  10.270  29.752   1.862
32459W        W97620  41.078   8.865   1.550
32460W        W97621  40.651  43.045   9.980
32461W        W97622  36.572   4.083   1.280
32462W        W97623   0.805   3.881  14.777
32463W        W97624  20.015  27.205   0.202
32464W        W97625  10.881  41.550   4.784
32465W        W97626  13.467  30.694  11.930
32466W        W97627  28.145  38.272   2.775
32467W        W97628  14.526  27.999   2.566
32468W        W97629  12.382   0.957   3.257
32469W        W97630  36.586  38.397  14.174
32470W        W97631   9.617  30.893  14.965
32471W        W97632  13.224  37.439   4.738
32472W        W97633  42.324  35.047  13.135
32473W        W97634  31.443  35.374   4.667
32474W        W97635  37.753   3.729  13.978
32475W        W97636   7.382  17.484   2.446
32476W        W97637  21.171  25.092   2.439
32477W        W97638  26.124   1.787   4.325
32478W        W97639  35.330  30.156   4.639
32479W        W97640   0.129  15.994  11.568
32480W        W97641  42.280   2.455  10.753
32481W        W97642  14.823   5.903   1.904
32482W        W97643   9.354  40.117  13.923
32483W        W97644  35.871  15.724  11.034
32484W        W97645  37.624   9.676   0.416
32485W        W97646  25.448  20.725  11.873
32486W        W97647  41.624  38.450   1.850
32487W        W97648  17.337  14.160  14.506
32488W        W97649  23.111  32.434   4.741
32489W        W97650  36.359  13.578   2.329
32490W        W97651  19.083  42.315   0.475
32491W        W97652   0.226  38.920   1.988
32492W        W97653  20.982  24.152   4.023
32493W        W97654  36.403  39.023  11.571
32494W        W97655  16.622  25.635   1.673
32495W        W97656  30.029  12.387   4.163
32496W        W97657  33.088  24.181   1.942
32497W        W97658  40.686   3.182   4.182
32498W        W97659  39.497  36.218   1.851
32499W        W97660  17.048  40.601  12.905
32500W        W97661  26.785  21.040  13.880
32501W        W97662  11.248  22.793  14.689
32502W        W97663  30.449  33.605   0.645
32503W        W97664  23.914  19.058   9.987
32504W        W97665  13.362  35.152   0.712
32505W        W97666   8.604  15.630  11.177
32506W        W97667   2.002   4.999   1.883
32507W        W97668   1.845   9.198   0.789
32508W        W97669  37.006   2.683   3.727
32509W        W97670  36.595  15.554   3.964
32510W        W97671   7.387  42.435   0.185
32511W        W97672  14.256  29.970   2.400
32512W        W97673  30.603   0.027   2.360
32513W        W97674  18.753  27.492  12.140
32514W        W97675   8.863  30.029  14.065
32515W        W97676  12.771  42.657   0.883
32516W        W97677  39.247  22.944   4.222
32517W        W97678  17.015  44.270  11.566
32518W        W97679  43.937  17.118  11.415
32519W        W97680  20.152  43.297  11.527
32520W        W97681  35.805  23.034   1.683
32521W        W97682   7.808  11.359   4.570
32522W        W97683   1.352   7.573  10.708
32523W        W97684  31.068  14.123  14.559
32524W        W97685  35.327  22.689   1.384
32525W        W97686   8.430  35.615   0.327
32526W        W97687   1.787  40.506   2.175
32527W        W97688   1.596   9.125  10.759
32528W        W97689  41.939  44.842   4.522
32529W        W97690  23.550  23.132  13.406
32530W        W97691  28.888  14.229  11.577
32531W        W97692  17.139  43.901  11.235
32532W        W97693  29.590   8.872  10.085
32533W        W97694  29.660  14.613   3.840
32534W        W97695  10.253  25.628   3.313
32535W        W97696  15.496  16.097  14.882
32536W        W97697   9.184  32.074   4.519
32537W        W97698  30.005   4.382   4.253
32538W        W97699  40.939  13.186   1.836
32539W        W97700  25.154   8.378  12.001
32540W        W97701  11.143   7.560  11.096
32541W        W97702   7.548   4.289  11.075
32542W        W97703  29.933  34.071   0.070
32543W        W97704  31.014  22.421   0.404
32544W        W97705   1.292  30.033   1.483
32545W        W97706  21.708   4.895   3.672
32546W        W97707  23.215   9.693  14.025
32547W        W97708  42.523   2.482  11.205
32548W        W97709  30.942  25.905   4.968
32549W        W97710  10.693  42.000  13.608
32550W        W97711  16.762  26.513  13.611
32551W        W97712  27.892  17.792  12.402
32552W        W97713  14.631  29.455  12.346
32553W        W97714  19.732  32.900  11.435
32554W        W97715   9.159  42.719  14.500
32555W        W97716  31.476  31.600  10.643
32556W        W97717  43.055  13.299   3.655
32557W        W97718   3.754  34.933   4.071
32558W        W97719   6.256  41.134   3.233
32559W        W97720  32.475   8.402  12.119
32560W        W97721  22.275  40.396   3.412
32561W        W97722   5.996  20.555   4.620
32562W        W97723   5.645  23.332   0.337
32563W        W97724  36.576  26.695   2.413
32564W        W97725  38.406  20.962  12.339
32565W        W97726  43.473  30.941   0.853
32566W        W97727  42.452   7.264  10.926
32567W        W97728   8.610  17.674   4.384
32568W        W97729   9.741  17.121   4.300
32569W        W97730  21.128  42.427   0.249
32570W        W97731   3.342   0.005   0.899
32571W        W97732  11.869  11.914   2.259
32572W        W97733  31.498  43.376  13.235
32573W        W97734   0.902  39.985   4.641
32574W        W97735   5.446   3.224   0.563
32575W        W97736  40.712  11.812   4.170
32576W        W97737  44.801   3.728  13.255
32577W        W97738  41.592  35.950   1.168
32578W        W97739  24.192   4.529  10.837
32579W        W97740   1.410  44.904  14.683
32580W        W97741  42.319  31.412  12.349
32581W        W97742  15.095   0.382   2.118
32582W        W97743  18.782  41.004   3.591
32583W        W97744  31.618  20.183   3.517
32584W        W97745   4.819  15.213   0.769
32585W        W97746  18.287  21.156  14.810
32586W        W97747   7.592   0.831  13.402
32587W        W97748  37.942  41.430  10.921
32588W        W97749   3.022  25.599   3.561
32589W        W97750  31.538  37.860   1.427
32590W        W97751  27.079   3.472   3.660
32591W        W97752  35.011  39.108  13.917
32592W        W97753  19.083  32.346  11.425
32593W        W97754  36.081  38.860   0.768
32594W        W97755  35.893  14.836  14.395
32595W        W97756  11.404  31.692   3.794
32596W        W97757  28.458  14.532   1.595
32597W        W97758  23.064  23.463   2.809
32598W        W97759  13.454   7.961  14.226
32599W        W97760  21.337  31.522   0.777
32600W        W97761  37.320   4.639   3.671
32601W        W97762  36.198  14.670  12.381
32602W        W97763  41.690  14.700   0.374
32603W        W97764   3.956   5.835   0.302
32604W        W97765  13.296  17.373   4.568
32605W        W97766  28.196  42.446  13.870
32606W        W97767  36.782  30.858  11.171
32607W        W97768  27.126   1.152  14.888
32608W        W97769  43.447   0.036   0.479
32609W        W97770  33.507   2.150  10.148
32610W        W97771  14.230   9.662   0.877
32611W        W97772   9.075   0.993   0.497
32612W        W97773   2.650   7.331   4.582
32613W        W97774  38.896  28.211   2.548
32614W        W97775  23.503  17.150   1.960
32615W        W97776  12.229  15.157  11.056
32616W        W97777  31.420  31.843  11.174
32617W        W97778  19.718  42.244  10.733
32618W        W97779  43.383  28.429   2.905
32619W        W97780  30.050   2.708  12.895
32620W        W97781  34.555  34.384  13.227
32621W        W97782  33.430   4.799  12.408
32622W        W97783  41.304  24.620   1.728
32623W        W97784  26.602  22.688  11.207
32624W        W97785   0.906  25.606   2.702
32625W        W97786  29.236  40.860   0.930
32626W        W97787   3.103  44.565  12.076
32627W        W97788  25.684  23.031  10.506
32628W        W97789  35.931  42.624   3.858
32629W        W97790   7.761  40.631  12.808
32630W        W97791  42.896  39.505   0.562
32631W        W97792  31.426  34.407   4.559
32632W        W97793  22.114   3.718  14.466
32633W        W97794  17.247  20.491   1.765
32634W        W97795   1.396  43.399   4.879
32635W        W97796  38.570   3.797  11.896
32636W        W97797  27.119  29.271  12.041
32637W        W97798  25.163  36.892  14.729
32638W        W97799  15.081   4.990  12.247
32639W        W97800   5.277  16.162   3.213
32640W        W97801   7.484  10.444  11.056
32641W        W97802  13.695  44.788  11.510
32642W        W97803  35.433  38.795   1.251
32643W        W97804  32.479  33.416   1.440
32644W        W97805  20.707  36.906   0.871
32645W        W97806   1.509  13.092   1.351
32646W        W97807  13.346   3.021  14.674
32647W        W97808   2.672  35.159  10.973
32648W        W97809  40.455  17.814  13.519
32649W        W97810  18.513   5.950  11.528
32650W        W97811  44.931   7.531   2.303
32651W        W97812  14.778  27.256  14.009
32652W        W97813   0.609   1.641  10.449
32653W        W97814  44.354  15.660   0.533
32654W        W97815   7.131  42.823  11.135
32655W        W97816   8.201  35.513  14.307
32656W        W97817   0.092  41.827   2.215
32657W        W97818  41.947  40.486  11.729
32658W        W97819  36.948  31.503  12.842
32659W        W97820  17.559  17.780  11.960
32660W        W97821  36.497   2.199  13.937
32661W        W97822  29.722  28.001  14.522
32662W        W97823  30.052   0.061   1.759
32663W        W97824  18.543  38.240  11.503
32664W        W97825   3.829  26.138  11.844
32665W        W97826  19.000  43.856  11.168
32666W        W97827  10.146  24.739  14.871
32667W        W97828   0.338  28.625   2.341
32668W        W97829  32.203  40.053   0.884
32669W        W97830  30.445  14.986  13.967
32670W        W97831   1.672  15.788   3.175
32671W        W97832  27.167  29.412   0.290
32672W        W97833  39.433  29.218  11.987
32673W        W97834   2.465  27.472  11.231
32674W        W97835  21.177  13.315   4.528
32675W        W97836  34.667  10.265  11.703
32676W        W97837  22.154  30.990  12.515
32677W        W97838   2.414  44.407   3.752
32678W        W97839   0.719   5.210   3.334
32679W        W97840  29.009  41.497  14.445
32680W        W97841   4.687  14.412   0.377
32681W        W97842   9.740  35.855  11.958
32682W        W97843  28.071  10.167  14.880
32683W        W97844  37.475  37.963   2.109
32684W        W97845  44.078   2.497  14.307
32685W        W97846  15.732  23.427   4.824
32686W        W97847   3.426  43.452   3.648
32687W        W97848   9.664  39.317  10.938
32688W        W97849  13.279  12.799   4.572
32689W        W97850  43.223  29.006   1.756
32690W        W97851  14.645   4.308  13.543
32691W        W97852   2.185  21.079  11.402
32692W        W97853  10.674  29.611  10.631
32693W        W97854   9.325  43.012   3.195
32694W        W97855  34.935   3.352  14.868
32695W        W97856   1.589  43.588   0.363
32696W        W97857   2.679  33.090  13.445
32697W        W97858   0.207  35.933   1.151
32698W        W97859  14.668  31.012  14.503
32699W        W97860  19.767  25.477  14.289
32700W        W97861  38.747  28.578  10.114
32701W        W97862  30.373  40.287  14.184
32702W        W97863  42.514  31.389  10.758
32703W        W97864  24.178  10.195   3.649
32704W        W97865  26.628  12.357  10.373
32705W        W97866   1.600   2.821  13.255
32706W        W97867  32.879  43.162  11.288
32707W        W97868  35.259  19.689   1.692
32708W        W97869  34.037  36.681  11.077
32709W        W97870  39.474   7.064   4.040
32710W        W97871   3.393  23.463  12.008
32711W        W97872   0.936  19.830  14.315
32712W        W97873   0.751  15.442   2.862
32713W        W97874  25.294  25.131  10.824
32714W        W97875  43.967  32.319   0.370
32715W        W97876  11.600  42.036   4.676
32716W        W97877  39.538  10.470   1.139
32717W        W97878  40.921  17.826  11.291
32718W        W97879   0.032  41.919   3.192
32719W        W97880  39.216  30.347   1.939
32720W        W97881  36.349  34.663   3.300
32721W        W97882  21.059  40.872   4.030
32722W        W97883  15.216  15.165   3.324
32723W        W97884   5.713  37.158  14.092
32724W        W97885  38.572   8.745   4.342
32725W        W97886   0.708  30.069  12.428
32726W        W97887  25.026  40.362   0.537
32727W        W97888  31.483  14.236  13.140
32728W        W97889  34.329  27.595   0.730
32729W        W97890   3.532  28.067  10.731
32730W        W97891  32.839  34.280   1.324
32731W        W97892  11.641  33.989   0.762
32732W        W97893   1.674  20.059   4.552
32733W        W97894   0.854   4.871  12.843
32734W        W97895   2.371  32.336   2.131
32735W        W97896  22.911   6.696   1.895
32736W        W97897  31.252  24.700   2.073
32737W        W97898   5.977  30.861   3.284
32738W        W97899  26.281  34.508   3.078
32739W        W97900  34.976  21.554  14.053
32740W        W97901  21.141  15.737   3.831
32741W        W97902  28.123  41.747  11.467
32742W        W97903  26.409  31.741  13.907
32743W        W97904  26.506  28.468   2.741
32744W        W97905  17.313  24.841   2.367
32745W        W97906  34.066  16.206  12.607
32746W        W97907  21.479  26.475   4.072
32747W        W97908  11.249  26.460   3.399
32748W        W97909   2.273  10.707  11.614
32749W        W97910  31.626  15.475  14.411
32750W        W97911  42.509  23.763  11.588
32751W        W97912  32.367  43.236   0.963
32752W        W97913  13.366   4.832  10.510
32753W        W97914  12.577  18.272   0.948
32754W        W97915  41.291   9.238  13.667
32755W        W97916  16.986  25.174  14.947
32756W        W97917  18.040  38.302  11.432
32757W        W97918  41.293   6.304   1.797
32758W        W97919   8.627  28.571  13.927
32759W        W97920  38.874  16.364   3.278
32760W        W97921  12.523  40.719  14.809
32761W        W97922  23.973  38.841   3.206
32762W        W97923   5.448  42.364  13.740
32763W        W97924  27.106  20.137  12.125
32764W        W97925  24.652  29.709   1.771
32765W        W97926   3.486  38.560  13.888
32766W        W97927  21.451  22.119   3.038
32767W        W97928  26.900   7.930  14.931
32768W        W97929  14.633  42.523  11.703
32769W        W97930  15.305  36.513   4.310
32770W        W97931   0.088   7.120   3.128
32771W        W97932   9.279  39.842   2.877
32772W        W97933  25.405  19.011   0.798
32773W        W97934  33.358  33.465  13.823
32774W        W97935  37.969   6.560   1.755
32775W        W97936  13.397  39.433  10.283
32776W        W97937  42.490  33.938  11.977
32777W        W97938  37.347   3.451  13.344
32778W        W97939  23.522  13.700  12.417
32779W        W97940  18.787  31.477  14.729
32780W        W97941   2.957  27.369  11.229
32781W        W97942   4.241  16.831   2.894
32782W        W97943  40.037  35.807   4.836
32783W        W97944   0.029  29.965   2.800
32784W        W97945  30.451  42.477   3.735
32785W        W97946  30.156  13.394   1.167
32786W        W97947  18.597  30.692   0.604
32787W        W97948  34.142  40.921   5.320
32788W        W97949  31.430   5.775   4.308
32789W        W97950  41.019   6.174   1.372
32790W        W97951  16.632  12.193   3.975
32791W        W97952  27.440   8.474   0.924
32792W        W97953  33.969   2.865  13.781
32793W        W97954  26.038  31.625  12.997
32794W        W97955  18.336   4.750  11.086
32795W        W97956  13.402  35.769  14.020
32796W        W97957  35.338  26.700  12.571
32797W        W97958  27.301  14.144   4.408
32798W        W97959  16.096   3.974   1.592
32799W        W97960  44.355   2.289  10.658
32800W        W97961   9.783   4.332   0.791
32801W        W97962  14.276   1.892   2.162
32802W        W97963  20.871  35.412   2.320
32803W        W97964  27.885  17.561  12.873
32804W        W97965  38.963  18.118   0.959
32805W        W97966   5.614  41.553   1.876
32806W        W97967   8.645  24.162  13.021
32807W        W97968  17.287  13.101   0.968
32808W        W97969  17.734  26.621   4.115
32809W        W97970  28.387  40.446   1.824
32810W        W97971  29.485  43.982   4.658
32811W        W97972   5.748  36.208  11.905
32812W        W97973  44.872   8.475  12.375
32813W        W97974  33.140  15.657  11.777
32814W        W97975   0.764  34.383   2.246
32815W        W97976  25.750  19.295  13.584
32816W        W97977  18.677  25.295  12.947
32817W        W97978  29.682  19.707  14.475
32818W        W97979   9.915  20.030  14.384
32819W        W97980  24.979  43.394   4.323
32820W        W97981  25.081   9.400  10.813
32821W        W97982  37.524  14.101   4.694
32822W        W97983  25.904  28.120   1.887
32823W        W97984  22.227  44.211  13.720
32824W        W97985   8.059  15.705  11.887
32825W        W97986   2.770  33.945   1.643
32826W        W97987  24.995  40.538   0.045
32827W        W97988  34.813  24.094   3.679
32828W        W97989  13.701   5.450  13.594
32829W        W97990   1.628  24.560   4.336
32830W        W97991  43.290  26.248   1.756
32831W        W97992  27.085  21.137   1.635
32832W        W97993  32.940   5.782   0.748
32833W        W97994  33.093   5.432   2.297
32834W        W97995   3.450  41.542   1.674
32835W        W97996   5.886   0.256  10.753
32836W        W97997  15.149  32.356  13.521
32837W        W97998  35.873  27.188  12.225
32838W        W97999  14.540  13.126  12.864
32839W        W98000  22.942  21.158   3.184
32840W        W98001  11.640   8.430  11.523
32841W        W98002  38.964  12.951   4.244
32842W        W98003  22.569  38.097   2.127
32843W        W98004  20.222  12.356   0.515
32844W        W98005  14.748  35.434  12.574
32845W        W98006  35.378  21.820  11.515
32846W        W98007  36.010  18.616  12.053
32847W        W98008  24.268  25.431  14.459
32848W        W98009  36.266  38.523  11.568
32849W        W98010   4.965  10.593  13.214
32850W        W98011  41.729  40.822  12.576
32851W        W98012  44.546  18.568   1.590
32852W        W98013  10.803  32.889  11.522
32853W        W98014  14.499  22.709   3.773
32854W        W98015  36.788   4.018  12.436
32855W        W98016  43.865  42.294   2.123
32856W        W98017   7.440  22.541  13.697
32857W        W98018  39.114  43.372   0.432
32858W        W98019  30.806  39.807   4.700
32859W        W98020  31.605  37.645  12.061
32860W        W98021  44.937  39.931  10.982
32861W        W98022   1.514   6.805  13.261
32862W        W98023  17.344   6.216   3.867
32863W        W98024  25.648  14.115   1.831
32864W        W98025  28.986   7.734   3.816
32865W        W98026  37.574  22.579   5.060
32866W        W98027  40.373   3.829   3.306
32867W        W98028  23.801  16.756  12.034
32868W        W98029  10.238   9.674  10.645
32869W        W98030   1.007  32.061  14.854
32870W        W98031  35.661  15.736   1.815
32871W        W98032  44.796  43.780   4.411
32872W        W98033  27.049  13.900  14.743
32873W        W98034  14.235   3.900   4.326
32874W        W98035  37.109  34.545   4.903
32875W        W98036  21.689   0.028  14.802
32876W        W98037  21.283  18.746  11.085
32877W        W98038   6.741  32.035  12.931
32878W        W98039  28.933   2.387   3.386
32879W        W98040   7.426  33.505  10.749
32880W        W98041  21.081  13.287  12.926
32881W        W98042  23.741   0.893  12.491
32882W        W98043  28.053  21.896  12.530
32883W        W98044  43.751   0.845   3.741
32884W        W98045   9.052  16.740   4.692
32885W        W98046  16.596  43.844  13.797
32886W        W98047  15.659  34.552  14.235
32887W        W98048  38.872  18.160  11.272
32888W        W98049   4.283   2.023   3.796
32889W        W98050  37.414  42.906  10.703
32890W        W98051  33.194  19.490  13.411
32891W        W98052   1.966  28.637   1.441
32892W        W98053  22.068  26.930   3.125
32893W        W98054  27.538   6.736   1.663
32894W        W98055  33.971  20.141  11.854
32895W        W98056  33.508  42.896  13.934
32896W        W98057  25.413  24.285  11.068
32897W        W98058  30.921  32.635   4.602
32898W        W98059  40.358  33.846   2.469
32899W        W98060  41.303  10.538  14.851
32900W        W98061  12.493  35.905   1.971
32901W        W98062  29.522  29.433   0.974
32902W        W98063  34.497   5.090  13.911
32903W        W98064  15.835  34.577  11.095
32904W        W98065  22.312  33.625  10.532
32905W        W98066   6.512  36.987  14.479
32906W        W98067  12.924  19.177  12.909
32907W        W98068  36.849  31.330  14.358
32908W        W98069  20.660   3.065  10.840
32909W        W98070  21.187  26.252   3.358
32910W        W98071  40.777  29.292   4.057
32911W        W98072  39.902  26.250  12.735
32912W        W98073  35.136  29.530  12.853
32913W        W98074  36.356   2.751  11.571
32914W        W98075  43.604  28.375  14.423
32915W        W98076  29.610  38.415  12.349
32916W        W98077  18.289  38.910  13.369
32917W        W98078  38.054  14.079  12.902
32918W        W98079  14.299  11.213   1.959
32919W        W98080  44.500   6.781  13.232
32920W        W98081  37.801  33.900  13.326
32921W        W98082  14.770  37.440  11.609
32922W        W98083  29.530   5.318  13.003
32923W        W98084  19.035   5.345   0.894
32924W        W98085  33.710  15.777  13.001
32925W        W98086  20.410  34.613  14.494
32926W        W98087   9.914  29.274   2.267
32927W        W98088  28.842  33.964   3.715
32928W        W98089  39.007  17.183  10.471
32929W        W98090  34.026  36.552  12.883
32930W        W98091  39.773  37.801   3.644
32931W        W98092  18.025  35.564   1.009
32932W        W98093  12.857  20.947   3.671
32933W        W98094  42.048  32.230  14.864
32934W        W98095  36.435  27.592  13.618
32935W        W98096  32.402   6.868  13.164
32936W        W98097   4.809  28.770  11.627
32937W        W98098  37.791   1.552   1.684
32938W        W98099  28.108   4.985   1.900
32939W        W98100  26.031  18.547   2.979
32940W        W98101  17.628  42.488   0.863
32941W        W98102  35.102  24.593   1.375
32942W        W98103  20.530  19.110  12.318
32943W        W98104  18.543  30.802  13.354
32944W        W98105  17.480  27.933   3.578
32945W        W98106   4.216  31.117   0.088
32946W        W98107  31.513  34.447   3.197
32947W        W98108  25.206  24.200   3.675
32948W        W98109   5.760   7.581  14.270
32949W        W98110  18.129   1.922   4.183
32950W        W98111   0.984  26.033   1.370
32951W        W98112  34.379  22.226   2.497
32952W        W98113  30.657   8.211   0.123
32953W        W98114   3.400  28.674  13.705
32954W        W98115   0.296  12.258  11.778
32955W        W98116  32.875  36.997   1.315
32956W        W98117  34.312  11.203  10.736
32957W        W98118  17.147  30.819   2.927
32958W        W98119   9.161  43.840  11.434
32959W        W98120  19.346  30.642  10.749
32960W        W98121  21.939  15.670  11.977
32961W        W98122  21.185  35.441  12.766
32962W        W98123  24.922  16.573  14.904
32963W        W98124  32.580  40.210  13.559
32964W        W98125  34.136  16.747  10.823
32965W        W98126  26.161  10.698  13.058
32966W        W98127  11.856  21.812   0.881
32967W        W98128  13.749  17.739  14.386
32968W        W98129  13.222  31.159  14.986
32969W        W98130   9.477  28.653  12.010
32970W        W98131  11.809  26.154  13.722
32971W        W98132  19.591  25.204   3.869
32972W        W98133  11.571  23.259   3.672
32973W        W98134   4.204  21.064  13.584
32974W        W98135  37.329  24.086  14.887
32975W        W98136  34.015  24.810  13.370
32976W        W98137  38.506  20.460  12.273
32977W        W98138  15.712   4.912   2.694
32978W        W98139   3.469  35.333   2.178
32979W        W98140  10.602  20.026   1.260
32980W        W98141   7.638  30.086   0.963
32981W        W98142  16.641  18.657   4.116
32982W        W98143  37.338   2.462   1.129
32983W        W98144  27.606  25.006   2.806
32984W        W98145   4.437  29.488   4.688
32985W        W98146  22.553  32.182  12.237
32986W        W98147  10.337  34.587  13.514
32987W        W98148   5.181  30.726  14.379
32988W        W98149  31.579  44.980   3.348
32989W        W98150  11.703  13.256  11.171
32990W        W98151  20.456  28.450   1.637
32991W        W98152   3.709  11.801  13.613
32992W        W98153   8.604  32.012  10.421
32993W        W98154  28.003  34.711   0.767
32994W        W98155  17.267  12.318  10.298
32995W        W98156   2.610  44.919   2.902
32996W        W98157  42.520  16.166   4.818
32997W        W98158  26.209  43.941  13.761
32998W        W98159  30.069  15.526   2.390
32999W        W98160  18.017  26.466   4.525
33000W        W98161   9.918  21.935  12.856
33001W        W98162  35.858  42.910  11.647
33002W        W98163   5.453   0.910   0.996
33003W        W98164  20.170  41.952   0.046
33004W        W98165   8.212  30.889   0.511
33005W        W98166  35.201  27.621   4.838
33006W        W98167   0.811  16.368  11.124
33007W        W98168  20.857  20.618  10.616
33008W        W98169  15.732  29.984   3.628
33009W        W98170  15.396  18.209  12.553
33010W        W98171  31.957  27.006  14.562
33011W        W98172  35.834  22.689   1.296
33012W        W98173  26.518   2.881  12.936
33013W        W98174   2.752  30.857   4.688
33014W        W98175  25.479  33.420  10.296
33015W        W98176  13.820  27.408  13.440
33016W        W98177  16.105  35.269   1.969
33017W        W98178  12.726  21.417  14.224
33018W        W98179  25.980  28.122   0.982
33019W        W98180  21.732  36.051   1.331
33020W        W98181  30.123  28.759   2.221
33021W        W98182   8.421  20.883   4.081
33022W        W98183  34.789  34.821  14.044
33023W        W98184   9.751  16.654  12.108
33024W        W98185  14.636   8.435   4.383
33025W        W98186   3.431   0.454   2.785
33026W        W98187  15.325  44.433   1.920
33027W        W98188   7.973  11.635  12.098
33028W        W98189   6.023  38.687  13.756
33029W        W98190  29.329   4.707  14.486
33030W        W98191  25.631  22.472  13.494
33031W        W98192  10.846  21.336   3.274
33032W        W98193  42.318  31.392  14.824
33033W        W98194  20.475  26.458   3.770
33034W        W98195  22.356  30.483   3.270
33035W        W98196  27.044  33.677   2.864
33036W        W98197   2.393  37.393  10.232
33037W        W98198  27.787  38.704  11.768
33038W        W98199  18.637  22.120  14.390
33039W        W98200  40.557  13.125  12.954
33040W        W98201  34.344  35.071   4.650
33041W        W98202  29.536  30.873  11.475
33042W        W98203  42.574  21.975  13.510
33043W        W98204   3.635  36.535   1.834
33044W        W98205  17.271  30.086  11.257
33045W        W98206  19.555   9.644  10.482
33046W        W98207  34.386  23.950   4.635
33047W        W98208  31.046  43.855   4.520
33048W        W98209  19.141  16.859  12.522
33049W        W98210  44.200  30.288   4.021
33050W        W98211  40.922  20.454  14.059
33051W        W98212  32.384  36.179   4.273
33052W        W98213  19.295   5.548   1.309
33053W        W98214  32.714   2.353   0.320
33054W        W98215   8.297  24.975  10.847
33055W        W98216   4.639  34.731  11.151
33056W        W98217   1.411  12.213   2.796
33057W        W98218   4.967  20.535  12.893
33058W        W98219  21.809  44.309  11.100
33059W        W98220  25.427  19.546  11.064
33060W        W98221  17.837   5.523   0.794
33061W        W98222  40.490  15.870   1.680
33062W        W98223  34.341  31.949   2.796
33063W        W98224  10.785  42.341  13.998
33064W        W98225   5.569  16.567  12.605
33065W        W98226  30.898  41.197   2.089
33066W        W98227  25.480  17.010  10.629
33067W        W98228  11.055   2.420   0.065
33068W        W98229  14.517  31.147   0.008
33069W        W98230  14.223  28.710  13.462
33070W        W98231  23.562   5.342   3.383
33071W        W98232  36.086   6.201   0.902
33072W        W98233   4.033  25.008  13.927
33073W        W98234  34.967  36.935   0.932
33074W        W98235  38.858  27.976   9.942
33075W        W98236  23.160  14.886   4.263
33076W        W98237  26.121  35.081   5.126
33077W        W98238  41.140  11.254  10.727
33078W        W98239  21.646  35.068   1.160
33079W        W98240   6.688  11.231   3.705
33080W        W98241  13.366  20.344  13.505
33081W        W98242  41.278  26.798  13.495
33082W        W98243  42.867   4.868  12.816
33083W        W98244  41.632  19.831   2.326
33084W        W98245  25.743  25.421  10.792
33085W        W98246  41.853  18.047   0.193
33086W        W98247  12.986  17.491   5.007
33087W        W98248  24.157  22.277  13.338
33088W        W98249   0.990  39.080   9.606
33089W        W98250  10.101  43.882   0.556
33090W        W98251  21.697  37.562  11.500
33091W        W98252  12.869  35.098  13.449
33092W        W98253  20.704  40.229   2.368
33093W        W98254  14.816  12.458   0.226
33094W        W98255  33.546  14.357   3.366
33095W        W98256  37.458   4.751   1.333
33096W        W98257  22.335  38.403  11.043
33097W        W98258   5.412   7.673   4.202
33098W        W98259  26.010  43.540  11.126
33099W        W98260  29.094  20.203  12.053
33100W        W98261  31.550  36.600   2.860
33101W        W98262  31.042  39.949  11.949
33102W        W98263  26.166  29.665  10.887
33103W        W98264  44.313  36.677  11.165
33104W        W98265  32.806  16.772  13.306
33105W        W98266   8.772  25.195  10.956
33106W        W98267  31.624  11.617   3.575
33107W        W98268  17.016  24.735   4.342
33108W        W98269  21.626  32.673  11.253
33109W        W98270  21.945  10.460  11.504
33110W        W98271  32.101   9.707  13.428
33111W        W98272   9.840  17.553   1.803
33112W        W98273   9.794  26.591  12.544
33113W        W98274  11.078   1.772  10.700
33114W        W98275  28.936  38.869  11.127
33115W        W98276  40.297  30.211  13.414
33116W        W98277  31.951   7.233   2.559
33117W        W98278  40.388  11.346  14.706
33118W        W98279  13.750   0.591   1.940
33119W        W98280  39.423  31.722  11.946
33120W        W98281  39.611  34.977   0.709
33121W        W98282  28.510   3.731  12.205
33122W        W98283  11.613  29.968  14.515
33123W        W98284  11.755  35.100  11.577
33124W        W98285  25.100  18.516  12.812
33125W        W98286  24.052   3.218   4.615
33126W        W98287  11.782  26.368   1.425
33127W        W98288  37.077  40.319   3.714
33128W        W98289  20.518  39.216  14.799
33129W        W98290  26.574  33.518   3.651
33130W        W98291  16.064   8.156   1.805
33131W        W98292  18.564   7.790   1.394
33132W        W98293   8.192  18.256  10.557
33133W        W98294  24.764   4.388  11.973
33134W        W98295  38.655   3.217   0.922
33135W        W98296   1.337   1.993  13.815
33136W        W98297  11.801  19.428   0.776
33137W        W98298  33.781   5.498  14.812
33138W        W98299  15.188  36.580  12.406
33139W        W98300   6.957  17.798   2.669
33140W        W98301  40.244  13.619   1.860
33141W        W98302   9.891   4.816   4.534
33142W        W98303  24.431  34.873   4.301
33143W        W98304  26.071   3.877  13.764
33144W        W98305   9.083  12.439   3.324
33145W        W98306  27.452   0.511   0.915
33146W        W98307  34.382  34.361  11.550
33147W        W98308  21.515  30.234   1.195
33148W        W98309   9.439  10.218   4.371
33149W        W98310  22.574  31.602   9.948
33150W        W98311   0.343  17.574   2.741
33151W        W98312  24.450  35.437  12.462
33152W        W98313  28.573  44.275   3.377
33153W        W98314  27.835  34.623  11.587
33154W        W98315  23.989  39.285   2.786
33155W        W98316  31.644   3.830   2.473
33156W        W98317  36.571  20.179  13.255
33157W        W98318  18.161  43.955   2.374
33158W        W98319   9.962  22.133   4.510
33159W        W98320  27.707  34.980   4.694
33160W        W98321   3.436  18.627   4.486
33161W        W98322  35.491  26.505   4.691
33162W        W98323  38.907  41.836  12.602
33163W        W98324   1.821  16.587   3.583
33164W        W98325  40.611  17.227   3.623
33165W        W98326  37.243  34.112   0.368
33166W        W98327  17.111  21.804   0.046
33167W        W98328  19.503  14.567   2.410
33168W        W98329  21.549  22.089  14.545
33169W        W98330   1.358  40.472   1.230
33170W        W98331   0.617  31.932  11.342
33171W        W98332   8.029  22.114  13.175
33172W        W98333  42.260  13.782  14.922
33173W        W98334  26.525  15.813   4.196
33174W        W98335  41.406   4.406  14.295
33175W        W98336  39.289  31.308   3.224
33176W        W98337  34.952  30.590  11.589
33177W        W98338  28.529  35.922   0.385
33178W        W98339  28.667  33.429   0.384
33179W        W98340  33.443  15.323   2.922
33180W        W98341  25.114  33.852  14.321
33181W        W98342  26.016   0.282  14.024
33182W        W98343   8.648   2.428   4.178
33183W        W98344  20.216  40.874   4.628
33184W        W98345  35.670  15.795   4.151
33185W        W98346   9.160  24.525   2.841
33186W        W98347   3.260  35.036   0.951
33187W        W98348  29.879  35.091   2.238
33188W        W98349   3.968  34.154   0.606
33189W        W98350   2.806   9.663   1.289
33190W        W98351   9.580   6.909  13.183
33191W        W98352   0.285  20.558  14.284
33192W        W98353   2.509   0.962  13.608
33193W        W98354  20.468  24.620   0.858
33194W        W98355  33.158  21.757  10.834
33195W        W98356   4.941  41.432   3.213
33196W        W98357  27.926   2.354   2.826
33197W        W98358  40.350  43.489  11.480
33198W        W98359  40.471  32.782   3.787
33199W        W98360  33.476  20.687   4.630
33200W        W98361  30.499  34.584   2.651
33201W        W98362  20.612   7.923  13.323
33202W        W98363  42.331  43.296   2.148
33203W        W98364  38.224  33.728   2.340
33204W        W98365  37.477  15.099   0.799
33205W        W98366  10.891   0.414   2.723
33206W        W98367  18.333  18.213  11.091
33207W        W98368   7.311  32.043  13.943
33208W        W98369   8.933  37.312   1.385
33209W        W98370  13.215  27.961  10.728
33210W        W98371  13.587  21.575  14.026
33211W        W98372  36.929  42.135  12.462
33212W        W98373  12.178   4.593  14.801
33213W        W98374  27.886  14.208   0.420
33214W        W98375  23.454  10.866  10.479
33215W        W98376  26.466  34.003  12.753
33216W        W98377   4.913  35.787   0.869
33217W        W98378  19.647  25.724   2.953
33218W        W98379   9.607   2.220  12.103
33219W        W98380   7.457  13.348  12.549
33220W        W98381  21.861  23.685   4.555
33221W        W98382  33.062  40.926  11.664
33222W        W98383   6.631  41.846   0.833
33223W        W98384  23.366   2.018  10.737
33224W        W98385  32.054  20.301  13.460
33225W        W98386  40.562  42.839   3.331
33226W        W98387   8.656   0.752  13.310
33227W        W98388  17.178  26.429   0.843
33228W        W98389  40.813  25.384  12.594
33229W        W98390  17.715  13.189  14.514
33230W        W98391  35.375  42.337  11.934
33231W        W98392  42.896  15.317   3.296
33232W        W98393  13.691   8.872   0.820
33233W        W98394  19.133  30.865   2.447
33234W        W98395  12.541  17.139  13.265
33235W        W98396   6.804  19.538   3.218
33236W        W98397   5.510  38.379   2.418
33237W        W98398  16.583   7.813   3.666
33238W        W98399  26.059  18.316  10.695
33239W        W98400  17.506   3.310  14.936
33240W        W98401  43.038  31.456  12.984
33241W        W98402  37.487  20.240  14.387
33242W        W98403  22.545  18.822   1.307
33243W        W98404  36.943  34.794   1.237
33244W        W98405  26.578  40.768   4.979
33245W        W98406  43.140  20.503  12.879
33246W        W98407  13.653  23.006  10.615
33247W        W98408   6.134   4.717  13.119
33248W        W98409  22.146  11.822  14.749
33249W        W98410  43.482  17.599  12.055
33250W        W98411  33.088  15.669  11.273
33251W        W98412  44.315  33.158  10.666
33252W        W98413  26.579  39.470   3.524
33253W        W98414  37.390   6.845   3.081
33254W        W98415  26.459   6.984   4.646
33255W        W98416  13.098  38.023  12.081
33256W        W98417   6.202  10.898  12.080
33257W        W98418  23.036  39.912  11.898
33258W        W98419  35.539  34.423   4.635
33259W        W98420  41.487  40.818  14.411
33260W        W98421  30.622  13.698  11.353
33261W        W98422   6.409  19.832   3.120
33262W        W98423   2.481   3.907   2.179
33263W        W98424  36.874  32.360   4.554
33264W        W98425  36.460   5.847  11.501
33265W        W98426   3.644  12.245  11.060
33266W        W98427  23.768  24.046  14.183
33267W        W98428  43.786  30.640   2.313
33268W        W98429  26.411  16.278   0.817
33269W        W98430   1.578  34.682   3.687
33270W        W98431  21.293   3.843  10.659
33271W        W98432  23.661  42.879   0.443
33272W        W98433  14.186  17.779  12.177
33273W        W98434  32.456  26.622   1.711
33274W        W98435  17.147   7.170   0.761
33275W        W98436  24.034  10.624  10.692
33276W        W98437   0.661  31.649   4.584
33277W        W98438  44.906   4.056  12.867
33278W        W98439  19.887  15.020  11.259
33279W        W98440   9.897   4.449  11.084
33280W        W98441  44.580  31.475   3.495
33281W        W98442  17.805   3.835  13.900
33282W        W98443   2.804  34.928   0.689
33283W        W98444  28.619  37.533   4.188
33284W        W98445  37.019   3.698   2.623
33285W        W98446  24.061  22.254  11.987
33286W        W98447   7.129  16.575   4.595
33287W        W98448   6.815  42.194   1.856
33288W        W98449   1.558   8.201  12.935
33289W        W98450   1.593  10.912   9.718
33290W        W98451   8.662  41.117   0.293
33291W        W98452   3.008  36.246   3.720
33292W        W98453  16.271   9.461  14.507
33293W        W98454   3.660  12.076  14.053
33294W        W98455  28.581  20.113   3.346
33295W        W98456  14.388  33.941  13.894
33296W        W98457   9.266  19.644   2.410
33297W        W98458  39.307  22.069  10.605
33298W        W98459   3.474  13.646  13.381
33299W        W98460  34.860  15.835   0.411
33300W        W98461  23.541  36.117   0.390
33301W        W98462  35.599  22.005   2.124
33302W        W98463  19.088  22.058  12.050
33303W        W98464  34.423  30.045   1.479
33304W        W98465  29.158  30.562  12.456
33305W        W98466  11.189  27.935  13.528
33306W        W98467  40.519  40.107   3.689
33307W        W98468  37.793  11.830   4.839
33308W        W98469  19.667  29.033  12.596
33309W        W98470  24.463  18.244  11.541
33310W        W98471  40.296   3.263  14.854
33311W        W98472  34.042  40.150  14.826
33312W        W98473  18.096  20.348  12.970
33313W        W98474  24.703   2.002   3.274
33314W        W98475  40.689  22.032  11.548
33315W        W98476  32.488  32.538  11.077
33316W        W98477  44.626   3.160  10.658
33317W        W98478  19.243  23.747  10.460
33318W        W98479  38.228  14.428   4.106
33319W        W98480  38.133  16.867  10.605
33320W        W98481  18.239  19.145   0.385
33321W        W98482   9.417  44.250  11.584
33322W        W98483  12.152  17.447   3.297
33323W        W98484  21.096  43.388  12.023
33324W        W98485   8.405  25.380  11.258
33325W        W98486  12.007  23.438   2.332
33326W        W98487  14.684  31.499  10.660
33327W        W98488  24.184  36.039  12.872
33328W        W98489  18.140  43.006   3.369
33329W        W98490  13.703  22.488   0.922
33330W        W98491  21.532  32.703  12.100
33331W        W98492  24.081   9.111  11.565
33332W        W98493  22.310  16.433   0.406
33333W        W98494   1.939  41.060   3.321
33334W        W98495  20.177  11.525   0.818
33335W        W98496  38.954  42.338  14.094
33336W        W98497  36.909  17.677   4.186
33337W        W98498   1.348  18.976   2.833
33338W        W98499  26.641  21.188  12.515
33339W        W98500  19.473   2.970  10.730
33340W        W98501  13.455   8.199  11.173
33341W        W98502  41.906  23.037  11.572
33342W        W98503   4.948  19.242  14.543
33343W        W98504  28.562  25.738   4.079
33344W        W98505  39.468   0.503   3.713
33345W        W98506   5.228   3.717   0.928
33346W        W98507  21.624  33.592   4.849
33347W        W98508  20.837   1.344  14.436
33348W        W98509  16.677   9.917  12.546
33349W        W98510  36.524  14.745   0.561
33350W        W98511  23.494   4.836   4.127
33351W        W98512  16.850  41.031  13.130
33352W        W98513  16.357  22.507  12.901
33353W        W98514  39.410  44.872  11.533
33354W        W98515  15.442   3.469  11.419
33355W        W98516   1.022  28.101  12.465
33356W        W98517  36.550  41.488   1.051
33357W        W98518  34.368  18.829  12.029
33358W        W98519  27.947   6.425   4.632
33359W        W98520  30.505  32.003   4.560
33360W        W98521  25.366  33.502   1.371
33361W        W98522  31.948  24.297  12.184
33362W        W98523   9.776  28.558  12.843
33363W        W98524  35.989  31.475  14.255
33364W        W98525   3.420   3.683  12.891
33365W        W98526  44.887  27.055  13.815
33366W        W98527  18.170  22.110  13.106
33367W        W98528  26.892  21.024  13.356
33368W        W98529  37.920   6.907   3.135
33369W        W98530   4.005  12.659   4.061
33370W        W98531  13.833  13.688   0.441
33371W        W98532  38.517  31.803  10.509
33372W        W98533  32.845  11.274  13.618
33373W        W98534   9.200  28.560  11.596
33374W        W98535  25.564  23.392  10.875
33375W        W98536  24.064   7.898   0.808
33376W        W98537  12.370  12.792   3.665
33377W        W98538  40.982   4.428   1.507
33378W        W98539  25.551  26.267  11.167
33379W        W98540   0.098   2.819   2.525
33380W        W98541  24.196  16.728  10.778
33381W        W98542  10.725  40.965   0.222
33382W        W98543  39.085  12.655   0.760
33383W        W98544  10.092  10.185   5.004
33384W        W98545  41.360   5.857  14.405
33385W        W98546  11.862  44.361   2.742
33386W        W98547  16.719  18.858  14.927
33387W        W98548   1.059  17.890   0.868
33388W        W98549  15.672  14.167   0.052
33389W        W98550  13.794  21.240  11.148
33390W        W98551  16.216  14.571   5.098
33391W        W98552  30.645   8.245  12.960
33392W        W98553  11.564  44.336   3.154
33393W        W98554  44.707   6.946  10.690
33394W        W98555   2.269  23.223   1.452
33395W        W98556   9.175  32.041   3.619
33396W        W98557   7.745  32.838  13.938
33397W        W98558   9.382  26.251  14.813
33398W        W98559  10.478  30.816   4.205
33399W        W98560  43.266  42.851   0.914
33400W        W98561  33.216   0.779   4.580
33401W        W98562   2.921  19.518  11.431
33402W        W98563   1.718  12.788  11.996
33403W        W98564  37.833  16.195  11.116
33404W        W98565  36.602  25.296   0.735
33405W        W98566   7.859  40.908  12.369
33406W        W98567   9.480   3.215  13.750
33407W        W98568  42.838  30.653   0.902
33408W        W98569  22.700  43.955   3.220
33409W        W98570  37.888  25.560  14.238
33410W        W98571   5.759  18.084  11.537
33411W        W98572  40.604  38.333  10.782
33412W        W98573  35.319  36.356  13.836
33413W        W98574  22.430  42.982  13.505
33414W        W98575  38.465  35.581  11.434
33415W        W98576  27.569  38.477  14.539
33416W        W98577   9.905   4.373   4.172
33417W        W98578  38.103   0.401  11.368
33418W        W98579  27.741  29.775   4.666
33419W        W98580   7.419  38.199  11.130
33420W        W98581   0.225   6.374  14.561
33421W        W98582  23.632  28.580  13.566
33422W        W98583  37.906  40.555   1.030
33423W        W98584  25.385  21.574   2.266
33424W        W98585  41.821  42.427  10.620
33425W        W98586  14.325   3.292   2.338
33426W        W98587  39.889  27.048   1.164
33427W        W98588  34.945   2.650   3.235
33428W        W98589   6.385  37.330  12.156
33429W        W98590   6.425   3.436   0.345
33430W        W98591  25.042  18.409   0.283
33431W        W98592   2.206  37.502   0.416
33432W        W98593  41.785  27.685   1.296
33433W        W98594  14.681  36.883  10.801
33434W        W98595   2.011   0.464   0.912
33435W        W98596   2.358   6.346  13.568
33436W        W98597  43.679  10.066   4.344
33437W        W98598   3.010  12.742   1.296
33438W        W98599   0.490   4.910   0.769
33439W        W98600  21.049  38.117  10.444
33440W        W98601  21.471  14.765  14.942
33441W        W98602  23.756  10.934   5.183
33442W        W98603  22.237  34.409   2.342
33443W        W98604  18.737  25.769   2.854
33444W        W98605  25.535   2.187  12.649
33445W        W98606   6.882   0.693   1.886
33446W        W98607  11.360  23.684  11.990
33447W        W98608  35.150  24.939   1.812
33448W        W98609   2.770  29.758   2.289
33449W        W98610  44.444  22.258  13.930
33450W        W98611  32.378   3.243   2.457
33451W        W98612  41.706   7.702  10.735
33452W        W98613  24.387  15.767   2.526
33453W        W98614   8.576   6.346  11.741
33454W        W98615   3.239  17.557   4.374
33455W        W98616  19.671   4.155   3.073
33456W        W98617  44.203  24.543   1.829
33457W        W98618   5.995  27.526   0.888
33458W        W98619  36.338  11.332  13.020
33459W        W98620  40.089  14.887   3.458
33460W        W98621  18.035  28.981   0.263
33461W        W98622  42.423  26.731  14.566
33462W        W98623  43.387  21.563   1.693
33463W        W98624  34.046  26.084  12.346
33464W        W98625  29.314  33.980  13.836
33465W        W98626  29.608  15.256   2.275
33466W        W98627  13.309  35.384   4.633
33467W        W98628  18.079  39.887  12.084
33468W        W98629  31.077   6.445  11.177
33469W        W98630  42.455  32.128  11.538
33470W        W98631  31.318  33.424  11.934
33471W        W98632  26.123  29.521   3.882
33472W        W98633   4.390  33.834  14.305
33473W        W98634  24.429   9.870   1.483
33474W        W98635  30.451  22.078  12.875
33475W        W98636  35.020  15.642   0.884
33476W        W98637  31.079  15.669  12.888
33477W        W98638  21.095  35.152   4.892
33478W        W98639   2.045  11.295  14.741
33479W        W98640   3.760  16.566  10.672
33480W        W98641  34.959  43.610   3.382
33481W        W98642  26.182  14.742  13.282
33482W        W98643  11.923   3.440   1.907
33483W        W98644   0.957   5.785  10.012
33484W        W98645   3.261   6.336   1.165
33485W        W98646  35.784  15.118   3.888
33486W        W98647  25.819  12.105  13.670
33487W        W98648  21.360   0.109   5.078
33488W        W98649  28.615  27.126  12.901
33489W        W98650  17.499  20.010  14.473
33490W        W98651  13.315  42.327   0.168
33491W        W98652  37.061   5.682   3.796
33492W        W98653  33.782  43.582   1.986
33493W        W98654  25.547  23.589   3.255
33494W        W98655  40.690  15.913  11.064
33495W        W98656  28.080  33.027   4.665
33496W        W98657   2.836  44.433   4.796
33497W        W98658  21.564  10.725  12.030
33498W        W98659  35.074  16.820   0.308
33499W        W98660   3.309   4.876   4.705
33500W        W98661  29.872   1.772  12.387
33501W        W98662  43.428  33.227  14.170
33502W        W98663  18.307   9.296   2.221
33503W        W98664  44.085   3.168   0.457
33504W        W98665   4.712  20.039   1.764
33505W        W98666  15.095  39.867  14.924
33506W        W98667  22.164  11.420   4.979
33507W        W98668   0.439  42.645   4.095
33508W        W98669  24.698  16.102  12.532
33509W        W98670   0.973  39.471   1.963
33510W        W98671   5.836   4.501  12.043
33511W        W98672  40.320  27.630  10.694
33512W        W98673  29.911  19.191  13.818
33513W        W98674   3.361  22.688  13.903
33514W        W98675  21.190  39.886  14.196
33515W        W98676  15.206  34.061   1.180
33516W        W98677   3.625  25.730  12.650
33517W        W98678  12.709  13.620   1.305
33518W        W98679  35.435  37.811  14.988
33519W        W98680  10.602  31.522  14.811
33520W        W98681  40.190  11.168  13.008
33521W        W98682  37.075  36.570   2.993
33522W        W98683  25.807  10.343  13.798
33523W        W98684  17.491  15.118  13.625
33524W        W98685   6.375  37.523   1.365
33525W        W98686   9.243  34.522   3.399
33526W        W98687   7.329  42.057  11.948
33527W        W98688  42.103   2.385   0.969
33528W        W98689  40.841   2.983   2.652
33529W        W98690  28.974  10.267   0.080
33530W        W98691  38.937  17.365   0.500
33531W        W98692  27.205  19.974  12.593
33532W        W98693  15.703  28.633  14.518
33533W        W98694  20.353  13.136   4.586
33534W        W98695  31.537   4.196  14.864
33535W        W98696  13.341  37.256  13.548
33536W        W98697  32.344  13.100  14.839
33537W        W98698  14.710  27.158   2.442
33538W        W98699   4.863  44.705   1.142
33539W        W98700   2.365   3.199  10.897
33540W        W98701  37.543  44.234  13.909
33541W        W98702  18.560  17.635   4.667
33542W        W98703  39.587  13.249  10.686
33543W        W98704   5.406  41.401  11.696
33544W        W98705  18.419   9.320  14.914
33545W        W98706  31.869  10.979  14.876
33546W        W98707  10.812  14.299   1.811
33547W        W98708  40.815  13.844   4.033
33548W        W98709  11.192   5.210  12.848
33549W        W98710  20.626  39.255   3.221
33550W        W98711  44.837  22.580   4.300
33551W        W98712  15.595  37.942   3.733
33552W        W98713   6.855  19.695  14.628
33553W        W98714   8.690  24.650   2.998
33554W        W98715   7.211   7.627   2.710
33555W        W98716  19.859  42.524  10.301
33556W        W98717   6.145  36.009  14.437
33557W        W98718  31.865  12.475   2.942
33558W        W98719  42.770   5.964   0.583
33559W        W98720  22.703  30.392  13.905
33560W        W98721   4.217  22.130   4.195
33561W        W98722  34.561  39.608   1.460
33562W        W98723  18.211  24.013  14.059
33563W        W98724  15.587  31.387  14.374
33564W        W98725  10.055  32.894  13.139
33565W        W98726  20.031   2.259  14.999
33566W        W98727   4.868   9.872  11.142
33567W        W98728  31.302   8.823  10.585
33568W        W98729   2.156   1.965   2.228
33569W        W98730  17.595  37.920  10.631
33570W        W98731  37.137  18.681  10.630
33571W        W98732  11.902  40.427  12.019
33572W        W98733  24.159   4.022   4.336
33573W        W98734  39.360  14.449  13.480
33574W        W98735  17.400  18.629   4.544
33575W        W98736   5.762   0.042   0.817
33576W        W98737  27.792  37.365   2.104
33577W        W98738  28.279  15.403   1.432
33578W        W98739   6.219  43.431  10.927
33579W        W98740  44.407   1.487   2.435
33580W        W98741  19.113  10.379  14.480
33581W        W98742  22.147   4.369  12.574
33582W        W98743   5.890   3.749  10.623
33583W        W98744   8.806  33.108  14.338
33584W        W98745  13.046  40.580   4.518
33585W        W98746  23.027  14.630   5.089
33586W        W98747  42.972   3.491  13.833
33587W        W98748   3.572  39.941  12.648
33588W        W98749  25.451  26.873   5.021
33589W        W98750  26.906  12.291   0.864
33590W        W98751  31.975  30.188  12.876
33591W        W98752  24.522   5.786   0.037
33592W        W98753   2.508  35.552  13.965
33593W        W98754  15.131  42.078  11.099
33594W        W98755  30.667   1.974   0.428
33595W        W98756  39.925  12.826  10.717
33596W        W98757  22.240   8.276  14.283
33597W        W98758  11.315  34.491   0.449
33598W        W98759  25.141  32.946   0.855
33599W        W98760  11.691  40.859   2.237
33600W        W98761  17.736  18.306   0.688
33601W        W98762  19.668  38.577   1.867
33602W        W98763  22.492  20.285   4.151
33603W        W98764  34.447  36.331   3.342
33604W        W98765  22.788   7.830   1.701
33605W        W98766  17.252  17.792  10.632
33606W        W98767  37.318  21.405  11.548
33607W        W98768  21.721  40.937  12.527
33608W        W98769  13.542  26.515  14.773
33609W        W98770  43.174  24.699   1.843
33610W        W98771  25.077  25.075  13.135
33611W        W98772  33.489   7.091  10.801
33612W        W98773  44.317   0.591   1.336
33613W        W98774  13.792  41.347  11.920
33614W        W98775  20.065   7.275  11.136
33615W        W98776  23.231  43.291   3.627
33616W        W98777   8.145  22.063   1.274
33617W        W98778  38.574  34.537  13.322
33618W        W98779  18.227  34.911   3.312
33619W        W98780  38.514  44.754   4.610
33620W        W98781   6.219  44.334  11.547
33621W        W98782  26.156  18.346   1.931
33622W        W98783  28.426  11.324  12.869
33623W        W98784  34.448   4.026   1.191
33624W        W98785  17.310   1.859   2.085
33625W        W98786  37.141   4.815  12.010
33626W        W98787   0.814  44.063  13.097
33627W        W98788  13.816  42.607   4.751
33628W        W98789  19.681  39.623  13.430
33629W        W98790   1.413  41.952   0.730
33630W        W98791  27.449  19.602   1.320
33631W        W98792  29.489   4.786   1.850
33632W        W98793  14.036  37.542  11.261
33633W        W98794   3.439   1.905  10.651
33634W        W98795  21.212  37.083   1.606
33635W        W98796   7.241  37.327  13.089
33636W        W98797  17.043   4.823  12.168
33637W        W98798  10.263  41.434   2.803
33638W        W98799  34.364  44.697   0.425
33639W        W98800  33.434  36.599  14.172
33640W        W98801  44.642  23.508  14.718
33641W        W98802  20.569  41.929   0.894
33642W        W98803  13.501  10.219   4.101
33643W        W98804  18.312  15.402   3.500
33644W        W98805   8.221  41.324   3.568
33645W        W98806  16.891   3.007   3.302
33646W        W98807  16.764  36.422   1.822
33647W        W98808  29.484  10.449  13.115
33648W        W98809  29.167  11.613   1.811
33649W        W98810  22.271  25.426  14.381
33650W        W98811   4.711   6.349   3.055
33651W        W98812  44.059  43.786   0.352
33652W        W98813  12.492  36.623  12.485
33653W        W98814   5.122  21.259  14.453
33654W        W98815  16.730   6.105  11.553
33655W        W98816  24.763   1.481   1.390
33656W        W98817  43.433   5.781   4.566
33657W        W98818  38.369  31.286   0.794
33658W        W98819  25.009  15.143  14.999
33659W        W98820   1.237   2.262   1.971
33660W        W98821  42.915  12.036  11.508
33661W        W98822   3.400  35.472   4.786
33662W        W98823  24.095  14.599  11.583
33663W        W98824   5.737  41.007   3.642
33664W        W98825   3.687  32.099   3.752
33665W        W98826  10.436  40.394  12.103
33666W        W98827   5.734  35.105   0.483
33667W        W98828  32.573  43.888  14.742
33668W        W98829   9.908  38.016   1.910
33669W        W98830   4.259   2.036  11.195
33670W        W98831  15.771  16.335   0.281
33671W        W98832   5.890  44.540   0.877
33672W        W98833  41.476  29.090  13.781
33673W        W98834  30.625  24.645  12.506
33674W        W98835  29.354  33.576  14.605
33675W        W98836  17.590  11.898  10.398
33676W        W98837  39.908   9.735   4.377
33677W        W98838  32.885  28.543   1.421
33678W        W98839  19.779  43.910   0.195
33679W        W98840  19.562  26.171  11.622
33680W        W98841  30.073  14.427   2.045
33681W        W98842  21.268  21.782   0.820
33682W        W98843  24.686  33.848   4.082
33683W        W98844  24.751  40.076  10.894
33684W        W98845  12.093  43.509  12.441
33685W        W98846  33.069  13.821  10.674
33686W        W98847   6.269   2.385  13.252
33687W        W98848   9.095  34.083  14.858
33688W        W98849   6.386  40.558  14.901
33689W        W98850   3.721  16.207   1.427
33690W        W98851  25.707   6.538  11.935
33691W        W98852  24.618  33.832  12.262
33692W        W98853   0.576  38.597   3.279
33693W        W98854  17.176  12.330   4.705
33694W        W98855  41.926  25.209  13.829
33695W        W98856  13.835  32.762   2.299
33696W        W98857  22.106  17.548  11.701
33697W        W98858  31.480  23.671   3.512
33698W        W98859  13.552  19.478   1.858
33699W        W98860   9.303  28.048  12.022
33700W        W98861  10.918  24.738  12.538
33701W        W98862  41.817   0.567  12.842
33702W        W98863  11.842  32.160   3.258
33703W        W98864  17.873  17.554  14.790
33704W        W98865  18.574  36.425  11.234
33705W        W98866  34.576  22.806   3.594
33706W        W98867  21.313  21.416  12.496
33707W        W98868  19.516   6.333   3.169
33708W        W98869  13.047   5.461  14.337
33709W        W98870  37.428  41.014   3.499
33710W        W98871  15.742  31.548   2.808
33711W        W98872   6.506  19.627  10.786
33712W        W98873   5.246  10.217  10.948
33713W        W98874  30.887  23.300  12.075
33714W        W98875  14.682  33.417  12.756
33715W        W98876   7.918  13.425  12.321
33716W        W98877  42.049  41.458  14.365
33717W        W98878  24.264  22.505   1.349
33718W        W98879   4.842  27.619   3.141
33719W        W98880  39.648  42.187   1.006
33720W        W98881   7.415  41.268  13.493
33721W        W98882  22.928  41.784   2.883
33722W        W98883  23.749   2.747   2.410
33723W        W98884  33.944  19.131   4.494
33724W        W98885  27.326  12.465   9.872
33725W        W98886  24.574  24.702  12.112
33726W        W98887   0.265  23.525   1.187
33727W        W98888  13.614  28.075   4.815
33728W        W98889  37.613  10.906   3.794
33729W        W98890  15.547  21.166  11.873
33730W        W98891  35.619  32.638   0.852
33731W        W98892   7.665  18.918  11.948
33732W        W98893   1.399  44.323   2.172
33733W        W98894  33.288  39.473   1.228
33734W        W98895  34.559  26.125   0.271
33735W        W98896   5.197   0.865  10.654
33736W        W98897  28.232  41.322  11.169
33737W        W98898  33.897  16.744   3.206
33738W        W98899  34.854   8.909   9.839
33739W        W98900  31.478   9.181   1.795
33740W        W98901  32.806  36.366  10.303
33741W        W98902  25.210   5.274   1.632
33742W        W98903   9.357  23.791  12.549
33743W        W98904  13.529  24.685  13.008
33744W        W98905  28.010  39.644   2.774
33745W        W98906  24.007  41.444   3.206
33746W        W98907  39.809  14.787  12.014
33747W        W98908  37.991  35.547  12.642
33748W        W98909  11.381  10.809  10.635
33749W        W98910  14.153   8.861   3.186
33750W        W98911  23.206  27.174   3.989
33751W        W98912  34.690   8.351   4.140
33752W        W98913  16.796  23.674  13.435
33753W        W98914   9.666   3.831   2.158
33754W        W98915  39.115   0.585  14.405
33755W        W98916  35.029  13.185   1.870
33756W        W98917   8.902  17.099   3.180
33757W        W98918   2.749  38.049  13.911
33758W        W98919  40.396   1.629  12.263
33759W        W98920  21.972  17.359  13.581
33760W        W98921  10.594   6.236   3.170
33761W        W98922  23.023  42.521   0.806
33762W        W98923  15.612  41.457   3.285
33763W        W98924   8.083  30.091   4.504
33764W        W98925   8.645  20.233  10.938
33765W        W98926   7.882   4.000   4.214
33766W        W98927  30.467  34.859  14.864
33767W        W98928  31.312  25.211  14.009
33768W        W98929  24.054  43.702   2.673
33769W        W98930  27.042  40.918  13.097
33770W        W98931   2.858   4.864   1.366
33771W        W98932  31.949   5.214  14.810
33772W        W98933  34.828   7.664  13.106
33773W        W98934   6.668  18.618  13.888
33774W        W98935  38.404   7.171   1.335
33775W        W98936  24.115  17.809  14.930
33776W        W98937   8.782  40.443  12.700
33777W        W98938  34.330   2.584   1.226
33778W        W98939   9.110   1.469  12.909
33779W        W98940  14.997   4.432  13.963
33780W        W98941  25.085  10.631  14.905
33781W        W98942  25.217  20.628  12.932
33782W        W98943  43.424   2.842   2.390
33783W        W98944  25.771  35.943  14.873
33784W        W98945  41.093  42.350   3.139
33785W        W98946  44.664  10.425   9.750
33786W        W98947   8.923   8.369   2.171
33787W        W98948  33.138  18.235   2.844
33788W        W98949   5.328  34.025   2.240
33789W        W98950   4.286   8.820   3.389
33790W        W98951  18.232  18.279   1.258
33791W        W98952  20.493  44.880  14.559
33792W        W98953  37.567  39.430   4.351
33793W        W98954  27.702  22.870   4.574
33794W        W98955  37.377  14.604   0.374
33795W        W98956   2.505  29.611   4.497
33796W        W98957  31.467  15.890  12.176
33797W        W98958   4.995  35.035   1.296
33798W        W98959  26.555  34.668   1.220
33799W        W98960  41.134  30.632  12.099
33800W        W98961  30.303  32.712  13.707
33801W        W98962  15.778   3.328  12.164
33802W        W98963   7.827  24.830  13.746
33803W        W98964  35.586   9.226   0.805
33804W        W98965  37.426  10.808   2.353
33805W        W98966  44.260  44.073   4.675
33806W        W98967  36.722   3.946  13.995
33807W        W98968  41.379   6.956  13.948
33808W        W98969  13.226  28.950   4.145
33809W        W98970  30.646  38.709   4.060
33810W        W98971  11.514  13.937  12.011
33811W        W98972   9.226   7.462   3.333
33812W        W98973   8.770  36.322   0.716
33813W        W98974   3.417  26.896  13.134
33814W        W98975  21.166  35.953  11.583
33815W        W98976  28.714   1.879  11.546
33816W        W98977   6.728  44.922   0.449
33817W        W98978  18.753  18.516  11.120
33818W        W98979   4.444  41.643  13.800
33819W        W98980  25.126  11.073  14.527
33820W        W98981  38.925  32.859   3.091
33821W        W98982  33.037   1.235  14.817
33822W        W98983  41.249  27.572  13.089
33823W        W98984  29.149  14.790   2.214
33824W        W98985  37.546  41.510  11.267
33825W        W98986  18.276  35.928   1.314
33826W        W98987   8.831  41.005   3.329
33827W        W98988  38.355   8.758  14.740
33828W        W98989   5.309  43.929   0.720
33829W        W98990   9.903   1.789   0.794
33830W        W98991  23.685  27.487  11.226
33831W        W98992   4.862  29.320  14.852
33832W        W98993  20.068  22.744   1.940
33833W        W98994  35.069  25.659  10.648
33834W        W98995   1.585  27.174   3.036
33835W        W98996  31.571  18.111   3.944
33836W        W98997  21.262   0.681  12.097
33837W        W98998  16.830   2.225   2.807
33838W        W98999  33.819   7.672  11.591
33839W        W99000  13.125  28.430   0.898
33840W        W99001  22.773  22.720   1.227
33841W        W99002   7.777  28.445  11.582
33842W        W99003  21.856   1.955   4.905
33843W        W99004   4.432  14.315  13.302
33844W        W99005  26.282  29.992   4.538
33845W        W99006  42.983  18.219   1.130
33846W        W99007  33.815  30.078   4.568
33847W        W99008   9.846  44.405   2.674
33848W        W99009  35.040  35.569   1.307
33849W        W99010  22.791  38.856   4.182
33850W        W99011  37.193  19.998   0.722
33851W        W99012  11.705  24.774   4.406
33852W        W99013  38.103  27.485   0.835
33853W        W99014   0.385  42.536   2.198
33854W        W99015  37.880   3.099  11.437
33855W        W99016  11.869  42.328  14.786
33856W        W99017   8.477  41.979   0.170
33857W        W99018  36.301  23.198  13.769
33858W        W99019  33.050  11.562  12.532
33859W        W99020  11.334   8.893  14.292
33860W        W99021   2.746   4.904   3.196
33861W        W99022  34.300   5.098   0.927
33862W        W99023   0.846  44.499  13.365
33863W        W99024  14.096  36.313  10.818
33864W        W99025  42.270   6.816   3.315
33865W        W99026  38.317  27.868  14.355
33866W        W99027   6.575  10.897   2.490
33867W        W99028  22.105  35.140  12.149
33868W        W99029  10.930  37.856   3.818
33869W        W99030  44.802  11.401   0.346
33870W        W99031  26.615  25.100  13.896
33871W        W99032  32.397  17.034   1.310
33872W        W99033  26.265   6.559   4.883
33873W        W99034  13.740  23.605   2.801
33874W        W99035   8.738  29.866  13.112
33875W        W99036  15.876  44.229   1.392
33876W        W99037   2.826  30.894  10.784
33877W        W99038  35.197  16.186  14.395
33878W        W99039   3.050  20.896   2.740
33879W        W99040  33.623  18.528  14.673
33880W        W99041  39.530   0.987   2.800
33881W        W99042  38.854  42.408   0.654
33882W        W99043  19.455  15.330   0.743
33883W        W99044  38.290  20.051  12.592
33884W        W99045  34.341  39.382   2.314
33885W        W99046   7.425  39.507  12.813
33886W        W99047   5.050  22.045   2.251
33887W        W99048  39.750  38.857  12.424
33888W        W99049  34.945  27.514  11.167
33889W        W99050   8.450  17.255  14.807
33890W        W99051  21.020  13.182  14.896
33891W        W99052  10.668   3.692   3.701
33892W        W99053  18.280  29.981  13.833
33893W        W99054  32.163   3.296  12.347
33894W        W99055   6.879   3.748  11.867
33895W        W99056   4.494  11.376  14.034
33896W        W99057  16.670  23.543  14.336
33897W        W99058   2.958  19.622   2.702
33898W        W99059  26.006  25.998   3.321
33899W        W99060  21.774  18.102  14.781
33900W        W99061  24.552  10.431  13.389
33901W        W99062  28.423  30.852   4.092
33902W        W99063   4.382   7.133  12.616
33903W        W99064  42.367  37.776  13.858
33904W        W99065  23.906  36.347   3.316
33905W        W99066   6.696  37.031   2.381
33906W        W99067  10.426  34.525   2.643
33907W        W99068  19.832   8.036   3.792
33908W        W99069   9.771   1.218  14.908
33909W        W99070  17.510  42.454   4.447
33910W        W99071   0.706  26.662  12.446
33911W        W99072  40.118   8.868   1.216
33912W        W99073  22.028   2.900  12.050
33913W        W99074  12.402   3.246   2.729
33914W        W99075  22.358  42.923   5.006
33915W        W99076  17.706  22.789  11.641
33916W        W99077  24.464   5.373   0.337
33917W        W99078   7.353  19.100   3.919
33918W        W99079  33.528  26.015   2.728
33919W        W99080   9.357  36.951  13.753
33920W        W99081  41.190  15.788   0.139
33921W        W99082  22.035  31.995  12.110
33922W        W99083   6.810   9.226  13.368
33923W        W99084  39.134   8.766   0.979
33924W        W99085   4.752  24.295   0.671
33925W        W99086   7.341  43.666   3.719
33926W        W99087  43.856  11.308  13.832
33927W        W99088  31.609  42.332   3.716
33928W        W99089  31.133  34.799  11.236
33929W        W99090  36.568  14.660  11.134
33930W        W99091  11.170  44.600  13.914
33931W        W99092  41.094  28.124  11.696
33932W        W99093  15.303  23.085   1.332
33933W        W99094  30.001  12.350   3.239
33934W        W99095  19.801  37.523   2.223
33935W        W99096  27.546  35.501   1.318
33936W        W99097   9.593   9.654  11.240
33937W        W99098  18.705  29.959   3.620
33938W        W99099  39.202  32.611  10.160
33939W        W99100  24.540  43.276   2.189
33940W        W99101  19.864  20.164  12.428
33941W        W99102  22.528  43.968   2.232
33942W        W99103   9.262  18.348   0.337
33943W        W99104  35.809   3.343   1.246
33944W        W99105  11.021  33.408   2.624
33945W        W99106  33.065  13.040  12.199
33946W        W99107  36.561  17.255   1.743
33947W        W99108  15.547  22.132   0.230
33948W        W99109   1.686   5.890   1.780
33949W        W99110  31.517  15.579  12.616
33950W        W99111   3.786  42.464   3.250
33951W        W99112  39.100  21.656   0.458
33952W        W99113  23.956  42.987  14.910
33953W        W99114  16.008   1.902   2.536
33954W        W99115  11.417  35.303   0.105
33955W        W99116   6.853   6.975  13.805
33956W        W99117  44.754  24.523   1.803
33957W        W99118  33.329   3.543   2.890
33958W        W99119  28.648  38.187   0.219
33959W        W99120  26.693   4.173   4.059
33960W        W99121  11.368  29.173   2.783
33961W        W99122  38.869  25.990   3.268
33962W        W99123  11.471  42.349   0.457
33963W        W99124  31.881  40.774   3.655
33964W        W99125  17.401  14.243  12.489
33965W        W99126   2.420  42.843   3.623
33966W        W99127  27.626  10.768   3.575
33967W        W99128  27.496  12.579  11.202
33968W        W99129  19.596  20.911  14.362
33969W        W99130  19.687  22.921  11.914
33970W        W99131  25.561  31.718   0.848
33971W        W99132  18.000   2.452  12.697
33972W        W99133  11.813  25.136  13.860
33973W        W99134   7.150  44.099  10.976
33974W        W99135  30.671  20.689   0.277
33975W        W99136  33.039  24.253   1.433
33976W        W99137  17.093  30.191   1.948
33977W        W99138  26.520  14.612   4.594
33978W        W99139  33.361  36.094   3.460
33979W        W99140   3.406   2.382   0.761
33980W        W99141  29.877  42.413  14.895
33981W        W99142  10.410   6.849   1.748
33982W        W99143  21.724  28.604   3.195
33983W        W99144  13.654   9.417   4.344
33984W        W99145   2.388  10.890  14.881
33985W        W99146  27.693  24.136   4.427
33986W        W99147  10.436   8.770   1.459
33987W        W99148  30.352  36.658   5.061
33988W        W99149   1.791  12.588  14.752
33989W        W99150  26.336   0.920   2.927
33990W        W99151  28.591  25.588   0.769
33991W        W99152  17.797   2.904  12.840
33992W        W99153  24.790  23.851   1.350
33993W        W99154  23.571  36.276  14.208
33994W        W99155   6.161  37.695  12.504
33995W        W99156  19.275  31.831   2.378
33996W        W99157   4.606  19.512   4.099
33997W        W99158  19.265  33.633  14.301
33998W        W99159   6.316  27.789   2.894
33999W        W99160   8.606  17.019  11.379
34000W        W99161  13.154  36.337  13.315
34001W        W99162   7.940  20.926  14.315
34002W        W99163   9.047   7.419  10.743
34003W        W99164   9.742  22.607   1.930
34004W        W99165   2.276  28.393  14.975
34005W        W99166   2.640  22.131   2.181
34006W        W99167  34.620  16.717   1.347
34007W        W99168  36.361  32.329   0.428
34008W        W99169   8.408  21.188   4.952
34009W        W99170  26.789   0.586  14.033
34010W        W99171  21.320  37.018  12.050
34011W        W99172  15.043  27.025  13.021
34012W        W99173  21.447  24.644   0.817
34013W        W99174  16.841  16.839  11.721
34014W        W99175  30.964  11.500  13.315
34015W        W99176  38.806  28.480  14.317
34016W        W99177  10.347  37.128   4.156
34017W        W99178   4.488  19.334  12.049
34018W        W99179  16.884  15.813  12.483
34019W        W99180  28.635  25.046  14.996
34020W        W99181  41.756  38.895  14.908
34021W        W99182  24.404  17.178   2.432
34022W        W99183  15.237   9.308  14.304
34023W        W99184   6.899   9.464   1.527
34024W        W99185  19.350  32.670  14.771
34025W        W99186  23.105  44.367  12.614
34026W        W99187  17.054  37.606  11.058
34027W        W99188  13.562  24.506  14.839
34028W        W99189  40.296  21.704  12.638
34029W        W99190  20.162  36.841   1.781
34030W        W99191  23.492  16.712  13.691
34031W        W99192  32.562  41.285   2.940
34032W        W99193  18.138  13.053   2.896
34033W        W99194   6.932  20.551  12.393
34034W        W99195  38.986  22.434  10.330
34035W        W99196  17.910   2.887  11.829
34036W        W99197  10.331   8.237  13.919
34037W        W99198  23.307   7.278   2.696
34038W        W99199  41.859  14.573  12.267
34039W        W99200   6.424  39.270  12.613
34040W        W99201  15.373  29.951  13.309
34041W        W99202  39.375  39.788  11.109
34042W        W99203   8.565  30.926   1.771
34043W        W99204  24.123  18.821   0.746
34044W        W99205   0.593  31.124  14.421
34045W        W99206  44.371  25.145  10.792
34046W        W99207  19.344  24.581  10.912
34047W        W99208  34.426  37.505  12.112
34048W        W99209  30.924  34.534  14.442
34049W        W99210  27.203  23.515   1.539
34050W        W99211  38.314  16.610  11.950
34051W        W99212  24.718  41.561   1.133
34052W        W99213  29.216  18.600  12.856
34053W        W99214  41.361   0.835  13.852
34054W        W99215  12.311  16.182  12.958
34055W        W99216   4.345   5.359  12.006
34056W        W99217   3.726  14.999   4.558
34057W        W99218  16.505  40.770  12.857
34058W        W99219   6.162  16.317  11.592
34059W        W99220  30.936  20.083  13.505
34060W        W99221   2.278  16.868   2.745
34061W        W99222  30.993  21.285  11.945
34062W        W99223  22.324   9.370   0.763
34063W        W99224  18.703  22.074  13.859
34064W        W99225  37.805  26.289  11.130
34065W        W99226  18.681  31.015   0.223
34066W        W99227  39.386  33.988   2.755
34067W        W99228  32.485   5.849   0.216
34068W        W99229  22.643   5.190  14.635
34069W        W99230  27.212  17.782  10.731
34070W        W99231  25.128  29.590   2.337
34071W        W99232  18.494  35.436   1.259
34072W        W99233  29.452  31.996  13.621
34073W        W99234  19.277   0.244  14.363
34074W        W99235  21.182  28.086   4.481
34075W        W99236   4.580   5.381   3.156
34076W        W99237  39.776  24.238  14.438
34077W        W99238  28.147  35.286  12.483
34078W        W99239  28.519  16.243   3.224
34079W        W99240  31.804  31.683   2.940
34080W        W99241  24.441   0.989   3.962
34081W        W99242   1.661  18.368  14.190
34082W        W99243  27.912  36.425   4.034
34083W        W99244  40.972   1.716  13.678
34084W        W99245  35.172  37.790   3.585
34085W        W99246  24.490   6.487  12.312
34086W        W99247  15.903   7.010  14.393
34087W        W99248  10.380  20.179   4.159
34088W        W99249  38.455   3.419   3.639
34089W        W99250  26.513  28.926  11.124
34090W        W99251   0.993  43.740   1.816
34091W        W99252  33.301   9.454   3.140
34092W        W99253  18.659  39.687  14.966
34093W        W99254  35.640  19.255  14.092
34094W        W99255  43.788  13.151   3.053
34095W        W99256   9.728  27.118  10.669
34096W        W99257  41.943  35.626  10.627
34097W        W99258  37.902  16.014   2.825
34098W        W99259  32.360  17.015  13.261
34099W        W99260  33.892  17.968  13.541
34100W        W99261  26.640  19.249  12.506
34101W        W99262  15.112   6.798   0.918
34102W        W99263   8.264  17.451   4.702
34103W        W99264   3.758  34.027   3.933
34104W        W99265   0.726   7.013  12.896
34105W        W99266   8.334   8.821   0.998
34106W        W99267  41.436  23.874  14.829
34107W        W99268  33.114  23.472   2.825
34108W        W99269   8.920  28.324  14.280
34109W        W99270  37.767  26.855  12.001
34110W        W99271  19.195  23.153   2.412
34111W        W99272  33.898   0.784   1.140
34112W        W99273   7.262  32.546  14.811
34113W        W99274  12.104  41.731  12.407
34114W        W99275  37.051   3.141   1.136
34115W        W99276  23.638  10.214   2.874
34116W        W99277   2.434   2.637   1.773
34117W        W99278  29.409  27.079  11.085
34118W        W99279   4.060  27.371   5.014
34119W        W99280  42.770   6.844  10.712
34120W        W99281   7.805  19.196   0.523
34121W        W99282  25.663  17.082   0.663
34122W        W99283  44.825   0.023  11.392
34123W        W99284  41.805   1.026   1.826
34124W        W99285  25.790  43.172  14.915
34125W        W99286   6.720  24.257  14.464
34126W        W99287   9.337  32.463  11.660
34127W        W99288  20.823  16.680  14.050
34128W        W99289  34.812  43.437  14.893
34129W        W99290  39.502  44.609  10.299
34130W        W99291  36.462  32.774  13.625
34131W        W99292  41.548  29.694  13.508
34132W        W99293  11.190  40.621  14.923
34133W        W99294  41.719   7.314   3.876
34134W        W99295  44.369  24.137  11.484
34135W        W99296   9.215  34.910   2.609
34136W        W99297  27.185   5.792   2.371
34137W        W99298  34.431  20.735   1.240
34138W        W99299  13.435  19.027  12.902
34139W        W99300  29.250  11.422   0.018
34140W        W99301  11.357  27.088  13.891
34141W        W99302  30.849  18.375   1.233
34142W        W99303  29.103   9.780   2.176
34143W        W99304   5.676  34.387  13.973
34144W        W99305  26.273  31.237  11.548
34145W        W99306  38.025  30.219   2.667
34146W        W99307  34.319  17.052  13.084
34147W        W99308  31.235   9.077  14.427
34148W        W99309   3.216   8.352  14.758
34149W        W99310  36.588  37.798   2.349
34150W        W99311   8.439  10.029   2.913
34151W        W99312  40.731  10.762   4.388
34152W        W99313  32.296  37.687   0.191
34153W        W99314  19.737  18.373   2.594
34154W        W99315  37.640  41.816  12.945
34155W        W99316   3.596  34.009  12.234
34156W        W99317  26.455   0.895  13.462
34157W        W99318  39.428  29.743   0.639
34158W        W99319  15.714   8.416  13.624
34159W        W99320   2.076  32.890   1.317
34160W        W99321  13.521  15.633   5.373
34161W        W99322  31.430   5.984  14.623
34162W        W99323   2.275  26.038   9.514
34163W        W99324   6.152   1.468  11.151
34164W        W99325  10.771   3.711   4.610
34165W        W99326  24.653  28.939   4.777
34166W        W99327  25.583  38.476   0.243
34167W        W99328  29.121  29.596  12.799
34168W        W99329  28.184  22.495   2.239
34169W        W99330  28.570  38.207   4.340
34170W        W99331   9.042  30.193  14.617
34171W        W99332   9.662  22.659  14.909
34172W        W99333  43.088  20.198   4.180
34173W        W99334  25.207  31.089   2.880
34174W        W99335  39.843  34.430  11.147
34175W        W99336  32.691  21.260  12.483
34176W        W99337  35.891  24.459  11.506
34177W        W99338  16.091   9.707  12.554
34178W        W99339  18.781  28.573   3.233
34179W        W99340  33.894  16.046  14.522
34180W        W99341  35.063   5.744  11.074
34181W        W99342  22.826  41.551   0.399
34182W        W99343  27.235   1.883   1.965
34183W        W99344   9.785   5.296  13.895
34184W        W99345  19.878  30.638   3.395
34185W        W99346  41.320  21.308   2.970
34186W        W99347   0.804  15.069  13.012
34187W        W99348  37.870   2.905  12.606
34188W        W99349  29.982   8.846  13.902
34189W        W99350  31.954  13.887   4.210
34190W        W99351   3.036  28.696   1.481
34191W        W99352  13.865   0.523   2.962
34192W        W99353  30.156  14.714   0.192
34193W        W99354   0.250  28.558  13.565
34194W        W99355  30.006  41.918   0.675
34195W        W99356   9.364  24.480   4.702
34196W        W99357   7.268   4.977  10.419
34197W        W99358  39.076  40.568  10.265
34198W        W99359  27.162  43.347  12.965
34199W        W99360  19.634  41.815  12.833
34200W        W99361  37.101  25.493   3.681
34201W        W99362  25.761  18.531   3.614
34202W        W99363  35.468  16.261   1.708
34203W        W99364  36.862  23.775   1.209
34204W        W99365  40.559  34.039  14.311
34205W        W99366  26.619   3.865   4.496
34206W        W99367   0.472  44.511   0.444
34207W        W99368  11.295  37.982  13.609
34208W        W99369  23.097   8.464   5.045
34209W        W99370   0.019  26.004   0.501
34210W        W99371  14.142  14.114  12.496
34211W        W99372  21.732  20.764  13.403
34212W        W99373  21.768   9.607   0.489
34213W        W99374  17.282   0.204  12.959
34214W        W99375   6.380  32.829  11.615
34215W        W99376   7.902  18.119  13.120
34216W        W99377  11.704  24.472  12.084
34217W        W99378  24.676  30.527  12.944
34218W        W99379  35.849   0.446  10.539
34219W        W99380  41.319  10.740   2.156
34220W        W99381  37.847  43.902   2.233
34221W        W99382  29.105  37.266   2.488
34222W        W99383  18.193   8.605  13.076
34223W        W99384  28.240  10.519  10.259
34224W        W99385  19.749  33.083   1.857
34225W        W99386  41.305  19.173   3.406
34226W        W99387   8.796  32.609  12.675
34227W        W99388  36.800   4.217   1.738
34228W        W99389  44.048  44.383   1.965
34229W        W99390   7.086  38.399   4.275
34230W        W99391  38.489  13.326  13.798
34231W        W99392  15.803  37.468  12.566
34232W        W99393  27.878  27.874   1.876
34233W        W99394  40.426   4.850   2.209
34234W        W99395  12.836   0.740   4.284
34235W        W99396  42.348  38.299  12.944
34236W        W99397  39.007  40.289   1.323
34237W        W99398  28.541   1.988  12.956
34238W        W99399  38.086  14.785  14.235
34239W        W99400   8.889  27.019   4.731
34240W        W99401   7.282   3.864   1.278
34241W        W99402  41.945  10.625   0.486
34242W        W99403   6.513  44.063   0.439
34243W        W99404   8.893  22.302   0.371
34244W        W99405  10.861  17.791   3.292
34245W        W99406   4.528  28.684  14.784
34246W        W99407   1.405   5.181   3.135
34247W        W99408  14.266  20.340  12.871
34248W        W99409  43.303  11.424   2.195
34249W        W99410   8.289  40.711  13.972
34250W        W99411  23.665  13.143   1.716
34251W        W99412  15.328  23.281  14.087
34252W        W99413  38.422  43.512   2.852
34253W        W99414  29.378  24.118   2.838
34254W        W99415  10.890  42.555  13.055
34255W        W99416   0.334  27.560   4.222
34256W        W99417   2.845  39.335   0.405
34257W        W99418  10.165  19.533   4.946
34258W        W99419  44.431  43.994  12.782
34259W        W99420  32.966  18.261  14.558
34260W        W99421  19.973  24.110  13.904
34261W        W99422  10.296  25.375   1.775
34262W        W99423  37.853   9.125   2.187
34263W        W99424  26.639  19.863  14.334
34264W        W99425  31.474   1.805  13.442
34265W        W99426  19.443  15.546   4.221
34266W        W99427  11.384  24.647  14.491
34267W        W99428  28.465  24.180  10.676
34268W        W99429  11.885  36.455   2.252
34269W        W99430   0.767  26.787   2.470
34270W        W99431  20.174  25.786   2.309
34271W        W99432  35.383  23.037  10.503
34272W        W99433  28.946  13.214  10.033
34273W        W99434  33.597   9.616   0.808
34274W        W99435  27.440  33.254   0.851
34275W        W99436   6.286  43.202   3.755
34276W        W99437  16.183  29.730   3.641
34277W        W99438   9.426  26.681  13.964
34278W        W99439   6.727  31.581  14.331
34279W        W99440  37.278  38.030   3.083
34280W        W99441   6.651  11.864   0.893
34281W        W99442   8.911   7.862   1.319
34282W        W99443  18.042  10.249   4.143
34283W        W99444   8.100   1.250   4.075
34284W        W99445  22.928  27.338   1.979
34285W        W99446  31.960  42.116   4.060
34286W        W99447  40.636  15.738  10.287
34287W        W99448  10.907  19.152   3.192
34288W        W99449  15.817  14.668   4.816
34289W        W99450  21.890  33.893   2.224
34290W        W99451  30.673  10.689   3.365
34291W        W99452  30.728  21.256  12.496
34292W        W99453  41.363  18.065  11.255
34293W        W99454  18.624  15.076  12.049
34294W        W99455  43.335   3.147  10.304
34295W        W99456   0.509  43.958   3.955
34296W        W99457  10.777  10.211  13.047
34297W        W99458   5.164  18.091  14.466
34298W        W99459  15.637  42.359   2.340
34299W        W99460  42.739  18.483  13.440
34300W        W99461  27.065   3.203   3.220
34301W        W99462  12.250  43.186  14.855
34302W        W99463  12.412   5.281   0.942
34303W        W99464   9.997  41.458   3.716
34304W        W99465  40.985  33.913   2.299
34305W        W99466  18.125  13.698   2.233
34306W        W99467  22.298  20.589  14.501
34307W        W99468  12.595  39.473  12.458
34308W        W99469  32.310  35.399  13.967
34309W        W99470  41.826  27.503   1.901
34310W        W99471  36.577   4.643  12.942
34311W        W99472  21.379  41.944  12.407
34312W        W99473  42.898  23.643   2.686
34313W        W99474  35.220  25.160  10.689
34314W        W99475  42.684  42.069  11.602
34315W        W99476  10.775   6.358  11.610
34316W        W99477  16.227  35.095   4.668
34317W        W99478  41.913  21.567  13.424
34318W        W99479  20.782  19.650   3.750
34319W        W99480   7.888   7.818   4.433
34320W        W99481  16.303   7.317   4.499
34321W        W99482   4.022   0.251  13.809
34322W        W99483  27.768  18.620   2.750
34323W        W99484  18.668  24.117   3.279
34324W        W99485  43.923  44.886   2.724
34325W        W99486   8.305  38.388  14.739
34326W        W99487   9.604  25.607  11.362
34327W        W99488  36.046  35.916  13.443
34328W        W99489  41.866  12.923   0.731
34329W        W99490  30.644  21.712   1.184
34330W        W99491  28.944  15.628  11.551
34331W        W99492  14.305   0.953  10.953
34332W        W99493  38.434  14.744  10.857
34333W        W99494  11.305  17.794   0.229
34334W        W99495  30.134   2.737  14.300
34335W        W99496  42.342  15.189   0.151
34336W        W99497  24.099  33.589  13.408
34337W        W99498  42.541  34.989   3.353
34338W        W99499  37.970  12.717  14.927
34339W        W99500  40.792  25.725  13.741
34340W        W99501  39.753   4.459  11.123
34341W        W99502   4.419   6.250   1.253
34342W        W99503  14.979  16.752   0.718
34343W        W99504  44.248  14.518  14.329
34344W        W99505   8.357  33.993   3.629
34345W        W99506  37.887  25.095   1.897
34346W        W99507   5.803  11.321  11.327
34347W        W99508  36.119  22.077  14.651
34348W        W99509  24.231  39.530  12.495
34349W        W99510  28.186  37.503  10.485
34350W        W99511   9.258  36.139  10.854
34351W        W99512   3.356  35.767   3.131
34352W        W99513  38.347  28.583  11.603
34353W        W99514  21.444  25.031  11.272
34354W        W99515   1.422  16.818  13.915
34355W        W99516  18.313   8.815   2.786
34356W        W99517   4.670   1.442  10.903
34357W        W99518  39.090  44.209   0.952
34358W        W99519  31.061  13.037   2.806
34359W        W99520  18.954  31.520   4.585
34360W        W99521  42.477  23.043  13.958
34361W        W99522  41.930  39.646   0.861
34362W        W99523   6.465  35.509  13.053
34363W        W99524  19.154  22.580   3.688
34364W        W99525   6.970  36.281   2.829
34365W        W99526  36.482   0.835   1.370
34366W        W99527  38.598  11.884   3.235
34367W        W99528  40.099  26.443  14.022
34368W        W99529  11.383  15.310   0.088
34369W        W99530  25.648  22.409  11.762
34370W        W99531  35.551  31.533  13.335
34371W        W99532  34.090  18.838  13.866
34372W        W99533  13.456  26.018   2.716
34373W        W99534  13.642  44.419   4.787
34374W        W99535   8.470  20.598  11.329
34375W        W99536  28.510   0.881  14.371
34376W        W99537  10.332  12.977   1.526
34377W        W99538   6.195  25.478   1.171
34378W        W99539  33.674  11.142   0.631
34379W        W99540  16.078  30.933  12.552
34380W        W99541  42.141   0.467   0.841
34381W        W99542  29.527   4.671  11.123
34382W        W99543   0.956  36.360  13.451
34383W        W99544  28.047  31.477   1.869
34384W        W99545  13.572   4.141  14.573
34385W        W99546  37.574  26.063  11.521
34386W        W99547  31.559  21.657   0.660
34387W        W99548  35.005  39.612  12.432
34388W        W99549   5.800  22.403   2.742
34389W        W99550  36.332   1.752   4.733
34390W        W99551  19.279  10.043  11.192
34391W        W99552  42.792  41.041  11.573
34392W        W99553  12.076  25.998  12.409
34393W        W99554  10.602  25.537  11.247
34394W        W99555   5.800  16.688   4.196
34395W        W99556  39.499  24.220   4.341
34396W        W99557   7.530  43.970  10.645
34397W        W99558  15.867  29.345   3.563
34398W        W99559   6.403   8.242   4.626
34399W        W99560  12.555   5.253   2.861
34400W        W99561  29.633  31.583  13.365
34401W        W99562  22.675  14.891   0.521
34402W        W99563  39.624  37.187   2.303
34403W        W99564  16.299  28.553   3.158
34404W        W99565  10.422  10.870   2.929
34405W        W99566  24.019  26.431  14.973
34406W        W99567  10.791  37.107   3.256
34407W        W99568  37.824   9.177  12.481
34408W        W99569  13.077  15.277  14.960
34409W        W99570  26.729  34.906   4.599
34410W        W99571  41.411  24.703  14.567
34411W        W99572  36.267   4.743   0.872
34412W        W99573  26.618  12.188  14.252
34413W        W99574  25.623  35.433   2.783
34414W        W99575  18.478   3.098  14.064
34415W        W99576   0.935  14.320   1.639
34416W        W99577   5.795  36.243  12.894
34417W        W99578  22.542  18.901   3.661
34418W        W99579  30.947  16.964   3.619
34419W        W99580  30.532  33.060  14.517
34420W        W99581  24.674   2.333  14.301
34421W        W99582   8.902   5.412  12.662
34422W        W99583  25.272  19.139   2.836
34423W        W99584  27.983  30.385   0.584
34424W        W99585  14.464  36.228   2.304
34425W        W99586  18.099   5.652   3.262
34426W        W99587  24.601  18.780  12.146
34427W        W99588  30.975  10.190   3.958
34428W        W99589  16.338  22.521   2.817
34429W        W99590  25.219  41.968  11.069
34430W        W99591  35.973  38.395  13.489
34431W        W99592  23.667  31.139   0.766
34432W        W99593  30.102   0.910   3.368
34433W        W99594   4.947  20.339  14.332
34434W        W99595  43.422  35.036   5.120
34435W        W99596  36.485   0.721  13.098
34436W        W99597  39.104  38.940   4.372
34437W        W99598  30.102  43.308  13.125
34438W        W99599  19.032  35.975   4.604
34439W        W99600  42.064   6.948   1.659
34440W        W99601  13.242  42.475   3.110
34441W        W99602  37.417  16.516   4.522
34442W        W99603  34.866  43.532   1.250
34443W        W99604   9.978   7.789  14.968
34444W        W99605  15.599   8.507  11.783
34445W        W99606  17.108   0.238  12.053
34446W        W99607  12.304  37.939  11.469
34447W        W99608  25.591  35.784   0.362
34448W        W99609   0.725  10.298   1.151
34449W        W99610  28.420   5.821   3.734
34450W        W99611   3.277  19.711   3.657
34451W        W99612   4.701   1.333  11.409
34452W        W99613   6.760  13.163  13.891
34453W        W99614  31.321  24.149   0.464
34454W        W99615  42.033  24.147   2.172
34455W        W99616   9.925  29.391  14.678
34456W        W99617  41.897  37.174   4.206
34457W        W99618  21.387  19.558  11.510
34458W        W99619  22.634  15.288  11.594
34459W        W99620  37.374   7.849  11.508
34460W        W99621   6.401   8.890  14.841
34461W        W99622  42.859  24.133  14.863
34462W        W99623  16.254  39.173  12.566
34463W        W99624   8.943  27.195   0.374
34464W        W99625  27.125  10.488  13.462
34465W        W99626  20.093  43.043   1.476
34466W        W99627  35.823   0.843  13.953
34467W        W99628   3.649   5.479   1.214
34468W        W99629  10.063  26.940   1.696
34469W        W99630  33.040   7.870   3.279
34470W        W99631  29.801  30.969   4.540
34471W        W99632  35.052  18.221  10.173
34472W        W99633   3.252  17.490   3.183
34473W        W99634   0.037  40.847  10.554
34474W        W99635   6.651  11.040   2.004
34475W        W99636   7.796   9.466  14.906
34476W        W99637  20.726  25.231  13.891
34477W        W99638   2.799  43.229   4.275
34478W        W99639   7.488  39.311   1.434
34479W        W99640  31.488  20.198   4.577
34480W        W99641  42.297  19.216   3.158
34481W        W99642  42.031  10.616   3.675
34482W        W99643  28.379  38.337  10.405
34483W        W99644   9.878  43.885   2.317
34484W        W99645  42.624  12.854  12.515
34485W        W99646  13.589  43.692   2.319
34486W        W99647  13.566  20.498  12.198
34487W        W99648  30.055  32.939  12.453
34488W        W99649   0.464  37.926   1.360
34489W        W99650  26.457  31.203  13.935
34490W        W99651  36.282  41.997   2.306
34491W        W99652   0.541  15.294   2.373
34492W        W99653  43.836  44.920  11.376
34493W        W99654  17.761  15.075   1.535
34494W        W99655  35.678  41.053  14.668
34495W        W99656  16.842   8.708  12.972
34496W        W99657  42.772  29.556   1.101
34497W        W99658  18.185  42.048   2.480
34498W        W99659   8.827  35.986  13.284
34499W        W99660  25.457  29.279   2.070
34500W        W99661  40.426  30.802   4.120
34501W        W99662  24.616  15.873  11.499
34502W        W99663  22.796   9.739   2.287
34503W        W99664   1.839  12.773  12.930
34504W        W99665  20.252  13.690   2.090
34505W        W99666  39.643   4.852  14.491
34506W        W99667  28.011   4.446   3.703
34507W        W99668  31.838  29.997   4.039
34508W        W99669   1.019  14.110  13.042
34509W        W99670  33.106   2.909  10.581
34510W        W99671  31.572  27.207   3.288
34511W        W99672  30.907   5.404  11.967
34512W        W99673   3.625  35.843  11.126
34513W        W99674  32.638  15.280   4.209
34514W        W99675  14.042  43.323   3.223
34515W        W99676  23.307  34.016   4.553
34516W        W99677   9.907  34.845  11.554
34517W        W99678   6.044   8.619   1.505
34518W        W99679  36.295   3.927   0.875
34519W        W99680  14.287  40.317  14.467
34520W        W99681   4.485   1.276   4.214
34521W        W99682  35.162  10.616   4.821
34522W        W99683  42.081  34.451   0.440
34523W        W99684   4.882  23.844  13.786
34524W        W99685  25.028  16.988   1.810
34525W        W99686  28.878  37.836   3.285
34526W        W99687  17.245  33.194   4.098
34527W        W99688  22.268  24.761  12.997
34528W        W99689   1.044  27.470  11.538
34529W        W99690  13.318   7.390   0.911
34530W        W99691  20.471  37.338   2.870
34531W        W99692  30.456  18.697   4.846
34532W        W99693  11.700   1.926   0.231
34533W        W99694  24.898  41.328  12.322
34534W        W99695  24.884   9.966   1.696
34535W        W99696  22.220   9.436  13.418
34536W        W99697  30.725   4.613   0.960
34537W        W99698   8.264   9.675   4.328
34538W        W99699  40.982  41.472  13.703
34539W        W99700   7.345  23.187  12.609
34540W        W99701  44.403  10.637   1.103
34541W        W99702  12.238  30.644   2.347
34542W        W99703   9.633  12.351   1.834
34543W        W99704  28.186  26.594   3.127
34544W        W99705  34.429  16.504  11.169
34545W        W99706  30.548  24.151  14.384
34546W        W99707  42.031  38.272   2.729
34547W        W99708  12.113  29.412  10.918
34548W        W99709  15.128  44.363  11.558
34549W        W99710  42.970  36.763   1.918
34550W        W99711  12.790  35.907  11.376
34551W        W99712  41.773  20.327   3.868
34552W        W99713  34.041  13.854  11.177
34553W        W99714   5.088   4.517  11.628
34554W        W99715  38.797   0.325  14.044
34555W        W99716  32.117  27.923   1.900
34556W        W99717   1.437  34.469   0.975
34557W        W99718  23.836  21.101  13.782
34558W        W99719  27.836  26.643  12.811
34559W        W99720  31.096  14.576  12.871
34560W        W99721  41.562   6.188   0.791
34561W        W99722  26.673  44.657  10.698
34562W        W99723  43.189  13.643  13.933
34563W        W99724  30.608  27.219  14.123
34564W        W99725  12.716  27.657  12.959
34565W        W99726   1.841   9.675  14.477
34566W        W99727  14.771  29.491  14.356
34567W        W99728   3.546  20.118   0.832
34568W        W99729   0.811   4.685   3.949
34569W        W99730  21.806  25.275   0.383
34570W        W99731  31.904  21.438  11.508
34571W        W99732  38.287   5.701   2.421
34572W        W99733  23.764   0.266  10.974
34573W        W99734  39.651  18.316  13.907
34574W        W99735  40.498   8.942  10.542
34575W        W99736  14.105   2.031  11.608
34576W        W99737  25.699  17.195  12.437
34577W        W99738  31.604  39.537  14.464
34578W        W99739  10.822  10.454  13.527
34579W        W99740  39.025  14.077  11.612
34580W        W99741   1.913  10.557  14.276
34581W        W99742  20.134   3.380   2.760
34582W        W99743  31.036  19.109   1.243
34583W        W99744  10.301  30.502  14.426
34584W        W99745   4.139  31.118   1.978
34585W        W99746  21.628  14.252  14.949
34586W        W99747  13.676   0.362  14.464
34587W        W99748  31.691  26.029   2.809
34588W        W99749  22.457  34.142   2.714
34589W        W99750  37.825  17.800   0.871
34590W        W99751  41.596  19.020  11.247
34591W        W99752  24.494  26.896   5.036
34592W        W99753  39.400   7.386  12.945
34593W        W99754   7.360  31.949   9.956
34594W        W99755  43.223  23.249  14.476
34595W        W99756   5.715   3.017  14.267
34596W        W99757  16.878  36.085   3.481
34597W        W99758   3.589   7.625  11.541
34598W        W99759  11.516  14.073   4.233
34599W        W99760  20.594  27.328  10.987
34600W        W99761  33.927  21.273   1.778
34601W        W99762  32.518  20.179   4.335
34602W        W99763  36.889  19.668  12.048
34603W        W99764  41.304  39.822   4.134
34604W        W99765  31.551  10.107   1.879
34605W        W99766   0.441  12.419   2.203
34606W        W99767  33.409  32.649  11.169
34607W        W99768  13.539  10.568  11.527
34608W        W99769  41.783  29.446  14.925
34609W        W99770   4.753   2.270   3.721
34610W        W99771  18.496  39.237   0.238
34611W        W99772  34.193  30.855  13.037
34612W        W99773   4.820  19.109  11.185
34613W        W99774  13.606   7.421   2.709
34614W        W99775  22.039  17.095  10.291
34615W        W99776  41.285  25.067   4.183
34616W        W99777  24.484   1.947   1.409
34617W        W99778  30.004  38.782   1.553
34618W        W99779  17.283  42.952   4.342
34619W        W99780  41.009  37.721   2.723
34620W        W99781  23.361  40.156  11.574
34621W        W99782   8.002  36.107   0.961
34622W        W99783  12.858   3.701  13.493
34623W        W99784  14.621  33.316  10.710
34624W        W99785  23.045  37.375  11.613
34625W        W99786  33.417  36.326   0.197
34626W        W99787  32.119  31.963   4.353
34627W        W99788  44.896  13.965  14.223
34628W        W99789  12.268  31.091   2.611
34629W        W99790  10.285  35.800  13.152
34630W        W99791  11.646  19.946   0.075
34631W        W99792  43.738  28.510   2.406
34632W        W99793  11.270  42.740  10.736
34633W        W99794  37.583  30.313   0.011
34634W        W99795  37.908  43.400  13.894
34635W        W99796  37.898   1.215   2.619
34636W        W99797  40.256   8.454   1.467
34637W        W99798  17.135  24.920   2.850
34638W        W99799  33.053  16.070  14.610
34639W        W99800  38.527  15.414  11.747
34640W        W99801  28.434  39.056   0.276
34641W        W99802  28.107  39.550  13.957
34642W        W99803  21.019  15.100   2.603
34643W        W99804  14.744  15.222  10.703
34644W        W99805  15.702  29.381  10.460
34645W        W99806  23.173  16.041   5.632
34646W        W99807   8.968  27.721  14.901
34647W        W99808   1.017  18.730   0.490
34648W        W99809  26.989  26.340  12.997
34649W        W99810   4.112  35.429   1.468
34650W        W99811  38.489  41.438   0.266
34651W        W99812  37.860   2.481   1.202
34652W        W99813  30.337  18.729   3.845
34653W        W99814  29.724  15.338  13.546
34654W        W99815  33.200  31.400   1.718
34655W        W99816   7.643  12.709  10.707
34656W        W99817  29.027  30.229  12.036
34657W        W99818   2.177  15.519  10.505
34658W        W99819  26.720  19.541   3.324
34659W        W99820  20.033  23.128   0.018
34660W        W99821  20.686  19.163   3.562
34661W        W99822  34.601   6.339  11.492
34662W        W99823  13.082  17.685   3.221
34663W        W99824  35.515  31.002   4.344
34664W        W99825   6.448  28.085  13.826
34665W        W99826  44.013  30.950  11.128
34666W        W99827  37.895   6.287   4.687
34667W        W99828  42.386  20.195   0.224
34668W        W99829  12.584  43.917   1.279
34669W        W99830  39.468  30.828   3.315
34670W        W99831   6.767   9.720  14.926
34671W        W99832  11.637  35.982   2.297
34672W        W99833   9.339  24.389   1.954
34673W        W99834  42.363  16.675   4.767
34674W        W99835  12.786  37.832   2.349
34675W        W99836  28.036  33.471   3.865
34676W        W99837  35.849  11.112  10.731
34677W        W99838  11.145  32.359   2.730
34678W        W99839  24.013   3.505  12.474
34679W        W99840   4.792  36.122   0.482
34680W        W99841  16.038   9.256   2.802
34681W        W99842  24.947  39.891   0.826
34682W        W99843  17.888  33.310  10.918
34683W        W99844   8.295  32.458  12.740
34684W        W99845   6.262  36.772  14.886
34685W        W99846  34.846  20.703   2.297
34686W        W99847  43.954   1.992   3.067
34687W        W99848  40.837  40.768   1.735
34688W        W99849   9.257   9.692   1.133
34689W        W99850   0.439  40.831  11.830
34690W        W99851  22.196  40.802   2.386
34691W        W99852  30.651  28.647   2.820
34692W        W99853  35.031  37.988   3.128
34693W        W99854  27.209  31.766  12.438
34694W        W99855  10.833  37.514   0.054
34695W        W99856  42.321  13.341  12.027
34696W        W99857  33.418  39.293   0.256
34697W        W99858  42.076  27.011  11.467
34698W        W99859  19.724  13.802   0.951
34699W        W99860   7.572   2.516  11.121
34700W        W99861  30.081  10.677   0.783
34701W        W99862   4.889  33.909   0.274
34702W        W99863  44.678  17.743  14.957
34703W        W99864  27.718   0.361  12.024
34704W        W99865  42.818  18.206   3.117
34705W        W99866  39.436  16.815  13.711
34706W        W99867  17.515   1.877   3.886
34707W        W99868  30.517  25.729   0.896
34708W        W99869  22.793  41.960  12.861
34709W        W99870   2.143  38.512   2.691
34710W        W99871  20.029  41.544  12.636
34711W        W99872   8.893   6.514  12.101
34712W        W99873  44.051  16.034   3.197
34713W        W99874  16.567  15.507  14.330
34714W        W99875  25.206  13.756   2.908
34715W        W99876  17.047   4.318  10.868
34716W        W99877   9.295  35.395   0.352
34717W        W99878  35.901  39.788  14.895
34718W        W99879   4.814  35.370  14.768
34719W        W99880  36.803  27.296  13.432
34720W        W99881  40.675  31.180  11.161
34721W        W99882  24.567  36.077   2.202
34722W        W99883  17.754  23.740   1.771
34723W        W99884  43.994   0.189  13.006
34724W        W99885   3.643  39.203   4.226
34725W        W99886   4.744  44.173  12.436
34726W        W99887  36.970  41.250  10.652
34727W        W99888  19.290   3.310   0.995
34728W        W99889  42.359  19.498  12.049
34729W        W99890   5.092   1.448   2.841
34730W        W99891  33.250  27.626   3.140
34731W        W99892  12.204  38.454   3.861
34732W        W99893  38.295  16.074  10.885
34733W        W99894  21.244  27.349  12.205
34734W        W99895  18.573  30.512   4.564
34735W        W99896  16.023  36.464  14.055
34736W        W99897  20.718   5.341  11.732
34737W        W99898  25.566   4.413   4.625
34738W        W99899  42.255  16.935  11.732
34739W        W99900  44.425   3.408   0.902
34740W        W99901  10.046   0.341  11.105
34741W        W99902  43.307  40.733  13.856
34742W        W99903  38.334  29.530   4.597
34743W        W99904   3.274  22.643  12.414
34744W        W99905   2.211   5.531   2.942
34745W        W99906  23.588  42.086   1.971
34746W        W99907   6.295  12.278  10.708
34747W        W99908  31.762  34.881  11.930
34748W        W99909  35.910   5.014   2.285
34749W        W99910   4.937   6.760   0.279
34750W        W99911  21.532   5.973  13.024
34751W        W99912  19.757   6.509   0.521
34752W        W99913  19.079  41.455   3.607
34753W        W99914  10.773  29.024   1.128
34754W        W99915   8.805   4.435   0.205
34755W        W99916  32.836  39.041  13.581
34756W        W99917  16.477  18.192  13.673
34757W        W99918  29.556  29.130  13.960
34758W        W99919  20.557  12.418  14.895
34759W        W99920  38.456  19.032   3.113
34760W        W99921  11.706  10.382   4.309
34761W        W99922  42.463  26.896   3.298
34762W        W99923  15.239  14.464  13.137
34763W        W99924   6.003  44.853  11.591
34764W        W99925  44.310  35.135   0.358
34765W        W99926  33.146  11.187  14.398
34766W        W99927   2.866  37.783  12.150
34767W        W99928  35.793   9.480   4.361
34768W        W99929  42.511  37.967   4.196
34769W        W99930  44.263  32.399  12.959
34770W        W99931  29.957  19.753   3.065
34771W        W99932  35.030  33.493   0.332
34772W        W99933  26.471  32.957   1.732
34773W        W99934  32.903  34.013  11.546
34774W        W99935  25.193  43.394   1.940
34775W        W99936   6.040  18.730   2.215
34776W        W99937  40.936  31.874   2.279
34777W        W99938  28.454  22.090   2.426
34778W        W99939  21.352  14.597   0.889
34779W        W99940  23.159   3.376   3.241
34780W        W99941  37.835  24.734   4.227
34781W        W99942  35.361  23.999   0.006
34782W        W99943  14.654   1.529   2.135
34783W        W99944  36.135   8.800   0.399
34784W        W99945  39.157  30.647   1.043
34785W        W99946  42.839  29.423   3.254
34786W        W99947   7.750  40.239   4.304
34787W        W99948   3.690  38.563  13.416
34788W        W99949  17.296  31.840   2.255
34789W        W99950  41.747  42.947   2.729
34790W        W99951  34.899  16.006  14.900
34791W        W99952  10.882   6.222   3.698
34792W        W99953  24.934  28.753  13.933
34793W        W99954  30.695  39.824   3.165
34794W        W99955  35.776  29.899  14.369
34795W        W99956   8.669   9.273  12.992
34796W        W99957  14.059  30.088   0.779
34797W        W99958  34.386  32.962   2.750
34798W        W99959   4.983   6.387  14.882
34799W        W99960  21.149  11.147  14.096
34800W        W99961  16.144  12.126   1.724
34801W        W99962  44.950  36.362   1.355
34802W        W99963   6.179  24.612   0.472
34803W        W99964  36.438  39.335   2.267
34804W        W99965  23.152   1.211  14.893
34805W        W99966   1.792  36.484   2.238
34806W        W99967  25.162   9.314   2.673
34807W        W99968  13.068  22.664   4.146
34808W        W99969  37.246  11.857  13.687
34809W        W99970   3.640  27.179  10.758
34810W        W99971  10.375  37.520   2.747
34811W        W99972  22.482  26.676  14.005
34812W        W99973   6.442  30.126   0.385
34813W        W99974   1.647  21.288  13.702
34814W        W99975  41.559  24.612  13.033
34815W        W99976  19.117   8.314   4.459
34816W        W99977  18.822  11.182  14.916
34817W        W99978  33.612   4.908   4.723
34818W        W99979  34.530  22.317   3.754
34819W        W99980  33.849  32.459   2.195
34820W        W99981  41.693  14.189  14.060
34821W        W99982  38.101  41.430  12.812
34822W        W99983   4.126  23.625  14.136
34823W        W99984   0.237  27.716   2.465
34824W        W99985   4.650  40.413  11.943
34825W        W99986  23.550  24.460   0.859
34826W        W99987  10.856  33.971  10.608
34827W        W99988  35.978  36.311   3.701
34828W        W99989  26.430   2.603  10.961
34829W        W99990  13.847  25.136  11.423
34830W        W99991   6.176  39.836   4.086
34831W        W99992  10.373  14.291  11.203
34832W        W99993  41.308  20.816   0.759
34833W        W99994  16.799  19.558  11.621
34834W        W99995   3.960  44.154  14.919
34835W        W99996  43.859  15.038  11.527
34836W        W99997  23.830  41.222   0.332
34837W        W99998   9.718  13.861   3.501
34838W        W99999  27.020  11.289  13.761
34839W        W    0  42.327  36.908   2.281
34840W        W    1  43.267   3.350  12.533
34841W        W    2   4.499  36.115   2.822
34842W        W    3  36.593  43.212   3.665
34843W        W    4  21.118  21.981  13.276
34844W        W    5   2.312  17.619   4.187
34845W        W    6   2.955  11.340   1.374
34846W        W    7   4.479  20.688  12.479
34847W        W    8   7.744  21.025   4.231
34848W        W    9   8.413  30.189   1.323
34849W        W   10  11.893   1.432  14.558
34850W        W   11   8.267  19.125   3.795
34851W        W   12   9.962  36.462  12.125
34852W        W   13  41.856  41.838   4.819
34853W        W   14  26.681   4.497   2.224
34854W        W   15   4.919  44.400   3.140
34855W        W   16  21.132  12.997   3.528
34856W        W   17  43.652  13.347  10.215
34857W        W   18   9.880  20.736  11.454
34858W        W   19   2.425   4.575   1.409
34859W        W   20  10.815  26.604   3.620
34860W        W   21  43.493  36.923  14.489
34861W        W   22   2.404  12.052  11.200
34862W        W   23  27.052   9.359   1.754
34863W        W   24  12.734  13.414   2.424
34864W        W   25   4.918   5.609  13.841
34865W        W   26  43.966   8.006   4.250
34866W        W   27  30.405  24.513   1.606
34867W        W   28  40.930  28.692  13.665
34868W        W   29  27.699  28.622   2.849
34869W        W   30  34.154  25.131  12.455
34870W        W   31  31.216  21.180  13.459
34871W        W   32  10.623  21.240   3.738
34872W        W   33  15.374  14.873   4.723
34873W        W   34   9.359   3.146   3.256
34874W        W   35  43.798  32.425  13.499
34875W        W   36  22.233  15.949  11.653
34876W        W   37  23.064  16.653   3.743
34877W        W   38  16.233  25.241  10.668
34878W        W   39  38.956  29.974   3.666
34879W        W   40  30.766  22.978  12.888
34880W        W   41  23.166  31.006  12.016
34881W        W   42  12.620   6.574  11.089
34882W        W   43  22.262   1.574   2.620
34883W        W   44  20.065  44.851   4.617
34884W        W   45   9.132  36.830  12.817
34885W        W   46  41.282  28.697   2.113
34886W        W   47  30.689  42.632  10.299
34887W        W   48  32.043  14.681  11.943
34888W        W   49  15.758   8.924   1.173
34889W        W   50   7.149  43.362  11.224
34890W        W   51   8.272   6.342   0.516
34891W        W   52  43.437  17.804   3.152
34892W        W   53  27.533  28.841   4.428
34893W        W   54  14.420  27.472  11.648
34894W        W   55  23.600  20.689  14.971
34895W        W   56  42.147  18.490   0.212
34896W        W   57  30.637  42.458   4.586
34897W        W   58  17.089  39.287   3.648
34898W        W   59  22.678  26.889   1.846
34899W        W   60  35.877   3.748   1.610
34900W        W   61  29.702  15.319  14.429
34901W        W   62  15.325  41.252   4.446
34902W        W   63  34.696  12.681   2.589
34903W        W   64  30.846  34.461   0.824
34904W        W   65  43.893  42.931  12.601
34905W        W   66  41.231  29.903   4.650
34906W        W   67  23.696  28.746   1.362
34907W        W   68   7.870  37.144  14.587
34908W        W   69  31.543  36.574  13.336
34909W        W   70  27.539   3.693   3.788
34910W        W   71  35.050  15.174   4.512
34911W        W   72  33.951  14.611   2.823
34912W        W   73   1.375   1.310   2.315
34913W        W   74  12.645  18.548   5.130
34914W        W   75  25.043  16.079   1.646
34915W        W   76  30.913  15.519   0.740
34916W        W   77  24.653  35.382  11.122
34917W        W   78  31.046  11.100   3.822
34918W        W   79  11.890   1.810   4.116
34919W        W   80  10.128  34.447  11.796
34920W        W   81  15.331   8.662   1.204
34921W        W   82  22.656  21.599  11.940
34922W        W   83   0.487   1.318   4.086
34923W        W   84  36.140  43.167  10.439
34924W        W   85   9.335  30.014   3.168
34925W        W   86  12.088   3.845  12.051
34926W        W   87  31.619  26.680  12.033
34927W        W   88  38.490  23.319  13.511
34928W        W   89  25.556  17.755   2.897
34929W        W   90  17.659  38.379   0.945
34930W        W   91  22.434  42.602  13.866
34931W        W   92  44.873  11.324  12.005
34932W        W   93   4.144   3.487  14.054
34933W        W   94  44.417   9.193  13.755
34934W        W   95  12.854   5.917   1.786
34935W        W   96  39.109  34.975  11.982
34936W        W   97  36.789  13.638  13.116
34937W        W   98  37.365  33.986  13.054
34938W        W   99  39.175   7.293   0.511
34939W        W  100  30.507  10.238  14.237
34940W        W  101   5.975  17.690  11.238
34941W        W  102  16.860  31.394  13.369
34942W        W  103  18.737  37.580   0.714
34943W        W  104   0.520  18.330   1.468
34944W        W  105  37.012  32.835   3.555
34945W        W  106  28.093  34.290  13.534
34946W        W  107  28.186  13.366  13.392
34947W        W  108  11.613  34.894  12.563
34948W        W  109  30.041  13.532  11.152
34949W        W  110  16.085  34.537  14.540
34950W        W  111   1.753  22.523  11.232
34951W        W  112   4.775  37.112  13.918
34952W        W  113  42.243  43.286   1.124
34953W        W  114  13.993  42.211   0.861
34954W        W  115   2.906   8.728   1.959
34955W        W  116   2.407  41.593   3.877
34956W        W  117   2.300  41.419  12.359
34957W        W  118  39.498  29.039  14.722
34958W        W  119   9.737   7.307  14.947
34959W        W  120  23.535  27.979   4.624
34960W        W  121  33.900  43.431  11.636
34961W        W  122  17.196  30.922   2.406
34962W        W  123   5.957  14.879  10.934
34963W        W  124  31.699  44.899  11.625
34964W        W  125   2.727  11.745   2.255
34965W        W  126  24.249   4.332   1.624
34966W        W  127  13.582   4.250  12.447
34967W        W  128  42.042  31.626   4.889
34968W        W  129   6.622  40.196  12.391
34969W        W  130  10.657  42.781   0.238
34970W        W  131  26.424   1.498  13.875
34971W        W  132  12.407   2.836  12.535
34972W        W  133  38.797  11.345   2.704
34973W        W  134  30.607   5.423   2.233
34974W        W  135  40.384   9.424  13.857
34975W        W  136  21.474  20.515   2.169
34976W        W  137   5.395   0.444   4.558
34977W        W  138  20.953  22.338   3.147
34978W        W  139   4.770  10.252   3.703
34979W        W  140  22.439  35.138   0.452
34980W        W  141  30.615  14.090  14.826
34981W        W  142  28.743  27.775  13.961
34982W        W  143  38.361  20.060   2.873
34983W        W  144   6.396  17.442   0.968
34984W        W  145  18.066  24.554  13.940
34985W        W  146  37.378  20.643  11.165
34986W        W  147  13.861  28.062   1.664
34987W        W  148  28.648  36.788  11.069
34988W        W  149  25.885  21.172   0.764
34989W        W  150   5.377  11.074  11.207
34990W        W  151  34.329   5.023   2.685
34991W        W  152  12.485   8.182  13.308
34992W        W  153  44.227   3.782   1.652
34993W        W  154  33.845   3.461  10.726
34994W        W  155  27.009   3.594  10.329
34995W        W  156  20.079  32.635  11.182
34996W        W  157  11.826   7.636   3.578
34997W        W  158  28.009  23.233   3.661
34998W        W  159   4.012  35.299  12.102
34999W        W  160  42.754  13.067  14.997
35000W        W  161  27.274  15.278   2.188
35001W        W  162  17.345  23.471   4.927
35002W        W  163  26.077  38.929  10.581
35003W        W  164  15.300   7.492   4.446
35004W        W  165   8.967  40.966  10.621
35005W        W  166  15.656  10.697  12.620
35006W        W  167  31.074   6.392   1.340
35007W        W  168  41.443  43.777   1.230
35008W        W  169  27.017  12.944  11.966
35009W        W  170  18.194  10.716  11.083
35010W        W  171   5.216  37.554   2.161
35011W        W  172  41.478  25.738  14.431
35012W        W  173  25.106  30.170   1.263
35013W        W  174  27.940   5.386  12.338
35014W        W  175   2.362  44.221  11.596
35015W        W  176   9.810  17.955  13.811
35016W        W  177  20.551  15.673  14.506
35017W        W  178   5.166  41.851   2.165
35018W        W  179   9.896  34.638   0.856
35019W        W  180  13.528  18.940  14.962
35020W        W  181  15.529  22.133   1.262
35021W        W  182  22.087  25.479   2.849
35022W        W  183   3.876  41.003  11.009
35023W        W  184  31.796  22.270  12.581
35024W        W  185  10.380  40.896   3.272
35025W        W  186  16.381  29.552   1.590
35026W        W  187  20.964  36.432   0.869
35027W        W  188  25.993  35.460  14.918
35028W        W  189  27.194  27.976   4.537
35029W        W  190  42.028  32.451   0.335
35030W        W  191  22.747  15.894   1.390
35031W        W  192  43.354  28.641   4.626
35032W        W  193  38.317  39.075  13.895
35033W        W  194  43.851  10.670  10.898
35034W        W  195  40.077   7.138  14.512
35035W        W  196  10.290  44.518   1.760
35036W        W  197   8.516  34.923   5.068
35037W        W  198  16.116  19.267   3.046
35038W        W  199  29.581  43.226  11.515
35039W        W  200   9.115  33.057  13.880
35040W        W  201  11.162  23.554   0.305
35041W        W  202  44.662  26.386  10.070
35042W        W  203  24.595  40.410  14.749
35043W        W  204   1.623  37.168   5.419
35044W        W  205  11.198  42.809  11.570
35045W        W  206  22.388  24.941  12.090
35046W        W  207  42.881  26.542   0.485
35047W        W  208  17.991  13.772   1.383
35048W        W  209  30.644  35.463  11.654
35049W        W  210  15.820  29.487  11.666
35050W        W  211  42.495   0.298   0.122
35051W        W  212  10.300  16.002   0.531
35052W        W  213  24.749   2.977  14.803
35053W        W  214   0.009  44.061   1.808
35054W        W  215  18.734  19.223  13.091
35055W        W  216  42.423  11.640  14.752
35056W        W  217  29.083  19.842   1.912
35057W        W  218  37.029   6.895   1.526
35058W        W  219  23.534  28.498   0.374
35059W        W  220  13.170  28.938   3.223
35060W        W  221  33.962  31.500   2.446
35061W        W  222  28.473  30.579   0.842
35062W        W  223  33.546  36.501  10.982
35063W        W  224   7.612  19.585  10.251
35064W        W  225  44.463  27.183  12.416
35065W        W  226  41.316   9.359  11.550
35066W        W  227  13.759   3.810   4.877
35067W        W  228  31.123   8.783  14.012
35068W        W  229  44.859   7.632  11.165
35069W        W  230  24.576   8.787   0.836
35070W        W  231  29.213  23.418   1.305
35071W        W  232   5.970  26.343  11.990
35072W        W  233  20.665  32.958   2.972
35073W        W  234  31.056   5.842   1.746
35074W        W  235  27.438  10.584   5.402
35075W        W  236  17.580  28.948  12.790
35076W        W  237  41.080   7.197  12.037
35077W        W  238  42.287   2.312   4.775
35078W        W  239  35.277  12.673  11.136
35079W        W  240   1.960   5.273  10.742
35080W        W  241  42.372  39.817   3.349
35081W        W  242   7.145   9.129  10.904
35082W        W  243   1.869  10.295  13.742
35083W        W  244  41.302  15.784   0.671
35084W        W  245  34.022  42.957   4.524
35085W        W  246   0.360  43.581  13.148
35086W        W  247  20.741  14.549   2.576
35087W        W  248   0.707  29.392  13.793
35088W        W  249   3.173  12.565   3.684
35089W        W  250  24.085  25.178   1.155
35090W        W  251  26.608  35.933  12.885
35091W        W  252   6.994   8.797  12.995
35092W        W  253  15.767  11.748   0.377
35093W        W  254  42.028   8.726  10.626
35094W        W  255  27.613  26.999   2.248
35095W        W  256  17.381   4.620  12.958
35096W        W  257  12.169  24.514  13.807
35097W        W  258  43.304   8.334   1.220
35098W        W  259  25.508  17.794   0.166
35099W        W  260  20.992  14.886   3.839
35100W        W  261  26.641  16.808  14.270
35101W        W  262  20.064  18.187  12.665
35102W        W  263   5.060   6.118   1.607
35103W        W  264  17.569  13.675  14.696
35104W        W  265  21.537  20.643  11.032
35105W        W  266   0.740  32.757  12.796
35106W        W  267  36.848   1.836   4.848
35107W        W  268  25.387  26.134   4.115
35108W        W  269  40.964  21.382   3.814
35109W        W  270  17.015  38.126   4.742
35110W        W  271  22.105  39.358   4.584
35111W        W  272  35.031  44.241  10.317
35112W        W  273  41.392  27.131   2.666
35113W        W  274  39.236  34.029  11.623
35114W        W  275   0.163  15.407   3.647
35115W        W  276  29.915  42.157   2.233
35116W        W  277  18.743  35.816  13.433
35117W        W  278  22.296   4.244   0.346
35118W        W  279  18.662   4.341   3.401
35119W        W  280   7.600  28.182   4.479
35120W        W  281  38.010  37.444   2.892
35121W        W  282  42.371  23.137  14.452
35122W        W  283  15.186  16.552   1.145
35123W        W  284  31.195  30.546   1.235
35124W        W  285  43.016  44.309   0.723
35125W        W  286  17.131  23.113   3.303
35126W        W  287  24.806  16.379  13.420
35127W        W  288  10.040  16.377   1.029
35128W        W  289  14.541  41.758   4.086
35129W        W  290  40.799  43.466   2.441
35130W        W  291   6.447  17.472  13.080
35131W        W  292  17.527  13.760  13.742
35132W        W  293   3.691  18.912   4.885
35133W        W  294  26.897  19.132  11.988
35134W        W  295  39.243  41.748   1.496
35135W        W  296  38.010  25.700   0.753
35136W        W  297  15.998  30.234   0.804
35137W        W  298   3.309  39.771  11.857
35138W        W  299  25.188  21.084  12.171
35139W        W  300  39.402  26.137  12.906
35140W        W  301   7.557   9.741  14.504
35141W        W  302  12.222   6.455  14.412
35142W        W  303  38.991   7.304   3.374
35143W        W  304  40.423  23.530  14.373
35144W        W  305   4.685  15.857  10.720
35145W        W  306  32.564  36.334   0.242
35146W        W  307  15.133   1.680   3.741
35147W        W  308   6.191  32.831  14.327
35148W        W  309  44.991  17.178  13.501
35149W        W  310   2.972   3.347   4.719
35150W        W  311  38.349  44.688   2.207
35151W        W  312   0.410  19.849  12.425
35152W        W  313  10.871   5.464  13.393
35153W        W  314  33.253   5.807  10.207
35154W        W  315   5.189  33.078  13.902
35155W        W  316  14.951  12.955  13.939
35156W        W  317  15.669   6.369  11.438
35157W        W  318  11.766  24.354   1.338
35158W        W  319   4.725  35.589   0.443
35159W        W  320  22.418  36.006  11.912
35160W        W  321  19.027  32.415  10.424
35161W        W  322  31.921  38.564   5.044
35162W        W  323   8.372   3.733   4.474
35163W        W  324   6.361  17.497  12.561
35164W        W  325  12.790  34.008   3.813
35165W        W  326  40.018  38.676  14.249
35166W        W  327  39.476  29.974  14.782
35167W        W  328  39.579  22.599  13.396
35168W        W  329  11.384  30.721   4.579
35169W        W  330   7.423   8.707   4.563
35170W        W  331   7.668   8.247   0.978
35171W        W  332   8.088  21.769  14.009
35172W        W  333  36.142  29.426   2.826
35173W        W  334  29.003  22.273  10.771
35174W        W  335  16.062  22.264  14.369
35175W        W  336   2.544  31.976  11.183
35176W        W  337   5.960  23.636   3.249
35177W        W  338  38.998  11.709  14.052
35178W        W  339  29.651  18.805   4.396
35179W        W  340  15.311  17.669   0.488
35180W        W  341  33.697  34.424   0.253
35181W        W  342   0.924  26.479   0.374
35182W        W  343   1.965  15.296   4.131
35183W        W  344   6.204  17.991  12.580
35184W        W  345  28.695  18.793  12.006
35185W        W  346  44.941   9.613   0.525
35186W        W  347  34.028  28.654  10.663
35187W        W  348  31.274  17.765   3.167
35188W        W  349  18.083  40.228  12.934
35189W        W  350  41.501  35.171  13.434
35190W        W  351  37.923  19.750   4.603
35191W        W  352  20.940   6.995  13.442
35192W        W  353  29.019  19.808   2.808
35193W        W  354  18.828  34.754   1.715
35194W        W  355   4.716  23.304   3.053
35195W        W  356  37.050  12.246  13.111
35196W        W  357  40.366  21.564   4.461
35197W        W  358   3.200  44.274   1.502
35198W        W  359  19.625  36.644   2.239
35199W        W  360  23.976  12.641  11.953
35200W        W  361  17.119  11.357   3.653
35201W        W  362  43.936  18.235   1.067
35202W        W  363   7.655   2.404   4.658
35203W        W  364  19.155  31.736  14.500
35204W        W  365  29.515  26.042   1.913
35205W        W  366  20.191  18.174   3.459
35206W        W  367  19.953  41.313  10.489
35207W        W  368  36.077   6.442  13.857
35208W        W  369  15.526  19.403   1.979
35209W        W  370  37.909  24.790  10.964
35210W        W  371  33.683  35.791   1.639
35211W        W  372  26.164  12.558   1.355
35212W        W  373  15.349  22.581  10.643
35213W        W  374  12.834  25.160   4.140
35214W        W  375  29.939  36.800   1.184
35215W        W  376  36.448  33.475   4.707
35216W        W  377  24.584  36.988  11.533
35217W        W  378  28.880  11.140  13.580
35218W        W  379  38.008  29.940  14.253
35219W        W  380   0.319   8.014   4.555
35220W        W  381  38.911  25.546  13.348
35221W        W  382  13.781  17.777  12.528
35222W        W  383  31.097  26.627   1.906
35223W        W  384   7.859  16.166  12.908
35224W        W  385  36.552  19.570   4.169
35225W        W  386  25.976  37.254   0.653
35226W        W  387  18.995  25.177  14.926
35227W        W  388  13.156   9.545  13.428
35228W        W  389   8.279  26.202  11.603
35229W        W  390  32.148   2.989   1.210
35230W        W  391   6.280  26.673   1.911
35231W        W  392  10.490   5.332   4.177
35232W        W  393   5.965  16.030  13.453
35233W        W  394  42.382   5.723   1.353
35234W        W  395  41.987  32.001  11.731
35235W        W  396  17.578  30.998  13.580
35236W        W  397  23.462  15.528   3.588
35237W        W  398  12.566   6.133   0.433
35238W        W  399   4.827  24.588  10.703
35239W        W  400  31.580   1.294  11.516
35240W        W  401  38.804  17.768   5.008
35241W        W  402   5.933  26.428   9.647
35242W        W  403  40.324  42.766   3.774
35243W        W  404  15.086  35.227  14.768
35244W        W  405   7.443  22.433   0.032
35245W        W  406  15.189   4.763  13.589
35246W        W  407  16.272  19.694  14.030
35247W        W  408  28.163  33.758  13.521
35248W        W  409  19.766  33.397   4.263
35249W        W  410   6.934  30.656   5.120
35250W        W  411   8.020  42.326  12.496
35251W        W  412  27.782  33.003  12.064
35252W        W  413  11.713  28.024  10.863
35253W        W  414  33.953   6.584  14.685
35254W        W  415  35.019  29.774  11.158
35255W        W  416  38.139  41.551   4.526
35256W        W  417  35.936   1.868  13.856
35257W        W  418  36.815  14.777   1.003
35258W        W  419   8.565  18.787  13.014
35259W        W  420  40.492  10.859   1.267
35260W        W  421   6.935  38.068  12.947
35261W        W  422  15.740   2.292  14.038
35262W        W  423  36.263  38.345   4.992
35263W        W  424  23.379  15.772   3.047
35264W        W  425  33.098  28.649  11.644
35265W        W  426   2.427   8.606   1.785
35266W        W  427  33.286   6.116   4.842
35267W        W  428  10.203  11.112   0.261
35268W        W  429  25.626  13.361   5.204
35269W        W  430  10.971  19.028   2.210
35270W        W  431  26.412  33.095   4.469
35271W        W  432   5.858  32.394  13.835
35272W        W  433  14.548   0.449  14.315
35273W        W  434  32.951  25.740  11.669
35274W        W  435  36.574  23.105   4.327
35275W        W  436  35.502   1.095  14.301
35276W        W  437  41.765   5.297   4.425
35277W        W  438  27.274  44.045  10.365
35278W        W  439  37.023  42.033   4.109
35279W        W  440  27.428   9.611  12.469
35280W        W  441  29.835   8.906   4.598
35281W        W  442  22.094  35.831  11.564
35282W        W  443   4.305  23.908   3.820
35283W        W  444   4.036  30.900  12.883
35284W        W  445  10.350   1.465  14.083
35285W        W  446   0.655  35.463   1.242
35286W        W  447  30.451   1.034  12.786
35287W        W  448  41.347  39.835   0.206
35288W        W  449  41.497  34.109   2.226
35289W        W  450  35.390   2.205   0.339
35290W        W  451  12.550  20.061   0.672
35291W        W  452   2.887  21.016  14.474
35292W        W  453   8.450  28.413  11.190
35293W        W  454  21.750   8.781  13.768
35294W        W  455  42.899  20.196  11.669
35295W        W  456  19.805  27.007   1.006
35296W        W  457   3.056  40.998   0.468
35297W        W  458  11.178  11.385  11.087
35298W        W  459  33.594   8.692   0.518
35299W        W  460   6.715  32.862  11.114
35300W        W  461  25.279   9.408  12.073
35301W        W  462  30.086  27.657   0.780
35302W        W  463  16.436  23.341   4.825
35303W        W  464   7.412  37.436  10.637
35304W        W  465   4.319  25.970   0.805
35305W        W  466  19.740   0.371  13.072
35306W        W  467  34.132  16.939  14.282
35307W        W  468  33.130   6.281   4.234
35308W        W  469   0.838  22.655  12.077
35309W        W  470   6.157  42.471   2.243
35310W        W  471  20.989  11.087   1.254
35311W        W  472  29.497  39.126   1.458
35312W        W  473   0.735  37.242  14.921
35313W        W  474  23.913  33.107   2.406
35314W        W  475  20.151  14.339   1.326
35315W        W  476   2.391  43.284  14.376
35316W        W  477   1.805  23.153   1.215
35317W        W  478  33.145  23.658  12.161
35318W        W  479  12.610  15.150  10.634
35319W        W  480  35.488  11.648  13.066
35320W        W  481  13.124   2.178  10.724
35321W        W  482  16.751  23.257  12.475
35322W        W  483  19.780  22.237   2.789
35323W        W  484  39.253  35.394   1.453
35324W        W  485  13.439  18.910   3.707
35325W        W  486  20.019  26.931   1.692
35326W        W  487  10.357  30.554  13.511
35327W        W  488  36.613  26.645   0.960
35328W        W  489  32.889  25.166   3.489
35329W        W  490  40.510  38.809   4.027
35330W        W  491  31.243  18.089  11.455
35331W        W  492   7.515  23.518  11.195
35332W        W  493  17.490  22.071   0.296
35333W        W  494  14.170  35.412   2.867
35334W        W  495  24.441   1.863  11.462
35335W        W  496   7.259  34.868   1.357
35336W        W  497   6.880  10.422   1.257
35337W        W  498   2.344  14.838   2.604
35338W        W  499  44.096  40.978   5.116
35339W        W  500  23.213  21.024  10.668
35340W        W  501  27.241  28.587   0.782
35341W        W  502  28.291  10.252   1.325
35342W        W  503   9.103   8.713   0.475
35343W        W  504  34.924  43.118  11.686
35344W        W  505  24.277  42.785  11.165
35345W        W  506  40.422  11.030  14.297
35346W        W  507  16.295  21.045   4.515
35347W        W  508  25.971  25.570   2.496
35348W        W  509  16.471  37.495  14.490
35349W        W  510  41.340  18.448  13.133
35350W        W  511   1.536  10.362  11.919
35351W        W  512  13.045  42.442   2.637
35352W        W  513  19.462  13.872   0.265
35353W        W  514  21.715  34.456   4.557
35354W        W  515   7.920  41.498  11.495
35355W        W  516  12.093  20.738  14.222
35356W        W  517  28.431  20.528   0.373
35357W        W  518   6.531   7.597   1.467
35358W        W  519  14.801   7.128   4.518
35359W        W  520  13.980  38.385  11.142
35360W        W  521  22.510  16.761  11.318
35361W        W  522  16.841  29.012  13.300
35362W        W  523  37.613  40.095  12.504
35363W        W  524  21.990   2.357  11.595
35364W        W  525  29.705  41.497   0.505
35365W        W  526   5.047  18.003   3.166
35366W        W  527  21.701  40.640   2.362
35367W        W  528  18.833  39.274   4.073
35368W        W  529   4.729  10.053  14.818
35369W        W  530  23.230   2.201   3.182
35370W        W  531  35.859   3.451  10.669
35371W        W  532  17.142  36.393  14.634
35372W        W  533  25.043  38.875   3.185
35373W        W  534  15.590  25.705   1.711
35374W        W  535  27.185  34.079   1.409
35375W        W  536  29.123  31.423  14.278
35376W        W  537  43.790  31.792  14.644
35377W        W  538  24.479  36.772   5.084
35378W        W  539  44.002  44.539  10.460
35379W        W  540  39.349   3.734   4.152
35380W        W  541  19.165  32.138   3.218
35381W        W  542  13.309   2.511   2.315
35382W        W  543  31.439  43.562   1.832
35383W        W  544  43.405  18.340  11.544
35384W        W  545  36.546  12.124   4.118
35385W        W  546  21.051  27.384  10.038
35386W        W  547  14.580  14.713  10.667
35387W        W  548  21.750  35.342  13.919
35388W        W  549  10.886   6.882  10.953
35389W        W  550   9.399   3.317  14.241
35390W        W  551  10.744  22.923   2.677
35391W        W  552   3.487  40.225   5.126
35392W        W  553  10.863  21.089   4.174
35393W        W  554  28.111  43.597  14.513
35394W        W  555  11.882  32.354   4.245
35395W        W  556  27.895  14.198   3.615
35396W        W  557   6.865  17.837   2.161
35397W        W  558   0.934  19.144  13.886
35398W        W  559  21.465  33.198  11.327
35399W        W  560   8.694   9.699  11.630
35400W        W  561   1.170   6.585  10.670
35401W        W  562  41.819   6.601   3.217
35402W        W  563   5.484  28.045   2.744
35403W        W  564   9.244  16.730   3.139
35404W        W  565  37.952  31.170   2.713
35405W        W  566  26.032  43.014  11.642
35406W        W  567   3.562   1.442  11.899
35407W        W  568  44.477  32.010   3.676
35408W        W  569  15.663  16.117  10.667
35409W        W  570   1.992  28.890  12.539
35410W        W  571  11.381  19.222  12.984
35411W        W  572   1.657   9.950  12.945
35412W        W  573   1.915  14.555   5.466
35413W        W  574  22.894  36.487   2.240
35414W        W  575  20.764  37.798   1.414
35415W        W  576  18.488  31.848  13.411
35416W        W  577   7.421  40.924  14.496
35417W        W  578  43.541   7.270   0.392
35418W        W  579  16.715  19.257   0.253
35419W        W  580  42.543  34.130  12.873
35420W        W  581  26.678  16.177   1.296
35421W        W  582   4.539   6.812   1.318
35422W        W  583  28.981  18.174   4.099
35423W        W  584  12.197  35.334  11.995
35424W        W  585   7.186   8.254  10.626
35425W        W  586  23.740   3.008   1.469
35426W        W  587  19.511   4.907  10.213
35427W        W  588  39.350   0.826  12.881
35428W        W  589  44.417  10.249   3.626
35429W        W  590   9.793  30.123  11.875
35430W        W  591  43.054  16.462  10.243
35431W        W  592  18.088   0.150   0.537
35432W        W  593   6.842  25.410   1.865
35433W        W  594  44.199  38.851  12.063
35434W        W  595  34.480  30.120   2.463
35435W        W  596   3.835  38.976  11.858
35436W        W  597  17.294  29.131  13.554
35437W        W  598  24.733  28.510  11.456
35438W        W  599  15.279  26.758  11.832
35439W        W  600  30.838  30.985  12.642
35440W        W  601  22.498   2.494   1.942
35441W        W  602  36.882  38.873  11.604
35442W        W  603  22.758  20.230  14.885
35443W        W  604  36.457  42.341  12.615
35444W        W  605  37.965  10.770  13.000
35445W        W  606  22.274  42.350   1.382
35446W        W  607  40.618  13.297  10.702
35447W        W  608  34.329   4.575   0.844
35448W        W  609  15.787   6.244  11.921
35449W        W  610   9.018  44.234   4.193
35450W        W  611  12.750  13.881   2.676
35451W        W  612  40.344  29.687  11.685
35452W        W  613  17.080  27.546   0.270
35453W        W  614  31.368  13.601  13.456
35454W        W  615  31.898  31.774  13.517
35455W        W  616  26.243  37.102  10.616
35456W        W  617  39.521  37.007   0.026
35457W        W  618  25.683  23.163  12.529
35458W        W  619  41.230  23.031   1.293
35459W        W  620  37.726  17.547  11.072
35460W        W  621  16.795   8.333  12.603
35461W        W  622  15.853  41.609  12.800
35462W        W  623  22.747  19.369  13.804
35463W        W  624  36.336  28.581   1.105
35464W        W  625   2.323  36.955  12.927
35465W        W  626  23.332  43.414  11.704
35466W        W  627  44.920  26.104   3.480
35467W        W  628  24.592  35.198   9.493
35468W        W  629   2.499  15.912   5.033
35469W        W  630  20.029  38.081   3.260
35470W        W  631  27.743  22.240   3.937
35471W        W  632  22.637  26.915   0.381
35472W        W  633  11.361  29.477   4.068
35473W        W  634  15.250   2.239  13.847
35474W        W  635  30.894  18.694   3.081
35475W        W  636  23.784   9.075   0.670
35476W        W  637  40.294   8.758   2.740
35477W        W  638   8.859   4.551   2.391
35478W        W  639  14.531  37.509   0.450
35479W        W  640   5.975  32.511   2.684
35480W        W  641  32.144  15.170   4.218
35481W        W  642  35.111  41.086   3.327
35482W        W  643  43.344  30.314   3.086
35483W        W  644   0.015  38.596   4.518
35484W        W  645   6.429  34.884  12.519
35485W        W  646  30.012  25.923  14.345
35486W        W  647   0.287  18.743   4.055
35487W        W  648  14.500   3.380  13.449
35488W        W  649   8.183  34.450   4.369
35489W        W  650   5.972  17.188  10.918
35490W        W  651  40.364  30.322  11.148
35491W        W  652  30.607   9.349   3.732
35492W        W  653  29.211  31.581   3.018
35493W        W  654  22.657  41.975  11.952
35494W        W  655   9.688  16.757   3.385
35495W        W  656  31.456  35.050  11.566
35496W        W  657   0.189   7.352  12.106
35497W        W  658   6.234  40.757  10.827
35498W        W  659   2.649  41.450   2.709
35499W        W  660   1.370  41.260  14.004
35500W        W  661  14.206  29.610  12.107
35501W        W  662  17.537  14.730   3.183
35502W        W  663  29.246   6.380  11.096
35503W        W  664  31.641  36.095   0.026
35504W        W  665   2.144  12.190   1.159
35505W        W  666  29.936  18.731  10.669
35506W        W  667  20.145   6.037  14.331
35507W        W  668  16.577  22.986   0.566
35508W        W  669  21.015  27.497  11.211
35509W        W  670  17.724  11.703  10.880
35510W        W  671   2.453  17.566  13.744
35511W        W  672  23.519  11.289   3.745
35512W        W  673  27.939  29.501  13.463
35513W        W  674  33.826  16.570  11.189
35514W        W  675  27.741   2.903   4.590
35515W        W  676  42.554  28.348  10.655
35516W        W  677  12.418   6.943   4.943
35517W        W  678  21.642  42.407   0.561
35518W        W  679  10.088  22.849  11.242
35519W        W  680   5.557  26.158   2.806
35520W        W  681  29.657  26.017   0.608
35521W        W  682  41.787  19.758  14.726
35522W        W  683   3.448  25.757  10.113
35523W        W  684  11.353  18.266  13.813
35524W        W  685   5.513  18.660  11.484
35525W        W  686  40.519  41.473   4.619
35526W        W  687  34.073   7.950   3.166
35527W        W  688  26.265  38.920   0.424
35528W        W  689  18.189  44.368  13.434
35529W        W  690   8.553   3.978   0.410
35530W        W  691  26.401  22.043  12.135
35531W        W  692  42.963  40.549   1.217
35532W        W  693   3.804  17.858   1.928
35533W        W  694   8.169  31.487  11.540
35534W        W  695   0.484  13.139   0.300
35535W        W  696  18.708   5.599  12.480
35536W        W  697  33.832  38.327  14.267
35537W        W  698  31.021   6.318   0.343
35538W        W  699  19.213  32.117  14.107
35539W        W  700  25.427  11.789   2.791
35540W        W  701  29.384  19.682  13.076
35541W        W  702  19.369  36.953  11.073
35542W        W  703  16.768  12.653   4.178
35543W        W  704   2.363  32.695  14.374
35544W        W  705  13.644  25.760   3.850
35545W        W  706   9.249  19.960  13.414
35546W        W  707   8.440  35.425   4.418
35547W        W  708  36.322   7.261   1.202
35548W        W  709  37.007  27.579  11.622
35549W        W  710  39.485  42.383  13.737
35550W        W  711   5.084  27.162  12.594
35551W        W  712  12.155   5.529   1.918
35552W        W  713   6.408  17.216  11.190
35553W        W  714  43.303  42.501   3.191
35554W        W  715   4.337  20.479  13.857
35555W        W  716  20.699  10.846   3.468
35556W        W  717  43.838   4.675   1.761
35557W        W  718   5.326  20.038   0.947
35558W        W  719  26.245  33.414   3.197
35559W        W  720  29.155  10.253   2.421
35560W        W  721   8.659   0.219   2.395
35561W        W  722  14.250  39.575  13.658
35562W        W  723  10.751   6.647   0.515
35563W        W  724  14.334  11.595  11.073
35564W        W  725   5.436  31.253  12.187
35565W        W  726   6.094  28.046   0.789
35566W        W  727  33.242  26.535  10.145
35567W        W  728   6.998  39.552   3.761
35568W        W  729  43.510  30.469   4.957
35569W        W  730  28.092  44.440   3.273
35570W        W  731  39.432  44.550  13.819
35571W        W  732  11.290   2.222  12.075
35572W        W  733  38.011  21.619   1.300
35573W        W  734  18.317  12.636   1.752
35574W        W  735  34.921  42.270   4.123
35575W        W  736  18.620  40.518   3.522
35576W        W  737  36.114  38.447  10.856
35577W        W  738  13.834  21.454  12.993
35578W        W  739  18.051  19.276   2.268
35579W        W  740  18.159  35.291   2.023
35580W        W  741  33.933  40.576  12.441
35581W        W  742  22.977  41.799   5.487
35582W        W  743  13.620  35.356   3.763
35583W        W  744  41.686  19.064   4.492
35584W        W  745  31.050  41.033   4.231
35585W        W  746  26.698  32.603  12.941
35586W        W  747  17.204   9.311  10.249
35587W        W  748  27.150  41.533   3.371
35588W        W  749   8.809  25.693   0.425
35589W        W  750  21.640  29.960   0.737
35590W        W  751   5.715   0.740  10.698
35591W        W  752   6.395   0.717   1.003
35592W        W  753   3.948  36.544   2.836
35593W        W  754   1.129  25.633   0.619
35594W        W  755  12.247  18.646   2.997
35595W        W  756  37.465   3.865   2.052
35596W        W  757   7.616  23.140  14.339
35597W        W  758  36.984  29.888  11.126
35598W        W  759  12.397  39.326   3.801
35599W        W  760  21.568  17.130  13.338
35600W        W  761  44.080  43.596   1.672
35601W        W  762  21.466  42.179   0.994
35602W        W  763  19.894   3.130   5.082
35603W        W  764  15.290   0.670   0.298
35604W        W  765   7.752  23.515  12.517
35605W        W  766  24.558   4.536  12.435
35606W        W  767  11.648  39.476   3.313
35607W        W  768  17.235  35.319   3.264
35608W        W  769  26.196   0.489  11.230
35609W        W  770  21.107   3.986   4.606
35610W        W  771  36.271  24.321   1.785
35611W        W  772  29.074  20.177   3.162
35612W        W  773  42.451  33.059   3.209
35613W        W  774   0.364  27.220  13.926
35614W        W  775  24.596   9.705   0.039
35615W        W  776  39.293  42.482  11.362
35616W        W  777  20.533  28.591   4.442
35617W        W  778  43.345  30.522   3.975
35618W        W  779   5.686  23.028   0.821
35619W        W  780   3.750  32.294   4.662
35620W        W  781  25.007  26.786   2.950
35621W        W  782  33.345  34.475  14.247
35622W        W  783  11.989   7.756  10.796
35623W        W  784  19.170  21.586  12.270
35624W        W  785  31.433   3.440   4.386
35625W        W  786  21.477   3.211   0.331
35626W        W  787  37.806   4.261   1.969
35627W        W  788  38.046  20.976  14.309
35628W        W  789  21.925  35.910   0.884
35629W        W  790   3.226   5.465   4.199
35630W        W  791  34.130  34.959   4.201
35631W        W  792   2.904  41.068  10.656
35632W        W  793   7.727   4.407  14.384
35633W        W  794  18.764   1.963  13.444
35634W        W  795   1.681  40.090  14.934
35635W        W  796  28.557  16.767  11.485
35636W        W  797  41.378  26.575   4.920
35637W        W  798  19.867   8.885  10.123
35638W        W  799  32.008  30.168   3.540
35639W        W  800   0.717  33.478   3.639
35640W        W  801   9.707  18.679   0.311
35641W        W  802  21.044   7.485  13.368
35642W        W  803   0.788   9.903   0.023
35643W        W  804   2.312  13.828   2.082
35644W        W  805  17.568  25.614  12.056
35645W        W  806  28.671  44.879   0.775
35646W        W  807  26.611   0.219   3.599
35647W        W  808   0.262  32.509  14.503
35648W        W  809  32.346   5.252  13.911
35649W        W  810  22.591  35.037   2.543
35650W        W  811  26.401  36.919   3.325
35651W        W  812   7.935  19.757   0.780
35652W        W  813  10.773  11.429   0.500
35653W        W  814  25.062  32.637  13.427
35654W        W  815   4.754  28.092   1.195
35655W        W  816  26.274  18.387  13.339
35656W        W  817  37.084  42.964  12.787
35657W        W  818  10.549  19.169   3.744
35658W        W  819  21.634  20.764   3.117
35659W        W  820  43.546  35.477   2.358
35660W        W  821  11.239  10.651  14.546
35661W        W  822   7.305  31.999  10.834
35662W        W  823   9.294  31.579   0.905
35663W        W  824  17.810   7.827   2.103
35664W        W  825  27.943  30.370  13.089
35665W        W  826  16.555  20.333  11.680
35666W        W  827  10.093  39.207  12.618
35667W        W  828  14.738  26.435  11.191
35668W        W  829  20.344  18.239   4.702
35669W        W  830  41.892   2.068  10.709
35670W        W  831  33.405  23.035  14.416
35671W        W  832  10.089  30.072  13.521
35672W        W  833  15.889  24.638  11.194
35673W        W  834  34.214  28.910   2.348
35674W        W  835   1.317  25.004   1.441
35675W        W  836  38.338  15.985   1.277
35676W        W  837  10.207   3.347  11.374
35677W        W  838   3.841  43.432  10.636
35678W        W  839  38.111  21.036   2.710
35679W        W  840  43.608   3.375  10.677
35680W        W  841  35.615  44.258   0.518
35681W        W  842  38.069  26.122  13.483
35682W        W  843  37.523  37.586   2.811
35683W        W  844  11.658  33.949  14.837
35684W        W  845   7.331  39.119  13.491
35685W        W  846   2.254   8.876   2.203
35686W        W  847   0.733  43.187  13.245
35687W        W  848  16.629  18.626  13.408
35688W        W  849  18.925  38.936   0.300
35689W        W  850  18.593   0.678   4.508
35690W        W  851  21.342   5.246   2.330
35691W        W  852  24.122  26.651  14.503
35692W        W  853  41.379  29.547   2.458
35693W        W  854  23.272  41.083   1.345
35694W        W  855  32.836  43.061   3.760
35695W        W  856  34.008  18.314  14.947
35696W        W  857   2.914  13.929  11.312
35697W        W  858   7.741   5.778   4.470
35698W        W  859  12.264   5.209  13.406
35699W        W  860   2.455  38.804  13.177
35700W        W  861  30.482   6.683   0.002
35701W        W  862   5.217  15.161   2.730
35702W        W  863  44.704  26.963  10.688
35703W        W  864  36.000   6.005   4.589
35704W        W  865   0.824   0.297  13.426
35705W        W  866  31.839  20.639   3.394
35706W        W  867  24.141  30.025   3.837
35707W        W  868  42.487   9.556   2.902
35708W        W  869  22.692  43.422  14.930
35709W        W  870   6.885  33.969  14.662
35710W        W  871  28.654  15.764   2.195
35711W        W  872  30.528  44.727  14.210
35712W        W  873   8.894   0.300  13.473
35713W        W  874   5.694  16.081   2.923
35714W        W  875  43.239  39.919  11.032
35715W        W  876  20.426  41.760   3.867
35716W        W  877  39.080  13.863   3.780
35717W        W  878  38.361  43.327  11.667
35718W        W  879  35.308  18.298  13.900
35719W        W  880  28.064   4.744   1.434
35720W        W  881   3.661   8.308  13.886
35721W        W  882  10.902  43.930   1.955
35722W        W  883  30.777  27.164  12.740
35723W        W  884  34.545  37.449  10.670
35724W        W  885  28.251  43.462   4.545
35725W        W  886  41.454   0.783   2.153
35726W        W  887  19.992   3.709  13.830
35727W        W  888   8.654  36.640  12.905
35728W        W  889  36.855  42.008  10.706
35729W        W  890  30.006  12.235  14.054
35730W        W  891  21.613  39.523   3.924
35731W        W  892  13.108  32.188   2.756
35732W        W  893  39.971  35.310   0.912
35733W        W  894  19.578  19.156   5.088
35734W        W  895  20.377  28.399  13.402
35735W        W  896  14.476   2.255   4.162
35736W        W  897   6.935  34.370   2.723
35737W        W  898   9.448  19.075  12.026
35738W        W  899  29.632  14.801  14.333
35739W        W  900  21.662  37.376  10.590
35740W        W  901   2.342  20.084  10.445
35741W        W  902  10.150  34.621  12.273
35742W        W  903  31.942   5.785   3.794
35743W        W  904  29.455  15.097   0.836
35744W        W  905  36.537  15.105  14.838
35745W        W  906  40.347  36.433  12.971
35746W        W  907  41.975  29.551  13.255
35747W        W  908  23.487  27.684   1.169
35748W        W  909  30.596  41.411   2.586
35749W        W  910  16.193  12.208   3.104
35750W        W  911  11.696  32.316  13.244
35751W        W  912  25.592  23.519   0.799
35752W        W  913  43.366  11.991   0.281
35753W        W  914  31.845  29.230   5.406
35754W        W  915  16.678  19.269  10.249
35755W        W  916  22.804  16.227   3.617
35756W        W  917  32.295  14.479   1.381
35757W        W  918  15.538  42.458  13.928
35758W        W  919  34.804  44.181   3.685
35759W        W  920  33.279  30.469  10.930
35760W        W  921  25.737  34.467   4.415
35761W        W  922  42.249  38.914   4.854
35762W        W  923  16.323  40.696   3.727
35763W        W  924  28.118  41.279   3.695
35764W        W  925  35.103  22.586   0.484
35765W        W  926  44.476  30.168   2.700
35766W        W  927   0.273   8.276  12.670
35767W        W  928  20.063   1.249   4.764
35768W        W  929  13.301  39.546  14.102
35769W        W  930  14.884  40.160  14.152
35770W        W  931  34.915  40.316   0.533
35771W        W  932  33.413  23.684   4.169
35772W        W  933  42.547  17.326  11.616
35773W        W  934  17.171   1.855  14.497
35774W        W  935  33.916   1.462  13.009
35775W        W  936  18.037  14.352  11.440
35776W        W  937  30.438  16.886   3.455
35777W        W  938   7.966  39.158   1.323
35778W        W  939  40.524   0.363  12.038
35779W        W  940  33.525   7.254  13.811
35780W        W  941  19.084  13.324   1.982
35781W        W  942  33.685  26.501   0.532
35782W        W  943  33.101  34.942  14.909
35783W        W  944   3.235  30.968   4.550
35784W        W  945   4.168   7.350  13.086
35785W        W  946  12.536  17.092  11.501
35786W        W  947  37.500   9.166   0.359
35787W        W  948  13.717  26.107  11.656
35788W        W  949  15.196   7.717  13.916
35789W        W  950  43.883  39.399  11.420
35790W        W  951  43.692  10.136   2.803
35791W        W  952  29.632  23.757   2.195
35792W        W  953  15.139  21.827   2.363
35793W        W  954   7.092  19.784  11.424
35794W        W  955  44.767  38.840  14.116
35795W        W  956  32.264  29.900   2.797
35796W        W  957  29.432  16.640   1.895
35797W        W  958   9.161  16.224   3.275
35798W        W  959   4.323  25.487   2.766
35799W        W  960   2.818  21.268   0.928
35800W        W  961   1.860   1.529  14.349
35801W        W  962  15.714   5.664  14.051
35802W        W  963  31.799  14.645  14.205
35803W        W  964   6.644  16.128  11.502
35804W        W  965   8.178  14.846  10.689
35805W        W  966  29.929  40.371   2.824
35806W        W  967   7.449  39.393  11.015
35807W        W  968   9.102  26.595  10.004
35808W        W  969  20.040  20.014  14.855
35809W        W  970  22.611  25.580   0.265
35810W        W  971  14.473  12.319  13.358
35811W        W  972  21.022   4.326   3.835
35812W        W  973  13.683   4.187  13.338
35813W        W  974  39.962  32.088  11.526
35814W        W  975   4.392  35.435  10.710
35815W        W  976   6.144   1.486   1.198
35816W        W  977  10.734  41.245   1.243
35817W        W  978   2.775   6.999   1.250
35818W        W  979  35.903  44.412   1.167
35819W        W  980   4.333  37.700  12.691
35820W        W  981  18.780  20.780  11.652
35821W        W  982  16.658   9.260   2.278
35822W        W  983  21.018  25.504   0.969
35823W        W  984  30.500  27.602   2.833
35824W        W  985   5.276   2.199   1.020
35825W        W  986  19.627  40.047  14.393
35826W        W  987   9.326  36.325   1.475
35827W        W  988   4.357  37.579  11.189
35828W        W  989  38.379  37.874  12.831
35829W        W  990  44.486  31.694  12.558
35830W        W  991  15.533   0.492   2.386
35831W        W  992  16.361   2.026   2.150
35832W        W  993  40.285  42.166   0.852
35833W        W  994   0.858  40.661  11.573
35834W        W  995   5.782  25.941   2.392
35835W        W  996  29.412   0.564   1.304
35836W        W  997  12.146  21.128  10.886
35837W        W  998  30.465  26.532   3.755
35838W        W  999  44.739  17.312  12.447
35839W        W 1000  41.204  42.493  11.521
35840W        W 1001   9.130  27.432   1.376
35841W        W 1002  32.426  24.518   3.948
35842W        W 1003  23.190  14.190  11.836
35843W        W 1004  10.194  37.564  12.038
35844W        W 1005  21.932  33.186  12.939
35845W        W 1006  30.027  28.995  11.455
35846W        W 1007  11.212   3.464   0.479
35847W        W 1008  37.337   3.281   2.374
35848W        W 1009  13.224   8.326  12.874
35849W        W 1010   0.468   5.834  13.885
35850W        W 1011   9.412  32.479  12.169
35851W        W 1012   7.740  26.959  10.729
35852W        W 1013  23.668   8.545   0.352
35853W        W 1014  36.944  22.991  12.193
35854W        W 1015  16.847  23.677   1.691
35855W        W 1016  25.647  15.299   2.454
35856W        W 1017   2.415   1.084  14.962
35857W        W 1018   9.328  12.687  14.757
35858W        W 1019  39.442  22.657  14.493
35859W        W 1020  25.715  25.392   0.405
35860W        W 1021  23.163  14.641   3.800
35861W        W 1022  14.801  28.722   1.315
35862W        W 1023  22.393  25.564  12.590
35863W        W 1024  38.100  25.953  11.533
35864W        W 1025  27.518  15.121   3.639
35865W        W 1026  33.229  26.948  10.555
35866W        W 1027  40.771  19.114  13.429
35867W        W 1028  15.635  41.578   0.784
35868W        W 1029  33.132  37.282   5.331
35869W        W 1030  44.740  16.871  12.174
35870W        W 1031  18.647  18.864   4.729
35871W        W 1032  10.611  15.639  13.985
35872W        W 1033   5.990  14.866   2.688
35873W        W 1034  10.674  37.046  12.833
35874W        W 1035  14.107   1.512  12.793
35875W        W 1036  25.203  38.391   3.351
35876W        W 1037   0.672  25.943  11.748
35877W        W 1038  22.177  27.551   0.682
35878W        W 1039  18.690  38.490   1.253
35879W        W 1040   8.270   7.639  11.182
35880W        W 1041  34.479  25.111   4.098
35881W        W 1042   0.801  43.047   1.218
35882W        W 1043  30.669   2.042  14.040
35883W        W 1044  15.807  22.144  13.421
35884W        W 1045  34.922  32.258   4.877
35885W        W 1046  39.886  13.808  13.043
35886W        W 1047  35.343  20.412  11.546
35887W        W 1048  11.446  22.104  14.285
35888W        W 1049  39.523  11.637  14.089
35889W        W 1050  37.957   9.785  10.457
35890W        W 1051  13.956  44.961  11.073
35891W        W 1052   8.728  23.303  11.167
35892W        W 1053  14.177   5.416  11.049
35893W        W 1054   8.354  23.613  13.176
35894W        W 1055  29.504  39.050   3.641
35895W        W 1056  19.801   2.037  13.364
35896W        W 1057  14.674  34.573   0.335
35897W        W 1058  33.864  11.130   3.767
35898W        W 1059   8.128  38.146   4.545
35899W        W 1060  28.223   7.599  13.451
35900W        W 1061  12.360  27.866   4.112
35901W        W 1062  38.838  23.410   3.384
35902W        W 1063  29.378  24.287   4.904
35903W        W 1064  16.114  14.296  12.884
35904W        W 1065  35.036  38.912  12.949
35905W        W 1066  24.614   6.304   2.182
35906W        W 1067  25.457   5.222   2.742
35907W        W 1068   4.158  30.872  11.581
35908W        W 1069  43.167  18.799  13.440
35909W        W 1070   6.637   7.081   4.390
35910W        W 1071  38.646  27.057   0.238
35911W        W 1072  18.133  20.391   3.970
35912W        W 1073   2.628  27.493   0.914
35913W        W 1074   4.056  16.305  14.974
35914W        W 1075   9.633  38.488   1.903
35915W        W 1076   9.162  36.078  12.459
35916W        W 1077  38.348   8.325   4.109
35917W        W 1078   2.533  14.582   2.187
35918W        W 1079  20.049  38.281   1.697
35919W        W 1080   8.482  25.916   2.649
35920W        W 1081  39.608  36.009   4.258
35921W        W 1082   9.810  25.010  11.967
35922W        W 1083  30.850   8.726  14.458
35923W        W 1084  32.021  28.702   0.381
35924W        W 1085  29.331   7.700  11.125
35925W        W 1086  19.026  31.036   1.322
35926W        W 1087  24.122   8.894  12.935
35927W        W 1088  30.380  12.842   0.318
35928W        W 1089  29.582  22.569   1.499
35929W        W 1090  10.296   5.118  14.013
35930W        W 1091  27.805  23.071  14.284
35931W        W 1092  34.362  37.334   3.406
35932W        W 1093  18.643  23.750   5.032
35933W        W 1094  29.684  21.298  10.752
35934W        W 1095   4.880  23.932  12.401
35935W        W 1096  10.853  12.733   5.315
35936W        W 1097  28.114  32.158  12.114
35937W        W 1098  44.369  20.909  12.668
35938W        W 1099  42.912  17.065  12.322
35939W        W 1100  44.041  17.769   0.839
35940W        W 1101   6.030   4.817  10.718
35941W        W 1102   2.002  30.135   1.833
35942W        W 1103  44.823  42.250  12.974
35943W        W 1104   4.355   6.150  12.413
35944W        W 1105  12.388  27.458  12.571
35945W        W 1106  19.715  23.446  13.933
35946W        W 1107  29.073  27.295   2.310
35947W        W 1108   7.313  29.970  14.567
35948W        W 1109  15.539  24.255   0.811
35949W        W 1110  14.590  17.269  14.515
35950W        W 1111   8.489  10.526   2.814
35951W        W 1112  20.590  40.825  12.147
35952W        W 1113  12.333   6.642  12.437
35953W        W 1114  11.425  37.991   4.407
35954W        W 1115  14.300  39.870   0.991
35955W        W 1116  32.361  40.478  11.974
35956W        W 1117  16.731  35.293   4.608
35957W        W 1118  32.090   7.015  11.022
35958W        W 1119  11.828  34.421   0.497
35959W        W 1120   9.801  21.147  14.828
35960W        W 1121  34.784  43.077  14.257
35961W        W 1122  42.573   1.138   1.443
35962W        W 1123  22.496  29.604   3.129
35963W        W 1124  44.767   3.584   2.279
35964W        W 1125  25.013   1.348   3.166
35965W        W 1126  17.294  33.929   0.750
35966W        W 1127  44.759  20.559  14.256
35967W        W 1128  23.586  10.209  12.855
35968W        W 1129  15.430  10.265   4.758
35969W        W 1130  42.882  39.730   2.862
35970W        W 1131  13.746  19.169  12.470
35971W        W 1132   7.546  30.817  12.423
35972W        W 1133  18.064  38.812  11.607
35973W        W 1134   5.679  44.778  13.578
35974W        W 1135  33.941  26.018   4.053
35975W        W 1136   6.174  12.711  13.344
35976W        W 1137  17.715  37.768   2.648
35977W        W 1138  13.553   0.194  13.461
35978W        W 1139   9.142  33.328  12.214
35979W        W 1140   0.857  35.478   1.747
35980W        W 1141  36.793   2.224  14.483
35981W        W 1142   3.550   0.374  14.366
35982W        W 1143  31.548   9.898  12.017
35983W        W 1144  19.346  16.949  13.385
35984W        W 1145  12.297  43.379   1.257
35985W        W 1146  14.871  11.650   4.659
35986W        W 1147  17.882  34.858   1.916
35987W        W 1148  31.804  13.357  12.331
35988W        W 1149  39.044  43.448  11.115
35989W        W 1150  36.152  19.263  14.286
35990W        W 1151   6.293  10.440  13.960
35991W        W 1152  16.658  13.747  14.985
35992W        W 1153  26.724  23.260  12.567
35993W        W 1154  33.627  40.392  13.999
35994W        W 1155   9.060  31.545   4.630
35995W        W 1156   8.805  25.679   3.109
35996W        W 1157  17.198  25.669   0.219
35997W        W 1158  25.178  37.573  11.231
35998W        W 1159  25.355  20.148   3.170
35999W        W 1160   0.091  20.303  13.020
36000W        W 1161  21.203  40.461   2.318
36001W        W 1162  36.630  19.250   0.520
36002W        W 1163  38.166   6.283  13.809
36003W        W 1164   5.148  10.173   0.520
36004W        W 1165   5.186  20.498  11.127
36005W        W 1166  17.836  19.882   0.783
36006W        W 1167  25.993  28.531   2.747
36007W        W 1168  23.200   5.245  10.653
36008W        W 1169  36.272   2.250  14.423
36009W        W 1170  13.072  12.737   0.922
36010W        W 1171   4.294   2.563   4.605
36011W        W 1172   5.424  19.700   2.375
36012W        W 1173  17.561   1.417   3.178
36013W        W 1174  16.724  33.003  13.903
36014W        W 1175  23.451  42.516   3.213
36015W        W 1176  22.998   9.230   2.822
36016W        W 1177  44.718   0.005   0.816
36017W        W 1178  18.504   3.205   0.890
36018W        W 1179   7.746  38.972   4.095
36019W        W 1180  10.286  24.999  12.991
36020W        W 1181  34.974  39.315   1.498
36021W        W 1182   5.261  38.629   0.698
36022W        W 1183  40.766  32.419   0.121
36023W        W 1184  34.634  11.903   1.464
36024W        W 1185  17.181  27.915  11.059
36025W        W 1186  14.347  25.131   4.082
36026W        W 1187  12.624  22.691   2.735
36027W        W 1188  19.092   4.421   3.728
36028W        W 1189   4.355   0.525   1.771
36029W        W 1190   2.032  14.706   2.190
36030W        W 1191  34.803  17.486   0.871
36031W        W 1192   7.333   2.207   0.693
36032W        W 1193  13.986   0.246  12.526
36033W        W 1194  19.740  40.117   4.595
36034W        W 1195  23.674  24.469   3.740
36035W        W 1196  43.008  38.288  14.349
36036W        W 1197  11.993  21.629  13.092
36037W        W 1198  42.901  39.060  12.624
36038W        W 1199  14.935   5.384  11.653
36039W        W 1200   1.020  10.378  11.840
36040W        W 1201  36.604   7.635   4.085
36041W        W 1202  19.700   2.422   0.355
36042W        W 1203  18.906   7.449   4.174
36043W        W 1204  30.122   3.325   2.329
36044W        W 1205  33.190   0.885  12.983
36045W        W 1206  44.066  29.939   2.267
36046W        W 1207   7.216  38.375   2.017
36047W        W 1208  22.741  30.464  14.424
36048W        W 1209  14.092  36.379  13.836
36049W        W 1210  23.718  15.776  11.560
36050W        W 1211  35.018  31.365   1.259
36051W        W 1212  17.917  22.145   0.589
36052W        W 1213  42.362   7.215  11.437
36053W        W 1214  30.336  29.137  13.068
36054W        W 1215  37.232   9.168  11.623
36055W        W 1216  18.989   3.018   3.743
36056W        W 1217   9.383  21.602   2.998
36057W        W 1218  34.089  42.321  12.891
36058W        W 1219  27.723  25.107  13.929
36059W        W 1220  40.017  16.539   1.689
36060W        W 1221  18.657  27.247  11.686
36061W        W 1222  36.993  11.086   3.161
36062W        W 1223  10.690  30.032   0.852
36063W        W 1224  21.075  11.667  11.982
36064W        W 1225  25.840  38.520   2.221
36065W        W 1226  18.409  23.464  12.078
36066W        W 1227  43.328   4.663  11.148
36067W        W 1228   7.344  25.247   1.887
36068W        W 1229   2.763  14.687   1.234
36069W        W 1230  36.537  39.263  14.355
36070W        W 1231  13.291  37.439   2.397
36071W        W 1232  30.981   7.899  13.888
36072W        W 1233  17.670  38.090   3.350
36073W        W 1234  22.962  31.901  13.120
36074W        W 1235  43.333   7.874  12.294
36075W        W 1236  42.470  11.243   3.341
36076W        W 1237   0.267  17.990   4.609
36077W        W 1238  44.032  30.350  13.437
36078W        W 1239  22.534  29.973   3.924
36079W        W 1240  23.431  20.498  12.037
36080W        W 1241  29.000  21.009   1.397
36081W        W 1242   7.107  22.238  10.819
36082W        W 1243  25.766  18.631   0.739
36083W        W 1244   4.563  18.782   0.373
36084W        W 1245  13.376   3.436   3.569
36085W        W 1246  30.968  15.013   0.673
36086W        W 1247   9.927  23.289   4.606
36087W        W 1248  18.800  28.161   4.967
36088W        W 1249  16.046   2.866   0.181
36089W        W 1250  38.982  33.596  12.899
36090W        W 1251  22.826  29.673   4.997
36091W        W 1252  26.916  15.163  12.067
36092W        W 1253  16.334  28.644  12.803
36093W        W 1254   8.924   2.714   0.799
36094W        W 1255   3.925  29.396   0.069
36095W        W 1256  23.270  31.570  14.407
36096W        W 1257   0.492   6.821  13.312
36097W        W 1258  19.700  20.759  14.850
36098W        W 1259  21.709  44.936   1.210
36099W        W 1260  41.577   3.396  12.229
36100W        W 1261   6.590  33.661  11.563
36101W        W 1262  40.183  41.063   5.114
36102W        W 1263  20.631  15.784   2.726
36103W        W 1264  35.388  19.665  12.108
36104W        W 1265  26.496  41.851  13.577
36105W        W 1266   8.806  18.455  12.628
36106W        W 1267  11.019  41.716  13.294
36107W        W 1268  44.436   4.064  13.510
36108W        W 1269  39.416  29.731   3.641
36109W        W 1270  20.798  26.096  13.765
36110W        W 1271  23.557   1.555   0.869
36111W        W 1272  25.458  13.654  12.136
36112W        W 1273  21.199   2.931   1.276
36113W        W 1274  37.840  10.552   2.223
36114W        W 1275  33.455   4.106   3.724
36115W        W 1276  23.085  40.394   3.651
36116W        W 1277  23.405  25.514  12.506
36117W        W 1278  16.107   0.407   1.824
36118W        W 1279  10.587  44.415   1.284
36119W        W 1280  35.932  35.331   3.808
36120W        W 1281  37.130  18.366  13.277
36121W        W 1282  19.141  20.800   0.422
36122W        W 1283  21.246  14.243   0.427
36123W        W 1284  39.371  24.458   3.843
36124W        W 1285  17.811  34.368  12.919
36125W        W 1286   4.038   7.851  13.638
36126W        W 1287   3.667  15.001   3.742
36127W        W 1288  37.920  30.599   1.240
36128W        W 1289  27.150  24.227  11.976
36129W        W 1290  15.883  16.836   3.840
36130W        W 1291   9.346  25.491  13.135
36131W        W 1292   9.825  43.829  14.341
36132W        W 1293  36.477  11.261  11.465
36133W        W 1294  29.328  32.082   0.874
36134W        W 1295  26.993  14.838  13.797
36135W        W 1296  44.042  39.523   2.313
36136W        W 1297  38.595   8.903  13.486
36137W        W 1298   8.493  22.539  13.829
36138W        W 1299  41.769  25.724  11.243
36139W        W 1300  34.593  18.958   4.158
36140W        W 1301  23.822  44.853  13.550
36141W        W 1302  39.245   7.556  14.488
36142W        W 1303   5.921   3.436   0.469
36143W        W 1304  28.911  11.058   1.497
36144W        W 1305   7.258  26.505  14.269
36145W        W 1306   6.466  29.511   3.688
36146W        W 1307   0.806   1.992  13.998
36147W        W 1308  44.687  36.690   1.990
36148W        W 1309  19.065  42.539  11.948
36149W        W 1310  19.460  40.262  11.833
36150W        W 1311  41.056   2.497   0.912
36151W        W 1312  40.749  33.399  14.932
36152W        W 1313  32.642  22.839  12.925
36153W        W 1314  22.527   7.786   1.200
36154W        W 1315  15.236  18.934   0.332
36155W        W 1316  41.594  29.531  14.089
36156W        W 1317  21.694   3.457   3.062
36157W        W 1318  43.024  38.238   1.869
36158W        W 1319  31.717  19.186  14.828
36159W        W 1320  14.346  32.358  11.056
36160W        W 1321  19.249   3.958   2.839
36161W        W 1322  17.274  32.169   1.308
36162W        W 1323  22.818  30.517  10.155
36163W        W 1324   9.816  25.057   1.015
36164W        W 1325  25.772  33.612   3.211
36165W        W 1326  18.680  13.876   1.823
36166W        W 1327  22.213  26.638  13.428
36167W        W 1328  26.082  39.445  10.657
36168W        W 1329   4.150  14.570  14.501
36169W        W 1330   0.258  34.106  12.720
36170W        W 1331  43.833   0.412   1.359
36171W        W 1332  14.593  33.114   3.800
36172W        W 1333  15.767  19.775   4.144
36173W        W 1334  42.811  25.460  11.613
36174W        W 1335  19.266  26.443  14.389
36175W        W 1336   8.265  18.741   3.316
36176W        W 1337  15.362  30.391   0.710
36177W        W 1338  18.145  23.305  11.561
36178W        W 1339  35.959  41.872  14.862
36179W        W 1340  43.340  25.594   4.581
36180W        W 1341  22.606  41.315  13.528
36181W        W 1342  39.882  29.977   3.160
36182W        W 1343  31.486   0.729   3.803
36183W        W 1344  31.319  38.558   2.733
36184W        W 1345  16.412  31.641  11.291
36185W        W 1346  23.301   6.359   3.298
36186W        W 1347  12.969  40.354  12.937
36187W        W 1348  29.022  35.811  11.447
36188W        W 1349   4.518   7.302   2.381
36189W        W 1350   0.798  10.852  13.555
36190W        W 1351  32.780  32.411  14.301
36191W        W 1352  14.149  27.064   4.699
36192W        W 1353  41.402  28.448  12.354
36193W        W 1354  26.348   2.264  10.476
36194W        W 1355  33.592   8.374  11.996
36195W        W 1356   4.468  17.064   3.296
36196W        W 1357  31.909  27.126   2.298
36197W        W 1358  17.684  11.695  12.845
36198W        W 1359  11.408  44.948  11.121
36199W        W 1360  14.772   1.336  11.579
36200W        W 1361  34.059   8.303   0.598
36201W        W 1362   4.899  34.110   3.276
36202W        W 1363  31.183   1.699  10.792
36203W        W 1364  15.199  38.458  13.815
36204W        W 1365   8.261  41.492   1.249
36205W        W 1366  39.472  23.374   0.853
36206W        W 1367   6.178  30.999  13.350
36207W        W 1368   5.464  14.671  11.641
36208W        W 1369   3.695  12.522   3.645
36209W        W 1370  34.979   1.402  13.643
36210W        W 1371  25.781  18.203  13.383
36211W        W 1372  27.772   1.745   1.037
36212W        W 1373  24.199   9.818   4.425
36213W        W 1374  30.119  44.864   3.136
36214W        W 1375   5.063  21.933   9.978
36215W        W 1376  26.538  43.368   3.270
36216W        W 1377  15.685  34.163   1.423
36217W        W 1378  27.008   8.447  12.968
36218W        W 1379  37.054  30.055  12.368
36219W        W 1380   7.419  41.555  10.784
36220W        W 1381  29.922   5.925   1.751
36221W        W 1382  19.028  13.815  14.661
36222W        W 1383  26.029  12.021   3.182
36223W        W 1384  43.956   6.620  14.449
36224W        W 1385  26.010   9.365  12.366
36225W        W 1386   7.267  18.603  11.963
36226W        W 1387  41.672  21.628   3.185
36227W        W 1388  43.374  38.971   2.894
36228W        W 1389  14.444   5.820   2.901
36229W        W 1390  10.087  20.045   1.133
36230W        W 1391   1.234  15.369  11.836
36231W        W 1392   9.701  30.091   0.909
36232W        W 1393   4.097  11.294  10.855
36233W        W 1394  15.396  14.335   1.867
36234W        W 1395  16.407   6.941  14.565
36235W        W 1396  40.078  36.275  12.558
36236W        W 1397  39.079  34.647  10.994
36237W        W 1398  39.568  13.481  11.920
36238W        W 1399  21.237  22.732   2.253
36239W        W 1400  19.991  32.443  14.000
36240W        W 1401  41.560  39.926   2.824
36241W        W 1402  19.743  11.039   3.619
36242W        W 1403  32.146  44.943   4.709
36243W        W 1404  15.447  36.427  11.987
36244W        W 1405  41.423   1.171  10.670
36245W        W 1406  18.831  39.198  12.007
36246W        W 1407   6.482   0.242  13.861
36247W        W 1408  14.720  10.147   4.216
36248W        W 1409   0.876  35.964   3.904
36249W        W 1410  21.991  38.829  14.871
36250W        W 1411   1.892  26.014   9.870
36251W        W 1412   2.993  13.170   2.600
36252W        W 1413  20.350  23.480   0.397
36253W        W 1414  39.948  40.557  12.049
36254W        W 1415  37.635  16.596  14.379
36255W        W 1416  33.529   0.167   0.386
36256W        W 1417  22.446  11.920   0.444
36257W        W 1418  42.610  34.846   1.678
36258W        W 1419  28.944  36.393   1.446
36259W        W 1420   1.993  20.208  12.780
36260W        W 1421  41.374  24.142   0.291
36261W        W 1422  21.725  26.434  10.690
36262W        W 1423   3.507  27.986  12.437
36263W        W 1424  30.095  11.649   2.772
36264W        W 1425  40.891  10.009  11.836
36265W        W 1426  28.726  27.386   2.688
36266W        W 1427  29.383  38.680  13.241
36267W        W 1428  34.827  11.728  14.963
36268W        W 1429  20.551  29.700   4.210
36269W        W 1430   2.507  36.321   3.630
36270W        W 1431   5.555  24.218  10.528
36271W        W 1432  13.720  39.754  11.991
36272W        W 1433   9.283   9.940   0.250
36273W        W 1434  26.119  25.156   1.786
36274W        W 1435   6.379  20.697   0.654
36275W        W 1436  42.675  21.940  10.591
36276W        W 1437  36.054  27.108   2.637
36277W        W 1438  33.733  19.243  13.981
36278W        W 1439  27.924  30.139   1.060
36279W        W 1440  21.448   4.869  12.089
36280W        W 1441   1.947  44.788  10.771
36281W        W 1442   1.997  31.854   1.297
36282W        W 1443  10.854   5.211   3.836
36283W        W 1444  32.384  29.004   2.541
36284W        W 1445   0.038  42.441   3.274
36285W        W 1446  23.682  39.901  11.255
36286W        W 1447  28.029   4.952   4.500
36287W        W 1448  13.339  13.303  14.895
36288W        W 1449  23.990  41.920   3.666
36289W        W 1450  14.346   7.392  13.057
36290W        W 1451  34.177  35.884   0.815
36291W        W 1452  14.056  20.583  12.429
36292W        W 1453  23.525  18.996   4.482
36293W        W 1454  39.956  23.555   2.845
36294W        W 1455  20.659  26.997  12.556
36295W        W 1456  27.308  13.869  12.279
36296W        W 1457  18.150  18.773   0.021
36297W        W 1458   8.787  21.853  12.906
36298W        W 1459   1.813   5.574   4.562
36299W        W 1460   9.778  18.016  11.422
36300W        W 1461  38.561  20.322   1.062
36301W        W 1462  38.217   5.008  13.342
36302W        W 1463   8.717  10.770  11.092
36303W        W 1464  34.329  35.893   2.326
36304W        W 1465  34.324  10.664  10.515
36305W        W 1466  29.519   4.277   4.589
36306W        W 1467  22.103  18.843  12.125
36307W        W 1468  27.910  37.051  12.142
36308W        W 1469   3.675  16.523  11.177
36309W        W 1470  25.536  11.731  12.972
36310W        W 1471  43.168   1.208  11.881
36311W        W 1472  41.068  10.396   1.190
36312W        W 1473   1.470  32.668  14.429
36313W        W 1474   7.743   0.955   4.342
36314W        W 1475  15.356  20.082   2.698
36315W        W 1476  44.875  31.115  14.779
36316W        W 1477  23.587  39.621  14.732
36317W        W 1478  40.915  35.275   1.819
36318W        W 1479  12.603  22.160   4.533
36319W        W 1480  11.215   5.185  14.411
36320W        W 1481   7.820  36.019   4.555
36321W        W 1482   4.725  29.003   1.221
36322W        W 1483  34.468   3.045   0.673
36323W        W 1484  13.215   0.916  13.824
36324W        W 1485  19.662   5.724  14.827
36325W        W 1486  27.579  21.000  14.374
36326W        W 1487  18.467  14.584  12.003
36327W        W 1488  39.040  10.619   2.165
36328W        W 1489   9.587  33.873  12.239
36329W        W 1490  23.136  27.076  12.003
36330W        W 1491  15.081  41.228  10.803
36331W        W 1492   6.677  15.846  11.070
36332W        W 1493  33.876  32.049  10.654
36333W        W 1494  14.210   3.951   1.708
36334W        W 1495   9.738  18.138   0.329
36335W        W 1496  11.384  44.634   4.176
36336W        W 1497  41.030   1.717   2.770
36337W        W 1498   0.915  13.480   2.522
36338W        W 1499  29.671  33.455   1.645
36339W        W 1500  42.529   3.508  14.647
36340W        W 1501  23.966  25.371  13.131
36341W        W 1502   4.938  30.909   4.678
36342W        W 1503  38.119   9.664  11.452
36343W        W 1504  17.119  34.811   4.598
36344W        W 1505  15.496  20.631  11.676
36345W        W 1506  43.671  33.468  13.303
36346W        W 1507  24.009  30.128  14.893
36347W        W 1508   8.195  36.490   4.633
36348W        W 1509  37.153   8.126   1.720
36349W        W 1510  23.872  17.428   3.592
36350W        W 1511  33.549  14.653  11.969
36351W        W 1512  18.968  22.169   2.488
36352W        W 1513  42.368  44.170  12.134
36353W        W 1514  20.566  16.531  12.431
36354W        W 1515  41.906   1.546  12.863
36355W        W 1516  14.815   1.434  14.035
36356W        W 1517  40.968   2.371  10.535
36357W        W 1518  19.763  12.568   0.729
36358W        W 1519  33.981  25.086  10.245
36359W        W 1520  33.566   4.820  11.847
36360W        W 1521  41.886  16.268   2.386
36361W        W 1522   9.203  16.471   0.057
36362W        W 1523   3.933  40.793  11.630
36363W        W 1524  16.739  21.108  13.003
36364W        W 1525  40.821  13.726  14.895
36365W        W 1526  14.648   6.961  10.508
36366W        W 1527  39.219   1.827   2.773
36367W        W 1528  34.616  22.510   2.121
36368W        W 1529  18.622   5.765   4.533
36369W        W 1530  25.534  36.511  12.804
36370W        W 1531   7.717  32.430   4.497
36371W        W 1532  32.540   0.316  14.947
36372W        W 1533  40.873  13.034   2.722
36373W        W 1534  23.289  16.672   4.231
36374W        W 1535   6.510   0.442   2.976
36375W        W 1536  10.561  32.959  11.976
36376W        W 1537  13.665  15.267  11.436
36377W        W 1538   7.259   1.267   4.489
36378W        W 1539  26.511  24.058  13.293
36379W        W 1540  31.495  34.622   2.731
36380W        W 1541  38.739  30.635   4.769
36381W        W 1542  19.649  22.567  13.000
36382W        W 1543  33.350  40.752   1.716
36383W        W 1544  22.835  23.512  12.758
36384W        W 1545  15.205  40.619   3.392
36385W        W 1546  24.484  14.303   3.341
36386W        W 1547  35.532  28.926   0.666
36387W        W 1548  31.530   1.385  11.000
36388W        W 1549  21.693  43.911   4.581
36389W        W 1550  13.587  20.708  12.661
36390W        W 1551  39.596   8.311   3.732
36391W        W 1552  20.740  43.432   3.749
36392W        W 1553  32.113  22.557   1.395
36393W        W 1554  21.892  39.464   1.361
36394W        W 1555  39.869  34.653  14.119
36395W        W 1556  11.764   2.652  13.958
36396W        W 1557  31.989  18.229  13.116
36397W        W 1558  39.246  21.210  11.973
36398W        W 1559  24.158  44.484  14.430
36399W        W 1560  39.028  19.216  12.330
36400W        W 1561   0.999  17.583  10.638
36401W        W 1562  29.993   0.024   0.555
36402W        W 1563   5.832   1.116   4.547
36403W        W 1564  17.680  13.367   1.471
36404W        W 1565   9.352  39.429   0.407
36405W        W 1566   7.306  18.019  14.271
36406W        W 1567  13.668  13.393   2.724
36407W        W 1568  17.912   3.678   2.776
36408W        W 1569  31.763   4.001   2.001
36409W        W 1570   0.762  25.111  14.680
36410W        W 1571   0.494  28.751  11.187
36411W        W 1572  27.490  32.326  13.388
36412W        W 1573  31.681   3.233  13.431
36413W        W 1574  35.101   6.662  12.124
36414W        W 1575  41.100  35.410  13.240
36415W        W 1576  12.084   9.962  11.749
36416W        W 1577   5.855   2.101   4.761
36417W        W 1578  12.014  44.333  14.543
36418W        W 1579  34.138  12.251  12.023
36419W        W 1580  20.722  17.857   2.540
36420W        W 1581  19.535   5.242   4.440
36421W        W 1582  17.557  37.273   0.447
36422W        W 1583   1.073  35.124   4.223
36423W        W 1584  25.315   6.790  14.425
36424W        W 1585  39.959  19.267  11.989
36425W        W 1586   3.263  44.836  14.911
36426W        W 1587  34.014  17.535  11.438
36427W        W 1588   9.290   9.177  13.582
36428W        W 1589   5.679  10.396  11.201
36429W        W 1590   0.391  38.335   2.739
36430W        W 1591  15.070  19.473   4.587
36431W        W 1592   0.231  11.657   0.196
36432W        W 1593  28.017  32.200  13.369
36433W        W 1594  14.622  33.640  14.287
36434W        W 1595  22.611  17.601  10.530
36435W        W 1596  27.961  24.226  10.708
36436W        W 1597  34.471  20.849  12.026
36437W        W 1598   4.389  34.665   2.899
36438W        W 1599  29.492  27.648  13.540
36439W        W 1600  18.892   8.740   0.217
36440W        W 1601  40.804  29.624   4.825
36441W        W 1602  35.385  25.907  12.881
36442W        W 1603   2.472  10.525  10.284
36443W        W 1604  14.912  24.349  14.840
36444W        W 1605  24.191  12.107   2.137
36445W        W 1606  11.342   0.817   2.414
36446W        W 1607  15.767   8.654   4.931
36447W        W 1608  19.190  29.898   2.296
36448W        W 1609   8.728  19.957   2.789
36449W        W 1610   4.888  32.322  13.339
36450W        W 1611  10.334   5.875  12.900
36451W        W 1612  30.058  16.161  14.761
36452W        W 1613  14.755  23.191  11.951
36453W        W 1614  16.290  18.425   3.667
36454W        W 1615  42.971  14.304   0.482
36455W        W 1616  38.296   9.169   4.326
36456W        W 1617  27.625  43.020   3.757
36457W        W 1618   1.345  15.396   0.747
36458W        W 1619   3.479  42.517   0.766
36459W        W 1620  39.379  25.254   4.202
36460W        W 1621   3.676   8.712   2.756
36461W        W 1622  15.307  37.982  10.960
36462W        W 1623  19.082  44.962   4.579
36463W        W 1624   1.448   7.719  13.149
36464W        W 1625  44.862  24.168   2.751
36465W        W 1626  42.832  44.780   2.015
36466W        W 1627  38.068   9.681   0.136
36467W        W 1628  24.470  14.902   2.244
36468W        W 1629   5.487  18.337   3.837
36469W        W 1630  32.834   4.412  10.501
36470W        W 1631  42.240  29.844  11.776
36471W        W 1632   7.843  29.982  14.439
36472W        W 1633  22.912   2.400   2.255
36473W        W 1634  22.029  19.516   0.768
36474W        W 1635  36.107  17.176  11.954
36475W        W 1636  17.208  38.863   2.850
36476W        W 1637  11.897   2.466  12.107
36477W        W 1638  42.885  44.154  12.071
36478W        W 1639  20.758   3.912   3.633
36479W        W 1640  17.717  11.912   2.663
36480W        W 1641  22.652  11.333  10.273
36481W        W 1642   1.867  20.463  11.679
36482W        W 1643  31.925   4.341   3.236
36483W        W 1644  38.826   6.800  13.506
36484W        W 1645  21.801   6.357   2.151
36485W        W 1646   1.219  19.804   1.817
36486W        W 1647  39.341   2.301  11.342
36487W        W 1648  11.243  10.131   0.341
36488W        W 1649  43.095  33.594  12.405
36489W        W 1650  14.510  41.942   3.622
36490W        W 1651  37.534   1.002   0.492
36491W        W 1652  18.257  27.165   3.764
36492W        W 1653  31.959  30.713   2.800
36493W        W 1654  38.477  37.323   2.692
36494W        W 1655   6.848  29.414  12.815
36495W        W 1656   1.902   0.216  14.058
36496W        W 1657  34.587   3.725  13.306
36497W        W 1658  31.557   7.049  12.593
36498W        W 1659  36.955  40.911  11.832
36499W        W 1660  38.523  15.777   4.407
36500W        W 1661   7.407  38.013   0.751
36501W        W 1662  27.251  41.407  13.790
36502W        W 1663  41.060  29.534   3.701
36503W        W 1664  38.419  13.773   2.648
36504W        W 1665  28.633  30.139  11.340
36505W        W 1666  32.980  23.066  13.262
36506W        W 1667  14.036   5.815  14.384
36507W        W 1668  20.180   2.326   4.953
36508W        W 1669  16.328  37.394   0.796
36509W        W 1670  23.735  27.538   4.868
36510W        W 1671  24.037  37.540   2.035
36511W        W 1672  35.334  43.887  10.646
36512W        W 1673  29.851  31.523   3.752
36513W        W 1674   4.674  16.301   4.935
36514W        W 1675  15.392  15.102  11.956
36515W        W 1676   6.319  27.571  12.033
36516W        W 1677   3.195  24.280   1.287
36517W        W 1678  23.176  26.584   4.760
36518W        W 1679  10.798  33.424  12.603
36519W        W 1680  29.083  22.094  13.138
36520W        W 1681  22.662  42.296   4.868
36521W        W 1682  15.832  27.709  13.029
36522W        W 1683  27.649  25.481  13.082
36523W        W 1684   7.939  42.401   2.700
36524W        W 1685  41.317  19.206   1.553
36525W        W 1686   2.336  39.823  10.751
36526W        W 1687   1.108  40.835   3.108
36527W        W 1688  30.951   3.650  12.770
36528W        W 1689  40.456  35.596  11.545
36529W        W 1690  30.829   0.435   4.710
36530W        W 1691  43.467  19.209   4.334
36531W        W 1692  15.530  22.492  12.579
36532W        W 1693   3.447   0.453   2.244
36533W        W 1694  39.131  38.498  10.422
36534W        W 1695  16.543  39.833  14.773
36535W        W 1696  29.900  36.669  13.537
36536W        W 1697  39.912  42.257  11.900
36537W        W 1698  37.498  16.137   2.163
36538W        W 1699   5.789  37.215  11.783
36539W        W 1700   5.520  12.111   1.439
36540W        W 1701  10.026  26.380   4.086
36541W        W 1702  13.234  26.705   2.432
36542W        W 1703  30.792  13.985   9.855
36543W        W 1704  35.607  28.631   0.181
36544W        W 1705  44.562  41.757  12.379
36545W        W 1706   9.835  24.653  14.037
36546W        W 1707   1.834  17.413  14.473
36547W        W 1708   8.182  36.108  12.174
36548W        W 1709  31.893  37.090  12.933
36549W        W 1710   0.389  26.493   1.775
36550W        W 1711  29.995   7.091  11.207
36551W        W 1712  43.385  21.648  13.717
36552W        W 1713  10.137  23.504   2.625
36553W        W 1714  29.031   7.861   4.325
36554W        W 1715  35.898  38.389   3.095
36555W        W 1716  37.044  23.094   4.618
36556W        W 1717   1.459  25.415   3.348
36557W        W 1718  35.118  35.422   1.807
36558W        W 1719  41.952  22.735   0.339
36559W        W 1720  18.177  43.974  13.059
36560W        W 1721  10.699  30.806   2.487
36561W        W 1722  39.515  31.337   0.072
36562W        W 1723  10.810  27.591   0.293
36563W        W 1724  28.959  44.898   0.290
36564W        W 1725  41.253  15.784   3.661
36565W        W 1726  43.736  23.098  14.433
36566W        W 1727  11.410  38.345   0.125
36567W        W 1728  18.057  37.392  12.049
36568W        W 1729  33.888  16.816  12.098
36569W        W 1730  20.343   1.850  11.208
36570W        W 1731  37.096  10.404   4.093
36571W        W 1732  16.243   5.721   0.004
36572W        W 1733  43.001  44.507  13.780
36573W        W 1734  43.832  19.505   4.070
36574W        W 1735   7.989  10.237   0.157
36575W        W 1736  44.160  10.124   4.068
36576W        W 1737   6.687  39.723   4.174
36577W        W 1738  43.302   9.805   4.087
36578W        W 1739   6.348  19.947   4.876
36579W        W 1740   6.651  21.235   3.106
36580W        W 1741  13.277  10.624   1.303
36581W        W 1742   9.784  39.348   4.647
36582W        W 1743  42.254  35.343  12.311
36583W        W 1744  11.116  16.204   1.806
36584W        W 1745  33.892  12.631  13.098
36585W        W 1746   2.475   1.375   0.383
36586W        W 1747  26.670  35.147  14.482
36587W        W 1748  44.179  11.162  11.587
36588W        W 1749   7.711  30.591   2.015
36589W        W 1750   2.984  31.485  11.707
36590W        W 1751  23.356  41.386   0.416
36591W        W 1752   1.537  14.259   2.768
36592W        W 1753  37.257   4.877   2.210
36593W        W 1754  28.664  41.525  14.070
36594W        W 1755   6.608  11.787   3.781
36595W        W 1756  31.164  19.039   4.285
36596W        W 1757  42.066  32.917   2.390
36597W        W 1758   1.954  13.757   3.333
36598W        W 1759  29.147  18.272  14.239
36599W        W 1760   7.559  43.438   4.277
36600W        W 1761  14.355  29.734  14.079
36601W        W 1762   9.935  35.345  14.300
36602W        W 1763  21.664   6.259   2.726
36603W        W 1764   6.758   2.217  13.109
36604W        W 1765  24.237  24.665  11.432
36605W        W 1766   5.616  42.274  13.004
36606W        W 1767  43.811  32.611   2.913
36607W        W 1768  36.841  44.012   0.048
36608W        W 1769  22.467   9.317  11.313
36609W        W 1770  10.179   2.063   3.473
36610W        W 1771  14.288  32.929  13.409
36611W        W 1772  15.315  34.604   4.641
36612W        W 1773  21.968  43.026   2.940
36613W        W 1774  32.088  40.919   4.535
36614W        W 1775  43.437   3.829  14.547
36615W        W 1776  33.331   2.213  14.481
36616W        W 1777  35.424  31.699   1.251
36617W        W 1778  35.572  34.601  11.807
36618W        W 1779  35.922  37.389   0.812
36619W        W 1780  13.996  23.849   1.858
36620W        W 1781  32.061  28.567   4.703
36621W        W 1782  15.108  27.704   3.165
36622W        W 1783  38.412  27.357  12.389
36623W        W 1784  22.553  32.680   3.135
36624W        W 1785   5.477   5.470  14.877
36625W        W 1786  23.139  15.324  12.502
36626W        W 1787  18.049  42.453   3.692
36627W        W 1788  19.517  10.091  14.393
36628W        W 1789   8.889   2.373   0.385
36629W        W 1790   2.885  34.100   2.133
36630W        W 1791  28.273  13.129  12.412
36631W        W 1792  42.822  40.997  12.446
36632W        W 1793  25.863  31.971   4.119
36633W        W 1794   8.675  19.354  10.711
36634W        W 1795   3.255  23.230   0.415
36635W        W 1796   3.536  26.818   0.497
36636W        W 1797  22.437  42.931   2.759
36637W        W 1798  27.596  11.199  11.608
36638W        W 1799  15.733  16.203   4.659
36639W        W 1800   4.822  16.691  10.502
36640W        W 1801  28.179   6.903  14.474
36641W        W 1802   7.715  19.036  10.646
36642W        W 1803  33.487  40.082  12.239
36643W        W 1804  23.311  26.535   0.915
36644W        W 1805  31.875  22.093  12.050
36645W        W 1806  26.693   7.766   0.384
36646W        W 1807  33.585  36.913  11.277
36647W        W 1808  43.376  25.719  14.537
36648W        W 1809  39.978  44.953   4.500
36649W        W 1810  37.012  22.711  11.012
36650W        W 1811  25.563  30.780   4.622
36651W        W 1812  25.109  14.653   0.823
36652W        W 1813  11.439  37.444   3.711
36653W        W 1814  38.188  20.452   0.023
36654W        W 1815  26.393   9.844   2.422
36655W        W 1816   1.319  15.244  12.323
36656W        W 1817  33.883   3.857   3.424
36657W        W 1818   6.430  32.054  10.249
36658W        W 1819  35.411  34.609  12.311
36659W        W 1820   2.351   6.666  12.055
36660W        W 1821  19.352  29.210   0.056
36661W        W 1822  13.737   4.290   0.147
36662W        W 1823  34.038   8.750   0.295
36663W        W 1824   4.923  17.777   3.859
36664W        W 1825   6.939  29.791  14.210
36665W        W 1826  34.940  37.874  14.672
36666W        W 1827  26.242  37.374   3.576
36667W        W 1828  11.754  20.799  10.866
36668W        W 1829   6.190   3.114  11.610
36669W        W 1830  32.227  34.457   2.268
36670W        W 1831  35.542  30.626   4.723
36671W        W 1832  25.320  35.855   0.940
36672W        W 1833  26.701  28.074  12.178
36673W        W 1834  35.998  41.550  12.050
36674W        W 1835  41.531  25.284   2.681
36675W        W 1836  37.840  22.848   3.172
36676W        W 1837  18.339  10.130   0.717
36677W        W 1838   6.665  25.255   2.804
36678W        W 1839  20.069  28.502  13.875
36679W        W 1840  24.253  10.278  12.000
36680W        W 1841  35.013  35.508   0.357
36681W        W 1842  35.572   1.147   1.194
36682W        W 1843  12.124  18.530   1.169
36683W        W 1844   3.744  42.276   4.695
36684W        W 1845   6.129  44.372   4.809
36685W        W 1846   0.249  27.967   4.522
36686W        W 1847  17.305  40.133   1.329
36687W        W 1848  17.560  12.877   1.360
36688W        W 1849  39.267  10.241   3.217
36689W        W 1850   9.313   5.334  12.370
36690W        W 1851  27.532  18.629   3.323
36691W        W 1852  18.248  22.398   3.634
36692W        W 1853  15.926  17.850   1.778
36693W        W 1854  11.112   6.360   3.263
36694W        W 1855  13.298  10.919  10.723
36695W        W 1856  24.118   3.778   0.333
36696W        W 1857  13.452  31.454  12.008
36697W        W 1858   8.452  10.985   3.075
36698W        W 1859  22.366  11.473  11.485
36699W        W 1860  23.317  37.292  12.047
36700W        W 1861   5.965  20.919   3.796
36701W        W 1862  17.529  17.003  13.037
36702W        W 1863  16.624  27.619   4.168
36703W        W 1864  37.903  27.735   2.789
36704W        W 1865  23.051  15.000   2.770
36705W        W 1866  19.284   7.711  11.132
36706W        W 1867  31.552  16.798   2.916
36707W        W 1868  37.230   9.734  12.998
36708W        W 1869  15.118   1.779  14.943
36709W        W 1870  27.170  22.304   1.147
36710W        W 1871  26.377  15.104  12.971
36711W        W 1872  21.519   2.975   3.005
36712W        W 1873  18.160  40.917   1.248
36713W        W 1874   2.897   4.267  12.874
36714W        W 1875   3.432  31.101  13.891
36715W        W 1876  18.156  43.824   1.347
36716W        W 1877   9.190  16.818  10.367
36717W        W 1878  27.449  17.372   3.420
36718W        W 1879  34.372   6.741   2.545
36719W        W 1880  17.275   8.237   1.453
36720W        W 1881   2.728  29.401  14.500
36721W        W 1882  41.722  29.679   0.374
36722W        W 1883  30.109  43.826  13.197
36723W        W 1884  29.870  25.485   2.599
36724W        W 1885  17.315  27.158  14.544
36725W        W 1886   8.666  19.098   0.711
36726W        W 1887  18.056  24.277  11.686
36727W        W 1888   3.785  32.090  13.479
36728W        W 1889  25.444  13.267   2.230
36729W        W 1890  30.768  33.386  11.041
36730W        W 1891  20.800  10.434   5.090
36731W        W 1892  42.847  39.034   2.349
36732W        W 1893   3.677  25.958  11.301
36733W        W 1894  19.738   9.672  13.434
36734W        W 1895  36.387   1.366   3.623
36735W        W 1896  11.948  40.092   0.868
36736W        W 1897   2.276   5.569  12.879
36737W        W 1898  43.805  34.312   1.382
36738W        W 1899  20.095   7.919  14.514
36739W        W 1900  44.188  27.910   0.564
36740W        W 1901  22.438   3.982   3.657
36741W        W 1902  19.074  14.181   2.794
36742W        W 1903  17.218  12.389   1.867
36743W        W 1904  17.839  19.436   3.220
36744W        W 1905  36.488  10.587   1.819
36745W        W 1906  13.372  13.205   3.716
36746W        W 1907  27.044  14.889   3.724
36747W        W 1908  25.371  33.770   1.844
36748W        W 1909   4.242  20.195  13.439
36749W        W 1910  31.597  24.974   0.322
36750W        W 1911  19.246  22.362   4.884
36751W        W 1912  37.290  22.442  13.417
36752W        W 1913  27.156  20.583   2.870
36753W        W 1914  16.111  36.017   3.741
36754W        W 1915  20.970  13.624  11.578
36755W        W 1916  25.202  30.028  14.787
36756W        W 1917  15.614  19.269   2.913
36757W        W 1918  36.539  39.372  13.085
36758W        W 1919   5.212  31.466   0.313
36759W        W 1920   0.989  43.378   4.572
36760W        W 1921  24.028  24.959  14.471
36761W        W 1922  44.261  15.588  12.551
36762W        W 1923  11.747  22.854  11.464
36763W        W 1924  37.848  34.609   1.726
36764W        W 1925   7.127  16.254   4.110
36765W        W 1926  25.515  30.226   4.193
36766W        W 1927  39.021  10.617  10.271
36767W        W 1928  28.262  14.850   4.611
36768W        W 1929  15.430  20.788  13.501
36769W        W 1930  39.036  44.246   0.304
36770W        W 1931   4.496   4.223   2.975
36771W        W 1932  15.791  31.574   0.857
36772W        W 1933  13.685  29.648  14.433
36773W        W 1934  39.872  43.331  12.064
36774W        W 1935  26.743   1.702   2.366
36775W        W 1936   3.127  36.588  13.031
36776W        W 1937   2.004  43.880  13.446
36777W        W 1938   6.046  28.231  13.097
36778W        W 1939  27.954  43.846  14.947
36779W        W 1940  43.949  34.879   3.332
36780W        W 1941  14.135  27.544  10.741
36781W        W 1942   1.308   8.596   2.366
36782W        W 1943   0.357  36.398  13.834
36783W        W 1944  42.777  29.826   4.054
36784W        W 1945  20.625  23.043   4.278
36785W        W 1946  25.977  25.453   4.829
36786W        W 1947   8.473  25.945  12.021
36787W        W 1948   3.061   5.697  14.928
36788W        W 1949  23.320  24.193  14.481
36789W        W 1950  27.391   1.062  10.679
36790W        W 1951  21.763  15.170  12.126
36791W        W 1952   8.793   6.429   4.428
36792W        W 1953  28.127   7.736  11.649
36793W        W 1954   1.978  38.827   1.443
36794W        W 1955   3.394   5.071   1.767
36795W        W 1956  13.432   4.942   2.802
36796W        W 1957  39.356   6.201   2.259
36797W        W 1958  28.041  20.502  12.409
36798W        W 1959  38.004  25.583   3.814
36799W        W 1960  19.653  39.891  13.884
36800W        W 1961  40.028  21.135   3.845
36801W        W 1962  25.064  20.866  11.564
36802W        W 1963  10.671  14.637  11.466
36803W        W 1964  36.669   7.504  12.105
36804W        W 1965  29.840  43.800  11.929
36805W        W 1966  38.516  16.504   3.663
36806W        W 1967  22.508  38.629   2.312
36807W        W 1968  42.046  36.037   1.949
36808W        W 1969  16.747  24.278  12.847
36809W        W 1970   8.759  19.081   0.197
36810W        W 1971   7.931  41.855   0.423
36811W        W 1972  25.708  22.255   1.168
36812W        W 1973  10.183  44.746  12.475
36813W        W 1974  25.384  22.725  12.692
36814W        W 1975  19.898  23.752  10.985
36815W        W 1976  17.786  28.666   3.196
36816W        W 1977  31.436  21.528   4.722
36817W        W 1978  33.166  29.610   0.994
36818W        W 1979  19.628   6.151  12.014
36819W        W 1980  33.109   8.412  11.556
36820W        W 1981  30.508   3.030   2.691
36821W        W 1982  37.718  37.968   4.225
36822W        W 1983   0.559  23.702  13.642
36823W        W 1984  42.594  43.356   0.237
36824W        W 1985  34.870  11.381  12.859
36825W        W 1986  38.960   9.203  13.819
36826W        W 1987  33.641  32.150   4.880
36827W        W 1988   0.368  41.712  11.965
36828W        W 1989  23.043  30.562   4.628
36829W        W 1990   7.729  19.214   1.020
36830W        W 1991  41.008  17.759   2.701
36831W        W 1992  30.553   8.365  11.254
36832W        W 1993  16.751  37.774   4.999
36833W        W 1994  15.527  31.601  12.923
36834W        W 1995  13.849  41.304   1.430
36835W        W 1996   1.271   9.595   3.131
36836W        W 1997  28.140  34.066  10.440
36837W        W 1998  30.930   7.305  10.598
36838W        W 1999   6.764  39.915   0.227
36839W        W 2000  25.429   3.937   4.452
36840W        W 2001  22.775  25.102  10.636
36841W        W 2002  21.791  31.984  12.600
36842W        W 2003  16.050  32.061  11.204
36843W        W 2004  34.562  36.857   3.335
36844W        W 2005   3.404  32.965   2.249
36845W        W 2006   3.857  12.768   4.554
36846W        W 2007  42.417  18.993   0.242
36847W        W 2008  12.276  22.133  13.947
36848W        W 2009  39.119   2.853   2.098
36849W        W 2010  15.712  12.050  14.157
36850W        W 2011  31.334  38.277  13.796
36851W        W 2012  19.156  33.218   3.241
36852W        W 2013  38.484   5.991  13.384
36853W        W 2014   8.784  16.091  10.833
36854W        W 2015  25.477   7.138   4.583
36855W        W 2016  18.822   6.852  11.039
36856W        W 2017  32.302   6.208   4.478
36857W        W 2018   4.008  41.919  10.849
36858W        W 2019  19.061   0.911   2.858
36859W        W 2020  43.799  30.648   0.462
36860W        W 2021  32.487  39.472   3.135
36861W        W 2022  34.892  32.803   2.623
36862W        W 2023  33.103  44.036  13.035
36863W        W 2024  42.217  36.525   3.550
36864W        W 2025  10.101  24.211  12.824
36865W        W 2026  31.343  20.483   2.135
36866W        W 2027   1.031   3.070  11.513
36867W        W 2028  11.632  21.630  14.070
36868W        W 2029  25.159  14.241   1.700
36869W        W 2030  17.048  20.166   0.255
36870W        W 2031   4.674  13.769  13.891
36871W        W 2032  35.154  15.187  11.781
36872W        W 2033  13.387  18.978   2.048
36873W        W 2034  30.084  39.301   1.625
36874W        W 2035  12.220   1.559   3.377
36875W        W 2036   1.250  39.533  11.083
36876W        W 2037  17.031  20.690  12.868
36877W        W 2038  20.524   1.069   1.815
36878W        W 2039   3.476  35.494   0.749
36879W        W 2040   3.729   1.174   1.375
36880W        W 2041   5.824  13.540  13.520
36881W        W 2042  15.251  37.609  12.577
36882W        W 2043  16.667  25.123   2.978
36883W        W 2044  39.507  31.644   4.689
36884W        W 2045  29.425  27.032   4.111
36885W        W 2046  16.797  30.583  12.123
36886W        W 2047  15.189  41.126   3.599
36887W        W 2048  35.610  44.423  10.730
36888W        W 2049  13.816  33.636  14.941
36889W        W 2050  36.704   6.736  13.411
36890W        W 2051  38.743  21.546  14.073
36891W        W 2052  32.470  41.865   4.047
36892W        W 2053  30.864   9.809  10.658
36893W        W 2054   7.410  20.146   3.211
36894W        W 2055  24.323  22.822  14.292
36895W        W 2056   0.869   7.727  13.889
36896W        W 2057  13.305  21.214   3.696
36897W        W 2058   3.863  10.756  14.553
36898W        W 2059  23.477  20.540   3.232
36899W        W 2060   9.668  19.607   5.122
36900W        W 2061  18.803  25.583  12.519
36901W        W 2062  27.677  41.261   2.282
36902W        W 2063  32.474  22.407   3.295
36903W        W 2064  38.832  12.474   4.063
36904W        W 2065   5.258  31.482  11.188
36905W        W 2066   5.339  24.598   3.247
36906W        W 2067  40.523  31.137  12.469
36907W        W 2068  41.827  32.640  13.485
36908W        W 2069   1.137  18.306  11.158
36909W        W 2070  25.287  32.420   1.567
36910W        W 2071  43.921  40.233  10.322
36911W        W 2072  13.573  34.693  10.799
36912W        W 2073  10.024  34.845  10.993
36913W        W 2074  40.989  28.718   4.584
36914W        W 2075  31.015   9.283  13.885
36915W        W 2076  41.990  44.520  13.004
36916W        W 2077  26.555  12.368  10.880
36917W        W 2078  19.560   0.371   2.257
36918W        W 2079  28.540  22.635   5.040
36919W        W 2080  25.550  19.204   2.396
36920W        W 2081  43.928  26.060   2.435
36921W        W 2082  11.614   9.480   4.619
36922W        W 2083  27.940  19.560  13.873
36923W        W 2084  35.471  31.249   0.966
36924W        W 2085   6.849   9.960  11.982
36925W        W 2086  34.874  15.774   1.378
36926W        W 2087  19.416  32.261   1.718
36927W        W 2088  32.986  34.108   4.205
36928W        W 2089   0.949  33.126  10.881
36929W        W 2090  15.837  28.007   1.729
36930W        W 2091  27.185  31.696   2.733
36931W        W 2092  37.848  32.039  11.842
36932W        W 2093  18.126  10.928  13.581
36933W        W 2094  39.960  23.037   1.926
36934W        W 2095  16.313   5.251  12.485
36935W        W 2096  12.190  30.368  13.862
36936W        W 2097  15.348  16.731   0.291
36937W        W 2098  33.873  37.126  14.924
36938W        W 2099   4.556  32.026  14.919
36939W        W 2100   0.445  25.744  13.871
36940W        W 2101   4.346  37.224  12.472
36941W        W 2102  18.617   3.209  10.290
36942W        W 2103  11.536   0.836  14.407
36943W        W 2104  27.008  30.528  12.920
36944W        W 2105  10.722   5.588   0.307
36945W        W 2106  18.842  32.830  13.418
36946W        W 2107  39.477   3.196   2.917
36947W        W 2108  14.822  12.277   2.825
36948W        W 2109  24.039   0.182  13.896
36949W        W 2110   8.235   4.276  14.523
36950W        W 2111   4.865  16.105  14.467
36951W        W 2112  33.901  29.912  13.105
36952W        W 2113  38.889   5.424   3.281
36953W        W 2114  24.611  32.431   4.655
36954W        W 2115  16.191  28.855   1.248
36955W        W 2116  43.364  29.678  13.830
36956W        W 2117  43.445  33.157  11.409
36957W        W 2118  41.422  43.163   3.177
36958W        W 2119   4.054  28.553   1.887
36959W        W 2120  23.528  44.423   1.281
36960W        W 2121  18.099  25.522   1.470
36961W        W 2122   8.227  28.079  14.477
36962W        W 2123  32.039  38.944  12.267
36963W        W 2124   7.262  34.442  12.053
36964W        W 2125  11.085   6.413   4.140
36965W        W 2126   5.068  36.065  14.546
36966W        W 2127  27.955   1.849  11.078
36967W        W 2128  26.384  13.092   3.167
36968W        W 2129  32.489  11.249  11.809
36969W        W 2130   6.163  21.744   0.782
36970W        W 2131   3.327  37.976   0.086
36971W        W 2132  16.549  33.868   4.381
36972W        W 2133  10.318   5.638  12.022
36973W        W 2134  44.932  29.581  14.094
36974W        W 2135  19.008  44.781   0.232
36975W        W 2136  31.940   0.988  14.362
36976W        W 2137  41.429   0.532  12.499
36977W        W 2138  38.096   9.329  13.010
36978W        W 2139  21.494  20.724  14.948
36979W        W 2140  11.939   6.259   3.626
36980W        W 2141  25.373   8.713   0.494
36981W        W 2142  41.902   5.479  11.108
36982W        W 2143  10.972  18.168   4.615
36983W        W 2144  43.509   4.796   3.145
36984W        W 2145  32.395   1.374  12.929
36985W        W 2146  20.238  19.996   1.792
36986W        W 2147  42.935  19.615  14.902
36987W        W 2148  10.114   7.301   2.837
36988W        W 2149  15.097  35.305  13.843
36989W        W 2150  44.692  34.829   4.555
36990W        W 2151  29.888  31.964  10.423
36991W        W 2152  28.292  10.676   3.348
36992W        W 2153  36.611  32.377  12.936
36993W        W 2154  19.738  13.780   1.947
36994W        W 2155   4.731   2.454   2.729
36995W        W 2156  19.118   6.998   0.086
36996W        W 2157  31.704  40.044  12.889
36997W        W 2158   9.799   8.861   4.916
36998W        W 2159  19.055  24.163  11.666
36999W        W 2160   1.187  43.873   0.569
37000W        W 2161  30.580  11.533  14.039
37001W        W 2162  39.067  18.754   5.048
37002W        W 2163  11.147  24.047   4.448
37003W        W 2164   3.241  43.537   1.893
37004W        W 2165  44.248   4.106   0.206
37005W        W 2166   7.175  24.207  13.864
37006W        W 2167   3.336  10.899  12.923
37007W        W 2168  15.080  23.781  14.088
37008W        W 2169   1.839  18.154  11.370
37009W        W 2170  43.784  33.298  12.820
37010W        W 2171   0.884  33.480   2.033
37011W        W 2172  37.373  44.283  12.995
37012W        W 2173  22.699  29.237   0.839
37013W        W 2174   7.404  10.298   0.889
37014W        W 2175  23.444  29.616  11.977
37015W        W 2176  25.665   3.133  14.560
37016W        W 2177   5.870   9.685  11.934
37017W        W 2178   4.702  16.614  14.527
37018W        W 2179  33.932  41.148   3.462
37019W        W 2180   2.656  13.829   1.449
37020W        W 2181  13.717  35.882  14.531
37021W        W 2182  14.355   7.915   2.225
37022W        W 2183   0.936   8.705  12.144
37023W        W 2184  44.899  29.435   2.737
37024W        W 2185  15.215   0.057  14.539
37025W        W 2186  17.349   9.688  10.600
37026W        W 2187  44.908  19.190  11.683
37027W        W 2188  26.500  14.247  14.883
37028W        W 2189  16.924   4.486   9.974
37029W        W 2190  21.182   3.691  11.701
37030W        W 2191  36.985  16.261  10.771
37031W        W 2192  43.007  40.905   0.320
37032W        W 2193   4.264   5.299   4.043
37033W        W 2194  17.704  16.551  13.593
37034W        W 2195  39.832  11.085   3.490
37035W        W 2196  44.355  12.771   0.905
37036W        W 2197  40.709  29.965   0.395
37037W        W 2198  37.966  15.741  12.875
37038W        W 2199   0.974  41.926   4.263
37039W        W 2200  29.582  26.623   1.382
37040W        W 2201  31.643  21.446  14.332
37041W        W 2202  16.229   2.685   0.661
37042W        W 2203  20.569  38.580  13.355
37043W        W 2204  34.364  42.256  11.972
37044W        W 2205  41.887  43.409   3.242
37045W        W 2206   3.328  33.186   1.779
37046W        W 2207  32.391  11.363  13.830
37047W        W 2208   8.803  26.203   3.175
37048W        W 2209  13.656  36.929   3.673
37049W        W 2210  31.886  42.134  13.168
37050W        W 2211  40.918   5.513   4.334
37051W        W 2212   5.462  26.620  10.856
37052W        W 2213  21.302  19.530  13.788
37053W        W 2214  20.054  39.058   3.348
37054W        W 2215  26.166  24.059  11.450
37055W        W 2216   9.771  15.140  11.585
37056W        W 2217   3.432  40.927  13.403
37057W        W 2218  38.914  22.635   4.544
37058W        W 2219  14.595  15.806  12.904
37059W        W 2220  23.170  25.187  10.958
37060W        W 2221  22.487   7.383  13.038
37061W        W 2222  35.971  21.283   4.726
37062W        W 2223  21.454   0.328   0.946
37063W        W 2224  15.555  30.915  12.610
37064W        W 2225   6.277   1.250  13.847
37065W        W 2226  31.668  33.883  12.161
37066W        W 2227   6.000  26.565  10.173
37067W        W 2228  37.961  29.594   1.663
37068W        W 2229   6.234   0.506   1.461
37069W        W 2230   7.755  15.351  12.109
37070W        W 2231  31.324  21.171   1.732
37071W        W 2232  21.542  25.500  13.978
37072W        W 2233  42.327  35.167  13.629
37073W        W 2234  41.085  12.597   1.819
37074W        W 2235  13.191  28.590   1.837
37075W        W 2236   6.277  44.988   3.092
37076W        W 2237  36.280  36.465   2.324
37077W        W 2238   0.827  26.936  10.689
37078W        W 2239   1.401  24.695  12.084
37079W        W 2240  21.545  14.056   1.456
37080W        W 2241  14.733   1.222  13.135
37081W        W 2242   2.512  37.477   1.246
37082W        W 2243  34.922  33.130  14.540
37083W        W 2244   9.329   0.397  13.832
37084W        W 2245   2.031  22.265   1.383
37085W        W 2246   1.423  36.123   9.819
37086W        W 2247  34.520   7.918  13.446
37087W        W 2248  42.471   6.514  10.377
37088W        W 2249  33.576  26.767   3.902
37089W        W 2250  33.582  25.407   4.541
37090W        W 2251  23.126  18.785   1.229
37091W        W 2252  35.374  27.419  13.068
37092W        W 2253  28.376   6.834  11.984
37093W        W 2254  29.321  31.543   3.732
37094W        W 2255   9.628  32.260  13.852
37095W        W 2256  26.210  27.316  14.509
37096W        W 2257  11.712  17.253  12.955
37097W        W 2258  20.313  44.401   1.167
37098W        W 2259  43.459   6.916   3.751
37099W        W 2260  10.686  10.508   2.612
37100W        W 2261  11.752  43.411  10.966
37101W        W 2262  12.974  20.652  11.056
37102W        W 2263  38.514  32.496   3.117
37103W        W 2264  15.032  36.723   3.618
37104W        W 2265  32.343  15.762  13.688
37105W        W 2266  39.581  10.307  12.425
37106W        W 2267  23.542  43.994  10.628
37107W        W 2268  14.243  31.827  10.203
37108W        W 2269  32.580  28.273  14.106
37109W        W 2270  21.570  39.930  13.488
37110W        W 2271  31.286   4.208  13.511
37111W        W 2272  18.713  33.567   2.508
37112W        W 2273  21.405  19.087   0.526
37113W        W 2274  24.246   3.965  12.525
37114W        W 2275  18.292  34.317  14.754
37115W        W 2276  30.290  38.563   1.161
37116W        W 2277  11.100   5.500   2.890
37117W        W 2278  17.856   4.287  10.729
37118W        W 2279   4.974  29.539  14.333
37119W        W 2280  37.380  40.552   0.333
37120W        W 2281  20.108  11.672  14.835
37121W        W 2282   6.859  30.707  14.022
37122W        W 2283  13.251  17.579  10.097
37123W        W 2284   1.847  40.603   4.647
37124W        W 2285  21.345  29.715   2.384
37125W        W 2286  14.517  24.453  12.939
37126W        W 2287  29.480   1.309  11.535
37127W        W 2288  38.917  33.807  10.802
37128W        W 2289  14.716  41.496   0.951
37129W        W 2290  19.133   1.222  14.514
37130W        W 2291  16.168  42.819   0.723
37131W        W 2292  42.046   1.225   4.576
37132W        W 2293  24.718   0.353  14.459
37133W        W 2294  30.106  28.094  14.869
37134W        W 2295  16.167  24.026   3.154
37135W        W 2296  11.877  32.419  10.931
37136W        W 2297  16.197  36.998   2.408
37137W        W 2298   8.422  20.727  12.533
37138W        W 2299  34.888  43.883   0.427
37139W        W 2300  16.146  42.118  12.094
37140W        W 2301  37.417  18.007  13.555
37141W        W 2302   5.200  35.840   0.376
37142W        W 2303   8.393  17.060  10.761
37143W        W 2304  23.645  33.898   0.956
37144W        W 2305   9.649  33.415  11.995
37145W        W 2306  36.796   9.195  12.449
37146W        W 2307  26.496  40.180  13.404
37147W        W 2308  18.180  15.335   0.194
37148W        W 2309  38.066   3.834  13.103
37149W        W 2310  33.965   8.935   4.096
37150W        W 2311  29.187   3.406  13.821
37151W        W 2312   1.241  20.121   0.401
37152W        W 2313  35.572   8.213  11.579
37153W        W 2314  28.504  36.826  13.830
37154W        W 2315  18.966  28.129  14.383
37155W        W 2316   4.991   5.081   3.106
37156W        W 2317  38.061  36.571  12.557
37157W        W 2318  42.970   1.718  10.725
37158W        W 2319  17.600  35.621   4.828
37159W        W 2320  37.383  11.789   3.543
37160W        W 2321  24.046  22.412  14.202
37161W        W 2322   9.124  26.487   0.205
37162W        W 2323  12.614  15.747   1.230
37163W        W 2324  13.401  23.377   2.446
37164W        W 2325  36.050   6.393   2.705
37165W        W 2326  29.532   8.104   1.980
37166W        W 2327  36.803  10.934   4.482
37167W        W 2328  32.020  37.497   3.959
37168W        W 2329  32.416  34.821  10.574
37169W        W 2330  12.827  25.118  14.826
37170W        W 2331  24.417  16.141   0.323
37171W        W 2332  33.851   6.225  13.494
37172W        W 2333  16.257  44.835   2.044
37173W        W 2334  44.465  23.945   0.235
37174W        W 2335  24.516   0.871  13.350
37175W        W 2336  32.215  22.499   4.787
37176W        W 2337  41.851  13.780  11.955
37177W        W 2338  21.044  42.750  11.411
37178W        W 2339  25.066   2.446   0.949
37179W        W 2340  29.392  35.573  11.139
37180W        W 2341  39.556  29.157  13.774
37181W        W 2342   3.670   8.856   5.028
37182W        W 2343  43.784  43.487  12.426
37183W        W 2344  12.284  12.210  13.421
37184W        W 2345   4.641  23.369  13.902
37185W        W 2346   1.981  24.675  14.679
37186W        W 2347  11.193  41.576   1.306
37187W        W 2348  33.425   4.985   4.235
37188W        W 2349  26.934   9.287   0.816
37189W        W 2350  26.340  34.896   2.192
37190W        W 2351  37.046  17.025  14.879
37191W        W 2352  25.991   0.629   0.585
37192W        W 2353  15.004  31.053  14.890
37193W        W 2354  32.735   1.594  13.793
37194W        W 2355  14.430  44.855   4.645
37195W        W 2356   1.340  28.663   4.342
37196W        W 2357  41.010  38.120   1.014
37197W        W 2358  34.854   6.910   4.307
37198W        W 2359  38.073  42.285  10.513
37199W        W 2360  32.835  20.707   2.196
37200W        W 2361  42.316   3.901  11.954
37201W        W 2362  37.441  43.280   0.924
37202W        W 2363  26.957   6.396  14.100
37203W        W 2364  32.455  32.644   3.829
37204W        W 2365  14.321   0.922   1.380
37205W        W 2366   6.960  31.844  13.540
37206W        W 2367  42.568  33.400   1.750
37207W        W 2368   8.784  18.600   3.434
37208W        W 2369   5.030   1.409  14.799
37209W        W 2370  21.989   0.459  13.421
37210W        W 2371  36.324  17.587  10.894
37211W        W 2372  14.083  31.597   1.543
37212W        W 2373  12.654   2.860  11.565
37213W        W 2374  19.607  30.202   3.278
37214W        W 2375  40.988  40.063   4.614
37215W        W 2376  15.852  10.816   1.521
37216W        W 2377   7.803  26.726  14.700
37217W        W 2378   9.068  20.751  12.003
37218W        W 2379  21.932  29.076  12.576
37219W        W 2380   9.429  26.444   3.243
37220W        W 2381  16.532   1.593   2.376
37221W        W 2382   1.361   9.405   0.852
37222W        W 2383  11.769  11.762   0.354
37223W        W 2384   9.916   2.815  10.882
37224W        W 2385  39.974  13.896  13.574
37225W        W 2386  16.700  37.188  11.894
37226W        W 2387  11.028  25.215  14.310
37227W        W 2388  44.177  29.032  11.095
37228W        W 2389  26.979   5.938   2.826
37229W        W 2390  19.021  44.757   3.744
37230W        W 2391  36.462  15.521   4.932
37231W        W 2392   2.312  36.940   0.424
37232W        W 2393  13.349   0.970   2.196
37233W        W 2394   1.525  12.861  14.335
37234W        W 2395   2.879  34.728  12.926
37235W        W 2396   1.322  29.582   0.346
37236W        W 2397  34.875   7.067  13.783
37237W        W 2398  10.994  36.434   2.663
37238W        W 2399  14.578   4.563  14.856
37239W        W 2400   2.817  27.942   0.773
37240W        W 2401   9.223   7.166   3.751
37241W        W 2402  37.907  31.108  13.426
37242W        W 2403  23.075   1.919   2.184
37243W        W 2404  14.894  44.016   2.433
37244W        W 2405   0.784  17.855   2.670
37245W        W 2406  33.005   1.304   3.649
37246W        W 2407   5.347  20.252   0.412
37247W        W 2408   7.063  39.994  13.855
37248W        W 2409   2.055   7.072   2.293
37249W        W 2410  35.433   3.324  14.693
37250W        W 2411  33.131  44.523   2.766
37251W        W 2412  11.307  42.720  13.319
37252W        W 2413  10.774  20.762  10.451
37253W        W 2414  26.488  37.823   3.312
37254W        W 2415  30.486  18.718  11.623
37255W        W 2416   9.610  10.300  13.068
37256W        W 2417  10.465   6.952   0.957
37257W        W 2418  42.060  35.241   4.096
37258W        W 2419  10.451  30.719   3.279
37259W        W 2420  30.649  33.635  13.330
37260W        W 2421  30.928   3.667  12.234
37261W        W 2422   0.401   4.281   1.397
37262W        W 2423  13.194  37.551   3.255
37263W        W 2424   3.195  29.666   3.302
37264W        W 2425  34.412  42.708   2.779
37265W        W 2426  34.024  19.838  10.562
37266W        W 2427  11.892  28.109   4.023
37267W        W 2428   8.777   9.652  10.837
37268W        W 2429  32.842  43.493   4.520
37269W        W 2430  28.554  43.308   1.255
37270W        W 2431  12.080  12.359  11.519
37271W        W 2432  35.055  23.116   0.484
37272W        W 2433   0.351  25.503  13.431
37273W        W 2434  16.973  15.624  11.654
37274W        W 2435  44.359   6.168  10.494
37275W        W 2436   4.717  31.474  12.179
37276W        W 2437  26.203   4.731   0.163
37277W        W 2438  28.249  40.091  13.967
37278W        W 2439  21.226  16.999   2.360
37279W        W 2440   1.503  28.154  11.583
37280W        W 2441  26.595  11.611  12.748
37281W        W 2442  18.263  18.721  10.903
37282W        W 2443  36.592  22.211  10.432
37283W        W 2444  23.681  13.014  13.546
37284W        W 2445  18.326   6.448   0.370
37285W        W 2446  37.561  28.713  14.983
37286W        W 2447  37.435  42.506  11.570
37287W        W 2448  43.319  42.060   4.605
37288W        W 2449  37.152  44.948   4.497
37289W        W 2450  26.884   4.816  12.914
37290W        W 2451   0.368  12.431  13.946
37291W        W 2452  14.678  42.702  14.967
37292W        W 2453  11.988  19.747   1.828
37293W        W 2454  36.632  41.541  13.788
37294W        W 2455  37.031  33.600  11.737
37295W        W 2456  10.762  32.552  14.825
37296W        W 2457  34.817  28.244  12.520
37297W        W 2458  19.040  28.584   3.679
37298W        W 2459  26.029  37.204   5.002
37299W        W 2460  18.278  38.554   3.775
37300W        W 2461   9.851  12.119  13.544
37301W        W 2462  37.381  17.195  14.386
37302W        W 2463  16.618  18.723   1.719
37303W        W 2464  34.839  21.833  13.191
37304W        W 2465  35.454  18.256  12.625
37305W        W 2466   3.183  21.161   4.532
37306W        W 2467  27.434   7.833   4.331
37307W        W 2468  24.566  37.657   2.322
37308W        W 2469   1.927  37.388   5.061
37309W        W 2470  35.361  40.432   0.292
37310W        W 2471  41.754  28.646  10.733
37311W        W 2472  17.236  42.837  10.497
37312W        W 2473   8.009   5.932   2.504
37313W        W 2474  16.787  29.820  11.057
37314W        W 2475  36.045  22.966  12.052
37315W        W 2476  16.561  27.606   3.265
37316W        W 2477   9.810   6.424  11.941
37317W        W 2478   0.306  31.755   3.318
37318W        W 2479  11.941   2.364  13.425
37319W        W 2480  18.876  36.927  11.982
37320W        W 2481  38.649  20.107  11.934
37321W        W 2482   6.224  12.236  14.672
37322W        W 2483  44.024  42.111  13.920
37323W        W 2484   8.243  10.522   3.271
37324W        W 2485  36.910   8.466  14.066
37325W        W 2486  44.340   2.328   2.985
37326W        W 2487  22.780   0.955  12.640
37327W        W 2488   3.216  14.540   1.418
37328W        W 2489  22.312  37.046   0.779
37329W        W 2490  28.100  36.254  10.384
37330W        W 2491  26.252  33.086   3.632
37331W        W 2492  10.693  33.951   1.451
37332W        W 2493   5.824  40.798   0.186
37333W        W 2494  35.326  17.398  11.578
37334W        W 2495  30.689  32.945   2.302
37335W        W 2496  14.787  29.221  12.849
37336W        W 2497  11.673  41.954  13.950
37337W        W 2498   6.455  23.673   3.224
37338W        W 2499   6.158  16.499  13.317
37339W        W 2500  34.130  16.093   1.718
37340W        W 2501  11.364  38.811  12.483
37341W        W 2502   2.410  14.299   1.243
37342W        W 2503   5.958  29.478  10.743
37343W        W 2504  29.163   3.700   0.748
37344W        W 2505  42.193  14.766  11.916
37345W        W 2506  37.571  34.769   4.966
37346W        W 2507  15.604   6.748  12.106
37347W        W 2508  11.045  13.797  11.034
37348W        W 2509  21.290  13.610  14.752
37349W        W 2510  18.134  44.441   3.180
37350W        W 2511   7.871  10.422  14.525
37351W        W 2512  42.428  32.959   2.023
37352W        W 2513  18.349   0.177  11.604
37353W        W 2514  36.483  23.076  14.883
37354W        W 2515   5.833   5.413  14.493
37355W        W 2516  20.717  27.565   1.304
37356W        W 2517  15.384  12.189  12.447
37357W        W 2518   3.818  21.153   2.618
37358W        W 2519  26.883  29.533  13.396
37359W        W 2520  40.582  19.218   2.827
37360W        W 2521  39.790   5.745   4.349
37361W        W 2522  12.391  38.063  14.973
37362W        W 2523  19.585   0.804   0.475
37363W        W 2524  40.941  22.712   0.062
37364W        W 2525  43.812  37.597   0.029
37365W        W 2526  14.262  43.372   2.331
37366W        W 2527  40.862  23.016   1.972
37367W        W 2528  35.644   4.984   4.949
37368W        W 2529   4.989  28.946   2.722
37369W        W 2530   8.774  19.712   4.617
37370W        W 2531  13.687  27.710   0.784
37371W        W 2532  36.872  19.077   2.915
37372W        W 2533  35.142  11.891  11.652
37373W        W 2534  31.388  37.373   0.298
37374W        W 2535   8.323  29.652  11.857
37375W        W 2536  19.104   6.633  14.358
37376W        W 2537  11.182   6.353   0.424
37377W        W 2538  24.288   3.871   2.346
37378W        W 2539  44.575  42.719   3.217
37379W        W 2540   1.572  36.364   3.748
37380W        W 2541  38.232  41.747  14.337
37381W        W 2542  18.576  15.786   2.277
37382W        W 2543  42.840  44.910   1.106
37383W        W 2544  21.300  19.984  13.076
37384W        W 2545   0.879  19.724   0.162
37385W        W 2546   8.089  32.128  13.092
37386W        W 2547  24.806   4.195   0.968
37387W        W 2548   2.433  29.466  11.191
37388W        W 2549  21.473   7.676  14.002
37389W        W 2550  37.957   7.757  10.646
37390W        W 2551  17.502   7.775  12.517
37391W        W 2552  22.991  35.383  12.304
37392W        W 2553  15.056  39.126  12.018
37393W        W 2554  12.635  19.664   0.336
37394W        W 2555  43.444  23.655   2.753
37395W        W 2556  23.852  16.310   4.602
37396W        W 2557  38.558  19.198   3.587
37397W        W 2558  28.621   4.588  10.941
37398W        W 2559  21.729  42.573   1.877
37399W        W 2560   0.550  14.715  14.891
37400W        W 2561  23.547  28.660  14.079
37401W        W 2562   7.969  26.640  13.726
37402W        W 2563  36.503  27.755  11.705
37403W        W 2564   2.788   2.406  14.891
37404W        W 2565  29.087  40.463  10.353
37405W        W 2566  34.174  13.239  14.316
37406W        W 2567  27.147  37.053   3.464
37407W        W 2568  18.505   7.267   4.481
37408W        W 2569  44.750   1.758  10.312
37409W        W 2570  19.330  19.210  13.361
37410W        W 2571   6.343  34.915   2.396
37411W        W 2572  34.807  11.092   1.709
37412W        W 2573  20.208   7.554  11.989
37413W        W 2574  14.269  27.180   2.775
37414W        W 2575   5.151  34.886  13.101
37415W        W 2576  23.784  35.127   0.518
37416W        W 2577  27.162  32.437   3.233
37417W        W 2578  24.658  30.649  11.435
37418W        W 2579   6.844  39.193  12.225
37419W        W 2580  30.441  43.279   1.827
37420W        W 2581  32.984  18.018  11.129
37421W        W 2582   7.932   5.663  13.093
37422W        W 2583  19.937  29.994  12.246
37423W        W 2584  18.650  20.312   1.802
37424W        W 2585  39.896   7.837   2.844
37425W        W 2586  18.239   0.527  11.251
37426W        W 2587  19.831  40.052   3.668
37427W        W 2588   6.870  39.597   2.850
37428W        W 2589  21.794  16.330   5.423
37429W        W 2590  37.846  34.958   0.405
37430W        W 2591  13.339  26.161  12.064
37431W        W 2592   6.354  32.905  13.789
37432W        W 2593  11.749  14.395  12.250
37433W        W 2594   3.537  41.492  12.944
37434W        W 2595  23.134   9.156  10.573
37435W        W 2596  13.328  39.481   3.683
37436W        W 2597  26.661  39.288   1.230
37437W        W 2598   7.269  13.297  13.902
37438W        W 2599   8.592  21.505  11.175
37439W        W 2600   6.417  25.034   4.117
37440W        W 2601   9.168  26.523  14.378
37441W        W 2602  14.690  29.705   2.297
37442W        W 2603   1.909  32.081  13.107
37443W        W 2604  30.426  25.504   4.516
37444W        W 2605  26.942  26.200  14.227
37445W        W 2606  28.970  11.437  11.991
37446W        W 2607  13.655  13.163   1.766
37447W        W 2608  20.009  16.183   0.253
37448W        W 2609  12.699  29.907  14.514
37449W        W 2610  26.068  15.505  12.811
37450W        W 2611  10.329   4.736   0.292
37451W        W 2612  17.876   7.267   0.268
37452W        W 2613   5.220   8.769   1.759
37453W        W 2614  43.445   5.849   0.443
37454W        W 2615   2.243  38.757  13.621
37455W        W 2616  24.027  22.515  14.807
37456W        W 2617   7.800  35.242  14.507
37457W        W 2618  44.650  29.202  11.089
37458W        W 2619  43.988  31.035   4.398
37459W        W 2620  25.828  15.063  14.040
37460W        W 2621  25.237   6.400  12.441
37461W        W 2622   1.050   0.516   3.332
37462W        W 2623  10.070  24.857  11.528
37463W        W 2624  14.042  44.684   3.711
37464W        W 2625  16.657   6.979   2.211
37465W        W 2626  12.286  25.707  10.906
37466W        W 2627  23.200  21.332   1.484
37467W        W 2628  14.864  30.478   9.843
37468W        W 2629  26.662  15.569   3.229
37469W        W 2630  33.319   0.949   2.326
37470W        W 2631  33.431   4.984   0.960
37471W        W 2632  10.202  22.688   0.891
37472W        W 2633  13.090   8.644  11.150
37473W        W 2634  38.929   8.268   3.669
37474W        W 2635   5.429  20.705   3.305
37475W        W 2636  41.899  38.023  13.917
37476W        W 2637   6.046   3.729   1.718
37477W        W 2638  24.347  12.745   3.037
37478W        W 2639  34.772  41.379   2.801
37479W        W 2640  11.791   8.919  10.559
37480W        W 2641  21.507  42.397  14.501
37481W        W 2642  18.474  40.586   2.194
37482W        W 2643  30.575  18.215   4.651
37483W        W 2644   5.765  39.882   0.954
37484W        W 2645  11.862  11.002   4.571
37485W        W 2646  35.541  25.050  13.023
37486W        W 2647  20.052  28.186  10.694
37487W        W 2648   4.684  38.499  12.594
37488W        W 2649   5.432   3.144   5.149
37489W        W 2650  19.029  14.661   2.249
37490W        W 2651  43.213  37.840   4.877
37491W        W 2652  39.797  38.976  10.682
37492W        W 2653  43.137  29.699  14.298
37493W        W 2654   5.881  30.680  10.570
37494W        W 2655  16.337  26.281  14.792
37495W        W 2656  37.853   9.424   1.241
37496W        W 2657  44.572   9.137  12.795
37497W        W 2658  37.351  23.365  13.466
37498W        W 2659   8.064  12.243   0.191
37499W        W 2660  14.027  32.849   1.351
37500W        W 2661  22.824  23.167  12.179
37501W        W 2662  36.435   6.302   0.508
37502W        W 2663  23.044   1.189   4.673
37503W        W 2664  25.212  12.922  14.284
37504W        W 2665   9.641  29.594  14.304
37505W        W 2666  14.369   7.395  11.269
37506W        W 2667  36.401  37.855  13.922
37507W        W 2668   9.804  22.576   1.325
37508W        W 2669  34.579  19.642   3.650
37509W        W 2670  23.798   3.634  14.891
37510W        W 2671  28.452  22.943  10.485
37511W        W 2672  33.976  39.020   2.357
37512W        W 2673  25.329  26.873   1.668
37513W        W 2674  18.551  28.202  10.776
37514W        W 2675   0.937  25.573  14.970
37515W        W 2676   2.705  21.231   1.847
37516W        W 2677  39.847  44.054  12.909
37517W        W 2678   6.078  12.855   3.693
37518W        W 2679  42.701  15.698   0.329
37519W        W 2680   3.350   2.002  14.080
37520W        W 2681   2.585  37.415   1.993
37521W        W 2682  16.385  20.993   1.400
37522W        W 2683   7.702  12.671  12.152
37523W        W 2684  44.064  34.460  13.015
37524W        W 2685  39.436  40.774  13.175
37525W        W 2686   8.120  12.918  13.017
37526W        W 2687  21.416  22.746  13.041
37527W        W 2688  36.391  38.930  12.796
37528W        W 2689   9.087  36.338  12.961
37529W        W 2690  17.205  10.345  13.898
37530W        W 2691  22.166  15.196   1.908
37531W        W 2692  44.449  15.716   0.027
37532W        W 2693  24.128  11.579  13.889
37533W        W 2694  42.787   1.337  12.780
37534W        W 2695  44.892  37.476  12.085
37535W        W 2696  44.016  18.700   2.422
37536W        W 2697  15.052   3.558  12.669
37537W        W 2698  10.166  30.126   1.170
37538W        W 2699   5.037  41.053   4.207
37539W        W 2700  15.579   6.981   2.460
37540W        W 2701   1.431  44.947   3.734
37541W        W 2702  34.407   3.535   1.391
37542W        W 2703   9.176  19.783   4.244
37543W        W 2704  40.390   7.420   2.719
37544W        W 2705  35.669  16.057  14.574
37545W        W 2706  41.757  10.172   3.716
37546W        W 2707  33.649   6.251  11.727
37547W        W 2708  18.743  10.407  12.947
37548W        W 2709  15.723  18.758  10.245
37549W        W 2710  41.450  30.095   0.421
37550W        W 2711  28.559  37.025  11.527
37551W        W 2712  15.769   1.288  13.875
37552W        W 2713  20.487  12.643   2.088
37553W        W 2714   3.017  31.176   2.331
37554W        W 2715  26.052  33.992  11.016
37555W        W 2716  39.328  39.526   3.837
37556W        W 2717  10.216  28.223   0.773
37557W        W 2718  40.456  32.424   2.837
37558W        W 2719  36.774   4.344  11.134
37559W        W 2720  33.990   8.168   2.418
37560W        W 2721  15.467   2.485   3.477
37561W        W 2722  37.657  28.273   3.915
37562W        W 2723  36.172  40.086   3.382
37563W        W 2724  38.413  35.444  13.362
37564W        W 2725  29.871  10.621   4.220
37565W        W 2726  28.187  31.322   1.387
37566W        W 2727  20.538   2.415  13.184
37567W        W 2728  36.915   9.612   1.353
37568W        W 2729   9.538  41.436   4.912
37569W        W 2730  15.918  43.354  11.633
37570W        W 2731   7.709  22.086  12.222
37571W        W 2732  21.238  33.498  12.465
37572W        W 2733  21.668  14.501  13.552
37573W        W 2734   8.950  30.016  12.636
37574W        W 2735  14.551   2.052   0.779
37575W        W 2736  44.946  25.779  11.071
37576W        W 2737  22.053  15.758   4.355
37577W        W 2738  25.425   7.328   1.356
37578W        W 2739   4.078   5.359   3.293
37579W        W 2740   2.447  29.410  14.974
37580W        W 2741  32.348  25.660   0.308
37581W        W 2742  23.146  14.128  11.319
37582W        W 2743  28.123  23.348  13.951
37583W        W 2744  12.611  19.150   0.375
37584W        W 2745  24.098  13.747   3.591
37585W        W 2746  20.518  32.416  11.985
37586W        W 2747  19.317   5.469  11.351
37587W        W 2748  20.532  32.659   0.513
37588W        W 2749  26.522   0.678   4.542
37589W        W 2750  29.999  16.968   4.311
37590W        W 2751   7.609  20.803   4.713
37591W        W 2752  42.955   6.822   3.876
37592W        W 2753  37.188  18.078   4.411
37593W        W 2754   8.453  23.573   2.145
37594W        W 2755  17.654  24.609   4.174
37595W        W 2756  17.630  14.049   1.647
37596W        W 2757   0.806  25.526  11.462
37597W        W 2758  15.363  12.565   0.300
37598W        W 2759  23.300   8.289   2.422
37599W        W 2760  41.050   8.281   3.788
37600W        W 2761   6.215  41.564  10.362
37601W        W 2762  27.675  41.441   1.338
37602W        W 2763  13.763  38.064   2.145
37603W        W 2764  37.912  25.786  11.075
37604W        W 2765  31.647   7.010   0.658
37605W        W 2766  23.561   7.055   2.310
37606W        W 2767   2.905  23.278   4.208
37607W        W 2768   0.117  19.668  11.617
37608W        W 2769   9.108   1.500   1.389
37609W        W 2770  28.478  20.231   3.854
37610W        W 2771   1.450  42.730   4.116
37611W        W 2772  14.270  28.497   0.466
37612W        W 2773  39.353   4.992  10.336
37613W        W 2774  35.064   9.290   0.891
37614W        W 2775   6.182   3.546   2.788
37615W        W 2776  43.686  20.489   2.589
37616W        W 2777  32.755  27.660   3.120
37617W        W 2778   9.030  41.362  14.509
37618W        W 2779  10.857   0.439   0.395
37619W        W 2780  34.623   7.821  12.609
37620W        W 2781   0.787  24.279   1.505
37621W        W 2782  18.796  11.658   3.295
37622W        W 2783  38.251   8.051   3.260
37623W        W 2784  12.634  18.154   3.888
37624W        W 2785  40.491  11.976  14.034
37625W        W 2786   1.227  43.757  13.200
37626W        W 2787  35.175  41.001   0.485
37627W        W 2788  12.013  15.049   4.527
37628W        W 2789  34.969   4.588  12.182
37629W        W 2790  13.736  20.581  11.734
37630W        W 2791  19.259  38.616  11.062
37631W        W 2792   9.836  24.575   1.915
37632W        W 2793  40.307  12.838  13.795
37633W        W 2794   1.327  44.767  14.173
37634W        W 2795   2.279  42.288  11.995
37635W        W 2796   1.318  15.736  13.985
37636W        W 2797  37.035   8.870   1.871
37637W        W 2798  33.657  13.212  14.339
37638W        W 2799  36.645   7.066   3.250
37639W        W 2800  18.593  26.625   2.232
37640W        W 2801  22.541   3.233  10.708
37641W        W 2802  30.419  31.789  11.142
37642W        W 2803  23.152  22.242  13.274
37643W        W 2804   6.364  12.568   0.658
37644W        W 2805   8.753  20.522   4.256
37645W        W 2806  44.514  43.784   1.387
37646W        W 2807   5.755  37.883   3.319
37647W        W 2808  21.784   2.663  12.934
37648W        W 2809  35.452   1.753   2.246
37649W        W 2810   8.385  35.851  10.816
37650W        W 2811  42.273  19.770   2.633
37651W        W 2812  15.624  16.570  12.809
37652W        W 2813   8.928  36.732   0.437
37653W        W 2814  41.922  30.913   1.192
37654W        W 2815  43.305  24.657   0.712
37655W        W 2816  17.100   5.825   1.453
37656W        W 2817  20.139   3.984  14.765
37657W        W 2818   9.700  19.890   2.376
37658W        W 2819  24.255  12.198  12.124
37659W        W 2820   1.432  28.770  10.775
37660W        W 2821  39.083  29.945   4.179
37661W        W 2822  17.813  26.493  13.574
37662W        W 2823  19.782  18.146  14.712
37663W        W 2824  44.901   5.912   1.347
37664W        W 2825  33.800  37.878  12.735
37665W        W 2826  38.399   4.191   4.123
37666W        W 2827  11.808  43.038   1.413
37667W        W 2828   5.820   1.942  12.812
37668W        W 2829  17.678  31.604  10.923
37669W        W 2830  36.990  17.590   3.221
37670W        W 2831  20.160  28.588   0.257
37671W        W 2832  11.745   8.627  13.405
37672W        W 2833  42.030  15.726  13.933
37673W        W 2834  12.107  13.267   3.574
37674W        W 2835  21.804  18.715  14.228
37675W        W 2836  18.740   6.955  13.036
37676W        W 2837   7.871   7.152  12.773
37677W        W 2838  41.747  34.904   1.279
37678W        W 2839   9.152  19.428  10.949
37679W        W 2840   0.924  21.841  11.084
37680W        W 2841  30.019  12.713  14.903
37681W        W 2842  14.973  36.960  11.452
37682W        W 2843  33.300  38.061  14.106
37683W        W 2844  44.294  16.853   3.614
37684W        W 2845   7.748  42.208   2.237
37685W        W 2846  25.619   9.124   0.211
37686W        W 2847  19.268  22.596   2.312
37687W        W 2848  29.031  20.755   2.670
37688W        W 2849  42.594  14.802   1.310
37689W        W 2850  42.500  20.680  12.550
37690W        W 2851  37.862   3.397  13.359
37691W        W 2852  14.361  11.962  11.960
37692W        W 2853  43.993  28.973  14.871
37693W        W 2854  37.264  21.189   3.181
37694W        W 2855   1.826  17.783   4.127
37695W        W 2856  12.893  23.479  10.762
37696W        W 2857  25.983  16.491  14.103
37697W        W 2858  40.226  41.669  14.420
37698W        W 2859  40.838  12.759  11.523
37699W        W 2860  37.904  26.032   4.094
37700W        W 2861   8.304  17.745  11.957
37701W        W 2862  15.712  23.210   4.084
37702W        W 2863  20.015  37.915  14.506
37703W        W 2864  42.795  38.529  12.927
37704W        W 2865  14.823  44.547  13.808
37705W        W 2866   8.760   6.428   3.895
37706W        W 2867  44.820  15.902  11.981
37707W        W 2868  30.358  11.221  12.547
37708W        W 2869  29.162  14.072  11.966
37709W        W 2870  20.213  34.459  12.540
37710W        W 2871  37.988  21.259   0.927
37711W        W 2872  36.602  26.546   3.309
37712W        W 2873   4.220  25.967  12.197
37713W        W 2874  17.849  30.681   0.323
37714W        W 2875  16.473  16.275   0.243
37715W        W 2876   8.935  42.310  10.650
37716W        W 2877  28.621  27.196  11.522
37717W        W 2878  37.965   6.916  10.984
37718W        W 2879   1.267   8.460   1.833
37719W        W 2880  12.792   9.551   0.305
37720W        W 2881   5.299  29.622  10.291
37721W        W 2882  12.756   3.794  14.869
37722W        W 2883  20.430  13.718   0.277
37723W        W 2884  32.179  39.950  13.870
37724W        W 2885  10.333  11.038   3.478
37725W        W 2886  27.108  22.001   9.725
37726W        W 2887  28.161  33.006   3.621
37727W        W 2888  42.559  32.153   0.315
37728W        W 2889  41.017  30.064   2.900
37729W        W 2890   6.664  35.123  10.730
37730W        W 2891  36.742  34.581   2.136
37731W        W 2892  34.506  32.231  14.828
37732W        W 2893   5.773  43.344   2.212
37733W        W 2894  35.584  17.087  13.044
37734W        W 2895   6.424  13.310   4.381
37735W        W 2896  37.839  25.466   2.281
37736W        W 2897   6.441  36.320   2.591
37737W        W 2898  15.456   3.851  14.358
37738W        W 2899   0.484  33.009  14.418
37739W        W 2900  32.710   9.178  13.384
37740W        W 2901  38.056  17.364   1.040
37741W        W 2902  31.922  14.335  11.555
37742W        W 2903  16.815  35.568   4.141
37743W        W 2904  11.852   1.234   3.203
37744W        W 2905  44.508  15.055  11.172
37745W        W 2906  10.162  39.529   3.287
37746W        W 2907   8.888   3.705   0.710
37747W        W 2908  18.558  20.596   2.746
37748W        W 2909  23.416   3.131   4.679
37749W        W 2910  20.733  37.029  12.621
37750W        W 2911  24.056  39.836  14.020
37751W        W 2912  35.050  33.584  14.800
37752W        W 2913   9.099  27.500   2.276
37753W        W 2914  35.862  42.008  13.903
37754W        W 2915  15.709  36.246   3.475
37755W        W 2916  14.808  30.387  13.606
37756W        W 2917  26.479   1.847  14.438
37757W        W 2918  11.206  22.857  12.434
37758W        W 2919   8.375  40.447  11.042
37759W        W 2920  43.900   1.958   1.642
37760W        W 2921  12.060   4.452   0.381
37761W        W 2922  18.683   0.546  13.559
37762W        W 2923  37.413  40.465   1.731
37763W        W 2924   1.851  37.026  11.573
37764W        W 2925  12.154  26.168  10.668
37765W        W 2926  27.998  32.960  13.810
37766W        W 2927  27.179  41.401   1.178
37767W        W 2928  26.619  17.734  14.473
37768W        W 2929  29.143  22.961  12.042
37769W        W 2930  29.908  30.208   4.061
37770W        W 2931   7.327  12.581   1.865
37771W        W 2932  21.903  17.624   1.539
37772W        W 2933   0.690  27.858   5.147
37773W        W 2934  39.017  30.383   4.430
37774W        W 2935  41.431  10.252   4.566
37775W        W 2936  42.356  20.233  12.386
37776W        W 2937  23.712  40.334   0.359
37777W        W 2938  10.787  35.050   2.777
37778W        W 2939  15.275  20.123  14.749
37779W        W 2940  14.606  37.141   9.728
37780W        W 2941  25.027  38.285  13.577
37781W        W 2942  28.957  31.077  12.411
37782W        W 2943  36.202  38.541  10.340
37783W        W 2944  37.594  25.425  13.840
37784W        W 2945  24.874  36.027  12.366
37785W        W 2946  22.505  37.907  14.899
37786W        W 2947  33.678   8.225   3.382
37787W        W 2948  11.379  18.729   2.115
37788W        W 2949  32.747  42.485   0.441
37789W        W 2950   1.084  17.686  13.123
37790W        W 2951  19.995  30.393   0.323
37791W        W 2952  14.347  36.652  11.142
37792W        W 2953  30.385   1.472  13.073
37793W        W 2954  12.677  12.639   4.062
37794W        W 2955  24.197  35.691   4.291
37795W        W 2956  21.724  16.820  14.076
37796W        W 2957  28.671  21.804  14.801
37797W        W 2958  33.207   6.856   1.780
37798W        W 2959  32.800  35.617  13.134
37799W        W 2960  44.683  15.561  12.850
37800W        W 2961  41.337  44.362   1.377
37801W        W 2962  35.777  22.959   5.226
37802W        W 2963  35.901  30.502   4.185
37803W        W 2964  10.795  23.980  12.054
37804W        W 2965  32.330   8.794   1.811
37805W        W 2966  44.843   7.131  13.462
37806W        W 2967  35.083  40.572   2.416
37807W        W 2968  43.872  33.575   4.668
37808W        W 2969  18.114   6.127  11.813
37809W        W 2970  36.920  19.190  11.825
37810W        W 2971  26.221  20.988  11.528
37811W        W 2972  40.919   6.861  14.649
37812W        W 2973  35.302  23.726  12.808
37813W        W 2974   7.588  29.666  12.369
37814W        W 2975  35.111  16.649   4.271
37815W        W 2976  38.160  19.973  11.078
37816W        W 2977  15.215  32.130   3.223
37817W        W 2978  12.365  43.062  13.401
37818W        W 2979   8.357  38.094   0.789
37819W        W 2980  34.435  21.311  11.192
37820W        W 2981  15.695   1.512  10.433
37821W        W 2982  12.733  42.463   3.087
37822W        W 2983  36.828   4.761   3.548
37823W        W 2984  40.440   5.333   3.153
37824W        W 2985   0.244  16.651  12.284
37825W        W 2986  35.099  34.419  14.204
37826W        W 2987  25.458   1.721   2.645
37827W        W 2988  44.514  30.423  11.830
37828W        W 2989  31.896  19.761   2.268
37829W        W 2990  38.800  24.296   1.279
37830W        W 2991  11.403  42.805  14.190
37831W        W 2992  40.839  21.201   4.734
37832W        W 2993   1.520  38.948  12.716
37833W        W 2994   1.453  12.318   3.639
37834W        W 2995  23.494  43.898  14.032
37835W        W 2996  41.837  20.056   2.874
37836W        W 2997  34.466   0.178   0.328
37837W        W 2998  14.005  44.447  10.148
37838W        W 2999  32.442  36.362  10.692
37839W        W 3000  15.146  30.073   4.949
37840W        W 3001  21.003  15.932  11.871
37841W        W 3002  13.313   0.914  12.066
37842W        W 3003   4.794   6.532   4.042
37843W        W 3004  44.504  28.728   3.190
37844W        W 3005  17.115  22.324   0.005
37845W        W 3006   7.356  30.849   1.293
37846W        W 3007  39.452  33.960   0.743
37847W        W 3008  33.547   8.169  10.681
37848W        W 3009  11.712  30.683   4.178
37849W        W 3010  18.175   5.162   4.136
37850W        W 3011  37.854   4.662  13.925
37851W        W 3012  28.179  21.038  13.070
37852W        W 3013  22.636  42.132  13.947
37853W        W 3014  17.644  27.748   4.023
37854W        W 3015   0.975  26.696  12.001
37855W        W 3016  23.626  29.615   1.170
37856W        W 3017  17.705  38.991   2.825
37857W        W 3018  35.055  37.572   2.779
37858W        W 3019  27.861  11.355   0.626
37859W        W 3020  33.527  21.100  14.020
37860W        W 3021  38.750  11.516  13.576
37861W        W 3022  16.632  20.166   3.137
37862W        W 3023  42.194   5.875  11.708
37863W        W 3024  33.708  30.225  13.491
37864W        W 3025  24.683   5.803  12.025
37865W        W 3026  28.173  39.109   4.491
37866W        W 3027  37.252  19.994  14.834
37867W        W 3028  33.983  37.978  11.726
37868W        W 3029   9.852  14.470   2.711
37869W        W 3030  34.320   7.179   1.313
37870W        W 3031  27.657  13.197   4.023
37871W        W 3032   6.066  27.516  11.529
37872W        W 3033  21.788  36.968  14.918
37873W        W 3034  16.219  37.469  12.961
37874W        W 3035  27.419  23.370   1.983
37875W        W 3036  30.831  24.979  13.977
37876W        W 3037  38.106  13.979  10.227
37877W        W 3038  19.753  12.170   4.301
37878W        W 3039  35.374  41.020  12.470
37879W        W 3040  34.384  40.293  12.534
37880W        W 3041  38.958  21.799   1.370
37881W        W 3042  23.117   5.443   0.474
37882W        W 3043  20.098   2.000   3.733
37883W        W 3044  13.133  32.026   0.229
37884W        W 3045  11.757   6.290  14.601
37885W        W 3046  38.932  17.844   1.427
37886W        W 3047  17.136   7.048   1.740
37887W        W 3048  43.950  17.660   4.931
37888W        W 3049  33.919  26.224   1.763
37889W        W 3050   6.867  37.511   1.192
37890W        W 3051  15.203   0.300   3.131
37891W        W 3052  33.239  35.116   0.432
37892W        W 3053  44.316   6.932  13.673
37893W        W 3054  27.762   8.273   1.280
37894W        W 3055  23.976  18.956   0.267
37895W        W 3056  21.126  37.240   5.292
37896W        W 3057  17.911  23.239   4.442
37897W        W 3058  12.218  19.532  13.568
37898W        W 3059   1.518  25.063   4.288
37899W        W 3060  43.748  15.323   1.862
37900W        W 3061  34.304  16.541  12.969
37901W        W 3062  30.706  25.255   4.075
37902W        W 3063  29.012  37.295   3.982
37903W        W 3064  27.509  19.567   2.245
37904W        W 3065  17.685  40.347   0.970
37905W        W 3066  15.620   7.191  13.448
37906W        W 3067  33.117  38.880  14.004
37907W        W 3068  29.362  43.812  14.826
37908W        W 3069  32.414   1.362  14.151
37909W        W 3070  39.432  11.187  12.520
37910W        W 3071   0.781  15.548  12.115
37911W        W 3072  25.737  37.581  11.997
37912W        W 3073  15.152  40.724  12.761
37913W        W 3074  16.174  38.501   9.793
37914W        W 3075  23.363   4.110   2.612
37915W        W 3076  24.825  24.563  14.511
37916W        W 3077  11.202  14.586  11.216
37917W        W 3078  15.886  43.316   2.292
37918W        W 3079  29.256  18.017  13.310
37919W        W 3080  13.707   2.860   4.354
37920W        W 3081  26.454   8.617  14.384
37921W        W 3082  33.063  14.623   1.693
37922W        W 3083   3.548  13.257  11.897
37923W        W 3084   2.381  32.152  14.391
37924W        W 3085  43.405   3.406   4.825
37925W        W 3086  26.543  24.632  14.611
37926W        W 3087  15.287  21.559  11.659
37927W        W 3088  16.119  16.817  11.961
37928W        W 3089  44.779  28.366   2.932
37929W        W 3090  16.280   0.897  10.711
37930W        W 3091  43.482  14.572  14.305
37931W        W 3092  10.941  31.694  13.048
37932W        W 3093  26.697  11.851  13.658
37933W        W 3094  24.770   6.320   4.674
37934W        W 3095   2.853  11.234  12.389
37935W        W 3096  27.706  40.303   4.093
37936W        W 3097  21.086  29.518  13.098
37937W        W 3098  10.388  18.317  13.090
37938W        W 3099  24.477  23.750   2.312
37939W        W 3100  33.535  12.512   4.769
37940W        W 3101  21.807  37.068  13.552
37941W        W 3102  19.068  26.745  12.972
37942W        W 3103  42.712  28.878  12.552
37943W        W 3104  30.717  38.894   0.691
37944W        W 3105   4.187  32.599   4.748
37945W        W 3106  38.091   7.241   2.744
37946W        W 3107  31.027   7.336   5.146
37947W        W 3108  27.725  36.488  14.288
37948W        W 3109  19.275  21.534  12.754
37949W        W 3110   7.864   3.803   2.712
37950W        W 3111  12.278   8.634   2.174
37951W        W 3112  11.258  40.291  12.753
37952W        W 3113  38.458  36.435  14.285
37953W        W 3114  28.136  13.602   1.445
37954W        W 3115  34.495  32.844  14.392
37955W        W 3116   3.188  23.970  14.415
37956W        W 3117   5.001  25.082  11.651
37957W        W 3118  33.492  12.088   1.746
37958W        W 3119  40.591  37.288  10.191
37959W        W 3120  39.469   1.262   3.234
37960W        W 3121  43.917   1.288  12.417
37961W        W 3122  24.708  42.474   3.582
37962W        W 3123   1.194  30.128   4.441
37963W        W 3124  34.874  19.775  14.415
37964W        W 3125  17.069   8.836  10.437
37965W        W 3126  31.646  36.457   0.424
37966W        W 3127  36.099   2.649   4.417
37967W        W 3128  12.412  35.922   2.842
37968W        W 3129  12.831   3.600   2.245
37969W        W 3130  17.080  39.377   1.318
37970W        W 3131  36.528  14.172   1.734
37971W        W 3132   2.322   6.948  14.864
37972W        W 3133   2.630  25.126   3.530
37973W        W 3134  13.977  38.768  10.809
37974W        W 3135  19.098  27.249   2.688
37975W        W 3136  38.629  36.908   3.525
37976W        W 3137  16.246  41.331  11.571
37977W        W 3138  36.914  19.108  10.435
37978W        W 3139   9.661  30.928   4.787
37979W        W 3140  18.617  39.021   1.214
37980W        W 3141  27.011  26.654   3.843
37981W        W 3142  19.484  16.741  12.895
37982W        W 3143   9.681  38.256  14.036
37983W        W 3144  19.204  33.167  14.102
37984W        W 3145   9.807  32.258   4.145
37985W        W 3146  17.253  34.145  14.766
37986W        W 3147  16.066  22.707  13.541
37987W        W 3148  26.061  27.218  13.050
37988W        W 3149  29.639   2.887   2.325
37989W        W 3150  24.731   2.519   3.258
37990W        W 3151   5.403  13.663   3.731
37991W        W 3152  33.982  14.338   2.015
37992W        W 3153  41.628  12.203   0.292
37993W        W 3154  27.462  10.778   9.837
37994W        W 3155  33.562   2.217  10.668
37995W        W 3156   4.160  23.629   4.445
37996W        W 3157  22.264  36.975   1.784
37997W        W 3158  43.058  25.677  12.887
37998W        W 3159  23.656  10.677  11.448
37999W        W 3160  25.065  19.888  11.228
38000W        W 3161   4.193   3.301  11.611
38001W        W 3162  35.015  13.330   4.178
38002W        W 3163  18.518  13.390   0.034
38003W        W 3164  43.402  44.767  11.607
38004W        W 3165  22.519  41.054   0.916
38005W        W 3166  40.969   3.468   3.308
38006W        W 3167  29.462  18.753  11.527
38007W        W 3168   3.371  18.727   2.293
38008W        W 3169   7.836  44.200   3.088
38009W        W 3170  20.079  17.912   4.403
38010W        W 3171  12.567  15.349   2.167
38011W        W 3172  16.535  38.421   1.919
38012W        W 3173   6.188  27.418  13.052
38013W        W 3174  43.007   8.055   4.998
38014W        W 3175  22.104  44.685  13.802
38015W        W 3176  15.228   2.171   3.782
38016W        W 3177  36.049  15.535   5.262
38017W        W 3178  10.810  30.882  12.190
38018W        W 3179  32.548   7.744   3.185
38019W        W 3180  20.485  43.856  13.585
38020W        W 3181  35.192  20.145   1.397
38021W        W 3182  44.140  12.598   3.728
38022W        W 3183  27.496  24.091   3.939
38023W        W 3184   7.835  39.643   0.414
38024W        W 3185  28.164  25.938   3.780
38025W        W 3186  28.152   6.610   4.187
38026W        W 3187  10.331   4.757  11.151
38027W        W 3188  14.006   7.896  11.231
38028W        W 3189  11.222  19.078   4.505
38029W        W 3190  11.320  11.738  14.665
38030W        W 3191  31.218  43.818   0.323
38031W        W 3192  22.500  30.228  12.554
38032W        W 3193  25.700  28.905  14.523
38033W        W 3194  27.861  33.552   0.983
38034W        W 3195  29.071  38.557  11.976
38035W        W 3196  20.319  40.198   2.019
38036W        W 3197   1.078   0.264   4.642
38037W        W 3198  18.802  36.448   0.051
38038W        W 3199  26.030  29.090   4.224
38039W        W 3200   4.822   7.470   1.994
38040W        W 3201  16.204  19.064  12.912
38041W        W 3202  41.264  28.266  14.360
38042W        W 3203  13.732  43.322  12.281
38043W        W 3204  43.963   2.538  14.835
38044W        W 3205   3.865  27.208  14.610
38045W        W 3206   5.371  14.613  14.292
38046W        W 3207  17.040  37.472  13.618
38047W        W 3208  23.619  42.381  10.783
38048W        W 3209  38.065  38.007   0.393
38049W        W 3210   6.098  10.429  10.351
38050W        W 3211  43.572  10.269  13.286
38051W        W 3212  40.232  26.027  10.673
38052W        W 3213   1.421  36.872  11.811
38053W        W 3214  39.070  27.417   4.712
38054W        W 3215  13.579   2.384   2.849
38055W        W 3216  11.705  28.654   3.201
38056W        W 3217  16.403   1.845   4.193
38057W        W 3218  14.843  43.495   3.725
38058W        W 3219  43.808  29.379  11.100
38059W        W 3220  39.510  33.560  13.528
38060W        W 3221  26.095  29.685   1.835
38061W        W 3222  22.494   0.976   1.345
38062W        W 3223  33.733  39.147   3.721
38063W        W 3224   5.952  10.834  14.068
38064W        W 3225  29.796  24.901  11.706
38065W        W 3226  25.221  36.445  12.255
38066W        W 3227  33.177  16.047   1.814
38067W        W 3228  38.179   6.372   0.293
38068W        W 3229  15.650  30.219  12.903
38069W        W 3230   5.478  11.771   4.213
38070W        W 3231  37.497  39.281   3.133
38071W        W 3232  16.854  15.249  12.982
38072W        W 3233   6.165  14.854   0.316
38073W        W 3234   3.674  33.398   1.159
38074W        W 3235  29.717  43.977   0.469
38075W        W 3236  30.527  37.364  11.167
38076W        W 3237  22.117   0.888   0.326
38077W        W 3238  21.941  29.064  14.992
38078W        W 3239  28.441  32.536  14.401
38079W        W 3240  20.203  11.341   0.248
38080W        W 3241  18.225   6.802   1.223
38081W        W 3242  23.572   3.765  13.410
38082W        W 3243  16.607  37.916   4.519
38083W        W 3244  18.916  37.824  11.929
38084W        W 3245   6.373   4.297   3.138
38085W        W 3246  26.588  26.519  11.076
38086W        W 3247  19.509   1.700   2.522
38087W        W 3248  38.548  20.951  11.475
38088W        W 3249  36.086   3.456   3.107
38089W        W 3250  40.941   5.930   1.813
38090W        W 3251  34.912  41.215   1.029
38091W        W 3252   1.468  40.981  14.501
38092W        W 3253  15.088  14.223  12.412
38093W        W 3254  27.634  40.296  13.177
38094W        W 3255  36.902  33.363  12.175
38095W        W 3256  38.493  42.894   4.429
38096W        W 3257   1.149  38.262  11.284
38097W        W 3258  44.973  35.334  12.495
38098W        W 3259   7.164  14.220   1.837
38099W        W 3260  22.576  32.451   2.291
38100W        W 3261  20.349  20.036  12.634
38101W        W 3262  30.893  20.832  12.203
38102W        W 3263   2.555  22.740   3.770
38103W        W 3264  12.187  18.587  10.808
38104W        W 3265  13.259  18.113  10.727
38105W        W 3266   4.828  12.861  12.673
38106W        W 3267  14.808  14.855  11.105
38107W        W 3268  42.459  37.568  12.502
38108W        W 3269   8.644   6.339  10.716
38109W        W 3270  44.443   1.933   2.173
38110W        W 3271   2.728  33.177   0.270
38111W        W 3272  24.108  41.324   4.039
38112W        W 3273  24.762  16.831   4.053
38113W        W 3274   8.517   3.919  14.288
38114W        W 3275  17.312  34.816  10.775
38115W        W 3276  43.808   6.767  13.666
38116W        W 3277  33.530   5.252   1.398
38117W        W 3278  13.443   8.139  13.580
38118W        W 3279  44.741  15.059  13.023
38119W        W 3280  10.795  12.557  10.824
38120W        W 3281  38.319  37.487  13.365
38121W        W 3282  19.017  43.303   0.457
38122W        W 3283  27.098   9.819   0.800
38123W        W 3284  41.129  35.311  11.591
38124W        W 3285  28.007  38.829  12.615
38125W        W 3286  22.797  20.727  10.752
38126W        W 3287  34.342  44.948  14.472
38127W        W 3288  36.080  31.450   0.272
38128W        W 3289  19.234  33.596  13.772
38129W        W 3290  36.081  15.611  12.995
38130W        W 3291  17.185   6.886  12.444
38131W        W 3292   9.117  15.689   3.296
38132W        W 3293  30.492   9.414   0.919
38133W        W 3294  38.647   9.698   9.975
38134W        W 3295  33.263  34.596   1.184
38135W        W 3296  18.040   9.289   1.205
38136W        W 3297   7.228  14.127   3.628
38137W        W 3298  35.277  39.973   3.094
38138W        W 3299  44.339  42.742   4.457
38139W        W 3300  37.832  30.350   4.538
38140W        W 3301  16.126  19.835   0.864
38141W        W 3302   3.936   1.767   1.667
38142W        W 3303  41.532  20.691   2.236
38143W        W 3304  11.702  21.854   1.388
38144W        W 3305  41.710  12.549  10.314
38145W        W 3306  26.609   3.744   2.662
38146W        W 3307   6.552  34.417   4.601
38147W        W 3308  21.943   0.928   1.694
38148W        W 3309  31.528   7.558  12.642
38149W        W 3310  23.091  37.369   3.568
38150W        W 3311  15.812  40.757  14.260
38151W        W 3312  19.713  22.203   1.458
38152W        W 3313  27.442  23.733  11.058
38153W        W 3314  15.691  32.761  14.064
38154W        W 3315  28.930  40.056   0.508
38155W        W 3316   5.893  12.465   1.395
38156W        W 3317  38.044  33.511   4.424
38157W        W 3318  22.419  21.533   1.240
38158W        W 3319  25.251   1.866   3.882
38159W        W 3320  23.842  22.915  14.069
38160W        W 3321  18.744  10.858   0.862
38161W        W 3322   5.132  19.879  13.417
38162W        W 3323  32.458  42.700  14.166
38163W        W 3324  35.072   1.877  13.422
38164W        W 3325  16.173  19.195   4.729
38165W        W 3326  40.743   3.331  14.587
38166W        W 3327  29.010  22.090   1.046
38167W        W 3328  41.558  22.223  11.525
38168W        W 3329   7.265  13.755   4.500
38169W        W 3330  39.495   6.309   1.245
38170W        W 3331   9.727  17.106   3.764
38171W        W 3332  29.999  41.398  11.475
38172W        W 3333  42.858  35.904   3.382
38173W        W 3334  39.440  13.963  13.319
38174W        W 3335  19.159  29.657  13.518
38175W        W 3336  40.833  10.275  13.907
38176W        W 3337  36.680  22.755   1.875
38177W        W 3338  31.065  19.813  10.919
38178W        W 3339  35.337  38.014   2.718
38179W        W 3340  23.236  28.278   2.150
38180W        W 3341  44.823  43.545  10.636
38181W        W 3342  33.460   4.602   2.941
38182W        W 3343  31.409   1.283  11.999
38183W        W 3344  23.208   6.505  13.210
38184W        W 3345  42.340  41.091   3.256
38185W        W 3346  23.175  24.288  12.914
38186W        W 3347  14.721  17.553  11.018
38187W        W 3348   8.232  24.895  13.410
38188W        W 3349  16.368  36.485  13.589
38189W        W 3350  13.619  38.855   1.323
38190W        W 3351  23.558  22.671  12.626
38191W        W 3352  26.886  31.555  13.906
38192W        W 3353  28.310  19.221  11.115
38193W        W 3354  20.470  13.708  12.406
38194W        W 3355   3.204  20.086  13.506
38195W        W 3356   9.246   1.227  11.414
38196W        W 3357  40.670  21.714  14.801
38197W        W 3358  29.879  16.668  12.023
38198W        W 3359  32.515  42.605   1.810
38199W        W 3360  27.480  32.927  13.553
38200W        W 3361  34.520  32.455   2.771
38201W        W 3362  43.424  14.130  14.583
38202W        W 3363  33.754  13.712  11.585
38203W        W 3364   6.336   2.727   2.182
38204W        W 3365   1.023  32.918  14.367
38205W        W 3366  17.996  25.116  11.446
38206W        W 3367  18.219  37.151  14.417
38207W        W 3368   3.328  19.204  11.331
38208W        W 3369   1.831   8.206  11.919
38209W        W 3370  22.131  18.300  13.371
38210W        W 3371  16.294  31.994   2.231
38211W        W 3372  20.003   2.876  12.448
38212W        W 3373  16.590  15.217   4.502
38213W        W 3374  36.788  40.790  13.371
38214W        W 3375  39.299  14.734   0.876
38215W        W 3376  35.830   4.976  13.968
38216W        W 3377  24.195   7.154  14.869
38217W        W 3378  22.451   1.806   2.197
38218W        W 3379  30.990   9.183   3.150
38219W        W 3380  42.830   8.922   0.317
38220W        W 3381  11.993  40.027  13.655
38221W        W 3382  19.314  26.156  15.000
38222W        W 3383  25.657  14.243   4.067
38223W        W 3384   4.420   6.913   0.320
38224W        W 3385   5.743  25.759  14.954
38225W        W 3386  17.077  30.706   1.918
38226W        W 3387   9.423  21.097   3.012
38227W        W 3388  39.867  33.513  13.149
38228W        W 3389  26.644  23.977   0.886
38229W        W 3390  18.082   7.627  13.129
38230W        W 3391  36.939   8.904   2.386
38231W        W 3392  11.910  42.990  12.500
38232W        W 3393   3.764  22.819  11.592
38233W        W 3394  34.222  30.186  13.423
38234W        W 3395  23.159  29.042   0.657
38235W        W 3396  36.928  40.404  14.825
38236W        W 3397  38.036  39.778   3.672
38237W        W 3398  25.774   9.219   4.639
38238W        W 3399   3.882  17.641  11.915
38239W        W 3400  23.029  43.127   4.058
38240W        W 3401  43.483  17.300  11.613
38241W        W 3402  11.651  40.487  12.478
38242W        W 3403  37.754  20.209  14.833
38243W        W 3404  20.109  26.558  12.994
38244W        W 3405   8.305  32.378   0.823
38245W        W 3406  12.738   3.036  12.077
38246W        W 3407   8.348  26.645   1.085
38247W        W 3408   8.339   0.282   4.573
38248W        W 3409   1.018   4.817  14.384
38249W        W 3410  10.090   8.204  12.848
38250W        W 3411  34.398  13.794  12.354
38251W        W 3412  40.316   8.980   4.664
38252W        W 3413  31.397  15.624  13.980
38253W        W 3414   7.879  33.170  13.554
38254W        W 3415  42.998  38.312   0.072
38255W        W 3416   3.428  28.929  12.509
38256W        W 3417   0.303  39.574  10.932
38257W        W 3418  41.452  11.174  12.068
38258W        W 3419  31.648   3.312  12.210
38259W        W 3420  36.007  10.797   1.143
38260W        W 3421  31.612  42.558  11.554
38261W        W 3422  24.110   0.946   0.666
38262W        W 3423  16.136  11.232   3.063
38263W        W 3424  14.224  14.022  11.337
38264W        W 3425  22.213  41.335  12.899
38265W        W 3426  41.421  32.656   3.889
38266W        W 3427  38.036  29.026   4.615
38267W        W 3428   6.430  31.262   0.523
38268W        W 3429  37.418  12.744   4.613
38269W        W 3430  21.468  23.092  13.618
38270W        W 3431   4.459  22.991   1.280
38271W        W 3432  38.114  38.503  13.861
38272W        W 3433  23.796  20.745   1.315
38273W        W 3434   3.766  26.597  14.766
38274W        W 3435  38.456  43.792  14.293
38275W        W 3436  37.902   4.860   4.870
38276W        W 3437  39.336  43.765  14.300
38277W        W 3438  11.260  13.107  13.822
38278W        W 3439  43.553  38.992  11.140
38279W        W 3440  31.517  33.734  14.844
38280W        W 3441  41.001  16.276  13.340
38281W        W 3442  28.925  43.862  10.995
38282W        W 3443   6.301  31.580   5.040
38283W        W 3444  14.647  39.303  13.466
38284W        W 3445  37.036  39.560   3.177
38285W        W 3446  44.869  44.725   2.696
38286W        W 3447  10.489  14.762  12.743
38287W        W 3448   4.268  25.522   2.229
38288W        W 3449   2.330   5.824  10.733
38289W        W 3450   6.707  11.543   1.994
38290W        W 3451  44.945  17.770  12.373
38291W        W 3452  17.745   5.734  12.435
38292W        W 3453  43.667  37.941  12.397
38293W        W 3454  33.417  35.037   0.943
38294W        W 3455  43.432  29.476   1.837
38295W        W 3456  28.246  38.893  10.720
38296W        W 3457   9.211   3.500   4.622
38297W        W 3458  23.566  19.506   4.538
38298W        W 3459  41.107  42.315   4.568
38299W        W 3460  39.535  26.796   3.365
38300W        W 3461  34.292  29.867  10.643
38301W        W 3462  23.309  16.582   1.910
38302W        W 3463  18.917  40.441   9.475
38303W        W 3464  40.586  13.307  13.875
38304W        W 3465  26.248  25.503   5.247
38305W        W 3466  31.248  19.802  14.434
38306W        W 3467  31.993  24.267   9.556
38307W        W 3468  20.951  35.228  12.368
38308W        W 3469  36.456  13.718  14.351
38309W        W 3470  37.072  34.983   2.227
38310W        W 3471   8.369  36.674   2.858
38311W        W 3472   8.732   5.728   1.804
38312W        W 3473   8.369  37.561   0.885
38313W        W 3474  19.062  22.197   0.852
38314W        W 3475  43.171  40.116  10.337
38315W        W 3476  26.074  34.018   1.822
38316W        W 3477   3.586  11.686  12.616
38317W        W 3478   6.355   2.355  14.813
38318W        W 3479  13.346   5.404  11.667
38319W        W 3480  34.067  43.244  12.680
38320W        W 3481  25.476  20.848  14.370
38321W        W 3482   0.722   8.160  14.272
38322W        W 3483   8.073  14.859   3.757
38323W        W 3484  32.922   2.271  12.956
38324W        W 3485  20.608  38.143  11.153
38325W        W 3486  40.260  25.095   3.221
38326W        W 3487   4.706   2.888   0.963
38327W        W 3488  15.713  25.005  13.045
38328W        W 3489  36.092  37.600   2.206
38329W        W 3490  39.840  22.597  12.174
38330W        W 3491   1.127  37.299  10.200
38331W        W 3492  20.285  26.734   4.611
38332W        W 3493  13.677  31.379   0.031
38333W        W 3494  32.740   8.726   4.634
38334W        W 3495  12.648   7.903   0.653
38335W        W 3496  19.285  38.446   3.700
38336W        W 3497   8.404   1.427   2.751
38337W        W 3498   8.735   7.750   0.430
38338W        W 3499  19.219  15.213   3.872
38339W        W 3500   9.730  28.141  10.682
38340W        W 3501  40.297  19.875  10.345
38341W        W 3502  21.070  22.180  13.764
38342W        W 3503  41.501  23.370  14.820
38343W        W 3504   5.964  36.088   2.856
38344W        W 3505  39.952  16.413  11.177
38345W        W 3506  13.703  37.441   3.428
38346W        W 3507  17.472  27.272   4.112
38347W        W 3508  39.114  22.596   2.725
38348W        W 3509   2.235   1.227   2.790
38349W        W 3510   9.305   4.457  12.572
38350W        W 3511  22.745  19.446  11.167
38351W        W 3512  37.098   7.263  11.865
38352W        W 3513  40.212   0.514  10.283
38353W        W 3514  26.677  35.972  11.595
38354W        W 3515  10.255   3.048   3.151
38355W        W 3516  32.937   7.871   0.693
38356W        W 3517  38.382  44.085   4.284
38357W        W 3518  35.672  43.683  13.329
38358W        W 3519  29.098  44.362   4.858
38359W        W 3520  29.972   7.280   2.133
38360W        W 3521  16.750  23.211  11.464
38361W        W 3522  11.984  14.192  11.074
38362W        W 3523  42.895  17.509  13.124
38363W        W 3524  38.561  33.428  11.327
38364W        W 3525   4.945  24.830   9.884
38365W        W 3526   9.393  35.416   1.359
38366W        W 3527  42.959  42.697  14.890
38367W        W 3528   5.430  10.700  10.857
38368W        W 3529  15.581  26.405   3.529
38369W        W 3530   4.280   4.856   3.319
38370W        W 3531  43.976   0.492  14.981
38371W        W 3532   0.305  25.252  14.016
38372W        W 3533  20.707  12.839   0.151
38373W        W 3534  15.245   9.258   3.350
38374W        W 3535  13.304  11.795  13.844
38375W        W 3536  38.668  17.225  13.833
38376W        W 3537  40.078  19.329   1.228
38377W        W 3538  35.315   4.476  11.332
38378W        W 3539  35.904  34.466  14.922
38379W        W 3540  41.897  24.078   0.266
38380W        W 3541  32.475  28.565   2.798
38381W        W 3542  31.201  31.838  10.262
38382W        W 3543  21.198  36.284  12.419
38383W        W 3544  12.235  31.626  10.772
38384W        W 3545  16.461   0.716  12.501
38385W        W 3546   8.310  42.878  11.673
38386W        W 3547  21.185   0.305   3.611
38387W        W 3548  20.584  22.655   5.177
38388W        W 3549  20.749  19.057   1.606
38389W        W 3550  11.878   9.808   4.218
38390W        W 3551   3.074  33.211   1.245
38391W        W 3552   3.400  40.410   3.862
38392W        W 3553   9.826  41.250   0.262
38393W        W 3554  28.034   8.541   1.635
38394W        W 3555  21.793  22.509  12.170
38395W        W 3556  30.888  30.235  12.118
38396W        W 3557   9.798   5.050   2.323
38397W        W 3558  12.930   0.772  13.369
38398W        W 3559   0.434  16.107  12.430
38399W        W 3560  27.706  25.563  11.985
38400W        W 3561   8.735   8.932   3.990
38401W        W 3562  18.606  43.799  13.843
38402W        W 3563   8.804   9.880   1.314
38403W        W 3564   5.474  30.680  13.918
38404W        W 3565   5.666  14.018   0.215
38405W        W 3566  17.839  21.762  11.541
38406W        W 3567  25.594   1.268   3.774
38407W        W 3568  30.943  34.682  10.764
38408W        W 3569  23.681  32.999   1.945
38409W        W 3570   2.111  12.921   2.756
38410W        W 3571  44.530  30.185  13.433
38411W        W 3572   0.246  20.455  12.165
38412W        W 3573  19.053  18.059  10.250
38413W        W 3574  20.283  29.151   0.924
38414W        W 3575   9.691  44.402   4.505
38415W        W 3576   1.548  25.651   0.934
38416W        W 3577  13.824  22.546  10.478
38417W        W 3578   9.400   5.705   1.266
38418W        W 3579   1.273  23.998   1.397
38419W        W 3580  21.527  38.837  12.190
38420W        W 3581  34.605  41.147   5.442
38421W        W 3582  16.147  17.270   5.049
38422W        W 3583   4.188  27.675  13.514
38423W        W 3584  24.214  12.697   0.319
38424W        W 3585   0.751   7.924   3.169
38425W        W 3586  39.880  39.883  14.809
38426W        W 3587  22.546  39.533  10.700
38427W        W 3588   7.432  16.331  10.741
38428W        W 3589  21.973  14.081  11.523
38429W        W 3590  19.752  26.729  13.480
38430W        W 3591  12.851  23.720   1.253
38431W        W 3592  21.235  10.400   4.161
38432W        W 3593  30.168  14.576  12.064
38433W        W 3594  23.962  15.821   2.238
38434W        W 3595   9.773  27.199  13.279
38435W        W 3596   2.360  43.722   2.834
38436W        W 3597   9.118  27.632   3.788
38437W        W 3598   6.704  19.220   2.764
38438W        W 3599  30.529  17.697   4.641
38439W        W 3600   0.298  25.445  11.486
38440W        W 3601  11.279  17.232  12.115
38441W        W 3602  25.164  36.984   3.918
38442W        W 3603  29.093   6.732   2.297
38443W        W 3604   1.799  32.338  12.669
38444W        W 3605  20.541  43.041  12.289
38445W        W 3606  13.008  21.131  10.867
38446W        W 3607  20.616   9.231   3.684
38447W        W 3608  42.914  28.081   1.321
38448W        W 3609  33.722  21.293   5.068
38449W        W 3610  38.795  29.691  12.492
38450W        W 3611  16.227  16.675  11.137
38451W        W 3612  19.970  10.323  10.607
38452W        W 3613  12.825  26.212   3.228
38453W        W 3614  19.163  34.503   2.721
38454W        W 3615  27.974  29.688   0.821
38455W        W 3616  31.657  14.154   5.050
38456W        W 3617  40.979  28.126  10.720
38457W        W 3618   7.454  31.636   1.677
38458W        W 3619  18.548   1.444   0.695
38459W        W 3620   3.357   1.288  14.827
38460W        W 3621  35.978  13.345  13.345
38461W        W 3622  12.092   2.835   0.871
38462W        W 3623  40.077  15.332   3.134
38463W        W 3624  33.670   6.316   0.473
38464W        W 3625  39.416  12.983   1.305
38465W        W 3626  16.749  42.693   1.853
38466W        W 3627  22.499  44.487   3.275
38467W        W 3628  17.146   5.489   1.855
38468W        W 3629   6.762  12.786   2.808
38469W        W 3630  24.090  34.943   2.878
38470W        W 3631  36.551   1.364  10.336
38471W        W 3632  15.188  14.129  10.869
38472W        W 3633  23.998   3.829   0.846
38473W        W 3634  32.798  20.657   3.163
38474W        W 3635  32.922  37.871   1.427
38475W        W 3636  33.450  15.287   3.898
38476W        W 3637   0.580  22.220   4.049
38477W        W 3638   9.131   8.396   2.907
38478W        W 3639  17.213  36.596   4.671
38479W        W 3640  39.283  38.521   3.886
38480W        W 3641   4.917   9.208   1.862
38481W        W 3642  36.365  43.386   4.109
38482W        W 3643   6.106   1.344  12.012
38483W        W 3644  24.633   9.919   3.717
38484W        W 3645  41.151  34.938  12.480
38485W        W 3646  42.893  22.740  11.961
38486W        W 3647  14.552  32.559   1.632
38487W        W 3648  38.993  29.118   2.692
38488W        W 3649  17.523  35.804   2.815
38489W        W 3650  43.908  35.486  11.194
38490W        W 3651  24.147  28.503   3.106
38491W        W 3652  43.761  33.584  14.000
38492W        W 3653  23.658  18.751   1.395
38493W        W 3654  17.035  43.845   3.659
38494W        W 3655   6.220  41.036  12.528
38495W        W 3656  28.495  37.056  13.377
38496W        W 3657  17.282  38.175   1.904
38497W        W 3658  13.085  15.828   3.278
38498W        W 3659  18.006  42.018   1.955
38499W        W 3660  34.214   2.281  13.471
38500W        W 3661  14.343   3.453   3.376
38501W        W 3662  43.892  12.670   2.847
38502W        W 3663  16.132  33.998  14.471
38503W        W 3664  43.741  36.175  14.043
38504W        W 3665   5.967  30.710   4.096
38505W        W 3666   9.929  21.024   3.077
38506W        W 3667  19.248   1.920   2.919
38507W        W 3668   7.276  44.984   2.202
38508W        W 3669  18.822   3.756  14.697
38509W        W 3670   6.361  22.068  14.495
38510W        W 3671  21.664  35.397  10.790
38511W        W 3672  29.973   2.195  13.931
38512W        W 3673   9.500  23.097   3.357
38513W        W 3674  21.134  13.854   4.579
38514W        W 3675  36.000  25.725  11.623
38515W        W 3676  11.207  10.183   1.998
38516W        W 3677   2.906  37.263  14.806
38517W        W 3678   9.595  30.389   4.059
38518W        W 3679  19.129   4.231  13.904
38519W        W 3680   8.874  19.827  10.691
38520W        W 3681  41.615   0.836  13.387
38521W        W 3682  12.915   1.269   4.495
38522W        W 3683  10.079  24.006  10.723
38523W        W 3684   2.712  43.231  13.623
38524W        W 3685  35.430  29.734  12.425
38525W        W 3686  19.277  28.550  14.488
38526W        W 3687  19.593  12.352   1.396
38527W        W 3688   5.923  42.895   2.416
38528W        W 3689  29.548   5.020  14.098
38529W        W 3690  21.605  37.058  11.607
38530W        W 3691  29.493  10.521  12.603
38531W        W 3692  28.160   8.639  13.856
38532W        W 3693   3.370   4.464   2.189
38533W        W 3694  27.990  19.647  13.358
38534W        W 3695  32.179  25.571  12.832
38535W        W 3696  28.924   5.545   3.565
38536W        W 3697  25.458   0.558   2.690
38537W        W 3698   8.250   8.804   0.485
38538W        W 3699  21.816  30.511   3.311
38539W        W 3700  41.093  28.051  13.148
38540W        W 3701  31.020  28.667  12.229
38541W        W 3702  27.591  31.374   2.842
38542W        W 3703   2.899   4.851   0.442
38543W        W 3704  30.216  43.914  14.171
38544W        W 3705  43.407  36.329  12.261
38545W        W 3706  19.275  26.976   0.955
38546W        W 3707  17.753   5.267  12.671
38547W        W 3708  17.046  31.932   4.527
38548W        W 3709   6.851   7.656  11.043
38549W        W 3710  41.522  35.674  13.344
38550W        W 3711  37.085  39.513   1.854
38551W        W 3712   0.227  18.784  13.787
38552W        W 3713  31.705  21.967  14.321
38553W        W 3714   9.609  12.372  12.124
38554W        W 3715  14.305  42.981  11.179
38555W        W 3716  21.573   2.187  12.885
38556W        W 3717  36.279   9.938  11.298
38557W        W 3718  33.869  13.318  11.977
38558W        W 3719  24.021  23.057  12.251
38559W        W 3720  33.346  32.031  13.524
38560W        W 3721  22.589  16.113  14.552
38561W        W 3722  25.959  23.284   4.986
38562W        W 3723  15.793  21.221  12.325
38563W        W 3724  31.404  39.237  10.163
38564W        W 3725   2.333   6.216   0.414
38565W        W 3726  25.216  16.688   0.330
38566W        W 3727  11.838   3.826   2.286
38567W        W 3728  44.768  24.204  13.474
38568W        W 3729   1.169  24.267   1.839
38569W        W 3730  16.532   1.440   3.156
38570W        W 3731  29.424  31.475   2.136
38571W        W 3732   7.789  18.789   2.751
38572W        W 3733   6.197  20.197  11.543
38573W        W 3734  35.474  27.575   3.086
38574W        W 3735  25.476  44.265   5.268
38575W        W 3736  34.408   6.759  12.992
38576W        W 3737  29.345  32.984  13.444
38577W        W 3738  14.572  14.750   2.727
38578W        W 3739  34.162  13.261   4.238
38579W        W 3740  10.362  17.648  12.068
38580W        W 3741  22.026  35.543   1.705
38581W        W 3742  24.536  16.291   0.819
38582W        W 3743   5.933  10.700   1.343
38583W        W 3744   2.214  15.019   0.667
38584W        W 3745  10.808  33.938   1.946
38585W        W 3746  44.876  38.079  11.743
38586W        W 3747  31.130  41.063  13.303
38587W        W 3748  34.706  17.158   3.200
38588W        W 3749  15.544  32.321   1.036
38589W        W 3750  15.205  24.949  14.303
38590W        W 3751  19.167   6.221   0.961
38591W        W 3752   6.135  33.481   2.334
38592W        W 3753  23.869   8.222  11.703
38593W        W 3754  42.439   4.632  14.716
38594W        W 3755  37.609  31.182  14.073
38595W        W 3756  44.499  16.241   2.328
38596W        W 3757  25.456  29.365  12.287
38597W        W 3758  40.690  37.888   1.924
38598W        W 3759  12.372  11.910   2.386
38599W        W 3760   0.419  20.326  12.618
38600W        W 3761  10.263   8.888   4.183
38601W        W 3762   7.528   4.918  11.722
38602W        W 3763  16.243  44.333  14.772
38603W        W 3764  41.779  14.607  11.102
38604W        W 3765  23.026  17.133   1.201
38605W        W 3766   7.465  44.407   3.420
38606W        W 3767  11.636  15.716   0.283
38607W        W 3768  17.976   9.819   4.677
38608W        W 3769  37.640  24.052   3.147
38609W        W 3770  33.054  20.145  14.934
38610W        W 3771   9.163   1.603   4.145
38611W        W 3772  24.746   1.891  11.875
38612W        W 3773  37.963  40.291  11.396
38613W        W 3774  19.795  32.710   3.596
38614W        W 3775  24.109  30.860   0.967
38615W        W 3776  43.370   9.266  13.331
38616W        W 3777  10.085  12.033   0.850
38617W        W 3778   3.345   5.475   2.081
38618W        W 3779  43.499  25.028  14.826
38619W        W 3780  29.506  38.923  12.250
38620W        W 3781  35.611  35.638  13.412
38621W        W 3782  43.887  26.852  13.582
38622W        W 3783  15.355  15.244   0.355
38623W        W 3784  40.528  32.222   2.358
38624W        W 3785  28.905  32.677  13.446
38625W        W 3786  11.234  33.405   4.141
38626W        W 3787  11.704  35.889  14.755
38627W        W 3788  36.892  37.703  12.211
38628W        W 3789   1.948  13.333   1.723
38629W        W 3790  31.027  26.538  14.024
38630W        W 3791  22.787   5.681  12.605
38631W        W 3792  14.842  31.522   2.813
38632W        W 3793  16.200  31.328   2.794
38633W        W 3794  21.940  16.084  12.901
38634W        W 3795  25.167  36.367   2.643
38635W        W 3796  38.313  43.848  12.917
38636W        W 3797   3.403  25.906  14.076
38637W        W 3798  18.504   8.809   4.615
38638W        W 3799  15.599  25.440  12.258
38639W        W 3800  19.806  20.666  12.555
38640W        W 3801  26.563  43.021   1.065
38641W        W 3802  36.553  11.694   3.430
38642W        W 3803  31.351  26.609  14.431
38643W        W 3804  40.291   3.252  12.440
38644W        W 3805  34.351  15.771   0.336
38645W        W 3806  38.286  19.570   2.265
38646W        W 3807  26.641  16.791  11.086
38647W        W 3808  36.842   3.334  11.977
38648W        W 3809  39.930  44.302  13.349
38649W        W 3810  38.291  37.430  14.272
38650W        W 3811  30.372  37.033   3.237
38651W        W 3812   9.647  39.042  12.819
38652W        W 3813  38.269  29.717  12.417
38653W        W 3814   9.578  19.198  10.729
38654W        W 3815  28.226  34.037   2.775
38655W        W 3816  37.149  35.456  13.867
38656W        W 3817   9.248  34.185   0.689
38657W        W 3818  36.427  28.586   2.495
38658W        W 3819  19.139  15.827   1.488
38659W        W 3820  32.857  29.876  10.370
38660W        W 3821  36.023  11.126   4.990
38661W        W 3822  33.486   1.947  13.515
38662W        W 3823  41.490  10.163   3.265
38663W        W 3824  41.796  31.464   3.210
38664W        W 3825  14.120  40.929   3.625
38665W        W 3826  13.147  13.077  11.084
38666W        W 3827  44.736  44.258   1.421
38667W        W 3828  30.425   7.845   3.276
38668W        W 3829  38.914  18.040  12.513
38669W        W 3830  14.917  26.465   4.900
38670W        W 3831   9.132  23.980   1.714
38671W        W 3832  14.710  29.180   2.340
38672W        W 3833  23.159  30.511  10.564
38673W        W 3834  34.509  43.293   0.328
38674W        W 3835  16.927  11.377   1.007
38675W        W 3836  22.215   5.334  12.839
38676W        W 3837  30.202  13.191  13.868
38677W        W 3838  41.927  40.179   0.753
38678W        W 3839  15.598  27.487  10.744
38679W        W 3840  35.612  35.387   4.355
38680W        W 3841  19.517   8.330   1.054
38681W        W 3842  44.440   8.630  14.506
38682W        W 3843   3.417  41.887  13.381
38683W        W 3844   6.663  21.382   2.310
38684W        W 3845   7.584  39.938  14.016
38685W        W 3846  34.599  17.907   1.278
38686W        W 3847  25.486  34.377   0.299
38687W        W 3848  18.711  27.766  11.680
38688W        W 3849  19.768  19.089   3.064
38689W        W 3850  36.773  10.463  13.491
38690W        W 3851   0.014  40.921   4.162
38691W        W 3852  37.932  39.744  11.366
38692W        W 3853   0.238  34.104  14.898
38693W        W 3854  14.375  10.419  11.933
38694W        W 3855  17.720  12.339  13.741
38695W        W 3856   5.998   6.892   1.484
38696W        W 3857  44.292   6.795  12.216
38697W        W 3858  23.532   0.504   3.687
38698W        W 3859  32.685  43.988  14.243
38699W        W 3860  10.325  12.953  11.978
38700W        W 3861   8.847  38.770   3.612
38701W        W 3862  21.623  29.360  12.906
38702W        W 3863  22.626  18.053   0.849
38703W        W 3864   7.302  38.934  12.038
38704W        W 3865  12.750   0.715  13.916
38705W        W 3866  27.615  29.231   4.099
38706W        W 3867  37.452  21.977  10.694
38707W        W 3868   8.202  14.607   1.201
38708W        W 3869  13.227  29.084  14.823
38709W        W 3870  20.615  33.490  11.189
38710W        W 3871  37.722  27.659   2.320
38711W        W 3872  33.247  28.385  14.432
38712W        W 3873  43.144  19.927  12.068
38713W        W 3874   4.462  21.446  14.982
38714W        W 3875  13.853   1.981  12.065
38715W        W 3876  21.768  13.875   3.885
38716W        W 3877  16.094  26.640   0.798
38717W        W 3878  12.384  21.187   1.410
38718W        W 3879  22.079  34.311  12.504
38719W        W 3880  19.537   2.169   1.750
38720W        W 3881  39.872   4.782   4.622
38721W        W 3882  30.903  35.841  12.007
38722W        W 3883  42.055  34.968  12.017
38723W        W 3884   6.084  10.457  10.886
38724W        W 3885  12.811   6.315   4.622
38725W        W 3886  14.379  32.686  14.931
38726W        W 3887  35.384  41.853  14.294
38727W        W 3888   1.910  32.981   3.170
38728W        W 3889  43.483  22.296   2.414
38729W        W 3890  12.131   3.319   3.193
38730W        W 3891  37.063  40.885   0.574
38731W        W 3892  29.599  43.846  12.404
38732W        W 3893  33.314   0.167   1.199
38733W        W 3894  29.371  12.128   3.632
38734W        W 3895  37.054  43.403  11.383
38735W        W 3896   2.761  33.634  11.656
38736W        W 3897   5.343  36.519   2.342
38737W        W 3898   0.531   4.249   1.907
38738W        W 3899   2.359  34.109  12.950
38739W        W 3900   0.307  25.131  10.663
38740W        W 3901  26.251  31.994  12.111
38741W        W 3902   7.232  15.626  14.882
38742W        W 3903  16.063  21.729  11.180
38743W        W 3904  12.642  23.693  14.930
38744W        W 3905  29.419  16.723   3.313
38745W        W 3906  34.575   7.908  11.197
38746W        W 3907  39.788   8.368   3.245
38747W        W 3908  17.150  28.075  13.577
38748W        W 3909   1.917  19.360  11.158
38749W        W 3910   4.918  42.893   4.179
38750W        W 3911  21.637  39.764  14.866
38751W        W 3912  43.329   4.699   1.168
38752W        W 3913  40.813  19.934  14.102
38753W        W 3914  31.874  37.953   3.694
38754W        W 3915  25.490  33.372  14.986
38755W        W 3916  13.654  38.992  11.528
38756W        W 3917   3.441  26.443   2.594
38757W        W 3918  43.776  44.432   3.837
38758W        W 3919  21.519  12.884  10.980
38759W        W 3920  43.223   7.613  14.493
38760W        W 3921  17.223   0.731  12.168
38761W        W 3922  31.741  27.601   5.826
38762W        W 3923  35.936  27.026  13.184
38763W        W 3924  18.229   4.781  14.606
38764W        W 3925  44.603  40.627  12.577
38765W        W 3926  39.350  38.585  11.452
38766W        W 3927  39.547  44.226   0.102
38767W        W 3928   8.231  32.899   0.398
38768W        W 3929  23.913  29.649  12.914
38769W        W 3930  34.076  21.716   3.229
38770W        W 3931  27.991   9.457  13.572
38771W        W 3932  33.613  11.364   0.166
38772W        W 3933  15.505  24.196  14.085
38773W        W 3934  24.078  35.039  14.620
38774W        W 3935  11.141  40.113   4.150
38775W        W 3936  28.065  38.635  13.074
38776W        W 3937  10.427   2.743  10.727
38777W        W 3938  33.899  40.363   1.319
38778W        W 3939   9.278  39.808   1.935
38779W        W 3940  29.110  11.741  14.052
38780W        W 3941  10.300  41.202  10.647
38781W        W 3942  31.894  39.855  14.823
38782W        W 3943   3.752  10.338   4.064
38783W        W 3944  36.902  23.128  14.588
38784W        W 3945  16.765   8.887   1.688
38785W        W 3946  25.024  42.287  10.692
38786W        W 3947  33.854  16.311  12.003
38787W        W 3948   2.780  29.713  12.444
38788W        W 3949  30.960  44.922  10.984
38789W        W 3950  31.648   9.506  11.248
38790W        W 3951  24.798  23.213  10.301
38791W        W 3952  27.001  26.044  10.699
38792W        W 3953  33.250  17.839   3.620
38793W        W 3954  26.361  27.866   1.819
38794W        W 3955  41.379  25.538  10.972
38795W        W 3956  19.983   0.538  11.849
38796W        W 3957  44.482  18.765   0.656
38797W        W 3958  20.517  10.707  14.723
38798W        W 3959  39.525  17.244  11.699
38799W        W 3960  20.895  22.226   0.906
38800W        W 3961  26.094  12.444   4.062
38801W        W 3962  15.133  16.030  11.484
38802W        W 3963  33.215  15.868  13.123
38803W        W 3964  25.647  30.853   0.184
38804W        W 3965   5.527  30.013  11.655
38805W        W 3966   6.474  24.138   1.441
38806W        W 3967  13.888  27.565  11.228
38807W        W 3968  19.856  44.966   3.335
38808W        W 3969   8.787  29.318  14.470
38809W        W 3970  25.302  36.071   2.229
38810W        W 3971  37.534  39.613  14.324
38811W        W 3972  32.665   1.708   1.903
38812W        W 3973  29.803  32.991   3.682
38813W        W 3974   6.371  26.493   0.837
38814W        W 3975  13.788  39.345   1.413
38815W        W 3976  35.233  35.461   4.713
38816W        W 3977  20.598  41.794  12.064
38817W        W 3978  19.598  18.712  12.067
38818W        W 3979  35.107  34.282   3.718
38819W        W 3980  31.203  33.061   0.353
38820W        W 3981  11.462   4.441   1.700
38821W        W 3982   9.001  28.159  10.032
38822W        W 3983   5.221  37.429  12.827
38823W        W 3984   9.502  23.588  12.065
38824W        W 3985  24.531  38.840  12.233
38825W        W 3986  30.952  39.108   0.270
38826W        W 3987  16.426  34.840  13.928
38827W        W 3988   6.754  42.996  13.604
38828W        W 3989   5.568  27.650   3.983
38829W        W 3990   8.216  42.255   1.995
38830W        W 3991  33.401  19.389  11.189
38831W        W 3992  32.478  10.632   2.074
38832W        W 3993  22.151  36.393  12.568
38833W        W 3994   0.242  44.362  11.997
38834W        W 3995   3.409  19.993  13.984
38835W        W 3996  27.931  18.720  13.327
38836W        W 3997  16.286  38.893  14.361
38837W        W 3998  32.328  29.644   1.938
38838W        W 3999   8.159  41.889   0.908
38839W        W 4000   9.453  27.423  10.347
38840W        W 4001  32.920   2.246  11.712
38841W        W 4002  34.427  44.841  11.166
38842W        W 4003  42.806   5.449   1.513
38843W        W 4004  13.209  27.069   0.509
38844W        W 4005  19.040  21.322   9.840
38845W        W 4006   3.770  31.551  11.105
38846W        W 4007  29.605  14.199   1.325
38847W        W 4008  13.517  42.041   0.906
38848W        W 4009  19.535  13.418  11.090
38849W        W 4010  39.346  14.696  12.962
38850W        W 4011  43.981  36.855  14.823
38851W        W 4012   5.164  33.933   3.711
38852W        W 4013  29.280  41.072   4.269
38853W        W 4014   8.457   8.967  10.636
38854W        W 4015  23.823  16.495  14.929
38855W        W 4016  17.756  31.524  11.953
38856W        W 4017  38.977  38.651  13.364
38857W        W 4018  21.898  12.079  11.970
38858W        W 4019  22.253  38.359   1.383
38859W        W 4020  18.341  37.821  11.269
38860W        W 4021  35.953  17.059   1.404
38861W        W 4022  19.647   1.821   0.010
38862W        W 4023  43.539   5.137  11.121
38863W        W 4024  10.372  17.099   1.772
38864W        W 4025  21.984  34.021  12.085
38865W        W 4026   9.141   3.965  11.635
38866W        W 4027  44.387   7.674   0.880
38867W        W 4028   1.796  10.909   2.892
38868W        W 4029  43.981  35.682   9.940
38869W        W 4030  42.110  17.146   3.530
38870W        W 4031   4.511  44.439   0.835
38871W        W 4032  22.753  38.217   2.917
38872W        W 4033  21.600  25.161  12.569
38873W        W 4034  37.897  32.386   4.842
38874W        W 4035  30.824  16.576  14.971
38875W        W 4036  42.974  41.281  11.150
38876W        W 4037  32.394  42.835   2.743
38877W        W 4038  27.890  31.928  12.926
38878W        W 4039  13.171  35.657   0.810
38879W        W 4040  43.994  38.600   9.945
38880W        W 4041  15.794  10.556  13.105
38881W        W 4042  36.254  18.153  13.083
38882W        W 4043   8.861  11.877  13.390
38883W        W 4044  27.720  42.710  12.480
38884W        W 4045  11.497  30.082   1.226
38885W        W 4046  23.492  12.143  13.529
38886W        W 4047   9.247  37.988   4.618
38887W        W 4048  40.339  36.399   3.801
38888W        W 4049   2.856   9.314  11.995
38889W        W 4050  18.306  10.339  14.177
38890W        W 4051  26.914  18.616  11.996
38891W        W 4052  28.641   6.526   4.311
38892W        W 4053   4.189  30.370  13.043
38893W        W 4054  26.774  33.030  11.950
38894W        W 4055  28.027  12.867  12.017
38895W        W 4056  42.510  19.255  12.483
38896W        W 4057  26.724   7.858  11.617
38897W        W 4058   2.723  38.937  13.795
38898W        W 4059  10.544  15.503  13.093
38899W        W 4060  30.911  37.080  14.479
38900W        W 4061   2.581  21.608   2.258
38901W        W 4062  27.158  26.447   5.171
38902W        W 4063  22.000  12.289   3.224
38903W        W 4064   0.805  39.132  11.607
38904W        W 4065   2.970  41.506  13.896
38905W        W 4066  44.674  12.075  12.814
38906W        W 4067  30.422  22.080   2.826
38907W        W 4068   1.824   9.177  12.008
38908W        W 4069  41.596  13.335  10.795
38909W        W 4070  13.843   7.049  10.662
38910W        W 4071  41.303   7.444   4.690
38911W        W 4072  42.493  11.214  13.416
38912W        W 4073  23.734  18.136   1.418
38913W        W 4074  15.912   7.686  10.190
38914W        W 4075  29.501  10.933  12.921
38915W        W 4076  26.703  31.345  13.443
38916W        W 4077  22.310  30.613  12.814
38917W        W 4078  37.350  27.559   2.693
38918W        W 4079   8.790  16.558   0.420
38919W        W 4080   3.222  13.541   2.252
38920W        W 4081  34.799  28.772   4.102
38921W        W 4082   2.619  39.307  12.479
38922W        W 4083   3.762  32.897   1.793
38923W        W 4084  29.737  40.604  13.400
38924W        W 4085  31.088  12.339  11.448
38925W        W 4086  19.852  35.417  12.306
38926W        W 4087  21.564  35.612  12.440
38927W        W 4088  37.783  24.918   0.362
38928W        W 4089  42.374  38.853  13.913
38929W        W 4090  21.097   4.695  13.921
38930W        W 4091  11.665  32.502  12.298
38931W        W 4092  32.001  42.787   1.848
38932W        W 4093   8.843  44.585  13.872
38933W        W 4094   9.775   2.696  14.783
38934W        W 4095  36.599  15.736   3.078
38935W        W 4096  39.954   8.836   0.718
38936W        W 4097  14.727  40.813   9.487
38937W        W 4098  34.875   4.156   4.573
38938W        W 4099  36.987  24.640   2.389
38939W        W 4100  43.406  35.872  14.419
38940W        W 4101  41.754  22.759   0.826
38941W        W 4102  38.372  15.939   2.192
38942W        W 4103  22.528  30.041   2.854
38943W        W 4104  10.319  27.431   0.367
38944W        W 4105  43.652  12.753   3.924
38945W        W 4106  36.383  27.037  12.234
38946W        W 4107  42.505  41.537   3.552
38947W        W 4108  21.518   1.747   1.866
38948W        W 4109  20.584  11.828  14.105
38949W        W 4110  17.780  10.757   3.723
38950W        W 4111  33.532  40.380   3.497
38951W        W 4112  36.740  33.844  11.297
38952W        W 4113  27.271   5.326  14.998
38953W        W 4114  17.645  26.309  12.980
38954W        W 4115  44.331  14.840  11.606
38955W        W 4116  38.907  36.347   0.181
38956W        W 4117  36.438  12.983   3.044
38957W        W 4118  28.540  33.366   3.710
38958W        W 4119  13.378   5.317   1.183
38959W        W 4120  24.690  32.523  12.963
38960W        W 4121   8.447  43.322   2.791
38961W        W 4122   4.832  44.509   2.657
38962W        W 4123  38.765  41.671  10.762
38963W        W 4124  41.813   5.579   3.310
38964W        W 4125  10.322   9.624   1.866
38965W        W 4126  23.058  21.021   0.321
38966W        W 4127  34.794   1.587   5.053
38967W        W 4128  34.394   2.971  12.886
38968W        W 4129  16.112  22.034   2.626
38969W        W 4130  35.017  22.232   2.345
38970W        W 4131  39.716  21.069   5.221
38971W        W 4132  15.218   5.986   4.082
38972W        W 4133  17.846  38.573  13.390
38973W        W 4134  29.313   3.193   5.087
38974W        W 4135  19.203  19.298  11.110
38975W        W 4136   7.382   0.219   4.520
38976W        W 4137  32.906  37.819   1.944
38977W        W 4138  36.412  35.479   2.208
38978W        W 4139   3.654  27.813  11.162
38979W        W 4140  44.426  18.414   4.578
38980W        W 4141   2.513   9.849   2.109
38981W        W 4142   1.143  18.237   4.418
38982W        W 4143  29.024  43.860  14.410
38983W        W 4144  29.373  26.208  14.594
38984W        W 4145   8.789  30.106   2.732
38985W        W 4146   5.425   5.422  13.828
38986W        W 4147  16.177  14.757  11.676
38987W        W 4148   2.495  33.276  10.744
38988W        W 4149  21.372  27.551   3.166
38989W        W 4150  17.972   3.368   1.731
38990W        W 4151  19.520  37.215   3.080
38991W        W 4152  29.108  30.082   3.358
38992W        W 4153  21.482   7.825   1.295
38993W        W 4154   7.589   9.109   4.286
38994W        W 4155  32.047   6.082   1.472
38995W        W 4156   9.373  21.729  14.888
38996W        W 4157  27.905  29.592   2.202
38997W        W 4158  34.310  35.449  13.706
38998W        W 4159  38.457  28.686  13.983
38999W        W 4160  31.083   8.637  13.078
39000W        W 4161  23.127  21.764  11.212
39001W        W 4162   2.215  41.516  10.679
39002W        W 4163  35.517  15.216   4.723
39003W        W 4164   5.650  16.519   3.239
39004W        W 4165  38.956  13.895   1.483
39005W        W 4166  21.067  17.635   0.295
39006W        W 4167   5.573  10.613   2.741
39007W        W 4168  18.309   7.813  12.174
39008W        W 4169   4.229  39.362   3.035
39009W        W 4170  10.562  33.670   4.594
39010W        W 4171  21.021  42.004   1.185
39011W        W 4172  18.015  38.969  13.819
39012W        W 4173  12.110  23.077  10.708
39013W        W 4174  19.378  13.043   4.075
39014W        W 4175   4.669  30.822   1.220
39015W        W 4176  12.439  39.993  13.369
39016W        W 4177  12.449  12.340   1.443
39017W        W 4178  14.585  42.968   2.441
39018W        W 4179  18.313  16.266   2.261
39019W        W 4180  25.180  44.405   3.856
39020W        W 4181  41.793   2.703   4.089
39021W        W 4182  38.084  27.169  11.561
39022W        W 4183  41.599   7.879  14.007
39023W        W 4184  10.711  23.747   4.495
39024W        W 4185  39.882   0.855  13.852
39025W        W 4186  22.141   0.334  12.078
39026W        W 4187  20.926  29.620   4.590
39027W        W 4188  10.666  19.686   4.968
39028W        W 4189   5.105  39.380  11.160
39029W        W 4190  21.259  13.395  14.279
39030W        W 4191   0.865   1.715  11.695
39031W        W 4192   4.166  25.016   0.253
39032W        W 4193   8.143  14.346   1.641
39033W        W 4194  39.491   4.385  14.293
39034W        W 4195  16.156   8.938  10.651
39035W        W 4196  31.357   8.454   4.365
39036W        W 4197   5.933  44.205   3.110
39037W        W 4198  28.886   8.650  12.946
39038W        W 4199  19.146  19.431  13.863
39039W        W 4200  39.462  35.384  11.235
39040W        W 4201  18.812   9.971   0.430
39041W        W 4202  44.305  44.546   1.540
39042W        W 4203  38.351  15.735   1.717
39043W        W 4204   7.288   0.925  12.413
39044W        W 4205   4.445  20.179  14.305
39045W        W 4206  31.625  16.416  13.541
39046W        W 4207  19.081   8.453   2.373
39047W        W 4208  27.053  37.431  11.126
39048W        W 4209  36.002  22.465  12.112
39049W        W 4210  39.251  16.163   0.865
39050W        W 4211  36.324  25.998  11.962
39051W        W 4212  17.314  28.866   3.315
39052W        W 4213  18.739  38.882  14.331
39053W        W 4214  38.797  32.444  13.414
39054W        W 4215   5.297  34.448   0.569
39055W        W 4216  20.534  21.675   2.834
39056W        W 4217  23.434  11.937  11.755
39057W        W 4218  42.560   2.507   4.358
39058W        W 4219  14.691  39.672  11.889
39059W        W 4220  36.386  38.365   3.280
39060W        W 4221  17.403  30.089   0.966
39061W        W 4222   3.319  37.955  11.942
39062W        W 4223   9.357  36.301   4.876
39063W        W 4224   6.054  16.608   0.983
39064W        W 4225  20.940  43.681   3.257
39065W        W 4226  37.636  17.768  13.152
39066W        W 4227  18.288  26.077   4.801
39067W        W 4228  44.424  35.506  14.977
39068W        W 4229  44.946  42.297   2.361
39069W        W 4230  32.482  44.872  12.433
39070W        W 4231   0.556  13.980   4.764
39071W        W 4232  42.458  32.228  13.009
39072W        W 4233  26.608  35.548  13.509
39073W        W 4234  30.229  20.070   2.722
39074W        W 4235  30.312  24.919   1.267
39075W        W 4236  35.560   6.267   1.347
39076W        W 4237  30.462  41.634  11.195
39077W        W 4238   5.243  40.923  13.496
39078W        W 4239  27.202   8.179   4.778
39079W        W 4240  31.580  31.552  13.085
39080W        W 4241  17.166  35.582   4.522
39081W        W 4242  34.114  39.796  13.443
39082W        W 4243  15.774  18.249  11.124
39083W        W 4244   9.842  43.516  10.529
39084W        W 4245  38.915  25.474   4.121
39085W        W 4246  14.845  16.468   4.279
39086W        W 4247  27.618  21.205   0.702
39087W        W 4248  15.058  16.125  12.592
39088W        W 4249   3.867  28.623  12.452
39089W        W 4250  34.821  38.378  14.539
39090W        W 4251   6.190  11.433  10.077
39091W        W 4252  40.889  14.456  11.259
39092W        W 4253  12.106  32.970  14.664
39093W        W 4254   4.932  31.130   2.351
39094W        W 4255  14.770  30.169   4.125
39095W        W 4256  33.942  14.893  13.636
39096W        W 4257  28.822  31.471   3.936
39097W        W 4258  20.117  35.616  13.728
39098W        W 4259   5.394  39.967   2.111
39099W        W 4260  41.998   8.709  11.535
39100W        W 4261  35.145   0.968   4.013
39101W        W 4262  30.667  18.424  14.511
39102W        W 4263   3.875   4.969   1.897
39103W        W 4264  14.969   1.984   2.766
39104W        W 4265  10.775  18.888  11.515
39105W        W 4266  44.286  44.885   0.005
39106W        W 4267  21.273  16.393  11.692
39107W        W 4268   4.747  13.915   5.324
39108W        W 4269  17.882   9.935  11.874
39109W        W 4270  21.429  41.920  14.321
39110W        W 4271  19.602   9.724   2.865
39111W        W 4272  13.939  15.382   3.231
39112W        W 4273   7.884  29.523  13.331
39113W        W 4274  23.963  41.368  12.077
39114W        W 4275  25.157   3.508  13.868
39115W        W 4276   9.426  36.516  12.542
39116W        W 4277  16.269  19.659  12.382
39117W        W 4278  16.829   0.978  10.640
39118W        W 4279   4.034   3.863  12.278
39119W        W 4280  17.687  29.305   4.370
39120W        W 4281  28.588   4.959   3.193
39121W        W 4282   6.681  17.237   1.378
39122W        W 4283  27.632  44.830  11.980
39123W        W 4284  11.927   4.431  13.878
39124W        W 4285  16.964   6.692  13.392
39125W        W 4286  38.928   5.843   4.564
39126W        W 4287  13.148  27.705   0.004
39127W        W 4288  38.646  18.128  12.945
39128W        W 4289  36.137  42.938   4.206
39129W        W 4290  29.045  21.139   0.899
39130W        W 4291  34.379  43.838   0.307
39131W        W 4292  32.757   5.392  14.320
39132W        W 4293   8.335  33.149  11.582
39133W        W 4294  39.750   9.135  12.527
39134W        W 4295   1.537  34.368  11.161
39135W        W 4296  28.765  31.037   2.527
39136W        W 4297  21.234  42.760   1.924
39137W        W 4298  10.319  12.617   4.730
39138W        W 4299   5.928  17.081   2.222
39139W        W 4300  44.417   8.512   1.594
39140W        W 4301  15.531  38.961   4.116
39141W        W 4302  30.233  27.838   2.472
39142W        W 4303  11.784   4.723  12.312
39143W        W 4304  25.456   0.644   3.761
39144W        W 4305  36.131  23.349   4.513
39145W        W 4306   1.856  29.027   4.010
39146W        W 4307  21.851  27.874   3.895
39147W        W 4308  20.932  28.396   4.159
39148W        W 4309  27.345  42.288  11.115
39149W        W 4310   6.084   3.441  14.974
39150W        W 4311  13.256  19.621  13.953
39151W        W 4312  23.433  12.617  13.308
39152W        W 4313   7.914   9.350  11.795
39153W        W 4314  40.418  32.403   4.153
39154W        W 4315  30.926  20.332   0.807
39155W        W 4316  36.469   4.219   2.168
39156W        W 4317  19.479  17.732   5.070
39157W        W 4318  17.622  37.945   3.848
39158W        W 4319   9.962  20.060  12.799
39159W        W 4320  39.376  26.413  10.508
39160W        W 4321  28.112  27.083  13.081
39161W        W 4322  24.158   2.148  12.379
39162W        W 4323  28.471  19.720   2.310
39163W        W 4324   2.742   2.786   0.786
39164W        W 4325   5.882   1.424  14.172
39165W        W 4326  41.826  43.076   9.803
39166W        W 4327  16.194  17.694  10.497
39167W        W 4328   8.200  31.462  12.507
39168W        W 4329  10.025   5.722  12.456
39169W        W 4330   3.214  43.791   2.354
39170W        W 4331  13.355  29.689  12.487
39171W        W 4332  22.642  11.044   4.217
39172W        W 4333  14.650  24.350   4.081
39173W        W 4334  18.671  40.652  13.047
39174W        W 4335  31.484  10.404  10.690
39175W        W 4336  12.404  39.303   2.776
39176W        W 4337  44.332  21.674   2.331
39177W        W 4338  44.831  11.705  11.118
39178W        W 4339  43.979  16.208  12.861
39179W        W 4340  20.760  36.967  10.743
39180W        W 4341  19.569  42.086   0.340
39181W        W 4342  26.777  10.667  12.525
39182W        W 4343  20.357  22.229   5.377
39183W        W 4344  44.328   5.410  12.039
39184W        W 4345  42.462  16.699   0.761
39185W        W 4346  35.429   3.164  10.608
39186W        W 4347  16.293  20.166   4.488
39187W        W 4348  30.852  28.606  10.665
39188W        W 4349  22.723  32.476  11.028
39189W        W 4350  43.502  19.630   4.649
39190W        W 4351  34.499  43.879  14.810
39191W        W 4352  20.835   5.271   1.400
39192W        W 4353  35.507  31.902   3.424
39193W        W 4354  41.600  17.982  13.011
39194W        W 4355   9.673   9.302   4.663
39195W        W 4356  28.640  35.481   0.988
39196W        W 4357  30.916  18.859  14.326
39197W        W 4358  42.575  36.434   2.072
39198W        W 4359   6.575  28.676   4.276
39199W        W 4360  32.015  28.043  10.253
39200W        W 4361  29.191  31.148  13.309
39201W        W 4362  25.551  16.845   1.148
39202W        W 4363   0.303  37.509  14.564
39203W        W 4364  12.690  11.565   3.292
39204W        W 4365  41.503  14.236  12.560
39205W        W 4366  16.574  10.313   3.902
39206W        W 4367  36.594  18.275  14.497
39207W        W 4368   6.399  21.263   4.505
39208W        W 4369  27.001  29.810  14.734
39209W        W 4370  34.260   5.610   1.059
39210W        W 4371  38.060   1.941  12.983
39211W        W 4372  39.559  24.661   1.545
39212W        W 4373  37.692   8.274  11.949
39213W        W 4374  18.665   6.700   0.058
39214W        W 4375  17.173   4.801  14.923
39215W        W 4376  37.974  18.711  10.411
39216W        W 4377  39.875  12.834  14.110
39217W        W 4378  30.377  18.190  10.513
39218W        W 4379  14.983   3.247  13.590
39219W        W 4380   7.242  14.689   4.892
39220W        W 4381  39.284   8.255   3.298
39221W        W 4382  36.431   9.717   4.846
39222W        W 4383  15.419  21.486   2.878
39223W        W 4384  18.518  20.013   2.398
39224W        W 4385  42.205   5.070   4.599
39225W        W 4386  36.844  35.748   2.432
39226W        W 4387  17.015  38.238   9.804
39227W        W 4388  22.835  21.101  11.957
39228W        W 4389  15.834  38.012   0.429
39229W        W 4390   2.032   0.421   1.823
39230W        W 4391  44.515  23.192   0.651
39231W        W 4392   3.401  10.032  10.248
39232W        W 4393  24.561  32.066   3.875
39233W        W 4394   1.891  43.351   4.723
39234W        W 4395  18.618  38.891  12.915
39235W        W 4396   8.124  34.892  11.945
39236W        W 4397   9.615  11.802   0.829
39237W        W 4398  34.096  34.613  11.911
39238W        W 4399  32.980   6.637   0.368
39239W        W 4400  18.832   9.267   3.749
39240W        W 4401   3.401  28.351   2.104
39241W        W 4402  26.604  15.276   4.189
39242W        W 4403   9.688  36.340   2.700
39243W        W 4404  32.704  44.485  12.962
39244W        W 4405  10.076  42.680  14.217
39245W        W 4406  23.218  33.487   1.446
39246W        W 4407   7.947  40.493  11.372
39247W        W 4408  29.898  23.695   1.743
39248W        W 4409  41.995  29.876  13.994
39249W        W 4410  23.654  27.132   1.617
39250W        W 4411   7.627   8.091   4.066
39251W        W 4412  24.745  41.406   1.791
39252W        W 4413  34.984  31.076   4.255
39253W        W 4414  21.750  42.873   4.527
39254W        W 4415   8.491  21.506  13.434
39255W        W 4416  43.462  12.928   2.677
39256W        W 4417  32.464  39.929   5.610
39257W        W 4418  10.624   3.391   1.213
39258W        W 4419   0.416  19.220   2.825
39259W        W 4420  24.939   1.454  14.814
39260W        W 4421  13.279  13.332  10.630
39261W        W 4422  16.792   1.930   1.432
39262W        W 4423   7.180  25.112   2.818
39263W        W 4424  24.250  16.320  13.419
39264W        W 4425  33.872  14.300  10.976
39265W        W 4426  21.706  11.238  13.459
39266W        W 4427  13.069  11.193  12.932
39267W        W 4428  16.305  26.627   3.967
39268W        W 4429  42.272  30.284  13.821
39269W        W 4430   3.880  30.134   3.376
39270W        W 4431   1.439   7.886  12.073
39271W        W 4432  19.587   7.607   3.953
39272W        W 4433  34.749   0.290   3.448
39273W        W 4434   1.230  12.229   1.411
39274W        W 4435  34.189  38.866   0.485
39275W        W 4436  29.407  37.215  13.805
39276W        W 4437  10.127  12.343  12.786
39277W        W 4438  31.636  36.312   3.288
39278W        W 4439  37.445   5.961  13.637
39279W        W 4440  16.104  35.570   4.571
39280W        W 4441  28.546  19.221  10.633
39281W        W 4442  21.441  18.329  12.075
39282W        W 4443  43.586  28.471   4.180
39283W        W 4444   7.594   1.800   9.985
39284W        W 4445   9.916  15.591   1.721
39285W        W 4446  27.912   5.596  14.099
39286W        W 4447  10.545  34.963   1.414
39287W        W 4448   8.435  26.458  12.028
39288W        W 4449  28.189  11.732   1.813
39289W        W 4450  32.423  40.412   1.495
39290W        W 4451   9.407  22.257  14.718
39291W        W 4452  20.588  29.109   3.761
39292W        W 4453  35.663  12.037   4.625
39293W        W 4454  10.313  30.249  11.156
39294W        W 4455  14.230  26.143  13.632
39295W        W 4456  11.166  42.048  11.143
39296W        W 4457  39.899  32.200  13.321
39297W        W 4458  39.373  16.973  13.218
39298W        W 4459  41.838  16.274  11.501
39299W        W 4460  29.112  32.958   4.542
39300W        W 4461  13.584  23.142   4.623
39301W        W 4462   0.222  28.485  10.844
39302W        W 4463  38.548  13.673  11.965
39303W        W 4464   0.707  22.849   2.719
39304W        W 4465  41.757  10.782   1.830
39305W        W 4466   0.354  11.777  11.277
39306W        W 4467  35.086  35.984  12.467
39307W        W 4468   5.230  21.247  13.495
39308W        W 4469  41.442  21.465  11.946
39309W        W 4470  37.307   4.171  12.539
39310W        W 4471   0.518  12.659   1.763
39311W        W 4472  35.100  36.384   2.725
39312W        W 4473  28.245   8.304  10.420
39313W        W 4474   4.308  13.665   5.404
39314W        W 4475  38.935  27.580  12.465
39315W        W 4476  20.190   0.531   4.210
39316W        W 4477  26.123  23.638  10.665
39317W        W 4478  19.978   2.761  10.884
39318W        W 4479  14.796  42.059  11.514
39319W        W 4480  17.829  13.062  11.076
39320W        W 4481   6.520   2.533  12.729
39321W        W 4482  39.498   9.416  12.887
39322W        W 4483   9.933  38.660  10.254
39323W        W 4484  40.411  18.708   3.470
39324W        W 4485  29.409  13.150   3.772
39325W        W 4486  24.249  15.143   3.264
39326W        W 4487   4.202  39.320  10.671
39327W        W 4488   5.249  25.791   2.395
39328W        W 4489  26.027  41.920   0.804
39329W        W 4490  34.358  32.180   0.329
39330W        W 4491  15.831  16.555  14.298
39331W        W 4492  22.473  16.524  12.369
39332W        W 4493  27.200  19.732   3.307
39333W        W 4494   1.917  18.035   1.836
39334W        W 4495  12.692   1.420   1.768
39335W        W 4496  10.700  29.433  12.121
39336W        W 4497  15.252  35.650   3.312
39337W        W 4498  25.442  25.487  14.920
39338W        W 4499  18.163  43.113  14.195
39339W        W 4500  34.022  10.759  14.401
39340W        W 4501   8.323  17.028  14.303
39341W        W 4502  13.184   1.200   1.750
39342W        W 4503  12.327   3.772   4.632
39343W        W 4504  20.559  31.153   1.493
39344W        W 4505   4.248  17.519  12.258
39345W        W 4506  17.485   2.391  12.020
39346W        W 4507   9.040   5.157  11.086
39347W        W 4508   8.177  13.715   2.337
39348W        W 4509  11.817   0.556   0.795
39349W        W 4510  23.712   1.185   2.172
39350W        W 4511   7.995  37.876  12.016
39351W        W 4512   3.007  11.374  11.475
39352W        W 4513  13.809  25.665  10.683
39353W        W 4514  12.465  18.067  12.058
39354W        W 4515  30.745  24.590  10.431
39355W        W 4516  14.882  32.990  12.563
39356W        W 4517   0.276   2.432  10.622
39357W        W 4518  28.954  21.362  11.153
39358W        W 4519  34.993  11.111   3.762
39359W        W 4520   9.360   5.808   4.007
39360W        W 4521  42.795  21.509   2.487
39361W        W 4522  35.273   8.272  13.057
39362W        W 4523  31.169   2.413   0.456
39363W        W 4524   9.244  17.649   2.202
39364W        W 4525  18.373  43.758  12.258
39365W        W 4526  43.629   6.199  11.197
39366W        W 4527  23.040  35.123   4.031
39367W        W 4528  39.799  36.705   2.299
39368W        W 4529  29.125  38.822  10.609
39369W        W 4530   5.810  16.741  11.633
39370W        W 4531  19.276  39.508   5.452
39371W        W 4532  40.074  35.494  13.409
39372W        W 4533   3.283  38.018  11.029
39373W        W 4534  14.430  13.720  10.464
39374W        W 4535  19.304  12.700  11.452
39375W        W 4536  40.312  29.479   4.047
39376W        W 4537  20.118  28.489  11.574
39377W        W 4538   0.661  26.066   2.798
39378W        W 4539  20.841  34.527   3.613
39379W        W 4540   9.900  43.297   0.437
39380W        W 4541  17.443   0.714  11.685
39381W        W 4542  21.526  34.557  11.635
39382W        W 4543  36.001  29.206   1.673
39383W        W 4544  14.096   6.963  11.167
39384W        W 4545  25.930  16.556   3.661
39385W        W 4546   6.183  43.845   0.113
39386W        W 4547  19.259  14.822  14.727
39387W        W 4548  26.176  18.314   4.368
39388W        W 4549   2.882   6.290  14.016
39389W        W 4550   8.865  19.555   3.228
39390W        W 4551  23.099   3.732   2.362
39391W        W 4552  24.569   4.352  14.724
39392W        W 4553  30.505  41.447  12.185
39393W        W 4554   8.061  27.140   2.219
39394W        W 4555   1.186   7.776   4.384
39395W        W 4556  14.443   2.847  10.483
39396W        W 4557  37.088  16.750  12.623
39397W        W 4558  43.568  43.839  14.113
39398W        W 4559   3.731  38.295  11.209
39399W        W 4560  44.452  37.315   2.248
39400W        W 4561  35.403  20.952   3.183
39401W        W 4562  26.159  22.128   2.181
39402W        W 4563  24.063  24.959   1.625
39403W        W 4564  10.547  36.634   4.218
39404W        W 4565  44.785  11.293   2.258
39405W        W 4566  20.343   9.804   2.606
39406W        W 4567  16.513  38.102   1.394
39407W        W 4568  35.896  20.200   2.829
39408W        W 4569  20.005  38.256  12.567
39409W        W 4570  23.194  20.274  13.770
39410W        W 4571   2.459   8.696   0.435
39411W        W 4572  21.683   3.743  10.966
39412W        W 4573  15.375  44.895   0.954
39413W        W 4574  18.322  32.327   4.501
39414W        W 4575  32.980  24.656   2.726
39415W        W 4576  29.036  21.669  13.450
39416W        W 4577   3.721  35.477   0.295
39417W        W 4578  17.271   1.737   2.585
39418W        W 4579  16.628   7.663  14.023
39419W        W 4580  18.229  14.414   0.493
39420W        W 4581  32.427   8.727  13.333
39421W        W 4582   5.486   5.173   3.204
39422W        W 4583  30.754  17.808   2.409
39423W        W 4584  42.252  15.111   1.557
39424W        W 4585  30.062  16.784   3.824
39425W        W 4586  41.819  19.547   0.684
39426W        W 4587  23.642  30.678   2.787
39427W        W 4588  29.622  14.815  12.831
39428W        W 4589  34.508  14.820   1.323
39429W        W 4590  40.954  23.324   4.775
39430W        W 4591  25.448  25.041  12.113
39431W        W 4592  25.121   6.185   0.489
39432W        W 4593   8.829  32.129  13.424
39433W        W 4594   4.081  22.631  10.389
39434W        W 4595  20.155  44.870  10.595
39435W        W 4596  40.457  21.260   0.752
39436W        W 4597  37.789  20.750  10.841
39437W        W 4598  26.640   2.376  12.967
39438W        W 4599  33.766  31.069  11.195
39439W        W 4600   0.857   8.761   2.188
39440W        W 4601  43.999  24.714  13.980
39441W        W 4602  18.322  43.963   3.317
39442W        W 4603  26.843  25.464  11.510
39443W        W 4604   3.903  36.686   0.515
39444W        W 4605  44.023   9.178  14.073
39445W        W 4606  39.477  32.745  12.068
39446W        W 4607   2.250   2.534  13.921
39447W        W 4608  36.020  24.638   4.642
39448W        W 4609  42.965  17.463  13.642
39449W        W 4610  37.561  14.141   1.818
39450W        W 4611  39.030  44.800   0.359
39451W        W 4612   7.328  19.363  10.638
39452W        W 4613  31.879  31.197   2.211
39453W        W 4614  38.900  25.168  12.951
39454W        W 4615   8.862  26.669   1.908
39455W        W 4616  12.865  18.726  10.550
39456W        W 4617  19.795  14.240  14.269
39457W        W 4618  32.407   3.409   0.342
39458W        W 4619  39.421   2.037  10.739
39459W        W 4620  19.610  19.967   3.649
39460W        W 4621  25.233   5.793  13.445
39461W        W 4622  15.336  42.066   4.136
39462W        W 4623  16.303  25.758  10.721
39463W        W 4624  33.658  41.646   1.915
39464W        W 4625  14.908  14.771   4.827
39465W        W 4626  41.824  37.629  14.952
39466W        W 4627  21.525  10.585   2.445
39467W        W 4628  40.546  23.995  11.274
39468W        W 4629  29.535  44.442   1.394
39469W        W 4630   4.370  11.324  13.531
39470W        W 4631  23.731  13.117  13.049
39471W        W 4632   7.248  34.047  13.309
39472W        W 4633   1.202   3.807  13.341
39473W        W 4634  29.409  14.213   0.141
39474W        W 4635   5.362  17.591   1.537
39475W        W 4636   7.773  44.206   2.546
39476W        W 4637   8.696   1.816   1.441
39477W        W 4638   1.269  17.604   1.288
39478W        W 4639   3.868  18.691   3.155
39479W        W 4640   4.855  29.129   2.255
39480W        W 4641  28.922   9.704   1.684
39481W        W 4642  15.695  26.097  14.514
39482W        W 4643  15.856  31.595  11.269
39483W        W 4644   8.509  14.199  14.334
39484W        W 4645  23.067  38.850   3.141
39485W        W 4646   2.802  18.984   4.451
39486W        W 4647  18.656  33.598  10.240
39487W        W 4648  37.392  25.057   3.704
39488W        W 4649   7.232  20.184  11.122
39489W        W 4650  24.321  19.185  14.502
39490W        W 4651  21.713   5.049   1.978
39491W        W 4652   2.382  40.901   4.659
39492W        W 4653  28.098  33.139   0.726
39493W        W 4654   7.878  40.222   3.075
39494W        W 4655  31.506  43.201  13.702
39495W        W 4656   5.264  32.750  10.519
39496W        W 4657  22.865  27.388   4.842
39497W        W 4658  21.429  27.357  14.385
39498W        W 4659   4.752  22.537   0.040
39499W        W 4660  21.329  14.971  11.878
39500W        W 4661  40.499  19.125   3.788
39501W        W 4662  17.670   7.360  10.741
39502W        W 4663   2.265  31.125   2.776
39503W        W 4664  14.303   7.271  10.767
39504W        W 4665  29.081  15.330   2.050
39505W        W 4666  19.016  35.443  11.995
39506W        W 4667  39.947  24.784   2.286
39507W        W 4668   5.161  35.284   2.540
39508W        W 4669  13.055  17.240  13.355
39509W        W 4670  11.041   6.624  12.899
39510W        W 4671  44.505   5.793   0.569
39511W        W 4672  44.045   9.232   4.264
39512W        W 4673   5.973  32.274   3.158
39513W        W 4674  41.120  21.497  12.970
39514W        W 4675  36.141  37.052   2.199
39515W        W 4676  41.445  19.207  13.877
39516W        W 4677  15.729  35.476  11.248
39517W        W 4678  12.002   0.783   1.226
39518W        W 4679  22.980  38.780  10.342
39519W        W 4680   4.320  30.914   0.552
39520W        W 4681  13.700   5.650  10.959
39521W        W 4682   1.269  14.587  14.371
39522W        W 4683  26.891  35.058   1.329
39523W        W 4684   0.112   9.174   1.921
39524W        W 4685  11.141  30.446   1.232
39525W        W 4686  35.697  37.840  14.121
39526W        W 4687  38.985  27.052  12.534
39527W        W 4688  18.737  22.120  12.851
39528W        W 4689  11.889  17.073   1.378
39529W        W 4690  22.494   4.230  13.874
39530W        W 4691  10.205  33.285   2.347
39531W        W 4692  43.751   1.860  11.187
39532W        W 4693  29.675  43.073  13.307
39533W        W 4694  39.853  11.332  12.258
39534W        W 4695   6.836  10.356  14.372
39535W        W 4696  27.619  42.611   0.379
39536W        W 4697  22.555   8.132  11.514
39537W        W 4698  44.309  36.903   3.893
39538W        W 4699  11.199  20.535  12.146
39539W        W 4700  34.662   9.810  13.886
39540W        W 4701  17.185  26.049   1.824
39541W        W 4702   9.781  18.930   2.037
39542W        W 4703  36.458  21.522  14.216
39543W        W 4704  31.219  16.896  12.389
39544W        W 4705   8.227  20.033  13.649
39545W        W 4706   9.185  26.709   2.368
39546W        W 4707  25.325  19.655   4.775
39547W        W 4708  38.477   9.263   2.920
39548W        W 4709  42.802  42.298  10.956
39549W        W 4710   4.367  27.944  14.027
39550W        W 4711  21.460  37.235   0.233
39551W        W 4712  33.927  17.277  12.802
39552W        W 4713  26.216  31.539   0.389
39553W        W 4714  41.539  29.066  12.929
39554W        W 4715   8.881  29.001  11.626
39555W        W 4716  30.556  36.176   2.819
39556W        W 4717  22.105  21.180  13.381
39557W        W 4718   9.370   7.973   4.813
39558W        W 4719  11.980   6.201   0.851
39559W        W 4720   2.981   7.501  11.712
39560W        W 4721  18.307   3.784   3.681
39561W        W 4722   0.737   7.414   1.779
39562W        W 4723  18.107  26.966  10.664
39563W        W 4724  30.037   3.226   2.835
39564W        W 4725  13.744   5.602   3.317
39565W        W 4726  23.605  21.265  12.426
39566W        W 4727   0.408  34.611  14.432
39567W        W 4728   2.664  24.759   2.305
39568W        W 4729  15.598  20.181   3.127
39569W        W 4730  19.141  22.159  10.418
39570W        W 4731  21.565  25.581   3.722
39571W        W 4732  43.303  35.770  11.686
39572W        W 4733   1.057  38.780   3.219
39573W        W 4734  16.181  29.583   2.242
39574W        W 4735  41.381  40.293   2.289
39575W        W 4736   9.299  28.921   1.999
39576W        W 4737  40.037  13.289  12.982
39577W        W 4738  26.980  40.358   3.242
39578W        W 4739  15.707  14.616  10.861
39579W        W 4740  43.033  30.541  12.871
39580W        W 4741  29.511  27.428  12.780
39581W        W 4742  13.382  33.066  11.447
39582W        W 4743  38.837  36.443  11.007
39583W        W 4744  38.847  13.659  12.912
39584W        W 4745  28.065   0.238   4.336
39585W        W 4746   3.971  24.212  13.994
39586W        W 4747  16.238  44.692   5.293
39587W        W 4748  23.476  12.653  14.899
39588W        W 4749  14.511  41.505  13.136
39589W        W 4750  17.545  24.602  13.046
39590W        W 4751   9.151  31.179   0.007
39591W        W 4752  14.149  44.511   3.181
39592W        W 4753  12.823  12.377   2.720
39593W        W 4754   9.553   1.348   2.264
39594W        W 4755  14.338  15.854  14.976
39595W        W 4756   7.024  21.741  13.193
39596W        W 4757   1.654  32.112   1.580
39597W        W 4758  17.928  29.496   3.377
39598W        W 4759  17.787  36.946  11.011
39599W        W 4760  34.130  14.690  14.985
39600W        W 4761  41.445  18.270   0.935
39601W        W 4762  21.959  19.632   2.252
39602W        W 4763   6.174  19.293  11.947
39603W        W 4764  16.315  20.660   4.166
39604W        W 4765   0.244   4.474  11.002
39605W        W 4766   5.344  36.019  13.007
39606W        W 4767  20.124  14.532   4.548
39607W        W 4768  28.064  33.039   5.166
39608W        W 4769  24.038  44.374   1.369
39609W        W 4770   8.427  17.888  13.080
39610W        W 4771  24.465  35.999   2.729
39611W        W 4772  18.570  29.118  11.955
39612W        W 4773  14.440   4.310  12.878
39613W        W 4774  20.509   2.539  12.242
39614W        W 4775   0.843   1.140  14.498
39615W        W 4776  29.033  13.806  12.612
39616W        W 4777  41.695  43.723  12.600
39617W        W 4778  22.552  39.290   0.349
39618W        W 4779  10.773   6.912   4.341
39619W        W 4780  37.115  26.999  14.059
39620W        W 4781   4.071   1.231   0.475
39621W        W 4782  29.069  15.821  10.531
39622W        W 4783   1.301  10.934  13.514
39623W        W 4784  22.690  28.578  12.160
39624W        W 4785   5.227   3.392   4.137
39625W        W 4786  41.753  27.498  13.215
39626W        W 4787  15.070  40.995  11.265
39627W        W 4788  37.859  36.464   0.273
39628W        W 4789   4.933  19.205   3.746
39629W        W 4790  27.640  22.170  12.223
39630W        W 4791  36.112  19.032   3.308
39631W        W 4792   2.809   2.149   3.791
39632W        W 4793  16.100  25.157  14.438
39633W        W 4794  27.477  24.649  13.915
39634W        W 4795  43.781  15.712   2.839
39635W        W 4796   0.131  34.902   4.829
39636W        W 4797  33.775  35.055  12.036
39637W        W 4798  30.643  44.172   0.759
39638W        W 4799  16.786  24.368   4.017
39639W        W 4800  31.328  17.882   0.021
39640W        W 4801  21.354   8.699  11.654
39641W        W 4802  13.610  35.117  12.893
39642W        W 4803   4.800  30.448  14.608
39643W        W 4804  33.873  23.250   4.840
39644W        W 4805  19.967   3.988  14.267
39645W        W 4806  19.547   4.431  12.009
39646W        W 4807  36.493  29.719  11.107
39647W        W 4808  14.605   9.413   2.125
39648W        W 4809  22.542  19.166  14.749
39649W        W 4810  38.038  43.483   3.730
39650W        W 4811   1.492  25.974   1.345
39651W        W 4812  38.977   7.359   2.845
39652W        W 4813  21.697   9.299  10.910
39653W        W 4814  29.536  17.180  13.244
39654W        W 4815  23.006   5.917  13.042
39655W        W 4816  18.189  31.795   1.284
39656W        W 4817  26.571  15.798   0.958
39657W        W 4818  12.290  17.263  13.728
39658W        W 4819  21.666  16.055  13.599
39659W        W 4820  37.160  43.951   2.813
39660W        W 4821  22.020   9.079  11.220
39661W        W 4822  18.773  38.379   3.739
39662W        W 4823  24.000  28.007   4.351
39663W        W 4824  17.103   6.939  13.864
39664W        W 4825   5.591  31.486  13.431
39665W        W 4826  35.946  16.861  14.915
39666W        W 4827  24.607  40.901  14.997
39667W        W 4828  12.901  20.122   4.143
39668W        W 4829   8.666   1.068   4.979
39669W        W 4830   6.270   8.873   4.309
39670W        W 4831  18.091  21.763   2.215
39671W        W 4832   1.050  39.340   0.377
39672W        W 4833  30.499   9.374  11.200
39673W        W 4834  40.978   0.527   3.260
39674W        W 4835  24.800  31.308   3.143
39675W        W 4836   5.456   9.735  13.330
39676W        W 4837   0.887  17.573  12.168
39677W        W 4838  15.595  13.611   4.532
39678W        W 4839  17.303  23.733  13.422
39679W        W 4840  33.279  43.277  10.989
39680W        W 4841   5.454  42.627  12.417
39681W        W 4842  15.979  17.459   4.200
39682W        W 4843  20.074  32.198   3.227
39683W        W 4844   0.290   5.386  14.109
39684W        W 4845  31.008  18.900   0.273
39685W        W 4846  36.463  31.044   2.936
39686W        W 4847   7.584  27.245  11.149
39687W        W 4848  43.106  37.405   0.294
39688W        W 4849  20.092  19.634   4.559
39689W        W 4850  37.796  28.936  12.016
39690W        W 4851  21.518  16.257  13.154
39691W        W 4852  34.674  39.905   0.341
39692W        W 4853  35.787  14.027   1.489
39693W        W 4854  41.077  11.522  12.117
39694W        W 4855  15.642   9.579   3.236
39695W        W 4856   3.720  16.103  13.124
39696W        W 4857  11.205  21.855  13.887
39697W        W 4858  30.126  42.591  11.060
39698W        W 4859   1.721   4.827   4.154
39699W        W 4860  11.610  35.564  11.390
39700W        W 4861   4.759  34.901  13.877
39701W        W 4862   7.675  41.869  12.611
39702W        W 4863  20.425  17.427   0.407
39703W        W 4864   7.845   7.244  14.430
39704W        W 4865  44.230   3.340   1.397
39705W        W 4866  30.502  27.032  13.261
39706W        W 4867  37.817  32.650  11.673
39707W        W 4868  44.468  20.110  12.923
39708W        W 4869   6.815  20.534  11.894
39709W        W 4870  13.580  19.686  11.643
39710W        W 4871  36.991   7.642   3.711
39711W        W 4872  18.267  23.225   1.968
39712W        W 4873   2.211  39.404   2.620
39713W        W 4874   9.322  30.706   9.830
39714W        W 4875  40.849   6.903   1.651
39715W        W 4876   7.403  13.358  13.065
39716W        W 4877  22.029  12.293  11.425
39717W        W 4878  35.190  23.427   3.680
39718W        W 4879  36.143   5.209   0.763
39719W        W 4880   2.938  35.098   0.208
39720W        W 4881  31.124  42.273   4.496
39721W        W 4882   1.158   6.937   3.346
39722W        W 4883  31.303  26.490  12.430
39723W        W 4884  16.339  18.147   5.510
39724W        W 4885  24.640  30.671   3.651
39725W        W 4886  20.301  16.373   2.067
39726W        W 4887  19.667  40.764  11.677
39727W        W 4888   4.254  27.048  12.975
39728W        W 4889  26.477  32.953   3.192
39729W        W 4890  20.079  32.219  12.208
39730W        W 4891  14.000  14.346  14.488
39731W        W 4892  35.839  27.444   2.289
39732W        W 4893   6.328   3.353  11.151
39733W        W 4894  42.039  23.140   1.736
39734W        W 4895  19.988   7.464  10.278
39735W        W 4896  42.441   3.675   2.181
39736W        W 4897   7.216  33.622   3.085
39737W        W 4898  29.168   2.888  12.558
39738W        W 4899   2.556   2.755   0.248
39739W        W 4900   4.299  41.013   4.305
39740W        W 4901  41.391  20.883  11.219
39741W        W 4902  19.789  31.386   4.639
39742W        W 4903  18.164  33.584   1.716
39743W        W 4904  44.052   1.302   0.400
39744W        W 4905  15.245  26.202   3.181
39745W        W 4906  41.865  36.521  14.171
39746W        W 4907   2.636   8.035   1.900
39747W        W 4908  38.269  31.661  12.423
39748W        W 4909  34.417  17.129   4.603
39749W        W 4910  22.404  19.117  10.272
39750W        W 4911  26.929   2.406  11.587
39751W        W 4912  35.826  24.062   3.698
39752W        W 4913  14.346   8.439   1.294
39753W        W 4914  21.564  40.347   0.879
39754W        W 4915  24.002  12.485  10.537
39755W        W 4916  35.036  23.743  14.685
39756W        W 4917   8.227  28.235  10.777
39757W        W 4918  19.084  35.944   3.233
39758W        W 4919  25.873   1.752  11.055
39759W        W 4920  28.483   2.136   3.616
39760W        W 4921  19.313  24.512  14.424
39761W        W 4922   1.100  28.238  10.401
39762W        W 4923  37.631  22.888  13.463
39763W        W 4924  27.733  28.055  14.440
39764W        W 4925   6.762  16.612  11.444
39765W        W 4926  20.607  20.991   2.256
39766W        W 4927   7.152   6.905  12.468
39767W        W 4928  40.810  44.205  11.443
39768W        W 4929   1.056  16.581   4.284
39769W        W 4930  18.471  42.764   2.470
39770W        W 4931  27.050  31.094   4.526
39771W        W 4932  39.972  35.385  11.595
39772W        W 4933  21.977  20.363  10.736
39773W        W 4934   0.210  36.858   1.246
39774W        W 4935  14.724  32.181  13.916
39775W        W 4936  43.912  16.053  14.418
39776W        W 4937  24.101  25.480   1.744
39777W        W 4938  38.365   3.155   4.129
39778W        W 4939  40.416  44.957  12.990
39779W        W 4940  12.638  44.895  11.516
39780W        W 4941   2.738  31.612  14.212
39781W        W 4942  38.476  23.496   0.717
39782W        W 4943   7.724   5.769   3.837
39783W        W 4944  41.429  37.451   4.987
39784W        W 4945  33.727   2.002  11.606
39785W        W 4946  22.944  42.555  13.896
39786W        W 4947  24.966  37.949   1.299
39787W        W 4948  20.555  27.739  11.908
39788W        W 4949  11.706  34.479  14.936
39789W        W 4950  34.904  42.691  14.606
39790W        W 4951  15.395   9.743   4.121
39791W        W 4952  16.990  28.623  11.412
39792W        W 4953  44.174  31.115   3.683
39793W        W 4954  22.236  15.607  10.665
39794W        W 4955  43.443  27.160  11.378
39795W        W 4956  39.027  21.542   1.805
39796W        W 4957  33.461   6.883   1.319
39797W        W 4958   7.216  41.112  10.665
39798W        W 4959   6.023  13.637   2.936
39799W        W 4960  25.489  41.027   3.235
39800W        W 4961  35.436  23.475  12.374
39801W        W 4962  12.193   9.340   0.990
39802W        W 4963   3.820  27.685   3.704
39803W        W 4964   8.869  39.759  11.993
39804W        W 4965   2.208  26.812   4.925
39805W        W 4966  17.507  22.689  14.975
39806W        W 4967  41.101   5.699   2.232
39807W        W 4968  26.154  23.954   3.255
39808W        W 4969  22.592   0.251   2.495
39809W        W 4970  26.300  14.310  10.649
39810W        W 4971  14.742  43.946  11.160
39811W        W 4972  23.597  44.776   4.523
39812W        W 4973  26.419  37.324   4.106
39813W        W 4974  33.304  25.487   2.816
39814W        W 4975  38.027   5.930  10.962
39815W        W 4976  28.072   4.684   2.329
39816W        W 4977  13.657  39.530   9.847
39817W        W 4978  18.650  32.060   1.123
39818W        W 4979  27.971  35.935   3.134
39819W        W 4980  12.849  20.120  14.181
39820W        W 4981  39.628   7.700  11.958
39821W        W 4982  40.957  40.993   3.651
39822W        W 4983   7.609   8.076  11.721
39823W        W 4984  19.608  41.765   0.798
39824W        W 4985  26.157  38.439  14.785
39825W        W 4986  34.894   6.233  13.477
39826W        W 4987  41.465  11.128   1.475
39827W        W 4988  11.299  32.622  13.106
39828W        W 4989  24.276  30.912  11.143
39829W        W 4990  30.723  23.995  11.528
39830W        W 4991  14.615  27.212   4.532
39831W        W 4992  39.460  44.451   2.703
39832W        W 4993   8.675  11.028   4.481
39833W        W 4994  19.329  31.126   4.605
39834W        W 4995  36.071  41.321  14.874
39835W        W 4996   4.229  44.338   0.390
39836W        W 4997  41.474  18.881   0.220
39837W        W 4998   3.727   7.380  13.595
39838W        W 4999  34.577  11.281  11.191
39839W        W 5000   9.794  18.085   4.071
39840W        W 5001  34.892  29.430  14.376
39841W        W 5002  36.911  28.688   4.214
39842W        W 5003   6.917   8.603  12.043
39843W        W 5004  17.045  25.172  12.479
39844W        W 5005  30.830   7.759   4.915
39845W        W 5006  36.857  33.778   1.304
39846W        W 5007  29.968  25.653  12.576
39847W        W 5008  23.463  19.040  14.840
39848W        W 5009  26.061   2.720   2.228
39849W        W 5010  25.545  31.795   4.657
39850W        W 5011   1.535  33.636  10.709
39851W        W 5012  36.209  24.719  13.486
39852W        W 5013  34.050  36.780   2.255
39853W        W 5014  12.580   9.761   3.161
39854W        W 5015  33.400   2.293  13.138
39855W        W 5016  27.345  19.010   4.299
39856W        W 5017   2.355  43.324   0.963
39857W        W 5018   9.615  43.303  10.939
39858W        W 5019   2.030  13.646   0.247
39859W        W 5020  14.271  15.058   1.463
39860W        W 5021  13.624   3.252   0.874
39861W        W 5022  30.128  43.512  13.629
39862W        W 5023  39.031   5.704  14.568
39863W        W 5024  10.608  37.448  11.140
39864W        W 5025  25.729  44.393  12.559
39865W        W 5026  34.753   4.881   0.782
39866W        W 5027   1.545  31.967  10.958
39867W        W 5028  20.238  24.458  13.626
39868W        W 5029  19.040  22.589  11.217
39869W        W 5030  11.720  36.538  12.625
39870W        W 5031  16.264  17.366  10.059
39871W        W 5032  42.314  19.944   4.624
39872W        W 5033  26.543  35.862   1.168
39873W        W 5034   4.799  10.005   1.383
39874W        W 5035  37.072  40.382  13.300
39875W        W 5036  33.066  44.437   1.863
39876W        W 5037  22.223  33.134   0.848
39877W        W 5038   8.317  36.042  11.288
39878W        W 5039  27.418  21.889  13.056
39879W        W 5040   0.137   3.361  11.040
39880W        W 5041   1.654   7.659   4.588
39881W        W 5042  36.290  44.890  10.739
39882W        W 5043   5.203  40.402   2.320
39883W        W 5044  35.088  19.700   0.312
39884W        W 5045  29.471  37.664   1.301
39885W        W 5046  17.574  20.882  14.452
39886W        W 5047  32.440  30.168   1.713
39887W        W 5048  44.411  33.599  10.416
39888W        W 5049  30.932  15.335  11.576
39889W        W 5050  21.615  42.693   1.144
39890W        W 5051  26.750   1.445  14.272
39891W        W 5052  26.143   5.725  12.365
39892W        W 5053  33.370  25.741  14.468
39893W        W 5054  43.473   4.762   2.137
39894W        W 5055  12.231  43.864   3.320
39895W        W 5056  24.266   0.239  10.855
39896W        W 5057   6.146  11.758  12.433
39897W        W 5058  24.238  40.200  10.730
39898W        W 5059  31.238  18.986   2.817
39899W        W 5060  28.363  17.593  11.600
39900W        W 5061  18.270   6.163   1.963
39901W        W 5062  23.253   0.279  14.953
39902W        W 5063  40.342  30.353  12.040
39903W        W 5064  37.261  25.070   2.761
39904W        W 5065  14.197   4.472   1.774
39905W        W 5066   2.482  29.608  12.037
39906W        W 5067  38.320  34.958  13.566
39907W        W 5068   2.353   9.714  11.691
39908W        W 5069  32.749  31.348   0.776
39909W        W 5070  40.051   0.141   1.376
39910W        W 5071  41.776  11.793   1.706
39911W        W 5072  26.033  40.970  12.928
39912W        W 5073  31.346   7.097   1.919
39913W        W 5074  23.739  24.687   5.060
39914W        W 5075  40.003  14.224   4.106
39915W        W 5076  21.261  33.261   0.886
39916W        W 5077  19.394  29.418   2.291
39917W        W 5078  36.666   5.814  13.472
39918W        W 5079   1.489  38.985   3.013
39919W        W 5080   3.158  34.146  12.014
39920W        W 5081  26.661  35.669  12.023
39921W        W 5082  15.858  26.291   5.007
39922W        W 5083  12.342  13.198  14.951
39923W        W 5084  41.543  31.053  14.403
39924W        W 5085  14.614  42.532  13.575
39925W        W 5086   6.956  35.884  13.211
39926W        W 5087   5.471  38.353   3.357
39927W        W 5088   8.367  28.573  13.368
39928W        W 5089  13.222   0.440  11.159
39929W        W 5090  39.559  13.990   4.025
39930W        W 5091  18.130  15.539  12.962
39931W        W 5092  13.877  12.767  11.172
39932W        W 5093  25.685   7.177   2.713
39933W        W 5094   4.831  32.503  10.418
39934W        W 5095  29.882  25.229  12.325
39935W        W 5096  26.169  38.230   1.871
39936W        W 5097   9.231  17.027   1.374
39937W        W 5098  25.728  16.545  10.619
39938W        W 5099  33.849  44.759  14.439
39939W        W 5100  11.897  25.195   3.276
39940W        W 5101  33.989   0.680  12.421
39941W        W 5102   0.906  16.294   2.191
39942W        W 5103   7.211  24.775   4.728
39943W        W 5104  24.577  27.689  11.138
39944W        W 5105  43.424   2.296  13.734
39945W        W 5106  30.082  35.506   3.349
39946W        W 5107  28.917   0.543  12.534
39947W        W 5108  19.739   7.218   1.364
39948W        W 5109  22.206   2.322  14.759
39949W        W 5110  16.886  10.356   0.777
39950W        W 5111  23.157  22.715   0.874
39951W        W 5112  10.550   3.981  12.115
39952W        W 5113  38.884  40.785   1.352
39953W        W 5114  33.681  18.106   3.730
39954W        W 5115  18.687   7.514  12.365
39955W        W 5116   9.552   2.599   4.022
39956W        W 5117  21.000   6.116  13.904
39957W        W 5118  21.486   9.135  10.470
39958W        W 5119  35.908   8.859   1.956
39959W        W 5120  31.570  22.553  12.197
39960W        W 5121  31.106   9.338  10.623
39961W        W 5122  25.622  25.007  14.832
39962W        W 5123   2.716  42.389  13.356
39963W        W 5124  27.246  27.868  11.502
39964W        W 5125  39.311  37.990   2.528
39965W        W 5126  38.645   4.703  13.497
39966W        W 5127   0.171  10.059   4.080
39967W        W 5128   1.186  31.576   2.402
39968W        W 5129   9.680  11.282   2.758
39969W        W 5130  43.009  14.038  11.805
39970W        W 5131   7.238  38.899   0.245
39971W        W 5132  33.250  13.286   3.212
39972W        W 5133   7.067  31.326  13.550
39973W        W 5134  26.576  43.541  13.777
39974W        W 5135  27.094  31.057   3.550
39975W        W 5136  31.060  35.319  12.580
39976W        W 5137  11.034  17.137   1.988
39977W        W 5138  13.946  19.157  12.937
39978W        W 5139  26.359  23.453   0.331
39979W        W 5140  29.936  30.077  13.903
39980W        W 5141  32.923  36.570  14.055
39981W        W 5142  42.846  33.829   0.099
39982W        W 5143  36.006  25.521  11.132
39983W        W 5144  43.858  13.141   4.223
39984W        W 5145  25.866  14.367   1.439
39985W        W 5146  36.063  22.657   3.716
39986W        W 5147  19.234  30.141   0.910
39987W        W 5148  43.750  43.572  14.886
39988W        W 5149  43.761   7.418   1.186
39989W        W 5150  23.737  35.037  11.579
39990W        W 5151  11.853  43.930   2.427
39991W        W 5152   6.416  27.219   1.080
39992W        W 5153  44.847  14.170  11.743
39993W        W 5154  19.070  20.806  13.913
39994W        W 5155  11.228   8.503   4.159
39995W        W 5156  15.401  18.146  10.575
39996W        W 5157  38.782  35.329   0.376
39997W        W 5158  32.884  35.789   5.107
39998W        W 5159   1.303  31.443   1.017
39999W        W 5160  41.865   8.460  14.933
40000W        W 5161  42.571  12.918   1.969
40001W        W 5162  39.843  30.898  11.958
40002W        W 5163  41.975  17.825   2.180
40003W        W 5164  32.955  32.217  13.849
40004W        W 5165   9.258  16.019   1.458
40005W        W 5166  30.629   9.553  13.694
40006W        W 5167  29.129  15.537   1.192
40007W        W 5168  42.775   9.646  14.820
40008W        W 5169  34.269  43.469  11.114
40009W        W 5170  19.824  27.253  13.458
40010W        W 5171  10.850   2.466   1.306
40011W        W 5172  33.352  17.327   1.406
40012W        W 5173  35.830  18.300   1.799
40013W        W 5174  19.722  12.135   0.422
40014W        W 5175   5.457  15.529  10.968
40015W        W 5176  30.048  32.553  12.129
40016W        W 5177  31.694  13.870   2.803
40017W        W 5178  29.559  16.765   0.329
40018W        W 5179  34.946  24.045   1.698
40019W        W 5180  37.927   6.262   4.162
40020W        W 5181  43.970  14.807   2.776
40021W        W 5182  38.882  25.731   2.821
40022W        W 5183   7.311  25.615  12.979
40023W        W 5184  26.858  27.173   1.732
40024W        W 5185  38.413  13.307  10.505
40025W        W 5186  20.678  16.452   3.231
40026W        W 5187  24.267  20.491   2.721
40027W        W 5188   9.633  18.094  10.928
40028W        W 5189  31.992  33.554  11.649
40029W        W 5190  44.755   1.960  14.359
40030W        W 5191   3.330  15.267  12.354
40031W        W 5192  22.907  21.155   2.264
40032W        W 5193  36.042  26.665  11.086
40033W        W 5194  39.273  28.953   1.858
40034W        W 5195  14.412  16.319  13.991
40035W        W 5196  36.013  42.017  11.146
40036W        W 5197  23.206  29.478  12.404
40037W        W 5198  32.232  34.608  12.655
40038W        W 5199  15.348  28.997  14.821
40039W        W 5200  36.933  17.295  11.608
40040W        W 5201   2.549  30.346   3.756
40041W        W 5202   0.272  43.180   1.311
40042W        W 5203  41.887  12.185  11.635
40043W        W 5204  33.298  41.029  14.949
40044W        W 5205  15.810  42.530  12.053
40045W        W 5206  33.170  28.272   1.732
40046W        W 5207  16.442  19.311  14.800
40047W        W 5208  16.517  24.201  11.557
40048W        W 5209  11.620  31.914   4.219
40049W        W 5210  19.478  24.960  12.018
40050W        W 5211   9.803  15.260  13.835
40051W        W 5212  26.267  10.755  13.928
40052W        W 5213  30.588  17.084  14.789
40053W        W 5214   3.632  43.478   0.442
40054W        W 5215  18.995  39.305  13.012
40055W        W 5216  29.130  21.278   2.607
40056W        W 5217  28.480   6.817   3.718
40057W        W 5218  13.526   1.478   2.060
40058W        W 5219  15.474  41.456  13.971
40059W        W 5220  25.129   0.682  14.479
40060W        W 5221  22.267  22.925   0.561
40061W        W 5222  24.015  31.115  12.997
40062W        W 5223  18.604   4.964  11.650
40063W        W 5224  18.617  35.540   3.845
40064W        W 5225  43.487   3.398  13.003
40065W        W 5226  39.224  43.250  14.291
40066W        W 5227   6.774   1.162   3.746
40067W        W 5228  11.578   3.774   0.035
40068W        W 5229  41.412  24.162  14.412
40069W        W 5230   3.701  36.694  12.326
40070W        W 5231  29.042  32.373   2.200
40071W        W 5232  12.694  38.046   0.576
40072W        W 5233   3.212  15.736  11.055
40073W        W 5234  28.701   3.647   1.011
40074W        W 5235   0.780  24.915   0.233
40075W        W 5236  40.019   1.945  14.035
40076W        W 5237  13.571  39.073  14.109
40077W        W 5238   0.172  32.638  11.115
40078W        W 5239  21.949  34.795  14.745
40079W        W 5240   1.835   3.664   2.929
40080W        W 5241  19.649  23.969  12.088
40081W        W 5242  35.913  26.367   0.498
40082W        W 5243  40.755   6.733  12.026
40083W        W 5244  23.744  43.285   2.762
40084W        W 5245   0.162  12.202   3.501
40085W        W 5246   6.824   2.166  12.557
40086W        W 5247  10.882   5.799   1.710
40087W        W 5248  42.794   5.230  14.364
40088W        W 5249  12.234  32.666   4.065
40089W        W 5250   0.784  37.951   2.703
40090W        W 5251   8.952  15.723  11.983
40091W        W 5252  28.272  19.708  11.945
40092W        W 5253  16.282  34.876  11.755
40093W        W 5254   2.358  39.385   0.084
40094W        W 5255  19.477  32.222  12.089
40095W        W 5256  30.128   3.729  14.032
40096W        W 5257  37.328  44.230  11.080
40097W        W 5258  18.685  23.217   0.271
40098W        W 5259   2.467   4.725   1.895
40099W        W 5260  30.236  25.500  13.476
40100W        W 5261  16.534  20.513  10.653
40101W        W 5262  39.943  37.298  11.425
40102W        W 5263  35.618   7.129  11.372
40103W        W 5264  26.447  42.289  11.286
40104W        W 5265  30.057  13.037   1.647
40105W        W 5266  22.230  32.656   4.310
40106W        W 5267  38.873   4.248  13.622
40107W        W 5268  42.488  11.749   3.355
40108W        W 5269  12.731  26.146   1.394
40109W        W 5270  13.269  22.498   1.233
40110W        W 5271  18.287   8.837   4.162
40111W        W 5272  10.873  25.189   0.753
40112W        W 5273  19.647   2.137  12.607
40113W        W 5274  37.056  24.658   4.571
40114W        W 5275  18.720  42.848   3.775
40115W        W 5276  24.705  19.026   4.104
40116W        W 5277  42.745   8.749   4.379
40117W        W 5278  16.725  10.834  10.706
40118W        W 5279  43.323  25.719   1.869
40119W        W 5280  34.005   8.454   1.997
40120W        W 5281  44.712  44.834  12.690
40121W        W 5282  28.107  17.883   2.192
40122W        W 5283  43.904  26.162  11.853
40123W        W 5284   2.847  16.307   0.345
40124W        W 5285  16.790  34.426  13.976
40125W        W 5286   7.732  19.442  14.631
40126W        W 5287  17.078  18.221  13.180
40127W        W 5288  21.599  37.131  12.451
40128W        W 5289  12.376  13.773  11.565
40129W        W 5290   0.353  25.026   1.240
40130W        W 5291  17.026  29.880  12.606
40131W        W 5292  18.955   8.772   0.729
40132W        W 5293  41.423  37.933   4.785
40133W        W 5294  31.555   4.836  13.497
40134W        W 5295  20.382  16.794   1.282
40135W        W 5296  35.060  34.488  13.213
40136W        W 5297  41.526  32.132   3.110
40137W        W 5298  42.898  23.788  13.305
40138W        W 5299  23.901  19.779   1.395
40139W        W 5300  37.762  44.482  11.497
40140W        W 5301   7.142  30.231  11.672
40141W        W 5302  31.623  20.026   5.024
40142W        W 5303   9.329  16.531   3.667
40143W        W 5304  12.265   4.633   4.115
40144W        W 5305  22.195  20.741  13.649
40145W        W 5306   5.305   8.460   3.178
40146W        W 5307  11.561   5.751  11.321
40147W        W 5308  24.558  36.511  11.725
40148W        W 5309  30.141  44.225  11.918
40149W        W 5310  39.782   0.810  11.950
40150W        W 5311  31.369  38.488  12.051
40151W        W 5312   7.727  36.010  11.969
40152W        W 5313  19.448   2.322  14.901
40153W        W 5314   2.852  30.410   0.012
40154W        W 5315  25.398   1.261   0.723
40155W        W 5316   5.940  37.344   0.907
40156W        W 5317  40.927  33.102  11.621
40157W        W 5318  36.440  34.394   4.245
40158W        W 5319  37.736  33.340  12.433
40159W        W 5320  16.705  22.676   4.678
40160W        W 5321   2.457  11.019   3.090
40161W        W 5322  28.090  28.931   3.389
40162W        W 5323  38.706  25.976   4.125
40163W        W 5324  33.939  18.320   2.398
40164W        W 5325  38.486  34.588  13.862
40165W        W 5326  39.528  27.327  14.638
40166W        W 5327  17.568  24.061   2.752
40167W        W 5328  26.068   2.471  13.743
40168W        W 5329  22.634   9.171  11.775
40169W        W 5330  43.266   1.071   2.823
40170W        W 5331   0.370  25.291   2.308
40171W        W 5332  31.104  24.593   3.625
40172W        W 5333  22.836  24.950   5.339
40173W        W 5334   1.770  29.319   0.370
40174W        W 5335   9.263   1.228  11.953
40175W        W 5336  10.130   6.659  10.733
40176W        W 5337  42.890  24.272  13.407
40177W        W 5338  19.001  43.520  14.059
40178W        W 5339  14.686   0.507  12.021
40179W        W 5340   8.877  10.149  10.665
40180W        W 5341   3.752  25.993  13.085
40181W        W 5342  30.046  42.481  13.457
40182W        W 5343  40.520  34.310  13.072
40183W        W 5344   6.569   4.835  11.559
40184W        W 5345  17.733  43.183   9.775
40185W        W 5346   9.719  23.683   2.869
40186W        W 5347  12.370  39.351   1.281
40187W        W 5348  11.628  31.299  13.413
40188W        W 5349  15.824   4.671   1.815
40189W        W 5350  12.628  22.858  13.421
40190W        W 5351  28.376  42.818   0.498
40191W        W 5352  24.927  25.573  12.569
40192W        W 5353  37.476  19.626   0.484
40193W        W 5354   6.274  30.033   2.794
40194W        W 5355  19.070  44.314  11.413
40195W        W 5356  16.552  25.550   2.699
40196W        W 5357  28.377  42.396  11.817
40197W        W 5358  12.820   0.374   1.502
40198W        W 5359   2.423  34.340   9.332
40199W        W 5360  37.723  16.329  13.948
40200W        W 5361  26.467  33.443  14.981
40201W        W 5362  20.946  39.766   2.712
40202W        W 5363  15.344   0.845   2.036
40203W        W 5364   2.473  41.785   4.361
40204W        W 5365  10.160  15.339   4.515
40205W        W 5366  23.421  39.026   3.494
40206W        W 5367  14.074  41.363  12.351
40207W        W 5368  29.221   2.981   1.348
40208W        W 5369  19.040  20.680   1.905
40209W        W 5370  19.970   0.886  10.539
40210W        W 5371  19.068  13.485  11.644
40211W        W 5372  21.193  18.012   2.378
40212W        W 5373  23.894  23.672   4.940
40213W        W 5374  24.812  34.528  12.650
40214W        W 5375  44.897  27.202   1.724
40215W        W 5376  23.114  32.594   4.232
40216W        W 5377  10.346  43.284   4.384
40217W        W 5378  33.417  27.193   2.362
40218W        W 5379  25.358  17.214   4.133
40219W        W 5380  22.122  29.664   3.770
40220W        W 5381  33.884  39.460   2.088
40221W        W 5382  33.433  27.706   2.333
40222W        W 5383  18.727  38.883   3.753
40223W        W 5384  40.411  15.335  13.934
40224W        W 5385   7.178  43.880  12.959
40225W        W 5386   5.870  32.874  14.932
40226W        W 5387  12.590  31.723   1.466
40227W        W 5388   1.655  26.356  11.318
40228W        W 5389   3.382   8.847   3.536
40229W        W 5390  28.814  24.905   4.851
40230W        W 5391  17.659   6.805  12.688
40231W        W 5392  31.302   5.694  11.714
40232W        W 5393  37.655   8.117   4.764
40233W        W 5394  38.002  37.043  14.587
40234W        W 5395  26.208  27.642   4.536
40235W        W 5396  35.413  42.481  14.490
40236W        W 5397  23.069  37.987   4.221
40237W        W 5398   7.965  39.459   4.149
40238W        W 5399  35.677   0.768   3.171
40239W        W 5400  37.457  40.621  12.511
40240W        W 5401   3.809  26.672   1.784
40241W        W 5402  10.466   5.754   3.012
40242W        W 5403  37.341  10.732  11.053
40243W        W 5404  31.653   1.704   0.502
40244W        W 5405  24.474  11.776   2.434
40245W        W 5406  24.730  40.598   4.035
40246W        W 5407  39.414  44.985  10.672
40247W        W 5408   7.326  15.638  11.992
40248W        W 5409  44.090  15.124   0.412
40249W        W 5410  16.772  42.943   4.492
40250W        W 5411  16.078  32.876   1.433
40251W        W 5412  10.140  15.003  13.528
40252W        W 5413  42.808  33.417  13.828
40253W        W 5414  21.552  30.352  11.165
40254W        W 5415  24.634  20.549   0.231
40255W        W 5416   8.705   3.199   0.764
40256W        W 5417  28.153  23.214  11.648
40257W        W 5418  38.929   0.330   0.360
40258W        W 5419  34.979  40.786   2.902
40259W        W 5420   3.432  29.740  11.199
40260W        W 5421  34.305  33.507   2.781
40261W        W 5422  33.523  37.680   2.156
40262W        W 5423  42.367  37.605  14.899
40263W        W 5424   3.830  44.271  14.277
40264W        W 5425   2.172   8.145   1.740
40265W        W 5426   1.462  38.470   4.491
40266W        W 5427  27.441   1.746   4.620
40267W        W 5428  12.130  30.563  10.788
40268W        W 5429  38.501   6.435  12.483
40269W        W 5430  43.459   8.030  14.240
40270W        W 5431  37.012  28.702  12.444
40271W        W 5432  18.015  10.260  10.831
40272W        W 5433  20.618  12.293  13.796
40273W        W 5434   4.898  21.120   3.733
40274W        W 5435   0.663  16.990   4.422
40275W        W 5436  19.133  27.911  13.926
40276W        W 5437  41.821  16.041   1.313
40277W        W 5438  16.999  17.773  14.187
40278W        W 5439   7.992   4.964  12.509
40279W        W 5440  16.132   4.969  14.028
40280W        W 5441  44.363  42.455   1.324
40281W        W 5442   4.294  27.572   3.947
40282W        W 5443  35.041  16.419   2.014
40283W        W 5444  31.922  32.591   1.219
40284W        W 5445  33.071  16.536   2.636
40285W        W 5446  26.159  11.267  13.643
40286W        W 5447  15.329   4.749   0.913
40287W        W 5448  27.438  13.637  14.975
40288W        W 5449  30.553  30.088   0.125
40289W        W 5450   8.235   1.428   1.888
40290W        W 5451  32.853   7.791  12.125
40291W        W 5452  32.368   5.796  13.045
40292W        W 5453  34.529   3.394   1.867
40293W        W 5454  44.276  38.836  13.907
40294W        W 5455  20.894  10.700  13.383
40295W        W 5456   7.333  18.584   4.599
40296W        W 5457  19.464  39.442  14.676
40297W        W 5458  22.614  32.202  14.859
40298W        W 5459   8.276  42.528   1.569
40299W        W 5460   1.186  35.433   3.310
40300W        W 5461  20.124  23.111  14.051
40301W        W 5462   8.319   9.201  13.523
40302W        W 5463  12.895  33.739  10.970
40303W        W 5464  29.586  36.967   4.949
40304W        W 5465   9.725  26.248   1.245
40305W        W 5466  27.178  10.208  10.012
40306W        W 5467  10.934  10.752   4.189
40307W        W 5468  17.603  12.149   1.573
40308W        W 5469  17.598   0.500  13.408
40309W        W 5470   9.295  34.616  14.019
40310W        W 5471  32.053   3.345   0.833
40311W        W 5472  10.635  27.436  14.408
40312W        W 5473   7.381   1.987   1.162
40313W        W 5474  42.330  15.353  13.637
40314W        W 5475  17.625  33.794  14.865
40315W        W 5476  40.401  31.064  13.285
40316W        W 5477  18.744  22.996   0.743
40317W        W 5478  34.087  11.375  12.858
40318W        W 5479   4.935  17.268   3.232
40319W        W 5480  10.581   1.209   3.237
40320W        W 5481   9.733   2.271  12.598
40321W        W 5482   1.761  25.239   3.703
40322W        W 5483   9.724   1.793  13.388
40323W        W 5484  14.754   0.470   2.944
40324W        W 5485   8.492   4.769   2.692
40325W        W 5486  37.516  24.653  12.139
40326W        W 5487  20.155  25.618  11.083
40327W        W 5488  20.625  40.302  11.018
40328W        W 5489   9.310   9.832   2.671
40329W        W 5490  27.031  41.773   3.815
40330W        W 5491  16.822  37.420  11.467
40331W        W 5492  32.089  39.997  12.050
40332W        W 5493   0.465  38.841   4.471
40333W        W 5494  44.905  20.681   1.354
40334W        W 5495  28.590   4.945  13.511
40335W        W 5496  43.976  43.750  12.827
40336W        W 5497   2.909  30.516  14.494
40337W        W 5498  19.764   5.098   2.108
40338W        W 5499  12.886  25.055  10.963
40339W        W 5500  27.606  31.025   0.186
40340W        W 5501  38.567  10.942  13.458
40341W        W 5502  43.801  30.800   3.849
40342W        W 5503  18.768  31.709   2.374
40343W        W 5504  44.036  39.833   5.108
40344W        W 5505  41.956  16.611   2.833
40345W        W 5506  29.442  23.927   0.809
40346W        W 5507  44.263  17.776  11.638
40347W        W 5508  41.215   8.198  11.190
40348W        W 5509  31.825  44.300  14.394
40349W        W 5510   4.639  30.746  10.306
40350W        W 5511  39.874  11.623   2.225
40351W        W 5512   0.867  30.220  11.957
40352W        W 5513  27.525   1.451   2.863
40353W        W 5514  19.238  14.214  13.409
40354W        W 5515   4.844  40.811  13.785
40355W        W 5516  39.927  36.649   1.314
40356W        W 5517   9.467   7.215  11.844
40357W        W 5518  35.832  10.637  13.869
40358W        W 5519  42.231   5.256  13.840
40359W        W 5520  43.347   7.229   1.445
40360W        W 5521   3.955  12.654  11.190
40361W        W 5522  35.433   5.276  13.829
40362W        W 5523  30.931  16.252  10.647
40363W        W 5524  36.077  37.247   3.728
40364W        W 5525  19.079  44.532   3.280
40365W        W 5526  26.760  10.670  13.799
40366W        W 5527  36.811  14.809  12.957
40367W        W 5528   8.627  31.410   4.386
40368W        W 5529  31.494  30.882   4.221
40369W        W 5530  40.442  28.440  12.457
40370W        W 5531  24.434  10.176  14.851
40371W        W 5532  25.019  43.869   1.772
40372W        W 5533  22.457  23.814  11.077
40373W        W 5534  14.668  39.394   1.926
40374W        W 5535  34.609  18.496   1.679
40375W        W 5536  30.675  36.273  12.514
40376W        W 5537  18.035   2.689  10.918
40377W        W 5538  19.975  26.385  10.739
40378W        W 5539  16.332  35.292  12.101
40379W        W 5540   5.786  16.749  10.664
40380W        W 5541  26.059  24.095  10.396
40381W        W 5542  42.853  32.189  14.417
40382W        W 5543  19.332  37.136  14.333
40383W        W 5544  36.087  42.540   0.261
40384W        W 5545  40.294   4.697  12.900
40385W        W 5546  26.605  25.941  12.399
40386W        W 5547   0.302   0.481   2.785
40387W        W 5548  11.968  19.431   1.281
40388W        W 5549  32.830   8.667  12.412
40389W        W 5550   2.995   0.015   0.337
40390W        W 5551   4.413  23.649   0.046
40391W        W 5552  34.476  16.225   1.344
40392W        W 5553  24.997  31.965   2.070
40393W        W 5554  17.665   1.840   2.874
40394W        W 5555  39.421  23.016   2.816
40395W        W 5556   5.750   7.294   3.794
40396W        W 5557   8.690   7.122  12.976
40397W        W 5558  26.939   4.791  11.194
40398W        W 5559   8.216  20.359  14.039
40399W        W 5560  13.681  14.791  11.716
40400W        W 5561   6.375  39.394  13.494
40401W        W 5562  20.188  32.458   1.383
40402W        W 5563  35.979  40.214   4.565
40403W        W 5564  11.310  36.910   1.823
40404W        W 5565  26.319  15.523  13.256
40405W        W 5566  16.130  34.573   3.731
40406W        W 5567   5.414  13.987   4.162
40407W        W 5568   5.581  36.424  13.322
40408W        W 5569  40.068  17.177  14.975
40409W        W 5570  17.050  23.924   5.129
40410W        W 5571  30.656  11.025  13.915
40411W        W 5572  25.741  28.084   2.741
40412W        W 5573  22.465  31.338  12.299
40413W        W 5574  42.012  44.199  13.452
40414W        W 5575  30.941   3.700  14.401
40415W        W 5576  39.684   2.907  13.926
40416W        W 5577  23.929  11.673   2.145
40417W        W 5578  29.706  14.781   1.278
40418W        W 5579  22.623  15.237  12.565
40419W        W 5580  27.170  23.591  10.628
40420W        W 5581   7.649  11.869   4.483
40421W        W 5582  29.683  15.225  11.248
40422W        W 5583  25.503  12.071  11.507
40423W        W 5584  36.570  43.281  10.708
40424W        W 5585  40.766  40.085   4.154
40425W        W 5586   9.918   6.577  11.181
40426W        W 5587   9.542  33.391   0.249
40427W        W 5588   2.334  33.066   3.936
40428W        W 5589   3.248  10.858   2.066
40429W        W 5590  25.489  19.027   3.713
40430W        W 5591  36.787  24.039  14.976
40431W        W 5592  15.013  12.933   0.254
40432W        W 5593  42.901  11.875   0.482
40433W        W 5594  39.480  42.313   2.749
40434W        W 5595   9.740  13.369   1.712
40435W        W 5596   6.431  24.756  12.926
40436W        W 5597  24.106   1.278   1.828
40437W        W 5598  15.035  30.909  12.629
40438W        W 5599   1.008  21.028   3.365
40439W        W 5600  21.091   9.875   3.887
40440W        W 5601  32.512   3.541  10.672
40441W        W 5602  37.484  36.010   1.403
40442W        W 5603  24.027  35.952   0.404
40443W        W 5604  15.601   7.583   3.871
40444W        W 5605  15.247  21.003  14.717
40445W        W 5606  27.993  23.555   4.981
40446W        W 5607  11.284   5.160  13.364
40447W        W 5608   7.777   2.207  11.962
40448W        W 5609  32.461  13.601  12.547
40449W        W 5610  27.941   6.802  11.188
40450W        W 5611  28.625   6.392  11.980
40451W        W 5612  40.056   3.073   3.620
40452W        W 5613  13.540  30.195  11.959
40453W        W 5614   5.848  30.091   1.301
40454W        W 5615  11.521  14.855   4.620
40455W        W 5616  17.838  15.236  11.613
40456W        W 5617  44.385  26.654  13.333
40457W        W 5618  20.301  32.236  10.371
40458W        W 5619  10.906   3.724  11.548
40459W        W 5620  23.971  12.790   0.773
40460W        W 5621   5.405   1.291  14.412
40461W        W 5622  13.834  23.478   1.535
40462W        W 5623   1.871  22.686  10.759
40463W        W 5624  16.053  12.141  11.106
40464W        W 5625  34.583   1.935  13.252
40465W        W 5626   4.968   4.667  13.432
40466W        W 5627  35.722  32.334  10.708
40467W        W 5628   3.962  31.496  12.659
40468W        W 5629  19.884  24.983   3.468
40469W        W 5630  29.062  18.887   1.015
40470W        W 5631  23.634  39.531   1.150
40471W        W 5632  10.547  33.541   2.080
40472W        W 5633   3.871  30.166  14.338
40473W        W 5634  25.459  28.012  11.718
40474W        W 5635  11.895  40.424   2.950
40475W        W 5636   8.444   9.633   1.671
40476W        W 5637  16.682  36.228  14.005
40477W        W 5638  38.817  24.102  12.074
40478W        W 5639  24.297  16.247   2.328
40479W        W 5640   2.349  37.079   2.890
40480W        W 5641   9.280  18.848   1.673
40481W        W 5642  17.784  35.857   1.437
40482W        W 5643  32.481   5.241  11.338
40483W        W 5644  32.191   9.207  13.358
40484W        W 5645  33.452   4.513   0.771
40485W        W 5646   2.508  27.947  14.847
40486W        W 5647  36.132  17.712  12.689
40487W        W 5648   2.236   3.928   4.997
40488W        W 5649  21.698  12.863  13.803
40489W        W 5650  20.836   8.566  11.543
40490W        W 5651  32.283   6.436   1.830
40491W        W 5652  23.917  36.539   2.086
40492W        W 5653  36.755   4.889   0.804
40493W        W 5654  44.010  22.087   4.204
40494W        W 5655   7.594  35.988  13.915
40495W        W 5656  37.127  11.597  10.764
40496W        W 5657  34.307  22.828   2.774
40497W        W 5658  25.498  13.847  11.666
40498W        W 5659  17.740  32.139  14.454
40499W        W 5660  17.613  43.506  10.199
40500W        W 5661  27.996  40.656   0.840
40501W        W 5662  24.145  19.164  12.313
40502W        W 5663  33.058   0.313   4.433
40503W        W 5664  23.538   6.899   0.919
40504W        W 5665  18.201   0.758  14.805
40505W        W 5666  38.533   0.962   3.165
40506W        W 5667   8.546  23.467  14.094
40507W        W 5668  37.680  24.125  11.670
40508W        W 5669  10.852  26.680   4.129
40509W        W 5670  41.621  40.625  14.874
40510W        W 5671   3.038  37.384   1.196
40511W        W 5672   2.310  26.702  10.865
40512W        W 5673  18.812  12.088  14.285
40513W        W 5674  13.153   9.261   4.296
40514W        W 5675   6.719   9.831  14.387
40515W        W 5676  39.139  17.231  12.060
40516W        W 5677  42.334  10.231  12.303
40517W        W 5678   0.394   1.840   2.670
40518W        W 5679  32.516  39.913  10.088
40519W        W 5680  25.905  28.049   4.561
40520W        W 5681   7.623  25.701   4.586
40521W        W 5682   5.748  16.352  10.990
40522W        W 5683  12.183  42.072  13.917
40523W        W 5684   2.439   7.690   2.729
40524W        W 5685  40.622  21.676  13.042
40525W        W 5686  32.361   0.911  11.232
40526W        W 5687  10.357  14.060  14.536
40527W        W 5688  22.987  14.161   2.430
40528W        W 5689  16.589  33.868   3.865
40529W        W 5690   9.704  43.830  11.585
40530W        W 5691  12.260  24.955  14.080
40531W        W 5692  13.185  30.747   1.432
40532W        W 5693  22.789  44.294   1.890
40533W        W 5694   0.877   5.734   1.546
40534W        W 5695  38.467  41.070  11.330
40535W        W 5696   5.708   5.740  11.109
40536W        W 5697  18.047  32.448   3.198
40537W        W 5698  36.494  28.152   4.690
40538W        W 5699  33.605  40.653   2.166
40539W        W 5700  36.532  32.659  12.041
40540W        W 5701  44.011  39.737  12.123
40541W        W 5702   9.295   8.621   2.488
40542W        W 5703  22.948  29.218   0.207
40543W        W 5704  33.358   9.348   1.296
40544W        W 5705  10.100  13.137   2.987
40545W        W 5706  28.916  20.095  10.694
40546W        W 5707  38.371  19.453  11.174
40547W        W 5708  37.230   5.479   2.213
40548W        W 5709  32.917  32.816   0.903
40549W        W 5710  35.118  35.542   3.235
40550W        W 5711  26.908  25.250  11.049
40551W        W 5712  22.022   0.236   0.849
40552W        W 5713  14.926  40.014   2.278
40553W        W 5714   2.765   8.148  14.929
40554W        W 5715  27.120  17.182   3.850
40555W        W 5716  40.717  41.339  12.929
40556W        W 5717  44.300  33.870   2.983
40557W        W 5718  33.889  19.609  12.968
40558W        W 5719   0.773  27.964   4.634
40559W        W 5720  17.189  16.145   3.533
40560W        W 5721  33.843  22.111  12.464
40561W        W 5722   3.462  32.402   1.372
40562W        W 5723  20.721  24.973  10.784
40563W        W 5724   1.123  26.004  14.478
40564W        W 5725  24.231   1.406  13.971
40565W        W 5726  41.004  22.873  10.664
40566W        W 5727  26.656  41.961   4.296
40567W        W 5728   5.914   5.183  14.014
40568W        W 5729   2.856  22.592  11.175
40569W        W 5730  19.268  10.368   2.297
40570W        W 5731  28.034   3.240  13.175
40571W        W 5732  43.515  22.524  11.064
40572W        W 5733  44.798  41.407   0.231
40573W        W 5734  32.728  34.899   2.652
40574W        W 5735  15.200  37.139   2.182
40575W        W 5736  21.472  21.570   1.250
40576W        W 5737  35.834   6.756  14.599
40577W        W 5738  24.814  28.562  12.778
40578W        W 5739  11.650  38.062  11.845
40579W        W 5740   9.673  35.724  14.553
40580W        W 5741  43.743  40.370  13.864
40581W        W 5742  44.838   5.808  14.246
40582W        W 5743  44.894  17.061  11.431
40583W        W 5744  16.755  25.086  10.761
40584W        W 5745  34.178  40.719  12.012
40585W        W 5746  21.613  38.421  13.945
40586W        W 5747  31.434   7.945   4.243
40587W        W 5748  44.421  21.126  10.258
40588W        W 5749  26.533  25.403   0.806
40589W        W 5750  33.127  19.314  11.613
40590W        W 5751  26.057  22.613   1.383
40591W        W 5752  16.065   4.695  10.226
40592W        W 5753  20.923  22.883  13.022
40593W        W 5754  29.152   5.978   3.392
40594W        W 5755  12.936  13.930  10.923
40595W        W 5756  21.295  20.541  11.481
40596W        W 5757  17.985  35.896  13.766
40597W        W 5758  15.796  33.610   5.180
40598W        W 5759  41.282  43.720   0.361
40599W        W 5760  18.894  16.645  13.535
40600W        W 5761  25.325  18.230  14.304
40601W        W 5762   5.240  35.110  12.529
40602W        W 5763  34.945  41.583   3.249
40603W        W 5764  14.655  14.723   1.290
40604W        W 5765  13.742   6.959   1.468
40605W        W 5766  25.805  15.096   4.604
40606W        W 5767  18.256  24.182  13.529
40607W        W 5768  40.023  16.352   3.644
40608W        W 5769  30.377   6.148   1.842
40609W        W 5770  42.090  13.270  10.686
40610W        W 5771   9.279  37.985   0.697
40611W        W 5772  21.756  36.818   4.114
40612W        W 5773  27.977   9.914   3.782
40613W        W 5774  42.948  34.701   3.504
40614W        W 5775  29.971   3.191  14.094
40615W        W 5776   1.862  20.953  11.815
40616W        W 5777  22.475  39.037   3.513
40617W        W 5778  37.411  39.005  14.898
40618W        W 5779  22.225  27.184   1.719
40619W        W 5780   9.400  15.238   0.476
40620W        W 5781  19.807  16.100  14.275
40621W        W 5782  29.446  41.657  10.186
40622W        W 5783  42.813  43.459   0.726
40623W        W 5784  32.071  36.893   0.770
40624W        W 5785   0.763  17.642   2.201
40625W        W 5786  36.376  25.490  11.880
40626W        W 5787  25.703  41.387  11.641
40627W        W 5788  28.508   0.855   1.431
40628W        W 5789  29.992  40.830   3.587
40629W        W 5790  32.670  15.982  11.469
40630W        W 5791   3.978  20.558  12.479
40631W        W 5792  22.367   5.321   2.372
40632W        W 5793  20.704  25.217   2.847
40633W        W 5794   4.687  43.550   3.387
40634W        W 5795   7.830   1.052  11.578
40635W        W 5796  41.481   1.906   2.033
40636W        W 5797  38.834  25.163  13.883
40637W        W 5798   6.008   9.608   1.935
40638W        W 5799  20.787  30.527  14.970
40639W        W 5800  35.413   6.238  13.397
40640W        W 5801  39.926  39.240  14.188
40641W        W 5802  26.989  38.987  12.612
40642W        W 5803  35.291  28.908  13.573
40643W        W 5804  22.514  20.948   4.910
40644W        W 5805  33.509   6.466  14.989
40645W        W 5806  16.288  12.872   4.807
40646W        W 5807  12.816  31.409   4.608
40647W        W 5808  31.027  33.984  14.973
40648W        W 5809  19.557  39.247   1.398
40649W        W 5810   1.337  40.748  13.777
40650W        W 5811  20.812  32.926   0.870
40651W        W 5812  39.777  42.751  12.024
40652W        W 5813   0.392  34.242  11.273
40653W        W 5814  18.098  11.169  10.724
40654W        W 5815  11.859   3.928  13.570
40655W        W 5816  17.428   3.825  14.816
40656W        W 5817  15.042   6.219  12.995
40657W        W 5818  22.182   5.480   2.864
40658W        W 5819  29.315  21.168   4.761
40659W        W 5820  16.792   9.915   1.845
40660W        W 5821  13.876  15.645  14.736
40661W        W 5822  14.974  39.183   4.581
40662W        W 5823  38.084  29.835   3.865
40663W        W 5824  41.724  11.172  11.648
40664W        W 5825  32.815  37.018  12.828
40665W        W 5826  19.993   1.750   2.362
40666W        W 5827  42.725  32.566   3.396
40667W        W 5828  28.218  21.985   4.025
40668W        W 5829   4.335  29.548  13.243
40669W        W 5830  24.145   0.003   2.411
40670W        W 5831  18.304   1.266  14.820
40671W        W 5832  29.127  33.422   2.286
40672W        W 5833  26.522  41.319  14.247
40673W        W 5834  26.755  34.131  11.338
40674W        W 5835  16.036   1.273   1.707
40675W        W 5836  28.458  17.300   0.688
40676W        W 5837  43.906   9.914  14.305
40677W        W 5838  21.602  13.056  12.796
40678W        W 5839  35.064   2.351  12.176
40679W        W 5840  28.855  14.143   1.416
40680W        W 5841  33.639   4.519  13.971
40681W        W 5842  13.604  38.253  13.407
40682W        W 5843  30.775   7.224  13.938
40683W        W 5844  25.606  43.753   0.808
40684W        W 5845  37.940   4.476   1.513
40685W        W 5846  39.854  15.970  13.961
40686W        W 5847   0.466  22.449   0.188
40687W        W 5848  28.670   5.966   1.234
40688W        W 5849   3.872  34.620  12.465
40689W        W 5850  31.693  22.947  13.045
40690W        W 5851  36.427  20.227   0.286
40691W        W 5852  43.972  17.841  10.955
40692W        W 5853  27.753  40.800   3.208
40693W        W 5854  27.755  16.101   3.751
40694W        W 5855  32.358   7.219   5.050
40695W        W 5856  30.396   8.363   1.881
40696W        W 5857  43.499  44.830  12.109
40697W        W 5858  11.313   5.880   2.035
40698W        W 5859   1.577  38.433  10.996
40699W        W 5860   8.871  31.146   2.421
40700W        W 5861   0.733   2.206  11.453
40701W        W 5862  27.669  25.652  14.345
40702W        W 5863  23.659  21.239  11.563
40703W        W 5864  27.906   5.983   2.725
40704W        W 5865  18.277  34.108  13.999
40705W        W 5866   6.231  33.039  11.153
40706W        W 5867   8.844  32.498   2.366
40707W        W 5868  28.402  42.434   0.833
40708W        W 5869  28.195  16.926  13.900
40709W        W 5870  25.007  20.575   3.859
40710W        W 5871  37.108  24.485   0.833
40711W        W 5872  14.709  25.975   1.686
40712W        W 5873  24.706  27.700   4.871
40713W        W 5874  44.754  27.557   2.338
40714W        W 5875   4.640  12.375   3.298
40715W        W 5876  42.448  41.054   1.724
40716W        W 5877  36.210  28.439  13.531
40717W        W 5878  18.611  13.352  10.523
40718W        W 5879  27.472  37.311   0.761
40719W        W 5880  16.527   3.290   1.266
40720W        W 5881  38.103   2.949   2.766
40721W        W 5882  43.514  40.234  10.718
40722W        W 5883  22.400  32.995  14.007
40723W        W 5884  39.236  31.058  14.743
40724W        W 5885  25.916  31.936   2.604
40725W        W 5886  10.745  31.756   0.286
40726W        W 5887  11.308  10.365  10.347
40727W        W 5888  16.976   7.640  10.846
40728W        W 5889   2.369   7.222  11.269
40729W        W 5890  39.743  39.736   4.618
40730W        W 5891  13.858   7.436  13.900
40731W        W 5892  20.062  20.362   5.041
40732W        W 5893  28.356   5.132   4.102
40733W        W 5894  18.462   3.845  11.479
40734W        W 5895  11.099  44.227   4.404
40735W        W 5896   0.307  31.804   4.213
40736W        W 5897  36.124  43.465   3.607
40737W        W 5898   2.529   6.329  10.695
40738W        W 5899  23.497  32.170  11.089
40739W        W 5900   2.905   1.043   1.743
40740W        W 5901   3.370  35.717  13.892
40741W        W 5902   5.361   0.905   3.809
40742W        W 5903  18.229  25.969  13.826
40743W        W 5904  23.413  12.627  12.318
40744W        W 5905  23.285  17.622   3.487
40745W        W 5906  20.566  35.390   3.310
40746W        W 5907  23.928  10.950  10.291
40747W        W 5908  27.542  34.792  12.910
40748W        W 5909   2.758  27.519  14.230
40749W        W 5910   7.034  11.440  11.194
40750W        W 5911  19.020   2.885  10.454
40751W        W 5912  42.414  26.061  11.264
40752W        W 5913  39.809  37.499   3.209
40753W        W 5914  44.514  23.226   2.226
40754W        W 5915  35.291  36.899  14.677
40755W        W 5916   5.320  22.001  10.519
40756W        W 5917  34.441  26.467  13.868
40757W        W 5918  40.451  39.101   3.605
40758W        W 5919   6.623   3.717  12.479
40759W        W 5920  34.492   0.726   4.093
40760W        W 5921  22.518  12.952  13.157
40761W        W 5922  44.804  28.962   4.509
40762W        W 5923  24.469   7.164  11.505
40763W        W 5924  18.774  35.852   1.438
40764W        W 5925  16.234  39.922  12.981
40765W        W 5926  43.859  35.926   0.890
40766W        W 5927   5.711  10.903   4.623
40767W        W 5928  16.152  31.285  10.543
40768W        W 5929  35.613  32.782  12.781
40769W        W 5930  36.974  26.908  13.091
40770W        W 5931   4.809  34.520  10.712
40771W        W 5932  19.216   1.255  13.093
40772W        W 5933  28.129  32.313   1.189
40773W        W 5934  29.393  17.554  14.903
40774W        W 5935  44.852  23.056   3.134
40775W        W 5936  42.450  26.799  11.751
40776W        W 5937  27.123  26.707   2.941
40777W        W 5938   8.908   3.345   4.042
40778W        W 5939  31.523  41.742  11.940
40779W        W 5940  11.072  33.623   4.730
40780W        W 5941  34.932  13.839  10.559
40781W        W 5942  42.212  41.441  14.910
40782W        W 5943  15.712  33.449  11.534
40783W        W 5944  15.768  22.666  14.522
40784W        W 5945  36.298   9.143  13.339
40785W        W 5946  40.507  21.158   3.042
40786W        W 5947   5.644  16.556  14.512
40787W        W 5948  12.437  23.256  11.171
40788W        W 5949   5.161  10.894   2.628
40789W        W 5950  18.811  39.278   0.692
40790W        W 5951   5.851   9.928  11.098
40791W        W 5952   9.625  27.125  13.781
40792W        W 5953  37.644  40.473  13.392
40793W        W 5954  12.392   9.340  13.437
40794W        W 5955   2.061   7.203   0.417
40795W        W 5956  10.109  30.630   5.019
40796W        W 5957  43.528  23.220  10.740
40797W        W 5958  33.893  27.798   3.889
40798W        W 5959  25.455  15.396   0.011
40799W        W 5960  43.642   8.005   0.965
40800W        W 5961  41.339  20.462  14.369
40801W        W 5962   0.040  23.901  13.838
40802W        W 5963  21.286   4.893   0.843
40803W        W 5964   5.915  44.864   1.292
40804W        W 5965  35.012   6.777   0.788
40805W        W 5966  42.106  24.616   2.393
40806W        W 5967  24.798  43.707   3.141
40807W        W 5968  42.373  18.287  12.570
40808W        W 5969  13.278  43.994  12.970
40809W        W 5970  35.033  32.351   2.863
40810W        W 5971   3.787   0.150  12.582
40811W        W 5972  17.229  11.777  13.396
40812W        W 5973  32.093  40.264  11.584
40813W        W 5974  25.653  21.867   5.372
40814W        W 5975   4.282  34.847  11.537
40815W        W 5976  31.914  18.904  14.369
40816W        W 5977  43.498  17.530   0.654
40817W        W 5978  41.867  10.641  13.440
40818W        W 5979  21.329  44.963  12.303
40819W        W 5980  37.950  14.185   0.756
40820W        W 5981  41.781   2.828   2.268
40821W        W 5982   3.197  24.667   2.184
40822W        W 5983  22.309  20.730  10.639
40823W        W 5984   1.026  27.695   0.947
40824W        W 5985  33.961   3.791   0.894
40825W        W 5986   9.106  32.651   4.779
40826W        W 5987  14.569   6.657   2.367
40827W        W 5988   8.523   2.981  11.456
40828W        W 5989  13.812  33.170   4.174
40829W        W 5990  16.349  34.657  11.106
40830W        W 5991  14.282  32.422   1.206
40831W        W 5992  35.473  39.272   1.434
40832W        W 5993  12.928  26.981  13.982
40833W        W 5994   6.749  25.732   2.295
40834W        W 5995  25.951  21.755  12.059
40835W        W 5996  39.468   0.015  13.547
40836W        W 5997  40.363   1.458  11.230
40837W        W 5998  42.546   6.229  11.889
40838W        W 5999   7.874  38.462   0.005
40839W        W 6000  13.970  38.507   1.140
40840W        W 6001   6.756  36.647  11.152
40841W        W 6002   2.836  11.100  13.091
40842W        W 6003  43.891   2.364   4.527
40843W        W 6004  18.745  26.567  12.557
40844W        W 6005  34.514   1.629   0.327
40845W        W 6006  29.123  24.281  14.450
40846W        W 6007  31.385  13.896  10.758
40847W        W 6008  31.858  40.470  12.015
40848W        W 6009  17.122  28.663   4.215
40849W        W 6010   2.074  10.682  10.646
40850W        W 6011  22.156   7.845  14.586
40851W        W 6012   2.811  15.208   1.376
40852W        W 6013  20.003  10.781  14.715
40853W        W 6014   7.453  19.692  13.836
40854W        W 6015  20.389  22.275   0.636
40855W        W 6016  19.813  18.024   3.798
40856W        W 6017   4.554  41.011   1.197
40857W        W 6018   4.937   9.832  14.380
40858W        W 6019   9.693  34.129  13.128
40859W        W 6020  43.763   3.886  14.096
40860W        W 6021  44.292   9.230  12.395
40861W        W 6022  37.105  12.812  14.519
40862W        W 6023  30.374  43.423  14.091
40863W        W 6024  16.714   1.366  11.499
40864W        W 6025  24.546  17.511  11.211
40865W        W 6026  16.734  21.208  10.899
40866W        W 6027  19.515  32.214   4.601
40867W        W 6028  33.359  27.132  14.342
40868W        W 6029  11.661  26.716   3.220
40869W        W 6030   5.510  23.524   2.315
40870W        W 6031  24.408  34.940   1.367
40871W        W 6032  41.403  25.780   1.937
40872W        W 6033  28.106  14.000   4.077
40873W        W 6034  33.935   1.772   3.398
40874W        W 6035  28.768  43.414  12.800
40875W        W 6036  27.910  23.174  13.032
40876W        W 6037  38.037  27.045   0.235
40877W        W 6038  38.093  26.441  13.077
40878W        W 6039   8.624  22.068   3.552
40879W        W 6040  31.523  42.981   4.273
40880W        W 6041  34.386  32.979  12.670
40881W        W 6042  42.957  10.262   1.895
40882W        W 6043  14.397  19.806  12.923
40883W        W 6044  39.899  15.471  13.863
40884W        W 6045  39.744  23.775   0.211
40885W        W 6046   4.383  28.467   0.509
40886W        W 6047  29.634  33.889  10.796
40887W        W 6048  31.977  27.695   4.935
40888W        W 6049  35.483  32.607  11.088
40889W        W 6050  23.079   5.404   3.199
40890W        W 6051  13.162  32.416  11.927
40891W        W 6052   1.847  39.086  11.565
40892W        W 6053  24.549  21.532   1.277
40893W        W 6054  29.977   6.417   1.618
40894W        W 6055   3.668  37.450   3.344
40895W        W 6056  35.917   4.496   3.761
40896W        W 6057  19.763  31.372  12.434
40897W        W 6058   3.384  30.508  13.394
40898W        W 6059   0.537  12.123  14.822
40899W        W 6060  10.765   4.974  14.334
40900W        W 6061   6.210  39.377   1.241
40901W        W 6062  15.747  16.274   1.173
40902W        W 6063  40.154  21.064  10.274
40903W        W 6064  21.273  30.227   3.722
40904W        W 6065  15.738   2.696  14.778
40905W        W 6066   1.414  24.695  13.842
40906W        W 6067  16.101   5.757  12.349
40907W        W 6068  30.519  31.337   3.115
40908W        W 6069   0.550   3.554   3.153
40909W        W 6070   9.623   2.273   2.715
40910W        W 6071  43.819  39.291  14.344
40911W        W 6072  25.581  18.265   0.423
40912W        W 6073   5.900   8.171   1.705
40913W        W 6074  44.587  16.620   1.979
40914W        W 6075   8.645  23.395   3.364
40915W        W 6076   8.829  18.228  12.150
40916W        W 6077  22.500  15.936   0.443
40917W        W 6078  32.868  33.330   0.635
40918W        W 6079  23.264   5.202  11.409
40919W        W 6080  12.845   8.794  14.045
40920W        W 6081  23.921   4.234  11.709
40921W        W 6082  33.770  23.675   5.507
40922W        W 6083   6.791  14.388   3.643
40923W        W 6084  44.726  31.572  11.236
40924W        W 6085   6.391  35.385  11.171
40925W        W 6086   6.670  25.897  14.584
40926W        W 6087  22.990  15.681   3.381
40927W        W 6088   0.404  23.232   4.230
40928W        W 6089  42.918  22.949  11.488
40929W        W 6090  22.582  39.465   3.761
40930W        W 6091  14.593  43.182   4.983
40931W        W 6092  19.857  21.172   2.717
40932W        W 6093   1.383  10.384  14.355
40933W        W 6094   1.528   8.086  10.769
40934W        W 6095  29.992   4.399  11.366
40935W        W 6096   5.684  28.619  13.343
40936W        W 6097  37.130  13.260   4.156
40937W        W 6098  19.108  11.116   2.607
40938W        W 6099   1.506   4.004  12.952
40939W        W 6100   7.467  42.354  13.877
40940W        W 6101   1.317  44.866  12.105
40941W        W 6102  36.066  22.382   0.952
40942W        W 6103  10.623  25.034  10.701
40943W        W 6104  36.473  42.229   2.751
40944W        W 6105  38.739  10.242   3.650
40945W        W 6106  24.160  36.979   3.810
40946W        W 6107  28.001  23.058   5.078
40947W        W 6108  31.438  17.221   2.334
40948W        W 6109  10.013  35.113   2.119
40949W        W 6110  15.320  16.554  13.961
40950W        W 6111   4.226  24.586   4.656
40951W        W 6112  16.113  27.117   3.784
40952W        W 6113  44.937  37.176  11.668
40953W        W 6114  31.294   2.476  11.191
40954W        W 6115  14.133  12.163  14.872
40955W        W 6116  12.025   3.924   0.346
40956W        W 6117  35.082  37.831   2.305
40957W        W 6118  36.000  10.203   2.857
40958W        W 6119  19.755   0.005  14.500
40959W        W 6120  22.315  29.696  10.343
40960W        W 6121  39.390  38.045  10.389
40961W        W 6122  28.651  23.022  14.558
40962W        W 6123  40.364  11.738   2.377
40963W        W 6124  43.880   7.223   2.696
40964W        W 6125  38.070   0.041   1.780
40965W        W 6126   4.044  44.771  14.047
40966W        W 6127  17.194  42.558   4.045
40967W        W 6128  14.546  30.001   0.934
40968W        W 6129  38.056  27.807   3.267
40969W        W 6130  44.862  23.187   3.620
40970W        W 6131  17.264   0.980   4.583
40971W        W 6132  12.804  33.644   0.633
40972W        W 6133   6.819  12.219   0.014
40973W        W 6134  37.761   0.966  12.970
40974W        W 6135   7.380  29.421  13.280
40975W        W 6136  28.370  20.744   2.204
40976W        W 6137   4.768  29.815  14.725
40977W        W 6138  44.799   4.340   4.256
40978W        W 6139   8.226  20.823   0.840
40979W        W 6140  16.623   7.138  13.844
40980W        W 6141  44.754  12.150   4.285
40981W        W 6142  14.751  18.811   4.143
40982W        W 6143   1.516  33.182  14.304
40983W        W 6144  42.828  19.072   2.258
40984W        W 6145  37.441  39.293   0.350
40985W        W 6146  14.973  37.137   4.954
40986W        W 6147   9.099  27.611  12.497
40987W        W 6148  29.600  44.658  10.218
40988W        W 6149  42.363  39.725   0.558
40989W        W 6150  20.017  28.647   3.718
40990W        W 6151  41.074  36.567  10.113
40991W        W 6152  14.339   6.622   4.736
40992W        W 6153  33.645  29.750   5.009
40993W        W 6154  30.948  20.535  14.868
40994W        W 6155  28.938  28.705  11.092
40995W        W 6156   2.326  37.419  12.687
40996W        W 6157  19.351  30.381   2.410
40997W        W 6158  35.300  36.149   3.182
40998W        W 6159  10.541  15.334  13.575
40999W        W 6160  28.218   8.852  12.409
41000W        W 6161   3.022  15.189   3.282
41001W        W 6162   2.036   3.240   0.831
41002W        W 6163  40.037   3.257   0.862
41003W        W 6164  21.902  18.982  10.290
41004W        W 6165  40.417  12.540  10.830
41005W        W 6166  16.457  27.333   2.819
41006W        W 6167  19.286  20.627  12.553
41007W        W 6168  28.947  24.147   3.597
41008W        W 6169  17.890   0.350   1.511
41009W        W 6170  34.412  31.244   2.212
41010W        W 6171  32.693  19.427   4.928
41011W        W 6172  30.680  21.160   1.001
41012W        W 6173  32.191  34.080   4.645
41013W        W 6174  32.134  16.099   0.792
41014W        W 6175  30.853  36.992  12.495
41015W        W 6176  13.277  27.580   0.475
41016W        W 6177  26.832   8.384   3.938
41017W        W 6178  14.035  42.601   2.999
41018W        W 6179  32.949  37.381   9.736
41019W        W 6180  30.343  28.568  10.620
41020W        W 6181  28.585  30.923  14.495
41021W        W 6182  37.323  24.239   1.745
41022W        W 6183  44.942  27.044  11.643
41023W        W 6184  39.234   6.112  10.668
41024W        W 6185  38.695  43.438   1.840
41025W        W 6186  40.478  15.438  13.011
41026W        W 6187   0.318  39.985   1.411
41027W        W 6188  20.619  11.814  13.592
41028W        W 6189  27.038  18.180   0.792
41029W        W 6190  14.343  15.175   3.458
41030W        W 6191  16.847  11.554  11.238
41031W        W 6192   1.002  44.650   3.587
41032W        W 6193  36.287  11.393  14.411
41033W        W 6194  40.074  24.264  11.241
41034W        W 6195  12.527  43.294   3.098
41035W        W 6196  21.730  17.585  14.743
41036W        W 6197  36.217   6.643   2.262
41037W        W 6198   3.426   3.753   1.428
41038W        W 6199  17.379  41.549   1.294
41039W        W 6200  22.110  41.928   3.907
41040W        W 6201  42.498   5.615   2.380
41041W        W 6202  19.207  14.084   4.247
41042W        W 6203  34.908  23.505   3.249
41043W        W 6204  21.950  10.431   1.514
41044W        W 6205   8.525  10.892  12.516
41045W        W 6206   7.412  16.105  13.528
41046W        W 6207  32.976  38.820  12.299
41047W        W 6208  32.111   2.183   5.051
41048W        W 6209  25.273  26.742  11.556
41049W        W 6210  21.526  11.554  11.615
41050W        W 6211   7.911  12.469  12.592
41051W        W 6212  38.033  14.439  13.811
41052W        W 6213  19.512  31.062  11.007
41053W        W 6214  33.309  27.028   4.734
41054W        W 6215  35.849  31.758  10.703
41055W        W 6216   5.674  42.613   0.376
41056W        W 6217  44.742  25.556   3.608
41057W        W 6218  41.860  26.720  13.045
41058W        W 6219  41.764  37.238  10.441
41059W        W 6220   7.306  44.805  13.836
41060W        W 6221  41.934  44.996   0.976
41061W        W 6222  37.027  29.404   1.494
41062W        W 6223  40.825  27.969   0.463
41063W        W 6224  39.991  39.143   1.490
41064W        W 6225  36.609  17.139   4.465
41065W        W 6226  16.696  43.772  11.003
41066W        W 6227   9.284  18.181   2.279
41067W        W 6228  26.009   3.705  14.245
41068W        W 6229  30.702   5.182   4.001
41069W        W 6230   8.467   3.457   2.055
41070W        W 6231  10.030  12.886   3.439
41071W        W 6232  17.044  29.810   5.012
41072W        W 6233   4.865  26.720   2.843
41073W        W 6234   3.821   8.839  12.131
41074W        W 6235  40.942  38.604  12.836
41075W        W 6236  18.053  26.407  14.061
41076W        W 6237  28.991  26.035  13.626
41077W        W 6238  19.791   4.843   4.689
41078W        W 6239  23.089  37.061   0.098
41079W        W 6240   6.430  35.931   0.907
41080W        W 6241  33.869  43.430   1.501
41081W        W 6242  44.008  14.839   1.298
41082W        W 6243  12.281  34.828   0.431
41083W        W 6244  15.323   9.553   0.976
41084W        W 6245  19.267  38.842  14.336
41085W        W 6246  15.773  16.467  10.322
41086W        W 6247   8.325   8.087  14.096
41087W        W 6248   2.294  42.793  10.270
41088W        W 6249  23.610  19.860   2.704
41089W        W 6250   7.947  42.498  13.899
41090W        W 6251  30.988   6.789  14.991
41091W        W 6252  11.826  10.185  12.165
41092W        W 6253  43.186  23.014  12.269
41093W        W 6254  20.513   2.970   2.936
41094W        W 6255   4.863  24.843  13.678
41095W        W 6256  30.611   1.993  14.913
41096W        W 6257   4.151  18.205   4.095
41097W        W 6258  40.273  24.764  12.093
41098W        W 6259  27.046   7.040   4.638
41099W        W 6260  41.370  13.933   1.779
41100W        W 6261  12.172  40.611   1.711
41101W        W 6262   0.788   5.329   0.676
41102W        W 6263  42.274  25.029  10.858
41103W        W 6264  18.554  33.154  11.049
41104W        W 6265   4.893   1.962  10.285
41105W        W 6266  33.465  38.228   5.427
41106W        W 6267  20.462  41.371   4.225
41107W        W 6268   4.511  44.997  13.894
41108W        W 6269  18.786   6.326   2.750
41109W        W 6270  20.579   2.628   0.834
41110W        W 6271  29.944  28.980   3.226
41111W        W 6272  20.593  29.642  12.936
41112W        W 6273  20.786  19.087  11.879
41113W        W 6274  42.473  42.419   2.580
41114W        W 6275  38.956  42.377   2.832
41115W        W 6276   9.579  30.039  13.493
41116W        W 6277  12.589  40.526  12.498
41117W        W 6278  29.516  31.997   4.594
41118W        W 6279  26.072   1.264  11.897
41119W        W 6280  19.170   8.321  13.755
41120W        W 6281  12.898  44.964   4.642
41121W        W 6282   3.370  14.785  12.170
41122W        W 6283  17.637   0.273  10.980
41123W        W 6284   4.248  35.439  12.551
41124W        W 6285  23.083  39.608   3.923
41125W        W 6286  44.033   6.369  12.384
41126W        W 6287  35.646   5.668  12.441
41127W        W 6288   4.314  18.948  12.343
41128W        W 6289  38.517  34.131   2.222
41129W        W 6290  26.426  30.018  12.540
41130W        W 6291   3.166  36.487   4.164
41131W        W 6292   9.650  21.782  13.264
41132W        W 6293  30.606   6.415  10.962
41133W        W 6294  12.592  29.897  10.803
41134W        W 6295  22.753  41.345   3.772
41135W        W 6296  16.323  24.081   2.269
41136W        W 6297  10.253  28.305   3.086
41137W        W 6298  30.570  31.878   3.184
41138W        W 6299   0.001  28.109  12.511
41139W        W 6300   3.571  23.618   3.780
41140W        W 6301  35.076   8.175   0.934
41141W        W 6302   3.976  43.939   4.172
41142W        W 6303  37.236  22.253  10.306
41143W        W 6304  24.463  12.344  13.323
41144W        W 6305  30.649   4.856   2.310
41145W        W 6306  41.004  11.698  13.923
41146W        W 6307  10.086   8.713   0.548
41147W        W 6308  21.735  21.245  14.933
41148W        W 6309  34.556  12.292   0.983
41149W        W 6310  29.016   7.861   4.852
41150W        W 6311  39.657   4.024  13.403
41151W        W 6312   5.420  29.715  12.064
41152W        W 6313  12.666  23.717  11.148
41153W        W 6314  17.188  44.475  11.064
41154W        W 6315  37.728  25.092   5.121
41155W        W 6316  19.814  30.854  10.626
41156W        W 6317  36.785  40.694   2.404
41157W        W 6318  23.302  42.563   1.389
41158W        W 6319  28.588   4.542  14.871
41159W        W 6320  30.511  32.939  11.114
41160W        W 6321   3.379   6.135  13.887
41161W        W 6322  19.791  31.094   4.188
41162W        W 6323   6.185  14.640  11.925
41163W        W 6324  35.726   6.678   3.056
41164W        W 6325  22.333   9.067  12.566
41165W        W 6326  14.124   8.193   1.746
41166W        W 6327  31.374  22.083  10.509
41167W        W 6328  14.200  42.707   3.896
41168W        W 6329  36.853  37.328  11.850
41169W        W 6330  13.992  25.202   0.516
41170W        W 6331  27.621  44.074  10.746
41171W        W 6332  37.111  33.892   0.841
41172W        W 6333  32.410  22.990  12.486
41173W        W 6334  21.007  24.114  11.642
41174W        W 6335  25.126   9.698  14.272
41175W        W 6336  41.251  44.377  14.437
41176W        W 6337  41.576  26.007   0.917
41177W        W 6338   7.307  21.472   3.570
41178W        W 6339  38.080   4.203  13.897
41179W        W 6340   8.720  21.993   4.066
41180W        W 6341  13.819  19.266   3.852
41181W        W 6342  35.896   4.462  13.927
41182W        W 6343  18.236  28.958   0.727
41183W        W 6344  18.234   9.328   4.438
41184W        W 6345   0.492  20.566  14.755
41185W        W 6346  22.142  30.935   3.324
41186W        W 6347  42.232   1.188  12.647
41187W        W 6348  44.725   1.918   1.425
41188W        W 6349   6.023   6.146   4.459
41189W        W 6350  37.351  12.634   1.910
41190W        W 6351  41.991  30.377   2.424
41191W        W 6352  19.887   3.978  12.711
41192W        W 6353  44.878  28.719  11.802
41193W        W 6354  31.629  16.715   1.437
41194W        W 6355  31.165   7.160   3.125
41195W        W 6356  16.538  34.624   3.106
41196W        W 6357  37.915   6.542  13.384
41197W        W 6358  21.005   6.715   2.283
41198W        W 6359   7.087  24.117   3.541
41199W        W 6360  40.985  18.177   0.722
41200W        W 6361  27.285  44.839   3.286
41201W        W 6362  34.049  17.637  10.525
41202W        W 6363  30.069  11.063   3.629
41203W        W 6364  22.651   9.780  11.458
41204W        W 6365   1.778   9.833  12.039
41205W        W 6366  10.712   5.989  11.260
41206W        W 6367  40.024  30.993   5.043
41207W        W 6368  28.782  19.762  11.869
41208W        W 6369   3.266   8.855   1.174
41209W        W 6370  35.309  35.365   3.916
41210W        W 6371  25.238   0.465   3.178
41211W        W 6372  29.685  30.561  14.960
41212W        W 6373  35.633  28.625  13.992
41213W        W 6374  25.487  18.675   1.188
41214W        W 6375  28.184  29.842   3.192
41215W        W 6376  11.647  29.438  12.031
41216W        W 6377  13.050   7.777   0.307
41217W        W 6378  28.568   7.525   2.327
41218W        W 6379   5.753  19.257  14.025
41219W        W 6380  29.751  29.192  13.482
41220W        W 6381  35.178  40.203  10.160
41221W        W 6382  20.846  21.358  12.840
41222W        W 6383   5.321  17.289   0.198
41223W        W 6384  12.636   9.120   1.229
41224W        W 6385   2.489  22.057  14.812
41225W        W 6386   2.220  33.521   0.982
41226W        W 6387  38.768  10.319  11.515
41227W        W 6388  14.170  15.648  12.070
41228W        W 6389  37.786  37.078   1.981
41229W        W 6390  33.792  23.311   4.097
41230W        W 6391   9.127  18.399   4.543
41231W        W 6392  12.007  24.795  11.383
41232W        W 6393  15.539  42.537  11.624
41233W        W 6394   5.667  30.102   2.772
41234W        W 6395  18.594  44.030   2.858
41235W        W 6396  20.365  17.475  14.070
41236W        W 6397  23.972  24.463   4.180
41237W        W 6398  32.831  38.787  14.454
41238W        W 6399   2.282  33.527  11.517
41239W        W 6400  17.828  20.284   4.711
41240W        W 6401  31.162  23.627  13.057
41241W        W 6402  26.946  21.483  14.695
41242W        W 6403   8.773  23.254   2.457
41243W        W 6404  25.590  19.249  13.091
41244W        W 6405   4.315  24.965   2.635
41245W        W 6406  26.168  22.612  11.485
41246W        W 6407  39.938  32.962   3.142
41247W        W 6408   2.043   6.832  12.435
41248W        W 6409  23.881  37.308   3.527
41249W        W 6410   6.193  25.015   5.145
41250W        W 6411  34.487  28.393   0.299
41251W        W 6412  39.792   7.199  11.641
41252W        W 6413  27.673  26.303  10.218
41253W        W 6414  39.328  27.072  12.921
41254W        W 6415  18.321  36.050  12.049
41255W        W 6416  11.417  28.774  14.768
41256W        W 6417  25.259  14.208  12.101
41257W        W 6418   2.981   2.410   2.469
41258W        W 6419   2.491   2.979  14.031
41259W        W 6420  34.062  28.545  13.969
41260W        W 6421   1.807  43.694  12.457
41261W        W 6422  20.619   3.157   0.815
41262W        W 6423   6.693   0.365  13.385
41263W        W 6424  30.672  16.694  10.712
41264W        W 6425  20.331  39.440  13.429
41265W        W 6426  44.067  23.211   0.914
41266W        W 6427  15.729  26.198   1.727
41267W        W 6428  28.456  30.845  10.778
41268W        W 6429   0.292  25.379   0.869
41269W        W 6430  18.286  25.482   2.900
41270W        W 6431  19.108  20.115  14.273
41271W        W 6432  16.267  24.436  11.969
41272W        W 6433  23.042  27.592   2.607
41273W        W 6434  26.681   1.934  13.930
41274W        W 6435  38.816  24.648  13.413
41275W        W 6436  24.513   1.075  14.790
41276W        W 6437  40.908  39.975  12.399
41277W        W 6438  17.746  30.709   4.119
41278W        W 6439  10.101  39.585  10.929
41279W        W 6440  25.112  25.002   3.134
41280W        W 6441   3.607  18.815   2.744
41281W        W 6442  18.461  41.319  13.849
41282W        W 6443   6.331  18.479  10.421
41283W        W 6444  35.289   7.024   3.595
41284W        W 6445  23.394  28.845  11.135
41285W        W 6446  39.735   4.525  13.513
41286W        W 6447  21.232  32.571  12.557
41287W        W 6448  22.998  25.691   0.738
41288W        W 6449  22.790  21.045   4.489
41289W        W 6450  40.914  35.171   0.219
41290W        W 6451  32.407   4.549  10.798
41291W        W 6452  36.359  37.232  12.008
41292W        W 6453  43.990  40.434   2.730
41293W        W 6454   3.335  41.384   3.566
41294W        W 6455   4.455  32.344  13.928
41295W        W 6456  18.212  10.893  12.449
41296W        W 6457  10.504  43.878  11.132
41297W        W 6458  31.429  27.880  13.569
41298W        W 6459  32.827  19.071   1.855
41299W        W 6460  30.133   6.149   0.669
41300W        W 6461   6.394  17.009  12.708
41301W        W 6462  31.593  34.643  13.567
41302W        W 6463  15.550   5.016  12.445
41303W        W 6464  23.710  23.439  14.899
41304W        W 6465   2.669   8.347  12.194
41305W        W 6466  14.916  34.636  14.879
41306W        W 6467  10.324  43.614  14.385
41307W        W 6468  44.839  28.046  11.996
41308W        W 6469   7.789  33.346   1.757
41309W        W 6470  26.011  19.576  13.083
41310W        W 6471  16.681  16.680   2.721
41311W        W 6472   6.666   4.172  14.411
41312W        W 6473  34.969  14.149   1.954
41313W        W 6474   1.240  39.633   2.883
41314W        W 6475  11.369  14.351   2.863
41315W        W 6476  22.976  19.230   1.765
41316W        W 6477  37.542  40.874   0.769
41317W        W 6478   1.987  13.366  14.099
41318W        W 6479  21.609   4.251   4.364
41319W        W 6480  39.722  26.140  12.202
41320W        W 6481   8.153  21.182  12.567
41321W        W 6482  39.903   0.439  14.197
41322W        W 6483  12.879  14.447   0.924
41323W        W 6484   7.340   2.996  10.765
41324W        W 6485  28.597  10.702  14.617
41325W        W 6486   4.010  33.446  10.581
41326W        W 6487  26.636  16.323   4.209
41327W        W 6488  34.999   8.553  12.727
41328W        W 6489  26.948   2.830   1.798
41329W        W 6490  35.515  14.798  12.049
41330W        W 6491  35.925  36.606   1.962
41331W        W 6492  26.250  41.502  11.655
41332W        W 6493  28.374  12.664  10.711
41333W        W 6494  36.542  39.918  10.231
41334W        W 6495   9.378  25.329  10.165
41335W        W 6496  32.887  15.066   1.922
41336W        W 6497  42.805  35.469  12.966
41337W        W 6498   5.951   9.091   1.923
41338W        W 6499  33.909  26.202  13.314
41339W        W 6500   3.672  19.919   0.365
41340W        W 6501   9.345   2.783  13.032
41341W        W 6502  33.823  15.075   2.637
41342W        W 6503  36.070  36.092  14.099
41343W        W 6504  33.991  16.454   1.304
41344W        W 6505  40.061  12.886  11.602
41345W        W 6506  34.837  26.196  14.811
41346W        W 6507   9.419  15.992   0.068
41347W        W 6508  13.076  11.158   2.308
41348W        W 6509  14.210  17.149   1.010
41349W        W 6510  12.357  31.899  11.202
41350W        W 6511  17.514   6.431   2.197
41351W        W 6512  27.995  12.032  10.263
41352W        W 6513  20.792  28.622   1.283
41353W        W 6514  25.279  36.960  10.634
41354W        W 6515  34.612  24.143   0.708
41355W        W 6516  43.900  16.486  14.156
41356W        W 6517  13.574  28.330  10.733
41357W        W 6518  10.364  18.800   1.677
41358W        W 6519  19.775  26.940  13.017
41359W        W 6520  33.936   2.247   3.628
41360W        W 6521  26.655  12.880  13.902
41361W        W 6522  17.040  30.130  12.169
41362W        W 6523  28.536  12.743   3.214
41363W        W 6524  32.601  28.533   3.318
41364W        W 6525   8.081  20.028   0.365
41365W        W 6526   0.385  18.498  11.966
41366W        W 6527  30.374  24.141   0.431
41367W        W 6528  13.687  43.661  11.528
41368W        W 6529  23.409   5.835   3.188
41369W        W 6530   7.064   6.811   4.497
41370W        W 6531  28.705  22.186   3.728
41371W        W 6532  40.043   5.332   4.527
41372W        W 6533  37.476   2.840  13.996
41373W        W 6534  40.926  35.492  12.017
41374W        W 6535  23.134  14.743  12.003
41375W        W 6536   9.692   0.660  13.496
41376W        W 6537  20.148  11.607   1.824
41377W        W 6538  17.238   1.243   2.745
41378W        W 6539  32.017  12.363   1.532
41379W        W 6540   5.625  27.362   5.265
41380W        W 6541   6.621  41.933  11.009
41381W        W 6542  41.552  17.134  12.444
41382W        W 6543  35.845  34.656  12.613
41383W        W 6544  34.445  33.196  12.175
41384W        W 6545  10.045  21.531  12.492
41385W        W 6546  26.008   7.719  10.610
41386W        W 6547  10.196  11.744  14.479
41387W        W 6548   3.964   6.893  12.885
41388W        W 6549  11.832  30.824   0.253
41389W        W 6550   1.392  32.958   3.074
41390W        W 6551  44.942  25.776   2.677
41391W        W 6552  33.936  25.731  10.697
41392W        W 6553   2.350   6.229   2.408
41393W        W 6554  42.304   4.560  11.215
41394W        W 6555  18.678  31.501   1.936
41395W        W 6556  17.799  22.525   3.371
41396W        W 6557  19.473  26.928  14.370
41397W        W 6558  21.146  38.437   4.216
41398W        W 6559   8.928  16.254   3.812
41399W        W 6560  25.970  23.550  11.142
41400W        W 6561   1.838  16.862   4.008
41401W        W 6562  16.000  28.752   3.537
41402W        W 6563  18.367  23.664  13.477
41403W        W 6564  16.027  19.657  13.487
41404W        W 6565  35.951   3.135  12.164
41405W        W 6566  31.103  29.060  10.638
41406W        W 6567  16.507  44.862  12.914
41407W        W 6568   0.345  21.552   2.901
41408W        W 6569  13.524  37.064   4.164
41409W        W 6570   1.531  42.793   2.286
41410W        W 6571  21.789  18.623  14.758
41411W        W 6572  30.511   1.034   0.747
41412W        W 6573  33.395   7.918   3.686
41413W        W 6574  22.030  19.329  12.448
41414W        W 6575  21.484   4.905   3.200
41415W        W 6576  21.119  42.255  10.699
41416W        W 6577  32.126  22.512  12.215
41417W        W 6578   5.384  41.644   2.565
41418W        W 6579  39.138  36.832  11.222
41419W        W 6580  37.508  19.504  10.721
41420W        W 6581  33.403   9.716  11.636
41421W        W 6582   9.709  26.909   2.114
41422W        W 6583  42.920  16.514   0.073
41423W        W 6584  30.219  34.179  12.641
41424W        W 6585   8.981   3.140   0.005
41425W        W 6586  31.506  44.067   1.791
41426W        W 6587  10.293  22.985  11.971
41427W        W 6588  10.583  20.195  11.694
41428W        W 6589  42.768  12.541  11.578
41429W        W 6590  32.408  16.215   0.349
41430W        W 6591   3.043  21.288  11.522
41431W        W 6592  37.915   4.263   3.235
41432W        W 6593  31.074  41.119   2.581
41433W        W 6594  11.821   8.316  12.031
41434W        W 6595  32.071   0.765   1.095
41435W        W 6596  31.962   1.955  14.236
41436W        W 6597   6.623  19.065  12.462
41437W        W 6598  20.504   0.557   1.819
41438W        W 6599  15.728  35.853  13.494
41439W        W 6600  38.187  10.679  12.325
41440W        W 6601  34.280  15.017  12.066
41441W        W 6602   2.506   9.220   1.357
41442W        W 6603   8.396   0.897  12.010
41443W        W 6604   2.473  22.054   0.842
41444W        W 6605  40.535   3.206  12.894
41445W        W 6606  33.315  29.388   1.781
41446W        W 6607   9.343  32.152   1.794
41447W        W 6608   5.317  43.808  14.797
41448W        W 6609  26.516  16.413   0.324
41449W        W 6610  20.981  17.204  14.101
41450W        W 6611  30.243  38.799  11.585
41451W        W 6612  41.443  30.876  13.480
41452W        W 6613  31.624   0.217  13.984
41453W        W 6614  24.139  15.390   4.615
41454W        W 6615  26.655  29.246  11.516
41455W        W 6616   8.193  43.614   4.592
41456W        W 6617  13.612  11.612   4.150
41457W        W 6618   1.160  19.610  10.788
41458W        W 6619   8.104   3.289   3.746
41459W        W 6620   9.243  38.030   2.788
41460W        W 6621  32.299  17.982  14.509
41461W        W 6622  17.583  25.023   1.242
41462W        W 6623  43.001   8.351   4.578
41463W        W 6624   1.320  11.694   1.479
41464W        W 6625   0.973  14.272  13.545
41465W        W 6626   0.858  44.968  11.895
41466W        W 6627  43.392  13.690   3.696
41467W        W 6628  18.795   9.275  14.042
41468W        W 6629  16.273   8.131  11.058
41469W        W 6630  12.043  23.667   0.948
41470W        W 6631  33.172  13.355  10.886
41471W        W 6632  44.706  15.620   4.349
41472W        W 6633  35.308  21.147   3.670
41473W        W 6634   6.857  15.870  11.963
41474W        W 6635  17.059  34.559   1.580
41475W        W 6636  27.489  32.645   0.032
41476W        W 6637  24.446  23.523   0.421
41477W        W 6638  32.643   2.618  11.979
41478W        W 6639  40.560  19.603   3.203
41479W        W 6640  20.924   7.677  13.955
41480W        W 6641   2.832  13.161  13.553
41481W        W 6642  26.670  20.608  13.126
41482W        W 6643  14.351  42.737  12.513
41483W        W 6644  13.129   7.496   3.605
41484W        W 6645   9.412  18.648   0.762
41485W        W 6646  35.065   0.449  13.572
41486W        W 6647   5.047   4.284  12.497
41487W        W 6648  27.745  14.310  14.246
41488W        W 6649   9.331  36.515  13.486
41489W        W 6650   6.226  15.829  11.487
41490W        W 6651   6.351  12.932  12.912
41491W        W 6652  27.908  37.525  13.944
41492W        W 6653  38.842  15.230  13.052
41493W        W 6654  17.207   1.170  13.976
41494W        W 6655  37.913  13.067   1.180
41495W        W 6656  15.556  34.057  14.063
41496W        W 6657  31.089  29.078  11.527
41497W        W 6658  22.949  11.143  12.961
41498W        W 6659  31.130  43.671  14.529
41499W        W 6660  43.731  12.539  11.691
41500W        W 6661  20.686  37.306   4.544
41501W        W 6662  18.695  41.871   3.584
41502W        W 6663  11.997  30.511  12.125
41503W        W 6664  44.757  10.884   0.118
41504W        W 6665  36.084  26.102  13.410
41505W        W 6666  24.502  42.014   3.651
41506W        W 6667  42.866  35.793  13.398
41507W        W 6668  35.595   0.049   0.950
41508W        W 6669  41.696  30.138   1.840
41509W        W 6670  19.128   0.920   4.620
41510W        W 6671  22.568  39.283  12.663
41511W        W 6672   7.893   5.214   0.922
41512W        W 6673  33.972  44.424   2.397
41513W        W 6674  35.074  36.046  14.173
41514W        W 6675  42.235  43.982  11.638
41515W        W 6676  40.112   8.388  14.898
41516W        W 6677   0.951   6.945   4.130
41517W        W 6678  40.286  25.240   0.507
41518W        W 6679  20.576  20.503  13.093
41519W        W 6680  17.452  36.338   0.062
41520W        W 6681  30.007  21.100   4.231
41521W        W 6682   9.291  24.569  14.662
41522W        W 6683  23.954  35.888  13.836
41523W        W 6684   9.132  19.744  12.899
41524W        W 6685  41.528  42.654  13.902
41525W        W 6686  29.580  34.342  11.631
41526W        W 6687  38.526   8.782  14.254
41527W        W 6688   8.740   0.652   4.029
41528W        W 6689  23.976   1.909  14.691
41529W        W 6690  39.634  25.101  14.430
41530W        W 6691  32.209  16.190  11.659
41531W        W 6692  40.392  31.295   3.643
41532W        W 6693  23.621   2.597   1.800
41533W        W 6694  26.908  44.802   3.636
41534W        W 6695   2.805  33.139   2.622
41535W        W 6696  13.609  16.924   2.768
41536W        W 6697  17.997  17.802  12.981
41537W        W 6698  32.144  22.109  12.947
41538W        W 6699  25.201   9.004   1.613
41539W        W 6700  42.241  29.923   2.339
41540W        W 6701  28.525   7.312  13.802
41541W        W 6702  19.974  26.452   3.662
41542W        W 6703  39.912  34.153  13.894
41543W        W 6704  16.252   6.285  11.689
41544W        W 6705   5.738  29.183   1.146
41545W        W 6706  32.994  16.616   0.896
41546W        W 6707  28.450  12.311   3.499
41547W        W 6708  43.075   7.542  13.629
41548W        W 6709   8.165  37.816  12.570
41549W        W 6710   7.675  21.076  12.404
41550W        W 6711   0.908  23.857   0.150
41551W        W 6712  27.952  27.090  14.446
41552W        W 6713  31.748   1.050  14.861
41553W        W 6714  18.681  35.425  14.835
41554W        W 6715  34.555  38.787  14.019
41555W        W 6716   5.980  38.375   0.986
41556W        W 6717  26.760  34.020  13.789
41557W        W 6718  16.386   8.924  11.989
41558W        W 6719  32.922  24.120  14.294
41559W        W 6720  31.863  10.406   2.969
41560W        W 6721  35.690  11.418  12.561
41561W        W 6722  37.530  15.647  14.145
41562W        W 6723  20.192  33.321  12.105
41563W        W 6724  16.099  11.672  12.490
41564W        W 6725  30.282   0.943   1.762
41565W        W 6726  22.780  39.576  13.847
41566W        W 6727   3.416  27.574   4.015
41567W        W 6728  33.146  11.927  13.663
41568W        W 6729  35.048   3.689  13.073
41569W        W 6730  37.001  37.309   1.106
41570W        W 6731  27.651  19.526   3.236
41571W        W 6732  25.455   0.794  13.003
41572W        W 6733   8.280   4.253  13.998
41573W        W 6734  11.344  13.558   1.878
41574W        W 6735  11.065   5.021   2.665
41575W        W 6736  34.580  11.561  11.642
41576W        W 6737   7.681  37.294   0.649
41577W        W 6738  10.894  16.178   3.702
41578W        W 6739  16.129   3.487   1.835
41579W        W 6740  27.597  16.364   4.249
41580W        W 6741  30.551   3.439   4.598
41581W        W 6742  14.217  20.492   0.377
41582W        W 6743  42.411   4.338   2.707
41583W        W 6744  24.984   0.871   3.362
41584W        W 6745  38.304  37.753   0.019
41585W        W 6746  28.253  13.559   2.285
41586W        W 6747  12.804  23.185  12.495
41587W        W 6748  17.881  18.712   4.315
41588W        W 6749   8.423  18.254   4.163
41589W        W 6750   5.905  36.458  14.562
41590W        W 6751  24.058  40.818  11.099
41591W        W 6752  23.709  33.491  11.185
41592W        W 6753  43.468  32.012  14.994
41593W        W 6754  27.384   3.382   1.374
41594W        W 6755   9.714   0.863   2.950
41595W        W 6756  24.604  12.197  14.284
41596W        W 6757   6.246  44.832   4.556
41597W        W 6758  37.320   4.389   4.145
41598W        W 6759  32.578  34.352  13.013
41599W        W 6760  24.434  25.282   4.241
41600W        W 6761  26.033  12.695  14.683
41601W        W 6762  19.086  41.851  12.056
41602W        W 6763  16.755   9.614   3.153
41603W        W 6764   0.570  26.461  12.918
41604W        W 6765  16.663   0.399   0.514
41605W        W 6766  36.229  23.590  11.165
41606W        W 6767  36.193  22.480  14.322
41607W        W 6768  16.269  15.671  13.845
41608W        W 6769   8.404  12.107  13.391
41609W        W 6770  44.626  12.533   3.592
41610W        W 6771   6.697  24.605   0.454
41611W        W 6772  15.607  42.895   4.014
41612W        W 6773  41.873  15.445  12.990
41613W        W 6774  18.399  35.069   3.882
41614W        W 6775  26.872  13.284  12.735
41615W        W 6776   4.800  42.236   4.600
41616W        W 6777  15.173  25.596   2.351
41617W        W 6778   3.554   1.692   1.312
41618W        W 6779   0.484  26.568   2.845
41619W        W 6780   3.354  26.991   0.935
41620W        W 6781  39.295  19.108  14.566
41621W        W 6782  44.416  42.483  13.881
41622W        W 6783  43.502  43.323  13.323
41623W        W 6784  37.995   4.568  14.785
41624W        W 6785   2.963  23.032  12.651
41625W        W 6786   5.216  12.197   9.615
41626W        W 6787  43.069  35.017   0.852
41627W        W 6788  11.741  24.454  13.117
41628W        W 6789   2.838   6.294  14.541
41629W        W 6790  27.999  27.078   3.094
41630W        W 6791  31.788  35.431  13.902
41631W        W 6792   8.679   0.842   4.501
41632W        W 6793   1.655  24.043   2.689
41633W        W 6794  10.192  31.669   4.295
41634W        W 6795  40.309  30.828  11.147
41635W        W 6796   1.332  11.060  10.332
41636W        W 6797   3.786  32.989  11.598
41637W        W 6798  35.690   6.393   2.302
41638W        W 6799  30.038  13.736   3.107
41639W        W 6800  22.537  42.815  11.660
41640W        W 6801  13.885  24.945   4.148
41641W        W 6802  17.297  39.691  14.339
41642W        W 6803   9.280  20.774   1.492
41643W        W 6804  12.762  39.318  14.412
41644W        W 6805  18.201  22.058   2.652
41645W        W 6806  17.057  44.507   3.250
41646W        W 6807  15.840   9.729  13.044
41647W        W 6808  32.017  12.440  12.005
41648W        W 6809   1.630  32.631   1.464
41649W        W 6810  24.083  20.534   0.950
41650W        W 6811   8.891  37.662   4.849
41651W        W 6812  16.650   2.416   0.879
41652W        W 6813  20.673  44.296  12.064
41653W        W 6814  17.178  13.182   1.496
41654W        W 6815  38.286  34.849  11.942
41655W        W 6816  28.435   2.812  11.123
41656W        W 6817   3.708  12.855   5.335
41657W        W 6818  44.496  28.195  12.546
41658W        W 6819  36.914  26.033  13.012
41659W        W 6820  15.551   0.192  13.479
41660W        W 6821  39.456  14.470   1.336
41661W        W 6822   2.647   8.773  13.498
41662W        W 6823   4.417  35.440   2.458
41663W        W 6824  30.451  27.683   0.410
41664W        W 6825  33.055  14.247  10.374
41665W        W 6826  41.011  20.726  12.491
41666W        W 6827  42.859  36.294   0.873
41667W        W 6828  36.047   4.193  12.463
41668W        W 6829  37.342  16.581  11.190
41669W        W 6830  36.551  33.922  10.649
41670W        W 6831   8.320  40.724  12.632
41671W        W 6832  28.095  21.018   0.734
41672W        W 6833   7.239   8.922  13.420
41673W        W 6834  27.926  41.743   2.395
41674W        W 6835  12.175  30.332  11.671
41675W        W 6836   1.506   9.329  14.880
41676W        W 6837  14.276   1.223  14.296
41677W        W 6838   3.681  36.922  11.321
41678W        W 6839   1.737  28.063   2.729
41679W        W 6840  36.914   8.348  13.540
41680W        W 6841  15.910  26.663   1.788
41681W        W 6842  19.168  37.490   3.367
41682W        W 6843  14.620  37.945  11.690
41683W        W 6844   0.235   2.612   4.105
41684W        W 6845  29.055  44.203   0.705
41685W        W 6846  26.548  27.471  11.127
41686W        W 6847   4.408  41.875  10.505
41687W        W 6848  42.857  41.316  12.844
41688W        W 6849  22.039   0.997  10.667
41689W        W 6850  14.360  10.931  12.060
41690W        W 6851  42.291   5.426  11.466
41691W        W 6852  10.230  28.694   4.580
41692W        W 6853  35.334  37.870  13.759
41693W        W 6854   6.349  29.042   5.028
41694W        W 6855  32.547  14.035   1.419
41695W        W 6856  21.332  40.473   0.278
41696W        W 6857   6.421  17.627   1.974
41697W        W 6858  27.108  13.666   2.810
41698W        W 6859  35.326  33.217  12.343
41699W        W 6860  32.253  33.596  13.585
41700W        W 6861  15.859   8.900  13.741
41701W        W 6862  27.105  24.819   5.400
41702W        W 6863  32.066  28.465  14.890
41703W        W 6864  11.729  35.374   1.601
41704W        W 6865  38.067  27.808   4.233
41705W        W 6866   2.047  41.774  14.148
41706W        W 6867  12.133  34.713   3.184
41707W        W 6868   5.710  43.243   4.707
41708W        W 6869   6.789  26.603   3.157
41709W        W 6870   4.586  34.803  13.150
41710W        W 6871  14.804  16.638  12.384
41711W        W 6872  14.662  34.075   0.475
41712W        W 6873  33.006  36.103  11.628
41713W        W 6874  42.209  29.509   0.261
41714W        W 6875  29.460  26.814  10.021
41715W        W 6876   7.431   5.689  12.234
41716W        W 6877  14.882  36.525   3.160
41717W        W 6878  11.426  14.216   0.990
41718W        W 6879  27.495  27.878  10.164
41719W        W 6880  43.637  30.733  11.965
41720W        W 6881  35.060  31.567  10.433
41721W        W 6882  28.063  21.794  14.338
41722W        W 6883   4.584   0.602   9.915
41723W        W 6884   6.988  28.907   2.712
41724W        W 6885   3.991  26.512   1.348
41725W        W 6886   7.698   9.441   1.785
41726W        W 6887  44.982  22.462   1.952
41727W        W 6888  43.179  21.544   2.150
41728W        W 6889  38.929   5.250  11.844
41729W        W 6890  10.660  18.553   1.170
41730W        W 6891   2.333  23.509  11.558
41731W        W 6892   2.208  41.755   2.776
41732W        W 6893  35.022  32.169  12.498
41733W        W 6894  17.074   2.454  14.962
41734W        W 6895   0.714  29.155   0.363
41735W        W 6896  32.390  30.143   4.917
41736W        W 6897   9.231  16.614  13.889
41737W        W 6898  10.583  17.062   2.699
41738W        W 6899  20.588  18.204   3.108
41739W        W 6900  18.381  39.451  12.124
41740W        W 6901  20.486   9.257  13.562
41741W        W 6902  29.600  23.895  12.259
41742W        W 6903  16.068  30.524   4.285
41743W        W 6904  13.653   2.916   0.449
41744W        W 6905   7.415  14.565  13.534
41745W        W 6906  31.165  28.896   0.380
41746W        W 6907  31.073  15.567  14.375
41747W        W 6908  31.971  26.607   3.373
41748W        W 6909  28.902  12.691  11.566
41749W        W 6910  31.170  22.590  14.527
41750W        W 6911   9.882  40.249  12.824
41751W        W 6912  18.835  29.821   0.922
41752W        W 6913  18.771  14.772  13.804
41753W        W 6914  43.463  34.965   1.170
41754W        W 6915   1.599   3.322   4.191
41755W        W 6916  26.774  33.031   3.634
41756W        W 6917  12.426   4.796   3.659
41757W        W 6918  44.194  23.523   0.392
41758W        W 6919   5.381  12.078  13.415
41759W        W 6920   6.856  16.220   0.460
41760W        W 6921  41.326  14.583  13.841
41761W        W 6922  30.073  29.661  12.533
41762W        W 6923  38.966  14.319   1.093
41763W        W 6924  30.265  34.827  12.624
41764W        W 6925   8.624  23.432  12.043
41765W        W 6926  11.820  18.257  12.886
41766W        W 6927  40.757  16.763  13.445
41767W        W 6928   7.776  43.232   2.428
41768W        W 6929  20.641  15.636   0.398
41769W        W 6930  34.489  16.237   2.655
41770W        W 6931  15.365   1.774  12.148
41771W        W 6932   7.475  10.791   0.716
41772W        W 6933   5.202  24.392   9.930
41773W        W 6934   0.672  23.665  10.785
41774W        W 6935   2.850  28.912   2.848
41775W        W 6936   9.193  41.024  14.106
41776W        W 6937  23.239  31.661   0.316
41777W        W 6938  36.994   4.472  10.684
41778W        W 6939  43.209  16.099  14.901
41779W        W 6940   1.554  14.587  11.609
41780W        W 6941  20.123  39.661   3.792
41781W        W 6942  17.200   4.735   2.361
41782W        W 6943   8.353  43.234   2.282
41783W        W 6944  13.995  30.958   0.738
41784W        W 6945   4.286  17.367   1.785
41785W        W 6946  42.975  27.170   4.419
41786W        W 6947  17.594   3.566   0.794
41787W        W 6948  25.737   4.225  13.565
41788W        W 6949  27.529  13.717  13.078
41789W        W 6950  36.119  12.171  13.026
41790W        W 6951  31.038  18.249  11.890
41791W        W 6952   0.271   4.375   3.394
41792W        W 6953  29.997  38.300  11.789
41793W        W 6954  40.456  14.849   0.078
41794W        W 6955  10.415   9.401  14.441
41795W        W 6956  21.221  17.806  13.511
41796W        W 6957  14.078  39.878  14.265
41797W        W 6958   9.410   6.734  14.254
41798W        W 6959  18.029   3.333  14.948
41799W        W 6960  14.371   9.854   0.415
41800W        W 6961  26.077   4.663  12.413
41801W        W 6962  16.019  17.716  13.082
41802W        W 6963   6.882  39.369  13.590
41803W        W 6964  24.076  16.688   3.839
41804W        W 6965  44.154  32.357  11.218
41805W        W 6966  43.743  33.636  11.145
41806W        W 6967  29.016  34.376   0.908
41807W        W 6968  29.471   1.538   3.095
41808W        W 6969  20.205  29.511   2.924
41809W        W 6970  14.337  15.745  14.013
41810W        W 6971  18.347   3.975  10.680
41811W        W 6972  17.134  21.702   2.432
41812W        W 6973   4.386  19.272  13.346
41813W        W 6974  36.755  17.654   2.316
41814W        W 6975  25.271   6.319  13.601
41815W        W 6976  27.872  17.485  11.639
41816W        W 6977   0.455  14.143   2.836
41817W        W 6978  15.986  15.203  13.969
41818W        W 6979   9.230  15.856   5.044
41819W        W 6980  17.771  19.779  14.016
41820W        W 6981  32.392  35.304   0.289
41821W        W 6982  15.493   3.297   4.949
41822W        W 6983   2.960   9.642  11.087
41823W        W 6984  26.662  24.550   4.608
41824W        W 6985  24.913  10.096   0.813
41825W        W 6986   1.041   3.474  10.598
41826W        W 6987  21.970   1.481   1.720
41827W        W 6988  34.284  15.204   0.477
41828W        W 6989  36.111  18.579   1.423
41829W        W 6990  27.984   9.880  13.273
41830W        W 6991   6.223  16.762  10.408
41831W        W 6992   1.691  18.717   2.415
41832W        W 6993  28.754  30.146   0.431
41833W        W 6994  10.744  42.739   2.762
41834W        W 6995  32.983  39.362  12.148
41835W        W 6996  21.921   5.352  11.023
41836W        W 6997  32.684  40.874   2.211
41837W        W 6998  20.097   7.636   4.055
41838W        W 6999  18.226  20.099   3.550
41839W        W 7000  37.913  40.597   1.553
41840W        W 7001  40.564  39.123  11.602
41841W        W 7002  19.702  14.592  12.561
41842W        W 7003  31.700   1.791  10.689
41843W        W 7004  24.309  31.467   0.873
41844W        W 7005  38.554  14.616  11.359
41845W        W 7006  25.043  36.064   1.334
41846W        W 7007  43.470  21.460   4.160
41847W        W 7008  38.585  41.189   1.227
41848W        W 7009  19.704  33.998   4.246
41849W        W 7010  35.907  35.588  10.754
41850W        W 7011  15.798   7.920  11.123
41851W        W 7012  19.036   6.783  11.500
41852W        W 7013  28.852  36.295  11.171
41853W        W 7014  42.978  38.818   1.889
41854W        W 7015  36.289  12.666   3.483
41855W        W 7016  10.051   2.675   2.796
41856W        W 7017  37.350  38.772   0.411
41857W        W 7018   7.779  19.135   3.654
41858W        W 7019  26.201  10.305   1.466
41859W        W 7020  21.423  16.810  14.831
41860W        W 7021  41.208  11.129  14.997
41861W        W 7022  14.331  32.899   3.356
41862W        W 7023  38.881   3.968   2.802
41863W        W 7024  42.181  24.544   1.854
41864W        W 7025  38.274  32.123   3.429
41865W        W 7026  38.348  39.989  13.836
41866W        W 7027   1.726  41.502  12.006
41867W        W 7028  37.329  30.682   0.980
41868W        W 7029  16.649  34.661   1.280
41869W        W 7030  36.127  22.051  12.881
41870W        W 7031  35.102   2.336   1.894
41871W        W 7032   8.671  42.272  14.089
41872W        W 7033  11.727  36.887  10.472
41873W        W 7034   2.892  42.639  12.922
41874W        W 7035  38.033  16.750   4.569
41875W        W 7036  38.960  15.596  14.897
41876W        W 7037   8.224   7.882   1.925
41877W        W 7038  42.036  15.670  10.778
41878W        W 7039   7.774  17.843  13.546
41879W        W 7040   0.266  44.203   1.378
41880W        W 7041  29.622  42.580  10.860
41881W        W 7042  16.003  36.322   2.184
41882W        W 7043  14.135  42.771   0.224
41883W        W 7044  44.249  27.631   2.228
41884W        W 7045   4.635  33.874  14.788
41885W        W 7046  10.635   4.687   2.377
41886W        W 7047  25.405   1.711   0.955
41887W        W 7048  16.581  14.643  14.471
41888W        W 7049   9.289   8.659  13.595
41889W        W 7050  19.319  44.753  12.596
41890W        W 7051  25.711  32.707   3.578
41891W        W 7052  11.388  43.412  12.864
41892W        W 7053  40.130   8.214  12.091
41893W        W 7054  16.793  26.706   1.345
41894W        W 7055  19.175  42.065   1.713
41895W        W 7056  29.158  18.186  14.838
41896W        W 7057   7.321  39.320  14.231
41897W        W 7058  24.721  36.545   1.289
41898W        W 7059  44.390   6.285  13.146
41899W        W 7060   9.725  37.339   0.154
41900W        W 7061   6.335  40.248  10.949
41901W        W 7062  21.851   1.373   0.377
41902W        W 7063  16.720   9.111  14.350
41903W        W 7064   8.283   7.531  11.854
41904W        W 7065  38.142  43.882   1.188
41905W        W 7066  19.564  21.288   0.748
41906W        W 7067  29.214  17.299  12.592
41907W        W 7068  40.739  10.634   1.644
41908W        W 7069  30.103  12.678  12.335
41909W        W 7070   7.801  24.825   0.424
41910W        W 7071  19.644  29.962   0.612
41911W        W 7072  33.050   9.524  10.286
41912W        W 7073  43.889  18.179   0.549
41913W        W 7074  10.755  25.475  12.120
41914W        W 7075  19.717  22.678  14.302
41915W        W 7076  32.867  38.089   4.865
41916W        W 7077  13.058   5.291  12.857
41917W        W 7078  33.633  34.097   2.798
41918W        W 7079  31.210   4.473  12.176
41919W        W 7080   2.960  16.849  10.630
41920W        W 7081  13.017  22.804   0.232
41921W        W 7082  18.097  12.792   1.283
41922W        W 7083   0.189  42.367   4.507
41923W        W 7084  35.525  38.135  13.338
41924W        W 7085  13.017   5.790  11.529
41925W        W 7086  25.699  26.822   0.456
41926W        W 7087  19.418  25.915   1.322
41927W        W 7088  20.012  12.027   2.783
41928W        W 7089  36.818  16.837  13.089
41929W        W 7090  44.908   0.754   2.275
41930W        W 7091  19.182   4.673  10.811
41931W        W 7092  28.852  43.573  13.928
41932W        W 7093  27.226  44.569  10.222
41933W        W 7094  24.388  12.250   3.316
41934W        W 7095  37.822  41.237  11.848
41935W        W 7096  38.929  36.208  14.346
41936W        W 7097  44.634  42.836   4.044
41937W        W 7098  27.644  19.101   1.978
41938W        W 7099  24.915  10.211   2.156
41939W        W 7100  35.588  37.423  13.865
41940W        W 7101  42.066  36.610  11.591
41941W        W 7102  13.057  19.672  13.000
41942W        W 7103  16.834  29.110   2.444
41943W        W 7104   1.015  30.418  14.285
41944W        W 7105  28.893  12.641  10.699
41945W        W 7106  10.623  38.378  11.109
41946W        W 7107  22.111  33.272  14.719
41947W        W 7108   2.545  36.899  14.935
41948W        W 7109  38.655  31.112   1.357
41949W        W 7110   2.189   4.705  11.577
41950W        W 7111  30.298  42.436   2.431
41951W        W 7112  27.453  44.328   1.200
41952W        W 7113  10.246   5.721   0.551
41953W        W 7114  43.243  35.346   4.731
41954W        W 7115   1.029  31.593   1.441
41955W        W 7116  28.995  41.989   1.257
41956W        W 7117   0.664   7.948   1.775
41957W        W 7118  23.142   7.339  13.955
41958W        W 7119  36.046  12.707  14.614
41959W        W 7120  12.148  14.061  14.767
41960W        W 7121  23.799  42.537   1.268
41961W        W 7122   6.221  27.075  11.309
41962W        W 7123  13.175  39.392   4.467
41963W        W 7124  36.357   1.412  12.329
41964W        W 7125  44.035  19.509   1.158
41965W        W 7126  23.784   0.527   4.141
41966W        W 7127  29.490  43.321  12.047
41967W        W 7128  13.214  20.722  11.897
41968W        W 7129  14.570  32.176  11.479
41969W        W 7130   4.404  34.343  14.367
41970W        W 7131  32.109   5.745  14.815
41971W        W 7132  16.862   1.000  11.934
41972W        W 7133  42.817  33.943  13.316
41973W        W 7134   5.283  30.429   2.331
41974W        W 7135   0.105  13.453  14.349
41975W        W 7136  31.629  15.455  10.697
41976W        W 7137  37.581  33.977  12.518
41977W        W 7138  25.284  41.448  14.746
41978W        W 7139   0.286   3.791   1.628
41979W        W 7140  29.560  23.792  13.828
41980W        W 7141   2.222  27.455   4.219
41981W        W 7142  18.715  40.114   2.305
41982W        W 7143  41.233   1.797  11.098
41983W        W 7144  40.755  34.096   2.775
41984W        W 7145  41.099  17.973  10.815
41985W        W 7146  35.053   1.894  12.901
41986W        W 7147  17.692   1.214   0.524
41987W        W 7148  19.717   3.276   3.124
41988W        W 7149   0.003  33.820  13.543
41989W        W 7150  30.888   7.582   0.730
41990W        W 7151   6.202  17.276  14.072
41991W        W 7152   5.216  21.236   1.028
41992W        W 7153  44.088  10.257  11.655
41993W        W 7154   8.917  26.551  13.921
41994W        W 7155  15.018  13.771  12.663
41995W        W 7156  21.826  10.341  14.734
41996W        W 7157   9.598   1.797   4.375
41997W        W 7158  23.553  19.789  10.714
41998W        W 7159  15.233   2.751  13.730
41999W        W 7160  17.748  33.640   2.924
42000W        W 7161  39.404  12.206   0.798
42001W        W 7162  18.585  23.465  13.896
42002W        W 7163  25.375  40.519   5.399
42003W        W 7164  38.887  31.975  13.604
42004W        W 7165  37.010  42.124   4.976
42005W        W 7166  28.917   3.199   0.919
42006W        W 7167   4.776  26.337   3.158
42007W        W 7168   8.860   7.351   1.323
42008W        W 7169   9.570  15.977   1.868
42009W        W 7170  25.593  43.643  14.880
42010W        W 7171  25.910  33.837   0.456
42011W        W 7172   5.944  24.135   1.224
42012W        W 7173  31.993   6.848   4.905
42013W        W 7174  35.545  18.106  11.024
42014W        W 7175  28.144  21.749   4.501
42015W        W 7176  44.283  25.963   0.302
42016W        W 7177   9.144  44.428   1.108
42017W        W 7178  43.855  34.675  12.099
42018W        W 7179  38.456  10.406  11.035
42019W        W 7180  18.072  21.091  12.274
42020W        W 7181  33.508   4.616   3.695
42021W        W 7182  41.964   0.786   2.289
42022W        W 7183  15.236  42.689  12.056
42023W        W 7184  17.722  20.569  11.425
42024W        W 7185   2.647  34.365  14.800
42025W        W 7186  34.702  34.682  10.693
42026W        W 7187  14.161  39.370   1.033
42027W        W 7188  14.220  43.254  12.510
42028W        W 7189  36.098  12.613   1.075
42029W        W 7190  20.599  37.834  13.184
42030W        W 7191  24.473  42.912   3.721
42031W        W 7192   3.796  27.228   3.969
42032W        W 7193  43.127  21.921  14.596
42033W        W 7194  41.502   1.346  13.302
42034W        W 7195  31.335   9.667  13.715
42035W        W 7196  30.655   4.422  12.608
42036W        W 7197  32.571  25.042  11.601
42037W        W 7198  38.287  11.822  13.573
42038W        W 7199  37.525   2.630   3.717
42039W        W 7200  13.116  43.324   0.518
42040W        W 7201  19.627  44.499   2.526
42041W        W 7202  26.421  18.273   5.098
42042W        W 7203  37.663   0.980  14.414
42043W        W 7204  38.939  25.232   2.760
42044W        W 7205  21.301   4.845  10.673
42045W        W 7206  39.489  37.764  14.033
42046W        W 7207   8.699  22.244   4.753
42047W        W 7208  37.957   3.771   1.877
42048W        W 7209  34.971  37.559  14.249
42049W        W 7210  24.756   8.710  13.867
42050W        W 7211  10.858   4.246   2.804
42051W        W 7212  20.420  39.247   3.713
42052W        W 7213  42.564  16.089   3.907
42053W        W 7214  17.656   4.226   3.295
42054W        W 7215  39.911  21.201  14.417
42055W        W 7216  16.000  25.035   0.350
42056W        W 7217  30.638  37.032   1.829
42057W        W 7218  27.548  20.496   4.653
42058W        W 7219  15.069  37.010   3.192
42059W        W 7220   3.332   4.166   1.761
42060W        W 7221   1.138  23.482  12.778
42061W        W 7222  22.222  17.394  14.687
42062W        W 7223  36.820  16.300   0.890
42063W        W 7224  27.744  41.855   1.770
42064W        W 7225  37.149  44.945   2.733
42065W        W 7226  37.382  37.461  10.093
42066W        W 7227  11.190  14.884   2.021
42067W        W 7228  23.185  19.821   5.387
42068W        W 7229  14.147  22.547   4.286
42069W        W 7230   8.238  38.485  10.602
42070W        W 7231  30.045  19.487   4.887
42071W        W 7232  30.984  43.330   0.392
42072W        W 7233   3.460   5.573  11.659
42073W        W 7234  11.632  30.886  14.374
42074W        W 7235  25.601   8.406   2.286
42075W        W 7236  21.680   9.565  14.085
42076W        W 7237   3.790  20.013  10.960
42077W        W 7238  37.484  31.086   3.508
42078W        W 7239  16.283  10.259  13.717
42079W        W 7240  33.021   4.177   0.735
42080W        W 7241  43.920  27.060   1.547
42081W        W 7242  39.337  36.014  14.054
42082W        W 7243  19.703  36.695   0.952
42083W        W 7244  14.823  18.810  12.538
42084W        W 7245   3.717  31.123  11.677
42085W        W 7246  16.754  38.472  10.546
42086W        W 7247  32.024  34.364   1.063
42087W        W 7248   0.539  30.459   4.111
42088W        W 7249  34.976  21.486  14.586
42089W        W 7250  42.447  31.885  14.855
42090W        W 7251   0.226  37.375  12.466
42091W        W 7252  32.092  22.517   2.786
42092W        W 7253   6.153  35.018   2.852
42093W        W 7254  32.933  33.502   4.706
42094W        W 7255  35.795  32.047   1.985
42095W        W 7256   3.806  43.670   4.574
42096W        W 7257  24.758  18.176   4.154
42097W        W 7258  18.352  23.329   0.860
42098W        W 7259  11.878  38.470  12.895
42099W        W 7260   4.715   7.252   0.035
42100W        W 7261  33.861  42.170  10.701
42101W        W 7262  18.210  21.228  12.960
42102W        W 7263   4.887  31.554  14.910
42103W        W 7264   7.854  20.295  13.367
42104W        W 7265  12.560  35.051  11.135
42105W        W 7266   6.335  43.952   4.037
42106W        W 7267   6.789   2.990   2.397
42107W        W 7268  40.425  38.005  13.767
42108W        W 7269  33.143  31.886  11.060
42109W        W 7270  38.767  31.801  12.502
42110W        W 7271  40.928   5.660   1.379
42111W        W 7272  20.708  25.992  14.800
42112W        W 7273  41.401  12.348  11.729
42113W        W 7274   1.988  30.522  13.420
42114W        W 7275   4.280  20.047   1.232
42115W        W 7276   3.727  22.261  13.600
42116W        W 7277   1.857  40.642  10.721
42117W        W 7278  10.614   2.003  13.521
42118W        W 7279  23.320  33.101  14.848
42119W        W 7280  13.429   4.413  12.956
42120W        W 7281   8.309  26.233   0.789
42121W        W 7282  29.836  25.688  14.805
42122W        W 7283  36.689  17.292   0.761
42123W        W 7284  37.345  26.988   4.641
42124W        W 7285  10.691  36.125  10.896
42125W        W 7286  33.937  29.895   2.188
42126W        W 7287   7.013  39.087   2.854
42127W        W 7288   6.347  20.167   0.495
42128W        W 7289  14.577  42.087  11.977
42129W        W 7290  25.544  21.078  13.586
42130W        W 7291  43.805  32.407   2.207
42131W        W 7292  34.900  14.473   1.380
42132W        W 7293  23.442  10.206  13.916
42133W        W 7294  30.679  37.496  11.632
42134W        W 7295   9.901   8.353  12.379
42135W        W 7296  23.914  31.435  11.069
42136W        W 7297   0.277  44.871  11.194
42137W        W 7298  14.359  37.492   4.165
42138W        W 7299  30.558  35.312   4.532
42139W        W 7300  17.594  23.399   3.611
42140W        W 7301  44.719   1.833  12.854
42141W        W 7302   9.136  38.442  11.090
42142W        W 7303   4.209  33.698   3.208
42143W        W 7304  19.856   9.019   2.417
42144W        W 7305  19.998  44.921   1.922
42145W        W 7306  13.526  27.100   1.861
42146W        W 7307  38.596  13.121   2.674
42147W        W 7308  42.769   1.449   1.801
42148W        W 7309  36.995  25.692  10.771
42149W        W 7310  38.615  14.278   2.749
42150W        W 7311  28.131  29.110  10.670
42151W        W 7312   6.369  10.275  12.793
42152W        W 7313  17.834  32.109  11.565
42153W        W 7314  30.469  37.355  14.452
42154W        W 7315  44.968  33.963   0.820
42155W        W 7316  36.934  38.977  10.686
42156W        W 7317  21.112   3.785  12.790
42157W        W 7318   6.196  26.954  13.989
42158W        W 7319  15.641  33.512   0.284
42159W        W 7320  21.100  17.360  12.072
42160W        W 7321  35.842  20.306  12.568
42161W        W 7322  18.665   3.747   1.241
42162W        W 7323   9.714  17.868   2.200
42163W        W 7324  21.606  17.672   4.691
42164W        W 7325  38.961  41.555   1.892
42165W        W 7326  22.710  10.603   2.428
42166W        W 7327   3.722   0.654   1.252
42167W        W 7328   8.700  22.411  12.180
42168W        W 7329   3.864  41.388   3.317
42169W        W 7330  24.818  21.780  10.965
42170W        W 7331   0.678  33.041  12.163
42171W        W 7332   4.714  28.560  11.179
42172W        W 7333   7.179  15.733  13.829
42173W        W 7334  31.375  43.248  11.128
42174W        W 7335  24.179  32.375  11.408
42175W        W 7336  16.819  39.382   9.696
42176W        W 7337  15.540  44.931   3.661
42177W        W 7338  12.563   1.242  12.032
42178W        W 7339  43.033   0.973   1.283
42179W        W 7340  32.865  40.019   2.754
42180W        W 7341  26.180  16.604  10.896
42181W        W 7342  32.168   3.819   0.018
42182W        W 7343  29.538  29.617   2.309
42183W        W 7344  15.375  30.989  10.702
42184W        W 7345  43.045   2.911   3.374
42185W        W 7346  23.191  23.244  11.774
42186W        W 7347  40.879  12.838  10.626
42187W        W 7348  11.742   2.934   1.994
42188W        W 7349  30.138  25.087   0.799
42189W        W 7350  13.208   5.824  10.637
42190W        W 7351   5.503  32.919  13.517
42191W        W 7352   5.805  43.039  11.366
42192W        W 7353  41.948  36.119  12.534
42193W        W 7354  16.866  24.466   1.204
42194W        W 7355  40.827  25.037  10.422
42195W        W 7356  41.938  39.851   1.712
42196W        W 7357  40.559   7.856  14.048
42197W        W 7358  13.112  29.452   0.709
42198W        W 7359  11.117   8.188  12.855
42199W        W 7360   6.373   4.705   0.947
42200W        W 7361   3.935  11.468   2.914
42201W        W 7362  11.487  36.302   2.741
42202W        W 7363   2.161   6.688  10.825
42203W        W 7364  21.543  14.544   3.244
42204W        W 7365  12.066  22.220   1.141
42205W        W 7366  20.641  16.255  12.890
42206W        W 7367   0.026  24.051   4.539
42207W        W 7368  38.361  17.947   3.777
42208W        W 7369  39.530  31.191  12.629
42209W        W 7370  21.016  26.462  11.580
42210W        W 7371  23.550  39.752  12.917
42211W        W 7372  30.604  20.784   3.984
42212W        W 7373  16.154   3.168   0.914
42213W        W 7374  27.580  37.071  13.491
42214W        W 7375  15.498  20.610   4.638
42215W        W 7376  10.261   9.123  12.332
42216W        W 7377   8.357  32.908  13.516
42217W        W 7378  26.720   5.487   0.750
42218W        W 7379  15.013  33.023   1.348
42219W        W 7380  19.642   5.261  12.623
42220W        W 7381  12.739  24.567   3.161
42221W        W 7382   3.168   9.745  11.647
42222W        W 7383  20.445  40.395  14.729
42223W        W 7384   1.528  14.765  13.955
42224W        W 7385  13.930  27.238  11.638
42225W        W 7386   6.455  16.349   1.206
42226W        W 7387  39.076  32.543   1.356
42227W        W 7388  24.089  21.232   0.401
42228W        W 7389  20.032  31.321   2.766
42229W        W 7390   2.835  40.599   3.093
42230W        W 7391  26.858  19.782  12.953
42231W        W 7392   9.101  19.122  10.529
42232W        W 7393  20.703  39.110  11.535
42233W        W 7394  25.173  22.771   5.102
42234W        W 7395  18.257  26.478   0.391
42235W        W 7396  32.977   9.855  11.918
42236W        W 7397  32.049  22.713  14.269
42237W        W 7398  31.645  42.276  11.116
42238W        W 7399  18.190  41.529   2.482
42239W        W 7400  44.718  40.227   3.152
42240W        W 7401  41.097  11.968   4.478
42241W        W 7402   5.018  26.340  13.492
42242W        W 7403  34.130   7.787  12.478
42243W        W 7404  21.533   2.912   4.049
42244W        W 7405  33.704  11.555  12.552
42245W        W 7406  26.928  20.092  14.721
42246W        W 7407  43.871   9.213   1.298
42247W        W 7408  40.256  15.154   4.893
42248W        W 7409   2.154  41.525   4.665
42249W        W 7410  14.795   8.753  10.863
42250W        W 7411  40.110   0.264   2.233
42251W        W 7412  26.086  44.061  11.044
42252W        W 7413  23.130   5.072   1.907
42253W        W 7414  35.090  12.299  13.293
42254W        W 7415   1.364   4.830  14.867
42255W        W 7416   0.608  35.185   4.536
42256W        W 7417  25.205  17.533  12.168
42257W        W 7418   7.365  25.152   0.471
42258W        W 7419  19.277  24.568  11.440
42259W        W 7420  21.819  15.937  12.417
42260W        W 7421  36.732  21.121   2.400
42261W        W 7422  30.018  23.026   2.686
42262W        W 7423   9.905  12.545  10.838
42263W        W 7424  39.225  19.266   0.080
42264W        W 7425   6.606   4.878  13.021
42265W        W 7426  12.298   7.695   4.496
42266W        W 7427  24.104  21.189   1.303
42267W        W 7428  14.309   4.703  11.593
42268W        W 7429  40.976  40.855  11.885
42269W        W 7430  39.994  44.501   0.251
42270W        W 7431  42.736  41.428   3.107
42271W        W 7432  31.981  34.531   3.753
42272W        W 7433  32.455   5.248  12.564
42273W        W 7434  10.790   2.279   2.288
42274W        W 7435  39.584  35.577   4.688
42275W        W 7436  29.202  37.834  12.631
42276W        W 7437  37.337   1.443   1.991
42277W        W 7438  20.195   5.209  11.101
42278W        W 7439   3.427  14.274  12.112
42279W        W 7440  31.498  15.426  13.515
42280W        W 7441  23.505  39.493   3.283
42281W        W 7442  24.264  22.268   2.651
42282W        W 7443  31.634  40.672   0.111
42283W        W 7444  14.889   2.460   2.477
42284W        W 7445  34.040  26.219  10.716
42285W        W 7446  16.521  39.072   3.070
42286W        W 7447  40.430  20.162  12.932
42287W        W 7448  27.015  36.066   1.209
42288W        W 7449  20.451  18.144  12.285
42289W        W 7450  16.108  18.218  10.143
42290W        W 7451  31.393  32.877  14.474
42291W        W 7452  24.730  25.693   4.600
42292W        W 7453  44.753  39.593   0.186
42293W        W 7454  23.436  27.154   1.154
42294W        W 7455  11.335  32.286   3.210
42295W        W 7456   1.555  12.125   1.841
42296W        W 7457  30.745   6.863   3.180
42297W        W 7458  17.828  19.810   4.346
42298W        W 7459  21.128  21.200   1.217
42299W        W 7460   9.888  40.790   4.179
42300W        W 7461  34.046  10.770   1.451
42301W        W 7462   0.222  23.567   4.600
42302W        W 7463   6.184  44.902   3.585
42303W        W 7464  18.870   5.616  11.121
42304W        W 7465   6.795   2.368   3.260
42305W        W 7466   2.737   4.808   2.322
42306W        W 7467  13.756  15.154  10.473
42307W        W 7468  38.884  44.059  14.349
42308W        W 7469  32.066  17.029   4.064
42309W        W 7470  37.575  28.001   4.363
42310W        W 7471  33.907  10.894  10.719
42311W        W 7472  43.457   3.843   0.341
42312W        W 7473  36.597   8.721  13.352
42313W        W 7474   1.400  11.623   5.372
42314W        W 7475  42.863  11.747  11.909
42315W        W 7476  41.872  36.899   2.748
42316W        W 7477   7.473  16.164   3.705
42317W        W 7478   7.533   7.666  12.033
42318W        W 7479  14.908   7.901  12.356
42319W        W 7480  24.663   7.911  14.506
42320W        W 7481   3.679   8.310  12.029
42321W        W 7482  14.312  30.475   3.272
42322W        W 7483  13.991   3.352  10.179
42323W        W 7484  41.487  40.454   4.951
42324W        W 7485  10.072  40.862  13.754
42325W        W 7486  39.502  42.162   3.693
42326W        W 7487   7.829  38.778   4.587
42327W        W 7488  10.754  17.883   0.411
42328W        W 7489  15.949   0.453  12.546
42329W        W 7490  36.575  18.817   3.234
42330W        W 7491  33.470  36.505  13.441
42331W        W 7492  12.910  24.283   5.075
42332W        W 7493  35.930  19.080  10.428
42333W        W 7494   6.452  19.728  12.066
42334W        W 7495  11.725   7.295  12.388
42335W        W 7496   2.721  21.042   4.383
42336W        W 7497  21.713   5.728   2.750
42337W        W 7498  19.481  41.563  10.512
42338W        W 7499  13.862  34.215  10.995
42339W        W 7500  41.364  28.767  13.330
42340W        W 7501  32.663  21.828   2.673
42341W        W 7502  29.923   0.023  11.011
42342W        W 7503   4.371  15.502   0.977
42343W        W 7504  32.909   5.169   3.288
42344W        W 7505  14.115  15.159   0.996
42345W        W 7506  38.774   4.798   2.456
42346W        W 7507   9.871  42.891   2.673
42347W        W 7508  18.502  39.488   1.465
42348W        W 7509  27.284  23.835   4.415
42349W        W 7510  37.459   9.160   3.747
42350W        W 7511  24.212  39.828   1.979
42351W        W 7512  35.048   3.151   4.506
42352W        W 7513  38.570  13.921   2.178
42353W        W 7514  37.142  29.577  14.060
42354W        W 7515  32.983  15.536   3.889
42355W        W 7516  14.705  25.562  13.868
42356W        W 7517  14.418  41.738  11.481
42357W        W 7518   6.662  30.083   5.045
42358W        W 7519  24.005  19.181   4.518
42359W        W 7520   2.334  30.232  14.565
42360W        W 7521  40.341  39.425  13.927
42361W        W 7522   6.810  40.076  11.077
42362W        W 7523  41.283  31.532   1.718
42363W        W 7524  16.874   3.118   0.442
42364W        W 7525  42.714  41.272  14.976
42365W        W 7526  35.973   3.266   4.012
42366W        W 7527  11.720  38.990   2.219
42367W        W 7528  24.421  37.836  12.823
42368W        W 7529  19.019  16.532  11.646
42369W        W 7530   3.205  34.872  14.796
42370W        W 7531   9.821   0.422   2.703
42371W        W 7532  10.981   5.405  12.399
42372W        W 7533   4.991   3.235   3.209
42373W        W 7534  29.149  10.289  11.089
42374W        W 7535  12.842  13.345   3.774
42375W        W 7536  43.258  10.199   3.596
42376W        W 7537  24.267  42.436  11.623
42377W        W 7538  34.950  43.333   3.847
42378W        W 7539  22.637  28.484   4.252
42379W        W 7540  14.378   8.890  11.591
42380W        W 7541  23.110   9.454  13.554
42381W        W 7542  16.030  12.950   1.408
42382W        W 7543  21.590   0.014  10.722
42383W        W 7544  42.770  33.583  11.111
42384W        W 7545  19.309  44.433  10.983
42385W        W 7546  35.988  33.151  11.616
42386W        W 7547   7.904  44.479   4.614
42387W        W 7548  27.509  18.260   1.011
42388W        W 7549  16.084  28.358   1.108
42389W        W 7550  39.054   8.172  11.224
42390W        W 7551  21.760  37.938   4.623
42391W        W 7552  33.601  16.995  12.508
42392W        W 7553  10.171  32.717  12.239
42393W        W 7554   6.756  36.659  14.827
42394W        W 7555  25.014  38.087  14.074
42395W        W 7556   6.238  12.820   0.214
42396W        W 7557  31.511  18.191   3.427
42397W        W 7558   0.525  25.619  12.544
42398W        W 7559  25.286   6.368   4.646
42399W        W 7560  27.171   4.407   2.824
42400W        W 7561  39.799  13.321   1.843
42401W        W 7562  35.938  18.450  14.509
42402W        W 7563  39.661  30.521  11.639
42403W        W 7564  30.079  35.980   2.651
42404W        W 7565  38.574  43.331  10.230
42405W        W 7566  39.336   6.796  11.242
42406W        W 7567  40.534  16.590  10.497
42407W        W 7568  11.728  16.502  12.540
42408W        W 7569   2.986  25.563   0.635
42409W        W 7570  43.442   1.057  11.432
42410W        W 7571  13.871   2.731  12.552
42411W        W 7572  14.725   7.602   4.298
42412W        W 7573  32.098  11.290   3.751
42413W        W 7574  41.052  10.577  12.458
42414W        W 7575  31.174  19.180  14.838
42415W        W 7576   5.667  36.964  13.603
42416W        W 7577  26.995  41.559  14.222
42417W        W 7578  21.716  13.481  14.470
42418W        W 7579   5.025  40.358   4.686
42419W        W 7580  15.256   6.448  12.583
42420W        W 7581  38.042  23.745  11.635
42421W        W 7582   9.769  28.239  12.018
42422W        W 7583  22.636   6.996  10.673
42423W        W 7584  26.175  40.533  13.633
42424W        W 7585  36.382   4.235  12.018
42425W        W 7586  43.277  16.848   2.377
42426W        W 7587  42.435  37.679   2.167
42427W        W 7588  20.577   8.170   4.538
42428W        W 7589  43.854   5.862  11.525
42429W        W 7590  11.899  37.970  12.783
42430W        W 7591   8.487   3.844  11.123
42431W        W 7592  26.745  41.427  13.763
42432W        W 7593   6.489  12.119   2.849
42433W        W 7594   9.462  30.515  12.918
42434W        W 7595   4.597  16.650  10.012
42435W        W 7596  34.295  44.377   4.577
42436W        W 7597  12.341  38.579  10.583
42437W        W 7598  21.099  12.660  11.190
42438W        W 7599  22.802  24.554   3.337
42439W        W 7600  10.150  26.463  13.508
42440W        W 7601  42.497  41.041  11.125
42441W        W 7602   0.682  28.636  13.304
42442W        W 7603  19.551  22.043   0.650
42443W        W 7604  37.093  36.438   4.035
42444W        W 7605   6.377   2.176   2.214
42445W        W 7606  33.892   4.817   0.668
42446W        W 7607   7.748  39.734   3.094
42447W        W 7608  16.981  40.300  11.161
42448W        W 7609  33.832  23.568  13.925
42449W        W 7610  23.203  30.181   3.961
42450W        W 7611   0.404  15.572  13.480
42451W        W 7612  22.232   0.332  12.994
42452W        W 7613   5.158  39.149  11.618
42453W        W 7614  29.524  40.897   3.244
42454W        W 7615  28.201  40.049  12.565
42455W        W 7616   0.922  38.140   1.597
42456W        W 7617  32.511  25.973  12.830
42457W        W 7618   2.182  20.048  13.449
42458W        W 7619  41.587  15.694  11.657
42459W        W 7620   5.891  36.463  11.272
42460W        W 7621  15.550   3.782  11.040
42461W        W 7622   7.713   4.853   0.207
42462W        W 7623  40.846  12.867  13.776
42463W        W 7624  21.729   2.891   1.292
42464W        W 7625   5.882  24.937  12.016
42465W        W 7626  41.595  13.170  13.075
42466W        W 7627  12.257   5.248  10.764
42467W        W 7628  25.813  16.067   5.159
42468W        W 7629  40.431  24.610   2.231
42469W        W 7630   2.981   1.235   2.620
42470W        W 7631  25.660  40.339  13.958
42471W        W 7632  31.360  38.908  14.994
42472W        W 7633  32.592  26.875  14.047
42473W        W 7634  30.516  35.889   2.393
42474W        W 7635  12.200  27.416  14.049
42475W        W 7636  36.319   1.926  12.120
42476W        W 7637   3.639  13.197   0.731
42477W        W 7638  35.238  32.905   3.135
42478W        W 7639  41.699  17.780  11.033
42479W        W 7640  39.353   9.928   2.018
42480W        W 7641   0.206  44.946  12.572
42481W        W 7642  35.078  10.716   1.422
42482W        W 7643  37.820  20.567   1.854
42483W        W 7644  24.195  26.024  11.253
42484W        W 7645  43.878  23.633   1.211
42485W        W 7646   7.618  17.420  13.291
42486W        W 7647   1.322  22.084  13.091
42487W        W 7648  44.158   2.128   3.525
42488W        W 7649  23.200   7.000  11.436
42489W        W 7650  27.110  31.181   2.227
42490W        W 7651   8.216   7.605   4.101
42491W        W 7652  26.100  39.691  14.823
42492W        W 7653  27.161  40.444   1.302
42493W        W 7654   9.856  28.346  11.144
42494W        W 7655  20.535  14.714   1.221
42495W        W 7656   8.697  31.949   3.090
42496W        W 7657   4.335  34.002   4.024
42497W        W 7658  23.297   5.297   2.341
42498W        W 7659  40.600  23.097  11.114
42499W        W 7660  33.995  29.244  12.379
42500W        W 7661  34.062   0.572  10.569
42501W        W 7662  35.817  38.530  11.331
42502W        W 7663   5.241   3.639  14.388
42503W        W 7664  34.466  35.805  12.905
42504W        W 7665  34.074   5.971   3.082
42505W        W 7666   1.309  38.024   4.270
42506W        W 7667  10.824  12.882   0.308
42507W        W 7668   6.318  11.889   2.228
42508W        W 7669  22.213  28.426  12.349
42509W        W 7670   9.595  18.990   3.996
42510W        W 7671  26.314  29.956  12.008
42511W        W 7672  31.968  44.219  13.487
42512W        W 7673   1.672  36.478   9.507
42513W        W 7674   5.989  11.640  10.964
42514W        W 7675  13.894  23.650  10.640
42515W        W 7676  41.381  38.897  12.131
42516W        W 7677  13.684  44.285   3.190
42517W        W 7678  39.869  43.040   3.687
42518W        W 7679  31.867  34.676  10.724
42519W        W 7680   6.885  26.050  12.122
42520W        W 7681  16.221  35.514  11.037
42521W        W 7682   1.246  38.922  13.171
42522W        W 7683   1.889  38.551  11.622
42523W        W 7684  27.633  17.768  13.692
42524W        W 7685  11.320  21.139  11.443
42525W        W 7686  29.629  17.655   4.636
42526W        W 7687  33.527  36.345  11.574
42527W        W 7688   9.582  22.825   3.788
42528W        W 7689  10.082  11.398  12.957
42529W        W 7690  43.406  19.136   1.410
42530W        W 7691   0.392  33.477  13.480
42531W        W 7692  13.658   7.414   1.752
42532W        W 7693  31.360  24.678   4.107
42533W        W 7694  19.536  24.241  12.516
42534W        W 7695   4.223  14.655   0.405
42535W        W 7696  26.583  32.024   4.598
42536W        W 7697  40.785  15.023  14.708
42537W        W 7698  16.195  27.671  11.373
42538W        W 7699  36.380  44.774   0.067
42539W        W 7700  13.945  40.549   3.976
42540W        W 7701  18.756   6.950   1.220
42541W        W 7702   8.829  16.519  11.120
42542W        W 7703  13.152  23.033  10.703
42543W        W 7704  25.561   9.242  10.269
42544W        W 7705  24.060   1.461   4.453
42545W        W 7706  32.505  18.138   2.115
42546W        W 7707  19.194   9.133   0.436
42547W        W 7708  30.899  41.354   3.011
42548W        W 7709  24.238  12.667  10.958
42549W        W 7710   1.987  27.682  13.081
42550W        W 7711  37.529  28.896  13.804
42551W        W 7712  40.087  25.764  12.041
42552W        W 7713  17.683  27.581   4.520
42553W        W 7714  14.320   8.729  11.109
42554W        W 7715  38.799   9.247  12.452
42555W        W 7716   4.364  15.416  14.735
42556W        W 7717  39.010  30.195  13.661
42557W        W 7718  26.056  20.134   3.147
42558W        W 7719   5.675  20.294  11.142
42559W        W 7720  21.244   6.783  12.591
42560W        W 7721  12.191  28.555  11.922
42561W        W 7722  10.262  32.574  11.234
42562W        W 7723  24.959   1.776   2.882
42563W        W 7724   1.130  16.370  10.271
42564W        W 7725  23.529  32.327  12.105
42565W        W 7726  31.275  15.094  14.292
42566W        W 7727  11.285  43.243   5.029
42567W        W 7728  18.843  32.952   1.853
42568W        W 7729  28.527  10.434  10.685
42569W        W 7730  39.262   9.868  10.967
42570W        W 7731  22.071  41.871   1.249
42571W        W 7732   8.662  44.711  11.494
42572W        W 7733  20.338  31.001  11.516
42573W        W 7734  20.116  44.096   4.106
42574W        W 7735   5.405  26.198  13.787
42575W        W 7736  11.112  40.946  13.916
42576W        W 7737  18.119  21.480  14.397
42577W        W 7738  30.998  14.258   3.508
42578W        W 7739  27.254  21.047  14.765
42579W        W 7740  27.079  24.018   1.733
42580W        W 7741   2.282   0.037   4.124
42581W        W 7742  35.227  39.174   0.930
42582W        W 7743  23.193   6.768  12.305
42583W        W 7744  32.524  43.324  13.476
42584W        W 7745  32.220  19.209  14.918
42585W        W 7746  34.589  43.032   0.915
42586W        W 7747  40.963  24.358   2.449
42587W        W 7748  26.663   2.583   5.063
42588W        W 7749  14.780   6.565   1.288
42589W        W 7750  23.205  32.562   1.495
42590W        W 7751  29.494   5.359  10.681
42591W        W 7752  44.871  21.477  11.293
42592W        W 7753  19.364  38.082  11.925
42593W        W 7754  12.768  40.476   2.439
42594W        W 7755  28.895  28.856   0.330
42595W        W 7756  31.070  17.709  10.703
42596W        W 7757  27.457  20.483   1.261
42597W        W 7758  12.528  11.322   0.177
42598W        W 7759  28.414  18.662   3.645
42599W        W 7760  36.493  29.940  12.974
42600W        W 7761  27.097  16.163   3.334
42601W        W 7762  25.064  13.743   1.833
42602W        W 7763  41.418  25.433   1.564
42603W        W 7764  11.862   6.636   0.003
42604W        W 7765  10.841   8.184   4.344
42605W        W 7766   3.178  31.067  12.479
42606W        W 7767  32.501  18.992  14.530
42607W        W 7768  28.996   9.347   2.428
42608W        W 7769  41.016  28.895  14.967
42609W        W 7770   6.384  10.342   4.083
42610W        W 7771  28.162   5.850  12.638
42611W        W 7772  20.291  24.763  12.653
42612W        W 7773  29.455  34.562   2.621
42613W        W 7774  22.284  16.452  11.653
42614W        W 7775  36.486  40.321  13.490
42615W        W 7776  10.341   2.953  14.102
42616W        W 7777  21.124   8.916   4.555
42617W        W 7778  33.445   1.334   1.729
42618W        W 7779  19.285  38.969  11.944
42619W        W 7780  40.212  27.546  12.031
42620W        W 7781  33.117  19.112   0.912
42621W        W 7782  37.427  14.180   0.664
42622W        W 7783  22.873  25.623  14.818
42623W        W 7784  31.945  25.195   3.663
42624W        W 7785   9.746  22.420  13.041
42625W        W 7786  24.221  22.220   0.758
42626W        W 7787   3.287  43.026   0.481
42627W        W 7788  25.320  20.305   4.175
42628W        W 7789  37.587  23.067   2.222
42629W        W 7790  13.375  41.920  12.459
42630W        W 7791  35.116  29.071  10.563
42631W        W 7792  13.827  17.470   3.704
42632W        W 7793  13.720   3.992   4.372
42633W        W 7794  41.668  11.907  10.948
42634W        W 7795  43.733  25.475   3.510
42635W        W 7796  41.672  40.664   4.034
42636W        W 7797  23.531  22.041   2.122
42637W        W 7798  34.149  26.626   0.330
42638W        W 7799   8.435   5.738  12.155
42639W        W 7800   8.475  17.276  12.137
42640W        W 7801  14.159  35.466  10.606
42641W        W 7802   4.227   0.790   3.112
42642W        W 7803  10.905  42.013   1.327
42643W        W 7804  37.101   5.189   2.632
42644W        W 7805   6.049  33.530   4.581
42645W        W 7806  32.585   4.429   0.859
42646W        W 7807  14.210  21.219   4.537
42647W        W 7808   2.146  28.615   0.945
42648W        W 7809  16.331  38.019  13.977
42649W        W 7810  29.085  40.754  14.985
42650W        W 7811  44.226  21.765   4.581
42651W        W 7812  39.329  16.839  12.493
42652W        W 7813  37.100  17.632   3.712
42653W        W 7814  22.457  33.642  14.742
42654W        W 7815   6.237  13.587  11.155
42655W        W 7816  41.401  34.001   0.721
42656W        W 7817  15.312   3.315  10.923
42657W        W 7818   4.844  29.389   0.659
42658W        W 7819   5.287  15.306  13.729
42659W        W 7820  44.960  27.255  11.018
42660W        W 7821  36.516  19.719  10.770
42661W        W 7822   4.985  24.795   2.749
42662W        W 7823  42.552   5.688  13.847
42663W        W 7824  17.735  21.298   0.861
42664W        W 7825  21.970  24.195   3.407
42665W        W 7826  29.894  29.625  11.183
42666W        W 7827  32.227  23.702   3.061
42667W        W 7828  27.823  43.996   1.346
42668W        W 7829  17.752  40.901   0.911
42669W        W 7830  26.047  10.862   2.312
42670W        W 7831  31.107  28.529   3.567
42671W        W 7832  17.382  33.589  13.888
42672W        W 7833  26.946  32.605   0.118
42673W        W 7834   4.383  24.952  13.539
42674W        W 7835   0.421  26.144   3.583
42675W        W 7836  11.345   8.262   1.390
42676W        W 7837  33.652  17.775   2.623
42677W        W 7838   4.712  24.514  13.276
42678W        W 7839  19.323  11.174  14.701
42679W        W 7840  13.670  22.991   1.069
42680W        W 7841  43.717  11.462  14.757
42681W        W 7842   7.809  27.960   0.414
42682W        W 7843  44.550  36.860  10.744
42683W        W 7844  33.056  11.665   5.017
42684W        W 7845  43.121   7.307   3.743
42685W        W 7846  32.053  13.326  11.480
42686W        W 7847  39.145  41.597  12.998
42687W        W 7848  18.223  38.251  13.549
42688W        W 7849  42.385  15.535  11.400
42689W        W 7850  44.306  16.853   4.524
42690W        W 7851  27.655  27.546   0.715
42691W        W 7852  11.653  39.936   0.440
42692W        W 7853  26.025  21.064  13.376
42693W        W 7854  32.580  44.864  14.274
42694W        W 7855  35.150  10.643  13.080
42695W        W 7856   5.799   6.574  12.972
42696W        W 7857  30.463  10.194   4.088
42697W        W 7858   4.118  37.805  13.703
42698W        W 7859  18.939  24.585  10.608
42699W        W 7860  13.017  30.456  12.132
42700W        W 7861  40.938  37.533   2.224
42701W        W 7862   6.398  24.579   3.887
42702W        W 7863   2.972  15.233   4.193
42703W        W 7864  42.026  14.899   4.124
42704W        W 7865   5.284  39.140  13.502
42705W        W 7866  39.356  39.123   1.775
42706W        W 7867  32.419  22.344   0.457
42707W        W 7868  33.571  22.065  11.190
42708W        W 7869  42.786   4.652   4.551
42709W        W 7870  20.933  34.053   2.486
42710W        W 7871  43.820   0.531   4.153
42711W        W 7872  34.690  19.302   3.233
42712W        W 7873  14.720   1.285   4.538
42713W        W 7874  31.596  28.649  11.041
42714W        W 7875  44.947  40.339  10.615
42715W        W 7876  40.855  32.829  12.631
42716W        W 7877  34.339  15.767  14.473
42717W        W 7878  41.255  12.393  12.224
42718W        W 7879  30.832  10.681  14.327
42719W        W 7880  37.991  26.689  14.565
42720W        W 7881  15.352  44.796  14.998
42721W        W 7882  28.019  17.643   2.727
42722W        W 7883   6.605  33.372   4.388
42723W        W 7884  13.354  24.770   1.214
42724W        W 7885  30.865  23.081   1.183
42725W        W 7886   9.223  14.737   0.364
42726W        W 7887  17.254  19.631   2.855
42727W        W 7888  42.288   2.432   1.874
42728W        W 7889  28.036  32.939   1.651
42729W        W 7890  32.367  27.094   1.377
42730W        W 7891  11.094  24.290  14.765
42731W        W 7892  27.070  38.089  14.839
42732W        W 7893   9.030  15.548  11.494
42733W        W 7894   1.772  24.631   0.718
42734W        W 7895  40.777  17.179   4.229
42735W        W 7896  16.795   4.870  10.810
42736W        W 7897  27.137  40.047   0.011
42737W        W 7898  12.634  14.576   0.481
42738W        W 7899   0.191  20.641   0.204
42739W        W 7900  20.854  39.540   4.859
42740W        W 7901  44.671  27.935   3.734
42741W        W 7902  36.637  19.525   2.705
42742W        W 7903  10.821  37.562  10.678
42743W        W 7904  43.255  31.159  11.213
42744W        W 7905  10.389  36.042  13.987
42745W        W 7906   5.363   5.941  13.942
42746W        W 7907  18.162  21.987  14.568
42747W        W 7908   6.937  31.351  11.846
42748W        W 7909  27.086  10.732   0.944
42749W        W 7910  16.144  14.313  11.418
42750W        W 7911   6.745  26.366   0.312
42751W        W 7912  39.251  20.034   0.326
42752W        W 7913  10.189  41.750   4.152
42753W        W 7914  29.166  21.394   3.827
42754W        W 7915  40.630  12.247  12.704
42755W        W 7916  29.442  14.025  10.680
42756W        W 7917  16.706  16.260   3.754
42757W        W 7918  34.333  33.530  13.369
42758W        W 7919  22.643  37.512   3.770
42759W        W 7920  19.623  44.743  13.840
42760W        W 7921  35.448   8.889   2.873
42761W        W 7922  32.072   4.268  12.359
42762W        W 7923  16.980  16.726   9.881
42763W        W 7924  10.668  34.080  13.940
42764W        W 7925   3.687  34.096   2.611
42765W        W 7926  12.833  16.183  12.936
42766W        W 7927  41.743  37.535  14.070
42767W        W 7928  44.245  37.844  13.864
42768W        W 7929  11.758   4.825   3.297
42769W        W 7930  11.620  25.045  10.462
42770W        W 7931  36.270  23.768  14.320
42771W        W 7932  28.106  35.085   1.819
42772W        W 7933  10.139  35.920   2.283
42773W        W 7934  44.421  44.505  14.189
42774W        W 7935  13.751  28.201   3.232
42775W        W 7936  12.812  11.928  11.484
42776W        W 7937  38.817  24.733  12.034
42777W        W 7938  42.653  43.432  13.365
42778W        W 7939  40.313  24.718  12.999
42779W        W 7940   1.195  22.025  10.659
42780W        W 7941   2.599  14.707  13.004
42781W        W 7942  39.766   0.763  10.997
42782W        W 7943  40.089   6.727   2.364
42783W        W 7944  37.156  22.251  14.315
42784W        W 7945  26.818   7.672  11.082
42785W        W 7946   2.054  14.430  11.534
42786W        W 7947  17.759   1.547   4.192
42787W        W 7948  32.967   7.959   4.151
42788W        W 7949  18.160  37.048   2.579
42789W        W 7950  14.868   7.035  11.545
42790W        W 7951  43.753  42.444  10.688
42791W        W 7952  17.805  19.683   1.732
42792W        W 7953  11.318  16.738  12.016
42793W        W 7954  31.646  43.135  12.475
42794W        W 7955  18.226  29.218   3.691
42795W        W 7956  19.629  20.973   2.293
42796W        W 7957  17.704  32.593   2.094
42797W        W 7958  41.015  17.667   0.449
42798W        W 7959  42.340  34.377   1.713
42799W        W 7960   3.510  44.862   0.381
42800W        W 7961  10.057  43.055  10.991
42801W        W 7962  30.544   9.571   0.311
42802W        W 7963  30.863  10.419   4.403
42803W        W 7964  44.414  37.650  10.881
42804W        W 7965  13.090  19.741  11.548
42805W        W 7966   5.987  18.449  14.301
42806W        W 7967  41.466  21.493  14.585
42807W        W 7968  23.670  28.633  10.754
42808W        W 7969  26.588  30.505  12.610
42809W        W 7970  40.434  36.858   4.143
42810W        W 7971  28.010  38.010   2.259
42811W        W 7972  32.442   7.627   0.740
42812W        W 7973   7.420  25.760  13.821
42813W        W 7974   1.434  39.510   3.343
42814W        W 7975  44.010   4.220  13.782
42815W        W 7976  15.194  29.050   4.063
42816W        W 7977  40.439   3.669   5.169
42817W        W 7978  18.327  17.301  13.470
42818W        W 7979  31.317  35.101  12.081
42819W        W 7980  35.021  32.132  14.737
42820W        W 7981   0.395  41.834   4.572
42821W        W 7982  39.580  16.761   2.594
42822W        W 7983  30.600  17.821  12.183
42823W        W 7984  44.174  31.560   1.980
42824W        W 7985  27.617  42.234  14.344
42825W        W 7986  32.050  39.864   3.137
42826W        W 7987   0.869  37.629   5.142
42827W        W 7988  19.582   7.302  14.955
42828W        W 7989  42.002  24.928  12.439
42829W        W 7990  36.862   9.191  14.495
42830W        W 7991   5.823  17.066   0.319
42831W        W 7992   2.838  38.058  11.679
42832W        W 7993  15.112  29.943   2.448
42833W        W 7994  32.660  18.414   2.995
42834W        W 7995   4.149  43.012   9.720
42835W        W 7996   2.791  33.892   4.621
42836W        W 7997   9.900   1.451   4.621
42837W        W 7998  10.099  33.173  12.034
42838W        W 7999  11.811  21.886  11.789
42839W        W 8000   8.912  37.455   2.850
42840W        W 8001   1.629  18.642   3.852
42841W        W 8002  11.122  12.828  12.451
42842W        W 8003  40.425  32.205   1.418
42843W        W 8004  19.698   1.666   2.995
42844W        W 8005   8.361   2.788   2.390
42845W        W 8006  29.533  22.000  11.538
42846W        W 8007   7.975  17.616  12.961
42847W        W 8008   5.527  41.953   0.331
42848W        W 8009  26.145  32.972   1.256
42849W        W 8010  31.393  15.932  13.566
42850W        W 8011   3.827  36.446  13.797
42851W        W 8012  23.020  12.907   4.163
42852W        W 8013  32.961  43.592  10.178
42853W        W 8014   0.673  40.392  11.982
42854W        W 8015  26.753  40.311   2.740
42855W        W 8016   7.802  44.751  11.110
42856W        W 8017   7.985   7.916  12.015
42857W        W 8018  27.425  10.165  11.476
42858W        W 8019  11.676  18.336   1.937
42859W        W 8020   4.964  17.751   1.227
42860W        W 8021  22.523  12.130  10.325
42861W        W 8022   1.745  35.964  11.423
42862W        W 8023  40.597  11.326  12.137
42863W        W 8024  25.083  25.645   1.463
42864W        W 8025   8.659  40.863   1.450
42865W        W 8026  26.452   0.017   2.714
42866W        W 8027  31.955  16.481  11.131
42867W        W 8028  18.299  25.133  13.740
42868W        W 8029  16.384  15.806   2.500
42869W        W 8030  31.275   3.571  10.387
42870W        W 8031  33.590  19.470   4.998
42871W        W 8032  12.444  41.034   1.766
42872W        W 8033  18.253  13.121   0.812
42873W        W 8034  31.405  17.597   4.108
42874W        W 8035  17.935   3.868  14.881
42875W        W 8036  18.031   2.646   2.995
42876W        W 8037  10.238  33.691   0.282
42877W        W 8038  40.612  29.293  13.068
42878W        W 8039  27.292   8.394   1.436
42879W        W 8040   6.397  31.162   3.740
42880W        W 8041   0.508  11.752   3.595
42881W        W 8042  24.870  15.150  13.871
42882W        W 8043  12.611  26.994   3.634
42883W        W 8044  39.031  30.091  12.706
42884W        W 8045  39.245  19.548   5.124
42885W        W 8046  20.324  33.591   2.788
42886W        W 8047   0.974   7.141  12.456
42887W        W 8048  25.667  39.068   1.558
42888W        W 8049  21.545  36.383  13.376
42889W        W 8050  24.825   7.308   2.772
42890W        W 8051  36.969   5.951   2.101
42891W        W 8052  39.676  33.215  12.137
42892W        W 8053  30.801  21.447  10.262
42893W        W 8054  39.452  30.134   4.573
42894W        W 8055  28.958  15.750  13.299
42895W        W 8056   2.930   2.171   2.912
42896W        W 8057  34.862  26.393   3.362
42897W        W 8058   3.049   1.681  13.052
42898W        W 8059   3.697  20.277   1.743
42899W        W 8060  10.792  19.708  12.470
42900W        W 8061  38.128  41.240  14.306
42901W        W 8062   2.985   6.175   2.743
42902W        W 8063  34.654  44.523   0.821
42903W        W 8064  16.520  19.237  13.930
42904W        W 8065  22.983   7.961  11.779
42905W        W 8066  33.651  21.685   3.916
42906W        W 8067  38.028   9.262   1.714
42907W        W 8068  24.212  27.622   4.083
42908W        W 8069  13.027  20.098   3.187
42909W        W 8070   7.139  34.369   1.346
42910W        W 8071  27.369   7.304  14.406
42911W        W 8072  19.757  35.883  13.474
42912W        W 8073  42.254  22.950  11.187
42913W        W 8074   3.374   0.903   2.486
42914W        W 8075  17.009  38.101   1.054
42915W        W 8076   6.348  29.950  14.894
42916W        W 8077  14.250  19.709  12.107
42917W        W 8078   4.593   4.105  14.749
42918W        W 8079  39.314   2.506   0.374
42919W        W 8080  25.058  27.002  13.349
42920W        W 8081  39.390  11.754  12.576
42921W        W 8082  11.804  37.527   1.357
42922W        W 8083  35.635   5.904   0.979
42923W        W 8084  38.575  40.960  14.011
42924W        W 8085   1.917   8.356  14.663
42925W        W 8086  33.213  40.992   2.171
42926W        W 8087  20.063   6.958  14.505
42927W        W 8088  25.750   9.365   3.592
42928W        W 8089  43.344   8.981  13.971
42929W        W 8090  43.379  41.739   2.661
42930W        W 8091  20.739  19.551   2.822
42931W        W 8092  27.749  27.971   4.509
42932W        W 8093  36.395   7.765  13.522
42933W        W 8094   3.243   9.482   2.540
42934W        W 8095  25.469  10.764  13.622
42935W        W 8096   4.429  44.348  12.026
42936W        W 8097  24.583  10.841  14.327
42937W        W 8098   3.795  20.142   4.661
42938W        W 8099  37.888  25.587   4.339
42939W        W 8100  11.353  35.314   2.918
42940W        W 8101  27.088   1.315   0.377
42941W        W 8102  41.551  23.154   3.961
42942W        W 8103   8.746  16.045  10.319
42943W        W 8104  37.700  17.978   4.455
42944W        W 8105  12.308  24.127   0.934
42945W        W 8106  22.610  36.583   1.332
42946W        W 8107  17.206  10.689   2.979
42947W        W 8108  44.406  39.525   1.399
42948W        W 8109   7.458  36.705   4.222
42949W        W 8110   3.892  42.880   1.359
42950W        W 8111  20.841  34.242   1.999
42951W        W 8112  11.144  13.118  11.586
42952W        W 8113  29.715  36.611   0.013
42953W        W 8114  14.460  28.547   4.578
42954W        W 8115  14.544   9.947   2.268
42955W        W 8116  31.945  10.080   0.890
42956W        W 8117   8.313   1.744   0.648
42957W        W 8118  20.182  43.902   3.632
42958W        W 8119  33.692  12.538   4.248
42959W        W 8120  11.863  40.887  13.351
42960W        W 8121   8.738  26.596  12.554
42961W        W 8122  31.957   2.973  10.739
42962W        W 8123  37.983  12.096  10.639
42963W        W 8124  32.890  40.629   4.856
42964W        W 8125  29.171   1.000   3.856
42965W        W 8126  20.212   6.343  13.246
42966W        W 8127  35.636  14.568  13.226
42967W        W 8128  36.926  40.070  12.919
42968W        W 8129  28.003  39.424   3.250
42969W        W 8130  19.105  44.033  14.005
42970W        W 8131  16.650  31.585   2.766
42971W        W 8132  15.356   8.811  12.976
42972W        W 8133  31.789  38.263   3.224
42973W        W 8134  43.270  11.238  14.701
42974W        W 8135  30.470  33.410  11.929
42975W        W 8136  42.509   3.941  12.432
42976W        W 8137  31.815  39.872   2.667
42977W        W 8138  24.495   8.457  13.387
42978W        W 8139  25.117  19.440  11.508
42979W        W 8140   1.679   6.717  10.579
42980W        W 8141   4.619   3.952  10.216
42981W        W 8142  27.840  17.461   4.201
42982W        W 8143  43.993  37.368   2.948
42983W        W 8144  22.545  22.808  14.849
42984W        W 8145  28.895  16.236   0.017
42985W        W 8146  25.331  23.767   1.442
42986W        W 8147  16.128  17.784   3.303
42987W        W 8148  33.439  10.661  13.757
42988W        W 8149   0.805   4.004  11.447
42989W        W 8150  30.235  29.556   4.887
42990W        W 8151  21.126  33.077  12.789
42991W        W 8152   2.538  14.895  14.027
42992W        W 8153  43.479   3.311  12.063
42993W        W 8154  18.660   3.754  13.288
42994W        W 8155  29.919   5.205   4.881
42995W        W 8156  17.550  37.471   4.566
42996W        W 8157   6.888   4.226   1.413
42997W        W 8158   8.189  15.817   3.048
42998W        W 8159  37.611  22.695  12.950
42999W        W 8160  21.564  18.867  12.071
43000W        W 8161  44.086   2.969  14.537
43001W        W 8162  26.019  12.753  12.586
43002W        W 8163  14.206  25.216   1.870
43003W        W 8164  34.238   4.973   3.192
43004W        W 8165  37.572  34.353  13.414
43005W        W 8166   3.089  25.921  11.157
43006W        W 8167  36.006   0.234   1.466
43007W        W 8168  19.550  16.785   3.176
43008W        W 8169  40.153  32.860  11.198
43009W        W 8170  20.883  19.384  11.105
43010W        W 8171  32.423   1.891  14.047
43011W        W 8172  24.189  35.738   2.333
43012W        W 8173  38.434   4.901   0.924
43013W        W 8174  33.413  34.372   4.116
43014W        W 8175  13.952  41.971  10.665
43015W        W 8176  21.474   2.454  10.756
43016W        W 8177  36.043  30.557  10.527
43017W        W 8178  15.690   6.237   4.674
43018W        W 8179   1.386   7.437  12.532
43019W        W 8180   9.624  38.450  11.261
43020W        W 8181  38.614  14.889  14.160
43021W        W 8182  10.231  26.541  11.756
43022W        W 8183  30.441  39.944  13.191
43023W        W 8184   4.446  18.522  10.855
43024W        W 8185  39.642  14.018   2.456
43025W        W 8186   6.486  21.017   2.648
43026W        W 8187   0.782  43.788   2.823
43027W        W 8188  19.138  12.629  14.051
43028W        W 8189  20.681   9.252  14.426
43029W        W 8190  20.705  38.881   0.714
43030W        W 8191  25.345  20.817   4.185
43031W        W 8192   9.730  28.255   0.408
43032W        W 8193  18.899  40.295   1.630
43033W        W 8194  19.151  10.370   4.371
43034W        W 8195  18.705  18.053   3.414
43035W        W 8196  14.215  38.934   2.361
43036W        W 8197  23.119  27.685   4.112
43037W        W 8198  11.757  23.989   1.768
43038W        W 8199  35.048  36.014   0.529
43039W        W 8200  30.624  13.074   3.116
43040W        W 8201   6.249  10.788   4.784
43041W        W 8202   1.907   7.735  12.223
43042W        W 8203  11.725  23.364   2.902
43043W        W 8204   2.727   1.007  14.384
43044W        W 8205  40.906  27.755  12.708
43045W        W 8206  43.019  27.389  14.867
43046W        W 8207  34.848  29.156  14.896
43047W        W 8208  10.782  33.108   2.194
43048W        W 8209  31.911  15.335  13.070
43049W        W 8210  33.521   1.837   3.094
43050W        W 8211  22.436  19.023  12.509
43051W        W 8212   2.401  23.861  11.204
43052W        W 8213   0.736  20.342  12.086
43053W        W 8214  35.480   5.038   1.421
43054W        W 8215  33.554   6.380   3.428
43055W        W 8216   5.375   1.248  12.871
43056W        W 8217  34.933  24.825  13.297
43057W        W 8218  35.702   5.362  14.299
43058W        W 8219   2.091   1.924   1.037
43059W        W 8220  25.598  32.726  14.294
43060W        W 8221   3.574   3.343   3.347
43061W        W 8222   6.889  42.071   2.757
43062W        W 8223  28.863  27.565   4.397
43063W        W 8224  43.470  27.162   4.268
43064W        W 8225  11.207  32.102  13.264
43065W        W 8226   4.340  15.682   0.479
43066W        W 8227   8.719   7.220   3.174
43067W        W 8228  10.824   7.800  11.492
43068W        W 8229   7.348  26.760   3.594
43069W        W 8230  41.405  38.924   3.777
43070W        W 8231  17.050  19.262   1.095
43071W        W 8232  41.720  24.125   1.155
43072W        W 8233  29.102   7.276  14.929
43073W        W 8234   2.783  34.177   1.159
43074W        W 8235  39.767  21.652  12.621
43075W        W 8236  36.923  21.762  10.514
43076W        W 8237  13.772  25.718   1.634
43077W        W 8238  20.887   6.844  11.226
43078W        W 8239  26.240  42.952   5.651
43079W        W 8240  43.382  31.166   2.584
43080W        W 8241  17.048  19.593   2.390
43081W        W 8242  11.356   7.333   0.627
43082W        W 8243  24.425   6.184  14.730
43083W        W 8244  41.965   9.455   2.820
43084W        W 8245  10.804  36.890  14.340
43085W        W 8246  32.743  27.081   1.869
43086W        W 8247   4.486  32.515  14.752
43087W        W 8248  41.583   0.865   4.607
43088W        W 8249  14.571  39.229  12.126
43089W        W 8250  19.230  35.094   1.874
43090W        W 8251  40.778  14.796   3.709
43091W        W 8252  27.627  22.900   5.439
43092W        W 8253  31.587  21.682  13.880
43093W        W 8254  31.341   9.104  13.132
43094W        W 8255  15.035  40.344  11.971
43095W        W 8256   6.297  42.525  12.424
43096W        W 8257  37.887   8.889  14.569
43097W        W 8258   5.543  27.432  10.330
43098W        W 8259  27.493   0.996   4.525
43099W        W 8260  30.434  19.775  13.913
43100W        W 8261  21.304  17.091   2.854
43101W        W 8262  29.840  42.166  11.066
43102W        W 8263   9.648  29.641   0.486
43103W        W 8264  20.715  42.551   0.665
43104W        W 8265  14.623  32.075  14.954
43105W        W 8266  14.724   2.265  12.207
43106W        W 8267  12.838   7.430   3.149
43107W        W 8268  42.239   2.321   2.846
43108W        W 8269  15.624  16.620  11.907
43109W        W 8270  14.380  23.479   1.972
43110W        W 8271  33.089  38.174  13.302
43111W        W 8272  37.325  41.671   1.486
43112W        W 8273   9.032  33.488   0.182
43113W        W 8274   7.257  42.975   1.998
43114W        W 8275   9.668   0.892   1.531
43115W        W 8276  17.488   0.644   0.977
43116W        W 8277  33.262  26.095   3.172
43117W        W 8278  39.828   1.437   4.476
43118W        W 8279   1.682  22.534  12.555
43119W        W 8280  41.758  10.659   4.569
43120W        W 8281  34.910  35.164  10.692
43121W        W 8282  33.797   8.880   1.782
43122W        W 8283  21.096  33.341   0.327
43123W        W 8284   0.388  16.179   3.369
43124W        W 8285  35.699   9.859  12.070
43125W        W 8286  12.002   9.254   4.993
43126W        W 8287  31.807   8.167  11.271
43127W        W 8288  32.008   7.901  14.428
43128W        W 8289  23.083  31.038  12.805
43129W        W 8290   8.685  18.675   1.027
43130W        W 8291   7.270  26.715   1.887
43131W        W 8292  35.095   5.724   4.103
43132W        W 8293  14.227  41.406   0.779
43133W        W 8294   1.740  42.491   1.944
43134W        W 8295   0.194  43.471  12.662
43135W        W 8296  29.131  28.127   4.570
43136W        W 8297   2.727  20.067   0.251
43137W        W 8298  40.483  44.856   1.312
43138W        W 8299  31.163  43.605   1.341
43139W        W 8300  23.063  18.989   3.187
43140W        W 8301  19.518  21.089  12.571
43141W        W 8302  13.134   7.896   3.271
43142W        W 8303  28.063  35.135  13.852
43143W        W 8304  32.981  39.306   0.806
43144W        W 8305  38.553   5.740  14.376
43145W        W 8306  34.712  24.464   3.254
43146W        W 8307  24.662  32.214  14.461
43147W        W 8308  31.566  44.532   1.380
43148W        W 8309  19.997  26.991  14.333
43149W        W 8310   1.244  36.412   1.760
43150W        W 8311   2.735  24.658  12.520
43151W        W 8312  15.261  14.599  11.118
43152W        W 8313  19.032  11.870  13.137
43153W        W 8314  23.932  34.598   4.155
43154W        W 8315  15.627  37.264  14.914
43155W        W 8316  25.422  30.009   2.982
43156W        W 8317  22.469   2.325   2.498
43157W        W 8318  26.227  35.972   0.171
43158W        W 8319   0.307  30.139   2.415
43159W        W 8320  36.831  16.017  14.959
43160W        W 8321  24.996  33.210  14.981
43161W        W 8322  20.177   2.067   1.401
43162W        W 8323  17.304  17.693  12.466
43163W        W 8324  34.002  33.807   4.387
43164W        W 8325   7.754  15.159   2.240
43165W        W 8326  30.518  18.181   3.254
43166W        W 8327  24.476  35.390  14.946
43167W        W 8328   4.190  11.600   3.801
43168W        W 8329   2.186  14.251   2.409
43169W        W 8330  16.301   2.261   4.591
43170W        W 8331  19.405  35.470  14.575
43171W        W 8332  42.400  31.393  12.858
43172W        W 8333  31.999  21.608   1.448
43173W        W 8334  39.277  18.452  10.450
43174W        W 8335  38.335  23.803  13.427
43175W        W 8336  42.459   9.454   0.268
43176W        W 8337   4.924   2.673  14.501
43177W        W 8338  40.307  33.352  13.957
43178W        W 8339  31.032   8.637  11.760
43179W        W 8340  39.818  43.561  14.479
43180W        W 8341  13.365  38.682   1.760
43181W        W 8342  22.247  18.036   4.178
43182W        W 8343  19.550  19.118  13.830
43183W        W 8344   8.434   1.980  13.854
43184W        W 8345   0.450  19.529   4.710
43185W        W 8346  16.868  35.374  12.891
43186W        W 8347  33.964  20.668   4.365
43187W        W 8348  35.948  12.440  13.419
43188W        W 8349  22.853  21.737   1.452
43189W        W 8350  18.232  15.765  12.121
43190W        W 8351  16.753  24.465  12.362
43191W        W 8352   6.320  23.403  11.088
43192W        W 8353  30.523  26.881  13.744
43193W        W 8354  15.156  30.570   4.755
43194W        W 8355  41.687   0.056   4.067
43195W        W 8356  21.192  17.440  13.104
43196W        W 8357  24.791   3.589   3.694
43197W        W 8358  40.500  42.251  14.693
43198W        W 8359   1.252   5.072   4.089
43199W        W 8360  42.391  30.429   4.162
43200W        W 8361  42.452   8.069  13.943
43201W        W 8362   4.276  36.390   1.429
43202W        W 8363   8.613   7.738  10.652
43203W        W 8364   5.662   3.698   0.096
43204W        W 8365  30.523  31.537   4.995
43205W        W 8366  43.030  14.282  13.283
43206W        W 8367  30.387  39.524  12.872
43207W        W 8368  18.717  10.852   4.230
43208W        W 8369  29.161  19.373   4.231
43209W        W 8370  16.680   9.406  14.842
43210W        W 8371  42.627   2.763  13.444
43211W        W 8372   0.330  30.978  12.528
43212W        W 8373  21.275  41.771  11.504
43213W        W 8374  33.457  23.638  14.996
43214W        W 8375  40.815  31.224  13.964
43215W        W 8376  17.104  12.192   3.144
43216W        W 8377  14.119  38.905  11.759
43217W        W 8378  39.822  21.680   4.097
43218W        W 8379  15.276   4.551   3.389
43219W        W 8380   4.026  20.345   0.868
43220W        W 8381  40.006  18.790  14.779
43221W        W 8382  23.176  42.575  11.006
43222W        W 8383  37.378   5.229  13.086
43223W        W 8384  33.409  16.730  12.013
43224W        W 8385  42.033   2.930   1.752
43225W        W 8386  36.834   7.098   0.490
43226W        W 8387  35.307  16.027   0.709
43227W        W 8388  32.123  12.978  14.378
43228W        W 8389  15.384   0.679  13.576
43229W        W 8390  44.383  43.821  10.307
43230W        W 8391   0.302  34.617   2.263
43231W        W 8392  40.073  20.515  14.044
43232W        W 8393  26.281  12.057  13.890
43233W        W 8394   3.799  15.067   9.491
43234W        W 8395  20.629  10.819  11.153
43235W        W 8396   0.986  12.727  14.427
43236W        W 8397  36.776   9.324  10.785
43237W        W 8398  31.871  35.113   0.176
43238W        W 8399  23.338  13.915   1.838
43239W        W 8400  26.778   8.401   4.519
43240W        W 8401  17.702  25.077  12.916
43241W        W 8402   1.737  17.536  12.533
43242W        W 8403   0.449  20.577   3.373
43243W        W 8404  42.450  14.252  14.809
43244W        W 8405   0.260  18.059  10.839
43245W        W 8406   3.544  23.592   1.972
43246W        W 8407  13.231   6.822   1.203
43247W        W 8408  24.537  28.917  11.864
43248W        W 8409   2.009  34.476  12.832
43249W        W 8410  34.021  34.406   0.744
43250W        W 8411  31.492   9.318   3.229
43251W        W 8412   2.800  10.564  14.853
43252W        W 8413   2.786  43.357  10.712
43253W        W 8414  31.356  11.117   4.216
43254W        W 8415   5.080   8.077   0.476
43255W        W 8416  18.247  11.999   3.927
43256W        W 8417  12.721  27.959  11.192
43257W        W 8418   0.260   4.721   4.277
43258W        W 8419  25.397  28.037   1.932
43259W        W 8420  14.213  44.687  13.355
43260W        W 8421  21.235  13.094   1.714
43261W        W 8422  40.800  29.240  12.528
43262W        W 8423  22.144   0.097  10.662
43263W        W 8424  33.235  38.435   5.003
43264W        W 8425  43.983   5.383  12.422
43265W        W 8426  12.214  13.867  13.066
43266W        W 8427  42.849   1.220  12.289
43267W        W 8428   1.214  33.037  13.877
43268W        W 8429   5.868  32.364  14.953
43269W        W 8430   5.700  41.899  10.534
43270W        W 8431   0.762  39.026  13.023
43271W        W 8432  11.647   7.927  11.703
43272W        W 8433  24.520  33.839  13.207
43273W        W 8434  41.021  42.304  12.043
43274W        W 8435  20.210  21.168  14.229
43275W        W 8436   8.513  40.699   2.358
43276W        W 8437  25.977  33.078   1.780
43277W        W 8438  22.054  20.581   4.065
43278W        W 8439  15.068  42.474  11.443
43279W        W 8440   3.136  44.430  11.084
43280W        W 8441  20.597  14.199  12.499
43281W        W 8442  37.566   2.916   0.997
43282W        W 8443  21.270  41.336  13.498
43283W        W 8444  38.929   6.247   1.941
43284W        W 8445  40.950  39.522   3.138
43285W        W 8446   0.936  31.383  10.754
43286W        W 8447   1.032  43.993  12.218
43287W        W 8448  39.819  11.141   4.633
43288W        W 8449  10.815  17.741  10.671
43289W        W 8450   5.341  37.265   0.344
43290W        W 8451   4.114   5.747  14.307
43291W        W 8452  43.228  31.129  11.760
43292W        W 8453   3.738  13.960   0.475
43293W        W 8454  10.808  13.319   3.367
43294W        W 8455  21.854   5.373   2.375
43295W        W 8456  40.444   7.694  12.124
43296W        W 8457  32.607  34.368  13.542
43297W        W 8458  40.494   9.669   1.730
43298W        W 8459  10.588  20.949   1.450
43299W        W 8460  22.019  23.466  12.718
43300W        W 8461  41.663   7.316   5.014
43301W        W 8462  40.533  36.051   0.303
43302W        W 8463  43.390  17.075   3.717
43303W        W 8464  25.206   7.910  13.106
43304W        W 8465  37.728  26.662   0.061
43305W        W 8466   8.835  25.301  10.040
43306W        W 8467   7.949   8.714   9.960
43307W        W 8468  30.783  10.487  13.412
43308W        W 8469  39.552  33.447  14.476
43309W        W 8470  39.364  13.400   3.238
43310W        W 8471  43.762   8.205   1.443
43311W        W 8472  22.050  40.278  11.501
43312W        W 8473  24.540   3.858  13.316
43313W        W 8474  31.100   7.760  12.420
43314W        W 8475   0.253  19.169  13.025
43315W        W 8476  33.091  14.763   3.259
43316W        W 8477  14.967  35.856  13.472
43317W        W 8478   8.719  23.573  13.627
43318W        W 8479  28.742  15.215   1.347
43319W        W 8480   6.267  12.994  13.782
43320W        W 8481  27.666  25.763   3.053
43321W        W 8482  13.856  44.447  14.030
43322W        W 8483  33.218   1.963  11.410
43323W        W 8484  22.295   6.253   3.365
43324W        W 8485  10.301   2.465  11.663
43325W        W 8486  28.631  16.200  14.568
43326W        W 8487  11.590  24.594  14.998
43327W        W 8488  17.677  26.320   0.660
43328W        W 8489  39.352  39.349   2.797
43329W        W 8490   0.633  41.536   4.938
43330W        W 8491   9.977  35.418   2.718
43331W        W 8492  27.118   4.137  12.437
43332W        W 8493   8.099  26.145   0.330
43333W        W 8494  16.903  16.174  12.894
43334W        W 8495  31.087  28.588   4.089
43335W        W 8496  20.277  16.547  13.076
43336W        W 8497  42.505   1.639   1.266
43337W        W 8498   4.224  13.808  12.923
43338W        W 8499  30.991  35.702  13.829
43339W        W 8500  25.577  19.758  13.380
43340W        W 8501  42.844  29.701  12.188
43341W        W 8502  20.723   3.158   5.210
43342W        W 8503  33.114  42.648   3.643
43343W        W 8504  10.641  14.701   0.319
43344W        W 8505  31.644  36.321  13.764
43345W        W 8506  38.838   6.832   3.591
43346W        W 8507  15.386  25.605  10.411
43347W        W 8508  31.113  28.609  11.720
43348W        W 8509   7.713  20.167  10.918
43349W        W 8510  31.044  12.767  14.759
43350W        W 8511  37.965  42.488   0.787
43351W        W 8512  29.201   5.705   2.326
43352W        W 8513   2.213  32.565  11.998
43353W        W 8514  14.188  39.337   4.136
43354W        W 8515  35.830  36.819  11.471
43355W        W 8516  17.831   2.939   4.847
43356W        W 8517  42.288  20.962   2.823
43357W        W 8518   8.679  38.881  11.608
43358W        W 8519  40.740  41.992   4.339
43359W        W 8520   7.886  44.572   3.689
43360W        W 8521  22.191  18.590  10.967
43361W        W 8522  25.637  21.794  12.510
43362W        W 8523  26.449   3.217  13.422
43363W        W 8524  18.652  10.596  14.459
43364W        W 8525  30.499  36.368  13.006
43365W        W 8526  20.507  32.508  13.966
43366W        W 8527  29.465  26.423   0.895
43367W        W 8528  22.543  25.135   1.231
43368W        W 8529  12.306  37.844  13.799
43369W        W 8530  11.684  16.645   3.790
43370W        W 8531  22.461  10.901  10.480
43371W        W 8532  28.941  11.758  11.562
43372W        W 8533  28.115   8.026   1.607
43373W        W 8534  23.042  11.849  13.432
43374W        W 8535  26.672  34.643  10.382
43375W        W 8536  31.047  14.487   0.542
43376W        W 8537  21.082   4.471  12.023
43377W        W 8538   8.463   4.398  11.156
43378W        W 8539  16.662  17.928   4.622
43379W        W 8540   2.807  35.052  13.497
43380W        W 8541  31.716  14.761   3.414
43381W        W 8542  44.955  24.728  12.432
43382W        W 8543   9.169  31.173   0.542
43383W        W 8544  43.537   8.230  12.590
43384W        W 8545  26.171  44.928  12.918
43385W        W 8546   8.246  36.007   0.058
43386W        W 8547  30.170  32.174   4.198
43387W        W 8548   7.649  12.280  14.330
43388W        W 8549  40.417  26.885   4.120
43389W        W 8550  44.247  23.521   1.884
43390W        W 8551  39.218   4.822   2.179
43391W        W 8552  12.840  41.280   0.432
43392W        W 8553   0.013  31.866   2.787
43393W        W 8554  10.451  29.217   0.770
43394W        W 8555  33.065  35.421   4.790
43395W        W 8556  19.372  20.472  14.533
43396W        W 8557  43.120  30.164   2.600
43397W        W 8558  21.194   8.494  11.184
43398W        W 8559  10.399  25.873  13.916
43399W        W 8560  30.966  31.682  12.007
43400W        W 8561  21.140  44.217  11.825
43401W        W 8562  14.932  36.559   2.268
43402W        W 8563   0.665  26.562  14.657
43403W        W 8564  17.172   4.959  12.647
43404W        W 8565  33.817  28.470  14.427
43405W        W 8566  39.056  42.016  11.593
43406W        W 8567  10.656   3.995  13.021
43407W        W 8568  11.828   4.566   4.347
43408W        W 8569  37.879  17.367  13.374
43409W        W 8570  29.464  30.683  14.513
43410W        W 8571  40.868  18.635  14.359
43411W        W 8572  31.176  20.000   3.704
43412W        W 8573  17.335  31.170   3.295
43413W        W 8574  28.408  31.049  11.249
43414W        W 8575  28.233  29.050  14.314
43415W        W 8576  13.104  42.243   3.997
43416W        W 8577  20.624  41.958  10.724
43417W        W 8578  35.856  16.741   0.781
43418W        W 8579   7.062  33.822  10.985
43419W        W 8580  14.732  13.453  11.138
43420W        W 8581  20.562  25.438  13.155
43421W        W 8582  33.172  31.030  12.092
43422W        W 8583  22.904  27.117  10.855
43423W        W 8584  38.196  33.474  10.971
43424W        W 8585  14.134  38.045  11.523
43425W        W 8586   9.134  38.636  14.863
43426W        W 8587  14.140  20.571  14.223
43427W        W 8588  40.769   2.271  12.482
43428W        W 8589  17.758  39.856  14.500
43429W        W 8590  38.086  42.557  14.396
43430W        W 8591  28.700   3.025  12.403
43431W        W 8592  22.110  37.542  11.147
43432W        W 8593  38.633  29.722  13.881
43433W        W 8594   5.413  25.599   1.724
43434W        W 8595  34.622  18.062   2.816
43435W        W 8596  13.586  37.537  14.389
43436W        W 8597  38.600   6.616   2.177
43437W        W 8598   9.624  34.442   1.291
43438W        W 8599   7.718  37.916   4.752
43439W        W 8600   1.278   6.422   3.327
43440W        W 8601  42.045  44.129   0.851
43441W        W 8602  40.365  13.744  10.798
43442W        W 8603  33.175  23.769   2.425
43443W        W 8604  21.134  14.217   3.230
43444W        W 8605  18.487  19.896   4.909
43445W        W 8606  10.179  44.731   0.337
43446W        W 8607   8.369  44.522   0.414
43447W        W 8608   0.369  17.996  11.762
43448W        W 8609  16.700  18.499  14.554
43449W        W 8610   2.323  23.573   2.259
43450W        W 8611  19.778   9.350  13.865
43451W        W 8612  27.576  28.361   4.256
43452W        W 8613  13.018  29.143   0.289
43453W        W 8614  38.072  34.104   0.891
43454W        W 8615  15.451  34.408   4.177
43455W        W 8616  12.928  26.463  11.854
43456W        W 8617  25.809  21.029  14.008
43457W        W 8618  44.323  16.376  14.460
43458W        W 8619   5.258  12.850  13.289
43459W        W 8620  32.645   5.169   3.969
43460W        W 8621   9.382   9.426  10.743
43461W        W 8622  42.882  15.265  12.919
43462W        W 8623  29.182  41.032  11.043
43463W        W 8624  25.513  42.495  12.859
43464W        W 8625  40.420  26.009  13.940
43465W        W 8626  14.149  27.918  11.608
43466W        W 8627  38.372  25.424  14.159
43467W        W 8628   9.493  18.292   3.154
43468W        W 8629  12.815  20.862   4.625
43469W        W 8630  44.990   3.970   1.260
43470W        W 8631  18.430   2.566  14.352
43471W        W 8632  38.290  43.023  13.854
43472W        W 8633  23.330  24.589  13.298
43473W        W 8634  13.709  44.006   2.731
43474W        W 8635  35.395  15.011  13.299
43475W        W 8636  33.825  18.272  12.617
43476W        W 8637  24.570  27.437  14.425
43477W        W 8638  10.834  34.584   0.664
43478W        W 8639   7.347  13.644   1.757
43479W        W 8640  41.724  31.539   4.454
43480W        W 8641  34.552  29.614  11.016
43481W        W 8642  38.585  22.581   0.171
43482W        W 8643  33.663  36.605   1.198
43483W        W 8644  43.327  25.266  12.582
43484W        W 8645   1.716   7.645   3.580
43485W        W 8646  15.603   0.762  11.546
43486W        W 8647  37.589  18.511  13.449
43487W        W 8648  16.320  26.497   1.243
43488W        W 8649   1.830  14.581  12.086
43489W        W 8650  12.722  28.654   3.116
43490W        W 8651  11.867  41.773   4.293
43491W        W 8652   0.878  20.605   0.689
43492W        W 8653  32.933  23.591   0.548
43493W        W 8654  25.802   6.904  14.195
43494W        W 8655  28.974  29.245  11.933
43495W        W 8656  18.006  12.203  14.928
43496W        W 8657  15.373   4.466  11.602
43497W        W 8658  35.667  41.725  12.891
43498W        W 8659  16.760  36.071   1.401
43499W        W 8660  10.375  32.429  14.527
43500W        W 8661  40.310  44.248   3.131
43501W        W 8662  38.828  29.317  14.435
43502W        W 8663  13.341  44.518   4.158
43503W        W 8664   8.488  41.552  13.570
43504W        W 8665  29.882  10.432  13.562
43505W        W 8666  35.869   1.739   3.228
43506W        W 8667  18.814  19.718  10.694
43507W        W 8668   7.603  23.748   0.930
43508W        W 8669  28.421  21.484  12.583
43509W        W 8670   0.880  19.720   2.999
43510W        W 8671  37.989  11.807  13.143
43511W        W 8672   1.471  37.948  14.848
43512W        W 8673  30.948   4.277  14.390
43513W        W 8674  21.799   5.813   0.757
43514W        W 8675   3.815  42.449   0.006
43515W        W 8676  39.363  24.696   2.428
43516W        W 8677  16.611  35.725  14.052
43517W        W 8678  12.793   9.432   4.646
43518W        W 8679   6.342  16.055   4.564
43519W        W 8680  18.036  25.002   1.469
43520W        W 8681  17.288  41.819   2.668
43521W        W 8682  36.819  28.435  12.855
43522W        W 8683  40.039  12.607  12.059
43523W        W 8684  15.566  35.884   2.161
43524W        W 8685   2.652  17.767   4.559
43525W        W 8686  33.858   6.723  12.979
43526W        W 8687  42.759  30.990  13.108
43527W        W 8688  22.824  44.285  11.161
43528W        W 8689  34.903  41.526  12.136
43529W        W 8690   2.365  25.947  12.646
43530W        W 8691  17.143   8.793  14.276
43531W        W 8692  35.454  36.878   0.158
43532W        W 8693  25.500   9.844   3.552
43533W        W 8694  37.185  44.853   0.840
43534W        W 8695  37.655  28.534   2.493
43535W        W 8696   2.869  24.087  13.405
43536W        W 8697  21.029  39.988  12.809
43537W        W 8698   7.649  33.300   9.928
43538W        W 8699  17.338  40.180  14.528
43539W        W 8700  15.631  14.552   3.811
43540W        W 8701  23.603  33.903   1.483
43541W        W 8702  30.348   6.763  11.674
43542W        W 8703  17.685  12.852  13.792
43543W        W 8704  30.466   3.661  11.136
43544W        W 8705  44.879   7.092   4.574
43545W        W 8706  28.161  38.485   3.268
43546W        W 8707   4.662  14.684   1.486
43547W        W 8708  28.670   3.218   4.231
43548W        W 8709  29.228   7.401  10.515
43549W        W 8710  27.586  14.686  13.904
43550W        W 8711  44.837  24.066   4.042
43551W        W 8712  30.383  30.537  14.410
43552W        W 8713  25.595  21.547   2.748
43553W        W 8714  35.911  14.400  14.942
43554W        W 8715  15.655  16.079  13.535
43555W        W 8716  26.686  22.296  14.410
43556W        W 8717  10.853  11.413  13.562
43557W        W 8718   3.252  22.734   0.891
43558W        W 8719  12.056  44.357   4.636
43559W        W 8720  17.747  40.745   2.334
43560W        W 8721  38.145  20.101   1.412
43561W        W 8722   5.412  26.705  13.566
43562W        W 8723  40.828  33.120   1.804
43563W        W 8724  40.667  41.849  12.892
43564W        W 8725  33.960  37.271  12.099
43565W        W 8726  13.665  25.243   3.756
43566W        W 8727  28.380  22.281  14.789
43567W        W 8728  12.648  41.679   0.681
43568W        W 8729  40.052  33.957  10.595
43569W        W 8730   9.794  40.333   0.338
43570W        W 8731  29.599  39.782   0.744
43571W        W 8732  37.453  35.389  13.416
43572W        W 8733  22.780   9.822   0.380
43573W        W 8734  36.638   6.153  11.131
43574W        W 8735   0.033  43.335   2.710
43575W        W 8736  40.416  33.288   4.549
43576W        W 8737   2.008  35.903  12.791
43577W        W 8738  12.877  29.110  13.130
43578W        W 8739  43.319  36.915   0.397
43579W        W 8740  40.971   3.887  13.312
43580W        W 8741  31.646  12.698   1.731
43581W        W 8742  15.850   9.635   0.363
43582W        W 8743  23.933  35.928  14.359
43583W        W 8744  11.574  26.958   2.754
43584W        W 8745  41.744  17.801   0.861
43585W        W 8746   7.379  35.139   4.578
43586W        W 8747  30.600   7.995  13.560
43587W        W 8748  31.384  14.293   2.679
43588W        W 8749   1.772   6.787   1.203
43589W        W 8750  28.779  40.761   0.726
43590W        W 8751  12.853  35.731   1.218
43591W        W 8752   4.765  17.256  13.481
43592W        W 8753  22.488  14.109   3.287
43593W        W 8754  14.473  22.871  13.467
43594W        W 8755  36.601  30.770   4.732
43595W        W 8756   6.485  16.244   3.589
43596W        W 8757  27.766  30.403  12.577
43597W        W 8758   1.874  26.236   3.298
43598W        W 8759   3.000  30.430   1.742
43599W        W 8760   7.287  16.052   3.232
43600W        W 8761  12.151  36.999  11.186
43601W        W 8762  42.151  32.886  11.145
43602W        W 8763  44.672  24.506   4.923
43603W        W 8764  14.213  17.501  12.675
43604W        W 8765   1.460  26.110   2.217
43605W        W 8766  35.359  13.669  12.799
43606W        W 8767  24.936  35.011   3.229
43607W        W 8768  11.408   2.935  12.806
43608W        W 8769  31.287  36.237  11.173
43609W        W 8770  30.382  34.928  13.937
43610W        W 8771  27.775   0.561   0.498
43611W        W 8772  17.254   6.656  11.955
43612W        W 8773  43.163  19.751  11.584
43613W        W 8774  43.882  34.355  11.688
43614W        W 8775  34.536  33.991   2.715
43615W        W 8776  11.893  44.873  12.068
43616W        W 8777  14.602  26.219   3.631
43617W        W 8778  10.058  28.181  11.594
43618W        W 8779  29.940  11.209   0.796
43619W        W 8780  38.275  13.915   4.151
43620W        W 8781  42.207  11.272  12.965
43621W        W 8782  15.579  10.075   3.133
43622W        W 8783  11.925   9.352   0.220
43623W        W 8784  33.494  22.226   5.247
43624W        W 8785  27.601  12.664   2.633
43625W        W 8786  25.684  22.557  10.707
43626W        W 8787  32.058  15.549   4.588
43627W        W 8788  25.708   9.711   1.829
43628W        W 8789   3.761  26.813  12.058
43629W        W 8790  35.063  37.387  13.339
43630W        W 8791  29.926  28.671   0.764
43631W        W 8792  21.761   3.064   2.177
43632W        W 8793  11.937  42.410  11.909
43633W        W 8794  24.725  40.860  13.351
43634W        W 8795   1.470   4.218   1.304
43635W        W 8796  34.920  15.346   3.997
43636W        W 8797   1.877   0.950  13.020
43637W        W 8798  29.253  31.161   1.745
43638W        W 8799  44.889   9.409  13.903
43639W        W 8800  27.107  25.876  12.601
43640W        W 8801   3.615  34.160   4.753
43641W        W 8802  37.490   6.891   3.604
43642W        W 8803  10.212  26.488   1.395
43643W        W 8804  19.563  16.953  13.857
43644W        W 8805  32.266  10.263  14.933
43645W        W 8806  14.320  44.517  13.840
43646W        W 8807   2.863   2.660   3.736
43647W        W 8808  14.505  14.127  13.623
43648W        W 8809  40.366  17.003   4.500
43649W        W 8810  44.729  31.520  12.125
43650W        W 8811  14.072  36.800   1.752
43651W        W 8812  43.252   1.221   0.851
43652W        W 8813  10.164  42.973   1.301
43653W        W 8814  33.484  25.652   2.356
43654W        W 8815   6.358  21.045   4.963
43655W        W 8816  21.760   6.356   4.739
43656W        W 8817  24.437  22.029   1.226
43657W        W 8818  37.484  17.333  14.908
43658W        W 8819  39.114  25.070  13.441
43659W        W 8820  37.618  29.394  13.949
43660W        W 8821   6.051  24.330  10.205
43661W        W 8822   5.328   4.697   2.874
43662W        W 8823  20.621   6.291  12.038
43663W        W 8824  27.487  31.228  11.754
43664W        W 8825  27.024  44.671  14.956
43665W        W 8826   2.197   3.896   2.609
43666W        W 8827  39.711  16.130  13.093
43667W        W 8828  16.809  22.156   4.525
43668W        W 8829  16.744  44.005  12.489
43669W        W 8830   7.395   0.339   4.019
43670W        W 8831  10.006  38.344   4.809
43671W        W 8832  39.382  35.188  10.310
43672W        W 8833   5.441  16.316   3.661
43673W        W 8834  29.222  17.790   1.723
43674W        W 8835  24.038  22.812  11.129
43675W        W 8836  26.791  10.123  13.344
43676W        W 8837  12.081  30.639   1.834
43677W        W 8838  44.851  28.469   1.264
43678W        W 8839   0.905  24.216   1.008
43679W        W 8840  39.382  22.422   0.440
43680W        W 8841  22.256   0.829  12.177
43681W        W 8842   9.395   3.449   3.690
43682W        W 8843  10.370  14.756  10.642
43683W        W 8844  27.436   1.953  12.036
43684W        W 8845  34.161  20.272   4.712
43685W        W 8846   5.295   1.686  13.762
43686W        W 8847  28.026  44.358  14.863
43687W        W 8848   6.335   7.956   3.157
43688W        W 8849   4.200  11.708   1.721
43689W        W 8850  42.555  37.973   1.755
43690W        W 8851  37.776  14.562  12.948
43691W        W 8852  41.953   9.638   0.224
43692W        W 8853  25.688  20.059   1.358
43693W        W 8854  36.808  35.638  11.100
43694W        W 8855  20.503   7.256   0.649
43695W        W 8856   3.764  37.844   3.699
43696W        W 8857  14.020  13.690   2.119
43697W        W 8858   4.645  15.886  12.538
43698W        W 8859  32.785  15.774  13.927
43699W        W 8860   3.030  28.779   0.886
43700W        W 8861  20.681   1.636  10.394
43701W        W 8862   4.650   5.434   0.957
43702W        W 8863  15.003  38.953  13.746
43703W        W 8864  28.634  11.616  14.896
43704W        W 8865   4.009  31.509  11.557
43705W        W 8866  15.732  25.420   9.960
43706W        W 8867  14.580  27.692  12.115
43707W        W 8868   2.267   0.518  13.831
43708W        W 8869  11.583  20.472  14.923
43709W        W 8870  20.999   1.492   2.605
43710W        W 8871  14.671  31.056   2.669
43711W        W 8872  44.720   1.317  10.591
43712W        W 8873  30.990  20.482   2.890
43713W        W 8874   0.754  17.069  12.374
43714W        W 8875  42.582  11.311   0.413
43715W        W 8876  17.639  30.954  13.050
43716W        W 8877  13.235  19.352  14.823
43717W        W 8878  41.785  44.096   1.459
43718W        W 8879   6.352  19.345  13.356
43719W        W 8880  32.980  10.686   3.853
43720W        W 8881  35.873  25.662  13.134
43721W        W 8882   8.593   1.512  12.791
43722W        W 8883  21.853  19.287  11.974
43723W        W 8884  43.417  12.100  13.038
43724W        W 8885   1.270  27.514   4.065
43725W        W 8886  11.694  40.470   4.519
43726W        W 8887  44.846  23.372  11.349
43727W        W 8888   6.181  28.498  12.183
43728W        W 8889  34.945  15.665  11.059
43729W        W 8890  20.800  37.806   0.344
43730W        W 8891  38.266  11.340  14.261
43731W        W 8892  21.343   1.937  12.406
43732W        W 8893  19.540  18.734  13.430
43733W        W 8894  29.476   9.304   4.627
43734W        W 8895  18.669  29.357  14.460
43735W        W 8896   4.360  28.407  12.569
43736W        W 8897  14.594  18.755   1.242
43737W        W 8898  43.447  11.582   1.173
43738W        W 8899  23.229  25.269   2.399
43739W        W 8900  36.774  27.426   0.511
43740W        W 8901  42.635  10.464   4.719
43741W        W 8902   2.407   8.342  13.193
43742W        W 8903   9.934   9.616  13.762
43743W        W 8904   7.228  40.604  10.597
43744W        W 8905  38.101  36.165  14.524
43745W        W 8906  36.527  24.441   2.250
43746W        W 8907  11.345  34.455  13.002
43747W        W 8908  20.708  38.292  14.052
43748W        W 8909  34.813  23.737  13.880
43749W        W 8910  29.655  28.315   0.506
43750W        W 8911  14.171  36.566  12.421
43751W        W 8912  13.015  34.421  11.527
43752W        W 8913  43.109  13.640   4.146
43753W        W 8914   1.659  32.676  14.981
43754W        W 8915   7.787  17.253   4.560
43755W        W 8916   9.402  14.242   2.778
43756W        W 8917  15.792  11.240   0.236
43757W        W 8918  26.734  25.516  10.638
43758W        W 8919  15.131  18.604   5.272
43759W        W 8920   1.432   4.654   3.158
43760W        W 8921  20.817  36.900  13.506
43761W        W 8922   9.653  14.872  11.178
43762W        W 8923   3.839  36.160  14.567
43763W        W 8924  34.495  36.776   4.281
43764W        W 8925  27.770  24.273  13.723
43765W        W 8926  30.513   8.912   3.202
43766W        W 8927  41.197  30.705  11.566
43767W        W 8928  40.407  22.160  12.988
43768W        W 8929  10.208  24.624  11.087
43769W        W 8930  37.180  38.333  14.295
43770W        W 8931  26.210   6.783   0.035
43771W        W 8932  23.623   7.331  13.707
43772W        W 8933  30.917  43.049   2.691
43773W        W 8934   1.756  43.817   4.490
43774W        W 8935  11.108  38.910  13.916
43775W        W 8936  23.029  43.758  13.275
43776W        W 8937  20.305  40.391  12.165
43777W        W 8938   6.330   6.429  14.331
43778W        W 8939  40.761  22.632  11.252
43779W        W 8940  23.620  32.855  13.475
43780W        W 8941  22.516   4.477   3.764
43781W        W 8942  37.098  25.622  11.782
43782W        W 8943  44.394  15.597  12.015
43783W        W 8944   4.381  23.196  13.422
43784W        W 8945  15.696  17.810  11.444
43785W        W 8946  41.346  39.733  12.556
43786W        W 8947  20.263   8.793   4.740
43787W        W 8948   9.449  39.048   2.249
43788W        W 8949   8.729  21.469   4.147
43789W        W 8950  18.867  29.039  14.840
43790W        W 8951  26.505   2.241   2.775
43791W        W 8952  25.569  14.240   5.048
43792W        W 8953   6.453  42.883   2.407
43793W        W 8954  42.010  40.598  14.406
43794W        W 8955  32.466  32.800  11.575
43795W        W 8956   8.349  44.590   4.887
43796W        W 8957  29.645  31.875  11.704
43797W        W 8958  19.812  15.624  14.034
43798W        W 8959  24.673   3.481  13.663
43799W        W 8960  15.371   5.340  14.329
43800W        W 8961  31.448  34.935   2.324
43801W        W 8962  22.459   1.078  13.912
43802W        W 8963   9.881  43.879  12.425
43803W        W 8964   4.829  43.419  13.060
43804W        W 8965  44.519  10.210  13.520
43805W        W 8966   3.473  40.324   4.362
43806W        W 8967  35.919  23.556  11.567
43807W        W 8968  26.763  25.603   4.220
43808W        W 8969  14.081   2.347   1.455
43809W        W 8970  31.017  24.909   0.793
43810W        W 8971  43.519  43.726   2.220
43811W        W 8972  38.796  22.720  12.427
43812W        W 8973  31.534   2.203  11.592
43813W        W 8974  14.147  40.882  12.495
43814W        W 8975  29.526  18.062   3.335
43815W        W 8976   9.355   2.699  13.563
43816W        W 8977  14.617   0.924  14.590
43817W        W 8978   8.603  15.370   1.227
43818W        W 8979  21.960  39.297   2.266
43819W        W 8980  26.245  18.671   3.442
43820W        W 8981  35.348  20.341  10.715
43821W        W 8982  26.174  28.013   3.704
43822W        W 8983  34.078  41.681  14.844
43823W        W 8984  44.903  19.530   0.193
43824W        W 8985  42.225   2.875  11.056
43825W        W 8986  39.848   3.539  12.427
43826W        W 8987  40.999  38.406  10.441
43827W        W 8988  20.563  10.593  10.682
43828W        W 8989  38.581  27.545   1.901
43829W        W 8990  35.222  26.480   4.240
43830W        W 8991  21.592  30.997  14.461
43831W        W 8992   7.767   7.638  11.048
43832W        W 8993  37.795  26.997  10.932
43833W        W 8994  26.106  38.765   1.727
43834W        W 8995  13.051  41.834  14.296
43835W        W 8996  42.235  28.708  12.709
43836W        W 8997  17.548  44.689  10.342
43837W        W 8998  43.451  42.004   3.152
43838W        W 8999  33.397   5.434   0.143
43839W        W 9000  29.225  41.568   2.739
43840W        W 9001  38.674  43.305  13.520
43841W        W 9002  11.891  13.775  12.346
43842W        W 9003  43.301   2.647   3.724
43843W        W 9004  22.091  24.209  12.482
43844W        W 9005  13.913   1.174  11.662
43845W        W 9006  34.472  25.552  13.326
43846W        W 9007  27.013  17.613   3.558
43847W        W 9008  43.276  21.550  14.973
43848W        W 9009  31.327  41.918  14.494
43849W        W 9010  19.099   4.962   4.577
43850W        W 9011  44.875  40.736   1.062
43851W        W 9012  21.433   2.465  12.481
43852W        W 9013  18.181   7.787   1.012
43853W        W 9014  15.414  15.784   3.323
43854W        W 9015  19.379   8.027  12.837
43855W        W 9016   5.286  44.912   4.527
43856W        W 9017  13.614  37.390  13.104
43857W        W 9018  12.431  44.490   4.058
43858W        W 9019  29.029  29.507  14.270
43859W        W 9020   2.834   4.927  14.476
43860W        W 9021   0.220   2.904  10.811
43861W        W 9022  37.465  18.696  14.321
43862W        W 9023  38.149  26.642   1.016
43863W        W 9024  19.671  35.370  13.563
43864W        W 9025   8.960  39.450   2.727
43865W        W 9026   6.960  11.637  12.089
43866W        W 9027  41.855  43.862   4.764
43867W        W 9028   0.234   0.235   1.411
43868W        W 9029  25.468  24.989  14.334
43869W        W 9030  30.101  40.808  13.107
43870W        W 9031  35.539  43.355   0.551
43871W        W 9032  25.952   4.712   4.217
43872W        W 9033  43.979  26.971   0.012
43873W        W 9034  35.892  34.423   3.357
43874W        W 9035  42.075  19.672   3.140
43875W        W 9036  25.934  32.505   1.471
43876W        W 9037  10.410  21.790  12.848
43877W        W 9038  13.702   6.756  14.980
43878W        W 9039  39.979   3.899  13.786
43879W        W 9040  24.503  42.844   1.892
43880W        W 9041  29.705  14.756   2.221
43881W        W 9042   7.704  34.178  12.059
43882W        W 9043  12.291  33.576   2.286
43883W        W 9044   0.816  38.979   0.032
43884W        W 9045   3.960   5.445  14.779
43885W        W 9046   3.788  20.479   0.397
43886W        W 9047   8.679  24.506  11.615
43887W        W 9048   1.281  30.944   4.086
43888W        W 9049  15.355   8.187   1.361
43889W        W 9050  31.384  15.734  11.520
43890W        W 9051   7.658  26.473   2.668
43891W        W 9052  16.858  23.987   4.368
43892W        W 9053   2.534  28.915   0.765
43893W        W 9054  35.087  27.983  11.074
43894W        W 9055  18.127  42.882  11.907
43895W        W 9056  25.395  14.864   2.296
43896W        W 9057  27.060  13.968   4.823
43897W        W 9058  23.779  44.347  13.923
43898W        W 9059  19.730  36.328   0.036
43899W        W 9060   0.214   1.744  14.488
43900W        W 9061  19.560   7.407  13.798
43901W        W 9062   1.705  31.602   2.387
43902W        W 9063  11.213  28.454   4.829
43903W        W 9064  18.630  24.925   0.834
43904W        W 9065  30.280  18.214   2.799
43905W        W 9066  44.549  33.992  11.861
43906W        W 9067  24.091  14.406   4.195
43907W        W 9068  28.211  38.430  10.929
43908W        W 9069   1.323   6.327   1.071
43909W        W 9070  39.451  17.383  13.552
43910W        W 9071  40.029  21.590   0.833
43911W        W 9072  41.380  14.336  11.238
43912W        W 9073  43.694   2.411   1.828
43913W        W 9074   9.591  12.166  11.647
43914W        W 9075  40.774  14.850   2.971
43915W        W 9076  41.913  30.717  14.558
43916W        W 9077  31.825  11.609  14.433
43917W        W 9078  11.975  16.704  14.524
43918W        W 9079  14.414  32.322  14.546
43919W        W 9080  28.658   9.451  12.829
43920W        W 9081  30.500  34.072   0.901
43921W        W 9082  11.365  25.558   4.827
43922W        W 9083  34.536   0.663  10.805
43923W        W 9084  23.401  32.621  13.918
43924W        W 9085  16.718  42.365   9.744
43925W        W 9086  26.642   5.253  12.808
43926W        W 9087  31.639  19.875   1.353
43927W        W 9088  40.955  43.531   0.005
43928W        W 9089  34.409   0.676   0.245
43929W        W 9090  39.012   1.684  14.093
43930W        W 9091  43.913  13.674  13.351
43931W        W 9092   6.172   8.657  10.684
43932W        W 9093  15.094  22.039  12.849
43933W        W 9094  24.278   2.329   2.547
43934W        W 9095  23.940  31.130  11.500
43935W        W 9096   8.815  34.646   3.147
43936W        W 9097  22.278   8.356   0.505
43937W        W 9098  32.591  43.837   4.829
43938W        W 9099  35.026  15.597   3.278
43939W        W 9100  30.634  28.959  13.501
43940W        W 9101  21.203   5.651   1.416
43941W        W 9102  21.163  25.380   0.477
43942W        W 9103  22.141  21.995   1.160
43943W        W 9104  20.624   6.816  11.684
43944W        W 9105   3.467  33.359  14.427
43945W        W 9106   7.367  11.667  13.415
43946W        W 9107  41.457  42.104  14.854
43947W        W 9108   7.973   6.237   3.767
43948W        W 9109  20.313   2.523  14.034
43949W        W 9110  10.110   0.207  11.934
43950W        W 9111  39.798   3.462   2.631
43951W        W 9112  10.949  25.142   4.976
43952W        W 9113  30.615  40.782   4.142
43953W        W 9114  24.155  30.353   1.139
43954W        W 9115  38.514  19.656   0.504
43955W        W 9116  27.282  32.645  14.181
43956W        W 9117  39.433   1.736  14.423
43957W        W 9118   6.387  11.310   0.305
43958W        W 9119  28.934  22.769  10.602
43959W        W 9120  22.940  38.404  13.738
43960W        W 9121  31.969  38.469  10.979
43961W        W 9122  17.810  30.148   0.218
43962W        W 9123  20.171  30.879  14.246
43963W        W 9124  17.518  26.795   0.812
43964W        W 9125   1.275  31.466  12.979
43965W        W 9126  29.610  19.097   1.702
43966W        W 9127  14.837  24.975   1.832
43967W        W 9128   4.710  10.932  13.494
43968W        W 9129   8.947  37.783  14.701
43969W        W 9130   0.341   5.888  14.404
43970W        W 9131  12.271  43.346  11.624
43971W        W 9132  42.756  17.639  14.937
43972W        W 9133  15.288  27.126  14.041
43973W        W 9134  42.930  34.663  11.001
43974W        W 9135  18.286   5.129   5.032
43975W        W 9136  15.165   6.304   0.369
43976W        W 9137  30.115  18.372   1.909
43977W        W 9138  17.554  43.909   2.778
43978W        W 9139  28.958  12.401   3.323
43979W        W 9140  19.483   5.271   1.713
43980W        W 9141  35.729  25.579   2.175
43981W        W 9142  13.798  35.626   3.333
43982W        W 9143  43.488  19.319  13.357
43983W        W 9144  33.315   7.395   1.382
43984W        W 9145  10.864  30.617   1.628
43985W        W 9146  24.972  18.627   4.258
43986W        W 9147   0.488  35.101   0.732
43987W        W 9148  42.419  34.048   3.239
43988W        W 9149  19.950  40.056  11.926
43989W        W 9150  10.889  41.793   2.223
43990W        W 9151  44.985  31.525  14.023
43991W        W 9152  29.589  41.759   0.972
43992W        W 9153  22.674  27.835   2.893
43993W        W 9154  44.832   2.737  12.936
43994W        W 9155  25.715  41.756   1.886
43995W        W 9156   6.371  17.325   4.365
43996W        W 9157  20.505  41.718  13.381
43997W        W 9158  41.258  11.258   4.641
43998W        W 9159  34.460   7.834   4.451
43999W        W 9160  11.606  26.186  14.278
44000W        W 9161  12.481  42.870   3.807
44001W        W 9162   7.101   1.413  10.950
44002W        W 9163  12.839  36.372  14.536
44003W        W 9164   5.884   7.367  11.058
44004W        W 9165  28.170   5.723  13.641
44005W        W 9166  28.793  12.784   4.685
44006W        W 9167  24.255   7.937   3.412
44007W        W 9168   4.449  33.026   2.310
44008W        W 9169   1.258   4.821   2.163
44009W        W 9170   6.232  30.310  10.556
44010W        W 9171  31.572  38.790  11.116
44011W        W 9172  33.647  39.785  14.990
44012W        W 9173  12.366  16.180   1.431
44013W        W 9174  33.335   9.411   0.365
44014W        W 9175  24.120  22.647  10.622
44015W        W 9176  21.783  41.632   3.631
44016W        W 9177   7.837  35.581   1.706
44017W        W 9178  40.100  34.641   2.968
44018W        W 9179  25.982  36.328  13.019
44019W        W 9180  36.529  20.577  11.392
44020W        W 9181  11.688   1.894  14.714
44021W        W 9182  24.070  23.151  11.526
44022W        W 9183   1.561  17.567  13.020
44023W        W 9184  37.686  30.723  14.321
44024W        W 9185   6.082  28.735   4.154
44025W        W 9186  17.243  30.002  14.970
44026W        W 9187  26.997  18.887   1.634
44027W        W 9188  34.927  37.534  12.384
44028W        W 9189  19.460  21.624   0.363
44029W        W 9190   7.746  17.082   9.814
44030W        W 9191  28.125  38.644   1.737
44031W        W 9192  37.764   3.434  10.512
44032W        W 9193  17.014   3.250  12.828
44033W        W 9194  40.825  41.862   4.813
44034W        W 9195  33.800  22.422   5.619
44035W        W 9196  37.034  31.342  11.169
44036W        W 9197   1.659  14.745  13.094
44037W        W 9198  13.617  44.365  12.147
44038W        W 9199  24.245  24.149  11.675
44039W        W 9200  35.181  31.016   4.744
44040W        W 9201  28.201   9.443  11.634
44041W        W 9202  21.041  43.311  10.600
44042W        W 9203  19.071  39.549  11.185
44043W        W 9204  40.864  20.972  11.194
44044W        W 9205  26.634  30.244  10.746
44045W        W 9206  38.729  29.146  10.791
44046W        W 9207  11.101  13.370   2.723
44047W        W 9208  33.148  44.851   4.669
44048W        W 9209  44.773  15.100   4.553
44049W        W 9210  25.592  27.415  12.967
44050W        W 9211   2.938  24.791  14.616
44051W        W 9212  31.086  31.301   2.770
44052W        W 9213  41.889  23.298  11.075
44053W        W 9214  23.178  19.720   4.847
44054W        W 9215  39.080   3.233   2.568
44055W        W 9216  39.158  18.161  13.798
44056W        W 9217   6.938  15.672   2.234
44057W        W 9218  28.821   1.083   9.745
44058W        W 9219  14.143  13.633  12.288
44059W        W 9220  19.649  17.928  14.259
44060W        W 9221  13.914  10.672  11.984
44061W        W 9222   0.590   4.351   4.321
44062W        W 9223  31.025  27.696   2.029
44063W        W 9224  28.970   4.153   2.382
44064W        W 9225  11.806  33.699   2.464
44065W        W 9226  36.877  16.546  14.981
44066W        W 9227  17.034  41.530   1.705
44067W        W 9228  31.623   6.405  13.617
44068W        W 9229  31.593   5.359  13.074
44069W        W 9230  22.715  44.458  12.976
44070W        W 9231  40.404  25.606  14.287
44071W        W 9232  24.729  44.052  13.897
44072W        W 9233  39.865  30.105  10.739
44073W        W 9234  32.628   2.885   2.192
44074W        W 9235  18.219  26.362   4.058
44075W        W 9236  15.212  33.529   1.224
44076W        W 9237  31.412  24.712  14.110
44077W        W 9238   9.612  26.237   3.742
44078W        W 9239  34.541  36.658  10.935
44079W        W 9240  15.741  21.587   1.906
44080W        W 9241  33.149  41.542   1.863
44081W        W 9242  16.083  26.155   3.647
44082W        W 9243  42.918  40.823   1.715
44083W        W 9244   9.625  29.532  10.505
44084W        W 9245  42.887  10.648  10.568
44085W        W 9246   5.014  41.882   0.343
44086W        W 9247  36.111  34.479  13.011
44087W        W 9248  14.631  24.667   2.649
44088W        W 9249  28.737  10.307  10.155
44089W        W 9250  13.132  18.908  12.504
44090W        W 9251   1.713  42.301  13.480
44091W        W 9252  39.026  28.912  14.115
44092W        W 9253  14.321  22.055  10.845
44093W        W 9254   3.044  16.661   5.169
44094W        W 9255  32.931  43.445  11.693
44095W        W 9256  36.648  22.875  12.909
44096W        W 9257  35.944  14.770  11.098
44097W        W 9258   8.593  36.491   3.722
44098W        W 9259  21.442  41.376   4.559
44099W        W 9260  37.900  25.108   3.644
44100W        W 9261  38.025  24.493   2.723
44101W        W 9262  33.190  23.352   3.310
44102W        W 9263  31.712  33.871   4.618
44103W        W 9264  14.726  19.075   4.626
44104W        W 9265  25.166  35.402  11.163
44105W        W 9266   5.694   5.331   0.347
44106W        W 9267   7.192  39.391   3.228
44107W        W 9268  39.955  41.964   3.795
44108W        W 9269  40.249  39.093  12.467
44109W        W 9270  30.316  10.309  13.307
44110W        W 9271  43.186  33.905  10.082
44111W        W 9272  27.725   8.597   2.780
44112W        W 9273  36.096  23.505  12.029
44113W        W 9274   6.786  24.567   3.555
44114W        W 9275  18.666  14.898   1.934
44115W        W 9276   5.178  16.434  14.733
44116W        W 9277  10.194  32.696   4.602
44117W        W 9278  23.999   7.196   0.373
44118W        W 9279  11.871   2.702  11.210
44119W        W 9280  33.995  25.557   0.883
44120W        W 9281  29.893   3.870   4.193
44121W        W 9282  28.589   5.994   4.294
44122W        W 9283  26.451  20.487   2.157
44123W        W 9284  25.714  23.953  11.262
44124W        W 9285  36.924  27.693   3.410
44125W        W 9286  29.143  26.301   1.283
44126W        W 9287  23.215  31.081   1.323
44127W        W 9288   7.307  19.621  14.369
44128W        W 9289   4.854  16.190  11.245
44129W        W 9290   5.582  34.277  11.248
44130W        W 9291  16.251  17.816   2.309
44131W        W 9292  28.128  11.685   0.894
44132W        W 9293  29.080  10.750  14.880
44133W        W 9294  11.597  22.535  13.131
44134W        W 9295  20.604  43.318  11.851
44135W        W 9296  23.658   4.935  11.637
44136W        W 9297  28.400  27.089   0.816
44137W        W 9298  41.559  18.275  10.822
44138W        W 9299   3.066  40.771  12.897
44139W        W 9300  38.048  11.655  12.100
44140W        W 9301  39.907  22.002   1.728
44141W        W 9302  27.032   6.434  13.603
44142W        W 9303  39.880  38.984  13.751
44143W        W 9304  14.886  16.047  13.938
44144W        W 9305  31.149  12.638   0.845
44145W        W 9306   7.446  32.187  14.438
44146W        W 9307   3.935  27.795   4.734
44147W        W 9308  29.707  28.435  12.920
44148W        W 9309  14.721  19.398   2.401
44149W        W 9310  11.198  12.111   0.400
44150W        W 9311  11.064  36.630   4.195
44151W        W 9312  42.765  33.520   0.766
44152W        W 9313  10.720  10.491   4.571
44153W        W 9314  14.812   1.191   0.456
44154W        W 9315  30.860   1.524   0.083
44155W        W 9316   4.978  27.356   0.175
44156W        W 9317  21.550  26.172   0.667
44157W        W 9318  13.570  37.354  11.187
44158W        W 9319  32.882  42.195  12.431
44159W        W 9320  25.020  27.591   1.211
44160W        W 9321  40.842  33.657   1.885
44161W        W 9322  37.381  25.887  13.955
44162W        W 9323  34.463   0.790  14.215
44163W        W 9324   8.166   5.492  12.592
44164W        W 9325   1.035  25.164  11.177
44165W        W 9326   1.567  37.151   9.916
44166W        W 9327  36.687  44.652   1.338
44167W        W 9328   7.351  21.703   2.590
44168W        W 9329  20.247  15.292   1.247
44169W        W 9330  15.703  29.798   2.189
44170W        W 9331  29.694   3.959  10.629
44171W        W 9332  14.865  22.099   4.874
44172W        W 9333  18.585  34.028  14.411
44173W        W 9334  44.026  33.104   2.832
44174W        W 9335   5.417  11.222   3.452
44175W        W 9336  12.839  21.471   3.780
44176W        W 9337  18.518  26.675   3.779
44177W        W 9338  12.098   6.485   4.054
44178W        W 9339  28.052   4.400   2.765
44179W        W 9340  22.690  35.198   3.633
44180W        W 9341  18.641  19.322  13.983
44181W        W 9342   1.324  42.322  12.116
44182W        W 9343   6.641  23.488  14.048
44183W        W 9344  33.750  16.921   4.627
44184W        W 9345  22.126  37.495   1.797
44185W        W 9346  10.630   3.996   3.195
44186W        W 9347   3.323  19.235  11.877
44187W        W 9348  19.723  20.967   3.890
44188W        W 9349  41.955  20.227  14.933
44189W        W 9350  37.634  34.452  10.746
44190W        W 9351  43.358  24.386  12.201
44191W        W 9352  43.809   4.365   3.293
44192W        W 9353  43.479  42.433  13.546
44193W        W 9354   7.844   8.156  12.987
44194W        W 9355  35.652  19.533  11.138
44195W        W 9356   6.637  35.297   3.582
44196W        W 9357  23.866   3.719  13.896
44197W        W 9358  18.510  10.372   0.291
44198W        W 9359   5.420   8.771  11.196
44199W        W 9360  25.892   3.342  12.595
44200W        W 9361  28.496   7.269   1.868
44201W        W 9362  13.888  41.741   1.141
44202W        W 9363  40.774   6.708  13.323
44203W        W 9364  10.303  36.044  14.862
44204W        W 9365   5.894   5.880   0.422
44205W        W 9366   2.788  16.607   3.808
44206W        W 9367  13.633  32.081   2.820
44207W        W 9368  15.175   6.883  13.457
44208W        W 9369   5.640  26.788   2.366
44209W        W 9370  36.497   5.261  14.845
44210W        W 9371  33.528   4.245   2.285
44211W        W 9372  22.001  43.872  12.869
44212W        W 9373  30.038  40.099   1.365
44213W        W 9374  27.914  21.870   3.605
44214W        W 9375   3.731  44.809  11.005
44215W        W 9376  37.347  12.426   1.448
44216W        W 9377  14.712   1.859  10.230
44217W        W 9378  34.090  23.062   1.418
44218W        W 9379  23.211  42.363   3.647
44219W        W 9380  10.785  37.632   3.245
44220W        W 9381   5.382  18.382  11.069
44221W        W 9382  29.963  27.926   3.475
44222W        W 9383  39.302  13.216   1.933
44223W        W 9384   8.142  18.768  13.417
44224W        W 9385  11.929  22.599   0.733
44225W        W 9386  20.676  26.781  12.097
44226W        W 9387  30.709  33.138  13.521
44227W        W 9388  34.861  33.510   0.856
44228W        W 9389   3.488  31.891  12.080
44229W        W 9390  39.336  16.991   2.171
44230W        W 9391  25.707  33.902   1.471
44231W        W 9392   4.268  18.494  13.814
44232W        W 9393  33.636  37.200   5.447
44233W        W 9394  26.031   7.468   0.288
44234W        W 9395  41.557  30.061   3.689
44235W        W 9396  27.990   1.397   2.592
44236W        W 9397  41.511  29.393   0.771
44237W        W 9398  22.392  34.030  10.212
44238W        W 9399  38.855  32.291  12.536
44239W        W 9400  36.082  31.469  14.760
44240W        W 9401  30.568  31.249   4.018
44241W        W 9402  13.715  27.923  10.436
44242W        W 9403  19.514  42.122   2.113
44243W        W 9404   6.013  11.945   1.412
44244W        W 9405  11.288  10.389   1.501
44245W        W 9406  20.956   2.299  12.417
44246W        W 9407  25.928   4.171  11.498
44247W        W 9408   0.349  35.142   5.472
44248W        W 9409  26.982  13.708   4.383
44249W        W 9410   0.171  33.933   2.843
44250W        W 9411  35.488  13.950   3.228
44251W        W 9412  43.077  19.784  12.564
44252W        W 9413  26.059  12.192   4.514
44253W        W 9414  40.313   1.627   4.088
44254W        W 9415  36.651  12.037   4.628
44255W        W 9416   8.197  40.416   3.431
44256W        W 9417  21.403  34.461   2.786
44257W        W 9418  40.301  33.500   0.857
44258W        W 9419   9.836   2.735  12.885
44259W        W 9420  28.472   4.760   3.667
44260W        W 9421  25.673  27.119   3.659
44261W        W 9422  13.511  26.859  14.379
44262W        W 9423  29.819   7.823  12.508
44263W        W 9424  32.381   3.776  12.442
44264W        W 9425   3.820  33.567  12.053
44265W        W 9426  10.696  40.322   0.826
44266W        W 9427  35.077  18.587  12.524
44267W        W 9428  40.428  21.662  11.813
44268W        W 9429  34.088  30.964   1.864
44269W        W 9430   4.249  40.332   0.659
44270W        W 9431  28.009  13.403  12.063
44271W        W 9432  30.996  43.264  13.098
44272W        W 9433  23.596  28.287  11.135
44273W        W 9434  26.210  14.548   0.159
44274W        W 9435  38.430  22.613   2.269
44275W        W 9436  27.241  23.157   4.120
44276W        W 9437  19.758  13.381   4.151
44277W        W 9438  28.091  26.600  10.305
44278W        W 9439   1.627  18.515  13.657
44279W        W 9440  17.799  41.468   0.251
44280W        W 9441  11.348  29.161  13.028
44281W        W 9442  44.310   1.090  10.854
44282W        W 9443  10.157   7.372   0.904
44283W        W 9444  16.100  35.057  11.283
44284W        W 9445   5.284  39.848   1.622
44285W        W 9446  20.576  33.958   0.730
44286W        W 9447  17.194   9.343  14.297
44287W        W 9448  16.821  19.783   4.148
44288W        W 9449  26.655   2.209  11.168
44289W        W 9450   2.969  26.119   0.760
44290W        W 9451  43.286  31.154   1.279
44291W        W 9452  31.992   9.875   2.175
44292W        W 9453  10.879  20.054  14.064
44293W        W 9454  38.316  37.141   3.175
44294W        W 9455   0.839  27.457  10.677
44295W        W 9456  37.509  42.611  10.277
44296W        W 9457  44.003   2.306   4.016
44297W        W 9458   3.136  22.971   2.150
44298W        W 9459   6.731  32.133   1.429
44299W        W 9460  26.516  23.435  12.080
44300W        W 9461  44.435  28.056  10.133
44301W        W 9462  17.013  19.189  10.656
44302W        W 9463  18.898  20.350  14.707
44303W        W 9464  42.389  14.716  12.938
44304W        W 9465  15.735   8.322   1.025
44305W        W 9466  39.086  22.678   0.062
44306W        W 9467  25.214  17.103  12.453
44307W        W 9468  32.694   8.880  12.908
44308W        W 9469  44.145   9.404  12.865
44309W        W 9470  31.001  32.173   2.639
44310W        W 9471  31.632  18.285  14.905
44311W        W 9472  23.382   7.414  13.255
44312W        W 9473  40.940  18.380  14.854
44313W        W 9474  20.171  10.895  12.864
44314W        W 9475   5.380   5.527  11.621
44315W        W 9476   8.297  23.431   2.624
44316W        W 9477  10.789  42.391   4.140
44317W        W 9478   1.195  43.436  10.535
44318W        W 9479  40.202  17.794   0.745
44319W        W 9480  34.602  16.144  13.132
44320W        W 9481  40.973  18.611  11.940
44321W        W 9482   2.983  29.204  13.543
44322W        W 9483  37.065  31.083   3.186
44323W        W 9484   0.304  24.447   2.757
44324W        W 9485  23.012  43.412  11.265
44325W        W 9486  17.593  43.532  12.522
44326W        W 9487  39.916   9.717   3.355
44327W        W 9488  35.154   5.487   3.645
44328W        W 9489  33.673  29.521   0.889
44329W        W 9490   5.662   1.311   1.264
44330W        W 9491   2.415  13.516  14.336
44331W        W 9492  33.950  23.471   1.684
44332W        W 9493  17.748   0.535  12.902
44333W        W 9494   2.257  37.076  14.470
44334W        W 9495  37.191  21.291   0.341
44335W        W 9496  16.723  44.497  14.932
44336W        W 9497   3.245  42.388  13.363
44337W        W 9498  20.464  36.608  11.952
44338W        W 9499   3.344   1.896  12.673
44339W        W 9500  33.237  38.152   4.511
44340W        W 9501  40.922  22.084  13.037
44341W        W 9502   6.247  23.609   0.250
44342W        W 9503  38.444  16.757  13.745
44343W        W 9504  35.937  18.097   1.262
44344W        W 9505  13.290  12.756   2.690
44345W        W 9506   7.549  44.738   1.803
44346W        W 9507   9.982  19.952   3.786
44347W        W 9508  15.171   2.720   4.424
44348W        W 9509  24.349   8.729   3.372
44349W        W 9510  32.032  31.457   3.921
44350W        W 9511  12.719  10.644   2.870
44351W        W 9512  38.537  10.247  12.397
44352W        W 9513  28.150  32.842   0.267
44353W        W 9514  44.771  20.536   1.861
44354W        W 9515  35.658  32.287   1.256
44355W        W 9516   0.261  27.555  11.319
44356W        W 9517  44.891  39.708   1.408
44357W        W 9518  17.320  29.508   4.064
44358W        W 9519  41.762  29.994   0.833
44359W        W 9520  17.751  20.700  12.411
44360W        W 9521  29.911   7.767   1.866
44361W        W 9522  11.400  41.330  14.527
44362W        W 9523  40.004  33.963   2.064
44363W        W 9524  33.090  10.977  13.941
44364W        W 9525  26.385  13.042  11.511
44365W        W 9526  36.660  39.405  12.580
44366W        W 9527   6.987  36.061   3.316
44367W        W 9528  32.522  38.104   4.460
44368W        W 9529   0.474   1.372   4.941
44369W        W 9530  24.481  13.888   2.388
44370W        W 9531  17.922   2.386  11.782
44371W        W 9532  23.696   2.445  12.528
44372W        W 9533   6.873   1.468   0.865
44373W        W 9534   3.823  20.715  13.911
44374W        W 9535  30.941  34.041  13.121
44375W        W 9536  11.313  21.999  11.075
44376W        W 9537  19.649  37.075   3.929
44377W        W 9538   5.754   6.812  14.910
44378W        W 9539  36.389  29.990   3.831
44379W        W 9540  39.095   2.555   1.669
44380W        W 9541  34.703   4.387  14.958
44381W        W 9542  43.442   9.962  13.978
44382W        W 9543  35.516  14.458  14.511
44383W        W 9544   6.577  29.750  12.437
44384W        W 9545   7.978  36.498   2.149
44385W        W 9546  16.305  43.562  12.039
44386W        W 9547   5.635  44.081  12.594
44387W        W 9548  29.023  44.277  10.693
44388W        W 9549  37.040  16.261   0.375
44389W        W 9550  26.102   6.700   2.095
44390W        W 9551   9.211  22.614   1.979
44391W        W 9552  23.616  40.410  13.857
44392W        W 9553  27.430  33.081  11.107
44393W        W 9554  39.988  37.752  12.906
44394W        W 9555  44.542   9.175   4.595
44395W        W 9556  31.354  27.046   2.789
44396W        W 9557  34.181  41.320  13.369
44397W        W 9558  12.902  17.768  12.601
44398W        W 9559  38.913  13.560  14.509
44399W        W 9560  20.994  36.516   0.338
44400W        W 9561  21.303  13.735   0.656
44401W        W 9562  39.838  23.243  13.359
44402W        W 9563  11.620  43.764   0.426
44403W        W 9564  28.453   2.954  13.377
44404W        W 9565  10.217  35.682   0.725
44405W        W 9566  44.685  19.753  13.538
44406W        W 9567   5.462  30.803   4.609
44407W        W 9568   2.728  35.386   3.715
44408W        W 9569  29.503  35.887  11.630
44409W        W 9570  33.581   2.421   5.023
44410W        W 9571  15.138  14.784   4.160
44411W        W 9572  13.708  27.172   4.453
44412W        W 9573  13.012  11.452  11.561
44413W        W 9574   8.367   9.303   1.279
44414W        W 9575  36.817  24.958  14.844
44415W        W 9576  24.984  32.572  10.779
44416W        W 9577  16.342  31.245  14.994
44417W        W 9578   2.534   8.418   2.264
44418W        W 9579  11.911  13.736  11.271
44419W        W 9580  38.905  22.950  11.614
44420W        W 9581  20.491  34.810   2.766
44421W        W 9582  29.391  44.878  13.539
44422W        W 9583  11.300   4.947   3.689
44423W        W 9584  27.664  39.731   5.014
44424W        W 9585   0.128  33.695  11.181
44425W        W 9586  27.073  21.803   3.562
44426W        W 9587  44.804   3.670  11.926
44427W        W 9588   5.243   7.384  14.944
44428W        W 9589  34.149  17.763   4.707
44429W        W 9590  13.717  27.162   4.978
44430W        W 9591   8.717   0.280   1.409
44431W        W 9592  20.210   1.051   4.201
44432W        W 9593  23.125  28.981  12.943
44433W        W 9594  12.599  34.545  11.242
44434W        W 9595   0.801   0.398  10.599
44435W        W 9596   0.394  20.037   4.607
44436W        W 9597  35.226  25.799   3.693
44437W        W 9598  42.653  25.554  10.733
44438W        W 9599  25.495  19.712   1.761
44439W        W 9600  10.807  38.830   2.425
44440W        W 9601  24.688  14.684  10.890
44441W        W 9602  28.236   2.766   2.783
44442W        W 9603  16.487  14.700   3.268
44443W        W 9604  33.186   1.220  12.470
44444W        W 9605  38.474  24.281  13.567
44445W        W 9606  40.826   8.572  12.954
44446W        W 9607  21.558  43.219   2.686
44447W        W 9608   0.875  36.744  13.007
44448W        W 9609  15.195  41.272  12.064
44449W        W 9610  40.340  39.788   4.056
44450W        W 9611  40.281  41.984  12.320
44451W        W 9612  26.622  13.643  14.538
44452W        W 9613   7.718  17.016  12.398
44453W        W 9614  26.842  38.373  12.319
44454W        W 9615  11.802  15.219  13.823
44455W        W 9616   1.704  41.016   0.763
44456W        W 9617   3.800  25.180  14.404
44457W        W 9618  32.603   9.684  13.228
44458W        W 9619  29.136  22.230   1.532
44459W        W 9620  17.409  15.183  10.678
44460W        W 9621  21.217  21.235   0.723
44461W        W 9622  40.832  12.640   0.524
44462W        W 9623   8.868   5.123  14.434
44463W        W 9624  38.932  19.639   4.715
44464W        W 9625  23.795  15.741   4.184
44465W        W 9626   1.229   7.295   2.714
44466W        W 9627  28.102   7.764  12.210
44467W        W 9628  23.223   8.245   0.314
44468W        W 9629  20.028  33.185  14.298
44469W        W 9630  34.553  10.119   1.650
44470W        W 9631  30.088  21.483  12.879
44471W        W 9632   6.508  22.566  14.905
44472W        W 9633   5.420  30.656   1.852
44473W        W 9634   3.728   6.200  10.142
44474W        W 9635  38.703  10.693  10.673
44475W        W 9636  19.448  33.615   3.441
44476W        W 9637   3.011  42.224  10.833
44477W        W 9638  15.188   2.694   3.908
44478W        W 9639  21.861   6.658  13.962
44479W        W 9640   7.790   4.019  13.572
44480W        W 9641  10.584   0.252   4.035
44481W        W 9642  42.686  15.788  14.416
44482W        W 9643  24.544  35.128  14.371
44483W        W 9644  29.065  28.971  14.828
44484W        W 9645  38.545  28.162  13.994
44485W        W 9646  35.585   7.189  12.626
44486W        W 9647  31.533  12.450   3.696
44487W        W 9648  44.953  23.102  13.785
44488W        W 9649  19.606  15.572   2.748
44489W        W 9650   7.619  34.998   3.708
44490W        W 9651  19.735  28.807   2.972
44491W        W 9652  31.452  31.306   1.271
44492W        W 9653  26.324  16.868   5.036
44493W        W 9654  33.456  31.480   3.196
44494W        W 9655   6.154  18.828   4.149
44495W        W 9656  12.989  26.674  14.380
44496W        W 9657  31.647  37.091   2.804
44497W        W 9658  11.197  10.357   0.976
44498W        W 9659  16.039   8.665   1.946
44499W        W 9660  10.626  13.136  11.580
44500W        W 9661  30.456   4.566  11.150
44501W        W 9662  29.285  33.031   3.673
44502W        W 9663  21.208  11.604  14.348
44503W        W 9664   9.651  31.149  10.476
44504W        W 9665  16.705  29.393  10.747
44505W        W 9666  23.206  36.880  14.631
44506W        W 9667  40.304  18.579   2.075
44507W        W 9668  31.844   8.409  14.713
44508W        W 9669  34.044  43.898   4.658
44509W        W 9670  16.326   9.701   1.853
44510W        W 9671   4.722  33.857  13.894
44511W        W 9672  30.960  42.372   1.930
44512W        W 9673  27.541   6.445   1.217
44513W        W 9674  23.563   3.421  11.858
44514W        W 9675   5.653  30.050  12.895
44515W        W 9676  23.226  31.662   1.618
44516W        W 9677  16.617  20.525   1.336
44517W        W 9678  27.123  40.687   2.850
44518W        W 9679  39.757   7.628  14.426
44519W        W 9680  25.163  16.229   4.636
44520W        W 9681   2.220  41.804  10.246
44521W        W 9682  23.537  14.884  12.323
44522W        W 9683  26.741  32.534  11.225
44523W        W 9684  43.634  33.832   9.805
44524W        W 9685   2.990   4.449   3.348
44525W        W 9686  22.668   5.657   4.442
44526W        W 9687   3.227  14.815   2.725
44527W        W 9688  21.311  36.968   3.041
44528W        W 9689  21.615  26.926  12.520
44529W        W 9690   6.919  42.887   3.413
44530W        W 9691  33.004  18.121  13.639
44531W        W 9692  23.502   2.131  12.875
44532W        W 9693  29.307  22.278   2.907
44533W        W 9694  40.146   8.647  12.380
44534W        W 9695  33.344  30.203   0.569
44535W        W 9696  19.241   5.181  13.814
44536W        W 9697  12.306  33.083  12.431
44537W        W 9698  10.074  17.813   4.404
44538W        W 9699  21.178  11.865  10.705
44539W        W 9700  32.884   3.200   1.860
44540W        W 9701  34.061   1.313   1.273
44541W        W 9702  37.373  37.569   4.243
44542W        W 9703  43.819   1.403  12.956
44543W        W 9704  14.271  16.779   5.026
44544W        W 9705  36.650  28.671  13.383
44545W        W 9706  41.529   4.733  11.580
44546W        W 9707  17.717   2.456   4.655
44547W        W 9708   8.640  11.154  13.847
44548W        W 9709   8.131  31.937  10.224
44549W        W 9710  40.413  17.187  14.318
44550W        W 9711  25.401   7.270  14.236
44551W        W 9712   5.785  23.657  14.010
44552W        W 9713  36.369  16.989   2.781
44553W        W 9714   8.783   0.704  14.549
44554W        W 9715  44.377  23.484  13.424
44555W        W 9716  24.051  15.019   4.985
44556W        W 9717  29.672  32.901   2.387
44557W        W 9718   1.399  11.294  10.789
44558W        W 9719  42.043   6.489   1.405
44559W        W 9720  13.200  21.136   1.819
44560W        W 9721  25.903  35.883   2.722
44561W        W 9722  12.874  41.846   2.660
44562W        W 9723   4.847  22.477   2.925
44563W        W 9724  38.901  34.850   0.492
44564W        W 9725  16.073  10.362  10.300
44565W        W 9726  20.511  15.278   2.635
44566W        W 9727  24.274  24.512  13.397
44567W        W 9728   3.199  19.191   1.339
44568W        W 9729   0.093  39.958   1.868
44569W        W 9730  33.915  27.761   1.026
44570W        W 9731  23.643   9.713   2.682
44571W        W 9732  26.952  30.885  12.525
44572W        W 9733   0.344  27.158   1.048
44573W        W 9734  29.903   9.708  12.787
44574W        W 9735  30.579  21.497  10.738
44575W        W 9736  26.489   6.796  10.985
44576W        W 9737  10.542  33.108  12.988
44577W        W 9738   7.776  19.313  11.067
44578W        W 9739  18.641  14.802   4.161
44579W        W 9740  10.800   1.912   1.858
44580W        W 9741   4.720  15.064   2.830
44581W        W 9742  44.472   5.755  13.069
44582W        W 9743   9.408   6.105  11.834
44583W        W 9744  35.307  23.612   4.606
44584W        W 9745  12.781  36.685   0.517
44585W        W 9746   1.990  44.871   4.566
44586W        W 9747  25.943  32.994   3.187
44587W        W 9748  25.527  40.476  10.990
44588W        W 9749  43.027  14.543  11.875
44589W        W 9750  19.106   6.353  12.589
44590W        W 9751   4.972  13.659   1.932
44591W        W 9752  15.824  32.902   0.989
44592W        W 9753  13.836  38.473  14.357
44593W        W 9754  26.737  31.050  12.015
44594W        W 9755  36.624  15.436  13.404
44595W        W 9756  32.981  25.949  12.528
44596W        W 9757  28.514  17.867   0.438
44597W        W 9758  35.321  11.617   4.597
44598W        W 9759  29.678  20.755   1.397
44599W        W 9760  36.319   2.200   0.345
44600W        W 9761  11.230  32.713  12.088
44601W        W 9762  37.140  17.275   1.061
44602W        W 9763   3.916  42.280   1.845
44603W        W 9764  31.682   6.456   3.126
44604W        W 9765  25.166   7.552   4.691
44605W        W 9766  24.235  12.186   0.226
44606W        W 9767   6.152  34.412  12.506
44607W        W 9768  32.387  20.175  11.592
44608W        W 9769  44.223  27.182  10.594
44609W        W 9770  34.282   5.690  12.178
44610W        W 9771   3.145  19.747   0.347
44611W        W 9772   9.314   7.901  13.124
44612W        W 9773  32.674   5.185  12.118
44613W        W 9774  15.934  17.521  14.006
44614W        W 9775  15.670  11.322   4.012
44615W        W 9776  38.466  43.518  12.129
44616W        W 9777  38.592  16.745   4.562
44617W        W 9778  19.129  40.999   0.817
44618W        W 9779  30.577   7.428  13.511
44619W        W 9780  22.161   4.015   1.780
44620W        W 9781  28.415  27.694   0.283
44621W        W 9782  22.448  31.177   1.514
44622W        W 9783  37.641   4.770  14.465
44623W        W 9784  42.581  13.541  11.627
44624W        W 9785  11.798   1.500   4.529
44625W        W 9786  14.431  30.775   0.382
44626W        W 9787  30.286   4.191  12.327
44627W        W 9788  40.445  13.092   1.147
44628W        W 9789  17.852  23.294  14.262
44629W        W 9790  20.251  36.941   3.202
44630W        W 9791   9.280   0.163   4.604
44631W        W 9792  35.930  21.693   1.865
44632W        W 9793  23.577   2.812  13.496
44633W        W 9794  31.039   2.399  12.481
44634W        W 9795   1.830  21.413   1.837
44635W        W 9796  38.085  38.703  10.302
44636W        W 9797  39.330  10.010   0.228
44637W        W 9798  43.431  38.934   1.098
44638W        W 9799  33.118   9.152  14.978
44639W        W 9800  44.274  12.129   3.493
44640W        W 9801  36.463  12.140   0.345
44641W        W 9802  28.550  44.012  10.650
44642W        W 9803  36.051   2.339  10.780
44643W        W 9804  43.826  41.833   0.255
44644W        W 9805  12.588  38.407  14.230
44645W        W 9806   2.261  37.830  10.506
44646W        W 9807  41.825  15.240   1.871
44647W        W 9808  29.872   0.555   3.685
44648W        W 9809  30.122  12.398   0.334
44649W        W 9810   1.160  33.397   3.295
44650W        W 9811  15.303  19.485  10.737
44651W        W 9812   7.948  15.194  13.947
44652W        W 9813  37.787  33.080  11.408
44653W        W 9814  32.629  28.040  11.945
44654W        W 9815  39.638  38.986   2.569
44655W        W 9816  30.343  16.249  13.036
44656W        W 9817   5.505  43.532  12.427
44657W        W 9818  43.827  20.192  14.370
44658W        W 9819  41.543   1.384   4.677
44659W        W 9820  14.427  43.213  11.617
44660W        W 9821  28.644  14.126  12.026
44661W        W 9822  28.494  42.407   4.114
44662W        W 9823  14.663   0.572   1.795
44663W        W 9824  11.291  27.391   0.270
44664W        W 9825  14.808  14.694  12.456
44665W        W 9826  34.813  20.262  12.960
44666W        W 9827  43.016  10.495   3.264
44667W        W 9828  14.064   9.399   0.403
44668W        W 9829   5.793  31.055  13.728
44669W        W 9830   6.397   0.927   1.832
44670W        W 9831  15.038  28.967   2.677
44671W        W 9832  43.281  41.568   3.833
44672W        W 9833  30.440   1.133  10.459
44673W        W 9834   1.288  39.757   2.352
44674W        W 9835  37.879  17.826   3.909
44675W        W 9836  43.961   7.849  14.345
44676W        W 9837   3.363  13.382  14.273
44677W        W 9838  26.711   4.499  11.612
44678W        W 9839  30.995  11.871  14.097
44679W        W 9840   1.399  38.095  13.933
44680W        W 9841  10.884  32.199  13.879
44681W        W 9842  27.439  30.448  14.330
44682W        W 9843  14.719  14.212  10.673
44683W        W 9844  30.681   9.888   0.782
44684W        W 9845  23.168   0.841   1.738
44685W        W 9846  39.326  38.412   4.560
44686W        W 9847  25.487   4.893   4.440
44687W        W 9848  34.327   9.643   4.582
44688W        W 9849  27.047  24.528   4.959
44689W        W 9850   8.920  26.979   2.737
44690W        W 9851  33.467  35.474   1.250
44691W        W 9852  35.208  33.522   5.082
44692W        W 9853  36.075  11.837   2.640
44693W        W 9854  26.191  24.968   9.953
44694W        W 9855  33.306  16.175   4.181
44695W        W 9856  27.626  41.789  11.692
44696W        W 9857  33.419  24.051  12.019
44697W        W 9858  34.353  24.053   0.258
44698W        W 9859  42.453  21.913   2.586
44699W        W 9860  36.253  30.385  13.090
44700W        W 9861  38.524  35.990  13.405
44701W        W 9862  41.951  27.539  13.675
44702W        W 9863  24.632  11.380   2.713
44703W        W 9864   0.471  36.606  13.356
44704W        W 9865  23.168  19.433  14.959
44705W        W 9866   6.726   1.440   2.478
44706W        W 9867   5.184  10.700  14.277
44707W        W 9868  43.392  40.828  14.923
44708W        W 9869  36.829   6.430   0.209
44709W        W 9870  41.333  41.881   2.178
44710W        W 9871  23.497  31.154  11.196
44711W        W 9872  17.627   3.387  14.076
44712W        W 9873  18.293   1.630  12.210
44713W        W 9874  34.357   3.249  11.462
44714W        W 9875   6.895  21.684   3.342
44715W        W 9876  25.665  26.764  11.132
44716W        W 9877  10.962  27.233  12.435
44717W        W 9878  19.181  23.155  13.117
44718W        W 9879  16.108  18.298  12.029
44719W        W 9880  35.873  19.335   1.796
44720W        W 9881  27.710  36.485   0.604
44721W        W 9882  24.235   6.781  13.947
44722W        W 9883   4.091  36.141  11.104
44723W        W 9884  13.715  35.320  13.933
44724W        W 9885  15.704  16.063  14.427
44725W        W 9886  33.892  22.069  11.596
44726W        W 9887   1.370  25.192  13.906
44727W        W 9888  20.402  19.620  11.337
44728W        W 9889  20.179  11.430  14.303
44729W        W 9890  15.777   7.290   4.596
44730W        W 9891  20.017  38.860  14.008
44731W        W 9892   9.663   5.669  11.653
44732W        W 9893  22.241  37.612  12.039
44733W        W 9894  21.100  29.458   1.336
44734W        W 9895  32.195  42.460  12.862
44735W        W 9896  41.797  42.884   4.674
44736W        W 9897   8.724   6.686   3.209
44737W        W 9898  29.498  37.361  10.718
44738W        W 9899  25.726   8.005  13.117
44739W        W 9900  16.787   3.629   0.353
44740W        W 9901   0.227  40.967  12.747
44741W        W 9902  40.423  33.716   4.245
44742W        W 9903   8.796  21.018  12.358
44743W        W 9904  40.118   2.496   4.446
44744W        W 9905  33.322  36.976  12.791
44745W        W 9906  38.158  40.453   2.390
44746W        W 9907  16.781   7.120   4.648
44747W        W 9908   2.854  37.544   3.279
44748W        W 9909  26.807   2.392  10.706
44749W        W 9910  44.221  42.921   2.859
44750W        W 9911  41.052   9.861  10.809
44751W        W 9912  24.013  17.615   4.263
44752W        W 9913  23.476  39.295  12.061
44753W        W 9914  24.202  42.007  12.446
44754W        W 9915  25.679  12.101   1.414
44755W        W 9916  33.933  36.818   4.125
44756W        W 9917  43.419  20.212  11.621
44757W        W 9918   7.889  22.503   4.063
44758W        W 9919  33.148  19.777  10.629
44759W        W 9920  30.450   0.722   4.148
44760W        W 9921  40.238  23.629   4.610
44761W        W 9922  19.794  25.142   4.821
44762W        W 9923  42.501   6.323   3.233
44763W        W 9924   8.153  14.276  12.506
44764W        W 9925  34.651   6.463   3.781
44765W        W 9926  28.207  13.266   1.853
44766W        W 9927  21.756  16.175   4.481
44767W        W 9928   1.257   6.221   2.411
44768W        W 9929  25.101  44.826  14.963
44769W        W 9930   5.888  15.166   4.672
44770W        W 9931   1.485  38.792  12.234
44771W        W 9932  30.113   9.410   1.286
44772W        W 9933  22.055   9.210   0.314
44773W        W 9934  40.385   0.826   0.671
44774W        W 9935   5.708  31.987   3.736
44775W        W 9936  34.369  32.356  12.361
44776W        W 9937  39.353   8.127   4.153
44777W        W 9938  27.683  32.048  12.414
44778W        W 9939  18.917  32.913  10.764
44779W        W 9940  27.534  14.775   1.347
44780W        W 9941  24.464   6.881  12.001
44781W        W 9942  26.092   7.637  12.392
44782W        W 9943  37.535   0.490  14.452
44783W        W 9944   5.975  37.367  10.322
44784W        W 9945  12.059  31.120   2.107
44785W        W 9946  25.323  12.174  13.799
44786W        W 9947  19.561  28.528  12.463
44787W        W 9948  40.388   9.948  14.017
44788W        W 9949  13.549  33.182  14.826
44789W        W 9950  23.389  29.622  12.856
44790W        W 9951   1.257  10.654   2.331
44791W        W 9952   3.728  43.255   2.785
44792W        W 9953  25.147  38.348   1.038
44793W        W 9954  29.427  21.661   4.671
44794W        W 9955  12.603  10.703  11.597
44795W        W 9956  41.403  32.339  12.136
44796W        W 9957  38.436  17.541   2.231
44797W        W 9958  16.539   6.265   4.172
44798W        W 9959  24.073  11.346   0.457
44799W        W 9960  28.602  22.545  14.369
44800W        W 9961  19.599  27.939  12.874
44801W        W 9962  10.702   6.671   3.408
44802W        W 9963  38.095  14.766  11.239
44803W        W 9964  21.928  36.179  11.947
44804W        W 9965  40.428   1.745  14.767
44805W        W 9966  32.973  41.957   0.485
44806W        W 9967  15.526  27.472  14.554
44807W        W 9968  43.251  10.897   3.052
44808W        W 9969  40.746  11.639  14.371
44809W        W 9970  43.037   5.150   3.711
44810W        W 9971  23.220  19.673   0.431
44811W        W 9972  44.593   8.747  10.759
44812W        W 9973  37.810  38.491   1.423
44813W        W 9974  17.591  34.707  11.195
44814W        W 9975  21.588   3.093  13.578
44815W        W 9976   7.185  28.999  13.492
44816W        W 9977  30.797  44.389  10.260
44817W        W 9978   3.803  19.696  11.927
44818W        W 9979  31.167   1.926   0.249
44819W        W 9980  30.440  30.981  10.553
44820W        W 9981  42.012  23.690   2.387
44821W        W 9982  23.362   8.204  12.560
44822W        W 9983  23.013  26.896   2.948
44823W        W 9984  30.061   0.373  13.748
44824W        W 9985   7.761  15.108   1.188
44825W        W 9986  28.076   7.236   3.112
44826W        W 9987   5.683  11.570  12.530
44827W        W 9988   1.216  16.124  13.108
44828W        W 9989  22.608  38.870   1.852
44829W        W 9990  20.248  44.942  12.517
44830W        W 9991  29.587   2.056  10.591
44831W        W 9992  37.460  34.092  11.107
44832W        W 9993  29.961  31.527  12.966
44833W        W 9994  18.466  41.838   2.072
44834W        W 9995  26.425  29.504  12.455
44835W        W 9996  22.879  29.096   3.736
44836W        W 9997  22.987  12.917  12.472
44837W        W 9998  25.157   2.234   3.109
44838W        W 9999  41.193  32.126   3.714
44839W        W10000   6.452  31.464  11.639
44840W        W10001  41.839   4.440   4.111
44841W        W10002  29.571  21.527   1.903
44842W        W10003  37.094  19.546   2.922
44843W        W10004  15.635  34.266  11.481
44844W        W10005  12.308  36.961   2.870
44845W        W10006  29.119  22.060   4.566
44846W        W10007   7.927  33.508  10.900
44847W        W10008  16.284  22.654   1.273
44848W        W10009   2.840  33.468   0.714
44849W        W10010  10.301  41.888   1.795
44850W        W10011  30.626  17.082   1.645
44851W        W10012  44.655  27.018   3.688
44852W        W10013  44.719  17.060   4.275
44853W        W10014  23.223  18.620  13.847
44854W        W10015  36.129   0.775   2.246
44855W        W10016  30.884  29.717  12.083
44856W        W10017  29.168  17.853   0.256
44857W        W10018  32.837   8.745  13.659
44858W        W10019  20.864  27.182  14.853
44859W        W10020  39.013  22.186   3.769
44860W        W10021  30.593  40.811  13.328
44861W        W10022   0.748  26.072  11.123
44862W        W10023  28.618  40.418  11.703
44863W        W10024  31.883  14.294   4.577
44864W        W10025   6.694  43.613  11.522
44865W        W10026  30.891  21.931   2.594
44866W        W10027  27.994  37.988   3.200
44867W        W10028   3.406  32.847  12.616
44868W        W10029   9.173  39.340  11.988
44869W        W10030  32.337  13.217   4.643
44870W        W10031  20.654  22.663   0.342
44871W        W10032  11.264  13.483  11.926
44872W        W10033  18.204   1.446   4.455
44873W        W10034   8.263  34.420  14.386
44874W        W10035  35.018  22.518   3.593
44875W        W10036  12.788   8.625   4.260
44876W        W10037   6.621  26.192   1.204
44877W        W10038  17.248  16.269  14.363
44878W        W10039   9.890  37.334   2.785
44879W        W10040  26.971  18.154   2.731
44880W        W10041  31.479  24.394   4.560
44881W        W10042   8.322  24.405   2.743
44882W        W10043  39.803  34.900   2.605
44883W        W10044  33.999  23.961   3.436
44884W        W10045  40.007  15.205   2.645
44885W        W10046   3.841  20.240  10.501
44886W        W10047  41.275  42.528   3.864
44887W        W10048  42.360  33.206  14.636
44888W        W10049  35.831  30.547   2.284
44889W        W10050  39.846  40.439   1.729
44890W        W10051  42.897  33.917  11.476
44891W        W10052  13.725  42.742   1.436
44892W        W10053  16.161  13.868   1.854
44893W        W10054  26.056   2.356   1.441
44894W        W10055  12.692  24.994   2.786
44895W        W10056  37.434  30.737  11.222
44896W        W10057  15.044  13.056   2.850
44897W        W10058  10.709  19.821   0.390
44898W        W10059  34.608  13.280  14.023
44899W        W10060  32.174  24.997   1.307
44900W        W10061  12.081   7.890  12.043
44901W        W10062  28.768   2.846   4.558
44902W        W10063  32.968  39.717  14.361
44903W        W10064   9.647  24.900  14.942
44904W        W10065  18.268  26.999   0.458
44905W        W10066   9.786  24.402   0.058
44906W        W10067  44.000  25.758   1.216
44907W        W10068  37.838  11.847   1.774
44908W        W10069  26.946  27.576  12.133
44909W        W10070  15.658  36.308   4.660
44910W        W10071  37.997  36.628   3.801
44911W        W10072  38.536  27.534   2.883
44912W        W10073   2.679   1.230   1.300
44913W        W10074  17.710  13.321  13.488
44914W        W10075   8.218   5.573  13.541
44915W        W10076  27.160  14.747  12.265
44916W        W10077  44.916  37.112   3.102
44917W        W10078  15.079   2.074  11.511
44918W        W10079  35.034  43.385   4.859
44919W        W10080   8.143   7.806   2.945
44920W        W10081   5.839  19.275   0.817
44921W        W10082  15.273   4.873  14.080
44922W        W10083   7.482   4.901  12.583
44923W        W10084  18.644  13.200  11.013
44924W        W10085  19.374  23.663  10.960
44925W        W10086  30.475  17.130  13.051
44926W        W10087   9.762   2.167  13.915
44927W        W10088  22.806  26.902   4.151
44928W        W10089  33.382   1.569   3.928
44929W        W10090  26.510  15.988  13.333
44930W        W10091  44.594  30.798   2.118
44931W        W10092   1.843  24.177   4.085
44932W        W10093  23.702  41.998  12.593
44933W        W10094  37.779  39.846   2.233
44934W        W10095   7.844  16.350   0.984
44935W        W10096   3.679  31.906   0.816
44936W        W10097  15.159  27.473   2.668
44937W        W10098   7.829  18.738  10.227
44938W        W10099  36.133  44.988   1.034
44939W        W10100  24.447   7.666   3.819
44940W        W10101  19.291  41.593  11.474
44941W        W10102  38.722   6.285   4.795
44942W        W10103   3.448  37.528   1.464
44943W        W10104  15.870  10.818   2.800
44944W        W10105  28.298  35.336  11.204
44945W        W10106  21.907   5.241   1.255
44946W        W10107  29.112   8.432   3.142
44947W        W10108  18.092   7.969  13.861
44948W        W10109  26.199  15.588  12.337
44949W        W10110   6.622   9.121   4.038
44950W        W10111  44.099  25.569   2.548
44951W        W10112  32.073   1.585   3.630
44952W        W10113  23.042  39.156   5.119
44953W        W10114  32.677  28.644  11.124
44954W        W10115  21.838  26.944   3.789
44955W        W10116  13.244  31.097   3.649
44956W        W10117  22.473  24.901   0.774
44957W        W10118   4.783  25.277   2.643
44958W        W10119  44.973  34.235  12.016
44959W        W10120  39.873  29.515   4.312
44960W        W10121  33.393   2.403  11.638
44961W        W10122  37.844  33.599  10.628
44962W        W10123  14.297  29.425   0.111
44963W        W10124  31.377  40.938  11.306
44964W        W10125  44.918  37.915  13.002
44965W        W10126  23.780  15.196   4.227
44966W        W10127  41.556  26.433   1.281
44967W        W10128  13.002  44.262   2.035
44968W        W10129   9.434  13.852   4.216
44969W        W10130  24.155  31.824   0.368
44970W        W10131  12.204  10.315  10.959
44971W        W10132  40.383   4.832  10.440
44972W        W10133  11.947  33.580  13.913
44973W        W10134  19.103  40.828  14.812
44974W        W10135  44.083  19.172  11.096
44975W        W10136   9.194  19.170   1.271
44976W        W10137  35.525  40.483   4.702
44977W        W10138   7.440  11.659   4.034
44978W        W10139  43.831  40.058   5.546
44979W        W10140  14.771   2.802   1.662
44980W        W10141  40.197   2.380  12.976
44981W        W10142   8.352  35.323   3.443
44982W        W10143   9.729  18.660  14.383
44983W        W10144  20.647  40.662   2.671
44984W        W10145  28.391  31.962   2.788
44985W        W10146   3.815   1.942  11.895
44986W        W10147   3.532   2.195   0.309
44987W        W10148  23.585  42.641  14.915
44988W        W10149  11.259  40.529  10.628
44989W        W10150  18.524  22.056   2.248
44990W        W10151  13.591   8.620  13.338
44991W        W10152  43.450  27.061  13.374
44992W        W10153  10.074  17.108  13.328
44993W        W10154  22.613  21.171  13.245
44994W        W10155   2.428  42.518   4.948
44995W        W10156  27.161  21.483   0.680
44996W        W10157  33.216   6.322  14.198
44997W        W10158  10.889  14.250   0.318
44998W        W10159  16.756  38.135   3.194
44999W        W10160  29.094  14.158   2.823
45000W        W10161  14.270  20.933   1.944
45001W        W10162  38.655   2.965  14.443
45002W        W10163  22.548  37.845   4.168
45003W        W10164  40.245  42.969  11.956
45004W        W10165  18.583   5.845   3.106
45005W        W10166  38.019  39.374   2.213
45006W        W10167  15.177  12.907  11.833
45007W        W10168  36.551  11.888  12.880
45008W        W10169   8.958   5.816   2.791
45009W        W10170  39.512  20.523   2.892
45010W        W10171   1.980  28.183   1.196
45011W        W10172  18.460  44.797  12.004
45012W        W10173   3.727  18.515   4.057
45013W        W10174  28.762  17.008  13.890
45014W        W10175  13.349  14.122   0.227
45015W        W10176  20.143  14.495  12.291
45016W        W10177  21.687  28.436   3.692
45017W        W10178  11.103  30.010  13.567
45018W        W10179  28.901   5.038   3.689
45019W        W10180  33.046   3.544   3.371
45020W        W10181   4.533  15.577  13.404
45021W        W10182  17.678  21.752   4.820
45022W        W10183  39.973  22.501  14.895
45023W        W10184  43.115   2.736   1.675
45024W        W10185   0.109  35.420  12.975
45025W        W10186  21.513   3.380  14.859
45026W        W10187  28.174  33.960   0.877
45027W        W10188  41.518  15.595  13.855
45028W        W10189   8.021  27.907  13.997
45029W        W10190  12.898  33.988   1.830
45030W        W10191  11.296  44.662  10.162
45031W        W10192  24.789  29.538   1.302
45032W        W10193  13.546  15.640   2.367
45033W        W10194  28.156  10.327  11.159
45034W        W10195  10.037  35.939   0.303
45035W        W10196   0.055   8.888   0.056
45036W        W10197  20.410  40.657   2.234
45037W        W10198  20.979  12.602   2.330
45038W        W10199  14.227  19.036   2.520
45039W        W10200  38.986  42.488  13.611
45040W        W10201   9.251  26.020  13.024
45041W        W10202  39.497  19.622   4.696
45042W        W10203  14.089  23.626   3.189
45043W        W10204  42.968  18.684   3.335
45044W        W10205   3.209  21.977  13.519
45045W        W10206   7.549  39.680  14.514
45046W        W10207  37.783  39.919   4.549
45047W        W10208  23.023   1.212  10.955
45048W        W10209  30.619  11.619   0.001
45049W        W10210  33.044   7.910  14.352
45050W        W10211  15.515   2.906  12.275
45051W        W10212  41.988  11.742   3.571
45052W        W10213  38.326  44.568  14.010
45053W        W10214  11.244   5.686  13.119
45054W        W10215  23.478  41.063  11.559
45055W        W10216  25.646  16.280  12.898
45056W        W10217  36.543   8.525  10.690
45057W        W10218   0.243  35.336   2.842
45058W        W10219  42.030  10.325   2.007
45059W        W10220   8.940  13.475  12.288
45060W        W10221   4.232  40.752   3.315
45061W        W10222  35.778  24.545   1.719
45062W        W10223  37.703  44.731   5.254
45063W        W10224  30.077  35.493  13.123
45064W        W10225  23.766  42.369   0.332
45065W        W10226  36.759  26.839  11.934
45066W        W10227  21.867  14.159  12.024
45067W        W10228  36.472  44.320  13.144
45068W        W10229   5.616  30.795   5.470
45069W        W10230  14.904  17.262  11.628
45070W        W10231  21.129  10.171   1.741
45071W        W10232  24.901  20.267   0.803
45072W        W10233  32.127  16.612   0.519
45073W        W10234   4.027   7.662  11.279
45074W        W10235   5.160   8.822   5.192
45075W        W10236  21.209  28.540   3.355
45076W        W10237  42.007   1.361  14.514
45077W        W10238   6.035  44.264  13.430
45078W        W10239   4.260   2.005  12.139
45079W        W10240   7.772   0.008  11.597
45080W        W10241  39.866  17.224   4.386
45081W        W10242  35.625   0.861   2.161
45082W        W10243  35.583  18.604   1.452
45083W        W10244  40.853  16.784   0.240
45084W        W10245  16.829  44.257  12.929
45085W        W10246  34.524  21.771  13.907
45086W        W10247   8.821  44.269  12.472
45087W        W10248  44.483  13.117   0.049
45088W        W10249  43.846  40.362   0.780
45089W        W10250   3.548  16.755   0.594
45090W        W10251  36.007  30.711  14.040
45091W        W10252  43.780   8.504  12.982
45092W        W10253  37.970  39.435   0.464
45093W        W10254  30.921  21.134   5.336
45094W        W10255  17.048  30.317   2.829
45095W        W10256   3.004  27.970  14.686
45096W        W10257  13.217  18.429   1.954
45097W        W10258  29.511  33.683   2.074
45098W        W10259  23.954  39.568   4.564
45099W        W10260   8.350  12.786  12.530
45100W        W10261  22.264   7.091  10.982
45101W        W10262  17.815   0.969   2.317
45102W        W10263   1.633   5.385  13.391
45103W        W10264  28.490  33.813  13.139
45104W        W10265  10.167  44.281  10.336
45105W        W10266  12.807  25.683  11.639
45106W        W10267  15.848  27.093   1.517
45107W        W10268   1.231   2.727   0.495
45108W        W10269  18.513  20.269  13.852
45109W        W10270  16.945   7.143  14.858
45110W        W10271  18.980  10.371  13.437
45111W        W10272  37.028   5.414   0.395
45112W        W10273  36.857   2.235   0.278
45113W        W10274  24.634  39.521  13.354
45114W        W10275   7.570  22.242  10.599
45115W        W10276   2.628   2.442   3.294
45116W        W10277   0.410  43.088  10.806
45117W        W10278  12.081  34.340   1.851
45118W        W10279   2.878  43.963   0.331
45119W        W10280  28.208  41.993   2.001
45120W        W10281  32.908  11.780   0.771
45121W        W10282  40.107  40.041  12.908
45122W        W10283  16.238  40.779   0.775
45123W        W10284  40.307   3.723   0.946
45124W        W10285  21.504  38.076   3.255
45125W        W10286  16.922  21.592  12.932
45126W        W10287   5.163   7.298  13.444
45127W        W10288  29.599  16.018  14.960
45128W        W10289  33.158   6.455   1.398
45129W        W10290  34.128  32.511  13.601
45130W        W10291  38.554  20.745   2.722
45131W        W10292  28.095   1.433  14.408
45132W        W10293  42.844  42.567  11.656
45133W        W10294  10.388  19.775   2.619
45134W        W10295  28.406  21.895   3.425
45135W        W10296  36.333  26.116  10.790
45136W        W10297  40.278  20.426   2.113
45137W        W10298   6.795  23.013  14.018
45138W        W10299  17.635   5.375  13.712
45139W        W10300  21.182  20.010   3.733
45140W        W10301  28.194  16.587   4.157
45141W        W10302   6.937  31.452   0.799
45142W        W10303  12.228   6.929   1.149
45143W        W10304  36.356  13.774  10.670
45144W        W10305  27.758   8.490  10.374
45145W        W10306  28.026  35.712   3.601
45146W        W10307  29.933  19.452  12.072
45147W        W10308   2.318  35.524  10.122
45148W        W10309  40.615  27.131  12.706
45149W        W10310  10.858   1.924  11.163
45150W        W10311  28.260  40.334  14.431
45151W        W10312   4.100   4.239  13.357
45152W        W10313  22.311  40.569  14.453
45153W        W10314  20.167  43.549  11.076
45154W        W10315   0.248  11.235  14.408
45155W        W10316   4.965   9.377   2.820
45156W        W10317   2.470  27.968   1.205
45157W        W10318  20.177   2.937   0.972
45158W        W10319   2.899  42.776   3.345
45159W        W10320   5.326  10.591   4.918
45160W        W10321  20.579   3.801   4.582
45161W        W10322  34.107   9.186   0.011
45162W        W10323   8.641  39.627   3.228
45163W        W10324  29.946  12.249  11.112
45164W        W10325  40.413  21.540   0.316
45165W        W10326  44.901  41.013   3.661
45166W        W10327  38.724  11.641   0.988
45167W        W10328  10.470  42.109   2.263
45168W        W10329  35.562   3.990   4.579
45169W        W10330  19.765  32.622   1.614
45170W        W10331  34.337   6.947  13.888
45171W        W10332  35.230   4.201   0.031
45172W        W10333  19.628  42.061   1.263
45173W        W10334  10.745   0.270  14.036
45174W        W10335  28.716  14.203   1.913
45175W        W10336   3.184  33.083  10.796
45176W        W10337  35.892  21.185   0.408
45177W        W10338  33.867  11.794  13.027
45178W        W10339   1.030  12.818  13.427
45179W        W10340  43.230   3.786   4.541
45180W        W10341  30.977  17.656  13.489
45181W        W10342   9.001  32.972  12.979
45182W        W10343  24.944  43.184   5.135
45183W        W10344   1.900  22.746  14.793
45184W        W10345  28.457  24.653   0.274
45185W        W10346  38.038  34.304   2.100
45186W        W10347   0.561  11.828   0.890
45187W        W10348  20.750   6.849   2.733
45188W        W10349  11.871  22.615  10.518
45189W        W10350  33.652  22.696   9.650
45190W        W10351  15.551  21.558  11.224
45191W        W10352   2.630  10.466   4.769
45192W        W10353  14.496   8.663  12.879
45193W        W10354   2.846  28.384   2.828
45194W        W10355   4.693  17.182  11.196
45195W        W10356  37.895  40.894  10.717
45196W        W10357  24.580  35.088  13.371
45197W        W10358  37.889  21.950  11.016
45198W        W10359   2.220  25.475  12.535
45199W        W10360  14.664  34.646  14.410
45200W        W10361  32.511  39.121   0.933
45201W        W10362  26.072   6.750   3.418
45202W        W10363  27.136   1.344  13.919
45203W        W10364   0.437  31.413  10.681
45204W        W10365   6.916   9.754   4.577
45205W        W10366  44.754  11.267   3.718
45206W        W10367  34.634  20.418   0.841
45207W        W10368   9.913  22.510  11.645
45208W        W10369  22.084  14.207   3.624
45209W        W10370  17.090  24.195  14.821
45210W        W10371  30.964  40.617   2.788
45211W        W10372  20.095  34.778  12.151
45212W        W10373  27.740   5.612   0.780
45213W        W10374  32.917   9.893   4.341
45214W        W10375  12.144  37.312  13.862
45215W        W10376  44.275  19.874  10.579
45216W        W10377   7.450  22.176  11.519
45217W        W10378   7.658  38.644  12.269
45218W        W10379   8.208  30.611  14.176
45219W        W10380  22.179   6.411  14.283
45220W        W10381  18.731   3.303   3.379
45221W        W10382  21.657  32.386  14.334
45222W        W10383  33.643  11.841  10.354
45223W        W10384   9.743  19.499  11.115
45224W        W10385  37.384  36.473   1.689
45225W        W10386  30.476  32.576  10.715
45226W        W10387  24.671  23.766  14.996
45227W        W10388  30.789  25.318  10.350
45228W        W10389  16.979  42.391   3.617
45229W        W10390  15.076  24.128   4.607
45230W        W10391  22.460   8.568  12.477
45231W        W10392  31.388   7.066  10.699
45232W        W10393  32.914  34.648  14.539
45233W        W10394  20.507  40.855  14.408
45234W        W10395  14.257   8.148   0.845
45235W        W10396  15.176  31.466   2.346
45236W        W10397  11.773  14.833  11.964
45237W        W10398   9.277  41.505   1.483
45238W        W10399   0.598  43.263   0.438
45239W        W10400  39.881  19.639  13.376
45240W        W10401  28.982  17.339   3.477
45241W        W10402  26.513   8.168  13.073
45242W        W10403  28.477  34.566   1.439
45243W        W10404  35.616  28.368  14.708
45244W        W10405   4.155  20.095   0.365
45245W        W10406  44.456  26.530  10.826
45246W        W10407  32.528  34.839  13.771
45247W        W10408  27.396  13.438   3.168
45248W        W10409  30.925  24.126   2.349
45249W        W10410  16.041   1.011  12.429
45250W        W10411  39.939  13.827  12.053
45251W        W10412   3.206  23.452   2.331
45252W        W10413  21.030  44.735  11.914
45253W        W10414   7.941  43.300   2.917
45254W        W10415  10.250   8.199   0.475
45255W        W10416   4.875  33.644  11.906
45256W        W10417  23.199  22.003   1.728
45257W        W10418  36.442  30.674  12.627
45258W        W10419  33.575  23.961  10.428
45259W        W10420  22.908  43.573   9.572
45260W        W10421  37.844  25.019  14.034
45261W        W10422  29.793  12.124  13.352
45262W        W10423   1.693   1.731   2.396
45263W        W10424   9.188  33.746  12.512
45264W        W10425  27.420  22.282  13.914
45265W        W10426  12.299   6.833   1.667
45266W        W10427   3.816   4.115   3.555
45267W        W10428  20.681  11.650  12.548
45268W        W10429  26.083  14.768  10.712
45269W        W10430   3.371  37.777   4.998
45270W        W10431  35.639  11.133   1.316
45271W        W10432  42.064  31.211  11.655
45272W        W10433  37.858   3.854   2.911
45273W        W10434  27.268  25.663   4.169
45274W        W10435  42.966  34.911   3.973
45275W        W10436  33.217  14.161  12.173
45276W        W10437  31.218  14.606   2.279
45277W        W10438  17.763  11.730   1.807
45278W        W10439  37.341  31.178  12.982
45279W        W10440  43.338  22.407   3.194
45280W        W10441  40.522   1.485  13.786
45281W        W10442  14.299  31.764   2.697
45282W        W10443  32.719  12.681   3.999
45283W        W10444  33.959   9.244   4.575
45284W        W10445  36.144  25.985   0.246
45285W        W10446   9.927   4.831  13.512
45286W        W10447  37.520  36.583   2.711
45287W        W10448  15.048  43.362   3.271
45288W        W10449  33.415  28.697  12.104
45289W        W10450  27.087  36.905  10.918
45290W        W10451   5.185  24.367   3.726
45291W        W10452  43.502  13.247   2.140
45292W        W10453  18.187   7.177  13.362
45293W        W10454  44.786  30.170   0.930
45294W        W10455  26.734   3.684   1.764
45295W        W10456  14.231  37.507  14.520
45296W        W10457   6.252  14.343  14.343
45297W        W10458  20.519  23.428   2.339
45298W        W10459  17.213  30.675  12.880
45299W        W10460  43.345  36.374   0.317
45300W        W10461   3.919   3.671  12.760
45301W        W10462  32.051  37.061  13.867
45302W        W10463  17.605  44.792   1.590
45303W        W10464  13.252  13.397  11.504
45304W        W10465  14.794  23.448  13.173
45305W        W10466  15.277   5.144   1.248
45306W        W10467  11.900  20.071  12.962
45307W        W10468  14.489  13.776   2.277
45308W        W10469  11.648  26.774  10.371
45309W        W10470  12.625  41.409   1.469
45310W        W10471   7.695  28.189  13.381
45311W        W10472   4.079   3.016  14.920
45312W        W10473  37.054  24.457  11.945
45313W        W10474   6.030  22.570  12.099
45314W        W10475   6.810  22.078   4.673
45315W        W10476  11.310  12.613   0.306
45316W        W10477  39.020  42.340   0.160
45317W        W10478   8.694  31.988   0.154
45318W        W10479  31.164  35.278   4.201
45319W        W10480  23.614   2.729   4.983
45320W        W10481  36.876  40.462   0.354
45321W        W10482   7.659  18.291   2.839
45322W        W10483   3.363  21.787   0.238
45323W        W10484  37.978   1.942   1.936
45324W        W10485  13.308  17.806  11.947
45325W        W10486  42.985  41.245   3.538
45326W        W10487  27.059  13.016   0.139
45327W        W10488  38.420  27.974   2.660
45328W        W10489  22.417  32.880  14.521
45329W        W10490  31.152  34.212  14.097
45330W        W10491  11.108  38.386   4.574
45331W        W10492  14.172  17.259   1.918
45332W        W10493  25.965  33.836  13.360
45333W        W10494  16.530  35.004  12.519
45334W        W10495  11.821   9.113  14.340
45335W        W10496  14.089  42.503  12.892
45336W        W10497  37.031  16.680   3.171
45337W        W10498  30.543  32.109  13.092
45338W        W10499  19.764  26.802   0.443
45339W        W10500  13.012  22.984  14.291
45340W        W10501  33.503   5.343  10.194
45341W        W10502  38.501  40.535   2.771
45342W        W10503   2.334  42.763  14.430
45343W        W10504  42.827   2.615   0.830
45344W        W10505  34.127   0.422  14.358
45345W        W10506  15.263  20.271   0.935
45346W        W10507  17.830  22.788  12.434
45347W        W10508   2.966  15.169   0.033
45348W        W10509  25.284  32.906  11.071
45349W        W10510   1.205  40.474  11.966
45350W        W10511  33.935  25.698   1.761
45351W        W10512   2.395  32.140   3.541
45352W        W10513  13.105  32.494   1.938
45353W        W10514   2.679  25.970   2.792
45354W        W10515  22.785   9.666   4.605
45355W        W10516  16.686  27.035  11.309
45356W        W10517  39.977  23.243   1.418
45357W        W10518  19.221  44.825  10.654
45358W        W10519  28.094  29.731  11.994
45359W        W10520  39.499  18.833   0.012
45360W        W10521  39.454   3.630   1.399
45361W        W10522   0.376  20.127  11.412
45362W        W10523  11.866  17.051   2.385
45363W        W10524   5.399  23.434  14.272
45364W        W10525   0.675   1.390  12.693
45365W        W10526  18.541  15.854  14.536
45366W        W10527  44.311  30.794   4.076
45367W        W10528  22.446  26.087   4.565
45368W        W10529  21.258  23.884  10.771
45369W        W10530   0.156  22.178  13.071
45370W        W10531  13.713  34.177  12.670
45371W        W10532  42.302  26.912   2.794
45372W        W10533   1.923  31.663  11.215
45373W        W10534   2.818   7.415  14.025
45374W        W10535  27.164  25.719   2.850
45375W        W10536  13.114   4.463   2.875
45376W        W10537  15.087  21.167  13.392
45377W        W10538  12.093  38.953   4.027
45378W        W10539  17.587  20.935  13.493
45379W        W10540  34.615  32.528  11.510
45380W        W10541  42.330  33.835   0.852
45381W        W10542  28.837   1.918  12.502
45382W        W10543  16.483  17.836  10.106
45383W        W10544  12.634  35.865   0.784
45384W        W10545  18.504  24.792   2.687
45385W        W10546   1.938  42.887   3.840
45386W        W10547  26.055  11.692  12.872
45387W        W10548  25.054  27.135  14.268
45388W        W10549  21.140  17.178   1.878
45389W        W10550  23.970  34.218  11.093
45390W        W10551  15.056  29.543  13.498
45391W        W10552   5.391   1.889  11.036
45392W        W10553   1.952   9.382  13.300
45393W        W10554  10.769  22.047   1.656
45394W        W10555   0.746  16.527  14.473
45395W        W10556  26.127  44.436   0.879
45396W        W10557  10.782  17.398  13.043
45397W        W10558  37.836   9.845  14.333
45398W        W10559   2.499  19.535  13.703
45399W        W10560   5.878  44.711   2.236
45400W        W10561  44.531  37.842  12.112
45401W        W10562   2.356  41.960   0.761
45402W        W10563  12.969   7.952  14.032
45403W        W10564  10.830   4.914   3.414
45404W        W10565  37.740  33.913   2.305
45405W        W10566  15.855  20.488  13.509
45406W        W10567   9.604  25.032   4.644
45407W        W10568   8.203  19.643   2.182
45408W        W10569  26.223  32.321   4.315
45409W        W10570  40.437  20.166   3.608
45410W        W10571  11.621  44.978  11.599
45411W        W10572  11.912   3.024  13.024
45412W        W10573  15.181  43.791   1.634
45413W        W10574  33.185  25.971  12.050
45414W        W10575  19.595  31.089   5.053
45415W        W10576  29.250   0.657   4.220
45416W        W10577   3.707  19.140   1.275
45417W        W10578   9.267  17.528   1.305
45418W        W10579  40.290   2.294   1.324
45419W        W10580  15.065   4.325   0.980
45420W        W10581   8.851  44.789  10.964
45421W        W10582  24.136  37.560  11.002
45422W        W10583  36.397  23.243  14.363
45423W        W10584   3.374  27.620   2.808
45424W        W10585  13.220  16.547  13.825
45425W        W10586  10.321  22.250   1.860
45426W        W10587  27.575   5.197   2.698
45427W        W10588  23.227  41.902  13.346
45428W        W10589  32.206  37.908  14.274
45429W        W10590  12.617  16.275  12.476
45430W        W10591  21.111  30.856  14.347
45431W        W10592  12.404  31.442  12.110
45432W        W10593   3.365   1.630   2.684
45433W        W10594   2.753  15.182  13.145
45434W        W10595  21.709  22.803  14.980
45435W        W10596  43.974  28.222  12.994
45436W        W10597  44.907  41.406   2.425
45437W        W10598  15.340  27.074   1.455
45438W        W10599  25.771  42.537   2.676
45439W        W10600   8.934   3.310   2.223
45440W        W10601  38.083   3.800  13.599
45441W        W10602  43.732  44.741  13.050
45442W        W10603  32.092  27.144   3.295
45443W        W10604   2.257  16.712  12.322
45444W        W10605   8.348   6.734   3.817
45445W        W10606  23.115  18.316  13.423
45446W        W10607  16.181  37.621  10.721
45447W        W10608   2.488  39.984   3.688
45448W        W10609  26.797  38.809  13.490
45449W        W10610  30.484  21.240  13.929
45450W        W10611  17.272  27.242   3.095
45451W        W10612   7.124  38.289  14.475
45452W        W10613  19.231  32.047   4.203
45453W        W10614  38.288  17.688  13.426
45454W        W10615  15.048   0.897   1.617
45455W        W10616   8.911   5.253   1.832
45456W        W10617   7.666  35.045   1.770
45457W        W10618  12.700  25.733  13.950
45458W        W10619  18.975  19.663   4.857
45459W        W10620  27.214  28.391  11.582
45460W        W10621  14.873  44.292  11.988
45461W        W10622  38.393  42.208   0.770
45462W        W10623   7.540  16.545  12.365
45463W        W10624  35.183  39.931   0.338
45464W        W10625  42.323  14.455   2.231
45465W        W10626  31.537   8.238  13.116
45466W        W10627  44.306  16.603  12.044
45467W        W10628  42.710  40.550   4.063
45468W        W10629  18.542  35.278   0.328
45469W        W10630  35.376  17.227   0.429
45470W        W10631  29.754  27.639  14.905
45471W        W10632  16.181  30.928   1.364
45472W        W10633  19.678   6.112   2.374
45473W        W10634  12.299  38.521   0.224
45474W        W10635  23.323  23.686   3.245
45475W        W10636  20.673  18.704   2.369
45476W        W10637  21.072  14.135  11.554
45477W        W10638  14.377  13.635   3.156
45478W        W10639  20.116   8.232  14.935
45479W        W10640  40.265  24.571  14.875
45480W        W10641  36.874  18.508   2.914
45481W        W10642   7.205  38.524  13.020
45482W        W10643  27.853  24.116   0.079
45483W        W10644  13.081  18.827   5.001
45484W        W10645   2.864  13.643   3.320
45485W        W10646  22.445  18.135   3.285
45486W        W10647  44.750  21.075  11.580
45487W        W10648  35.873   2.309   3.241
45488W        W10649  15.095  19.665   2.151
45489W        W10650  19.650   3.785   1.653
45490W        W10651  42.071  19.057   2.720
45491W        W10652   6.558  23.420  14.903
45492W        W10653   8.880  15.508   0.789
45493W        W10654  21.176  35.897   1.478
45494W        W10655  31.967   7.197   3.548
45495W        W10656  27.197   1.349  11.086
45496W        W10657   9.913  28.644   0.756
45497W        W10658  19.365  42.495  10.444
45498W        W10659  26.194  14.198  14.467
45499W        W10660  11.526  14.796  13.923
45500W        W10661  43.912   1.261  14.457
45501W        W10662  18.560   6.482  13.249
45502W        W10663  18.239   9.752  13.176
45503W        W10664  16.167  29.993  10.665
45504W        W10665  25.175   5.903   2.874
45505W        W10666  34.582  31.924  12.524
45506W        W10667  31.884  36.101  14.194
45507W        W10668   2.396   8.818  13.012
45508W        W10669  32.122  24.044  10.061
45509W        W10670  10.717   2.942  13.360
45510W        W10671  32.702  17.501  11.585
45511W        W10672  19.134  29.096  12.837
45512W        W10673  19.146  16.572   4.099
45513W        W10674  38.594  12.673  12.267
45514W        W10675  28.339  25.192  10.693
45515W        W10676  16.314   2.769  10.662
45516W        W10677   1.542  16.083  10.720
45517W        W10678  23.362  14.788   0.773
45518W        W10679  10.368  12.651  14.102
45519W        W10680   2.763  36.178   1.385
45520W        W10681  24.065   5.416   4.587
45521W        W10682   2.233  19.330   2.313
45522W        W10683  16.310   0.992   2.911
45523W        W10684  26.912  34.566   2.873
45524W        W10685  36.653  11.776  10.722
45525W        W10686  17.063  17.786   0.777
45526W        W10687  22.457  29.126  14.985
45527W        W10688  42.892  30.444   3.411
45528W        W10689   1.298   1.459   3.748
45529W        W10690  12.407  20.142  13.789
45530W        W10691  15.643  39.491   2.653
45531W        W10692   6.411  18.333  13.519
45532W        W10693  28.234  20.819   1.204
45533W        W10694  29.601  38.145   0.294
45534W        W10695  34.279  11.718  11.206
45535W        W10696  33.235  35.992   2.847
45536W        W10697  29.553  27.962   4.283
45537W        W10698  26.501  33.602  13.691
45538W        W10699  36.045  14.149  12.904
45539W        W10700  28.429  18.827   4.630
45540W        W10701  44.417  11.222  12.615
45541W        W10702  29.480  34.232  12.192
45542W        W10703   6.940  18.366  14.386
45543W        W10704   3.642   2.302  13.388
45544W        W10705  38.104  15.617  11.091
45545W        W10706  44.216  17.077   9.991
45546W        W10707  11.438  40.255   2.790
45547W        W10708  21.451  21.318  10.296
45548W        W10709  21.452  35.556  13.545
45549W        W10710  18.548  32.141   2.054
45550W        W10711  18.413   5.308   3.018
45551W        W10712  41.801  25.607   3.595
45552W        W10713  24.646   0.948  11.385
45553W        W10714  11.216   8.128  11.487
45554W        W10715  14.659   8.300  14.943
45555W        W10716  44.746   7.296  14.366
45556W        W10717  15.751  18.204   4.717
45557W        W10718  43.499  20.986  11.214
45558W        W10719  17.480   1.367  12.342
45559W        W10720   7.072  22.986   4.545
45560W        W10721   7.179   7.304   0.196
45561W        W10722  31.853  32.054  14.410
45562W        W10723  30.726   2.769   2.292
45563W        W10724  22.110   3.714   4.359
45564W        W10725  22.488  43.961  14.063
45565W        W10726  15.286   6.168  11.697
45566W        W10727  13.198   6.166  13.777
45567W        W10728  36.430   2.267   3.127
45568W        W10729   2.851  18.795  13.936
45569W        W10730  33.199  41.375   3.970
45570W        W10731  13.657  33.300   0.905
45571W        W10732  40.368  33.296  12.056
45572W        W10733   7.692  33.978   2.787
45573W        W10734  21.805   4.905   0.858
45574W        W10735  26.585  25.261   2.235
45575W        W10736  26.128  17.590  11.844
45576W        W10737  41.722  44.832  10.691
45577W        W10738  38.219  38.948   5.030
45578W        W10739  29.804  19.990   1.799
45579W        W10740   9.108  12.370   1.959
45580W        W10741  20.135  32.358  13.138
45581W        W10742  11.261  22.061   2.909
45582W        W10743  27.575   5.713  11.442
45583W        W10744  19.977  22.142  14.828
45584W        W10745   1.991  26.878  14.443
45585W        W10746  16.659  32.971  11.163
45586W        W10747  33.331   7.940  13.372
45587W        W10748  20.335  34.364   1.902
45588W        W10749  20.125  17.075  10.301
45589W        W10750  27.876  34.713   0.274
45590W        W10751  34.562   2.209  11.488
45591W        W10752  24.689  44.524  14.799
45592W        W10753   2.711  12.649  14.797
45593W        W10754  29.423  12.786  13.988
45594W        W10755  17.909   0.514  12.420
45595W        W10756  25.448   4.713   3.411
45596W        W10757   0.939   7.900  12.215
45597W        W10758  27.136  17.294  13.363
45598W        W10759   7.273  34.888   4.131
45599W        W10760  41.837  15.021   4.611
45600W        W10761  25.459  36.867  12.423
45601W        W10762  33.535   9.234  11.518
45602W        W10763  17.533  44.842   2.803
45603W        W10764   4.883  23.322   1.298
45604W        W10765  10.841  18.108   1.423
45605W        W10766  20.589  22.961  13.862
45606W        W10767  35.820   8.639  11.348
45607W        W10768  44.769  43.535   3.679
45608W        W10769  22.611  44.949  10.828
45609W        W10770  26.871   8.894  14.522
45610W        W10771  33.252  12.177   9.959
45611W        W10772  23.559  30.940   0.289
45612W        W10773  12.940  34.565  12.019
45613W        W10774  15.841  12.623   4.625
45614W        W10775  17.551   7.606   4.822
45615W        W10776  27.270  30.268  11.915
45616W        W10777  22.165  43.535   1.926
45617W        W10778   0.848  43.116  11.249
45618W        W10779  32.497   2.813   0.477
45619W        W10780  10.193  37.023  12.046
45620W        W10781   5.304   4.840   1.839
45621W        W10782  14.108  40.557  12.922
45622W        W10783   3.788   6.380  12.169
45623W        W10784  15.561  11.075   2.272
45624W        W10785  33.052  15.587   4.402
45625W        W10786   8.750  17.563  14.459
45626W        W10787  32.444  35.225   1.309
45627W        W10788   6.286  40.391  10.452
45628W        W10789  22.270  22.769  13.344
45629W        W10790  36.041  15.291  10.750
45630W        W10791  15.671  31.943   4.122
45631W        W10792   8.741  22.683   5.038
45632W        W10793  10.111  13.159   3.878
45633W        W10794  33.465  26.604  14.045
45634W        W10795   3.238  16.397   4.553
45635W        W10796  26.268   8.329   4.633
45636W        W10797  20.396  35.282  14.580
45637W        W10798  40.204   0.898   2.209
45638W        W10799  31.405  26.308  10.722
45639W        W10800  18.580  25.941  13.358
45640W        W10801  34.625  24.950   0.636
45641W        W10802  24.529  30.123   0.700
45642W        W10803  17.808  27.783   2.872
45643W        W10804  40.282  39.606  12.545
45644W        W10805  22.468  10.207  13.852
45645W        W10806  29.991  44.185   4.734
45646W        W10807   9.652  44.425   3.160
45647W        W10808   2.528  28.292  13.480
45648W        W10809  23.134  42.086   4.072
45649W        W10810   7.153  16.800  12.145
45650W        W10811  21.601  44.347  11.571
45651W        W10812  24.495  19.013  13.521
45652W        W10813   4.390  16.236   0.387
45653W        W10814  28.179  24.730   0.868
45654W        W10815  19.329   0.805   2.418
45655W        W10816  10.134   5.825  11.567
45656W        W10817  32.672  19.042  11.609
45657W        W10818  44.548  12.564  13.772
45658W        W10819  36.435  30.514   4.273
45659W        W10820  19.294   9.898   4.109
45660W        W10821   8.891  35.654  11.140
45661W        W10822   8.790  20.930   9.995
45662W        W10823  38.455  34.629   2.329
45663W        W10824  42.692  24.121  10.663
45664W        W10825  31.131  18.190   4.597
45665W        W10826  21.172   1.420   2.095
45666W        W10827   8.283  43.737   3.597
45667W        W10828  17.269  26.234   3.305
45668W        W10829  36.742  10.376  11.930
45669W        W10830  25.773  18.245   4.064
45670W        W10831  36.010  43.998  14.644
45671W        W10832  30.429  21.749  13.844
45672W        W10833  29.105  33.674  12.129
45673W        W10834   6.927  35.059  14.780
45674W        W10835   4.651  31.831  13.268
45675W        W10836  17.256  42.770  12.204
45676W        W10837  30.943   6.259   4.996
45677W        W10838   3.140   0.045  14.343
45678W        W10839  37.926  38.966  14.777
45679W        W10840   6.829   8.427   2.558
45680W        W10841  17.124  20.436   2.839
45681W        W10842  14.487  44.509   0.187
45682W        W10843  14.433  38.817  14.413
45683W        W10844  10.460  15.656  14.853
45684W        W10845  23.985  29.443  13.848
45685W        W10846  35.543  21.094   4.471
45686W        W10847  30.259  39.041  12.956
45687W        W10848  32.795  26.278   3.055
45688W        W10849  42.967  38.183   2.766
45689W        W10850  39.273  29.517  14.636
45690W        W10851  12.183   9.912  11.252
45691W        W10852  23.342   1.308  13.863
45692W        W10853  14.794  41.909   1.285
45693W        W10854  25.171  37.533   5.050
45694W        W10855  12.711  42.558   2.257
45695W        W10856  37.599   9.993   2.743
45696W        W10857  40.491  23.452   4.124
45697W        W10858  37.227  38.131   4.224
45698W        W10859  23.203  26.247   0.504
45699W        W10860   4.156  27.688   0.913
45700W        W10861   4.466  21.269  11.186
45701W        W10862  25.073   4.359  10.331
45702W        W10863  40.384   5.252  11.265
45703W        W10864  38.363   5.269   0.030
45704W        W10865  10.862   2.224  13.904
45705W        W10866  37.510   2.636  13.106
45706W        W10867  34.907  21.773   1.070
45707W        W10868   6.731  42.490   3.113
45708W        W10869  20.486   2.653  11.099
45709W        W10870  36.145  33.052   4.565
45710W        W10871  22.578  17.345   0.546
45711W        W10872  31.539  25.537  13.073
45712W        W10873   3.160  23.025   1.302
45713W        W10874  27.077  37.806   4.073
45714W        W10875  25.561  20.256   1.818
45715W        W10876   2.990  28.736  12.764
45716W        W10877  21.093  36.965  11.600
45717W        W10878  38.431  24.488  14.870
45718W        W10879  21.263   4.366   1.904
45719W        W10880   7.588  21.791   2.104
45720W        W10881  42.013  41.682  12.967
45721W        W10882  41.337  39.942  12.075
45722W        W10883  30.207  27.756  10.894
45723W        W10884  17.604  27.841  12.147
45724W        W10885  14.116  38.900   0.401
45725W        W10886   3.253  37.051   2.650
45726W        W10887  27.582   4.605   0.801
45727W        W10888   8.342  43.797  14.869
45728W        W10889   0.887  13.188   2.097
45729W        W10890   2.440  38.138  14.812
45730W        W10891  16.066   7.762   2.745
45731W        W10892  29.849  24.155   0.399
45732W        W10893  30.805  35.949  11.002
45733W        W10894  44.770  43.566   0.896
45734W        W10895  20.141  24.461   1.231
45735W        W10896   6.267  16.751   1.446
45736W        W10897  43.996  38.139  10.734
45737W        W10898  41.024  42.832   4.392
45738W        W10899   6.222  33.935  14.001
45739W        W10900   2.316  10.909   4.032
45740W        W10901  34.447  17.577  12.218
45741W        W10902   3.969   4.453   4.514
45742W        W10903  43.535   6.401   3.750
45743W        W10904  38.419  20.076   4.862
45744W        W10905   4.220  43.612  10.982
45745W        W10906  31.313  15.849  10.559
45746W        W10907  35.513  10.283   5.187
45747W        W10908  21.038  25.630   3.712
45748W        W10909   7.577  17.071  11.892
45749W        W10910  21.671  19.874   3.589
45750W        W10911   2.298  15.361   0.279
45751W        W10912   6.312  23.952   4.164
45752W        W10913  28.545  35.517  10.775
45753W        W10914   8.343  24.908  12.047
45754W        W10915  37.186   6.389  12.862
45755W        W10916  23.918   6.459   1.079
45756W        W10917   2.452  37.385  13.189
45757W        W10918  22.965  15.413  11.150
45758W        W10919   5.296   0.209   3.166
45759W        W10920  26.192  35.752   2.311
45760W        W10921  32.796  12.333   2.180
45761W        W10922  21.432   2.539   3.250
45762W        W10923  35.448  22.231   3.518
45763W        W10924  42.854  32.675   0.963
45764W        W10925  27.205  30.463  12.399
45765W        W10926  42.001   0.714   3.264
45766W        W10927   5.683   2.587  11.991
45767W        W10928  10.301   9.669   4.575
45768W        W10929  35.748  28.680  13.512
45769W        W10930  27.179   3.340  12.939
45770W        W10931  14.187  43.327  10.830
45771W        W10932  40.638  34.414  11.324
45772W        W10933   7.717  19.525   2.280
45773W        W10934   2.232  11.178   4.453
45774W        W10935  12.783  31.298  10.889
45775W        W10936  31.078   6.171  14.305
45776W        W10937  23.260  23.027   1.836
45777W        W10938  38.827   1.777  10.114
45778W        W10939   6.102  17.936   0.387
45779W        W10940  26.373  27.526  12.796
45780W        W10941  33.873  32.569   4.628
45781W        W10942   6.738  37.079  14.026
45782W        W10943  42.413  34.048   2.286
45783W        W10944  22.924  12.585  13.072
45784W        W10945   1.588  25.982  11.676
45785W        W10946  14.716  26.905  12.577
45786W        W10947  37.753  33.590   4.952
45787W        W10948   5.844   5.135  13.181
45788W        W10949  44.847  39.731   3.178
45789W        W10950  30.607  44.725   4.204
45790W        W10951  13.350   1.677   1.598
45791W        W10952  17.330  16.536   1.208
45792W        W10953  26.692  21.781   2.823
45793W        W10954  28.889   8.271  12.522
45794W        W10955   4.682  40.033   0.466
45795W        W10956  19.599  23.757   0.122
45796W        W10957  18.560  22.800   1.736
45797W        W10958  36.530   0.470  10.484
45798W        W10959  40.781   9.253   4.728
45799W        W10960  35.276  41.881   3.613
45800W        W10961  35.644   5.298   3.663
45801W        W10962  36.853  35.119  14.550
45802W        W10963  37.944  16.744   1.005
45803W        W10964  36.264  17.975  10.158
45804W        W10965  12.784  12.105  14.029
45805W        W10966  18.555   7.200   1.980
45806W        W10967   4.842  11.889   3.324
45807W        W10968  16.195  26.001  11.956
45808W        W10969  30.395   7.418   0.671
45809W        W10970  40.496  18.025   4.509
45810W        W10971   0.461  42.366  12.590
45811W        W10972  18.053  22.856   1.194
45812W        W10973  27.555  15.333   4.148
45813W        W10974  14.102  19.639  14.272
45814W        W10975  35.000  40.734   4.267
45815W        W10976   5.114  12.245   5.449
45816W        W10977  39.649   8.927  11.552
45817W        W10978  20.294  11.803   3.593
45818W        W10979  29.463   7.769  12.120
45819W        W10980  24.186  44.180   4.854
45820W        W10981  24.419  20.880   4.463
45821W        W10982  20.659  26.132  14.281
45822W        W10983   8.076  26.050  12.869
45823W        W10984   2.737   6.877  12.881
45824W        W10985  34.006   6.490   3.183
45825W        W10986   7.424  41.843   3.958
45826W        W10987  39.002  28.033   4.034
45827W        W10988  15.286  44.453   1.229
45828W        W10989  10.333  14.924   4.767
45829W        W10990  42.018  27.107   0.097
45830W        W10991  44.306   9.839  13.104
45831W        W10992  15.924   1.037   4.660
45832W        W10993  42.360  18.550  11.228
45833W        W10994  23.713   5.172   4.928
45834W        W10995  28.594  30.965  11.727
45835W        W10996  25.471   5.884  11.656
45836W        W10997  40.560  22.125  12.504
45837W        W10998  31.330  16.230  13.161
45838W        W10999  24.289  41.857   4.090
45839W        W11000   8.991  39.143  14.695
45840W        W11001   2.344   0.441   3.755
45841W        W11002  24.839  30.187   1.735
45842W        W11003   0.044   0.080  11.857
45843W        W11004  35.909  22.084   0.141
45844W        W11005  19.943  37.340  14.261
45845W        W11006   7.356  23.745  11.621
45846W        W11007  19.015  16.142   0.228
45847W        W11008  15.924  25.133  11.053
45848W        W11009  17.778  34.371  13.874
45849W        W11010  37.425  17.154   2.426
45850W        W11011  23.101   7.690  12.513
45851W        W11012  10.481  24.704   3.263
45852W        W11013  25.954  43.499  10.226
45853W        W11014  28.341  44.344  12.713
45854W        W11015  36.277  19.859   3.181
45855W        W11016  14.390  10.839  12.816
45856W        W11017  31.951  10.650   0.808
45857W        W11018  36.423   2.670   2.323
45858W        W11019   1.299  32.147   0.278
45859W        W11020   8.857   1.029  12.923
45860W        W11021   5.586  42.724   4.739
45861W        W11022  36.853   3.924   0.827
45862W        W11023  43.840   6.896  11.424
45863W        W11024   3.478  33.468  10.599
45864W        W11025  11.548  44.327   4.576
45865W        W11026  41.392  28.185   2.145
45866W        W11027  13.611  17.659   3.166
45867W        W11028  13.173  25.950  13.945
45868W        W11029  13.307  10.999  13.344
45869W        W11030   1.492  28.692   3.828
45870W        W11031  24.620   1.413  11.680
45871W        W11032   7.669   9.050  13.156
45872W        W11033  44.433  40.105  11.750
45873W        W11034  24.916  11.808   2.760
45874W        W11035  13.760   1.026   4.775
45875W        W11036  19.555  21.597  10.955
45876W        W11037   9.163  35.236  12.483
45877W        W11038   7.200  14.577   3.909
45878W        W11039  17.337  17.313  11.492
45879W        W11040  32.504  13.527  11.720
45880W        W11041   2.851  17.339  12.231
45881W        W11042  21.940  20.003  10.089
45882W        W11043   4.638   6.745   0.791
45883W        W11044  42.265  44.759   4.138
45884W        W11045  26.366  14.272   1.388
45885W        W11046  42.800  37.324  14.892
45886W        W11047  40.037   7.318  12.094
45887W        W11048  17.084  26.142   0.419
45888W        W11049   1.987  11.252   3.256
45889W        W11050   8.654  12.080  11.229
45890W        W11051  22.581  22.123  12.015
45891W        W11052  40.883  32.113   1.777
45892W        W11053  36.369  29.381  11.638
45893W        W11054  20.988  26.104   4.681
45894W        W11055  25.380   6.601  12.897
45895W        W11056   5.816  11.062   3.147
45896W        W11057  20.230   3.292   3.270
45897W        W11058   9.773  10.431  10.350
45898W        W11059   8.718  26.108   3.880
45899W        W11060  36.915  12.209  11.581
45900W        W11061  39.103  21.905  11.057
45901W        W11062  25.582  15.372   1.410
45902W        W11063   9.750  36.997   0.975
45903W        W11064   9.148  39.513   3.237
45904W        W11065  22.974   8.820   1.132
45905W        W11066  37.285   6.757   5.174
45906W        W11067  36.756  29.841   1.433
45907W        W11068  10.130   1.743   2.648
45908W        W11069  11.602  42.565  10.371
45909W        W11070  27.881   9.816  11.552
45910W        W11071   1.405  21.751   1.816
45911W        W11072   8.277  19.007   0.362
45912W        W11073  23.132  41.428  11.624
45913W        W11074   1.912  35.397  12.568
45914W        W11075  23.479   0.568  13.242
45915W        W11076  31.532  27.720   2.191
45916W        W11077  33.983   0.945   0.187
45917W        W11078   0.718  20.201   2.806
45918W        W11079  19.782  30.370  10.791
45919W        W11080  39.849  25.045   4.304
45920W        W11081  11.377  28.234  14.902
45921W        W11082  30.962  40.676  14.329
45922W        W11083  30.502  21.837  10.093
45923W        W11084   9.670  22.312   3.694
45924W        W11085  29.232  21.009  10.782
45925W        W11086  27.442  34.437   3.720
45926W        W11087  38.426  21.026   3.142
45927W        W11088  12.985  22.693  11.628
45928W        W11089  25.719  17.342   1.121
45929W        W11090  25.321  43.743  11.428
45930W        W11091  29.899   4.433   1.761
45931W        W11092  17.776   6.724   1.515
45932W        W11093  24.573  28.657   3.401
45933W        W11094  32.157   5.639  11.582
45934W        W11095  29.161  40.146  14.017
45935W        W11096  20.030  13.523   4.556
45936W        W11097  31.357  30.018  12.096
45937W        W11098  42.421  13.219   2.821
45938W        W11099   8.453  31.264  12.092
45939W        W11100  23.426  35.742   0.792
45940W        W11101  35.421  36.427   2.316
45941W        W11102  10.183  22.162   3.721
45942W        W11103  27.064  38.529   0.819
45943W        W11104  44.901  31.109  13.040
45944W        W11105   1.901  24.028   0.836
45945W        W11106   1.011  19.083  10.683
45946W        W11107  11.189  32.014  14.275
45947W        W11108   9.975  18.133   3.199
45948W        W11109   4.990   8.766   0.750
45949W        W11110  15.449  41.399   4.932
45950W        W11111  30.061  28.460  11.450
45951W        W11112   4.931  29.867   4.625
45952W        W11113   6.524   8.684   1.326
45953W        W11114  34.542  43.432  10.688
45954W        W11115  22.108  20.856   4.481
45955W        W11116  19.258  29.449   4.160
45956W        W11117  19.158  13.198   0.951
45957W        W11118  44.125   1.375   2.877
45958W        W11119  38.351  30.199   3.468
45959W        W11120  10.713   4.274   0.886
45960W        W11121   0.070  14.220  13.111
45961W        W11122  43.274   2.646  12.881
45962W        W11123  40.908   1.792  12.366
45963W        W11124  35.589  42.422   0.350
45964W        W11125  40.878  10.499  11.977
45965W        W11126  44.740  26.588  14.002
45966W        W11127   4.287   8.592  12.006
45967W        W11128  23.415  35.063  10.667
45968W        W11129  35.850  11.862  12.367
45969W        W11130  25.984   3.490  13.436
45970W        W11131  10.836  36.556  11.108
45971W        W11132   8.597  44.847  13.435
45972W        W11133  23.634  26.177  14.742
45973W        W11134  37.301  14.116  13.339
45974W        W11135  34.244  17.748  14.342
45975W        W11136  39.579   1.833  13.509
45976W        W11137  28.258  33.161  10.721
45977W        W11138  41.936  10.068  12.574
45978W        W11139   8.150   9.954  12.537
45979W        W11140  28.883  17.703  12.514
45980W        W11141  44.371  10.598  10.152
45981W        W11142  10.863  40.591  13.490
45982W        W11143  16.184  24.959  13.904
45983W        W11144  18.119   3.199  10.895
45984W        W11145  38.057   4.761   3.315
45985W        W11146  31.603   2.755   3.824
45986W        W11147  42.286  25.405   0.148
45987W        W11148  13.782  26.406  14.331
45988W        W11149  35.474  25.989  10.575
45989W        W11150  39.663  35.636  14.368
45990W        W11151  30.230   1.748   0.710
45991W        W11152  34.166  35.440  12.300
45992W        W11153  10.301  24.230  11.978
45993W        W11154  30.697  34.013   3.955
45994W        W11155  12.891  19.072   4.149
45995W        W11156  25.438  28.834   3.626
45996W        W11157   9.217  24.495  13.255
45997W        W11158  16.748  12.126   4.466
45998W        W11159   1.235  16.416   0.812
45999W        W11160  25.083  32.173   4.608
46000W        W11161  40.850  30.118  11.030
46001W        W11162  15.817   3.918   3.643
46002W        W11163  40.075  24.795   0.287
46003W        W11164  17.140  24.401   2.853
46004W        W11165  19.255   6.606   0.377
46005W        W11166  28.422  18.154   4.098
46006W        W11167  26.079  35.872   1.347
46007W        W11168  44.755   0.943   5.058
46008W        W11169   0.731  35.300   5.062
46009W        W11170  40.999  42.039   2.734
46010W        W11171  40.041  38.783   4.853
46011W        W11172  25.027  28.506   3.612
46012W        W11173   2.299  18.106   4.347
46013W        W11174   8.042  16.942   1.923
46014W        W11175  29.758  44.046  13.985
46015W        W11176  26.895  13.169   3.607
46016W        W11177  21.233  25.332   1.409
46017W        W11178  41.925   3.341  14.876
46018W        W11179  31.506  28.743   4.345
46019W        W11180  36.860  20.997   2.913
46020W        W11181   8.688   7.417  13.419
46021W        W11182  14.178  12.306  12.920
46022W        W11183  22.715  26.533   4.503
46023W        W11184  22.079  37.086   4.536
46024W        W11185   6.573  43.391  14.092
46025W        W11186  14.673  19.695   0.832
46026W        W11187  19.305  25.040   1.320
46027W        W11188  37.564  15.356  11.613
46028W        W11189   1.222  12.455   3.196
46029W        W11190  44.976   1.678   1.048
46030W        W11191  43.826  27.442  11.170
46031W        W11192  35.441   8.888  10.854
46032W        W11193  24.768  41.956   4.655
46033W        W11194  16.699  38.539   1.140
46034W        W11195  44.501   3.358  11.111
46035W        W11196  34.878  15.861   3.690
46036W        W11197  41.903  22.868  12.864
46037W        W11198  42.251   6.818  10.746
46038W        W11199  14.927  39.905  12.706
46039W        W11200  19.260  34.101   3.336
46040W        W11201  37.919  10.656   3.101
46041W        W11202  25.273  38.348   3.847
46042W        W11203  12.709  34.241  14.803
46043W        W11204  11.125  34.255   2.171
46044W        W11205  39.146  32.820  13.348
46045W        W11206   2.950   8.404   4.576
46046W        W11207  33.551  23.945   1.819
46047W        W11208   1.745   9.911  11.107
46048W        W11209  26.219  17.826   0.436
46049W        W11210   8.249  10.689  10.894
46050W        W11211   9.568   3.268  12.973
46051W        W11212  39.507  36.414  11.200
46052W        W11213  38.323  27.011   0.661
46053W        W11214  26.111   6.937  13.193
46054W        W11215  39.973  28.617  12.548
46055W        W11216  25.560  41.538   3.172
46056W        W11217  40.773  29.884   1.257
46057W        W11218  15.954  13.381  13.483
46058W        W11219  10.700  32.734  11.031
46059W        W11220   4.651  27.630  13.713
46060W        W11221  41.552   9.794   2.873
46061W        W11222  20.299  24.684  10.956
46062W        W11223  22.153   2.441   0.818
46063W        W11224  22.393  13.922   1.370
46064W        W11225  30.330  25.956  14.745
46065W        W11226  26.263  20.271  13.937
46066W        W11227  43.440  12.680  14.502
46067W        W11228  14.167  28.648  14.404
46068W        W11229  33.573  41.591  14.499
46069W        W11230  32.271  34.800   0.319
46070W        W11231  25.796  17.353  10.913
46071W        W11232   3.753  23.118   3.065
46072W        W11233  10.717  10.103  12.162
46073W        W11234  16.666   9.738  11.205
46074W        W11235   3.171  28.775  13.249
46075W        W11236  42.052  27.210   0.619
46076W        W11237  21.164   9.584   1.654
46077W        W11238   5.559  28.527  11.052
46078W        W11239  10.370  22.059   2.890
46079W        W11240   6.231  39.641   0.790
46080W        W11241   1.330  36.536  12.578
46081W        W11242  23.596   0.001   3.592
46082W        W11243  16.082  38.243   1.784
46083W        W11244   5.164  43.196   0.520
46084W        W11245   1.774  14.713  14.406
46085W        W11246  40.381   4.433   4.723
46086W        W11247  22.562  35.874   1.794
46087W        W11248  41.584  19.267  10.812
46088W        W11249  19.882  29.480   2.463
46089W        W11250   8.173  10.015   3.374
46090W        W11251  16.220  21.506   0.399
46091W        W11252  40.268  19.519   4.214
46092W        W11253  17.741  29.152   1.834
46093W        W11254  10.667  10.418  14.547
46094W        W11255   5.915  38.634  10.669
46095W        W11256   2.385  38.027  10.957
46096W        W11257  10.738  31.087  14.550
46097W        W11258   5.469  36.923  12.115
46098W        W11259  28.566   9.818   2.075
46099W        W11260   5.939   6.120  12.493
46100W        W11261  10.271  31.687   0.520
46101W        W11262   8.875  40.245  13.172
46102W        W11263  15.350   5.939   1.737
46103W        W11264   9.493  25.023  14.444
46104W        W11265  20.268  16.586   0.452
46105W        W11266   5.135   7.517  10.712
46106W        W11267  11.029   0.970   1.270
46107W        W11268  39.212  40.765  11.051
46108W        W11269  43.002  22.468   9.932
46109W        W11270  27.467  39.524  10.401
46110W        W11271  31.728  39.881   0.743
46111W        W11272  21.798  20.694  11.516
46112W        W11273  18.256  12.805  13.512
46113W        W11274   2.870  21.961   3.841
46114W        W11275  16.282  41.855  10.717
46115W        W11276  29.064  40.995  12.206
46116W        W11277   8.631  37.515  12.441
46117W        W11278  21.473  13.200   1.245
46118W        W11279  37.936  28.650  12.489
46119W        W11280  12.300  23.459   4.138
46120W        W11281  41.203   5.424  13.809
46121W        W11282  30.622  39.434   1.433
46122W        W11283  38.595   9.581   4.210
46123W        W11284   8.244  27.709  11.566
46124W        W11285  23.452  11.332   1.198
46125W        W11286  20.253  40.612   0.731
46126W        W11287  41.311  19.531  12.060
46127W        W11288  14.286  41.035  13.524
46128W        W11289  13.183  28.444  12.923
46129W        W11290   2.368   8.492   0.903
46130W        W11291   9.802  24.187   4.124
46131W        W11292  34.855  41.160  13.378
46132W        W11293  44.319  41.999   3.692
46133W        W11294  16.253   8.309  14.368
46134W        W11295  28.468  42.042  12.697
46135W        W11296  21.913  43.352  12.848
46136W        W11297  16.511  21.578   3.264
46137W        W11298   8.967   7.274  12.561
46138W        W11299  34.927   9.140  11.521
46139W        W11300  19.583  24.472  12.055
46140W        W11301  40.926   8.371   0.522
46141W        W11302  28.659  14.227   0.955
46142W        W11303  25.658   4.798  13.901
46143W        W11304  22.675   8.828   1.975
46144W        W11305  24.924  23.115   2.760
46145W        W11306  23.221  38.425   2.856
46146W        W11307  37.992  36.456  11.595
46147W        W11308   4.256  16.127  14.038
46148W        W11309   4.645  35.692   3.724
46149W        W11310  27.137  43.072  12.136
46150W        W11311  12.134   5.736  10.656
46151W        W11312  21.047  24.002   2.648
46152W        W11313  18.489   7.422  12.844
46153W        W11314  27.332  16.767   4.071
46154W        W11315  42.313  27.243   1.862
46155W        W11316  35.989  31.178  13.820
46156W        W11317  41.293  33.869   1.767
46157W        W11318  39.480  32.109   1.351
46158W        W11319  19.229  37.799  11.050
46159W        W11320  23.689  41.533  11.645
46160W        W11321  18.687  25.878  11.993
46161W        W11322   3.395   4.867   0.780
46162W        W11323  38.894   5.966   3.089
46163W        W11324  34.655   9.156   3.174
46164W        W11325   0.234  17.146  13.971
46165W        W11326   8.694   1.310   1.682
46166W        W11327  30.844  11.931   3.329
46167W        W11328  17.652  28.099  10.798
46168W        W11329  12.587  34.413   1.802
46169W        W11330  33.630  34.097  10.208
46170W        W11331  27.932  11.210  14.196
46171W        W11332  33.371  36.886  10.173
46172W        W11333  13.751  40.552   3.497
46173W        W11334  43.385  13.705  12.954
46174W        W11335  41.463  34.123   3.187
46175W        W11336   4.323  18.232   4.584
46176W        W11337   3.355  40.889  14.815
46177W        W11338   4.017  15.637  14.404
46178W        W11339  31.414  42.397  13.340
46179W        W11340   6.868  15.192   1.689
46180W        W11341  14.830   8.796   2.968
46181W        W11342  21.441  43.897  13.999
46182W        W11343  41.398  42.357   0.674
46183W        W11344  13.777   7.452   0.691
46184W        W11345  39.873   8.214  10.640
46185W        W11346  38.305  22.642   3.340
46186W        W11347  34.255  14.298   3.613
46187W        W11348  25.084  11.194   0.017
46188W        W11349  23.269  22.944   4.147
46189W        W11350  42.972  27.272  11.181
46190W        W11351  27.669  38.189  14.120
46191W        W11352  18.747  11.405   5.014
46192W        W11353  29.715   2.609   0.857
46193W        W11354  35.596  42.757   3.128
46194W        W11355   2.281   9.914  12.151
46195W        W11356  13.159  14.634   3.572
46196W        W11357   3.505  22.782   0.441
46197W        W11358  36.559  12.799   1.204
46198W        W11359  28.519  24.624   1.274
46199W        W11360  26.785  16.044  10.721
46200W        W11361  27.438   3.432  13.378
46201W        W11362  34.058  38.849  13.366
46202W        W11363  13.929   0.187  11.761
46203W        W11364  41.072  39.902  11.571
46204W        W11365  14.731  22.610   4.266
46205W        W11366  43.504  38.119  13.256
46206W        W11367  11.103  28.094   1.128
46207W        W11368  34.622  31.523  11.658
46208W        W11369  10.901  19.285  10.803
46209W        W11370  10.216   2.427  12.563
46210W        W11371   9.834  15.781  12.069
46211W        W11372  15.833  22.421   4.566
46212W        W11373   6.615  24.151   3.298
46213W        W11374  42.362   3.420   2.776
46214W        W11375  31.309  42.477   3.266
46215W        W11376  42.925  11.508  13.255
46216W        W11377   9.391   7.398   2.148
46217W        W11378  10.812  13.138   1.336
46218W        W11379  32.602  12.742   0.802
46219W        W11380  30.060   3.450   4.453
46220W        W11381  25.441  22.060  14.806
46221W        W11382  30.053  11.267  11.118
46222W        W11383  21.633   6.176  12.159
46223W        W11384  22.482  10.311   3.565
46224W        W11385  21.994  25.928   3.083
46225W        W11386  26.891  25.317  14.466
46226W        W11387  40.811   0.742   2.814
46227W        W11388   0.074   1.474   3.830
46228W        W11389  28.092   8.952  11.547
46229W        W11390   2.242  27.947   4.069
46230W        W11391  18.306   4.503  10.649
46231W        W11392  15.802  14.190   4.132
46232W        W11393  37.148  14.143   0.219
46233W        W11394  20.272  19.784   2.810
46234W        W11395   4.239  15.145   0.629
46235W        W11396   6.677  25.090   4.951
46236W        W11397   0.341   0.804   0.618
46237W        W11398  26.958   6.952   2.916
46238W        W11399  30.750  15.896   3.738
46239W        W11400  35.003   2.939  10.389
46240W        W11401  43.068  42.215   4.171
46241W        W11402  30.954  30.743  12.207
46242W        W11403  41.135  35.024  13.814
46243W        W11404  38.166   2.985   3.677
46244W        W11405  36.018  19.588   4.010
46245W        W11406  10.315   4.963   3.254
46246W        W11407  22.416  36.714   2.336
46247W        W11408  34.429  33.217   3.192
46248W        W11409   5.718  19.269   3.234
46249W        W11410  39.887  21.089  12.912
46250W        W11411  38.413  28.504  10.525
46251W        W11412  34.080  27.991   0.251
46252W        W11413  41.850  38.851  12.339
46253W        W11414   4.721   2.870  10.395
46254W        W11415   0.356  44.671  10.730
46255W        W11416  10.753  13.039   4.294
46256W        W11417  22.538  31.175  13.480
46257W        W11418  37.393   0.391   1.365
46258W        W11419  20.834  21.264   2.926
46259W        W11420  19.137  20.147  12.917
46260W        W11421  36.066  32.860  12.024
46261W        W11422  19.322   7.154   4.039
46262W        W11423  27.068   3.679  11.172
46263W        W11424  33.917  43.958   1.581
46264W        W11425   1.554  31.040  11.148
46265W        W11426  29.477  18.961   2.219
46266W        W11427  18.571  19.729   3.669
46267W        W11428  39.742   7.694  11.449
46268W        W11429  12.252  40.717   2.214
46269W        W11430  23.046  37.913  14.923
46270W        W11431  29.082  19.704   3.345
46271W        W11432  22.664  12.872  14.357
46272W        W11433   7.673  43.294   0.233
46273W        W11434  37.875  44.394   3.362
46274W        W11435  38.311  26.230  11.162
46275W        W11436  38.994  39.440  11.839
46276W        W11437  11.139  19.775   4.757
46277W        W11438  29.857   8.718  13.392
46278W        W11439  20.939  13.796   0.264
46279W        W11440  10.310  21.351  13.900
46280W        W11441   7.767  11.124  11.991
46281W        W11442  11.404   2.908   3.380
46282W        W11443  38.816  15.137  14.705
46283W        W11444  29.035  28.067   3.529
46284W        W11445   9.383  28.579  11.129
46285W        W11446  44.986  36.601   3.168
46286W        W11447   9.237  35.612   3.251
46287W        W11448  22.003  31.181  14.156
46288W        W11449  33.062  23.846   3.307
46289W        W11450  16.081  37.555   0.342
46290W        W11451  14.157  16.290   3.785
46291W        W11452  28.757  40.816  13.472
46292W        W11453   1.138  32.506   1.285
46293W        W11454   4.285   2.233   2.832
46294W        W11455   0.906  34.917   0.499
46295W        W11456   7.851   1.099   1.803
46296W        W11457  14.626  26.635  10.243
46297W        W11458  27.514  11.581  13.046
46298W        W11459  24.467   2.276   3.632
46299W        W11460  37.942  42.616  11.538
46300W        W11461  26.225   0.893   0.981
46301W        W11462  16.170  38.767   1.824
46302W        W11463  18.131  28.106  11.043
46303W        W11464  25.496   5.734  14.373
46304W        W11465  25.065  24.684   2.439
46305W        W11466  35.065  41.471  13.984
46306W        W11467  39.463  42.451   1.417
46307W        W11468  25.248  36.969  13.663
46308W        W11469  41.881  34.816  11.563
46309W        W11470   5.683  30.174   1.877
46310W        W11471  13.398  13.256  13.395
46311W        W11472   9.370   9.793   4.661
46312W        W11473  25.704   1.939  11.494
46313W        W11474   7.331  41.910   2.949
46314W        W11475   3.210  39.448   2.674
46315W        W11476  43.841   4.415   2.242
46316W        W11477  35.673  29.448   2.579
46317W        W11478   1.158  44.963  12.616
46318W        W11479  26.604  44.343   3.212
46319W        W11480   4.504  10.497  12.460
46320W        W11481  28.934  18.083  10.924
46321W        W11482  39.958  18.764  11.933
46322W        W11483  41.922  19.012  10.511
46323W        W11484  44.347   7.437   2.729
46324W        W11485  11.910   3.760  11.562
46325W        W11486   1.908  12.056   3.632
46326W        W11487  18.543  20.776   1.957
46327W        W11488  14.777  27.576   0.435
46328W        W11489  11.131   4.282  11.409
46329W        W11490  26.424  13.174   4.608
46330W        W11491  36.559  28.426  12.402
46331W        W11492  24.742  14.137  14.332
46332W        W11493   7.973   9.937  14.751
46333W        W11494  30.689  20.956  11.589
46334W        W11495  40.091  10.189   1.428
46335W        W11496   0.219  24.245  14.896
46336W        W11497  31.823   6.784  10.638
46337W        W11498   4.410   1.850   1.476
46338W        W11499   5.387  39.271  12.546
46339W        W11500   8.927  41.184   0.759
46340W        W11501  23.765  12.369   0.354
46341W        W11502   3.389   4.347   0.724
46342W        W11503  30.107   8.701  11.281
46343W        W11504  38.033  12.288   4.455
46344W        W11505  24.608   7.307   2.300
46345W        W11506  22.780   6.399   3.285
46346W        W11507   2.174  13.782   1.596
46347W        W11508  21.269  37.074  10.783
46348W        W11509  18.228  38.665   4.543
46349W        W11510  10.367  44.119  14.276
46350W        W11511  32.628  32.310  11.526
46351W        W11512  13.051  21.220  10.362
46352W        W11513  19.810  43.270  14.114
46353W        W11514  27.088  41.496  13.325
46354W        W11515  41.121  43.013   0.025
46355W        W11516  30.517  33.517   3.921
46356W        W11517   3.910   6.130   3.980
46357W        W11518   3.445  42.601  14.018
46358W        W11519  44.848   6.430  14.185
46359W        W11520  19.108  12.163  11.134
46360W        W11521  11.801  31.377  14.384
46361W        W11522  29.445   1.946   3.757
46362W        W11523  12.470  34.427  12.231
46363W        W11524  37.842   4.160  11.053
46364W        W11525   5.016  13.387  13.945
46365W        W11526  31.060   4.105  12.552
46366W        W11527   9.330  35.083   4.016
46367W        W11528   6.072  14.822  13.882
46368W        W11529  37.458  32.904   1.446
46369W        W11530  20.125  43.561  13.358
46370W        W11531  25.647  39.176  10.751
46371W        W11532  39.145   0.571   1.263
46372W        W11533  44.697  25.553  14.526
46373W        W11534   5.072  41.840   2.919
46374W        W11535  33.937  20.118   1.902
46375W        W11536  34.928  20.652  13.524
46376W        W11537  24.843   3.419  11.213
46377W        W11538  35.420  38.416  12.238
46378W        W11539  26.451  10.904   2.899
46379W        W11540  18.090  21.804  10.690
46380W        W11541  35.103  31.039  14.125
46381W        W11542  23.644  17.635   1.669
46382W        W11543  41.338  15.331   1.456
46383W        W11544  42.897   6.728   1.884
46384W        W11545   6.847  18.783  11.708
46385W        W11546  15.159  29.449   2.373
46386W        W11547   0.733  33.584   3.109
46387W        W11548   0.531  12.947   1.303
46388W        W11549  22.357  23.201  11.990
46389W        W11550  23.107  37.385   1.579
46390W        W11551  27.568  17.441   0.102
46391W        W11552   8.415  35.543   1.430
46392W        W11553  38.874  41.729   2.375
46393W        W11554  21.086  38.094  12.454
46394W        W11555  21.236  10.761   3.351
46395W        W11556  29.675  13.143   4.188
46396W        W11557  33.723  20.972  13.544
46397W        W11558  20.158  22.450   3.766
46398W        W11559   6.034  16.343  14.869
46399W        W11560  44.323  37.834  13.038
46400W        W11561  19.346  37.924   4.103
46401W        W11562  18.949  11.089  12.008
46402W        W11563   6.686  19.978   0.053
46403W        W11564  27.598  32.871  14.550
46404W        W11565  36.949  39.736   4.534
46405W        W11566   0.284  25.947  11.410
46406W        W11567  20.620   1.222  13.957
46407W        W11568  31.118   6.308  12.928
46408W        W11569   0.431  24.634   3.232
46409W        W11570  37.587  33.371   1.201
46410W        W11571   2.914  22.692  14.271
46411W        W11572  42.105  33.412  12.466
46412W        W11573  25.237  26.045   2.287
46413W        W11574  37.472  16.085   3.239
46414W        W11575  42.934   0.281   2.907
46415W        W11576  36.465  26.459  12.158
46416W        W11577  40.034  32.609   0.253
46417W        W11578  19.648  41.551  11.839
46418W        W11579   7.708   2.018   4.236
46419W        W11580  43.530  22.217   0.537
46420W        W11581  11.312   7.638   3.872
46421W        W11582  21.794   1.933   1.441
46422W        W11583  41.279  29.292  13.320
46423W        W11584  40.797  40.000   3.276
46424W        W11585  25.263  13.274   1.707
46425W        W11586   2.284   2.220  11.448
46426W        W11587  31.071  34.621   3.371
46427W        W11588   8.649   8.842  11.457
46428W        W11589  25.564   5.750   3.386
46429W        W11590   6.312  20.735  10.657
46430W        W11591  42.502  21.038   1.408
46431W        W11592  26.505  42.008  14.991
46432W        W11593   3.298  39.482   3.498
46433W        W11594  26.996  24.482  11.523
46434W        W11595  40.906  30.840  14.961
46435W        W11596   6.430  21.969   0.395
46436W        W11597  25.893  14.619  14.770
46437W        W11598  21.153  16.289  13.517
46438W        W11599  17.379  21.569  14.070
46439W        W11600  24.382  15.551   2.994
46440W        W11601  41.310   2.425   4.497
46441W        W11602   9.881   6.634  13.547
46442W        W11603   3.870  11.045   3.271
46443W        W11604  24.640   0.782   4.809
46444W        W11605   7.791  30.549   0.062
46445W        W11606  22.818  38.293  11.136
46446W        W11607  42.888  43.192  14.863
46447W        W11608  14.669  25.669   2.165
46448W        W11609  34.985  20.796  12.102
46449W        W11610  11.337  12.433   2.823
46450W        W11611  41.158  14.201  13.052
46451W        W11612  23.461  34.825   1.451
46452W        W11613  40.908  42.348   0.947
46453W        W11614  13.761  17.276  12.508
46454W        W11615  40.122  26.028  11.377
46455W        W11616  37.989   7.470  12.887
46456W        W11617   4.467  15.057  11.603
46457W        W11618  27.423  11.259  13.457
46458W        W11619  33.135  31.847   3.414
46459W        W11620   6.202  24.783  12.439
46460W        W11621  21.252  19.808  11.980
46461W        W11622   2.119  27.470   0.902
46462W        W11623   9.786  25.742  13.094
46463W        W11624  40.801  36.392  12.077
46464W        W11625  38.500  13.703   1.700
46465W        W11626   3.782  13.026   3.721
46466W        W11627  32.137  13.244   3.546
46467W        W11628  35.552  26.984   2.411
46468W        W11629   3.819   4.538  13.053
46469W        W11630  38.483  32.053   3.914
46470W        W11631  38.497  28.678   0.862
46471W        W11632  44.697  34.963  10.987
46472W        W11633  24.496  25.553  14.904
46473W        W11634  44.943   5.938  10.511
46474W        W11635  28.782  10.976  12.108
46475W        W11636  33.299  32.119  12.559
46476W        W11637  22.441  35.037  10.429
46477W        W11638   4.926  18.943   3.301
46478W        W11639  26.470  39.733  12.467
46479W        W11640  26.165  20.756  11.075
46480W        W11641  16.174  10.551   4.226
46481W        W11642  25.692  21.021  12.201
46482W        W11643  22.633  28.477  14.546
46483W        W11644   6.714   9.237  12.867
46484W        W11645  11.623  25.522  13.026
46485W        W11646  17.548  36.767   0.340
46486W        W11647  38.032  22.506  14.397
46487W        W11648  17.297   0.032   4.948
46488W        W11649  38.594   0.044  13.451
46489W        W11650  18.562  28.000   2.594
46490W        W11651  14.853  37.778  13.548
46491W        W11652  41.776  35.418   1.201
46492W        W11653  25.696  36.459   5.479
46493W        W11654   4.548   5.162  13.531
46494W        W11655  24.025  44.296   3.995
46495W        W11656   2.075  18.545   2.713
46496W        W11657  12.828   3.799  12.624
46497W        W11658  19.820  32.394   2.682
46498W        W11659   0.654  34.959  13.558
46499W        W11660  27.519  31.742   5.001
46500W        W11661  15.739  31.130   4.662
46501W        W11662  44.772   2.523   2.239
46502W        W11663   1.657  18.313  10.465
46503W        W11664   9.975  28.555   2.706
46504W        W11665  25.547  15.302  13.648
46505W        W11666  33.057  31.407  10.709
46506W        W11667  26.122  26.527  10.884
46507W        W11668  17.323  37.538  14.836
46508W        W11669   0.433   0.333  14.739
46509W        W11670  18.116  20.660   4.966
46510W        W11671  34.523  21.779   3.762
46511W        W11672  19.587  21.112   0.227
46512W        W11673  23.704   0.940   3.400
46513W        W11674  32.588  29.559   3.773
46514W        W11675  41.453  38.767  14.438
46515W        W11676  28.679  38.105  12.631
46516W        W11677  14.851  29.975  13.227
46517W        W11678   7.415  10.689   1.789
46518W        W11679  20.573  43.756  14.502
46519W        W11680  26.100  36.859   3.748
46520W        W11681  42.035  21.791   2.861
46521W        W11682  28.962  39.470  14.566
46522W        W11683  25.514  25.782   3.395
46523W        W11684  14.859  37.644   5.095
46524W        W11685  12.036  14.183   5.219
46525W        W11686  32.459  37.785   2.829
46526W        W11687  44.428  41.671   0.978
46527W        W11688   8.988  18.015  14.440
46528W        W11689  28.458  40.405   0.899
46529W        W11690  11.154  34.524  10.647
46530W        W11691   9.369  19.704  11.387
46531W        W11692  19.495  27.561   4.411
46532W        W11693  13.771  43.356  12.780
46533W        W11694  18.078   5.907   2.824
46534W        W11695   1.982  42.229  13.900
46535W        W11696  22.920   7.601   4.774
46536W        W11697  14.376   6.368   0.847
46537W        W11698  19.184  42.349   1.279
46538W        W11699  43.252  25.977   4.232
46539W        W11700   9.078  20.056   1.134
46540W        W11701   7.079  16.526  13.508
46541W        W11702   6.651   2.719  13.182
46542W        W11703  14.118  38.837   3.855
46543W        W11704  43.062  43.028  11.569
46544W        W11705   9.052  22.684   3.734
46545W        W11706   2.879   9.202   1.008
46546W        W11707  37.047  10.272   2.753
46547W        W11708  33.816  34.990  10.675
46548W        W11709  10.699  10.251  14.016
46549W        W11710  23.846  22.517   3.236
46550W        W11711   5.347   7.373   1.952
46551W        W11712  43.217   6.221   1.832
46552W        W11713  43.326  32.670  11.351
46553W        W11714  24.957  39.936  11.498
46554W        W11715  20.035   5.715   2.505
46555W        W11716  38.958  12.154   2.389
46556W        W11717   2.333  21.628   2.717
46557W        W11718  14.094  31.029  11.114
46558W        W11719  25.898  29.479  14.308
46559W        W11720  10.158  15.335   1.336
46560W        W11721   3.474   7.669   4.245
46561W        W11722  12.673  36.416   3.471
46562W        W11723  13.643  34.373  14.140
46563W        W11724  44.436  11.743  12.449
46564W        W11725   6.141  42.390   4.202
46565W        W11726  38.122  15.876  14.801
46566W        W11727  22.369  15.711  12.902
46567W        W11728  21.296  20.997  10.716
46568W        W11729  15.408  43.777   9.869
46569W        W11730   7.862  15.401   0.752
46570W        W11731  36.400  31.851   3.295
46571W        W11732  44.778  38.667   0.403
46572W        W11733  20.906  40.886  11.350
46573W        W11734  18.085  12.334  14.448
46574W        W11735  17.172  41.065   4.016
46575W        W11736  28.697  25.497  14.223
46576W        W11737  16.832  37.388  14.848
46577W        W11738   3.364  43.387   4.554
46578W        W11739  16.091  28.421  10.522
46579W        W11740   3.267  11.213  14.514
46580W        W11741  21.809  31.620   4.925
46581W        W11742   5.253  44.292  12.954
46582W        W11743  18.118  25.581   4.776
46583W        W11744   0.506  31.337   4.218
46584W        W11745  37.356  27.511   1.299
46585W        W11746  18.315  12.373   0.321
46586W        W11747  12.714  34.499   0.698
46587W        W11748  17.242  30.209  10.764
46588W        W11749   5.654   7.667  14.769
46589W        W11750   1.215  22.537   1.550
46590W        W11751   1.837  23.102   4.812
46591W        W11752  42.445  24.012  13.270
46592W        W11753  38.520  21.655  13.598
46593W        W11754  38.533  17.788   2.686
46594W        W11755   6.967  13.545   3.297
46595W        W11756  41.981  22.103   1.675
46596W        W11757  31.171  14.602  14.368
46597W        W11758  14.719  37.391   3.256
46598W        W11759   1.191  39.991   3.302
46599W        W11760   8.784   6.107   2.387
46600W        W11761   2.403  16.032  14.392
46601W        W11762   2.777  30.428  11.122
46602W        W11763  43.189  17.482  14.700
46603W        W11764  44.530  40.600  13.528
46604W        W11765  35.115  40.823   0.010
46605W        W11766  26.050  20.427   1.822
46606W        W11767   3.959  20.292  13.026
46607W        W11768  41.528  35.874  10.841
46608W        W11769  20.004  10.734  13.893
46609W        W11770  20.155   8.815   1.470
46610W        W11771  43.382  24.205   2.759
46611W        W11772  11.274  14.852  12.132
46612W        W11773  40.728  33.660  12.960
46613W        W11774  13.818  27.385  12.561
46614W        W11775  27.266  18.227  14.415
46615W        W11776  38.064  15.976   4.170
46616W        W11777  11.819  41.302   0.237
46617W        W11778   9.273  18.166  11.494
46618W        W11779  27.606  17.634   4.630
46619W        W11780  16.416  18.207   1.129
46620W        W11781   4.208  38.544   3.970
46621W        W11782   0.030  21.229  13.414
46622W        W11783   0.987  20.188   0.968
46623W        W11784  22.263  27.866  11.221
46624W        W11785  11.301  12.334  13.353
46625W        W11786  44.297  37.990   5.361
46626W        W11787  40.491  33.476  13.459
46627W        W11788  26.232  17.865  13.387
46628W        W11789  40.410  13.891   0.370
46629W        W11790  31.338  40.940  12.647
46630W        W11791  10.347  22.753   4.958
46631W        W11792  39.533   4.615  12.027
46632W        W11793  33.360  38.091   1.913
46633W        W11794  27.182  17.140   0.295
46634W        W11795  11.231  36.805  12.149
46635W        W11796   7.301  26.730  10.551
46636W        W11797   1.246  35.481   5.008
46637W        W11798   9.668  31.560  11.691
46638W        W11799   6.927   6.346   0.356
46639W        W11800   0.774  11.346   9.721
46640W        W11801  11.760   4.140   4.027
46641W        W11802   9.953   7.782   2.695
46642W        W11803  26.931  43.078   3.052
46643W        W11804   6.105  41.417   1.746
46644W        W11805  17.683  19.570  12.691
46645W        W11806  10.150  11.073   1.635
46646W        W11807  36.325   3.709  11.559
46647W        W11808  37.418   6.314  11.543
46648W        W11809  30.210  39.623   1.199
46649W        W11810  16.200  42.790   3.541
46650W        W11811  21.647   1.934  11.598
46651W        W11812   8.766  17.253   4.685
46652W        W11813   7.661  25.269   2.312
46653W        W11814  33.277  42.300  13.984
46654W        W11815  25.461  25.501   2.466
46655W        W11816  26.941  15.019   2.516
46656W        W11817  16.591   6.177  10.816
46657W        W11818  38.701  40.883  10.062
46658W        W11819   6.098  43.116  10.050
46659W        W11820  13.633   0.945   2.788
46660W        W11821  42.695   4.184   1.751
46661W        W11822  28.065  22.671  10.710
46662W        W11823   7.370   4.699   0.706
46663W        W11824  35.405  36.716   0.638
46664W        W11825  42.945  21.436  11.379
46665W        W11826  21.562  16.764   5.597
46666W        W11827   8.797  34.985  14.754
46667W        W11828   8.470  43.918  13.553
46668W        W11829   9.964  20.007  11.071
46669W        W11830  25.522   9.633  10.670
46670W        W11831  36.211  32.847  14.965
46671W        W11832  43.030  33.035  11.117
46672W        W11833  35.970  19.756   2.182
46673W        W11834   2.215   7.829   4.060
46674W        W11835  28.425  25.741  10.786
46675W        W11836  29.618  31.706   3.310
46676W        W11837   0.730  44.186   3.535
46677W        W11838  30.392  44.383  12.361
46678W        W11839  33.385  36.040  11.177
46679W        W11840   2.801  38.421  12.525
46680W        W11841  35.543  41.011  11.574
46681W        W11842   3.710  10.981  13.371
46682W        W11843  38.538  23.090  13.050
46683W        W11844  32.380  20.114   0.951
46684W        W11845   3.746  44.351   9.554
46685W        W11846  17.745  12.078  14.170
46686W        W11847  15.046  44.171   2.902
46687W        W11848  20.343  11.228   2.260
46688W        W11849  40.638  29.820   3.859
46689W        W11850  27.078  42.004   2.454
46690W        W11851  19.650  29.047  14.625
46691W        W11852  18.744  11.375   4.143
46692W        W11853  42.993  17.015  13.342
46693W        W11854  29.311  42.498  10.446
46694W        W11855  38.134   5.542  13.277
46695W        W11856  10.404  13.089   2.023
46696W        W11857   0.430  28.983  14.911
46697W        W11858  37.378  20.605   2.095
46698W        W11859  42.220   9.798  13.013
46699W        W11860  12.664  35.534   2.593
46700W        W11861  32.954  31.008   1.432
46701W        W11862  40.473  19.018   4.279
46702W        W11863   7.799  39.511  12.361
46703W        W11864   2.396  27.609  12.103
46704W        W11865  36.760  40.961   1.957
46705W        W11866  10.188   3.396  12.363
46706W        W11867  16.343   3.867   0.360
46707W        W11868  14.662  31.191  11.718
46708W        W11869  21.487  33.016   0.452
46709W        W11870  36.365  29.297  12.539
46710W        W11871  27.231  42.785  12.592
46711W        W11872   4.386  17.513  11.747
46712W        W11873  32.354  44.386  14.399
46713W        W11874  33.474  31.386  12.967
46714W        W11875  43.988  44.021  10.622
46715W        W11876   9.076  43.871  12.774
46716W        W11877   5.423  36.349  14.829
46717W        W11878   1.866  17.619  14.956
46718W        W11879  12.692  30.874   4.546
46719W        W11880  12.868  41.349   1.024
46720W        W11881  37.495  21.744   1.277
46721W        W11882  25.665  11.039   4.017
46722W        W11883  19.545  24.867  13.799
46723W        W11884  13.205  33.542   0.179
46724W        W11885  28.512  17.193   3.247
46725W        W11886  20.670  43.396  13.457
46726W        W11887  30.904  35.526   2.884
46727W        W11888  17.689  26.795  13.175
46728W        W11889   1.911  44.458   2.331
46729W        W11890  13.801  36.411  12.959
46730W        W11891  34.781  41.981   3.721
46731W        W11892  40.290  32.299   3.668
46732W        W11893  29.538  32.143  10.760
46733W        W11894  26.267   8.425  11.121
46734W        W11895  26.522  33.014  12.440
46735W        W11896  41.553  25.549   4.085
46736W        W11897  25.299   0.963   2.956
46737W        W11898  14.794   7.771  14.281
46738W        W11899  11.303  21.059   3.216
46739W        W11900  42.717  11.075  11.629
46740W        W11901  13.262   0.670   1.753
46741W        W11902  36.106  41.033  13.747
46742W        W11903  42.047  43.785   4.281
46743W        W11904  13.597  23.033   2.880
46744W        W11905   4.325  42.978   4.888
46745W        W11906  41.533   6.227   0.285
46746W        W11907  10.714  27.733  14.004
46747W        W11908  35.037  28.807   0.775
46748W        W11909  26.151   7.943   0.936
46749W        W11910   3.863  32.876  12.880
46750W        W11911  18.665  22.055   1.310
46751W        W11912  41.575   5.413  10.708
46752W        W11913  17.422  10.420  10.078
46753W        W11914  30.511  20.927   2.906
46754W        W11915  31.856   2.428   0.017
46755W        W11916   3.794  21.002  14.407
46756W        W11917  44.950  24.413  13.925
46757W        W11918  30.198  13.740   3.607
46758W        W11919  26.436   3.373   4.568
46759W        W11920  10.210   8.934   0.986
46760W        W11921  13.441  41.024   4.682
46761W        W11922  43.216  33.666   4.971
46762W        W11923  17.767  36.356  13.858
46763W        W11924  19.189   9.672   2.574
46764W        W11925  17.034  27.497  14.256
46765W        W11926  40.310  29.529  10.645
46766W        W11927   9.098  25.747  10.079
46767W        W11928   3.843   9.770   4.922
46768W        W11929  30.726  15.170  14.371
46769W        W11930  12.394  37.897   2.851
46770W        W11931   3.710   9.645  13.806
46771W        W11932   9.636  31.388  14.039
46772W        W11933   4.028  12.587  14.420
46773W        W11934  31.147  15.535   3.681
46774W        W11935   5.172  40.396   1.442
46775W        W11936   2.528  42.323  11.557
46776W        W11937  44.441  32.147  10.249
46777W        W11938  42.715  20.495  12.082
46778W        W11939  36.396  27.200   3.846
46779W        W11940  33.351  29.419   0.483
46780W        W11941  41.235  10.735   4.522
46781W        W11942  13.234  36.512  14.241
46782W        W11943  27.129   1.415  11.991
46783W        W11944  11.799  36.875  13.572
46784W        W11945  27.665   7.750   2.010
46785W        W11946   1.912  21.908   1.729
46786W        W11947  29.739  19.770  11.636
46787W        W11948  16.225   0.396   3.905
46788W        W11949  42.666  37.830  10.190
46789W        W11950  19.275   8.854  14.873
46790W        W11951   0.193  10.566  10.240
46791W        W11952  35.575  13.159   2.780
46792W        W11953  42.831  38.866  13.657
46793W        W11954   1.181  29.485  12.415
46794W        W11955  15.283  41.893  11.560
46795W        W11956   2.311  44.515  13.791
46796W        W11957  36.128  40.987   0.414
46797W        W11958  23.017  23.173   1.251
46798W        W11959  15.167   9.710  13.996
46799W        W11960  31.688  19.251  12.409
46800W        W11961  36.074  30.324  12.552
46801W        W11962   5.779  37.031   0.478
46802W        W11963   4.246  11.854  13.280
46803W        W11964   3.926   0.319   0.454
46804W        W11965  21.691  18.566  13.354
46805W        W11966  28.015   9.284   3.199
46806W        W11967  10.721  35.423   1.206
46807W        W11968   7.427  32.134  11.729
46808W        W11969  12.269  42.607  11.238
46809W        W11970  44.792  20.038  13.957
46810W        W11971  18.953  31.630  13.436
46811W        W11972   6.761  12.230  10.455
46812W        W11973  25.469  30.474   1.008
46813W        W11974   1.166  38.040   3.269
46814W        W11975   6.415  33.909  13.483
46815W        W11976   9.463  23.086   1.983
46816W        W11977  30.262   4.887  10.702
46817W        W11978  17.198  13.684   0.057
46818W        W11979  13.091   5.352   4.872
46819W        W11980   7.242   9.235   1.846
46820W        W11981   1.922  31.924  14.477
46821W        W11982  28.192  28.070  13.478
46822W        W11983   2.814  35.974  13.353
46823W        W11984   7.126  32.133   0.785
46824W        W11985  11.228  25.485  12.503
46825W        W11986  23.668  24.471  10.661
46826W        W11987  21.153  20.023  11.512
46827W        W11988  33.580  16.138  13.397
46828W        W11989   2.978  25.139   2.288
46829W        W11990  12.425  25.855  14.392
46830W        W11991  44.468   4.876   3.703
46831W        W11992  14.290  28.407   2.359
46832W        W11993   8.555  36.427   0.233
46833W        W11994  15.181  11.031   1.903
46834W        W11995  39.106   6.053  11.899
46835W        W11996  34.063  16.135   4.512
46836W        W11997  22.872  26.671   3.703
46837W        W11998  30.398  11.621   4.145
46838W        W11999  12.948   9.379  12.158
46839W        W12000  33.540   3.749   1.232
46840W        W12001  25.647  22.219   0.291
46841W        W12002  21.193  32.270   0.299
46842W        W12003  35.402   6.644  14.855
46843W        W12004  33.646  31.673   1.654
46844W        W12005  13.089  17.486   0.493
46845W        W12006  36.972  33.585  13.527
46846W        W12007  42.950  38.999   0.459
46847W        W12008  10.536  11.815  13.441
46848W        W12009  44.233  38.368   4.994
46849W        W12010  23.980  19.089  13.472
46850W        W12011  35.139  23.013  13.068
46851W        W12012  42.360  40.360  14.038
46852W        W12013  27.043  11.637  12.446
46853W        W12014   2.890   6.701   3.727
46854W        W12015   9.280  26.183  13.939
46855W        W12016  41.097  27.034   0.228
46856W        W12017   5.207  17.547  13.426
46857W        W12018   8.696  33.482   1.143
46858W        W12019  37.530  36.933  11.120
46859W        W12020  42.961  17.733   2.934
46860W        W12021  16.309  32.486   2.610
46861W        W12022  36.361  35.209   3.488
46862W        W12023  23.699  18.216  14.989
46863W        W12024  38.895  29.633   2.361
46864W        W12025  28.690  25.419  11.155
46865W        W12026  40.499   3.401  13.875
46866W        W12027  22.934  43.051  12.606
46867W        W12028  27.816  13.566  10.864
46868W        W12029  15.625   7.809  13.045
46869W        W12030   4.203  10.841  13.409
46870W        W12031  31.841  24.237  12.683
46871W        W12032  29.023  34.576  11.033
46872W        W12033  34.008  43.324   2.363
46873W        W12034  35.851  42.562  12.011
46874W        W12035  41.652  14.272  13.550
46875W        W12036  42.288  37.526  11.163
46876W        W12037  18.523  31.919  12.374
46877W        W12038  21.744  11.595  14.502
46878W        W12039   4.290  33.428   0.262
46879W        W12040  43.822  20.403   1.994
46880W        W12041  13.735  44.185   1.329
46881W        W12042  24.613  36.140  13.170
46882W        W12043  32.344  44.822  14.740
46883W        W12044  35.231  36.044   5.157
46884W        W12045  13.884   0.985  13.459
46885W        W12046  42.035  29.942  14.981
46886W        W12047  33.398  32.976   2.862
46887W        W12048  26.910  15.660  14.505
46888W        W12049   1.944  17.498   0.464
46889W        W12050  43.553  15.975   0.355
46890W        W12051  36.178   5.008   5.036
46891W        W12052  23.041  28.862   1.667
46892W        W12053  28.409  20.236   2.256
46893W        W12054  24.119  43.267  12.905
46894W        W12055  33.517  38.281   9.825
46895W        W12056  11.823  32.025   1.807
46896W        W12057  30.644   2.232  13.501
46897W        W12058  17.721  12.113   3.852
46898W        W12059  11.657  30.216  12.380
46899W        W12060  36.306  35.029  11.557
46900W        W12061  30.144  12.708   3.764
46901W        W12062  22.670  10.364   0.774
46902W        W12063  24.561  32.418  13.467
46903W        W12064  10.162  15.869   1.328
46904W        W12065  31.282  21.527   4.230
46905W        W12066  33.546  29.624   1.388
46906W        W12067  41.271  14.799   2.831
46907W        W12068  30.845  30.249  13.495
46908W        W12069  23.662  23.063  11.848
46909W        W12070  17.535  24.213  11.602
46910W        W12071  42.962  20.925  11.273
46911W        W12072  12.889  31.147   4.119
46912W        W12073   3.256  27.031   1.431
46913W        W12074  27.936  23.796  13.806
46914W        W12075  39.527  25.099   4.693
46915W        W12076  14.635   9.427   1.084
46916W        W12077  36.624  40.927   0.310
46917W        W12078  17.529  12.195  12.457
46918W        W12079  19.640  34.865   4.595
46919W        W12080  39.975  18.776  10.941
46920W        W12081  26.201   1.386  12.873
46921W        W12082  35.592  29.617   3.550
46922W        W12083  16.553  10.375  10.556
46923W        W12084  13.664  42.626  10.092
46924W        W12085  18.649  12.895   2.821
46925W        W12086  39.306   0.680   1.940
46926W        W12087  34.523  40.457  14.726
46927W        W12088  41.256  16.137  10.695
46928W        W12089  38.476  37.920  12.320
46929W        W12090  13.286  17.665  12.946
46930W        W12091   0.183  43.927  12.397
46931W        W12092   0.101  33.933  10.491
46932W        W12093   6.619  25.832   0.203
46933W        W12094  12.387   5.987   1.974
46934W        W12095  38.265   4.455   2.854
46935W        W12096   3.495  44.543  14.553
46936W        W12097   0.422  36.988  11.668
46937W        W12098  27.248  35.961  10.730
46938W        W12099  17.722  13.548  10.959
46939W        W12100  40.561  17.598   2.420
46940W        W12101  14.164   7.134   0.931
46941W        W12102  40.059  38.373   4.541
46942W        W12103  31.539  11.874   2.320
46943W        W12104   1.211  37.818   1.893
46944W        W12105  12.885  32.113   1.288
46945W        W12106   4.006  29.073   3.060
46946W        W12107   1.749  41.998  13.068
46947W        W12108  41.718  39.346  12.436
46948W        W12109  20.463  18.639   1.903
46949W        W12110  39.677  27.567  11.169
46950W        W12111  43.883  28.344  10.999
46951W        W12112   4.865   0.347   3.406
46952W        W12113  28.479  21.585  11.120
46953W        W12114  38.420  20.491   3.155
46954W        W12115  27.343  42.740   3.032
46955W        W12116  13.577   2.172   1.559
46956W        W12117  17.299  38.585  13.370
46957W        W12118  20.238  36.060  13.468
46958W        W12119  13.904  12.735   1.896
46959W        W12120  44.570  31.059  11.957
46960W        W12121   7.219  23.316  12.105
46961W        W12122  26.966  31.373   1.162
46962W        W12123  11.131   3.226   2.317
46963W        W12124  18.572   6.978  11.614
46964W        W12125  11.507  11.441   0.022
46965W        W12126  37.410  43.313  13.010
46966W        W12127   4.950  24.514   5.459
46967W        W12128  29.957  32.299   4.660
46968W        W12129  12.709  29.170   3.119
46969W        W12130  32.439  35.602  12.229
46970W        W12131  43.331  17.652   4.159
46971W        W12132  34.783  10.672   3.249
46972W        W12133  21.029  40.013  10.982
46973W        W12134   9.792  21.021   0.345
46974W        W12135  15.411  42.900  14.284
46975W        W12136  44.304  38.800  12.978
46976W        W12137  22.738  10.673  10.109
46977W        W12138  15.048  31.486   1.219
46978W        W12139  33.441   6.112   0.941
46979W        W12140  21.773  44.050   3.662
46980W        W12141  12.092  22.795  13.342
46981W        W12142  20.771  32.117  11.150
46982W        W12143  37.073  38.766  14.559
46983W        W12144  27.520  22.002  11.752
46984W        W12145  28.108  40.096  13.137
46985W        W12146  44.669   1.994  13.345
46986W        W12147  38.400  18.121  10.483
46987W        W12148  13.656  35.394   2.836
46988W        W12149   2.486  42.936  10.733
46989W        W12150  29.223   9.845  14.925
46990W        W12151  19.847  40.033   0.700
46991W        W12152  30.473  22.824   1.842
46992W        W12153  26.856  32.350  13.378
46993W        W12154  13.365  24.285  12.143
46994W        W12155  11.724  37.592  13.072
46995W        W12156  18.531  32.367  13.484
46996W        W12157  22.049  39.131  11.042
46997W        W12158  14.937  38.872  14.272
46998W        W12159  10.116  21.433   0.244
46999W        W12160  25.090  26.132  14.491
47000W        W12161  39.288  18.152  14.298
47001W        W12162  43.468   3.804  12.354
47002W        W12163   8.835  22.153  14.147
47003W        W12164  37.184  41.537  12.985
47004W        W12165  25.177  39.376  13.360
47005W        W12166   8.074  12.815   2.337
47006W        W12167  13.827   7.858   1.490
47007W        W12168  18.276  14.225   1.369
47008W        W12169   6.270   0.010  11.158
47009W        W12170  27.204   4.453  11.478
47010W        W12171   3.465  10.166   4.925
47011W        W12172   6.951  41.926   3.773
47012W        W12173  30.359  11.043   3.184
47013W        W12174  35.577   4.878  11.527
47014W        W12175  38.224  44.196  14.936
47015W        W12176   8.202  38.053   3.662
47016W        W12177  40.387  33.224   3.275
47017W        W12178  34.527   5.582  13.824
47018W        W12179  39.171  42.509  10.343
47019W        W12180  37.017  36.928  14.497
47020W        W12181  22.942  40.264  11.278
47021W        W12182  24.904  17.302  14.414
47022W        W12183   4.819  34.657  14.343
47023W        W12184  40.880   9.078  11.414
47024W        W12185   1.687  24.519   4.850
47025W        W12186  19.908   4.584  13.404
47026W        W12187  17.843  32.622   0.213
47027W        W12188  33.921  23.279  13.492
47028W        W12189  40.631  33.525  11.664
47029W        W12190  12.555  31.967  13.457
47030W        W12191  23.053   6.159   1.007
47031W        W12192  32.374  12.394   2.837
47032W        W12193  27.445   2.834   4.142
47033W        W12194   3.340  10.156  12.268
47034W        W12195  29.693  19.561   0.783
47035W        W12196  24.132   1.000  11.197
47036W        W12197  28.633  26.984   1.424
47037W        W12198   6.479   0.281  14.743
47038W        W12199  13.089  24.488  12.784
47039W        W12200  26.623  30.528  11.202
47040W        W12201  33.110  25.889  13.575
47041W        W12202  33.055   3.229  13.997
47042W        W12203  42.415  38.454  11.203
47043W        W12204   1.421   3.439  11.384
47044W        W12205  36.991  27.451  10.751
47045W        W12206   6.901  17.312   0.896
47046W        W12207  12.185  34.716  10.965
47047W        W12208  20.611  16.902  10.154
47048W        W12209  24.019  15.366  13.578
47049W        W12210  29.265  26.718   0.227
47050W        W12211  36.789  38.145   0.919
47051W        W12212  28.132  14.388  11.916
47052W        W12213  42.097   0.709   0.031
47053W        W12214  43.430  39.601   4.040
47054W        W12215   2.795  31.355   0.946
47055W        W12216  36.554   4.808   4.405
47056W        W12217  38.911  43.015   3.617
47057W        W12218  15.146  23.206   3.733
47058W        W12219   7.870  38.466   2.737
47059W        W12220  41.577   5.912  12.940
47060W        W12221   3.409  21.645  13.909
47061W        W12222  23.271  27.606  12.893
47062W        W12223  37.439  22.125   4.796
47063W        W12224  14.446   9.657  11.141
47064W        W12225  39.266  13.873   2.162
47065W        W12226  26.046   8.684   3.111
47066W        W12227  10.797  31.105   3.395
47067W        W12228  30.419  21.318   1.412
47068W        W12229  37.529  14.095  12.884
47069W        W12230  16.212   6.514  14.795
47070W        W12231  44.246  15.220  13.895
47071W        W12232  23.116  28.450  13.850
47072W        W12233  33.818   9.878   3.906
47073W        W12234  35.061   8.733   4.178
47074W        W12235  16.819  15.057  14.291
47075W        W12236  13.725  39.984  14.639
47076W        W12237  26.916   4.182  11.163
47077W        W12238  42.403  26.822  10.498
47078W        W12239  18.338  25.464  13.333
47079W        W12240  15.899  13.899   0.473
47080W        W12241   9.700  31.563  13.529
47081W        W12242  33.363  11.753   0.475
47082W        W12243   3.760  32.688   0.273
47083W        W12244  36.194  39.565   2.682
47084W        W12245  29.857  10.088   1.691
47085W        W12246  36.606  43.905  13.986
47086W        W12247  10.752  17.281   3.133
47087W        W12248  39.381  37.627   2.174
47088W        W12249  17.416  15.438   4.616
47089W        W12250  14.695   5.485  11.211
47090W        W12251  35.057  16.229  12.910
47091W        W12252  37.571   4.091   4.600
47092W        W12253  20.441  21.600   3.814
47093W        W12254  29.975  14.661  13.972
47094W        W12255  44.273  18.327  10.792
47095W        W12256   3.917  12.786   3.260
47096W        W12257  14.628  21.227  10.721
47097W        W12258  36.341  23.492  12.488
47098W        W12259   7.089  18.831   2.202
47099W        W12260  14.800  29.058  13.401
47100W        W12261   1.567  22.064  14.603
47101W        W12262  35.086  30.967  11.932
47102W        W12263  10.259  34.745   1.862
47103W        W12264   5.251  27.417  11.250
47104W        W12265  21.291  19.286  11.929
47105W        W12266  41.073  11.168   2.352
47106W        W12267  37.574   6.635  11.167
47107W        W12268  19.138  41.354  12.148
47108W        W12269  34.627   1.749  13.990
47109W        W12270  25.008  41.515  14.304
47110W        W12271  18.652  23.969  13.824
47111W        W12272  24.474  30.944  14.373
47112W        W12273  31.172   1.032  14.119
47113W        W12274  10.311  38.527  10.635
47114W        W12275  34.223  12.205   1.354
47115W        W12276  29.199   8.229  13.008
47116W        W12277  14.075  26.125  10.765
47117W        W12278  43.107   9.122   4.235
47118W        W12279  41.497  42.585   4.346
47119W        W12280  37.007  12.838   3.210
47120W        W12281  43.754   1.756  14.512
47121W        W12282  38.870  34.998   1.371
47122W        W12283  29.075  16.033   1.414
47123W        W12284  29.548  32.826   4.100
47124W        W12285  29.909  26.448   2.794
47125W        W12286  42.412  37.262  12.931
47126W        W12287  36.619  12.655  11.597
47127W        W12288  26.540  38.487  13.117
47128W        W12289  21.045  14.713   3.353
47129W        W12290  16.309  24.970   2.640
47130W        W12291  26.269   5.284   3.194
47131W        W12292  11.697  24.525  10.569
47132W        W12293   7.921  36.873   0.481
47133W        W12294  39.829  10.782   0.804
47134W        W12295  15.570  17.573  12.275
47135W        W12296  28.743  34.607   4.074
47136W        W12297  13.236   3.951  14.926
47137W        W12298  31.816  42.304  13.661
47138W        W12299  14.357  15.838  11.174
47139W        W12300  30.911  23.665  14.886
47140W        W12301  35.009  25.277  13.538
47141W        W12302  26.133  30.050   1.456
47142W        W12303   9.133  34.995  12.018
47143W        W12304  13.564  18.410   3.797
47144W        W12305  18.596   8.316  12.978
47145W        W12306  40.348   0.808   0.175
47146W        W12307   6.255  30.433   3.144
47147W        W12308  40.595   1.720   4.535
47148W        W12309  10.702  20.758  14.051
47149W        W12310  28.522   4.645  11.505
47150W        W12311  16.773   8.276   4.737
47151W        W12312  44.085   5.430   1.706
47152W        W12313  35.942  23.261   0.416
47153W        W12314  43.214  40.611   4.152
47154W        W12315  10.596  10.936   1.293
47155W        W12316   8.660  11.381  12.536
47156W        W12317  19.536  26.969  12.344
47157W        W12318  43.977  32.805   4.174
47158W        W12319  17.196  37.617  12.597
47159W        W12320   9.529   4.921   2.749
47160W        W12321  20.838  31.475  14.857
47161W        W12322  10.425  32.298   2.270
47162W        W12323  19.627   3.935   2.140
47163W        W12324  18.227   3.565  14.092
47164W        W12325  15.017  44.448  13.362
47165W        W12326  27.441   2.299  11.587
47166W        W12327  39.070  18.539  12.466
47167W        W12328  17.157   4.466   0.319
47168W        W12329   9.122  18.936   3.688
47169W        W12330  40.825  38.946   2.034
47170W        W12331  12.635  15.730   3.035
47171W        W12332  39.359  27.961   1.874
47172W        W12333   6.963  37.397   3.658
47173W        W12334  31.226  38.006  14.498
47174W        W12335  24.464  42.954  14.990
47175W        W12336   5.334  11.338   2.425
47176W        W12337  36.750   5.438  11.588
47177W        W12338   1.273  37.318   1.603
47178W        W12339  24.995  37.426   4.176
47179W        W12340  36.884  35.373   1.377
47180W        W12341  16.759  24.721   1.646
47181W        W12342  32.747  30.453  11.037
47182W        W12343  28.116  16.925  12.123
47183W        W12344   8.259  38.316  13.718
47184W        W12345   7.466  33.639  13.630
47185W        W12346   6.271  20.172  12.963
47186W        W12347  43.972   7.179   3.765
47187W        W12348  13.301  43.747   3.451
47188W        W12349   5.889   2.876   0.512
47189W        W12350   7.072  15.647   0.371
47190W        W12351  39.689  19.285   3.414
47191W        W12352  15.569  31.355  11.641
47192W        W12353  39.668  16.446  13.978
47193W        W12354  40.303  14.088  13.225
47194W        W12355  21.267   8.289  10.711
47195W        W12356   6.872  15.570  12.920
47196W        W12357   7.493  41.522  13.027
47197W        W12358  37.760  41.457   1.680
47198W        W12359  26.855  27.667   1.864
47199W        W12360   2.116   2.214   1.704
47200W        W12361  37.342  24.759   4.158
47201W        W12362   4.810  28.987  12.992
47202W        W12363  16.056  34.970  10.786
47203W        W12364   5.480   2.869  14.747
47204W        W12365  30.191   3.105  11.864
47205W        W12366  19.295   7.649   1.696
47206W        W12367  19.108  12.324  13.397
47207W        W12368   6.866  31.780  10.945
47208W        W12369   8.384  33.941   1.605
47209W        W12370  18.514  38.499   2.394
47210W        W12371   4.823   0.258   0.956
47211W        W12372  32.543   7.917  11.304
47212W        W12373   6.071  10.562  11.704
47213W        W12374  34.558  40.884   4.990
47214W        W12375  31.373  16.572  14.989
47215W        W12376   9.155   5.227  13.267
47216W        W12377  15.200  40.293   0.828
47217W        W12378   8.354  44.698   3.902
47218W        W12379   2.281  10.381  12.429
47219W        W12380   0.305   6.737   4.566
47220W        W12381  26.421  42.326  13.392
47221W        W12382  39.018   1.459   3.373
47222W        W12383  29.430  28.866   1.919
47223W        W12384  24.265  42.748  13.839
47224W        W12385   8.184  24.025  10.494
47225W        W12386  17.112  12.679  11.643
47226W        W12387  27.570  21.246   1.850
47227W        W12388  37.387   5.818   0.496
47228W        W12389  31.147  40.451  14.763
47229W        W12390   3.276  17.159  13.340
47230W        W12391  10.152   6.951   2.175
47231W        W12392  13.038  28.951   0.912
47232W        W12393   4.334  23.168  14.295
47233W        W12394  35.058  15.597  13.930
47234W        W12395  29.433  23.795  14.839
47235W        W12396   6.705  20.907  12.700
47236W        W12397  26.608  42.816   3.359
47237W        W12398  36.824  18.255  11.533
47238W        W12399  19.321  25.624  12.608
47239W        W12400  42.445  14.735  10.545
47240W        W12401   4.296  26.108   1.302
47241W        W12402  42.835   2.042  10.337
47242W        W12403  41.939  31.135   0.734
47243W        W12404  21.978  38.836  11.472
47244W        W12405  29.623   5.667   4.743
47245W        W12406   0.388   9.461   2.221
47246W        W12407  13.968  21.566  11.538
47247W        W12408  29.029   2.289  13.898
47248W        W12409  17.179  24.582  12.663
47249W        W12410  29.329  35.970   1.393
47250W        W12411  29.182  19.116   3.786
47251W        W12412  35.425  21.853   0.230
47252W        W12413  31.994  15.531   2.124
47253W        W12414  38.409  30.793   1.027
47254W        W12415   6.556  18.652   2.118
47255W        W12416  22.771  19.936   5.068
47256W        W12417  11.253  27.907   0.293
47257W        W12418  24.727  22.545   0.418
47258W        W12419  33.963  39.868  14.354
47259W        W12420   8.655  17.802   1.008
47260W        W12421   5.010  12.633   4.042
47261W        W12422  11.712  20.361  10.600
47262W        W12423  26.619  35.187   0.374
47263W        W12424   7.770  34.677   4.106
47264W        W12425   9.492  36.161  11.586
47265W        W12426  17.683  31.891  14.917
47266W        W12427  17.586  30.177   3.213
47267W        W12428  16.569  12.678  13.942
47268W        W12429  21.824  11.170  12.080
47269W        W12430  21.456  41.950   0.388
47270W        W12431  18.579  11.152  13.572
47271W        W12432  39.607   2.987  12.952
47272W        W12433  33.690  12.268  13.432
47273W        W12434  41.574  28.359   0.745
47274W        W12435   9.320  37.466   4.622
47275W        W12436   9.812   8.088   3.121
47276W        W12437  26.558  18.365   3.690
47277W        W12438  26.146  11.311   3.685
47278W        W12439  37.865  10.372  14.414
47279W        W12440  17.136  36.996   0.069
47280W        W12441   8.970  17.290  14.047
47281W        W12442  33.580  20.104  13.628
47282W        W12443  34.457   3.563  14.798
47283W        W12444  40.323  34.504   1.902
47284W        W12445  25.853  19.465  10.073
47285W        W12446  35.051  27.111  13.800
47286W        W12447  21.982  17.624   4.342
47287W        W12448  10.629  16.241  11.900
47288W        W12449   8.674  43.246   1.361
47289W        W12450   0.392  42.812  14.561
47290W        W12451  17.095  14.650   4.120
47291W        W12452  12.070  26.769  11.645
47292W        W12453  26.607  23.786  14.427
47293W        W12454  37.878  28.127  12.477
47294W        W12455  21.101  15.018  12.816
47295W        W12456  21.056  33.029   4.815
47296W        W12457  17.746  15.554   0.373
47297W        W12458   8.441  39.532   3.804
47298W        W12459  20.486  29.635   0.922
47299W        W12460  36.831   7.320   1.321
47300W        W12461  12.052   6.883   0.664
47301W        W12462  23.981  24.525   1.889
47302W        W12463  36.422  19.507  13.856
47303W        W12464  10.471  35.668   0.243
47304W        W12465  44.214  24.189   2.309
47305W        W12466  25.199   3.838  10.596
47306W        W12467  33.514   1.347   2.949
47307W        W12468  21.743  16.661   1.623
47308W        W12469  36.629  19.068   2.469
47309W        W12470  27.610  21.847  11.271
47310W        W12471  12.291   1.386  12.489
47311W        W12472  15.690  24.217   2.659
47312W        W12473  36.572   4.172  10.679
47313W        W12474  18.097   9.286  13.349
47314W        W12475  25.457   1.695  13.519
47315W        W12476  20.801  26.317  10.491
47316W        W12477  30.859  17.525  14.860
47317W        W12478   3.522  20.110  11.785
47318W        W12479  23.436  14.489  11.097
47319W        W12480  25.700  32.040  12.066
47320W        W12481  15.761   4.256  14.616
47321W        W12482  21.677  18.751   0.249
47322W        W12483  37.315  37.100   1.801
47323W        W12484   7.754   5.417  10.752
47324W        W12485   9.835   5.549  14.358
47325W        W12486  41.769   6.938   1.232
47326W        W12487   7.604  32.183   0.991
47327W        W12488   8.400   8.613   4.226
47328W        W12489  28.891  33.709  11.024
47329W        W12490   0.509  19.176  13.528
47330W        W12491  26.868  26.016  13.387
47331W        W12492  28.942  30.188  13.624
47332W        W12493  16.579   4.775  11.637
47333W        W12494  28.581  22.597  11.975
47334W        W12495  28.951  17.243  14.958
47335W        W12496  34.012  21.202   3.263
47336W        W12497  14.522  10.767  11.570
47337W        W12498   1.857  23.021  12.522
47338W        W12499  33.013  12.693  11.544
47339W        W12500  17.473  28.540   1.042
47340W        W12501  41.277  12.691   2.512
47341W        W12502  18.268  19.998   1.683
47342W        W12503  39.335  44.245   1.789
47343W        W12504  28.212  25.625  13.327
47344W        W12505   6.945  18.331   2.274
47345W        W12506  27.445   5.573  13.839
47346W        W12507  38.342  31.149  13.741
47347W        W12508  21.199  38.391  14.760
47348W        W12509   3.758  31.228   3.890
47349W        W12510  26.194  41.887   2.650
47350W        W12511  40.405  22.537   2.257
47351W        W12512  17.577  39.060   0.518
47352W        W12513  34.018   0.397   1.470
47353W        W12514  36.633  44.889   4.509
47354W        W12515  16.524   0.017   3.706
47355W        W12516  28.952  13.269   4.652
47356W        W12517  15.244   2.207  11.036
47357W        W12518  13.532  31.698   1.313
47358W        W12519  38.968   1.283  13.779
47359W        W12520  19.466  27.662   1.774
47360W        W12521   3.430   5.669   0.335
47361W        W12522  30.700   2.922   0.597
47362W        W12523  35.895  14.876   2.600
47363W        W12524  19.276  40.032   1.867
47364W        W12525   7.476  16.107  11.197
47365W        W12526  24.932   7.147   1.494
47366W        W12527   9.187  27.300   9.918
47367W        W12528  13.080   6.433  10.068
47368W        W12529  18.456  15.635  12.578
47369W        W12530  14.808  10.365  14.866
47370W        W12531  36.897  25.688   2.352
47371W        W12532  40.949   9.530  14.610
47372W        W12533  24.937  40.129  13.791
47373W        W12534  27.844  44.310   4.099
47374W        W12535  12.128   8.419  13.001
47375W        W12536   2.308  31.110   4.060
47376W        W12537  29.954  31.482   2.283
47377W        W12538  13.767  31.570   2.785
47378W        W12539  26.038  39.261  12.665
47379W        W12540  29.527  21.469   4.209
47380W        W12541  34.484  35.361   4.230
47381W        W12542   7.741  27.608  12.110
47382W        W12543  36.882  33.116   4.009
47383W        W12544   2.527  22.369   0.439
47384W        W12545  31.452  17.353   2.850
47385W        W12546  21.053   2.147  10.737
47386W        W12547   8.020   2.941  11.325
47387W        W12548  41.521  36.403  10.906
47388W        W12549  39.013   8.980  14.299
47389W        W12550  13.882   6.191   2.760
47390W        W12551   0.869  10.418   0.662
47391W        W12552  35.121  34.289   2.856
47392W        W12553   8.349  14.681   0.707
47393W        W12554   1.457  44.755  11.617
47394W        W12555  38.293   0.840   2.720
47395W        W12556  32.435  37.421   3.186
47396W        W12557   0.780   0.546  12.981
47397W        W12558  25.226  16.120  14.816
47398W        W12559  25.428  18.211  11.508
47399W        W12560   2.236  39.957   3.212
47400W        W12561  28.957  42.107   3.584
47401W        W12562  25.058  25.624  14.604
47402W        W12563   0.419   0.404   2.233
47403W        W12564  30.947   7.852   1.646
47404W        W12565  39.340  26.527   1.898
47405W        W12566  43.056  17.301   2.281
47406W        W12567  24.255  40.489  14.322
47407W        W12568  17.832   0.650   1.927
47408W        W12569  12.747  16.813  12.542
47409W        W12570   9.835   1.932  10.379
47410W        W12571  19.982  26.091  13.139
47411W        W12572  26.050  16.694  11.398
47412W        W12573  32.611  22.814   0.547
47413W        W12574  20.126  29.678   4.610
47414W        W12575  40.467   4.518   3.775
47415W        W12576  29.743   1.721  14.851
47416W        W12577  28.686  12.918  12.654
47417W        W12578  33.503  39.487  11.817
47418W        W12579   8.386   9.292  11.603
47419W        W12580  20.119   3.562  12.532
47420W        W12581  21.721  44.458   0.905
47421W        W12582   2.355  35.883   3.402
47422W        W12583  14.683   1.867   3.897
47423W        W12584  40.834  36.514   0.238
47424W        W12585  28.852  39.992  11.992
47425W        W12586  34.152  29.071  10.929
47426W        W12587   0.777  26.675  11.117
47427W        W12588  35.982  41.819  12.488
47428W        W12589  23.927   3.732  11.109
47429W        W12590  35.408  33.939  11.541
47430W        W12591  21.490  11.246   1.325
47431W        W12592  35.647  21.808   3.310
47432W        W12593  26.279  42.319  14.053
47433W        W12594   2.672  36.376  10.631
47434W        W12595  21.717  12.802   0.958
47435W        W12596  35.854  18.633   3.720
47436W        W12597   4.530  16.159   3.968
47437W        W12598  17.645  26.264  14.379
47438W        W12599  36.888  36.041  14.650
47439W        W12600  27.537  16.623   4.716
47440W        W12601  42.865  13.117   0.860
47441W        W12602  39.288  40.284   1.778
47442W        W12603  38.378  31.360   1.704
47443W        W12604  14.648  40.628  14.162
47444W        W12605  41.765   2.275   4.709
47445W        W12606  30.820   2.936   4.548
47446W        W12607  25.642  31.930  10.715
47447W        W12608  25.025  11.578  13.197
47448W        W12609   6.570  22.800  11.158
47449W        W12610   5.670  29.965  13.907
47450W        W12611  31.009  36.337  12.099
47451W        W12612   4.602  36.094   5.043
47452W        W12613   4.116  23.710  12.651
47453W        W12614  41.799  44.391  14.291
47454W        W12615  37.313  25.022  14.080
47455W        W12616  29.763  39.841   3.295
47456W        W12617  39.598  30.001   2.720
47457W        W12618  12.335  19.737   4.710
47458W        W12619   8.238  22.497   3.028
47459W        W12620  20.364  31.273  10.670
47460W        W12621  12.406   2.810   4.646
47461W        W12622  42.407  10.869   2.714
47462W        W12623  43.369   9.324  10.760
47463W        W12624   0.794   4.904  14.919
47464W        W12625  13.880   2.766  13.058
47465W        W12626  24.585  42.859  13.425
47466W        W12627  33.666  19.181   0.804
47467W        W12628  41.115  12.786  13.328
47468W        W12629  32.533  12.362   1.641
47469W        W12630  39.875  33.789   1.023
47470W        W12631  24.741   5.869  11.127
47471W        W12632  38.861  32.940   1.673
47472W        W12633  43.560  44.961   3.727
47473W        W12634  35.464  33.923  10.578
47474W        W12635  20.087  13.639   1.566
47475W        W12636  22.195  13.695   3.650
47476W        W12637  34.553   7.392   3.882
47477W        W12638   3.038  39.329  14.020
47478W        W12639  38.609  30.636  14.382
47479W        W12640   7.987  32.080   4.174
47480W        W12641   3.473  14.787  11.651
47481W        W12642   2.788  43.932   4.633
47482W        W12643  38.936  22.143   4.274
47483W        W12644  41.873  43.195  14.919
47484W        W12645  38.478  15.387  14.999
47485W        W12646  31.937  42.294   0.856
47486W        W12647  34.381   3.884   3.682
47487W        W12648  34.907   9.674  11.536
47488W        W12649  40.663  26.570   1.513
47489W        W12650  33.596  40.385  10.710
47490W        W12651  27.331  27.924   1.845
47491W        W12652  44.728   8.200   2.886
47492W        W12653  43.696  11.207   3.762
47493W        W12654  41.817  43.183  11.622
47494W        W12655   3.832   9.163  13.970
47495W        W12656   5.169  31.102   2.835
47496W        W12657  13.364   0.996  12.946
47497W        W12658  29.631  10.536  12.087
47498W        W12659   8.658  32.631   1.222
47499W        W12660   6.920  34.999   0.858
47500W        W12661  22.049  43.491  12.359
47501W        W12662  39.350  28.467   2.425
47502W        W12663   8.603  21.451  12.602
47503W        W12664  31.354  34.589  12.071
47504W        W12665  14.704  44.716  11.599
47505W        W12666  14.098  14.303  12.029
47506W        W12667   8.456   6.770  10.999
47507W        W12668   9.888  38.391   0.816
47508W        W12669  14.748  43.935  12.486
47509W        W12670  11.911   2.933   4.639
47510W        W12671  18.747  43.756  14.840
47511W        W12672  36.862   4.445  13.360
47512W        W12673  29.957  10.643  14.913
47513W        W12674  12.263  22.268  12.531
47514W        W12675   8.888  14.236  11.205
47515W        W12676  42.997  43.935   4.084
47516W        W12677  20.660  32.170   1.397
47517W        W12678  34.257  10.573  13.485
47518W        W12679   8.841  21.023   1.305
47519W        W12680  37.828  38.004  14.940
47520W        W12681  12.216  27.204   1.472
47521W        W12682  22.611  26.837  12.659
47522W        W12683  41.535  15.048  11.619
47523W        W12684   9.791  11.613   0.362
47524W        W12685  25.997   5.612  14.465
47525W        W12686  20.622  43.146   5.017
47526W        W12687   2.942  21.245  11.011
47527W        W12688  28.981   0.397   3.848
47528W        W12689  26.910  40.831   1.559
47529W        W12690   2.935  43.876  10.713
47530W        W12691  41.176   0.280   4.141
47531W        W12692  40.322  43.323   1.601
47532W        W12693  27.999  21.023   1.626
47533W        W12694  40.747  40.301   0.299
47534W        W12695  43.383   0.040   2.768
47535W        W12696  23.163  17.627   2.435
47536W        W12697  25.582  34.402  14.792
47537W        W12698  31.766   3.753  14.710
47538W        W12699  13.076  19.678   1.856
47539W        W12700  23.631  31.477   2.259
47540W        W12701   8.459  33.675  13.530
47541W        W12702  40.444  39.356   3.157
47542W        W12703  34.844  22.614  11.588
47543W        W12704  41.036  34.117  10.778
47544W        W12705   3.769   8.584   3.830
47545W        W12706  39.984  10.696  13.092
47546W        W12707  15.513   0.869   3.745
47547W        W12708  10.931   2.665  10.821
47548W        W12709  16.091  17.316   3.679
47549W        W12710  27.509  44.519  14.816
47550W        W12711  39.707  37.083   1.447
47551W        W12712  19.047  14.331  13.919
47552W        W12713  30.875   2.062   4.122
47553W        W12714  27.003  18.134   3.736
47554W        W12715   5.865  32.924  11.623
47555W        W12716  20.250  13.307  14.444
47556W        W12717  22.572  39.595   0.762
47557W        W12718  27.484   8.237  12.526
47558W        W12719  35.581  44.760   3.157
47559W        W12720  17.279  18.821   1.274
47560W        W12721  42.010  17.084   4.064
47561W        W12722  17.300   7.199  14.452
47562W        W12723  13.533  36.598   4.623
47563W        W12724  27.906  29.044   0.242
47564W        W12725   9.353  27.478  13.502
47565W        W12726  26.163  16.614   2.347
47566W        W12727  34.177  12.317   3.109
47567W        W12728  10.351  14.840   1.358
47568W        W12729  41.216  37.914  11.632
47569W        W12730   6.262  11.244  12.505
47570W        W12731  10.359  12.701  11.508
47571W        W12732   3.968  12.406   0.463
47572W        W12733   8.759  19.117  11.153
47573W        W12734  32.165   8.778  14.876
47574W        W12735  28.601  31.812  13.424
47575W        W12736  16.794  27.056  14.496
47576W        W12737  39.086  37.798  11.144
47577W        W12738  40.017  11.576  13.236
47578W        W12739  23.236  27.506   1.587
47579W        W12740  10.806  18.199   2.370
47580W        W12741  36.340  33.940  12.926
47581W        W12742  38.957  20.213   3.983
47582W        W12743  29.560  44.426  10.692
47583W        W12744  28.053   3.495   4.568
47584W        W12745  31.681   1.192   0.381
47585W        W12746  18.416  19.036   1.950
47586W        W12747  36.019  34.841   3.681
47587W        W12748   4.187  17.011  12.069
47588W        W12749  42.977  41.657  14.749
47589W        W12750  38.064  31.704   3.686
47590W        W12751   7.635  27.089   0.947
47591W        W12752   3.355  36.724  13.840
47592W        W12753   0.332  31.381  14.803
47593W        W12754  38.492  12.682  14.893
47594W        W12755  31.009  14.430   3.002
47595W        W12756   5.905  28.080  14.583
47596W        W12757  37.133   3.347  12.891
47597W        W12758   0.131  34.846   2.701
47598W        W12759  25.591  36.386   4.505
47599W        W12760  43.786  12.295   4.642
47600W        W12761  28.414  12.034  14.487
47601W        W12762  10.338  37.408   4.632
47602W        W12763  36.744  15.254   2.848
47603W        W12764   7.304  23.629   0.373
47604W        W12765   0.364  20.911   4.710
47605W        W12766   0.774  21.683  13.140
47606W        W12767  31.482  27.298  11.204
47607W        W12768  44.327  23.725  10.592
47608W        W12769   4.803   6.539  13.027
47609W        W12770   3.198  20.486   0.878
47610W        W12771   6.494  21.221  10.779
47611W        W12772  37.767  41.037  12.539
47612W        W12773  30.009  33.607  12.051
47613W        W12774   5.198   1.420   3.767
47614W        W12775  28.744  18.125  14.511
47615W        W12776   0.573   7.666  14.316
47616W        W12777  10.865  39.402   3.711
47617W        W12778  42.440  43.686  12.035
47618W        W12779  15.176  21.544   0.401
47619W        W12780  11.570  17.553   1.363
47620W        W12781   2.801  37.763   0.926
47621W        W12782  16.987  15.560   3.177
47622W        W12783  44.905  13.662   3.485
47623W        W12784  41.281   5.243  11.103
47624W        W12785  34.145  32.476  10.584
47625W        W12786  30.871  40.155  14.421
47626W        W12787   6.931   7.833   2.314
47627W        W12788   3.617  26.606   3.063
47628W        W12789  36.803  21.352   1.928
47629W        W12790  13.922   7.750   2.458
47630W        W12791  30.745  13.799   0.372
47631W        W12792  22.147  15.445  11.553
47632W        W12793  24.783  31.093   0.268
47633W        W12794  29.882  44.166   2.708
47634W        W12795  41.335  15.550   2.442
47635W        W12796  33.256  42.274   1.341
47636W        W12797  11.700  41.306   4.393
47637W        W12798  12.331  10.486   0.362
47638W        W12799  29.987   7.051   0.709
47639W        W12800  21.964  11.120   4.608
47640W        W12801  25.304  33.062   0.371
47641W        W12802  35.042  44.859   0.817
47642W        W12803  13.362  13.219   0.835
47643W        W12804  37.968  24.697   4.887
47644W        W12805  33.676  19.078  10.829
47645W        W12806  31.152  33.067  12.496
47646W        W12807  35.946  19.472   3.013
47647W        W12808  13.442  19.610   1.310
47648W        W12809  18.082  31.894   3.572
47649W        W12810  21.196  37.380   2.386
47650W        W12811   2.369   3.232   0.425
47651W        W12812  39.810  14.750   1.030
47652W        W12813  44.913  40.300  12.808
47653W        W12814  21.526  22.331   1.751
47654W        W12815  33.124  14.147   3.019
47655W        W12816  23.796  36.996  13.505
47656W        W12817  38.094   7.387  10.300
47657W        W12818   1.896  15.800   2.290
47658W        W12819  27.463  34.628   0.576
47659W        W12820   3.241  25.165  14.840
47660W        W12821  24.960  34.974  10.975
47661W        W12822  42.003  19.166  14.502
47662W        W12823  36.411  30.178   2.365
47663W        W12824  38.878  42.843  12.427
47664W        W12825  12.597  38.730   1.394
47665W        W12826   0.942   2.919   0.117
47666W        W12827  37.601  26.414  12.249
47667W        W12828  28.919  11.721  10.518
47668W        W12829  16.051   4.158   2.477
47669W        W12830   6.997  41.415  13.826
47670W        W12831  39.356  21.164  12.886
47671W        W12832   5.401  40.572  13.867
47672W        W12833  23.766  24.722  14.878
47673W        W12834  11.917  10.374   3.206
47674W        W12835  17.038  16.079  14.826
47675W        W12836  17.756  42.028   4.610
47676W        W12837  26.571  23.216  10.063
47677W        W12838  32.893  33.094  12.944
47678W        W12839  16.134  36.037  13.766
47679W        W12840  40.258  29.167   0.385
47680W        W12841  17.706   6.854  11.685
47681W        W12842  14.579  13.799   4.558
47682W        W12843  12.129   3.537  13.900
47683W        W12844  21.720  34.303  12.974
47684W        W12845  38.088  25.319   0.010
47685W        W12846  21.169  20.424  12.820
47686W        W12847  14.826  23.224  14.198
47687W        W12848  44.027  40.754  13.148
47688W        W12849  10.111  15.682  13.868
47689W        W12850  25.138   3.525   2.151
47690W        W12851  40.285  39.859  13.368
47691W        W12852  31.862  40.014  13.404
47692W        W12853  37.815  15.173  11.183
47693W        W12854  31.683   9.461  11.761
47694W        W12855  31.011   0.895   3.688
47695W        W12856  37.667  28.917  10.688
47696W        W12857  40.918  25.608  11.202
47697W        W12858  39.762  24.257  13.531
47698W        W12859   1.985   5.082   4.528
47699W        W12860   5.083  36.016  11.251
47700W        W12861  18.542  25.563  13.854
47701W        W12862  14.871  25.532  10.463
47702W        W12863  15.967  32.438  13.776
47703W        W12864  10.726  17.579  14.990
47704W        W12865  38.463   8.765   3.209
47705W        W12866  42.099  19.047  12.141
47706W        W12867  18.800  15.328   2.227
47707W        W12868  27.038  35.819   3.635
47708W        W12869   4.380   0.457   2.719
47709W        W12870  30.025  10.421  14.448
47710W        W12871  30.766   1.969  10.642
47711W        W12872  22.810  40.382  13.571
47712W        W12873  12.528   4.631   0.207
47713W        W12874  29.300   5.333   1.307
47714W        W12875   5.485  20.844   1.283
47715W        W12876  19.245  27.712   0.485
47716W        W12877   1.470  40.139   4.554
47717W        W12878  38.637  13.389   0.736
47718W        W12879  18.643  35.033  14.478
47719W        W12880  15.650  20.022  13.512
47720W        W12881  33.573  38.007  10.253
47721W        W12882  15.257   3.858   1.084
47722W        W12883   0.778  24.067   5.065
47723W        W12884  12.337   7.717   3.607
47724W        W12885  10.851  38.552  10.683
47725W        W12886  41.006  21.557   2.658
47726W        W12887  28.565  33.081  11.684
47727W        W12888  36.738  36.022   4.872
47728W        W12889  43.917  20.913   1.253
47729W        W12890  15.160  32.026  11.676
47730W        W12891  24.135  10.814   4.847
47731W        W12892  19.570  10.623  14.429
47732W        W12893  43.251  17.041  13.823
47733W        W12894  30.664  25.024   3.608
47734W        W12895  13.098  39.251   0.019
47735W        W12896  14.707  33.417   1.154
47736W        W12897   8.907  11.937   1.451
47737W        W12898   5.660  10.875   4.094
47738W        W12899  33.245   5.273  14.141
47739W        W12900  35.009  25.930   1.317
47740W        W12901   8.706  18.991   4.041
47741W        W12902   0.909  17.753   4.624
47742W        W12903  22.025  23.517  14.923
47743W        W12904  36.329   0.365  10.954
47744W        W12905  21.489  12.596   2.427
47745W        W12906  43.227  16.905   0.285
47746W        W12907   7.980   6.810   4.535
47747W        W12908  23.424  26.474  12.467
47748W        W12909  40.980   1.438  11.421
47749W        W12910   5.695   8.800  11.622
47750W        W12911  33.594  15.788   3.132
47751W        W12912  35.924  19.662  13.841
47752W        W12913  12.928  27.590   4.694
47753W        W12914  42.029  44.922   3.705
47754W        W12915  13.487  40.978   2.710
47755W        W12916   1.972   9.239   1.285
47756W        W12917  10.061  12.284  11.471
47757W        W12918  15.619  41.427  12.319
47758W        W12919  36.806  25.214  11.673
47759W        W12920  28.776  18.604   3.263
47760W        W12921  12.240  26.758  11.130
47761W        W12922   4.794   1.894  12.805
47762W        W12923  17.399  23.161   0.874
47763W        W12924  37.011  38.680   2.263
47764W        W12925  42.506  18.593  12.977
47765W        W12926   6.291  15.175   4.351
47766W        W12927  10.332   8.594   3.782
47767W        W12928   4.033  36.484  13.307
47768W        W12929  10.473  38.055   3.979
47769W        W12930   0.312   3.717  11.562
47770W        W12931  39.319   3.320   3.815
47771W        W12932   3.407  37.499  11.028
47772W        W12933   1.543   1.945  12.184
47773W        W12934  18.179  11.128   2.794
47774W        W12935  12.388  38.095  12.833
47775W        W12936  28.604  31.824  10.676
47776W        W12937  19.505   4.896   1.321
47777W        W12938  17.202  10.253   4.704
47778W        W12939  23.122  26.996   1.557
47779W        W12940  18.568   6.966   4.066
47780W        W12941  29.495  30.679   3.208
47781W        W12942  32.393  19.292   4.099
47782W        W12943  11.308  26.436  11.152
47783W        W12944   5.121  26.674   2.412
47784W        W12945  32.986  24.628  10.724
47785W        W12946  18.748  40.761   1.735
47786W        W12947  44.785  39.328  14.308
47787W        W12948  34.273   6.602   0.493
47788W        W12949   1.725  24.762   3.875
47789W        W12950  33.580  37.355   4.077
47790W        W12951  11.052  33.458   1.928
47791W        W12952   5.558  42.057   2.854
47792W        W12953  25.962   0.464   1.915
47793W        W12954  26.731  24.952   0.918
47794W        W12955  14.337  41.545   1.390
47795W        W12956   0.888  24.636   0.663
47796W        W12957  39.344  11.159   1.648
47797W        W12958  16.718  29.257   0.174
47798W        W12959  22.722  33.848  14.360
47799W        W12960  39.812   7.212  14.071
47800W        W12961  37.866  32.092  10.286
47801W        W12962  23.663  30.639   0.852
47802W        W12963  36.220  22.695   2.789
47803W        W12964  28.499  12.672   0.023
47804W        W12965   0.820  29.642   0.208
47805W        W12966  21.160  16.227   4.066
47806W        W12967   9.845  39.426  10.450
47807W        W12968   6.374   9.802  11.081
47808W        W12969  40.382  36.868  10.607
47809W        W12970  44.431  37.119  14.983
47810W        W12971   5.988   8.836  12.992
47811W        W12972  31.354   9.816  11.535
47812W        W12973  33.071  35.522  10.454
47813W        W12974  18.325  35.327   2.505
47814W        W12975  33.847  24.704  11.572
47815W        W12976   7.737  28.957  10.872
47816W        W12977  20.959  15.703  12.350
47817W        W12978  42.006  13.595   3.366
47818W        W12979  42.644   7.476  13.380
47819W        W12980  13.304  21.706   4.403
47820W        W12981  31.589  35.493   0.414
47821W        W12982  24.708  34.844  11.390
47822W        W12983  26.977  25.402  12.399
47823W        W12984  21.025   9.227   2.709
47824W        W12985  19.646  31.214   0.356
47825W        W12986   5.183  36.468  10.446
47826W        W12987  11.441  36.943   2.338
47827W        W12988  22.684  10.139   1.251
47828W        W12989  42.293  40.083  12.460
47829W        W12990  24.034  32.353   4.571
47830W        W12991  35.547  15.703   2.345
47831W        W12992   3.302   3.063   3.710
47832W        W12993  42.945   3.419  11.217
47833W        W12994  37.649   1.480   4.813
47834W        W12995  40.432  25.034  12.512
47835W        W12996  38.458   8.321  14.500
47836W        W12997  21.840  24.685  12.527
47837W        W12998  32.385  26.956   3.699
47838W        W12999  38.113  36.575  14.821
47839W        W13000   4.070   4.053  14.742
47840W        W13001  25.089  36.411  10.217
47841W        W13002  14.581  29.691   4.177
47842W        W13003  30.703  30.438   2.374
47843W        W13004  30.181  21.189  12.434
47844W        W13005  26.653  17.714   1.403
47845W        W13006   1.166  19.085  14.389
47846W        W13007  23.977  10.607   0.757
47847W        W13008  21.059  34.420   3.179
47848W        W13009  13.492  43.347   1.918
47849W        W13010  41.547  38.437  12.295
47850W        W13011  43.967   8.683   1.393
47851W        W13012  31.504  44.995  11.143
47852W        W13013  40.307  42.144  14.242
47853W        W13014   3.781   8.355   4.313
47854W        W13015  18.926  22.601  13.151
47855W        W13016  10.195   0.864   1.631
47856W        W13017   5.865  40.059   1.864
47857W        W13018  37.530  36.074   2.706
47858W        W13019  40.373  16.746   2.936
47859W        W13020   3.015   3.024  12.468
47860W        W13021  37.947   5.272  13.713
47861W        W13022  18.648  32.855   2.817
47862W        W13023  15.271  18.128   4.448
47863W        W13024  42.751   7.258   4.105
47864W        W13025   3.928  38.964   2.848
47865W        W13026   4.444  18.317   1.644
47866W        W13027   9.605  13.319  13.992
47867W        W13028  14.229   5.381   0.558
47868W        W13029  15.885  33.654   2.849
47869W        W13030   1.155   6.597  14.071
47870W        W13031   9.976  26.226   2.695
47871W        W13032  37.051  43.458   2.731
47872W        W13033  19.275  33.989   1.253
47873W        W13034  42.371  11.674  12.000
47874W        W13035  14.001   2.863  14.026
47875W        W13036  41.456  37.815   0.298
47876W        W13037  15.734  39.314  12.605
47877W        W13038  29.114   3.938  13.961
47878W        W13039  39.448  31.635  14.095
47879W        W13040  35.438  37.776   4.023
47880W        W13041  44.877   6.362  14.986
47881W        W13042   9.909  41.217  11.978
47882W        W13043  18.091  20.964  14.339
47883W        W13044  22.025  17.081   1.691
47884W        W13045  27.489  27.100   0.470
47885W        W13046   9.526  10.255  10.782
47886W        W13047  29.079   6.398   3.700
47887W        W13048  35.892   6.964  11.759
47888W        W13049  34.597  13.089   3.990
47889W        W13050   6.667  43.699  12.887
47890W        W13051  34.910  29.368   0.394
47891W        W13052  23.652   0.796  11.125
47892W        W13053   6.015   7.753   1.422
47893W        W13054  21.601  30.645  11.571
47894W        W13055  30.904  14.092   2.594
47895W        W13056   4.185  42.310  14.348
47896W        W13057   4.059  23.009  10.750
47897W        W13058   8.777   7.957  13.586
47898W        W13059  29.682  42.713   1.726
47899W        W13060   5.150   9.318   2.307
47900W        W13061  22.710  19.623   0.607
47901W        W13062  32.387   2.239  14.417
47902W        W13063   5.672  32.574   2.248
47903W        W13064  11.139  44.767  14.841
47904W        W13065  15.594   4.293   1.006
47905W        W13066   3.873  35.621   4.623
47906W        W13067  14.865  25.234  13.391
47907W        W13068  34.996  23.327  12.639
47908W        W13069   4.759  32.033  10.689
47909W        W13070  24.496  29.108   3.103
47910W        W13071  12.064  32.477   0.958
47911W        W13072  44.233  18.789  13.554
47912W        W13073  20.243   2.751  14.983
47913W        W13074   5.922   5.627   3.748
47914W        W13075  39.331  43.330   4.401
47915W        W13076  31.070  16.748   1.404
47916W        W13077  25.641  13.212  13.967
47917W        W13078  19.959  39.238   9.691
47918W        W13079  14.770   9.286  10.755
47919W        W13080   6.729  12.652   0.288
47920W        W13081  21.774  23.237   1.738
47921W        W13082   5.815   5.880   0.971
47922W        W13083  39.178   3.904  13.430
47923W        W13084   7.940  23.032  12.523
47924W        W13085  11.393  37.502  12.362
47925W        W13086  13.847   2.149   3.264
47926W        W13087  43.983  28.976   2.407
47927W        W13088  15.129  31.963  14.858
47928W        W13089  13.787  25.695   3.365
47929W        W13090  12.348  44.534   2.823
47930W        W13091  39.985  31.450  13.783
47931W        W13092   8.659  29.285  12.928
47932W        W13093  44.831  14.185  11.224
47933W        W13094  15.265  13.403  10.688
47934W        W13095  31.679   5.590  12.576
47935W        W13096  27.016   3.741   1.330
47936W        W13097  29.881  38.562  13.854
47937W        W13098  36.334  26.110  13.865
47938W        W13099  33.019  42.451  13.181
47939W        W13100   6.781  43.390   2.646
47940W        W13101  16.570  30.265  13.851
47941W        W13102   0.250  32.891  11.590
47942W        W13103  33.252  33.014   4.404
47943W        W13104  23.749  33.389  12.881
47944W        W13105  42.540   7.698   4.264
47945W        W13106  21.513   1.251  11.277
47946W        W13107  38.346  32.033  11.680
47947W        W13108  16.995  12.238  13.282
47948W        W13109   2.366  37.948  14.309
47949W        W13110  17.039  11.307   1.640
47950W        W13111  27.130   6.836  12.139
47951W        W13112   0.676  32.349  11.036
47952W        W13113   0.432  12.337  12.655
47953W        W13114   7.460  36.434   2.307
47954W        W13115   8.787  17.231   4.173
47955W        W13116  23.069  30.107  14.272
47956W        W13117  28.459  16.809  12.525
47957W        W13118  23.766  34.284  12.003
47958W        W13119   3.740  38.692   4.161
47959W        W13120  37.572  10.063  11.589
47960W        W13121  26.271  31.178  12.985
47961W        W13122  24.106  18.614  11.352
47962W        W13123  12.360  34.369  14.377
47963W        W13124  44.307   8.282  10.627
47964W        W13125   0.228  34.960   3.901
47965W        W13126  39.471   8.393   4.700
47966W        W13127  29.128  36.925   1.712
47967W        W13128  39.572   7.864  13.853
47968W        W13129   9.227  36.074   0.761
47969W        W13130  19.980  17.691   2.135
47970W        W13131  35.453  39.491  13.285
47971W        W13132   9.319  38.768  10.143
47972W        W13133  21.020  30.351  14.526
47973W        W13134  29.055   7.286  10.987
47974W        W13135  21.647  36.113   2.185
47975W        W13136   1.061  30.923  14.373
47976W        W13137  12.582  32.443   0.082
47977W        W13138  44.718  44.355  12.521
47978W        W13139   6.779  29.120   0.501
47979W        W13140  41.771  26.736   2.647
47980W        W13141  10.811  24.794   0.402
47981W        W13142   3.782  19.509  11.076
47982W        W13143   5.351  20.983  10.422
47983W        W13144  43.537  39.105   4.174
47984W        W13145   6.591  18.626   0.697
47985W        W13146  37.004  33.545   1.943
47986W        W13147  26.906  12.643  14.283
47987W        W13148  16.801  33.038   0.806
47988W        W13149   5.778  14.516   0.261
47989W        W13150   8.694  30.954  14.818
47990W        W13151  23.968   5.248  13.913
47991W        W13152  24.014   1.789   2.048
47992W        W13153  31.106  19.655   4.089
47993W        W13154  39.081  36.514   1.792
47994W        W13155  43.364  31.081   3.778
47995W        W13156   1.989  29.626  13.746
47996W        W13157  41.093  18.153  13.971
47997W        W13158  28.052  24.489  12.056
47998W        W13159   1.434  33.355   2.751
47999W        W13160  22.095  38.347  11.497
48000W        W13161  37.501  34.882   2.511
48001W        W13162  38.598  33.224  10.741
48002W        W13163  24.073   4.988   0.735
48003W        W13164  16.268  18.517  11.466
48004W        W13165  21.714   7.905   3.107
48005W        W13166  33.656  24.489  10.320
48006W        W13167  37.337  28.438  11.529
48007W        W13168  16.498  26.230  10.647
48008W        W13169  36.287  36.549  14.177
48009W        W13170   3.134  43.761  14.924
48010W        W13171  24.282  19.256  13.075
48011W        W13172  21.537  40.975  14.390
48012W        W13173  12.581  38.466  12.533
48013W        W13174   5.278  13.883   3.265
48014W        W13175   8.706  38.249   3.602
48015W        W13176  32.667   0.787   1.691
48016W        W13177  40.658  30.052  13.768
48017W        W13178  18.946  36.358   0.549
48018W        W13179   8.435  24.475  10.761
48019W        W13180   0.860  10.486   3.137
48020W        W13181  28.624  29.546   3.823
48021W        W13182   2.980  29.439  14.948
48022W        W13183  38.976  39.590  14.352
48023W        W13184  21.806   7.919  13.134
48024W        W13185  36.730  28.996   3.814
48025W        W13186  20.934   0.846   3.770
48026W        W13187  29.395  33.386  11.425
48027W        W13188  21.634  42.348   0.021
48028W        W13189  31.424  18.691   0.514
48029W        W13190  13.165  41.261   3.688
48030W        W13191   7.912  35.475   1.217
48031W        W13192  38.968  23.517   0.851
48032W        W13193   0.415  11.190  10.825
48033W        W13194   7.774  13.684   4.567
48034W        W13195  18.731   6.671   3.638
48035W        W13196  30.248   7.232  13.864
48036W        W13197   9.762  26.574  11.523
48037W        W13198  37.851  29.025   2.443
48038W        W13199  13.022   7.582  14.409
48039W        W13200  29.026  32.614   0.720
48040W        W13201  21.559  16.636   3.062
48041W        W13202  19.929   5.650   0.663
48042W        W13203  24.281  26.090   1.239
48043W        W13204  20.653   6.384   0.509
48044W        W13205  37.784  37.442  11.354
48045W        W13206  23.501  38.023   0.843
48046W        W13207  12.105   5.869   0.471
48047W        W13208  23.104  44.008   4.960
48048W        W13209  37.103  34.994  14.124
48049W        W13210  36.439  28.570   0.586
48050W        W13211  34.567  41.524  14.836
48051W        W13212  10.503  37.923  14.885
48052W        W13213  16.590  20.603   3.706
48053W        W13214  31.090  38.092   0.469
48054W        W13215   5.830  33.907   2.369
48055W        W13216  30.456  17.735   2.829
48056W        W13217   7.805  14.966  14.826
48057W        W13218  15.744  20.744  12.100
48058W        W13219  35.051  27.585  12.047
48059W        W13220   0.375   9.064   4.741
48060W        W13221  37.708   3.592   4.621
48061W        W13222  35.475  35.321   0.209
48062W        W13223  43.066  26.539  10.822
48063W        W13224  27.127  39.227  12.148
48064W        W13225  23.499  16.756   2.368
48065W        W13226  29.853   3.684  12.602
48066W        W13227   6.298  38.900  12.288
48067W        W13228  18.337   6.928  11.167
48068W        W13229  13.712  23.485   4.194
48069W        W13230   3.878  10.352  11.386
48070W        W13231  39.716   2.818  12.043
48071W        W13232   2.812  44.928   0.842
48072W        W13233  18.333  24.235   0.470
48073W        W13234  42.216  23.211  13.065
48074W        W13235  35.230  21.739   2.373
48075W        W13236  15.583  17.837   3.993
48076W        W13237  43.289  38.496  11.155
48077W        W13238  33.419  21.999  14.503
48078W        W13239  36.957  31.680   1.697
48079W        W13240   4.264  40.729  14.425
48080W        W13241   3.310  20.962   5.003
48081W        W13242   1.813  39.542   2.302
48082W        W13243  44.322  20.699  14.827
48083W        W13244  33.004  20.307  10.697
48084W        W13245  33.588  10.277   3.655
48085W        W13246  38.948  43.271   4.055
48086W        W13247   8.339  23.583  10.796
48087W        W13248  43.689  41.911  11.510
48088W        W13249  33.695  35.786   4.321
48089W        W13250  31.396  38.448   0.727
48090W        W13251  40.047  13.308   3.675
48091W        W13252  37.258  26.851  12.118
48092W        W13253  29.953  14.073  12.394
48093W        W13254  24.365  19.416  11.061
48094W        W13255   5.940  40.586   1.683
48095W        W13256  13.222   4.812   4.107
48096W        W13257   6.422  37.798  11.962
48097W        W13258  23.537  24.377  13.856
48098W        W13259  12.319   0.960   4.475
48099W        W13260  42.968  16.082  11.846
48100W        W13261  40.751  11.569   1.718
48101W        W13262  30.079   6.482  12.101
48102W        W13263  41.761   6.918  14.873
48103W        W13264  12.142  30.866  13.889
48104W        W13265  39.029  29.111  14.914
48105W        W13266  20.046  29.393  14.590
48106W        W13267  40.535  17.291   1.253
48107W        W13268  39.526  36.541  14.819
48108W        W13269  23.204  18.581  10.927
48109W        W13270   5.703  41.939  13.936
48110W        W13271  29.095  40.256   0.009
48111W        W13272  37.514  12.323   4.325
48112W        W13273   4.369  35.258   3.858
48113W        W13274  31.582  24.420   2.774
48114W        W13275  24.589  26.923  13.557
48115W        W13276   7.147  31.905   3.791
48116W        W13277  13.054   7.298  13.447
48117W        W13278  36.639   2.696  14.324
48118W        W13279  28.441  36.414   1.211
48119W        W13280  17.075   5.803  10.677
48120W        W13281  38.610  15.278  13.523
48121W        W13282  33.453  22.511  14.396
48122W        W13283  28.177   0.533  11.153
48123W        W13284  44.250   1.360  13.246
48124W        W13285  25.137   8.262   2.453
48125W        W13286  42.868  37.982   2.313
48126W        W13287  10.799  42.989  13.357
48127W        W13288  20.481  23.032   0.692
48128W        W13289   5.208  24.507  13.450
48129W        W13290   4.828  26.135  13.928
48130W        W13291  26.779  24.638   0.080
48131W        W13292  21.689   6.751   0.987
48132W        W13293  19.712  32.038  13.872
48133W        W13294  22.060   5.914   3.663
48134W        W13295  40.950  40.722  11.166
48135W        W13296  39.017  44.113  11.580
48136W        W13297   6.665  38.599   1.924
48137W        W13298  30.860   5.391  13.931
48138W        W13299  36.324  25.791   0.786
48139W        W13300   0.690   3.833   2.235
48140W        W13301  39.072  13.065  10.639
48141W        W13302  16.278   1.354   3.659
48142W        W13303  17.302  20.649  12.003
48143W        W13304  19.859  31.948  10.863
48144W        W13305  16.688   2.736  14.747
48145W        W13306  41.863  33.427   3.106
48146W        W13307  21.714  33.999   0.671
48147W        W13308   8.530   8.852   4.666
48148W        W13309  35.797   3.753  12.455
48149W        W13310  23.953  27.134   2.284
48150W        W13311   5.406  43.316  11.545
48151W        W13312  21.479   7.250  12.479
48152W        W13313   3.888  10.892  11.167
48153W        W13314   0.043  31.422   1.380
48154W        W13315  27.649  31.578  12.630
48155W        W13316  16.792   3.121   2.812
48156W        W13317  34.079  30.079   5.022
48157W        W13318  12.086   8.633   2.645
48158W        W13319   5.251   7.887  11.611
48159W        W13320  11.707  19.379  10.864
48160W        W13321  13.175  11.787   3.224
48161W        W13322  15.703  29.932  13.757
48162W        W13323  42.238  30.951  13.119
48163W        W13324  41.970  44.067   0.337
48164W        W13325   8.429  42.959  10.682
48165W        W13326   9.730  28.623  11.566
48166W        W13327  38.165   2.268  11.493
48167W        W13328  38.479  25.008  14.863
48168W        W13329  17.354   3.859  10.802
48169W        W13330   6.723  17.639  13.497
48170W        W13331  40.415  22.982   1.241
48171W        W13332  12.858   7.438   0.670
48172W        W13333  33.995  19.716  11.556
48173W        W13334  20.969   9.821  10.434
48174W        W13335  41.546  11.656  11.898
48175W        W13336  42.768  25.195   0.297
48176W        W13337  30.876  40.832   9.774
48177W        W13338   1.453  23.749   0.011
48178W        W13339  23.053  21.928  11.936
48179W        W13340  22.140  11.643  13.340
48180W        W13341  20.942  21.666   4.982
48181W        W13342  15.259   7.151  12.882
48182W        W13343  17.073  41.959   1.297
48183W        W13344  41.372  18.741   3.658
48184W        W13345  32.378  32.605  12.067
48185W        W13346  15.269  15.861   3.806
48186W        W13347  23.787   8.286  13.688
48187W        W13348  33.113  38.892   0.505
48188W        W13349  12.645  26.594  12.875
48189W        W13350  39.283  21.639  11.664
48190W        W13351   1.763   7.702   0.954
48191W        W13352   7.842  24.538   2.825
48192W        W13353   2.450  25.960  14.014
48193W        W13354  20.549  38.292  12.439
48194W        W13355  32.044  25.621  13.327
48195W        W13356  26.409  25.750   3.863
48196W        W13357   5.886  38.891   4.282
48197W        W13358   4.504  39.358  14.536
48198W        W13359  29.124  30.480   4.570
48199W        W13360   0.785  39.083   2.394
48200W        W13361  40.989   4.931  14.548
48201W        W13362  11.140  41.833   0.839
48202W        W13363  13.628  34.090   2.262
48203W        W13364  15.822  24.052   0.410
48204W        W13365  39.518  23.022   1.228
48205W        W13366  13.103  19.041   0.241
48206W        W13367  12.207  24.841  12.833
48207W        W13368   6.162  28.064   5.791
48208W        W13369  23.045  44.583   0.335
48209W        W13370  19.182   3.732  13.732
48210W        W13371  12.016  29.946   0.367
48211W        W13372  15.411  28.199   4.177
48212W        W13373  12.095  12.882  12.769
48213W        W13374   1.206  35.448   1.351
48214W        W13375  24.282  29.607   1.370
48215W        W13376  12.635  43.361  14.239
48216W        W13377  26.206   0.909  14.899
48217W        W13378   8.284   1.984  11.125
48218W        W13379  42.054  30.559  11.153
48219W        W13380  15.544  15.232  13.509
48220W        W13381   0.459  43.450  12.104
48221W        W13382   8.326  24.189  14.801
48222W        W13383   5.310   3.839   2.837
48223W        W13384  37.048  36.642   2.476
48224W        W13385  15.378  41.039  14.379
48225W        W13386  30.683  12.981  13.921
48226W        W13387  21.294  25.551   4.162
48227W        W13388  39.408  36.598   3.139
48228W        W13389  23.436  31.664  11.126
48229W        W13390   1.448  27.792   3.651
48230W        W13391   8.442  12.248   4.530
48231W        W13392   2.416  20.360   4.020
48232W        W13393  17.515   3.355   4.126
48233W        W13394  36.251  12.123   3.152
48234W        W13395  23.016   6.222   3.710
48235W        W13396   9.374  40.340   0.713
48236W        W13397  18.500  23.218   3.640
48237W        W13398  15.137  26.945   0.978
48238W        W13399  14.913  26.663  12.180
48239W        W13400  10.431  31.954   1.874
48240W        W13401  20.445  35.655   0.394
48241W        W13402  30.949   6.774  14.101
48242W        W13403  33.942   0.416   0.219
48243W        W13404  18.101  33.481   0.764
48244W        W13405  14.895  18.298  12.437
48245W        W13406  15.866  38.212   5.278
48246W        W13407  34.438  15.154   4.188
48247W        W13408   3.257  36.985  13.367
48248W        W13409  43.240   4.223  12.538
48249W        W13410  33.913  22.473   2.723
48250W        W13411  14.483  23.634   4.823
48251W        W13412  17.767  29.529  14.378
48252W        W13413  34.380  43.825  12.822
48253W        W13414  41.346  35.071   3.335
48254W        W13415  28.246  37.837  12.490
48255W        W13416  22.343  39.062   4.042
48256W        W13417  16.770   5.645   2.822
48257W        W13418  39.553   4.381   4.841
48258W        W13419  15.300   6.084  11.181
48259W        W13420  33.076  33.025   4.963
48260W        W13421  17.239  41.045  13.618
48261W        W13422  26.249   7.765  11.498
48262W        W13423  19.209  12.753  10.948
48263W        W13424  30.505  33.092   2.844
48264W        W13425  12.343   2.497  11.229
48265W        W13426  12.254  41.754   1.377
48266W        W13427  38.427   7.697   0.771
48267W        W13428   6.898  18.491   0.186
48268W        W13429  21.993  24.997  14.383
48269W        W13430  17.571   3.343  13.560
48270W        W13431   6.642  24.126   3.812
48271W        W13432  29.502  39.411  13.953
48272W        W13433  13.370  14.122   5.036
48273W        W13434   1.365   3.237   0.265
48274W        W13435  29.248  26.479   1.762
48275W        W13436  41.859  16.755   4.931
48276W        W13437   1.132   2.259   3.258
48277W        W13438  29.720  27.594  14.007
48278W        W13439  17.285  10.902  13.357
48279W        W13440  24.089  43.341   4.642
48280W        W13441  18.736  42.603   1.387
48281W        W13442   3.889  27.045  13.352
48282W        W13443  15.754  32.541  12.965
48283W        W13444   2.012  13.580  12.459
48284W        W13445  27.440  16.263   2.308
48285W        W13446  44.481  11.007   1.450
48286W        W13447  11.326  32.460   0.951
48287W        W13448  32.872  26.063   3.510
48288W        W13449   2.504  29.534  12.839
48289W        W13450  26.928  14.254  13.376
48290W        W13451  27.465  25.189  13.477
48291W        W13452   8.279  20.541  13.533
48292W        W13453   4.345  43.775   2.196
48293W        W13454  10.354  17.612  13.284
48294W        W13455  43.879   8.792  11.309
48295W        W13456   6.502  28.341   0.921
48296W        W13457  10.696  32.128   3.128
48297W        W13458  25.289  42.498   0.232
48298W        W13459  13.597  12.309  13.853
48299W        W13460   1.720  26.675   4.952
48300W        W13461  40.303  27.493   3.642
48301W        W13462  20.543  41.859   4.366
48302W        W13463  15.322  16.557   2.642
48303W        W13464  15.967  34.349   4.184
48304W        W13465  20.201   7.663   0.838
48305W        W13466  23.566  16.217   4.124
48306W        W13467   8.471  27.123   5.007
48307W        W13468   4.113  17.616   2.258
48308W        W13469  19.419  25.570  10.604
48309W        W13470   1.910  16.765  14.028
48310W        W13471   4.226  39.287   1.935
48311W        W13472   1.894  11.052   3.737
48312W        W13473  40.118  19.632   2.342
48313W        W13474  14.680  17.286   2.750
48314W        W13475  33.024   0.373   1.716
48315W        W13476  33.303   5.664  12.901
48316W        W13477   1.878  26.307   1.320
48317W        W13478  15.640  42.989  11.871
48318W        W13479   6.955   6.756  14.671
48319W        W13480   3.949  36.640  10.996
48320W        W13481   4.979   8.189  12.348
48321W        W13482  31.424   0.495  10.955
48322W        W13483   0.913  38.139  11.892
48323W        W13484  23.568  16.810   3.800
48324W        W13485  21.037  10.056   1.252
48325W        W13486  29.571   8.152  14.370
48326W        W13487  17.300  43.436   2.794
48327W        W13488  19.324   9.291   3.252
48328W        W13489  44.109  30.224   1.748
48329W        W13490  35.112  25.405  11.116
48330W        W13491  26.543  44.927   4.046
48331W        W13492  41.762  39.008  11.369
48332W        W13493   1.466   6.319   1.961
48333W        W13494  35.357  25.922   1.744
48334W        W13495  15.757   7.522   2.350
48335W        W13496  22.224   7.602  11.065
48336W        W13497  22.547  39.104   4.591
48337W        W13498  23.571  30.440   2.325
48338W        W13499  24.024  19.586  14.443
48339W        W13500   1.750  43.075   0.374
48340W        W13501  17.980  27.497  10.735
48341W        W13502  11.429  38.731  14.300
48342W        W13503  28.630   7.608  11.585
48343W        W13504  38.025  20.500  12.537
48344W        W13505  33.482   6.466   5.160
48345W        W13506   5.715  41.387  10.414
48346W        W13507  42.865  18.910   0.536
48347W        W13508  30.660  23.452  13.088
48348W        W13509   9.875  12.871   1.773
48349W        W13510  18.030  38.947  12.906
48350W        W13511   9.100  12.219  11.486
48351W        W13512  36.353  37.888   0.810
48352W        W13513  40.660  19.634  14.530
48353W        W13514   8.275  19.651  12.522
48354W        W13515  32.374  42.058   1.274
48355W        W13516  21.446  39.700   9.687
48356W        W13517  19.879  12.306   4.887
48357W        W13518  13.784  43.667  13.823
48358W        W13519  26.540  17.265   2.702
48359W        W13520  18.561  18.216   2.964
48360W        W13521   5.800  34.580  10.868
48361W        W13522  19.282  34.996  12.010
48362W        W13523  23.113  39.143   1.764
48363W        W13524  18.678   0.955   0.277
48364W        W13525  36.923  12.349   1.808
48365W        W13526  42.864   1.890  14.408
48366W        W13527  27.142  37.242   0.295
48367W        W13528   2.787  43.454  14.650
48368W        W13529  44.968  10.705   2.647
48369W        W13530  31.227  25.576  10.174
48370W        W13531   8.686  23.102   2.938
48371W        W13532  42.548   6.149  13.069
48372W        W13533  20.420   0.900  11.501
48373W        W13534  40.905  28.537  13.159
48374W        W13535  14.624  11.565  13.046
48375W        W13536   5.083   0.544  11.054
48376W        W13537  41.313  42.734   4.831
48377W        W13538  31.010  32.856  11.114
48378W        W13539  37.483  27.636  12.830
48379W        W13540  43.010  27.638   4.695
48380W        W13541  27.484   3.806  14.294
48381W        W13542   3.430   6.391   2.619
48382W        W13543   1.383  26.219   0.436
48383W        W13544  17.568  28.817   2.749
48384W        W13545  13.854  19.816  14.736
48385W        W13546   0.265  30.329  14.788
48386W        W13547   4.853  40.749   4.947
48387W        W13548  15.711  41.983  13.761
48388W        W13549  27.414  39.342  14.712
48389W        W13550  15.179   1.529   1.381
48390W        W13551   8.771  22.710   2.363
48391W        W13552  17.384   9.830  11.983
48392W        W13553  40.387  14.588  11.209
48393W        W13554   1.359   4.224  12.065
48394W        W13555   7.437  40.764   0.068
48395W        W13556  10.709   7.687  14.378
48396W        W13557   8.915  24.429  13.901
48397W        W13558  42.385  26.984  11.008
48398W        W13559  36.827  39.516  11.168
48399W        W13560   1.347   5.889  13.294
48400W        W13561   1.460  14.231  13.303
48401W        W13562  22.202  34.085   0.466
48402W        W13563  30.388  38.503   3.624
48403W        W13564   3.415   7.204   4.053
48404W        W13565   4.602  33.111  12.001
48405W        W13566  16.610  29.699  14.806
48406W        W13567  35.852   1.969   0.323
48407W        W13568  13.912  15.212  11.911
48408W        W13569   3.503  27.647  12.059
48409W        W13570  39.926  33.086  11.610
48410W        W13571  44.322  26.975  11.053
48411W        W13572  16.760  24.192  10.490
48412W        W13573  31.522  42.768  14.335
48413W        W13574  21.212  20.190  14.911
48414W        W13575  38.732  29.416   4.948
48415W        W13576  11.957  27.629  10.155
48416W        W13577   5.182  30.195   1.888
48417W        W13578  17.032   2.725  12.514
48418W        W13579  35.442  25.466   0.765
48419W        W13580   4.144   3.955   4.625
48420W        W13581  20.658  10.061  13.969
48421W        W13582  20.138  24.213  11.059
48422W        W13583  35.276  32.686  12.414
48423W        W13584  17.578  37.933  12.395
48424W        W13585  19.584  11.707   2.150
48425W        W13586  38.582  43.517   0.316
48426W        W13587  43.375   0.399  14.531
48427W        W13588   3.092  17.758  11.406
48428W        W13589   7.932  40.139   0.323
48429W        W13590  12.056  35.032  13.812
48430W        W13591  10.442  28.704   0.838
48431W        W13592  11.413  10.827   4.365
48432W        W13593   8.144  35.933  13.945
48433W        W13594  13.850  38.453   1.778
48434W        W13595  26.210  23.968   1.196
48435W        W13596  12.697   6.268  14.530
48436W        W13597   9.362  36.010  14.204
48437W        W13598  10.722  34.099   0.968
48438W        W13599  22.706  12.116  12.110
48439W        W13600  23.374   8.926   3.650
48440W        W13601  41.843   9.935   1.142
48441W        W13602  11.327  21.195   9.786
48442W        W13603  35.534  23.214   4.865
48443W        W13604  38.542  13.176  11.500
48444W        W13605  24.495  32.265  12.522
48445W        W13606  13.671  25.197  10.458
48446W        W13607  42.112  32.379   1.141
48447W        W13608  27.082  29.957  10.701
48448W        W13609  39.924  22.324  13.110
48449W        W13610  27.913  20.754   3.177
48450W        W13611  29.021  10.213  13.070
48451W        W13612  17.524  27.681  10.535
48452W        W13613  36.077  10.348   1.469
48453W        W13614  24.161   0.653  12.684
48454W        W13615   3.412  22.650   4.132
48455W        W13616  27.548  37.757   2.352
48456W        W13617   6.910  32.689  11.585
48457W        W13618  43.899  35.160  11.958
48458W        W13619  29.638  25.383   4.081
48459W        W13620  16.189  35.038  13.499
48460W        W13621  13.861  42.399  12.374
48461W        W13622   3.106  43.506   0.462
48462W        W13623  20.927  20.626   4.077
48463W        W13624   7.338  43.388  14.834
48464W        W13625   8.355  17.498   0.541
48465W        W13626  36.372   7.323   0.334
48466W        W13627  27.132  27.754   2.296
48467W        W13628  33.025  39.843  12.404
48468W        W13629  29.888  33.930   1.464
48469W        W13630  15.081  24.951   1.378
48470W        W13631   1.979   2.543  13.447
48471W        W13632  20.450   3.158  12.540
48472W        W13633  36.305  22.540   4.561
48473W        W13634   0.015  11.270  14.884
48474W        W13635  12.238  33.601  12.469
48475W        W13636  44.431  24.042  12.519
48476W        W13637   2.531   7.312   3.177
48477W        W13638  27.241  17.182  14.777
48478W        W13639  10.573   0.176  11.697
48479W        W13640  43.940  24.191   3.779
48480W        W13641  37.510  34.598   3.889
48481W        W13642  37.442  31.491   0.267
48482W        W13643  43.838  43.893   4.420
48483W        W13644  12.575  36.155  12.068
48484W        W13645  19.158  17.930  14.106
48485W        W13646  33.488  19.874  12.143
48486W        W13647  40.804  10.461   3.735
48487W        W13648  37.432  11.610  13.291
48488W        W13649  35.132  24.248  12.709
48489W        W13650  14.083  19.419   2.866
48490W        W13651  36.181   6.758  13.468
48491W        W13652  20.569   4.389   3.580
48492W        W13653  18.866   7.819   4.527
48493W        W13654  11.212   6.869   0.341
48494W        W13655  19.666  27.638   1.291
48495W        W13656  37.715  44.683   0.837
48496W        W13657  41.907   8.267   4.033
48497W        W13658  41.285  22.357  13.983
48498W        W13659  35.040   4.447   3.586
48499W        W13660  10.933  40.607  11.055
48500W        W13661  32.564  41.780  14.880
48501W        W13662   3.428  29.020   1.705
48502W        W13663  40.134  33.701  14.320
48503W        W13664  14.083   0.721   0.692
48504W        W13665  28.984  38.948  14.580
48505W        W13666  35.062  22.774   2.282
48506W        W13667   6.692   3.516   4.132
48507W        W13668  18.718  34.035  10.998
48508W        W13669  19.561  31.514   2.883
48509W        W13670  38.774   4.465  11.512
48510W        W13671  39.808  13.523   4.063
48511W        W13672  37.129  15.370  13.353
48512W        W13673  24.294  16.904   1.971
48513W        W13674  32.947  11.275   1.687
48514W        W13675   2.270  18.337   0.993
48515W        W13676  28.479  40.333  12.877
48516W        W13677  33.051  43.710  12.647
48517W        W13678   2.882   8.440  11.684
48518W        W13679  37.536  32.581   2.684
48519W        W13680  44.855  19.469   4.100
48520W        W13681  29.474  42.549   3.874
48521W        W13682  44.013  27.319  13.873
48522W        W13683   1.237  27.003   1.228
48523W        W13684  36.344  26.565   1.415
48524W        W13685  25.614  34.995  12.432
48525W        W13686  26.521   6.869  10.450
48526W        W13687  10.675  28.904   9.999
48527W        W13688  31.510  11.454  13.494
48528W        W13689  21.664   4.061   0.683
48529W        W13690  30.464  32.148   2.730
48530W        W13691  27.159   4.134   4.278
48531W        W13692   3.454  19.650   1.252
48532W        W13693  13.069  40.149  11.525
48533W        W13694  17.100  33.135  14.748
48534W        W13695  21.223  44.811   0.943
48535W        W13696   6.770   5.881   0.955
48536W        W13697   8.836  37.279   0.823
48537W        W13698  33.046   9.782   4.911
48538W        W13699   2.388  10.725   5.163
48539W        W13700  35.153  16.297   2.672
48540W        W13701  28.549  18.048  11.677
48541W        W13702   8.545  34.130   3.155
48542W        W13703  29.862   8.349  13.790
48543W        W13704  43.895  15.570   0.236
48544W        W13705  21.225  42.268   3.722
48545W        W13706  30.945  26.437   3.710
48546W        W13707  40.335  30.316   4.474
48547W        W13708  34.910  34.151   2.387
48548W        W13709   5.747   2.001  13.722
48549W        W13710   2.982  38.517  13.933
48550W        W13711  25.149   3.809   0.221
48551W        W13712  22.904  30.032  10.393
48552W        W13713  20.746  31.092   3.815
48553W        W13714  21.269  11.186   0.002
48554W        W13715  12.711  42.804  11.042
48555W        W13716  24.216  26.380  14.046
48556W        W13717   0.677   0.842   3.468
48557W        W13718  13.188  35.394  13.153
48558W        W13719   7.129  41.681  13.358
48559W        W13720  20.337   1.797  12.045
48560W        W13721  25.257   8.505  11.212
48561W        W13722  26.548   2.894   1.394
48562W        W13723   4.943   3.120   5.049
48563W        W13724  42.534  41.500   0.829
48564W        W13725   5.284   8.351  12.842
48565W        W13726  41.546   1.284   1.447
48566W        W13727  39.856  10.406   1.891
48567W        W13728  35.242  30.470   2.724
48568W        W13729  30.160   2.212   1.772
48569W        W13730  10.339  11.685   4.595
48570W        W13731  37.333   7.952   0.363
48571W        W13732  24.768  23.840  10.752
48572W        W13733   7.894  41.108  10.026
48573W        W13734  25.811  35.315   4.746
48574W        W13735  16.277  30.914   1.864
48575W        W13736   4.682  42.519   3.261
48576W        W13737  21.191  21.829  12.774
48577W        W13738   3.250  20.995   0.958
48578W        W13739  43.300  40.062  14.448
48579W        W13740  25.002  37.768  13.666
48580W        W13741  16.443  16.096   1.948
48581W        W13742  44.290  35.009  14.469
48582W        W13743   3.711   8.313  13.388
48583W        W13744   1.389  26.937   2.151
48584W        W13745   4.672  17.298   3.721
48585W        W13746  38.595   9.492  12.883
48586W        W13747  42.797  43.702  14.885
48587W        W13748  20.767  26.010   3.166
48588W        W13749  15.882  19.651   0.417
48589W        W13750   5.336  35.067   3.356
48590W        W13751  44.589   7.227   0.277
48591W        W13752  21.829  33.799  10.474
48592W        W13753   9.642  27.653   1.382
48593W        W13754  22.667  15.769  11.443
48594W        W13755  39.725  44.701   3.210
48595W        W13756   0.743  36.841   1.280
48596W        W13757  43.964  40.487  10.761
48597W        W13758   0.158  42.363  10.381
48598W        W13759  12.713  32.471   4.156
48599W        W13760   6.457   5.540   3.019
48600W        W13761  20.443  21.009  12.913
48601W        W13762  31.634  17.569   1.570
48602W        W13763  16.189   6.796   2.459
48603W        W13764  36.098  18.620  10.779
48604W        W13765   0.794   9.350  10.652
48605W        W13766  11.391  24.601   2.887
48606W        W13767  30.692  36.208  14.951
48607W        W13768   8.396  29.522  13.309
48608W        W13769  26.494  34.477   2.567
48609W        W13770   6.611  26.100  13.108
48610W        W13771  28.549  11.114   4.010
48611W        W13772   5.205  13.755   0.236
48612W        W13773  42.017  22.750  10.721
48613W        W13774  34.584   4.188  13.013
48614W        W13775  42.801   6.860  12.083
48615W        W13776   4.794   7.234  13.835
48616W        W13777  36.837  25.937  13.923
48617W        W13778  34.278  28.137   3.833
48618W        W13779  36.178  29.810  12.548
48619W        W13780  23.813  44.428  11.368
48620W        W13781  38.773  20.285   4.465
48621W        W13782  27.042   9.835  11.288
48622W        W13783  11.510  22.217  10.257
48623W        W13784  19.190  30.538  12.608
48624W        W13785   0.522  41.851   1.927
48625W        W13786  18.814  33.053  12.948
48626W        W13787  11.737   4.797   2.700
48627W        W13788  12.885  17.790  11.094
48628W        W13789  21.014  39.880  10.096
48629W        W13790   2.444  13.847  14.735
48630W        W13791   7.244  12.037  10.615
48631W        W13792  30.574  31.891  13.979
48632W        W13793  39.542   7.116  14.529
48633W        W13794  16.056  35.247  12.534
48634W        W13795  26.076   1.819  10.584
48635W        W13796  19.278  23.551   2.819
48636W        W13797  10.162  19.027  14.415
48637W        W13798  13.294  44.503   2.398
48638W        W13799  40.532  29.393   3.585
48639W        W13800  17.303  14.234   2.385
48640W        W13801  10.097  24.264   3.672
48641W        W13802  32.018  18.358   5.074
48642W        W13803  13.213  28.687   0.466
48643W        W13804  37.533  20.904  13.478
48644W        W13805  16.216  38.089  13.459
48645W        W13806  23.702  24.341  12.987
48646W        W13807   8.533  28.814   2.640
48647W        W13808  14.374  24.572   0.216
48648W        W13809  41.434  22.652   0.366
48649W        W13810  33.105  44.196   2.348
48650W        W13811  32.830  20.600  13.629
48651W        W13812  37.331  26.043  11.965
48652W        W13813   3.146  42.362   1.128
48653W        W13814  27.309  12.607  11.700
48654W        W13815   4.712  38.032   2.297
48655W        W13816  16.040  22.533  11.840
48656W        W13817  38.014  11.415  11.231
48657W        W13818   7.085   8.399  12.531
48658W        W13819  34.951  27.071  13.299
48659W        W13820   8.989  27.895   4.197
48660W        W13821  35.018   7.668  11.224
48661W        W13822   8.154  29.091   3.141
48662W        W13823  30.348  34.959   1.390
48663W        W13824  41.347  34.011  11.189
48664W        W13825   5.246  22.920   2.407
48665W        W13826  21.733  28.390   0.418
48666W        W13827  22.610  10.765  10.974
48667W        W13828  44.962  15.367  11.193
48668W        W13829  15.711  27.656   0.445
48669W        W13830  36.865   1.365  12.185
48670W        W13831  44.172  13.747   0.319
48671W        W13832  17.292   1.262   3.643
48672W        W13833  15.795  24.071  12.329
48673W        W13834  41.278  19.619  14.752
48674W        W13835  23.693  30.968  12.111
48675W        W13836   1.701  13.819  13.982
48676W        W13837   2.427  30.331   0.992
48677W        W13838  16.847  31.835  10.545
48678W        W13839  11.683  29.212   2.390
48679W        W13840  39.908  26.436  10.588
48680W        W13841  16.270   2.862   1.394
48681W        W13842  12.935  20.175  13.143
48682W        W13843  40.513  28.619   4.791
48683W        W13844  43.517  29.645  11.429
48684W        W13845  37.847  21.641  14.396
48685W        W13846  38.926  41.664   4.857
48686W        W13847  11.876  27.128  11.337
48687W        W13848  11.884  23.258  11.137
48688W        W13849  10.442  27.012  11.039
48689W        W13850  42.840   3.927   1.307
48690W        W13851  10.812   3.732  12.474
48691W        W13852  15.431   4.114  12.031
48692W        W13853   6.144   3.233   0.880
48693W        W13854  18.529  17.673  14.241
48694W        W13855  13.061  42.684  14.004
48695W        W13856  25.252  21.578   4.968
48696W        W13857  43.992  17.897   1.452
48697W        W13858  17.758  21.200  14.006
48698W        W13859  35.334   2.011   0.828
48699W        W13860   8.852  29.397   4.185
48700W        W13861   1.256  31.592   3.691
48701W        W13862  17.326  38.042  11.056
48702W        W13863  36.855  27.727  13.924
48703W        W13864  14.728  22.463   3.381
48704W        W13865  26.753   5.668   4.040
48705W        W13866  25.702  29.616   4.149
48706W        W13867  38.400   8.563   1.057
48707W        W13868   2.017   2.072   4.462
48708W        W13869  17.379  23.390  11.208
48709W        W13870  28.740  26.954   5.725
48710W        W13871  10.029   6.517   2.412
48711W        W13872  32.078   1.944   0.271
48712W        W13873  24.726  26.004   2.171
48713W        W13874  23.488  17.581  14.246
48714W        W13875  28.929   2.783   4.053
48715W        W13876  23.173  15.314  13.453
48716W        W13877   3.399   6.899  11.241
48717W        W13878  38.483  12.098  12.717
48718W        W13879   8.128  26.523   2.449
48719W        W13880   3.946  21.499   2.249
48720W        W13881  25.216  19.027  12.790
48721W        W13882  27.002  37.830   3.179
48722W        W13883  35.085  42.863  12.907
48723W        W13884  23.425  16.813  13.192
48724W        W13885  43.857  30.992   2.683
48725W        W13886  32.516  26.967  11.243
48726W        W13887  30.477  38.372   2.189
48727W        W13888  41.224  36.925   1.201
48728W        W13889  11.862  43.839  14.520
48729W        W13890  44.843  22.509  10.821
48730W        W13891  15.523  37.861  14.447
48731W        W13892   8.744  25.452   0.873
48732W        W13893  17.900  44.416  10.603
48733W        W13894  34.780  30.910   1.283
48734W        W13895  34.134  11.259  14.395
48735W        W13896  16.028  24.232  11.462
48736W        W13897  12.086  18.701  14.511
48737W        W13898  20.780  18.632  13.452
48738W        W13899  37.371  41.892  14.263
48739W        W13900  22.149  30.192   2.502
48740W        W13901  20.306  26.538  14.303
48741W        W13902  11.868  10.203   0.262
48742W        W13903   1.946  42.030   1.922
48743W        W13904  26.127   2.399  14.863
48744W        W13905  36.332  14.080  14.833
48745W        W13906  30.405   4.274   1.204
48746W        W13907  11.795   6.636   1.036
48747W        W13908  20.252   3.758   3.605
48748W        W13909  24.425   4.881   1.606
48749W        W13910  17.254  15.710   9.946
48750W        W13911  28.550  24.428  12.927
48751W        W13912   4.298  33.655   1.884
48752W        W13913  14.872   6.362   0.801
48753W        W13914  19.288   9.355  11.841
48754W        W13915  18.418   2.950   3.182
48755W        W13916  42.268  10.319  14.725
48756W        W13917  28.406  40.955   4.006
48757W        W13918   5.853  31.517   1.209
48758W        W13919  20.261   2.197   2.434
48759W        W13920  28.165  11.858  14.918
48760W        W13921  43.378  20.173   2.178
48761W        W13922  11.824  42.981   0.901
48762W        W13923   1.913  33.818   3.514
48763W        W13924  42.844  42.680   4.123
48764W        W13925  43.321  31.533  14.758
48765W        W13926  35.551   4.389  12.857
48766W        W13927  41.729   0.520   1.786
48767W        W13928  26.348  12.662   2.323
48768W        W13929  39.467  22.335  14.905
48769W        W13930   5.714   3.366   4.384
48770W        W13931  15.156   7.111  11.103
48771W        W13932   6.812  25.916   1.805
48772W        W13933  25.108  34.583  14.006
48773W        W13934  24.696  34.912  11.905
48774W        W13935  17.714  40.733   3.251
48775W        W13936  24.774  18.888   2.869
48776W        W13937  28.330  27.139   1.810
48777W        W13938   9.666   4.980  11.917
48778W        W13939  26.193   4.234   4.189
48779W        W13940  29.189   5.327  11.875
48780W        W13941  33.520  13.891   1.335
48781W        W13942  14.896  18.577  10.186
48782W        W13943   8.276  22.968   1.303
48783W        W13944  11.257   1.663   1.815
48784W        W13945  28.489  29.750  11.641
48785W        W13946   8.718   8.700  10.978
48786W        W13947  30.422  25.296  13.927
48787W        W13948  39.823   0.399   0.706
48788W        W13949  38.043  14.466   1.217
48789W        W13950  21.715  37.135  14.428
48790W        W13951  27.966  35.203   3.663
48791W        W13952   8.235  43.274  14.893
48792W        W13953  13.711  14.244  10.640
48793W        W13954   2.685  30.609   1.376
48794W        W13955  40.283   3.700  12.692
48795W        W13956   9.390   0.228  13.348
48796W        W13957  41.935  15.793  11.273
48797W        W13958   1.884  12.200  10.698
48798W        W13959  20.150  12.669   4.642
48799W        W13960  38.903  44.156   4.858
48800W        W13961  17.815  31.944  13.949
48801W        W13962  30.474  21.559   2.722
48802W        W13963  17.027  40.084  12.476
48803W        W13964  18.626  15.566  13.114
48804W        W13965  39.153  24.580  11.606
48805W        W13966  39.053  29.230  12.453
48806W        W13967  17.370  19.568   3.345
48807W        W13968  12.881   8.648   0.123
48808W        W13969   7.470  15.561  13.417
48809W        W13970   7.074  11.612   1.646
48810W        W13971  28.705  41.125  12.588
48811W        W13972  25.636  15.791  12.742
48812W        W13973  27.185  29.910   3.243
48813W        W13974  32.895   5.959  11.981
48814W        W13975  32.139  10.880   5.125
48815W        W13976  32.113   0.219  13.342
48816W        W13977  27.494  22.140   3.453
48817W        W13978  21.295  18.663  12.457
48818W        W13979   8.292  10.800   1.330
48819W        W13980  18.172  11.419  12.620
48820W        W13981  35.462  10.336   3.612
48821W        W13982  43.240  42.864  13.407
48822W        W13983  11.910  41.822   2.233
48823W        W13984  17.713  38.103  13.580
48824W        W13985  14.415  26.493   5.075
48825W        W13986  36.624  10.180   4.086
48826W        W13987   1.647  41.486   4.661
48827W        W13988  38.824  16.759   2.240
48828W        W13989  41.306  16.104  14.399
48829W        W13990  33.913  40.457   5.337
48830W        W13991  20.089  22.994  12.497
48831W        W13992  43.775  35.571  11.692
48832W        W13993  10.951  27.479   3.288
48833W        W13994   8.250  33.544   3.914
48834W        W13995  37.628  42.476   0.395
48835W        W13996   7.201  40.874  12.472
48836W        W13997  21.549   2.310   5.102
48837W        W13998  40.971  11.682   2.184
48838W        W13999  34.810  12.629   3.832
48839W        W14000  21.792  30.634   1.813
48840W        W14001  41.339  19.279  11.612
48841W        W14002  35.000  13.130  11.189
48842W        W14003  24.437  43.392   1.306
48843W        W14004   8.834   5.118   0.917
48844W        W14005   7.219  36.827  13.973
48845W        W14006  19.812  39.317   1.847
48846W        W14007  13.097  26.353  10.761
48847W        W14008  17.211  38.779   3.697
48848W        W14009   1.964  38.325  13.891
48849W        W14010  34.715  18.592  11.721
48850W        W14011  44.742   5.292   3.133
48851W        W14012   7.127  12.505  10.767
48852W        W14013  42.321   5.435  14.302
48853W        W14014  31.475  29.839   1.742
48854W        W14015  22.595  41.017  14.394
48855W        W14016   7.363  43.383  12.997
48856W        W14017  42.378  32.899   3.695
48857W        W14018  13.386   8.656   0.425
48858W        W14019   1.286  29.415   2.189
48859W        W14020  25.589  39.704  10.692
48860W        W14021  42.411  18.301   1.833
48861W        W14022   1.649  20.030   3.757
48862W        W14023  33.189   7.437  11.978
48863W        W14024  12.690  37.206   1.254
48864W        W14025  18.307  34.617  13.897
48865W        W14026   5.068  31.343  12.535
48866W        W14027  15.232  12.881  12.651
48867W        W14028   7.197  12.378  12.900
48868W        W14029  44.021  38.334  12.329
48869W        W14030  19.103  10.861   1.357
48870W        W14031  29.156  11.679   0.880
48871W        W14032  36.341  20.251  12.390
48872W        W14033   3.543  15.266  11.418
48873W        W14034  25.414  15.271   1.967
48874W        W14035  23.616   1.094  11.581
48875W        W14036  37.053  32.076  13.910
48876W        W14037  25.442  33.206   3.171
48877W        W14038  29.183  28.032  13.361
48878W        W14039   0.515  36.485   0.326
48879W        W14040  14.525  27.172  12.088
48880W        W14041  19.911  14.917  14.779
48881W        W14042  15.960  28.232  14.867
48882W        W14043  32.107  19.087  12.643
48883W        W14044   2.756  24.058   2.733
48884W        W14045   2.134  20.645  12.138
48885W        W14046  20.595   6.240  14.479
48886W        W14047   1.351  10.224  13.861
48887W        W14048  10.475  17.132  12.481
48888W        W14049  27.219  42.294  13.990
48889W        W14050  33.008  41.867  13.879
48890W        W14051   4.366  39.503  12.552
48891W        W14052   8.200  29.666  10.463
48892W        W14053   9.061  30.366   4.133
48893W        W14054   8.947   9.806   5.013
48894W        W14055  23.134  16.668  10.702
48895W        W14056   7.133  37.463  13.993
48896W        W14057  44.446  36.018   2.719
48897W        W14058  35.335  19.140  14.896
48898W        W14059  34.561  30.705  10.720
48899W        W14060  25.483  41.362  14.277
48900W        W14061  16.080  21.590  12.082
48901W        W14062   5.327  32.589  13.107
48902W        W14063   3.228  26.198   9.884
48903W        W14064  20.741  19.706  12.576
48904W        W14065  34.334  11.660   0.052
48905W        W14066  44.488   2.919  14.235
48906W        W14067  30.883  35.333   3.681
48907W        W14068   5.139  23.084  11.512
48908W        W14069  23.597  32.886  10.669
48909W        W14070  26.368  24.779   0.444
48910W        W14071  35.188  26.622   2.131
48911W        W14072   7.588   3.348   4.521
48912W        W14073  16.097  40.914  12.561
48913W        W14074  21.469  43.783  14.843
48914W        W14075  15.399  22.107  13.760
48915W        W14076   6.721  40.018  14.692
48916W        W14077  38.711   2.866  11.978
48917W        W14078  29.230  37.746   2.363
48918W        W14079  29.934  42.172   2.755
48919W        W14080  10.179   4.353  13.501
48920W        W14081   2.427  15.851  12.616
48921W        W14082  22.841   5.561   2.340
48922W        W14083  44.017  10.252  10.018
48923W        W14084  15.673  43.965  14.815
48924W        W14085  24.960  27.623   0.211
48925W        W14086  28.939  38.928  13.364
48926W        W14087  11.708   8.288  10.652
48927W        W14088  21.082  27.762  14.350
48928W        W14089   0.720  42.474   4.551
48929W        W14090  18.154  41.256  13.389
48930W        W14091  39.111  43.159   1.729
48931W        W14092  36.461  28.115   1.959
48932W        W14093  33.073  23.078   0.403
48933W        W14094  29.935  23.457  12.338
48934W        W14095  32.395  34.515   1.426
48935W        W14096  19.792  17.235  13.486
48936W        W14097  37.015  20.262   4.620
48937W        W14098   8.388  10.407  12.532
48938W        W14099  12.328  10.830   1.674
48939W        W14100  18.513  27.404   1.704
48940W        W14101   7.257  23.956   4.292
48941W        W14102   7.939  35.375   2.691
48942W        W14103  18.405   7.917   0.518
48943W        W14104  30.577  36.690  14.824
48944W        W14105  31.364   2.960  13.040
48945W        W14106  43.647  42.676   3.583
48946W        W14107  42.732  35.330   0.642
48947W        W14108  28.580  29.543   3.311
48948W        W14109  40.305  20.452  12.510
48949W        W14110  26.989  38.549  11.831
48950W        W14111  21.068  26.811   4.194
48951W        W14112   6.445  38.812  14.476
48952W        W14113  24.209  24.184   2.207
48953W        W14114  32.473  37.718   4.775
48954W        W14115  26.730   4.673   2.735
48955W        W14116  24.045   3.017   4.124
48956W        W14117  19.463   8.689   0.321
48957W        W14118   7.749  32.317  14.029
48958W        W14119  19.501  26.677  11.562
48959W        W14120  37.963  30.688  11.248
48960W        W14121  30.018  42.885  11.533
48961W        W14122  24.087  21.746  12.098
48962W        W14123   4.585  22.491   1.420
48963W        W14124   3.767   6.764   0.270
48964W        W14125  13.720  13.871  12.137
48965W        W14126  26.006  27.758  13.062
48966W        W14127   4.829   5.819   2.354
48967W        W14128  27.426  42.789  11.108
48968W        W14129  19.623  17.492   0.487
48969W        W14130  16.138  12.961  11.695
48970W        W14131  27.202  41.426  14.703
48971W        W14132  28.385   8.792   1.945
48972W        W14133  10.075  27.357   5.089
48973W        W14134  31.968   5.350   4.566
48974W        W14135  31.159  30.618  14.943
48975W        W14136  22.647  11.669   3.099
48976W        W14137  16.135  15.442   3.721
48977W        W14138   0.947  16.649  11.542
48978W        W14139  43.800  22.217   1.585
48979W        W14140   9.613  24.267  12.945
48980W        W14141  34.941   1.454  13.137
48981W        W14142  10.752  27.045  12.856
48982W        W14143   3.928  11.828  11.003
48983W        W14144  19.551  33.888   2.419
48984W        W14145  14.634  28.193  12.966
48985W        W14146   1.315  14.685  13.504
48986W        W14147  33.511  30.637   1.043
48987W        W14148   0.264  39.020  12.911
48988W        W14149  26.651  22.053   2.377
48989W        W14150  37.046  40.880   1.077
48990W        W14151  34.018  24.870  12.021
48991W        W14152  31.688   4.757  13.992
48992W        W14153  40.679  14.128  12.863
48993W        W14154   6.370  17.641   1.465
48994W        W14155   4.199   4.367   2.133
48995W        W14156  16.614  33.188  14.379
48996W        W14157  23.308   1.712  11.938
48997W        W14158  35.507  17.434   2.686
48998W        W14159  20.052  15.359  12.044
48999W        W14160  32.893  38.395  14.129
49000W        W14161  11.544  23.789   0.564
49001W        W14162  17.022  33.500   3.143
49002W        W14163  42.904   4.071  12.114
49003W        W14164  30.479  26.510  13.312
49004W        W14165  34.144  11.165   2.104
49005W        W14166  19.821  44.950   2.411
49006W        W14167   6.419  35.689   0.436
49007W        W14168   8.577  32.125  12.108
49008W        W14169  16.207  13.340   1.755
49009W        W14170  30.741  36.105   1.254
49010W        W14171   5.177  19.096   1.371
49011W        W14172  38.647  18.561  11.659
49012W        W14173  44.395   7.738   2.198
49013W        W14174   1.096   6.088  14.425
49014W        W14175  33.777  13.278   3.232
49015W        W14176  13.947  10.179  12.188
49016W        W14177  26.558  22.476   1.114
49017W        W14178  26.687   2.676   3.741
49018W        W14179   8.035   3.247  13.961
49019W        W14180  43.509  44.811  10.662
49020W        W14181   4.307  28.167   0.960
49021W        W14182  24.414  33.911  14.951
49022W        W14183   0.994  22.079   4.432
49023W        W14184  34.553  29.563   1.256
49024W        W14185  26.486  23.115  14.928
49025W        W14186  36.383  35.961   0.013
49026W        W14187   4.395  29.998   4.552
49027W        W14188  21.218  33.307  10.613
49028W        W14189   5.402  22.471   3.815
49029W        W14190  23.836   4.681  11.214
49030W        W14191   7.953  25.517   4.935
49031W        W14192   8.716   6.267   2.896
49032W        W14193  25.385  33.973   0.613
49033W        W14194  11.896   1.319   1.268
49034W        W14195   4.218  27.901   2.499
49035W        W14196  30.532  12.766   5.092
49036W        W14197  41.499  11.663   2.193
49037W        W14198  40.370   4.786  10.975
49038W        W14199  35.618  29.666  14.789
49039W        W14200  10.602  13.306   4.763
49040W        W14201  36.621  28.961  13.854
49041W        W14202   2.590  40.983   0.723
49042W        W14203  13.862  42.875  12.589
49043W        W14204   8.059   0.756   1.395
49044W        W14205  18.082  38.658  14.533
49045W        W14206  38.846  18.872   2.279
49046W        W14207   9.783  38.091  13.153
49047W        W14208  37.462  18.257  14.019
49048W        W14209  19.092  13.942   3.281
49049W        W14210  32.096  34.803  11.180
49050W        W14211  22.983  19.218   0.379
49051W        W14212  28.452  43.688  14.933
49052W        W14213  19.561  35.589  10.977
49053W        W14214  43.750  39.960   2.261
49054W        W14215   4.829  13.393   0.221
49055W        W14216  36.749  34.092   2.422
49056W        W14217  10.569  39.396  11.064
49057W        W14218   2.901  30.547   2.937
49058W        W14219  25.901  25.231  10.314
49059W        W14220  20.217   5.964   1.180
49060W        W14221  34.449  15.010  13.555
49061W        W14222   5.767  36.623   4.642
49062W        W14223  26.005  27.032   2.830
49063W        W14224  30.873  39.121  14.568
49064W        W14225  34.657  29.623  14.987
49065W        W14226  22.482   9.095   2.887
49066W        W14227   3.313  12.517   2.171
49067W        W14228  14.910  33.642  11.050
49068W        W14229  39.372  19.728  14.914
49069W        W14230   9.756  40.948  11.011
49070W        W14231  30.545   5.804   3.223
49071W        W14232  25.141  41.011  14.457
49072W        W14233   6.862  26.696  12.338
49073W        W14234  29.448  21.207  11.195
49074W        W14235  37.969  12.610  10.602
49075W        W14236  25.135  35.767  12.019
49076W        W14237  30.718  29.771  11.341
49077W        W14238  30.483  29.671   0.428
49078W        W14239  40.511  27.286  13.526
49079W        W14240   4.850  22.043   1.245
49080W        W14241  32.236  39.527   0.039
49081W        W14242  20.943  14.918  14.902
49082W        W14243  34.385   4.055   0.680
49083W        W14244  17.220  43.781   0.411
49084W        W14245  30.966  33.028  14.803
49085W        W14246  12.232  25.185   3.664
49086W        W14247  35.644  17.170   0.980
49087W        W14248  11.056  35.080   2.323
49088W        W14249  38.505  20.503  12.771
49089W        W14250  14.795  15.069   3.652
49090W        W14251  40.512  12.511  12.269
49091W        W14252  20.546   2.930   3.481
49092W        W14253  42.242   9.726  11.533
49093W        W14254  10.850  32.426   4.023
49094W        W14255  15.919  33.493  11.996
49095W        W14256   5.843   2.691   3.718
49096W        W14257  10.864  39.823  11.588
49097W        W14258  13.161  10.183   5.077
49098W        W14259  35.567  16.568  14.377
49099W        W14260  11.595  15.823  10.696
49100W        W14261   6.010  17.747  13.025
49101W        W14262   9.410  24.993   1.372
49102W        W14263  31.022  17.260  14.350
49103W        W14264   5.159  34.621  12.656
49104W        W14265  31.587  30.393   3.370
49105W        W14266  37.022  35.589  14.380
49106W        W14267  21.527  25.144  13.409
49107W        W14268  12.654  12.350   3.624
49108W        W14269   5.637  25.098   0.764
49109W        W14270  36.655  32.834   3.168
49110W        W14271   9.385  11.199   2.342
49111W        W14272   3.322  38.143   2.815
49112W        W14273   2.702  26.071   4.783
49113W        W14274  23.626   5.875   1.694
49114W        W14275  23.934  31.405  12.180
49115W        W14276   7.933  21.728   0.326
49116W        W14277  34.976  30.872  11.060
49117W        W14278  30.560  43.520  13.311
49118W        W14279  39.841   3.050  14.994
49119W        W14280  20.066  18.299   2.979
49120W        W14281  32.847   2.462  14.526
49121W        W14282  10.095  12.754   2.281
49122W        W14283  33.541  32.590   0.315
49123W        W14284  20.605   4.363   3.066
49124W        W14285  44.479  21.183   2.603
49125W        W14286  14.050  12.674   2.386
49126W        W14287  16.411  43.385  14.957
49127W        W14288  32.153  13.328   0.284
49128W        W14289  18.814  31.935  11.596
49129W        W14290   0.812  29.865   1.559
49130W        W14291  33.557  32.209   4.384
49131W        W14292  24.023  27.736   1.217
49132W        W14293  23.717  30.614  14.279
49133W        W14294  32.046  35.899  14.749
49134W        W14295   8.502  21.585   2.026
49135W        W14296  37.891  36.796   2.387
49136W        W14297   3.391  29.647   5.022
49137W        W14298   7.196   4.112  13.472
49138W        W14299  12.744  11.658  12.988
49139W        W14300  16.235  39.163   4.817
49140W        W14301  43.647  31.637   1.843
49141W        W14302   5.771  12.385  14.484
49142W        W14303  37.846  29.943  10.783
49143W        W14304  39.270  12.373  12.024
49144W        W14305  43.360  28.388  12.063
49145W        W14306  37.073   3.328   0.659
49146W        W14307  34.515  26.111  13.447
49147W        W14308  28.765  33.468   1.306
49148W        W14309  12.051  33.476   4.506
49149W        W14310  30.549  37.873   4.406
49150W        W14311   8.727  43.779  11.137
49151W        W14312  32.501  37.352  13.797
49152W        W14313  38.140  31.898  14.033
49153W        W14314   5.769  33.370  14.892
49154W        W14315  40.435   8.369   4.760
49155W        W14316   9.446  30.414   1.825
49156W        W14317   5.616  40.302   3.273
49157W        W14318  41.354  35.950   9.897
49158W        W14319  13.629   5.754  11.459
49159W        W14320   7.497  16.572  12.885
49160W        W14321  44.752  34.816  13.416
49161W        W14322  32.761  29.884   4.641
49162W        W14323  16.954  22.732   2.227
49163W        W14324  16.069  38.471   0.508
49164W        W14325  25.955   8.994  11.146
49165W        W14326  35.163  25.159  12.486
49166W        W14327   5.416  27.219  13.429
49167W        W14328  19.514  30.989   2.101
49168W        W14329  20.521  44.965  11.151
49169W        W14330  33.804  18.628  13.503
49170W        W14331  17.520  37.528  10.292
49171W        W14332  12.381   8.345  11.971
49172W        W14333  18.080  37.408   2.943
49173W        W14334  25.502  14.657   4.671
49174W        W14335  10.661  41.914   3.962
49175W        W14336  33.989  42.308  11.175
49176W        W14337  25.918  33.865   2.276
49177W        W14338  40.231  31.785   3.639
49178W        W14339  23.870  29.190  14.674
49179W        W14340  13.824  19.274  13.966
49180W        W14341  10.287  12.070   1.326
49181W        W14342  14.717  20.284  12.586
49182W        W14343  32.909  42.727  12.409
49183W        W14344  24.774  37.596  14.929
49184W        W14345  41.117  13.861  12.663
49185W        W14346   8.583   1.265   3.194
49186W        W14347   8.628  23.201   4.553
49187W        W14348  11.157  11.123   2.347
49188W        W14349  28.676   8.950  14.605
49189W        W14350   0.411  31.729  13.814
49190W        W14351  29.655  14.062   0.785
49191W        W14352  10.003  20.519   0.201
49192W        W14353  22.494  28.284   2.631
49193W        W14354   7.889  14.456  13.415
49194W        W14355  31.054  16.061  11.104
49195W        W14356   8.522  22.659  14.362
49196W        W14357  29.523  25.754  14.381
49197W        W14358  31.044   0.024   4.475
49198W        W14359  16.397  11.258  10.768
49199W        W14360  25.520  26.771   0.966
49200W        W14361  11.904  43.367  12.886
49201W        W14362  14.191  40.643   3.177
49202W        W14363  33.081   7.105  11.603
49203W        W14364  28.015  39.344   0.351
49204W        W14365  13.826  14.586   4.441
49205W        W14366  30.846   1.902  12.471
49206W        W14367  17.466   2.406   0.286
49207W        W14368  39.558  13.675   3.624
49208W        W14369  39.302  27.230  11.220
49209W        W14370  12.465   9.084  11.540
49210W        W14371   8.015  24.015   1.431
49211W        W14372   8.169  36.931   0.016
49212W        W14373  17.186  21.421   1.658
49213W        W14374  35.097  17.169  12.915
49214W        W14375   5.780  29.458   3.141
49215W        W14376   7.268   3.497  10.145
49216W        W14377   5.882   5.654  11.601
49217W        W14378  40.316  12.649   2.855
49218W        W14379  26.935   9.854   2.368
49219W        W14380  20.750  24.520  13.538
49220W        W14381  39.318  26.062  10.880
49221W        W14382  39.472  31.722   3.500
49222W        W14383  43.501  10.726  11.679
49223W        W14384  37.809  23.438  14.421
49224W        W14385  29.643   4.156   0.759
49225W        W14386  28.994  28.866   1.119
49226W        W14387  34.910  11.882  12.788
49227W        W14388   6.318  23.278   4.958
49228W        W14389  43.259  10.539   0.258
49229W        W14390  38.962  27.971  13.779
49230W        W14391  27.126  22.061   2.104
49231W        W14392  41.558   0.434  14.818
49232W        W14393   6.718   8.937  11.700
49233W        W14394  39.544  26.892  14.302
49234W        W14395  23.752  27.687  11.739
49235W        W14396   7.794  24.931  14.693
49236W        W14397  30.923   7.641  12.893
49237W        W14398  15.633  25.056  11.480
49238W        W14399  28.200  16.253  10.920
49239W        W14400  44.679   6.493  13.664
49240W        W14401  25.988  29.201  10.759
49241W        W14402  14.085  43.499  11.905
49242W        W14403  15.678  13.764  12.429
49243W        W14404   2.764  22.007  11.900
49244W        W14405   0.296  26.034  13.418
49245W        W14406  27.980  30.401  14.395
49246W        W14407   7.056  10.859  12.580
49247W        W14408  14.126   9.176  14.777
49248W        W14409  19.669  20.547   3.576
49249W        W14410  15.871   5.253  14.378
49250W        W14411  30.203   8.152  12.391
49251W        W14412  23.107  44.347   2.602
49252W        W14413  36.981  12.690   0.892
49253W        W14414  34.541  23.965  13.419
49254W        W14415  41.402  16.660   3.621
49255W        W14416  37.161  20.189  11.866
49256W        W14417  19.207  30.443  12.115
49257W        W14418  39.518  13.461   2.354
49258W        W14419  17.015  42.960  11.201
49259W        W14420  10.342  12.145  13.816
49260W        W14421   1.959  23.781  12.910
49261W        W14422   7.434  38.321  12.615
49262W        W14423  34.708  24.653  13.823
49263W        W14424  10.393   6.060  12.403
49264W        W14425  34.464  34.596  13.702
49265W        W14426  42.601  22.565   2.828
49266W        W14427  26.295  31.241   1.824
49267W        W14428  44.667  37.006  12.062
49268W        W14429  27.998  20.520  10.624
49269W        W14430  13.881  29.099  12.943
49270W        W14431   5.434  30.568  13.393
49271W        W14432  41.443  21.426  14.084
49272W        W14433  16.458  26.085  12.449
49273W        W14434   5.719   5.327   4.986
49274W        W14435  34.890  22.233  10.198
49275W        W14436  33.904  20.023   2.843
49276W        W14437  20.181  44.981  14.957
49277W        W14438   2.020  24.560  10.990
49278W        W14439  13.150  24.032   1.530
49279W        W14440  10.750  14.725   3.123
49280W        W14441  27.255  35.931  14.822
49281W        W14442  40.590  30.310   4.026
49282W        W14443  19.068  13.703   1.274
49283W        W14444   4.785  16.794   0.848
49284W        W14445  16.244  21.570   2.170
49285W        W14446  33.468  30.522  10.461
49286W        W14447   4.987  20.755  10.724
49287W        W14448  43.405  30.817   1.674
49288W        W14449   8.383  26.448   3.375
49289W        W14450  39.479  18.530   4.161
49290W        W14451  35.870  40.533   0.382
49291W        W14452  19.098  31.878  11.179
49292W        W14453  28.693  34.974   0.799
49293W        W14454  42.990   0.031  13.815
49294W        W14455  15.069  39.434  12.496
49295W        W14456  11.852  44.933   1.955
49296W        W14457  25.447   0.732  13.539
49297W        W14458  20.635   6.289   1.030
49298W        W14459  35.625  39.954   2.665
49299W        W14460  16.096   8.286   2.759
49300W        W14461   3.260   8.331   0.891
49301W        W14462  44.473  30.993   0.641
49302W        W14463  33.386  29.197  11.148
49303W        W14464   5.822  39.016  10.994
49304W        W14465  15.270  25.625   0.485
49305W        W14466  22.692  36.659  13.954
49306W        W14467   4.488  14.590   2.789
49307W        W14468  29.410   9.558   4.164
49308W        W14469  25.826  35.902   0.830
49309W        W14470  36.986  19.970  14.399
49310W        W14471  35.309  42.777   2.712
49311W        W14472  40.311   3.920   3.830
49312W        W14473  29.814  12.003   0.516
49313W        W14474   2.352  10.762  11.102
49314W        W14475   7.346  26.666  12.116
49315W        W14476  23.726   5.755   3.644
49316W        W14477  21.545  29.733   1.384
49317W        W14478  35.327  20.248  12.871
49318W        W14479  40.278   7.421  14.909
49319W        W14480  35.186   4.198   1.254
49320W        W14481   7.655  39.295   2.270
49321W        W14482  19.751  41.235   0.067
49322W        W14483  43.909  11.841   2.256
49323W        W14484   4.891   8.788  11.200
49324W        W14485  23.618  34.867   3.343
49325W        W14486  21.113  30.868   1.271
49326W        W14487   6.901  37.146  12.427
49327W        W14488  42.583  13.396  12.488
49328W        W14489  19.641  30.378  12.390
49329W        W14490   0.358   2.533   1.448
49330W        W14491  30.079  32.124  11.841
49331W        W14492  26.660  41.703  13.094
49332W        W14493  11.501   3.794   3.691
49333W        W14494   9.968   7.883  11.576
49334W        W14495  28.625  38.405   2.545
49335W        W14496  15.617  35.297  13.813
49336W        W14497   3.119  43.002  13.907
49337W        W14498  43.106  17.873   0.764
49338W        W14499   8.650  27.631   1.240
49339W        W14500  18.989  24.221   1.898
49340W        W14501  17.045   3.317  13.406
49341W        W14502   2.791  22.665  10.682
49342W        W14503  20.459   3.245  14.911
49343W        W14504  25.773  29.111  11.989
49344W        W14505  41.566  36.417  12.772
49345W        W14506  44.399   1.327   3.309
49346W        W14507  42.784  35.857  11.812
49347W        W14508  27.224  14.366   3.221
49348W        W14509  16.313  39.332   0.955
49349W        W14510  30.457   9.091   0.507
49350W        W14511  43.423  20.522   0.772
49351W        W14512   9.333  24.856   5.045
49352W        W14513   6.205  31.659  12.072
49353W        W14514   8.494  32.732   4.566
49354W        W14515   1.782  19.662   2.851
49355W        W14516  31.154   9.252   3.637
49356W        W14517  34.836  16.822   4.694
49357W        W14518  29.777  44.337   4.277
49358W        W14519  41.995   3.329   4.550
49359W        W14520  38.503  28.158   0.755
49360W        W14521  44.208  13.157  14.601
49361W        W14522  37.854  12.268  11.941
49362W        W14523  25.457  43.774  13.324
49363W        W14524  44.785  22.182  13.550
49364W        W14525  42.921  30.689   4.303
49365W        W14526  43.827  16.821   4.354
49366W        W14527  40.038  13.699  11.188
49367W        W14528   8.183   2.800   3.889
49368W        W14529   5.386  39.880  12.960
49369W        W14530  31.794  21.473   4.187
49370W        W14531   5.760  41.940   4.739
49371W        W14532  43.906  14.274   2.811
49372W        W14533  10.596  27.953   4.514
49373W        W14534  15.085  13.935   4.595
49374W        W14535  28.620  20.334   0.847
49375W        W14536  11.123  28.673   1.839
49376W        W14537   2.042  34.499   4.531
49377W        W14538  26.340  41.840  12.062
49378W        W14539   6.835  44.429   0.620
49379W        W14540  43.940  11.688  12.963
49380W        W14541  19.141   0.006   0.686
49381W        W14542  38.846   3.911   4.128
49382W        W14543   0.285  32.871  14.884
49383W        W14544  24.737   0.550  11.761
49384W        W14545  30.254  19.314   2.244
49385W        W14546  39.469   3.619  12.054
49386W        W14547  25.201   8.885  13.051
49387W        W14548   0.373  19.324   0.074
49388W        W14549  37.511   2.150  12.899
49389W        W14550  32.660  28.383  11.577
49390W        W14551  14.316  12.335   0.332
49391W        W14552  20.030  20.941  11.086
49392W        W14553  31.591  28.233  13.924
49393W        W14554  21.176  26.756   3.302
49394W        W14555  28.569  40.077  10.703
49395W        W14556   3.302   6.428  14.315
49396W        W14557  12.027  15.666   4.654
49397W        W14558  35.348   0.324   2.829
49398W        W14559  11.575  23.377  13.961
49399W        W14560  37.492  10.628  10.079
49400W        W14561  39.493   5.861  14.757
49401W        W14562  33.128   7.984   4.958
49402W        W14563   7.990  33.111  13.049
49403W        W14564   1.464  15.767   2.559
49404W        W14565  34.579  10.840   1.264
49405W        W14566  10.778  43.966  10.699
49406W        W14567  26.526  24.338  11.646
49407W        W14568   8.452   7.428   2.189
49408W        W14569  44.554  11.357   1.822
49409W        W14570  39.408  27.662  14.245
49410W        W14571  16.063   1.848   0.313
49411W        W14572  29.231  43.275  13.063
49412W        W14573  33.729  44.955   1.376
49413W        W14574  40.333  41.804   4.101
49414W        W14575   2.712  41.721  14.997
49415W        W14576  16.557  38.912  13.902
49416W        W14577  34.516  13.785  11.368
49417W        W14578  31.673   6.585  11.107
49418W        W14579  24.983   9.878  10.688
49419W        W14580  10.326  38.904   3.234
49420W        W14581   5.423  12.244   1.974
49421W        W14582  22.571  31.959  13.912
49422W        W14583   0.186  44.990   3.084
49423W        W14584   4.917  14.802  14.444
49424W        W14585  22.467   9.658   4.106
49425W        W14586   3.361  34.696  13.840
49426W        W14587   6.190  17.859  14.386
49427W        W14588  31.067  17.037   2.732
49428W        W14589  16.264   9.417   0.592
49429W        W14590  34.905   1.937  10.765
49430W        W14591   5.338  11.928  12.890
49431W        W14592  10.916   8.034   2.531
49432W        W14593  14.184   6.031   1.179
49433W        W14594  17.860  41.995   0.833
49434W        W14595  44.101  27.002  12.777
49435W        W14596  42.044   1.827   4.113
49436W        W14597   2.945  44.871   4.393
49437W        W14598  40.257  44.892  12.029
49438W        W14599  40.788  24.814   2.583
49439W        W14600  22.831  43.241  11.732
49440W        W14601  17.816  29.189  12.401
49441W        W14602  24.606  42.770  11.793
49442W        W14603  24.500  42.835   2.814
49443W        W14604  37.429  16.714   4.035
49444W        W14605  21.804  19.491  13.855
49445W        W14606  22.300  24.405   0.726
49446W        W14607  22.519  36.566  14.468
49447W        W14608   7.432  12.201  14.934
49448W        W14609  16.289  33.404   2.585
49449W        W14610  32.972  18.551   4.758
49450W        W14611  15.330  26.926  14.523
49451W        W14612   8.165   4.301   2.006
49452W        W14613  20.945  41.336   2.513
49453W        W14614  10.612  15.325   2.372
49454W        W14615  19.249  44.052   4.110
49455W        W14616  20.560  40.510  11.504
49456W        W14617   4.751  16.262   0.799
49457W        W14618  12.791   5.900   4.298
49458W        W14619   4.930  32.554   3.612
49459W        W14620  25.041  44.785   2.763
49460W        W14621  28.584   5.048  14.939
49461W        W14622  20.450  15.870   1.221
49462W        W14623  10.701  30.041  12.386
49463W        W14624  21.703  20.082  12.718
49464W        W14625  30.856  39.702  14.680
49465W        W14626  27.972   9.840   1.307
49466W        W14627   1.493   4.401  11.576
49467W        W14628  29.207   4.078  13.047
49468W        W14629  40.481  41.661   0.372
49469W        W14630   0.518  44.822  14.584
49470W        W14631  10.936  13.490  13.911
49471W        W14632  14.110   4.743   1.340
49472W        W14633  14.300  22.681  10.658
49473W        W14634   1.996  30.894   4.554
49474W        W14635  13.898  37.823  13.427
49475W        W14636  42.992  23.418   4.064
49476W        W14637  40.982  10.286   0.660
49477W        W14638  13.237  41.885  13.503
49478W        W14639  38.043  23.724  14.807
49479W        W14640  37.273  14.737   3.118
49480W        W14641  38.179  36.075   2.383
49481W        W14642   8.147  11.814   1.887
49482W        W14643  44.276   0.410  13.372
49483W        W14644  12.837  15.617   1.688
49484W        W14645   8.336  40.997  12.178
49485W        W14646   2.179  36.541  13.838
49486W        W14647   4.531  13.530   4.960
49487W        W14648  30.927  35.056  13.026
49488W        W14649  18.965  12.964  11.744
49489W        W14650  15.824  22.512   1.468
49490W        W14651  21.144  37.430   4.265
49491W        W14652   0.934  15.271   1.039
49492W        W14653  35.971   1.961   1.750
49493W        W14654  41.971  25.409   0.803
49494W        W14655  35.751  30.390   2.821
49495W        W14656  18.496  25.667   2.413
49496W        W14657  16.307  27.125   4.648
49497W        W14658  26.155   0.399  10.735
49498W        W14659  39.545   5.281   4.591
49499W        W14660  14.406  28.151   3.739
49500W        W14661  10.176  36.351   2.006
49501W        W14662  32.567   4.257   2.185
49502W        W14663  27.201  18.563  11.154
49503W        W14664  16.560  23.440  13.830
49504W        W14665   6.460  25.266  11.577
49505W        W14666  37.988  43.714   4.189
49506W        W14667   4.424  41.468   1.358
49507W        W14668   0.985  11.633   1.099
49508W        W14669  36.896  44.743   4.090
49509W        W14670  14.321  20.112  13.332
49510W        W14671  22.608  17.164   4.370
49511W        W14672  34.985   2.810   1.302
49512W        W14673  27.032  24.250  14.788
49513W        W14674   8.490  40.928  10.879
49514W        W14675  20.672  28.245  14.018
49515W        W14676  35.501  36.377   1.002
49516W        W14677  43.392  14.356   2.972
49517W        W14678   9.858  15.618  10.806
49518W        W14679  23.570   6.864  11.949
49519W        W14680   5.664   7.702   2.922
49520W        W14681  22.671  13.141  10.216
49521W        W14682   0.880  20.656  13.407
49522W        W14683  29.720  13.744   3.794
49523W        W14684  36.844  33.425  10.994
49524W        W14685   2.755  42.574  11.958
49525W        W14686  13.373  39.054   9.922
49526W        W14687  27.139  21.638  11.155
49527W        W14688  21.772   9.706  11.697
49528W        W14689  29.494   2.000   2.847
49529W        W14690  19.448  37.151   2.268
49530W        W14691  34.015  28.771  13.334
49531W        W14692  23.490  29.969   0.557
49532W        W14693  40.041   1.248   1.310
49533W        W14694  35.245   3.576   2.331
49534W        W14695  25.380  14.359   0.487
49535W        W14696  18.838  29.194   1.225
49536W        W14697   5.229   7.280   0.881
49537W        W14698   4.355  30.554  10.696
49538W        W14699  42.475  12.154  12.932
49539W        W14700   5.251  26.100  12.066
49540W        W14701  25.219  42.494   3.542
49541W        W14702  23.248   8.227  10.445
49542W        W14703   6.257  23.513   2.785
49543W        W14704   6.568  15.217   0.391
49544W        W14705  26.714   7.429   4.547
49545W        W14706  15.720   8.689  10.457
49546W        W14707  11.006   7.218   3.971
49547W        W14708  41.851  30.512   0.027
49548W        W14709  23.194  24.727   4.549
49549W        W14710  31.616  24.019   9.846
49550W        W14711  18.802   4.976  13.957
49551W        W14712  14.365  14.155   1.925
49552W        W14713  21.264   1.817   2.885
49553W        W14714  35.498  23.057   2.354
49554W        W14715  21.979  31.910  14.354
49555W        W14716  11.011  43.764  14.843
49556W        W14717  34.637  23.627   1.070
49557W        W14718  10.335  29.581  14.930
49558W        W14719  16.040  33.847  11.569
49559W        W14720  38.807   2.935   4.297
49560W        W14721   2.988  40.679   0.870
49561W        W14722  15.382  17.831   2.347
49562W        W14723  41.428  18.000   0.490
49563W        W14724   5.296  42.865   0.133
49564W        W14725   3.986  14.666   0.871
49565W        W14726   9.204  17.134   2.270
49566W        W14727  35.361  13.275  11.522
49567W        W14728  11.607  39.268  12.492
49568W        W14729  20.635  31.293  13.457
49569W        W14730  37.848  44.851   3.110
49570W        W14731  19.267  12.131  14.026
49571W        W14732  14.764  19.562   9.635
49572W        W14733  19.603  20.500  12.114
49573W        W14734   8.685  42.500  14.555
49574W        W14735   1.615   3.935  11.136
49575W        W14736   2.832   4.655  14.950
49576W        W14737  16.706  16.064  11.491
49577W        W14738  39.843  15.900   3.329
49578W        W14739   9.094  21.650  11.248
49579W        W14740  26.142  36.381  14.525
49580W        W14741  11.982  12.695   0.500
49581W        W14742   8.335  32.580   2.212
49582W        W14743  18.048  35.480  11.153
49583W        W14744  27.021   2.140   0.088
49584W        W14745  24.105  19.296  13.987
49585W        W14746  37.590  25.399  12.631
49586W        W14747   6.751  14.898  13.484
49587W        W14748  26.423  36.631   1.875
49588W        W14749   2.186  20.606  11.126
49589W        W14750  22.574  18.571   0.767
49590W        W14751  41.215   6.429   4.086
49591W        W14752  16.094  31.151   3.628
49592W        W14753  13.212  18.109   2.365
49593W        W14754  14.911  21.221  12.533
49594W        W14755   1.533  10.695   3.834
49595W        W14756  14.776  29.888   3.684
49596W        W14757  40.801  42.887  13.983
49597W        W14758  11.736  17.619  14.061
49598W        W14759  14.130  17.596  11.693
49599W        W14760  23.316  31.478  12.942
49600W        W14761  44.305  17.433  13.062
49601W        W14762   7.807  40.984   1.817
49602W        W14763  33.995  40.085  13.860
49603W        W14764  10.458  31.945  12.570
49604W        W14765  34.371   5.333  11.117
49605W        W14766   1.882  41.833   4.992
49606W        W14767  22.470  24.684   0.281
49607W        W14768  16.354  29.471  14.416
49608W        W14769  31.647  13.449  10.721
49609W        W14770  43.406  42.916  12.403
49610W        W14771  40.031  33.833   5.012
49611W        W14772  36.549   3.447   3.324
49612W        W14773  34.154  15.245   2.222
49613W        W14774   3.743  26.118   1.142
49614W        W14775   4.147   1.609   0.117
49615W        W14776  18.246   6.398   2.796
49616W        W14777  44.432  34.748   5.020
49617W        W14778  20.146  11.842   0.406
49618W        W14779   1.790  36.926   2.743
49619W        W14780   7.769   2.015   2.938
49620W        W14781  27.496  40.968  13.891
49621W        W14782  44.724  13.061  14.545
49622W        W14783   6.326  13.712   1.971
49623W        W14784  14.250  25.754   1.852
49624W        W14785  14.233  18.632   4.164
49625W        W14786   4.603  36.370   1.817
49626W        W14787  18.143  40.044  14.767
49627W        W14788  23.670   1.414   3.126
49628W        W14789  32.531  33.404  10.760
49629W        W14790  37.951  33.882   2.803
49630W        W14791   7.022  41.767  11.572
49631W        W14792  37.455  33.573  10.280
49632W        W14793  26.416   1.268  11.525
49633W        W14794  34.567  10.906  14.467
49634W        W14795  33.794  38.288   5.033
49635W        W14796  32.613  35.292  13.506
49636W        W14797  19.177  28.446   1.307
49637W        W14798  13.053  40.249  12.431
49638W        W14799   7.926  20.021   3.119
49639W        W14800  17.815  14.067  11.880
49640W        W14801  42.352  18.170  10.283
49641W        W14802  34.650  27.506   1.145
49642W        W14803   9.368  44.660   0.223
49643W        W14804  44.961  39.388  10.602
49644W        W14805  42.272  40.071  13.589
49645W        W14806  22.221  43.508  14.764
49646W        W14807  19.544  18.637   2.194
49647W        W14808  30.080  21.873   3.619
49648W        W14809   4.973  18.606   1.452
49649W        W14810  11.479   9.674  13.135
49650W        W14811  33.010   2.072   2.732
49651W        W14812  43.549  36.166   3.135
49652W        W14813  17.081   8.397   4.337
49653W        W14814  17.195  30.132   4.630
49654W        W14815  24.011   3.857  12.057
49655W        W14816  37.898  40.276  12.986
49656W        W14817  39.246  20.559   1.825
49657W        W14818   9.809  40.332   1.316
49658W        W14819   3.315  39.101   4.647
49659W        W14820  19.783  38.465   4.635
49660W        W14821   0.879  35.833  12.901
49661W        W14822  29.860  37.650  13.965
49662W        W14823  21.529  17.244   1.546
49663W        W14824  15.014  31.645   3.267
49664W        W14825  14.239  22.276  12.915
49665W        W14826  41.572   8.707  12.474
49666W        W14827  43.236  11.432   3.797
49667W        W14828  37.437  43.204  13.932
49668W        W14829  43.712  44.035  11.065
49669W        W14830  11.887  20.178  11.630
49670W        W14831  37.332  37.375   0.598
49671W        W14832  28.059  17.609  11.180
49672W        W14833  41.511  15.698  10.817
49673W        W14834  13.379  16.180   1.542
49674W        W14835  18.834  27.651   2.838
49675W        W14836  19.726  35.380   4.494
49676W        W14837  24.526  41.353   3.163
49677W        W14838   3.221  34.153  11.110
49678W        W14839   1.224   1.735   0.711
49679W        W14840   5.472  33.418   0.993
49680W        W14841   7.898  43.708   3.269
49681W        W14842  26.452   9.128  11.059
49682W        W14843  25.275   3.843   1.723
49683W        W14844   9.182  25.972   0.233
49684W        W14845  29.462  30.949  11.965
49685W        W14846  27.713   3.343  14.998
49686W        W14847  39.349  42.392   3.241
49687W        W14848  10.834  40.800   0.956
49688W        W14849   3.488  23.260  10.612
49689W        W14850   3.920  40.933  13.233
49690W        W14851  20.147  20.817  14.591
49691W        W14852  31.716   8.322   3.396
49692W        W14853  11.665  11.930   4.982
49693W        W14854  22.138   6.488   4.380
49694W        W14855   0.372   0.934   2.129
49695W        W14856  13.177   8.206   0.037
49696W        W14857  11.651  14.921  14.868
49697W        W14858  31.852   8.702   0.878
49698W        W14859  20.388  13.651  13.789
49699W        W14860  32.828  20.483   0.459
49700W        W14861   1.544  25.160  11.833
49701W        W14862  33.073  30.477   3.347
49702W        W14863  40.079   9.386   1.855
49703W        W14864   1.393   7.683   2.347
49704W        W14865   5.253  34.822  10.797
49705W        W14866   9.321  17.790   3.113
49706W        W14867  19.441   4.006  12.925
49707W        W14868  25.475  10.723   1.764
49708W        W14869  16.275   2.442  12.863
49709W        W14870  14.768  20.149   1.074
49710W        W14871   6.286  33.979   4.535
49711W        W14872  36.939  14.466  13.413
49712W        W14873  26.673  22.721   5.009
49713W        W14874  33.815   8.309  11.108
49714W        W14875   2.763  40.503  11.872
49715W        W14876  43.354  44.841  14.990
49716W        W14877  27.687  10.818   1.703
49717W        W14878   4.900   4.169   3.341
49718W        W14879  24.782  26.545   4.581
49719W        W14880  23.147  17.619  10.621
49720W        W14881  37.502  33.984  10.603
49721W        W14882  29.654  21.246  12.066
49722W        W14883  39.755  24.024  12.096
49723W        W14884  37.387   6.673  14.900
49724W        W14885  30.544  16.332   2.254
49725W        W14886  39.347  29.440   2.100
49726W        W14887  44.107  19.788   5.024
49727W        W14888   5.578  12.393   5.641
49728W        W14889  20.443  11.394  12.950
49729W        W14890  19.270  34.637  13.914
49730W        W14891  26.682  42.482   0.293
49731W        W14892  16.971  11.600   2.170
49732W        W14893  35.974  27.728   1.514
49733W        W14894  28.391  29.278  14.775
49734W        W14895   5.802  14.261  12.564
49735W        W14896  10.265  11.623   1.676
49736W        W14897  13.614   2.939   2.287
49737W        W14898   7.861  10.586   5.024
49738W        W14899  22.129   4.938   4.514
49739W        W14900   3.008  38.468  12.030
49740W        W14901  30.963  18.550  13.494
49741W        W14902   0.933  40.302   0.449
49742W        W14903   8.613   5.291   2.729
49743W        W14904  12.283  36.438   2.640
49744W        W14905  43.237  38.007   3.182
49745W        W14906  16.264  39.949  13.827
49746W        W14907  33.913   3.889   2.383
49747W        W14908  40.687  34.787  10.382
49748W        W14909  42.837  31.675   0.835
49749W        W14910  38.955  14.276   2.103
49750W        W14911  41.947  19.795  14.214
49751W        W14912   6.315  21.647  11.706
49752W        W14913   8.110   0.959   3.618
49753W        W14914  33.122  34.027  13.335
49754W        W14915  33.828  15.428  10.138
49755W        W14916  43.248  40.236  13.971
49756W        W14917   0.064  11.922   0.771
49757W        W14918  23.118  11.895   3.228
49758W        W14919   3.980  14.211   4.140
49759W        W14920  41.585  21.868   1.942
49760W        W14921  43.486  15.787  10.340
49761W        W14922  21.075  16.045   2.650
49762W        W14923   8.439  34.875   2.185
49763W        W14924  23.449  35.343   3.119
49764W        W14925  20.194  25.876  14.846
49765W        W14926  40.880  23.606  14.136
49766W        W14927  34.029   8.987  11.851
49767W        W14928  12.766  16.649   0.029
49768W        W14929  18.860  44.256   3.837
49769W        W14930  38.738  28.157  12.392
49770W        W14931  30.068   8.360   3.626
49771W        W14932  28.563  17.280   3.765
49772W        W14933  40.441  22.751  13.879
49773W        W14934  44.293  41.405  10.527
49774W        W14935  16.244   1.743  13.381
49775W        W14936  41.907  30.673   2.843
49776W        W14937  30.878  13.714   2.201
49777W        W14938   5.610  20.128   1.826
49778W        W14939  43.932  24.089   4.676
49779W        W14940  44.832   6.578  11.988
49780W        W14941  10.771  11.746  11.641
49781W        W14942   4.608  22.708  13.500
49782W        W14943   5.949  15.304  13.951
49783W        W14944   4.466   4.851  14.301
49784W        W14945  18.570  36.581  12.927
49785W        W14946  33.746  11.426  10.003
49786W        W14947  18.045  10.157   2.402
49787W        W14948  22.565  29.873  12.962
49788W        W14949   0.375  14.087  11.880
49789W        W14950  16.732   4.969   3.651
49790W        W14951  25.698   7.230  14.967
49791W        W14952  38.148   8.430  11.175
49792W        W14953  30.673  12.350  11.155
49793W        W14954  30.737  15.371   4.551
49794W        W14955  41.103   7.771  11.452
49795W        W14956   9.255  29.013   4.177
49796W        W14957  35.957  20.621   4.712
49797W        W14958   0.447  44.006   3.149
49798W        W14959  13.367  19.437   0.808
49799W        W14960  19.631  30.446  14.290
49800W        W14961  12.517  11.708   1.436
49801W        W14962  10.592  43.755  13.916
49802W        W14963  22.133  21.654  13.100
49803W        W14964  20.470  24.021   1.406
49804W        W14965  22.032   7.530   2.949
49805W        W14966   0.652  38.450   1.260
49806W        W14967  42.342  26.722   1.867
49807W        W14968  30.463  12.556  10.721
49808W        W14969  31.892   1.488  12.047
49809W        W14970   2.552  27.209  12.924
49810W        W14971  30.154   3.800   3.481
49811W        W14972   0.693  35.898  13.430
49812W        W14973  23.515   8.699  13.450
49813W        W14974   6.590  31.170  10.134
49814W        W14975   3.474  35.460   4.271
49815W        W14976   7.624   3.972  11.580
49816W        W14977  38.399   3.663   4.122
49817W        W14978  22.239  32.775  11.722
49818W        W14979   9.196  11.205  10.669
49819W        W14980  38.548  42.909  11.053
49820W        W14981  32.970  13.590   0.615
49821W        W14982  32.692  44.793   2.679
49822W        W14983  40.011   6.830   0.491
49823W        W14984   1.669  26.002   2.685
49824W        W14985  26.589  10.884   0.161
49825W        W14986  27.414  12.146   3.511
49826W        W14987  31.505  37.112  14.865
49827W        W14988  40.253   2.072   2.803
49828W        W14989  10.675  42.520   3.255
49829W        W14990  24.498   7.669  10.759
49830W        W14991   2.221  25.517   1.864
49831W        W14992  21.378   6.249  12.603
49832W        W14993   8.328  29.697  12.828
49833W        W14994  29.082  11.242   0.501
49834W        W14995  33.396  37.016   1.383
49835W        W14996  35.652  20.653   1.842
49836W        W14997  30.428  41.970  14.317
49837W        W14998  43.967  10.287   3.380
49838W        W14999   7.942  34.425  12.827
49839W        W15000   2.145  10.201   2.356
49840W        W15001  43.165   2.156   3.700
49841W        W15002  32.424  17.696   4.229
49842W        W15003  33.041  33.274   2.657
49843W        W15004   2.258   1.501   3.815
49844W        W15005  42.754  33.017   4.009
49845W        W15006   2.312  24.628  14.280
49846W        W15007  33.891  29.458   0.419
49847W        W15008  17.052  30.203  13.045
49848W        W15009  32.083  25.955   4.157
49849W        W15010  32.538  15.742   3.393
49850W        W15011  43.356  25.774  12.458
49851W        W15012  31.598  31.393   4.267
49852W        W15013  40.494  37.284  11.063
49853W        W15014  24.347  37.449  11.891
49854W        W15015   9.690  35.912  10.669
49855W        W15016  10.318   4.778  14.427
49856W        W15017   4.264  21.701   3.355
49857W        W15018  29.577  26.693   4.998
49858W        W15019  21.169  10.758  12.937
49859W        W15020  28.008  19.378   2.237
49860W        W15021  20.608  25.009  11.648
49861W        W15022  21.558   4.977  11.116
49862W        W15023  33.564  13.303  13.377
49863W        W15024  41.582  25.858  12.100
49864W        W15025  19.621  31.918  14.358
49865W        W15026   3.829   8.628  11.673
49866W        W15027  13.420  37.934   4.663
49867W        W15028   7.332   2.715   1.319
49868W        W15029  27.505  12.381   3.057
49869W        W15030  39.540  23.262   4.511
49870W        W15031  10.859   1.469  14.435
49871W        W15032  19.742  36.167  10.602
49872W        W15033  41.632  32.546  14.823
49873W        W15034   8.103  29.796  10.951
49874W        W15035  14.037   1.755   3.563
49875W        W15036  27.249   0.821  13.978
49876W        W15037  42.984   1.362  14.451
49877W        W15038  40.782  16.480   1.134
49878W        W15039  14.544  43.434   4.533
49879W        W15040  26.732  38.858  12.166
49880W        W15041  19.754  38.914   2.233
49881W        W15042  38.358  34.652  12.422
49882W        W15043  24.199  18.323  14.985
49883W        W15044  29.267  26.172   2.778
49884W        W15045  35.473  20.639  13.346
49885W        W15046   0.980  24.657  14.814
49886W        W15047  35.929  10.307   3.864
49887W        W15048  41.209  42.068   4.099
49888W        W15049  16.054   3.659   0.737
49889W        W15050   4.481   6.241   4.674
49890W        W15051  41.623  11.407  10.754
49891W        W15052  11.796   1.261   2.244
49892W        W15053  21.777  43.097  12.038
49893W        W15054  25.047  44.259   2.793
49894W        W15055  32.878  12.707   1.442
49895W        W15056   1.142  13.497   3.310
49896W        W15057  34.525  35.513  11.920
49897W        W15058   8.375  37.334   3.756
49898W        W15059  36.651  42.305   9.928
49899W        W15060  20.621  17.096  13.769
49900W        W15061   4.135   9.634   1.486
49901W        W15062   2.898  24.115  10.597
49902W        W15063  38.549   1.284   2.776
49903W        W15064  22.842  19.189   1.033
49904W        W15065   9.091  17.103  13.558
49905W        W15066  29.243  18.749   3.434
49906W        W15067  34.482  40.691   3.841
49907W        W15068   9.292   4.631  12.034
49908W        W15069  36.905  39.973  13.899
49909W        W15070  37.356  28.943   2.650
49910W        W15071   2.197  42.483  10.698
49911W        W15072  40.400  30.201   2.176
49912W        W15073  33.527  23.742  13.127
49913W        W15074  29.417  40.662  12.009
49914W        W15075  20.463  24.797  13.944
49915W        W15076  37.100   2.016   4.436
49916W        W15077  27.080   3.803   0.341
49917W        W15078  13.096  44.750   0.908
49918W        W15079  41.238  30.059   2.421
49919W        W15080  39.380  42.912  11.616
49920W        W15081  31.504  14.961  10.711
49921W        W15082  22.639  25.679   4.069
49922W        W15083  21.551   4.540   0.543
49923W        W15084   8.946  11.644  12.221
49924W        W15085  26.766  43.456   4.113
49925W        W15086  14.126  13.522  12.835
49926W        W15087  31.113  27.264  14.747
49927W        W15088   8.527  22.034  13.329
49928W        W15089  35.569  17.182  11.170
49929W        W15090   5.122  25.606   2.857
49930W        W15091  23.313  21.935   4.385
49931W        W15092  30.423   4.119  13.830
49932W        W15093  23.257  22.731   1.391
49933W        W15094  25.469  22.224   3.979
49934W        W15095  33.148  13.070  14.299
49935W        W15096   5.195  38.228  11.686
49936W        W15097  30.147  28.188   0.791
49937W        W15098  16.276  17.782   3.786
49938W        W15099  13.149  26.492   2.907
49939W        W15100   2.706  39.322   3.819
49940W        W15101  36.078  27.683  12.038
49941W        W15102  37.019   8.632   3.211
49942W        W15103  40.562  25.228  11.258
49943W        W15104  37.591  37.852  12.275
49944W        W15105  28.689   1.359   1.396
49945W        W15106  24.484  23.443   3.642
49946W        W15107  18.892  20.788   4.061
49947W        W15108   3.224   4.230   2.917
49948W        W15109   1.989  26.019  12.033
49949W        W15110  28.059  24.938   0.408
49950W        W15111   1.823  33.197   0.038
49951W        W15112  30.447  31.049  12.968
49952W        W15113   6.442  34.789   4.278
49953W        W15114  18.407   9.280  12.403
49954W        W15115  44.635  10.709  14.211
49955W        W15116  28.436   4.219  14.491
49956W        W15117  19.964  24.657  14.023
49957W        W15118   5.124   1.449   0.342
49958W        W15119  40.803  31.721   4.889
49959W        W15120  15.126  44.857   3.386
49960W        W15121  34.422  19.117   3.664
49961W        W15122  12.836  30.389  14.527
49962W        W15123   7.631   9.689   0.825
49963W        W15124  18.218  17.877   1.684
49964W        W15125  24.678  40.970  12.846
49965W        W15126  33.892   9.856   4.419
49966W        W15127  34.488   9.162   4.611
49967W        W15128  34.113   6.935   1.773
49968W        W15129  41.116  42.510   2.260
49969W        W15130  40.979  12.263  11.449
49970W        W15131  32.817  29.730  12.551
49971W        W15132  21.802  25.811   5.120
49972W        W15133  10.288  24.522   1.212
49973W        W15134   0.209  10.279  12.353
49974W        W15135  17.508  30.242   4.137
49975W        W15136  14.166  42.660   1.720
49976W        W15137  42.397   4.195   2.189
49977W        W15138  28.581  12.198   1.237
49978W        W15139  12.769  22.385  13.593
49979W        W15140   9.422  19.750   2.918
49980W        W15141  13.350  14.299   4.509
49981W        W15142  19.532  14.987   1.115
49982W        W15143  39.924  25.615   1.195
49983W        W15144  25.026  10.586  14.390
49984W        W15145  18.821  22.689   0.267
49985W        W15146  18.039   0.470  14.381
49986W        W15147   1.981   1.740  13.869
49987W        W15148  15.780  25.402   1.324
49988W        W15149  21.684  33.760   2.954
49989W        W15150  19.562  43.561   9.848
49990W        W15151  15.506  36.252  13.993
49991W        W15152  19.075   0.786   0.566
49992W        W15153  34.075  26.012   2.703
49993W        W15154  29.928  43.302   0.281
49994W        W15155  40.998  27.960   2.432
49995W        W15156  37.400  37.125  10.612
49996W        W15157   8.338   8.836   1.505
49997W        W15158  39.444  15.570   3.259
49998W        W15159  21.075  44.663   3.099
49999W        W15160  41.332  17.109  14.413
50000W        W15161  17.572   2.221  12.503
50001W        W15162  22.063  34.469   0.131
50002W        W15163  19.439  21.631  13.227
50003W        W15164  29.002  25.975   4.207
50004W        W15165  42.712  20.488   3.957
50005W        W15166  25.745  11.108   0.434
50006W        W15167  44.906  14.643   3.580
50007W        W15168  26.202   7.931   0.418
50008W        W15169  18.280   6.844  13.934
50009W        W15170  43.108  34.363  14.542
50010W        W15171  22.575  12.848  11.749
50011W        W15172   0.940   8.399  13.447
50012W        W15173  28.267  39.809  13.534
50013W        W15174   7.767  31.781  13.972
50014W        W15175   7.027  28.761   0.796
50015W        W15176  17.593   3.639   3.186
50016W        W15177  14.562   5.498  14.793
50017W        W15178  39.619  43.250   1.810
50018W        W15179   8.007  21.688  13.480
50019W        W15180  36.494  26.794   0.458
50020W        W15181  40.444  13.212   2.171
50021W        W15182  11.936  39.039  11.146
50022W        W15183  31.580  15.725   4.400
50023W        W15184  24.498  28.112   3.557
50024W        W15185  21.703   7.897   4.326
50025W        W15186  30.930  42.969  11.116
50026W        W15187  41.654   9.991   4.187
50027W        W15188  31.561   6.833   1.173
50028W        W15189  26.511  13.659  12.843
50029W        W15190  37.168  38.990   1.818
50030W        W15191  15.813   0.540  10.298
50031W        W15192  13.313  38.095  13.838
50032W        W15193  44.347  13.285   9.431
50033W        W15194  38.235  35.468   2.829
50034W        W15195  34.326  14.180  13.873
50035W        W15196  36.078  35.566   4.232
50036W        W15197  40.979  24.223  10.981
50037W        W15198   0.833   6.649  11.047
50038W        W15199  32.712  35.919   4.638
50039W        W15200  12.854  29.605  14.910
50040W        W15201  36.393  28.449   3.141
50041W        W15202   8.360  26.760   2.033
50042W        W15203  42.041   3.669  14.495
50043W        W15204  34.890  10.780  14.059
50044W        W15205  39.795  36.394  13.425
50045W        W15206  15.649  34.662   1.296
50046W        W15207   8.163  18.802  11.912
50047W        W15208  17.911  35.644  14.213
50048W        W15209  30.756   3.225  11.196
50049W        W15210   4.163  16.389   3.695
50050W        W15211  26.594  22.936  12.179
50051W        W15212   2.789  27.192   1.308
50052W        W15213  11.753  32.210   2.362
50053W        W15214  14.323  25.413  11.757
50054W        W15215   5.262   1.025   0.057
50055W        W15216   0.750  18.080   1.863
50056W        W15217   4.659  34.782   0.706
50057W        W15218  21.498  38.685   9.931
50058W        W15219   9.441  32.432   3.834
50059W        W15220  24.558  43.938   2.708
50060W        W15221  14.151  36.127  14.368
50061W        W15222  34.945  27.668  12.972
50062W        W15223  27.712  24.517  10.370
50063W        W15224  21.726  18.052   4.088
50064W        W15225  40.759  18.611  13.304
50065W        W15226  26.639  28.891   0.654
50066W        W15227  14.138  22.990   2.860
50067W        W15228  18.815   5.850   0.912
50068W        W15229  31.842  27.171   1.422
50069W        W15230  16.602   4.154   4.579
50070W        W15231   1.518  36.442  12.086
50071W        W15232  26.778  36.142  10.683
50072W        W15233  27.506  38.074   1.947
50073W        W15234  21.142   6.291  12.033
50074W        W15235  30.063  20.107  13.799
50075W        W15236  24.276  44.262  14.942
50076W        W15237   1.009  17.571  14.894
50077W        W15238  33.144   9.699  14.950
50078W        W15239  26.343  43.366  14.472
50079W        W15240   7.289  24.907   2.320
50080W        W15241  26.676  10.419   3.753
50081W        W15242  17.785  25.007  13.896
50082W        W15243  11.007  33.927   3.261
50083W        W15244  16.246  32.852  12.453
50084W        W15245  35.934  22.894   0.815
50085W        W15246  38.606  31.088  12.870
50086W        W15247  28.727  30.889   3.663
50087W        W15248  16.676  26.945  12.733
50088W        W15249  43.013  30.060   0.257
50089W        W15250  28.251   6.336   0.528
50090W        W15251  37.581  42.833  12.775
50091W        W15252  13.317  10.778  14.550
50092W        W15253  40.574   6.794   4.656
50093W        W15254  29.949  31.517   0.889
50094W        W15255  39.918   8.859   4.263
50095W        W15256   5.696   3.364   1.804
50096W        W15257  21.114  31.028  12.472
50097W        W15258  44.451  11.215   4.127
50098W        W15259  19.848  41.449  13.143
50099W        W15260   7.075  42.290  14.795
50100W        W15261   8.145  29.379   0.241
50101W        W15262  37.269  15.518   3.916
50102W        W15263  22.638  35.045   3.057
50103W        W15264  10.274  42.032  11.211
50104W        W15265  12.767  38.828   3.403
50105W        W15266  25.694   7.412   4.953
50106W        W15267  25.806  41.639  13.524
50107W        W15268  22.791  24.483   0.652
50108W        W15269  14.326   2.680   3.875
50109W        W15270   3.917  15.700   0.784
50110W        W15271  23.233  27.365  12.436
50111W        W15272   9.399  22.284  11.738
50112W        W15273  38.027  17.790   4.825
50113W        W15274   7.009  25.116  10.730
50114W        W15275  34.183  27.014  13.997
50115W        W15276  21.414   6.820  11.138
50116W        W15277  42.503  34.206   2.752
50117W        W15278  19.285  25.730   1.906
50118W        W15279  12.263   0.021   2.706
50119W        W15280  22.181  10.290  13.392
50120W        W15281   5.636  35.705  13.280
50121W        W15282  42.633  34.662  14.568
50122W        W15283  36.353   3.901   4.932
50123W        W15284  31.081  44.851   3.431
50124W        W15285  32.628  42.732  11.497
50125W        W15286  18.012   7.687  11.626
50126W        W15287   2.411  33.503   3.684
50127W        W15288  16.665  28.457   4.341
50128W        W15289   4.810  11.910  14.556
50129W        W15290  14.736   3.890   4.065
50130W        W15291  43.462   3.935   0.872
50131W        W15292  31.184  36.738  11.226
50132W        W15293   0.337  14.546  13.432
50133W        W15294  27.456  36.140  12.034
50134W        W15295  25.346   9.523   4.605
50135W        W15296  22.618  14.707   2.666
50136W        W15297   4.849  20.139   4.550
50137W        W15298   9.743   2.980  13.352
50138W        W15299  42.445  10.244  13.811
50139W        W15300  35.383   9.219  12.744
50140W        W15301  14.045   3.845   0.345
50141W        W15302  30.665  28.043   1.725
50142W        W15303  21.469  23.369   4.341
50143W        W15304   1.498  13.560   0.365
50144W        W15305  13.056   8.768   0.837
50145W        W15306  42.464  21.112   2.348
50146W        W15307  43.198  43.835   0.843
50147W        W15308  37.301   9.390  10.749
50148W        W15309  11.241  14.784  10.740
50149W        W15310  28.018   8.575  10.814
50150W        W15311  30.151   4.884   2.459
50151W        W15312   7.139  10.763   4.564
50152W        W15313  11.710   2.828  13.460
50153W        W15314   0.051  10.837   3.820
50154W        W15315   0.968  34.648   0.938
50155W        W15316  30.461  10.090  11.542
50156W        W15317  27.243   9.181  13.284
50157W        W15318   4.642  20.134  11.361
50158W        W15319  12.065  16.018  10.770
50159W        W15320   8.712  32.875   3.578
50160W        W15321  25.911   4.891   1.967
50161W        W15322  38.421  42.775   5.377
50162W        W15323  22.621  33.948   1.773
50163W        W15324  38.778   5.459  10.793
50164W        W15325   6.314  23.016  14.643
50165W        W15326  39.241  39.046  11.620
50166W        W15327   5.437  23.411  14.793
50167W        W15328   2.857  35.188   1.348
50168W        W15329  36.553   3.293  12.409
50169W        W15330  44.537  20.262  14.623
50170W        W15331  25.565  11.370  14.885
50171W        W15332  30.193  44.037  13.674
50172W        W15333   3.644  24.659  11.523
50173W        W15334  16.089   1.483  14.929
50174W        W15335  22.268   5.884  14.368
50175W        W15336  34.578  18.995  10.647
50176W        W15337   1.746  30.867  12.495
50177W        W15338  25.772  24.128   1.442
50178W        W15339  11.945  16.650   4.766
50179W        W15340   1.846  30.041  14.492
50180W        W15341  41.410  14.912   1.738
50181W        W15342  16.810  41.107   4.806
50182W        W15343  13.199  36.481   2.175
50183W        W15344   2.231  39.720  12.898
50184W        W15345  18.500  11.819  10.358
50185W        W15346  14.660  12.431   3.683
50186W        W15347  39.568  42.869  14.388
50187W        W15348  24.728   9.920   5.078
50188W        W15349   2.471  11.315  12.802
50189W        W15350   4.994  44.241  13.467
50190W        W15351  37.911  27.151   2.384
50191W        W15352  26.950   9.431  13.803
50192W        W15353  29.718  44.969   4.869
50193W        W15354  42.009  17.651   2.872
50194W        W15355  34.932   7.921   3.693
50195W        W15356  18.076  33.904   2.154
50196W        W15357  18.980  24.682   1.143
50197W        W15358  42.417   8.988  12.393
50198W        W15359  18.858  37.813  11.414
50199W        W15360  44.754  20.756   2.803
50200W        W15361  24.380  29.096   0.657
50201W        W15362  15.849   9.427   1.801
50202W        W15363  24.221  36.420   2.918
50203W        W15364  31.049  31.184   4.214
50204W        W15365  19.339  24.718  12.912
50205W        W15366  18.482  11.223   3.258
50206W        W15367   7.912  27.384  14.846
50207W        W15368  43.604  39.860  14.823
50208W        W15369   5.723  18.153   0.690
50209W        W15370  21.525  12.270  14.880
50210W        W15371  32.960  10.758   0.396
50211W        W15372  23.304  16.257   4.551
50212W        W15373  34.866  23.661   4.016
50213W        W15374  25.296  31.610   0.380
50214W        W15375  39.010  17.265  11.005
50215W        W15376   6.454   9.898   1.806
50216W        W15377   3.872   0.572  12.290
50217W        W15378  31.703  24.599   2.308
50218W        W15379  23.481  28.105  13.728
50219W        W15380  30.136   0.821   2.251
50220W        W15381  14.532   0.228  12.420
50221W        W15382   9.902  30.676   0.951
50222W        W15383  41.891   4.359   2.778
50223W        W15384  27.347  36.615   3.193
50224W        W15385  30.945  39.019  10.238
50225W        W15386  18.525  19.470   2.250
50226W        W15387  18.866  29.161  10.651
50227W        W15388  32.633  15.201  14.741
50228W        W15389   2.794  43.968   2.631
50229W        W15390   7.237   3.489  12.776
50230W        W15391  21.646  44.923   0.700
50231W        W15392  33.993  37.808  12.232
50232W        W15393  30.986   4.381   4.520
50233W        W15394  36.354  21.055   2.013
50234W        W15395  37.840  32.077   0.814
50235W        W15396   6.578   3.874   1.183
50236W        W15397  24.942   7.788   2.236
50237W        W15398  38.149  26.792   3.155
50238W        W15399   2.364  16.309  10.853
50239W        W15400  42.992  26.435   4.211
50240W        W15401  12.907  20.998  14.678
50241W        W15402  37.567  40.973   1.657
50242W        W15403  41.928  10.371  10.184
50243W        W15404  22.998  33.062  12.050
50244W        W15405   9.774  34.137   4.892
50245W        W15406  19.143  17.434   0.304
50246W        W15407  31.705  41.294   3.655
50247W        W15408   6.419  17.211   2.294
50248W        W15409  20.422   3.974  14.020
50249W        W15410   1.590   5.337  14.772
50250W        W15411  13.848  27.909  13.367
50251W        W15412  18.062   9.458  13.916
50252W        W15413  31.036  41.071   0.742
50253W        W15414  13.185  35.348  13.788
50254W        W15415  36.145  41.824   2.762
50255W        W15416  30.558  25.537   1.385
50256W        W15417  33.854  41.554  12.163
50257W        W15418   7.691  28.649   0.321
50258W        W15419  21.051   5.766  10.669
50259W        W15420   9.623  39.506  13.449
50260W        W15421   3.690  34.026  11.743
50261W        W15422  35.393   9.949   0.296
50262W        W15423  18.223  28.399   1.295
50263W        W15424  31.203  20.458  10.325
50264W        W15425  41.098   1.952   0.162
50265W        W15426  36.299  12.285  14.424
50266W        W15427  28.239  26.811   0.393
50267W        W15428   6.719  35.847  12.756
50268W        W15429   7.860  30.144   3.798
50269W        W15430  30.123  38.119  14.566
50270W        W15431  39.230  24.497   0.020
50271W        W15432  31.882   6.200   2.732
50272W        W15433  19.665  18.030   1.215
50273W        W15434   0.959  38.062  14.577
50274W        W15435  35.723  24.589  13.651
50275W        W15436  38.809   4.854   4.877
50276W        W15437  15.570  36.723  14.967
50277W        W15438  41.836  26.058   4.249
50278W        W15439  32.340  21.286  11.886
50279W        W15440  44.818  35.674   3.654
50280W        W15441  11.569  16.593  11.609
50281W        W15442  26.990  30.882  13.321
50282W        W15443   6.191  25.978   0.906
50283W        W15444  44.312  44.407  14.704
50284W        W15445   0.551   5.666   3.204
50285W        W15446  17.498   9.435   2.666
50286W        W15447   8.173  33.504   1.431
50287W        W15448  10.306  17.647   3.894
50288W        W15449   6.705  39.574  13.132
50289W        W15450  29.508  44.981   0.391
50290W        W15451  28.682  25.454   4.500
50291W        W15452  38.994  41.472   0.410
50292W        W15453  34.463   2.536  14.831
50293W        W15454  39.254  44.885  12.025
50294W        W15455  15.732  15.630  13.799
50295W        W15456  31.096  38.961  13.585
50296W        W15457  29.010   7.348   3.295
50297W        W15458   9.109  12.443  11.956
50298W        W15459  10.669  26.101  10.693
50299W        W15460  35.164  33.198  11.788
50300W        W15461   9.447  17.835  10.129
50301W        W15462  29.353  14.627  14.748
50302W        W15463  18.687  21.744  12.109
50303W        W15464   2.145  27.080  11.196
50304W        W15465  16.049  27.530   1.708
50305W        W15466  25.009   0.708  11.001
50306W        W15467  10.247   2.920   0.820
50307W        W15468  40.610  41.714   2.644
50308W        W15469  40.186  30.465   3.713
50309W        W15470   7.731  29.184  12.479
50310W        W15471  16.040  26.937  11.956
50311W        W15472  31.363  29.582   0.370
50312W        W15473  13.246  28.624  14.566
50313W        W15474  10.876  27.123  10.688
50314W        W15475  36.317  41.342   2.737
50315W        W15476   6.918  35.247   1.358
50316W        W15477  28.139  34.015  14.547
50317W        W15478  32.468  29.982  11.648
50318W        W15479  33.931  27.675   4.659
50319W        W15480   2.497  22.669  11.994
50320W        W15481  22.720  28.430  13.098
50321W        W15482   7.214  11.370   2.810
50322W        W15483  21.013  32.810   0.387
50323W        W15484  43.046   8.974   3.411
50324W        W15485  39.801  24.572   4.610
50325W        W15486   6.788  39.070   1.756
50326W        W15487  43.359  28.629   3.738
50327W        W15488  12.058  33.463   3.626
50328W        W15489  24.195  39.691   1.182
50329W        W15490  24.530   1.608   4.660
50330W        W15491  44.784  23.439   1.010
50331W        W15492  43.308  44.944   1.865
50332W        W15493  11.349  43.891  14.476
50333W        W15494  35.268  36.794  13.105
50334W        W15495  25.097  29.563  12.581
50335W        W15496  38.937  28.946   0.936
50336W        W15497  32.371  37.257  14.849
50337W        W15498   1.012   7.655   4.886
50338W        W15499  26.974  24.225  13.458
50339W        W15500  15.202  35.600  11.145
50340W        W15501  34.676   6.373   0.711
50341W        W15502   0.522  26.914   2.024
50342W        W15503   2.267   2.742  14.401
50343W        W15504  30.495  22.173   3.342
50344W        W15505  25.402  19.056  10.906
50345W        W15506  33.287  43.438  14.876
50346W        W15507  33.876   0.022   4.195
50347W        W15508  19.038  37.942   3.704
50348W        W15509  36.471  19.790   3.701
50349W        W15510  17.632  29.012  14.362
50350W        W15511  35.607  21.401  11.712
50351W        W15512  31.030  28.014   9.997
50352W        W15513  25.968  11.688  13.410
50353W        W15514  26.109  34.599   4.068
50354W        W15515   0.264  10.762  12.689
50355W        W15516  20.273  36.975  12.417
50356W        W15517   8.359  44.029  12.167
50357W        W15518  32.088  34.492  13.639
50358W        W15519  34.873   2.630   2.322
50359W        W15520  28.554  28.644   4.433
50360W        W15521   1.849  23.773   2.250
50361W        W15522  24.121   3.167   3.080
50362W        W15523  33.790  24.667   1.616
50363W        W15524  19.436  41.481   3.155
50364W        W15525  34.580  42.472   3.792
50365W        W15526  12.715  41.444   1.981
50366W        W15527   7.705  19.194   1.547
50367W        W15528  24.098  21.002   3.597
50368W        W15529  27.409  32.200   2.835
50369W        W15530  25.939  27.567   2.756
50370W        W15531  10.884   1.674   2.318
50371W        W15532  11.817   9.982  12.886
50372W        W15533  30.970  36.641  14.200
50373W        W15534  22.111  33.631   0.697
50374W        W15535   7.937  44.524   0.706
50375W        W15536   4.233  23.672  13.633
50376W        W15537  18.117  32.192   0.334
50377W        W15538  42.932  22.340  14.832
50378W        W15539   4.965   4.308  13.918
50379W        W15540  33.581  15.598   0.994
50380W        W15541  10.729  21.194  13.630
50381W        W15542  13.723  41.390  14.857
50382W        W15543  15.810  10.320   0.824
50383W        W15544  39.748  35.490  13.854
50384W        W15545  42.091  15.800   4.968
50385W        W15546  36.529  20.568  12.862
50386W        W15547  23.977  43.704  14.011
50387W        W15548  18.348   9.867   4.333
50388W        W15549  40.946  20.060   1.873
50389W        W15550   3.517  33.992   1.818
50390W        W15551  27.102  34.847  10.587
50391W        W15552  44.283   8.901   3.945
50392W        W15553  27.812  35.884   1.034
50393W        W15554  24.137  12.612   2.060
50394W        W15555   7.368  10.378   4.896
50395W        W15556  33.879  26.957   2.249
50396W        W15557   3.999  32.553   4.252
50397W        W15558  32.787  19.603   1.735
50398W        W15559  17.260  38.384  12.898
50399W        W15560   2.423  25.055  13.974
50400W        W15561   9.640  17.464   0.924
50401W        W15562  40.926  31.920   1.318
50402W        W15563  39.001  44.226  13.393
50403W        W15564   0.633  35.428  13.177
50404W        W15565   2.970  28.755  14.019
50405W        W15566  27.205   2.430   1.030
50406W        W15567  26.642  11.228   1.586
50407W        W15568  39.913  19.640  12.455
50408W        W15569   5.403   3.400   3.629
50409W        W15570  39.723  40.219  14.423
50410W        W15571  29.154  33.836   2.820
50411W        W15572  25.919  30.843  11.621
50412W        W15573  34.912  17.794   2.085
50413W        W15574   8.378  23.610   3.757
50414W        W15575  13.692   5.126  14.943
50415W        W15576  14.317   3.817   4.985
50416W        W15577   6.832  17.729   1.656
50417W        W15578  16.577  17.683  11.437
50418W        W15579   1.825  23.570   2.771
50419W        W15580  16.958   2.533   0.450
50420W        W15581  26.466  12.101   1.039
50421W        W15582  31.362  43.333   0.953
50422W        W15583   4.009   8.969   0.931
50423W        W15584  12.233   9.740   3.766
50424W        W15585  20.147   2.390   0.988
50425W        W15586  30.399  28.202   4.230
50426W        W15587  40.642  38.860  13.243
50427W        W15588   0.482  18.475  10.567
50428W        W15589  43.977  18.676   3.430
50429W        W15590   8.257  42.347   3.983
50430W        W15591   8.107  31.221   3.178
50431W        W15592   9.697  34.824   1.671
50432W        W15593   7.092  15.721  12.456
50433W        W15594  25.699  27.864  12.662
50434W        W15595  25.262   9.710   0.810
50435W        W15596  32.120   0.045  13.834
50436W        W15597  32.488  19.461   3.580
50437W        W15598  28.664  10.923  10.774
50438W        W15599  44.789  34.974  14.274
50439W        W15600  41.354  31.845   4.238
50440W        W15601  14.831  40.994   1.085
50441W        W15602  39.752  24.610  14.886
50442W        W15603  22.016  35.050   3.945
50443W        W15604   0.955   9.145  13.980
50444W        W15605   4.693  16.718  12.118
50445W        W15606  25.308  34.470   4.730
50446W        W15607  40.506   4.668   4.269
50447W        W15608  40.744  44.960   4.083
50448W        W15609  33.431  40.864  13.879
50449W        W15610   9.462  26.918  10.223
50450W        W15611  31.511  37.665  13.441
50451W        W15612  29.597   5.879  13.870
50452W        W15613  40.082  20.093   0.902
50453W        W15614  13.689  41.153  10.753
50454W        W15615  43.089  27.154  13.012
50455W        W15616  11.915   2.176  11.276
50456W        W15617  21.542   7.650  13.493
50457W        W15618  43.859  10.422   1.820
50458W        W15619  34.689   9.810  11.034
50459W        W15620   5.666  11.817  14.058
50460W        W15621   6.202   9.307  13.003
50461W        W15622  36.544  39.774  13.590
50462W        W15623   0.567  11.681  10.810
50463W        W15624   8.801  18.602  11.193
50464W        W15625   7.818  41.977  13.918
50465W        W15626  27.508  20.486   0.304
50466W        W15627   3.481  16.805   1.812
50467W        W15628  36.473  43.007   2.148
50468W        W15629  34.931  41.469   0.543
50469W        W15630   8.601   5.434   1.392
50470W        W15631  19.824  18.302   4.641
50471W        W15632   1.955   1.861   3.216
50472W        W15633  37.738   3.035   3.939
50473W        W15634   7.625  26.698  13.342
50474W        W15635  39.419  40.642  14.543
50475W        W15636   5.227  37.577   4.458
50476W        W15637  39.456  32.511   4.164
50477W        W15638   0.322  19.201  14.558
50478W        W15639  18.965  32.063  12.077
50479W        W15640  33.863   2.305   1.196
50480W        W15641  15.153  33.152  12.955
50481W        W15642  38.063   2.406   1.692
50482W        W15643   7.571  18.984   2.312
50483W        W15644  21.505  16.238   1.789
50484W        W15645  25.193  18.606   2.791
50485W        W15646   2.788  12.721  12.279
50486W        W15647  23.055  19.713   3.820
50487W        W15648  35.027  36.818  13.558
50488W        W15649  41.288  37.851   4.312
50489W        W15650   0.155  21.888  11.220
50490W        W15651  12.779  36.391  12.935
50491W        W15652   4.419   0.221   3.159
50492W        W15653  28.598   5.709  13.967
50493W        W15654  32.109  11.107   0.334
50494W        W15655  39.515  20.220  13.096
50495W        W15656  44.486  37.105  14.463
50496W        W15657   6.843  41.947  12.049
50497W        W15658   4.364  23.825  12.233
50498W        W15659  22.932  17.149  10.677
50499W        W15660  19.331  12.128   2.262
50500W        W15661  37.307  38.664  13.114
50501W        W15662  39.018  12.756  13.794
50502W        W15663  21.068  22.017   1.762
50503W        W15664  25.424  18.893  13.533
50504W        W15665  10.238  16.048  14.614
50505W        W15666  31.255  25.587  11.820
50506W        W15667  39.938  39.158  14.682
50507W        W15668  39.470  27.015   2.036
50508W        W15669  40.836  36.301   3.676
50509W        W15670   5.636  39.360  13.000
50510W        W15671  30.410  11.100   4.074
50511W        W15672  36.239  14.228   1.295
50512W        W15673   4.371   6.856  11.182
50513W        W15674  38.823   8.630  12.095
50514W        W15675  23.364  28.380   3.879
50515W        W15676   5.196   8.952   3.067
50516W        W15677  26.682  39.922  13.804
50517W        W15678   8.330  21.653   3.646
50518W        W15679  28.653  37.576  10.704
50519W        W15680  13.531  44.687  13.753
50520W        W15681   9.854  15.654  11.540
50521W        W15682  34.120  18.687   1.753
50522W        W15683  14.050  41.014  11.099
50523W        W15684  16.485  22.088   3.553
50524W        W15685  31.198  42.565   4.919
50525W        W15686  31.159   4.243  11.717
50526W        W15687   2.568  38.215  12.096
50527W        W15688  21.535  19.556  14.343
50528W        W15689  30.238  20.828  13.278
50529W        W15690   7.371  22.451   3.345
50530W        W15691  25.126  42.925   1.409
50531W        W15692   9.791  19.648   4.608
50532W        W15693   4.186   9.458  13.689
50533W        W15694  31.452  20.012  12.418
50534W        W15695  14.324   7.193  14.007
50535W        W15696  28.450  42.432   1.786
50536W        W15697   4.830  14.123  10.783
50537W        W15698  22.710  40.705   4.182
50538W        W15699  43.761   9.186  12.379
50539W        W15700  29.339  25.155  12.622
50540W        W15701  26.094   4.713   1.531
50541W        W15702   2.029  17.027  10.537
50542W        W15703  12.740  39.381   2.358
50543W        W15704  22.833  39.918   3.602
50544W        W15705  31.585  24.929   1.656
50545W        W15706  37.680  26.396  12.768
50546W        W15707  28.629  34.938  14.515
50547W        W15708  22.447  36.722   3.629
50548W        W15709  19.693  39.560   0.926
50549W        W15710   7.397  31.510   4.781
50550W        W15711  36.817  41.265   2.681
50551W        W15712  27.442  33.060  12.471
50552W        W15713  19.897  32.152   1.886
50553W        W15714  10.016  42.936   9.957
50554W        W15715  42.565  18.141   4.969
50555W        W15716   9.318  22.887  12.344
50556W        W15717  28.083  13.473   4.001
50557W        W15718  37.290  16.082  11.154
50558W        W15719  20.563  11.141  12.534
50559W        W15720  14.688   8.139   0.468
50560W        W15721  14.572  13.128   3.090
50561W        W15722  35.567  12.523   1.982
50562W        W15723  11.880  24.617   4.886
50563W        W15724  28.903   6.241  11.471
50564W        W15725  11.645  42.336  14.305
50565W        W15726  11.397   7.738  12.856
50566W        W15727  38.797  10.211   0.779
50567W        W15728  35.395  32.331   4.641
50568W        W15729  12.235  28.120  10.490
50569W        W15730  28.198  37.404  14.369
50570W        W15731  36.701  20.221   2.454
50571W        W15732  30.756  19.123  11.479
50572W        W15733  11.977  16.234   3.635
50573W        W15734  28.504  28.627   3.342
50574W        W15735  16.119  20.100  13.737
50575W        W15736  16.354   3.802  13.418
50576W        W15737  33.944  39.348  11.170
50577W        W15738  16.821  33.874   0.458
50578W        W15739  30.618  43.628  10.845
50579W        W15740  27.586  39.585   0.200
50580W        W15741  33.123  10.381   0.718
50581W        W15742  37.017   1.273  11.674
50582W        W15743  29.082  41.524   2.232
50583W        W15744   7.445  20.832  10.514
50584W        W15745  26.963  37.396   0.833
50585W        W15746  15.149  39.712   3.091
50586W        W15747  36.998  43.865   1.889
50587W        W15748  30.211  35.519   4.211
50588W        W15749  40.838   3.612   0.854
50589W        W15750  17.686   9.831   3.628
50590W        W15751  42.631   5.281  13.532
50591W        W15752  44.820  41.313  10.431
50592W        W15753  32.654  14.111  12.944
50593W        W15754   2.301  15.226   1.565
50594W        W15755  10.007  27.855   5.085
50595W        W15756   9.148  22.098   1.191
50596W        W15757  38.308  38.909  13.025
50597W        W15758  33.824   7.780   2.742
50598W        W15759  22.477  11.811   2.617
50599W        W15760  23.617  44.346  12.359
50600W        W15761  18.296  36.662   1.825
50601W        W15762  15.302  22.532   0.604
50602W        W15763   7.964  34.174   0.850
50603W        W15764  37.535  20.973   4.421
50604W        W15765  25.574  39.034  14.397
50605W        W15766  14.703  15.115   1.748
50606W        W15767  37.988  40.835  12.126
50607W        W15768  35.393   4.699  13.874
50608W        W15769  29.186  13.235   2.811
50609W        W15770   4.354  19.623   0.534
50610W        W15771  38.408  29.110  13.039
50611W        W15772  33.966   6.900   0.779
50612W        W15773  16.491  42.490   4.585
50613W        W15774   6.709   9.338  12.354
50614W        W15775  40.830  21.761   1.193
50615W        W15776  29.145  36.903   3.167
50616W        W15777   5.153  11.908  11.382
50617W        W15778  21.297   3.395   3.969
50618W        W15779  10.856   7.399  11.815
50619W        W15780  29.029   6.087   1.685
50620W        W15781  44.503  40.071  13.457
50621W        W15782  40.022  19.972   2.864
50622W        W15783  24.186  27.333  11.029
50623W        W15784  37.090  10.882  13.296
50624W        W15785  39.753  44.893  11.933
50625W        W15786  43.448   8.881  14.493
50626W        W15787  32.903   1.306  12.896
50627W        W15788  23.744  41.750  13.068
50628W        W15789  17.192  18.727   2.947
50629W        W15790  15.828  27.358  11.203
50630W        W15791  44.956   6.011  13.784
50631W        W15792  37.933  17.097  11.601
50632W        W15793  24.365  38.547  13.477
50633W        W15794  13.805  27.892  12.482
50634W        W15795   7.867  44.822   1.416
50635W        W15796  26.354   9.265   4.534
50636W        W15797  40.508   6.759   0.372
50637W        W15798  31.541  28.054   9.926
50638W        W15799  22.501  32.958   1.236
50639W        W15800  43.872  44.271  14.258
50640W        W15801  42.032  29.489  11.169
50641W        W15802  23.287  11.279  14.814
50642W        W15803  35.810  44.936  11.987
50643W        W15804  41.729  13.129   3.310
50644W        W15805  35.060  43.642  11.714
50645W        W15806  41.419  32.430  14.329
50646W        W15807  34.995  21.531   3.817
50647W        W15808   2.955  18.155  14.848
50648W        W15809  21.792   3.170  13.020
50649W        W15810   3.734  39.070  13.450
50650W        W15811  38.909  22.463  14.012
50651W        W15812  17.278  22.577   3.176
50652W        W15813  40.383  36.611  11.607
50653W        W15814  38.070   8.235  14.879
50654W        W15815  12.125  38.999  12.031
50655W        W15816  29.356  32.611   0.227
50656W        W15817  34.109  25.816  13.590
50657W        W15818  16.714   8.263  10.754
50658W        W15819  10.730  16.333   4.231
50659W        W15820  20.444  43.250  12.997
50660W        W15821  20.980  15.630   1.872
50661W        W15822  19.492  37.526   2.660
50662W        W15823  16.968  32.203  12.590
50663W        W15824   2.973   8.320   1.639
50664W        W15825   8.478  10.627   1.778
50665W        W15826  42.303  36.074   4.235
50666W        W15827  30.150  23.253   0.506
50667W        W15828  42.491   1.955  13.853
50668W        W15829   4.656  29.963   2.729
50669W        W15830  18.246   5.860  12.552
50670W        W15831  28.514  21.048  13.466
50671W        W15832   1.224  41.512  10.705
50672W        W15833  15.189  17.348   2.212
50673W        W15834  11.302  37.325   0.791
50674W        W15835  19.707  34.849  13.693
50675W        W15836  33.704  14.395   1.268
50676W        W15837   5.224  32.469   3.183
50677W        W15838   3.972  24.839   1.698
50678W        W15839  17.629  40.096   0.504
50679W        W15840  19.826  17.341   9.966
50680W        W15841  11.812  34.672  12.996
50681W        W15842  25.686  25.585   2.940
50682W        W15843  29.981   5.310  10.460
50683W        W15844  14.166   0.204  14.560
50684W        W15845  32.025  28.875  13.108
50685W        W15846  22.543  26.981  10.432
50686W        W15847  34.552   3.848   2.210
50687W        W15848  11.184  30.133  11.637
50688W        W15849  39.095   0.399  12.987
50689W        W15850  35.910  27.934   3.775
50690W        W15851  37.285  11.444  14.469
50691W        W15852  34.654  19.751  11.166
50692W        W15853  21.470  12.215  13.898
50693W        W15854  17.809  37.510   4.091
50694W        W15855   7.910  15.513   4.195
50695W        W15856  13.748   6.640   3.512
50696W        W15857  13.198   3.722  14.039
50697W        W15858  34.813  17.259   2.310
50698W        W15859  29.789  31.822   0.023
50699W        W15860  34.883  19.673  13.895
50700W        W15861   8.978  12.113   4.600
50701W        W15862   0.828   4.360  12.962
50702W        W15863  40.720  30.357  14.992
50703W        W15864  28.971  38.061  13.062
50704W        W15865  10.835  11.902   4.499
50705W        W15866  44.069  19.208   2.792
50706W        W15867  17.459  11.308   1.911
50707W        W15868  25.118  28.042   0.970
50708W        W15869  43.795   8.899   4.703
50709W        W15870   3.466  14.579   2.295
50710W        W15871  15.077  20.579   2.801
50711W        W15872  36.130   7.627  13.112
50712W        W15873  33.887  42.056  11.989
50713W        W15874  15.189  10.358  10.969
50714W        W15875  35.789  17.642  11.044
50715W        W15876  34.833  40.606  12.627
50716W        W15877   6.707   3.461  11.484
50717W        W15878  11.828  41.240   3.897
50718W        W15879   7.908  33.052  14.430
50719W        W15880  43.965   1.580   3.357
50720W        W15881  34.028  33.454  14.791
50721W        W15882  20.677  31.996   0.852
50722W        W15883  41.766  20.024  13.420
50723W        W15884   3.758  36.979  13.141
50724W        W15885  14.634  40.481   1.605
50725W        W15886  36.951  15.866   4.154
50726W        W15887  32.570  43.953   0.261
50727W        W15888  12.706   8.290   2.410
50728W        W15889  19.297  42.524   4.376
50729W        W15890  40.386   9.626  12.422
50730W        W15891   5.735   0.491  13.350
50731W        W15892   2.785  31.840   3.730
50732W        W15893  39.034  20.271   1.301
50733W        W15894  40.095   4.852  14.739
50734W        W15895  29.230  36.460   1.898
50735W        W15896   1.879   6.724  14.711
50736W        W15897  15.683  15.053   0.733
50737W        W15898  33.505  32.530   2.612
50738W        W15899  13.505   5.311  14.065
50739W        W15900  31.702  42.493   0.439
50740W        W15901   4.373  30.448   4.146
50741W        W15902   2.261  12.354  14.813
50742W        W15903  33.042  39.305   3.154
50743W        W15904   8.996   9.246   0.371
50744W        W15905  39.356  29.596   1.126
50745W        W15906   2.199   2.273  12.946
50746W        W15907  27.715  43.514   1.145
50747W        W15908  20.530  41.011  11.679
50748W        W15909  14.714  39.817  13.492
50749W        W15910  15.219  12.597  13.622
50750W        W15911  29.321  12.787   0.385
50751W        W15912  17.028  34.078  12.558
50752W        W15913  26.808  14.307  10.559
50753W        W15914  12.837  32.014   1.838
50754W        W15915  32.297  38.782  14.416
50755W        W15916   9.851  11.355  13.937
50756W        W15917   9.315  16.966  14.846
50757W        W15918  20.247  34.933   3.234
50758W        W15919  11.837  15.236  12.918
50759W        W15920   1.368  15.114   1.748
50760W        W15921  34.502  31.658  11.126
50761W        W15922  22.646  27.168  14.918
50762W        W15923  37.336  19.078  10.963
50763W        W15924  37.654  26.904  11.490
50764W        W15925  30.388   6.295   4.699
50765W        W15926  23.163  37.928   2.752
50766W        W15927  10.168  31.908   1.317
50767W        W15928   8.263  27.198  10.707
50768W        W15929  28.909  32.635   1.772
50769W        W15930  41.037  40.083   3.709
50770W        W15931  26.561  40.955  13.800
50771W        W15932  43.288  13.722  14.880
50772W        W15933   3.895  34.926  13.861
50773W        W15934  26.648  24.819  11.732
50774W        W15935  44.490   2.346   3.857
50775W        W15936  25.615   3.480   3.378
50776W        W15937  28.177  18.790  12.033
50777W        W15938  42.395   1.675  12.831
50778W        W15939  39.652  39.972   1.616
50779W        W15940  16.221   5.359   0.413
50780W        W15941   4.639  40.915   3.935
50781W        W15942  10.909  24.528   1.832
50782W        W15943  43.022  17.218  11.369
50783W        W15944  35.545  23.136   3.392
50784W        W15945  41.941  38.907   3.686
50785W        W15946  37.318   9.145  12.468
50786W        W15947  17.007  22.150   0.495
50787W        W15948  17.373  21.630   1.212
50788W        W15949  29.031   1.216  12.914
50789W        W15950  39.620  22.936  14.079
50790W        W15951  22.820  44.331   3.656
50791W        W15952  27.864  42.719   2.778
50792W        W15953   3.750  40.467  13.411
50793W        W15954  18.282  16.227  14.275
50794W        W15955  13.212  31.380  11.166
50795W        W15956  24.403   5.574   3.225
50796W        W15957   3.414   2.055   4.760
50797W        W15958  26.676  18.528   3.156
50798W        W15959  23.793   1.174  14.090
50799W        W15960   5.879  18.062   4.030
50800W        W15961  34.502  23.437   1.544
50801W        W15962  39.594  44.861   0.757
50802W        W15963  27.172  40.063  13.856
50803W        W15964  39.064  38.510   1.601
50804W        W15965  24.058  35.052  12.515
50805W        W15966   0.110  10.841  14.106
50806W        W15967  21.591  25.489  12.997
50807W        W15968  42.033  26.664  10.819
50808W        W15969  41.496  33.773  10.675
50809W        W15970  12.222  42.152  14.453
50810W        W15971   4.005  21.190   3.325
50811W        W15972  17.195  29.951   0.504
50812W        W15973  36.416  32.107   3.734
50813W        W15974   6.361  23.790   5.072
50814W        W15975  37.950  26.206  14.958
50815W        W15976  12.135  35.872  12.678
50816W        W15977  25.488  14.349  11.677
50817W        W15978  41.913   3.930   1.360
50818W        W15979  35.597  23.415   1.961
50819W        W15980  20.118  21.267   3.146
50820W        W15981  25.774  10.262  14.322
50821W        W15982  22.300  37.940  10.277
50822W        W15983   9.110  25.412   5.417
50823W        W15984  18.072  16.263  14.754
50824W        W15985  11.481   0.852  10.753
50825W        W15986  29.960  13.525   2.116
50826W        W15987  39.184  32.073  14.041
50827W        W15988  23.254  15.110  14.427
50828W        W15989  24.711  18.276  12.019
50829W        W15990  31.965   6.929  11.869
50830W        W15991  21.071   7.194  12.933
50831W        W15992   4.282  42.672  11.149
50832W        W15993   2.548  18.733  12.636
50833W        W15994  26.027  17.507  13.089
50834W        W15995  27.706   9.273  11.520
50835W        W15996  27.019  30.505   2.701
50836W        W15997  26.460  17.078   3.212
50837W        W15998  37.017   0.253   0.463
50838W        W15999  16.065   7.247   1.593
50839W        W16000  14.230  30.769   2.748
50840W        W16001  18.450  17.526  13.019
50841W        W16002  24.437  28.088   4.082
50842W        W16003  35.631   6.437   0.854
50843W        W16004  12.648  21.949  13.360
50844W        W16005   5.169  29.436   9.825
50845W        W16006   6.265  42.829   1.818
50846W        W16007   3.412  40.579  14.408
50847W        W16008  28.020  44.028   2.354
50848W        W16009   5.274  31.451   4.068
50849W        W16010   4.353  37.938  14.959
50850W        W16011   7.783  24.873   4.039
50851W        W16012   1.640   2.784   2.211
50852W        W16013   7.581   7.147  11.921
50853W        W16014  25.585   1.300  11.086
50854W        W16015  11.905  36.117  13.949
50855W        W16016  30.452  18.504  13.457
50856W        W16017  29.478  28.168   3.792
50857W        W16018   4.359  15.886  14.993
50858W        W16019  41.788  30.219  11.453
50859W        W16020  30.107  41.929   3.773
50860W        W16021  22.491  31.402  13.970
50861W        W16022  37.056  15.334  11.594
50862W        W16023  35.361   6.208  12.468
50863W        W16024  38.767   2.453  13.618
50864W        W16025   1.565  21.112   2.757
50865W        W16026  20.603   3.242   4.682
50866W        W16027  22.518  20.735  14.057
50867W        W16028  12.365   4.018   5.094
50868W        W16029  22.274  25.129  10.801
50869W        W16030   0.367  17.098  12.003
50870W        W16031   0.512  26.927  12.033
50871W        W16032  15.757  27.730  11.656
50872W        W16033  16.336   4.868   0.076
50873W        W16034  13.773  32.906   1.816
50874W        W16035  42.256  13.412   1.297
50875W        W16036   6.905   4.415  14.000
50876W        W16037  29.206  30.786   2.711
50877W        W16038   8.695  34.419   4.586
50878W        W16039   0.113  13.875   2.055
50879W        W16040  27.832  25.505   3.625
50880W        W16041  42.921  31.340   3.734
50881W        W16042  21.790  40.504  14.427
50882W        W16043  14.200  18.087   2.373
50883W        W16044  38.373  36.870  11.718
50884W        W16045  38.403   0.212  14.944
50885W        W16046  22.764  38.031   0.344
50886W        W16047  29.705  20.061   0.664
50887W        W16048  42.504  29.897   1.415
50888W        W16049  18.734  18.809  11.593
50889W        W16050  41.753  16.840   3.269
50890W        W16051  38.811  22.787  11.138
50891W        W16052  11.256  26.720  14.308
50892W        W16053   5.786  24.148  14.221
50893W        W16054  21.293   2.452   4.632
50894W        W16055   4.317  17.668  14.337
50895W        W16056  40.619  25.182  14.073
50896W        W16057  12.599  21.009   0.449
50897W        W16058   4.237  15.332  12.034
50898W        W16059  21.560  23.254  14.793
50899W        W16060   5.794  23.783  10.368
50900W        W16061  24.082   1.884  14.161
50901W        W16062  44.053  44.717   4.660
50902W        W16063  13.293  37.454  10.658
50903W        W16064   1.057  30.155   3.654
50904W        W16065  16.523  24.103   1.429
50905W        W16066  34.545  17.542   4.946
50906W        W16067  41.457  24.147   1.613
50907W        W16068  37.121  17.718   1.337
50908W        W16069   1.980  26.555  12.825
50909W        W16070   2.472  40.541   0.207
50910W        W16071  41.909  43.502  13.020
50911W        W16072  27.306  21.732  12.123
50912W        W16073   5.429  24.382   5.515
50913W        W16074  41.526  39.789  13.037
50914W        W16075  40.957  23.865  12.858
50915W        W16076  31.601   8.640   5.190
50916W        W16077  35.063  18.873  14.339
50917W        W16078  36.500   7.477  13.942
50918W        W16079   8.097   8.259  12.467
50919W        W16080  42.830  15.100   4.837
50920W        W16081  40.846  12.514   4.911
50921W        W16082  16.239  15.620   2.015
50922W        W16083  44.429  35.493  10.282
50923W        W16084  27.257  26.900  11.783
50924W        W16085  23.771  12.089  13.066
50925W        W16086  41.976  16.679   4.400
50926W        W16087  43.603   8.265  13.423
50927W        W16088  34.597  22.778  14.791
50928W        W16089   6.227  15.483   0.099
50929W        W16090   6.597  33.400  11.105
50930W        W16091  21.515  27.370   1.872
50931W        W16092  23.370   4.370   4.303
50932W        W16093  37.148  11.405  12.556
50933W        W16094  33.124  23.041   3.718
50934W        W16095  44.409   0.498   2.258
50935W        W16096  13.779  37.919   1.652
50936W        W16097  38.880  43.588  14.551
50937W        W16098  29.725   7.223  10.386
50938W        W16099  34.869  32.101   0.715
50939W        W16100  36.809  39.052   4.059
50940W        W16101  43.536  18.442  14.866
50941W        W16102   4.286  39.606  13.693
50942W        W16103  37.144  18.684  11.666
50943W        W16104   6.689  16.898   4.646
50944W        W16105   8.763   3.779   4.841
50945W        W16106   2.234  21.099   1.661
50946W        W16107  19.743  23.752   2.809
50947W        W16108  42.996  14.062   2.753
50948W        W16109   2.881  34.555   3.912
50949W        W16110   4.632  44.849  12.501
50950W        W16111  24.179  43.272  12.042
50951W        W16112   1.239   9.734  13.700
50952W        W16113  12.187  10.980   0.391
50953W        W16114   3.824  19.228   3.572
50954W        W16115   6.186   5.474   2.564
50955W        W16116  16.011   2.667  12.446
50956W        W16117   4.427  14.267   0.824
50957W        W16118   1.860   0.222   3.896
50958W        W16119  30.912  32.871  12.981
50959W        W16120   1.852  40.332  12.116
50960W        W16121   6.913   5.520  13.964
50961W        W16122  34.061  35.128   0.011
50962W        W16123  14.674  13.646  13.070
50963W        W16124  18.653  28.711   1.203
50964W        W16125  25.981  19.908   1.844
50965W        W16126   5.026   2.778   0.002
50966W        W16127  19.261   7.131  14.113
50967W        W16128   3.489   3.865   3.203
50968W        W16129  18.205  20.542   1.630
50969W        W16130  19.276  43.366  11.393
50970W        W16131  23.100  31.691   2.128
50971W        W16132   8.663  32.956  11.937
50972W        W16133   3.192  31.670   2.294
50973W        W16134  13.630  18.883  10.587
50974W        W16135  31.576  14.741  12.952
50975W        W16136  18.319  14.496   1.828
50976W        W16137   6.897  21.634   3.885
50977W        W16138  30.142  19.866   0.449
50978W        W16139  23.165  15.509  14.089
50979W        W16140  26.583  15.751  11.080
50980W        W16141  36.977   4.809   4.032
50981W        W16142  40.830  32.536  11.452
50982W        W16143  18.029  25.509  14.001
50983W        W16144  34.993   7.969  10.806
50984W        W16145  33.607  17.721   4.071
50985W        W16146   0.315  26.906  11.132
50986W        W16147   3.196  41.783  14.849
50987W        W16148  43.767  35.410   5.072
50988W        W16149  26.059  18.488   4.824
50989W        W16150   3.504  43.032  10.755
50990W        W16151  42.569  39.452  14.770
50991W        W16152  33.877  23.799   3.948
50992W        W16153  30.587  40.945   2.810
50993W        W16154  31.073  21.519  13.854
50994W        W16155  13.603  24.866  13.499
50995W        W16156  10.786  42.471   4.667
50996W        W16157   6.253  31.649  14.598
50997W        W16158  33.779   2.537  14.483
50998W        W16159  12.642  22.490  14.949
50999W        W16160   9.842  30.075   1.869
51000W        W16161  25.132  10.270   5.008
51001W        W16162  15.238  25.679   3.234
51002W        W16163  10.588  15.362  12.015
51003W        W16164  36.503  16.676   3.189
51004W        W16165  42.045  36.370  12.076
51005W        W16166  26.703  10.344   1.261
51006W        W16167   2.415  24.050   0.942
51007W        W16168   6.280  25.010   4.631
51008W        W16169  16.744   7.967  11.197
51009W        W16170  33.538  22.001   2.950
51010W        W16171  15.327  21.939   3.173
51011W        W16172  17.724   2.878   4.340
51012W        W16173   9.631  15.214   1.986
51013W        W16174   5.429  22.423   2.378
51014W        W16175  10.470  17.814   2.342
51015W        W16176  35.974  11.783   1.645
51016W        W16177   6.975  19.829   3.624
51017W        W16178  25.085  18.703  14.244
51018W        W16179  30.914   5.314   1.747
51019W        W16180   7.322  42.993  14.476
51020W        W16181  34.150   2.486   0.321
51021W        W16182  10.242  19.012  13.575
51022W        W16183  23.486  15.758  12.035
51023W        W16184  16.871  39.781  11.192
51024W        W16185  34.628  12.034  13.555
51025W        W16186  21.068  24.598   0.465
51026W        W16187  28.111  10.173   4.194
51027W        W16188  15.331  31.678  13.473
51028W        W16189  40.641  41.998  10.832
51029W        W16190  29.650  41.166  10.177
51030W        W16191   2.807  39.472   3.311
51031W        W16192   9.483   7.879   3.451
51032W        W16193  20.267  21.204  11.510
51033W        W16194  22.058  14.607  14.048
51034W        W16195  15.448   5.259  12.932
51035W        W16196  29.709   3.981  13.040
51036W        W16197  40.007  23.246   4.250
51037W        W16198  13.806  37.427   0.962
51038W        W16199  33.343  10.380  14.220
51039W        W16200  15.142  44.579  14.385
51040W        W16201  38.079  39.779   3.144
51041W        W16202  33.501  38.761   3.980
51042W        W16203  14.252  34.137  11.498
51043W        W16204  31.357   8.311   3.014
51044W        W16205  16.092  11.203  11.180
51045W        W16206  26.766   6.018   0.563
51046W        W16207  36.329  19.297  12.503
51047W        W16208  37.568  32.914   0.949
51048W        W16209  24.210  25.235   2.651
51049W        W16210  28.023  31.400  12.922
51050W        W16211  14.910  18.141  14.382
51051W        W16212   2.250   2.540  14.865
51052W        W16213  18.369  33.122   1.813
51053W        W16214  32.998  41.473   0.737
51054W        W16215  25.005  39.865  14.291
51055W        W16216  13.294  28.227  10.289
51056W        W16217  14.311  19.589   3.309
51057W        W16218   5.072  29.973   3.537
51058W        W16219  37.057  34.259   1.212
51059W        W16220  25.102  27.162  10.579
51060W        W16221  23.270  24.628  14.211
51061W        W16222  25.284  15.217   4.516
51062W        W16223  19.786  35.100  11.912
51063W        W16224   6.413  18.811  14.315
51064W        W16225  17.325  34.616  13.936
51065W        W16226  38.588  21.707   0.407
51066W        W16227  27.078  25.702   1.922
51067W        W16228   1.418  15.863   9.853
51068W        W16229  44.361  38.072  11.655
51069W        W16230  24.797  34.584   4.599
51070W        W16231   9.831  23.811   1.289
51071W        W16232  37.048  14.174   1.018
51072W        W16233  17.638   1.938   0.384
51073W        W16234  16.838  16.510   3.193
51074W        W16235  21.117  26.468  12.090
51075W        W16236  19.761   8.763  13.474
51076W        W16237  43.729   8.258  11.542
51077W        W16238   6.651   8.091  14.819
51078W        W16239  44.965  24.876  14.969
51079W        W16240  17.116  12.294  14.988
51080W        W16241  11.554  35.000   1.310
51081W        W16242  30.500   7.574   1.466
51082W        W16243  38.569  27.076   1.647
51083W        W16244  16.844  20.115   1.630
51084W        W16245  17.716  38.905  14.265
51085W        W16246  44.972   4.828   4.715
51086W        W16247  37.936  29.674  13.424
51087W        W16248  31.532  13.987   1.442
51088W        W16249   4.360   1.810  13.777
51089W        W16250   8.877  43.570   1.706
51090W        W16251   8.631  20.205   0.931
51091W        W16252  19.270  26.556  13.422
51092W        W16253   8.344  25.945  13.310
51093W        W16254  26.413   0.905  12.019
51094W        W16255   6.438  39.242   4.198
51095W        W16256   0.068  22.197   0.412
51096W        W16257  44.426   4.398   4.639
51097W        W16258   8.721  36.659  11.102
51098W        W16259  39.820  36.134   1.326
51099W        W16260  18.440   1.969   3.365
51100W        W16261   7.639  42.058   0.899
51101W        W16262  25.935  23.121   1.235
51102W        W16263  16.667  17.712  13.335
51103W        W16264  13.790  40.961   9.842
51104W        W16265  31.831  41.138   3.179
51105W        W16266  17.729   4.657   4.600
51106W        W16267  23.377  11.805  14.290
51107W        W16268  21.520  15.741   2.553
51108W        W16269  36.457  20.555  13.841
51109W        W16270   2.682   7.922  12.502
51110W        W16271  21.900  29.685   3.242
51111W        W16272   6.343  14.089   5.066
51112W        W16273  36.155  17.743  14.738
51113W        W16274  16.914   3.390   9.803
51114W        W16275  22.642   0.761   2.382
51115W        W16276   9.784  36.504   0.810
51116W        W16277  20.065  19.208  12.538
51117W        W16278  28.613  13.031  13.537
51118W        W16279  26.975   6.348  14.622
51119W        W16280  33.444  43.040   4.583
51120W        W16281   9.451  29.442  14.890
51121W        W16282  21.688  17.138  10.656
51122W        W16283  11.194  13.836   0.417
51123W        W16284  17.035  26.728  11.567
51124W        W16285  40.079  41.285   1.213
51125W        W16286  39.271   7.331  14.964
51126W        W16287  15.627  43.916  12.931
51127W        W16288  26.536   6.900  11.494
51128W        W16289   3.376  13.940  12.542
51129W        W16290  16.167   3.942  14.851
51130W        W16291  38.613  12.703   3.617
51131W        W16292  20.413  23.789  11.023
51132W        W16293  33.679  19.518  12.503
51133W        W16294  10.835   0.387   3.618
51134W        W16295   5.638  22.995  11.501
51135W        W16296   8.626  26.481  10.530
51136W        W16297   2.205  30.198   5.089
51137W        W16298  42.417  12.260  10.699
51138W        W16299  16.968  11.098  11.986
51139W        W16300  35.372  18.096   2.024
51140W        W16301  11.351  23.579  10.717
51141W        W16302  35.125  29.193   2.328
51142W        W16303  44.886  39.597  11.477
51143W        W16304  40.563  14.236  11.575
51144W        W16305  43.264  22.451   1.173
51145W        W16306  40.357   8.293   2.974
51146W        W16307  33.858  34.369  11.521
51147W        W16308  19.306  27.524  10.740
51148W        W16309   1.233   6.212  14.909
51149W        W16310  16.762  24.568  13.635
51150W        W16311  33.689  12.723   2.776
51151W        W16312  27.800  44.850   3.394
51152W        W16313  22.162  12.915  10.575
51153W        W16314  28.068  29.082   1.570
51154W        W16315  26.968  15.644   9.788
51155W        W16316   4.383   8.369   1.671
51156W        W16317  37.615   1.429   3.005
51157W        W16318  15.165  12.158   1.976
51158W        W16319  23.325   8.153  13.802
51159W        W16320  15.800  24.559   0.472
51160W        W16321  14.380   2.757   1.289
51161W        W16322  29.701  15.697  13.066
51162W        W16323  13.774  40.853   1.176
51163W        W16324   4.285   2.901   3.362
51164W        W16325   4.936  22.053   1.757
51165W        W16326  33.683  26.972   1.766
51166W        W16327  17.635  22.228   1.809
51167W        W16328  36.354  26.496   0.008
51168W        W16329  15.673   9.904   3.638
51169W        W16330  36.516  41.374   0.559
51170W        W16331   2.873  19.207  13.001
51171W        W16332   4.480   5.757   2.791
51172W        W16333  42.112  20.928  11.675
51173W        W16334  26.227   3.941   0.003
51174W        W16335  42.431  13.079  14.334
51175W        W16336   7.455  29.521  14.782
51176W        W16337  34.799  20.582   4.089
51177W        W16338  23.584  32.965   1.433
51178W        W16339  38.714  37.664   4.237
51179W        W16340  15.334   7.842   2.247
51180W        W16341  33.830  32.118  13.228
51181W        W16342  11.208  26.529  14.828
51182W        W16343   3.677  31.023   2.913
51183W        W16344   5.738  34.871   4.697
51184W        W16345  32.617   8.761   1.376
51185W        W16346   3.727   6.399  11.621
51186W        W16347   3.991   4.901   2.745
51187W        W16348   9.256  42.316  14.847
51188W        W16349  41.561  19.176  14.787
51189W        W16350   6.130  30.370   0.739
51190W        W16351  33.146  31.471  13.373
51191W        W16352  20.362  37.342  11.460
51192W        W16353   1.965  42.939  10.698
51193W        W16354  44.690   5.145  13.454
51194W        W16355  11.920  37.999  11.006
51195W        W16356  34.453  27.175  11.880
51196W        W16357   6.980   9.424   0.302
51197W        W16358   9.100  23.571  14.849
51198W        W16359  24.532  22.208  14.850
51199W        W16360   7.144  12.071   0.803
51200W        W16361  14.904  17.198   3.188
51201W        W16362  22.985   4.557  11.973
51202W        W16363  36.120  25.951  14.309
51203W        W16364  18.111  13.700  10.211
51204W        W16365  43.438   3.356   2.318
51205W        W16366  19.513   5.657  12.302
51206W        W16367   3.426  18.798   0.440
51207W        W16368   0.986  31.066   2.258
51208W        W16369   0.945  37.650   4.142
51209W        W16370  31.743  37.088   4.137
51210W        W16371   2.911  24.631   0.452
51211W        W16372   4.989  37.625   0.450
51212W        W16373   3.227  35.520   1.203
51213W        W16374   0.795  22.115   2.208
51214W        W16375  42.601  24.080   0.815
51215W        W16376  10.924  14.278   0.848
51216W        W16377  40.364  29.576  12.543
51217W        W16378  37.578  40.045  11.143
51218W        W16379  18.006   8.197  14.320
51219W        W16380  41.324   9.330   4.703
51220W        W16381   9.374  29.096   0.378
51221W        W16382  26.550  19.990   3.142
51222W        W16383  22.038   3.246  10.583
51223W        W16384  26.000  25.218  13.012
51224W        W16385  20.129   0.347   3.683
51225W        W16386   1.235  29.802   5.129
51226W        W16387  13.697  12.122   0.233
51227W        W16388   5.910  17.548   1.683
51228W        W16389  22.038   3.770  13.351
51229W        W16390  36.035  11.849  14.307
51230W        W16391  41.296  44.940  14.755
51231W        W16392  34.439   4.780   1.310
51232W        W16393  42.018  29.750   1.642
51233W        W16394  35.333  16.617   4.729
51234W        W16395  43.952   3.372   1.841
51235W        W16396  26.253  34.565  10.675
51236W        W16397  10.083  27.084  14.507
51237W        W16398  13.593  43.233  11.808
51238W        W16399  36.547  43.254   2.780
51239W        W16400  29.631  27.910   0.834
51240W        W16401  10.805  36.667  13.186
51241W        W16402  19.413  24.718  10.431
51242W        W16403  33.722  38.112   2.376
51243W        W16404  27.997  25.965  11.009
51244W        W16405  15.585  19.997   2.247
51245W        W16406   6.153   3.892   0.229
51246W        W16407  43.755  13.732   1.470
51247W        W16408  37.473  30.028  12.680
51248W        W16409  31.038  36.775   3.779
51249W        W16410  33.942  37.014   1.391
51250W        W16411  34.514  22.947   4.713
51251W        W16412  27.319  10.134  12.518
51252W        W16413  44.109  40.536  12.648
51253W        W16414   5.392  35.813  14.883
51254W        W16415   6.117   4.241   0.815
51255W        W16416  34.542  10.715  11.453
51256W        W16417  22.541  20.584   4.560
51257W        W16418  31.578  38.494   5.450
51258W        W16419  34.816   1.479   1.655
51259W        W16420  19.767  10.675   0.769
51260W        W16421  21.207  29.857   2.867
51261W        W16422  31.530  29.648  12.392
51262W        W16423  28.513  18.496  14.753
51263W        W16424  23.946  11.114  14.045
51264W        W16425   4.627  43.544  11.350
51265W        W16426  25.495  34.235  14.281
51266W        W16427  44.925  20.147  11.158
51267W        W16428  42.779  44.515   2.464
51268W        W16429  36.606  10.495  10.137
51269W        W16430  38.103  39.282   0.947
51270W        W16431  27.179   7.633   0.282
51271W        W16432  43.332  29.790  11.891
51272W        W16433   3.754   1.312   2.524
51273W        W16434  13.783  36.956   0.287
51274W        W16435  39.073  30.447   2.463
51275W        W16436   1.813  19.544   3.693
51276W        W16437  18.091  20.985   1.914
51277W        W16438  17.607  35.953   0.975
51278W        W16439  26.392  19.923  10.883
51279W        W16440  17.855  35.388  13.767
51280W        W16441   1.106  42.572   2.894
51281W        W16442  21.119  26.507   5.028
51282W        W16443  38.563  31.103  11.176
51283W        W16444  38.916   9.102   2.117
51284W        W16445   1.146  17.126   0.209
51285W        W16446  28.649  37.824  13.932
51286W        W16447  43.564   8.985   0.667
51287W        W16448   1.281  22.266   2.953
51288W        W16449   9.665  12.127  12.623
51289W        W16450   7.706   6.215  11.736
51290W        W16451  29.443  11.481   3.224
51291W        W16452  28.125   7.799   2.259
51292W        W16453  21.062  26.772   0.267
51293W        W16454  14.358  17.325   2.378
51294W        W16455  27.989   7.003   1.808
51295W        W16456  41.708  23.033  12.061
51296W        W16457  44.570   4.192   1.586
51297W        W16458  39.663  35.219   4.227
51298W        W16459  25.793   6.201  13.572
51299W        W16460  21.893  17.141   9.814
51300W        W16461  26.507  26.066  10.862
51301W        W16462  21.713  28.922   4.407
51302W        W16463  11.194  41.934   0.321
51303W        W16464  12.939  12.666   0.407
51304W        W16465  28.949  31.105   3.016
51305W        W16466   7.157  32.616   1.743
51306W        W16467  27.006   7.446  12.959
51307W        W16468  17.253  11.166   2.626
51308W        W16469  36.606  29.516   0.687
51309W        W16470   1.223  36.789   2.689
51310W        W16471   9.372  41.424   3.016
51311W        W16472  26.254  17.336  13.546
51312W        W16473  44.832  15.611   3.321
51313W        W16474  28.160  29.527   4.060
51314W        W16475  23.022  16.361  14.738
51315W        W16476  34.394  34.393   2.314
51316W        W16477  28.066   5.220   2.366
51317W        W16478   7.971   7.343   1.895
51318W        W16479  27.896   0.486  11.566
51319W        W16480  38.900  32.517  11.104
51320W        W16481  14.952  38.776   4.231
51321W        W16482   4.986  33.126  11.162
51322W        W16483   3.974  16.718  12.810
51323W        W16484  18.577  21.160  14.359
51324W        W16485  18.008  12.574  11.606
51325W        W16486  23.693  14.320  10.680
51326W        W16487  11.789  17.154  13.802
51327W        W16488   1.457   5.709  13.779
51328W        W16489  21.579  43.978   1.694
51329W        W16490  38.593  13.623  14.904
51330W        W16491  19.686   0.751  14.960
51331W        W16492  18.043  22.938   3.606
51332W        W16493  43.694  27.481   1.297
51333W        W16494  33.428  29.529  12.528
51334W        W16495   2.522   1.772  12.997
51335W        W16496  27.650  13.290   0.855
51336W        W16497  17.965  20.819  13.126
51337W        W16498  41.999  15.294  11.150
51338W        W16499  39.558  21.211  11.505
51339W        W16500  37.453  40.924  12.100
51340W        W16501  14.568  31.662  11.501
51341W        W16502  14.209  18.544   0.960
51342W        W16503  25.246  34.571   3.184
51343W        W16504   0.834   0.163   0.426
51344W        W16505  40.042   7.718  13.987
51345W        W16506  14.608  34.479  10.637
51346W        W16507  37.080  15.319  10.746
51347W        W16508  11.697  38.057   1.363
51348W        W16509  34.802   0.738   1.109
51349W        W16510  11.253  24.167   0.764
51350W        W16511  12.286  16.472   3.101
51351W        W16512  42.403   0.342   3.080
51352W        W16513  17.159  32.339   2.801
51353W        W16514  21.314  26.954   3.776
51354W        W16515   9.340  32.156  13.440
51355W        W16516  22.392   1.345   0.475
51356W        W16517  17.074  35.455  14.009
51357W        W16518  21.778  27.484   2.858
51358W        W16519   8.733  30.720   3.825
51359W        W16520  40.929  38.566   2.397
51360W        W16521   5.536  12.871   1.186
51361W        W16522  38.919  21.429  12.964
51362W        W16523  35.929   8.697  10.861
51363W        W16524  31.540  24.624  12.861
51364W        W16525  17.134  13.102   3.131
51365W        W16526  17.138  43.037  11.715
51366W        W16527  40.546  35.629   1.632
51367W        W16528  29.953  36.757  10.677
51368W        W16529  20.532   5.825  11.536
51369W        W16530   7.718  21.432   3.254
51370W        W16531  29.297   4.009  11.806
51371W        W16532   7.231  22.001   3.624
51372W        W16533  32.146  35.592   1.640
51373W        W16534  23.489   7.871  11.584
51374W        W16535  22.375  19.606   5.034
51375W        W16536   6.118  25.637  13.940
51376W        W16537  38.031  28.027  13.930
51377W        W16538   5.126  18.724  13.871
51378W        W16539   8.456   0.354   0.674
51379W        W16540  21.511   5.433  13.002
51380W        W16541  14.676   6.074   0.418
51381W        W16542  25.825  37.505   2.938
51382W        W16543  41.567  16.199   3.781
51383W        W16544  13.558  36.469  11.642
51384W        W16545  42.980  19.471   1.300
51385W        W16546  29.909  19.639   3.556
51386W        W16547  17.489  35.689  10.316
51387W        W16548   7.690  35.040  12.191
51388W        W16549  17.298  14.692   0.736
51389W        W16550  25.615  18.787   1.678
51390W        W16551  17.077   9.915   0.532
51391W        W16552  38.350  36.842   2.583
51392W        W16553  10.259  23.494   0.393
51393W        W16554  42.511  44.375   2.032
51394W        W16555  21.554  35.082  12.550
51395W        W16556  41.238  37.580   1.781
51396W        W16557  12.447  42.343  11.957
51397W        W16558   7.381   6.220   4.534
51398W        W16559  34.116  41.483  13.936
51399W        W16560   7.140  20.133  12.620
51400W        W16561  20.614  43.510   4.650
51401W        W16562  23.483  17.161  12.021
51402W        W16563  17.884  38.248   2.562
51403W        W16564   3.274  44.032   2.816
51404W        W16565  31.976  22.218   0.708
51405W        W16566  34.089  27.499   2.937
51406W        W16567  23.298   6.512   2.264
51407W        W16568  29.789  34.132  13.854
51408W        W16569  15.288  10.296  11.462
51409W        W16570  40.868  13.335   1.344
51410W        W16571   9.884  21.517   1.230
51411W        W16572  28.308  17.333  13.048
51412W        W16573  35.126  43.144  12.170
51413W        W16574   3.242  33.930  10.659
51414W        W16575  27.917  42.057  14.808
51415W        W16576  14.355   9.744   4.162
51416W        W16577   4.274  42.022   2.663
51417W        W16578  26.054   1.176   3.331
51418W        W16579  18.078  24.450  13.070
51419W        W16580  18.455   7.765  10.718
51420W        W16581  25.484  19.649   2.678
51421W        W16582  19.820  39.012   0.406
51422W        W16583  15.929  12.971  14.462
51423W        W16584   7.672   7.177  10.859
51424W        W16585  10.586  28.066   1.119
51425W        W16586  23.626  29.826  11.543
51426W        W16587  40.371  40.995  14.059
51427W        W16588  12.617  36.535   3.970
51428W        W16589  19.552  17.868   2.478
51429W        W16590   2.313  20.128  12.396
51430W        W16591  42.387   4.194   1.303
51431W        W16592  21.516   8.798   2.773
51432W        W16593  16.765  44.856  12.458
51433W        W16594  16.811  25.676  14.887
51434W        W16595   0.653  37.478  10.457
51435W        W16596  17.032  35.913  13.769
51436W        W16597  29.413  19.127   0.731
51437W        W16598  16.113  20.124  13.225
51438W        W16599  12.792  12.914   2.680
51439W        W16600  42.383  41.465   4.323
51440W        W16601  35.429  17.490   4.847
51441W        W16602  38.909   3.982  11.554
51442W        W16603  37.423  37.863  12.791
51443W        W16604   9.648  18.588  12.016
51444W        W16605  13.356  30.253   2.782
51445W        W16606  22.637  39.458   4.975
51446W        W16607  28.401  24.178  12.462
51447W        W16608  39.654  42.503  12.833
51448W        W16609  13.956  11.698  10.753
51449W        W16610  42.935  37.676   4.462
51450W        W16611  29.000   3.679  11.045
51451W        W16612  10.938  29.128  13.823
51452W        W16613   4.830  25.846  13.474
51453W        W16614  40.799  33.543   1.033
51454W        W16615  34.991  42.647  12.083
51455W        W16616  30.993   6.781   3.810
51456W        W16617  22.116  33.626   0.158
51457W        W16618  24.491   9.645  13.119
51458W        W16619  17.133   7.398  12.432
51459W        W16620   3.756  20.476   3.798
51460W        W16621  14.099   6.876   4.340
51461W        W16622   0.539  27.072  12.969
51462W        W16623  35.570   6.159  11.542
51463W        W16624  36.667  44.980  11.061
51464W        W16625   9.255   5.628  11.954
51465W        W16626  28.959  22.692  13.338
51466W        W16627  14.130  34.485   2.889
51467W        W16628  44.026   1.861  11.652
51468W        W16629   0.980   5.703  10.659
51469W        W16630   2.910  18.216   3.659
51470W        W16631  15.579  10.410   3.535
51471W        W16632  43.795   8.978   1.800
51472W        W16633  41.425   3.455   3.652
51473W        W16634  17.129  32.948   0.390
51474W        W16635  23.474  43.448  12.575
51475W        W16636  15.062  10.903  14.057
51476W        W16637  10.525  18.456   4.490
51477W        W16638  26.522  18.078  10.764
51478W        W16639   7.746   4.441  12.630
51479W        W16640  27.911  21.993  14.810
51480W        W16641  13.975  21.079   4.101
51481W        W16642  15.008  22.716  14.289
51482W        W16643  28.511  15.043  10.694
51483W        W16644   6.292   4.211  13.313
51484W        W16645  31.648  13.239   2.343
51485W        W16646  14.338  23.448   2.756
51486W        W16647  17.351   0.155  13.915
51487W        W16648  30.237  44.715  11.504
51488W        W16649  30.170  36.683  13.970
51489W        W16650  30.192  25.108  14.811
51490W        W16651  38.052  28.622   2.170
51491W        W16652  37.574  18.800  14.836
51492W        W16653  22.728  30.920  13.910
51493W        W16654   8.043  27.058   4.730
51494W        W16655  37.748   4.682   2.328
51495W        W16656  20.772  27.313  10.502
51496W        W16657  41.256   4.858  12.025
51497W        W16658   8.966   6.680  10.981
51498W        W16659  42.810  18.273   2.598
51499W        W16660  14.470  17.800   0.094
51500W        W16661  15.828  29.852  12.051
51501W        W16662  10.630  14.408  13.079
51502W        W16663  15.556  22.599  13.521
51503W        W16664  20.342  17.842  13.553
51504W        W16665   2.355  24.798  10.660
51505W        W16666  30.114  14.576   2.532
51506W        W16667  28.438  33.515   0.862
51507W        W16668  11.134  19.322   1.248
51508W        W16669  20.227  13.196   1.866
51509W        W16670  42.756  26.203  12.904
51510W        W16671  10.718  19.157  12.474
51511W        W16672  19.603   9.845  14.923
51512W        W16673  37.475  43.973  13.419
51513W        W16674   4.892  21.228  10.495
51514W        W16675  36.865  11.338  13.077
51515W        W16676  17.268  22.275  13.593
51516W        W16677  26.217  40.429  12.079
51517W        W16678  33.855  35.300   4.466
51518W        W16679   1.798   7.686  13.966
51519W        W16680  19.059  35.632   4.114
51520W        W16681   2.165  14.967  12.851
51521W        W16682   9.144  25.041  14.877
51522W        W16683  26.554   2.608   0.115
51523W        W16684  33.525  39.430   3.040
51524W        W16685  35.106  27.936   0.477
51525W        W16686  43.858  38.527   3.709
51526W        W16687  34.336  26.686  11.617
51527W        W16688   7.565  37.152   4.856
51528W        W16689  30.433  14.497  13.787
51529W        W16690  36.938   7.599   0.367
51530W        W16691  13.396  27.138  11.713
51531W        W16692  44.234  17.931   4.572
51532W        W16693  18.543  34.209   3.808
51533W        W16694  11.773  13.703   1.657
51534W        W16695  41.817  35.299   1.706
51535W        W16696   6.902  44.362   2.720
51536W        W16697  36.882  20.817  13.979
51537W        W16698  23.760  40.937   1.371
51538W        W16699   8.317   7.358   3.637
51539W        W16700  11.725  11.613   3.203
51540W        W16701  14.079  30.622   1.848
51541W        W16702  10.657  15.212   3.321
51542W        W16703  30.468  31.416   1.390
51543W        W16704  20.774  11.768  13.096
51544W        W16705  41.997  27.239   4.203
51545W        W16706  32.980  35.712  14.436
51546W        W16707  31.546  11.777   1.355
51547W        W16708  42.740  16.284   1.735
51548W        W16709   6.865   5.195   3.086
51549W        W16710  11.600   4.254  12.408
51550W        W16711   3.314  36.917  14.383
51551W        W16712   8.608  24.968   4.627
51552W        W16713  16.196  30.065   3.197
51553W        W16714  36.043  27.976  14.460
51554W        W16715  21.119  14.336   1.338
51555W        W16716  25.298   4.216  12.870
51556W        W16717  35.917  38.531   4.161
51557W        W16718  42.473  23.076   4.102
51558W        W16719  32.785   6.139   4.601
51559W        W16720  10.880  30.511   0.747
51560W        W16721   6.306  22.052  13.982
51561W        W16722   0.333  25.921   0.108
51562W        W16723  21.690  19.042  13.587
51563W        W16724  38.983  17.331   1.404
51564W        W16725   4.864  11.307   2.688
51565W        W16726   5.770  35.125  14.515
51566W        W16727  33.990  15.707  12.409
51567W        W16728  13.892  44.833  12.835
51568W        W16729  43.828  22.414   2.995
51569W        W16730  15.825  12.237   0.865
51570W        W16731   4.863  31.905  12.418
51571W        W16732  32.490  18.859  13.701
51572W        W16733  26.630  27.359   0.846
51573W        W16734   0.670   3.733  13.274
51574W        W16735  15.154   0.641  11.262
51575W        W16736   8.375  13.642  11.209
51576W        W16737  10.137  13.686   3.786
51577W        W16738  34.665  34.195  13.996
51578W        W16739  15.059  33.938  12.436
51579W        W16740  39.263  29.158  12.937
51580W        W16741  14.295   2.503  10.919
51581W        W16742   4.701   5.881   3.278
51582W        W16743   2.908  28.438   1.926
51583W        W16744  22.601  37.696   3.291
51584W        W16745  22.424  34.936  14.968
51585W        W16746  15.797  14.593   0.959
51586W        W16747   2.789   8.763   1.409
51587W        W16748  17.740  10.229   4.910
51588W        W16749  13.100  38.333  14.298
51589W        W16750  42.271  24.112   3.167
51590W        W16751   5.904  38.827   1.907
51591W        W16752   8.400  18.763  12.519
51592W        W16753  40.327   3.847   2.380
51593W        W16754  31.234  17.713   2.196
51594W        W16755  13.101  22.444  11.198
51595W        W16756  44.844   5.649  13.381
51596W        W16757  13.328   3.561   3.072
51597W        W16758  42.937  36.853  13.466
51598W        W16759  34.602  43.648   4.972
51599W        W16760  26.001  19.971  11.480
51600W        W16761  40.425   5.747   1.341
51601W        W16762   9.613   6.652  10.765
51602W        W16763  23.621  40.123  14.852
51603W        W16764   8.121   8.121  14.893
51604W        W16765  16.465  37.934  13.029
51605W        W16766  20.336  20.687  10.724
51606W        W16767  34.586  38.453  12.309
51607W        W16768  11.623  31.407   4.160
51608W        W16769  22.587  15.669   4.991
51609W        W16770  28.973   6.279  12.411
51610W        W16771   5.763  34.053  10.805
51611W        W16772  16.018   5.259  10.148
51612W        W16773  44.022  12.067  12.600
51613W        W16774  20.060  13.137   1.359
51614W        W16775  21.032  34.065   3.922
51615W        W16776  13.257  15.627  14.460
51616W        W16777  44.586   1.941   0.850
51617W        W16778  24.975   2.825   0.248
51618W        W16779  27.716  36.042  11.610
51619W        W16780  35.947  32.685   1.349
51620W        W16781  16.102  20.532   1.331
51621W        W16782   8.888  20.477   1.377
51622W        W16783   9.265  33.413  12.905
51623W        W16784  12.722  23.525   1.761
51624W        W16785   2.415  41.282   4.303
51625W        W16786  10.639  19.003   4.541
51626W        W16787  27.493  20.026  14.543
51627W        W16788  36.532  36.974  10.799
51628W        W16789  17.538  19.106  11.355
51629W        W16790  36.043  17.336   3.651
51630W        W16791  33.956  12.061  13.845
51631W        W16792  40.377  10.768  12.770
51632W        W16793  11.195  25.621   1.422
51633W        W16794  10.266  37.481  14.376
51634W        W16795  15.603  14.211  11.154
51635W        W16796  24.101  13.826  14.318
51636W        W16797  42.984  11.893   2.893
51637W        W16798  14.736  12.611  14.481
51638W        W16799  13.815  29.062   4.885
51639W        W16800  25.094  35.542  10.667
51640W        W16801  24.016  40.299   3.047
51641W        W16802  34.305  34.531   4.519
51642W        W16803  27.963  27.958   3.539
51643W        W16804  26.666  37.498  11.885
51644W        W16805   1.652  18.746   0.775
51645W        W16806  36.393  30.498  12.148
51646W        W16807   5.237  16.334  13.846
51647W        W16808  14.586  42.120   0.101
51648W        W16809   3.867   8.482   1.806
51649W        W16810  17.116  33.450   0.611
51650W        W16811  25.625   2.496   3.156
51651W        W16812   6.903  22.471  12.315
51652W        W16813  10.748  35.028   1.886
51653W        W16814  12.540   4.032  14.467
51654W        W16815  35.845  40.474   2.793
51655W        W16816  24.403  35.295   1.761
51656W        W16817  15.166   3.785  10.712
51657W        W16818  42.559  27.189  11.471
51658W        W16819   0.063   4.486  14.938
51659W        W16820  40.838  10.773  14.845
51660W        W16821  33.497  12.539  10.262
51661W        W16822  38.645   9.360  14.408
51662W        W16823  32.409  23.325   2.764
51663W        W16824  34.049  12.176   0.839
51664W        W16825  18.153  26.167   0.800
51665W        W16826  29.911  27.503  13.160
51666W        W16827  32.828   9.752  14.510
51667W        W16828   9.894  13.115   1.280
51668W        W16829  20.929  15.785   1.379
51669W        W16830  10.207  12.402   3.357
51670W        W16831  14.732  44.758   4.229
51671W        W16832  37.870  23.434   1.403
51672W        W16833   4.755  27.580   2.623
51673W        W16834  25.672  13.894   1.351
51674W        W16835   7.857  17.636   0.406
51675W        W16836  36.807  30.801  14.406
51676W        W16837  39.912   3.427  14.565
51677W        W16838  27.569   6.422  13.441
51678W        W16839   3.647  25.094   4.916
51679W        W16840  41.790  23.282   2.169
51680W        W16841  17.599   4.348  13.610
51681W        W16842  30.648  13.340   1.382
51682W        W16843  18.508   8.845   1.038
51683W        W16844  22.935   8.755  10.855
51684W        W16845  42.258  16.670   3.274
51685W        W16846  24.245  43.417   1.786
51686W        W16847   3.896  19.172  12.566
51687W        W16848  43.021   3.052   4.972
51688W        W16849   8.368  32.137   1.922
51689W        W16850  41.873  23.939   2.805
51690W        W16851  38.096   1.217   3.089
51691W        W16852  43.489  31.674   2.737
51692W        W16853  37.914   1.582   4.070
51693W        W16854  16.820  14.643   1.844
51694W        W16855  24.135   4.252   3.155
51695W        W16856   8.401  18.485   0.268
51696W        W16857   7.208  32.498   3.998
51697W        W16858  38.915   2.234  13.185
51698W        W16859   5.010   9.683   1.713
51699W        W16860  23.334  40.346  12.046
51700W        W16861   6.130   8.871   3.276
51701W        W16862  27.968  12.089  12.428
51702W        W16863  33.906  27.723  13.411
51703W        W16864  22.610  31.952   2.134
51704W        W16865  24.512   9.183  12.788
51705W        W16866  13.916   6.187  14.936
51706W        W16867  19.527  25.498   5.096
51707W        W16868  18.233   9.372   3.174
51708W        W16869  35.739  16.292  11.158
51709W        W16870  15.712  31.643   1.851
51710W        W16871  12.925  42.479  12.001
51711W        W16872  42.273   2.272  14.290
51712W        W16873  10.218  43.780  11.640
51713W        W16874   8.975   6.460  14.074
51714W        W16875  39.767  35.988  11.091
51715W        W16876  14.697  18.474   3.264
51716W        W16877  31.633  33.414   0.338
51717W        W16878  33.435  10.278  12.962
51718W        W16879   9.393   0.782   1.961
51719W        W16880  29.898   6.876   1.822
51720W        W16881  25.569  28.975   1.671
51721W        W16882  31.444  26.880   2.244
51722W        W16883  35.103  32.581   0.843
51723W        W16884   1.003  29.352   1.263
51724W        W16885   3.233  32.027  13.549
51725W        W16886  20.476  10.519  13.096
51726W        W16887  29.575  27.056   1.084
51727W        W16888  40.794  43.322   3.273
51728W        W16889  28.517  37.763   4.629
51729W        W16890  20.636  19.516   0.372
51730W        W16891   0.801  31.883  13.115
51731W        W16892  14.767  42.908  11.365
51732W        W16893   2.868  37.949   1.944
51733W        W16894  15.765   7.343  12.817
51734W        W16895  30.426  18.598   4.331
51735W        W16896   8.779  41.283  12.061
51736W        W16897  13.046  24.929  13.052
51737W        W16898  17.994  20.064  10.754
51738W        W16899  13.539  26.738  13.872
51739W        W16900  24.229  30.565   0.102
51740W        W16901  30.493  18.847   2.242
51741W        W16902  16.627  43.513  12.502
51742W        W16903  33.037  15.157   1.447
51743W        W16904  31.627  25.209  12.220
51744W        W16905  15.246  19.235   3.264
51745W        W16906  33.271  21.129  10.286
51746W        W16907  17.326  20.442  12.500
51747W        W16908  23.092  18.056   3.782
51748W        W16909   3.913  16.753   0.207
51749W        W16910  41.089  24.068  14.010
51750W        W16911   9.276   8.900   4.087
51751W        W16912  11.643  23.442   4.150
51752W        W16913   6.363   9.797  11.988
51753W        W16914  22.215  42.416   0.045
51754W        W16915  34.737  36.469   5.703
51755W        W16916  42.337  31.900   2.470
51756W        W16917  43.107  40.537  12.481
51757W        W16918  44.912   8.385   5.029
51758W        W16919   4.560  22.160   2.135
51759W        W16920  13.308  38.483  12.086
51760W        W16921  27.945  32.433  11.701
51761W        W16922  24.725   8.603  11.233
51762W        W16923  44.079   3.920  14.496
51763W        W16924   4.930  24.014   4.621
51764W        W16925  16.512  32.697  14.307
51765W        W16926  41.017   9.133   1.023
51766W        W16927  37.002   7.118   3.903
51767W        W16928  26.410  32.219  13.145
51768W        W16929  12.327  24.682  14.518
51769W        W16930  25.586  11.205  14.334
51770W        W16931  11.513  39.605   4.130
51771W        W16932   9.250  29.912  14.999
51772W        W16933  28.415  11.102  14.885
51773W        W16934  40.700  11.802  13.363
51774W        W16935  25.443  24.595   0.177
51775W        W16936  25.945  25.461  14.919
51776W        W16937  27.998  24.363   2.017
51777W        W16938   7.491  11.272  11.365
51778W        W16939  15.335  37.996   0.314
51779W        W16940  18.058  13.089  11.578
51780W        W16941   0.310   7.404   3.735
51781W        W16942  37.666  38.226   4.943
51782W        W16943  29.595  22.172   0.230
51783W        W16944   1.405  41.384   2.386
51784W        W16945  25.224   2.896  12.700
51785W        W16946  26.411  35.176   1.191
51786W        W16947  20.031  36.946  13.951
51787W        W16948  19.535   7.123   2.349
51788W        W16949   9.344  41.038   3.394
51789W        W16950  21.576   6.343  14.906
51790W        W16951  25.696   9.597   0.468
51791W        W16952  37.437  25.961   3.386
51792W        W16953  28.560   1.467  12.308
51793W        W16954  39.915   2.970   2.740
51794W        W16955   3.926  17.082   4.447
51795W        W16956  12.902  44.239  14.732
51796W        W16957  23.617   3.796   0.395
51797W        W16958   6.177  39.369   3.285
51798W        W16959  28.655  22.207  13.523
51799W        W16960  28.589  42.870   3.563
51800W        W16961  26.027  26.144   0.842
51801W        W16962  35.701  29.137  13.817
51802W        W16963  24.031  32.131   4.111
51803W        W16964  33.511  33.454  12.239
51804W        W16965  25.606   8.396   4.012
51805W        W16966  31.727  22.789   2.552
51806W        W16967  11.125  12.094  14.349
51807W        W16968  10.604   9.099  13.976
51808W        W16969  35.854  44.919  12.918
51809W        W16970  15.411  44.085   5.421
51810W        W16971  43.658   2.968  14.808
51811W        W16972  39.480   8.363  14.018
51812W        W16973   8.340   7.338   1.409
51813W        W16974  34.692   5.848   3.642
51814W        W16975  36.168   8.417   1.754
51815W        W16976  26.981   2.710  14.126
51816W        W16977  16.556  38.888   3.587
51817W        W16978  33.182  24.223  11.604
51818W        W16979  42.959  38.405  13.855
51819W        W16980  26.608   3.397   3.069
51820W        W16981  39.504  21.630  11.209
51821W        W16982  36.418  34.906   0.462
51822W        W16983  43.703  14.053   3.291
51823W        W16984  43.465  40.417   1.330
51824W        W16985  43.492  12.774   1.825
51825W        W16986  18.299   3.608  11.898
51826W        W16987   5.712  11.204  11.811
51827W        W16988   2.581  18.817   0.378
51828W        W16989  18.579   3.460  10.743
51829W        W16990  16.163   8.668  12.382
51830W        W16991   4.428  20.165   2.226
51831W        W16992  27.410   7.844  14.882
51832W        W16993  37.115   6.399  11.125
51833W        W16994  24.083  37.863  14.007
51834W        W16995  42.785  28.046   3.268
51835W        W16996  42.506   3.358   0.870
51836W        W16997   8.631  19.493  13.835
51837W        W16998  22.112  18.696   1.032
51838W        W16999  20.093  18.778   9.717
51839W        W17000  14.693  42.310   1.670
51840W        W17001  11.910  18.337   4.671
51841W        W17002   1.867  12.174   0.135
51842W        W17003  17.980  17.892   4.298
51843W        W17004  17.294  30.132   3.657
51844W        W17005  15.977  28.013  10.122
51845W        W17006  38.440  39.623   0.260
51846W        W17007  35.546   9.353   3.680
51847W        W17008  13.251  27.929   3.999
51848W        W17009   3.731  42.182   3.748
51849W        W17010   7.946  37.595   3.851
51850W        W17011  40.955   1.317   3.748
51851W        W17012   6.677   6.924  11.964
51852W        W17013  25.189   6.833  11.300
51853W        W17014  37.078  25.454  13.894
51854W        W17015  32.330  25.632  14.448
51855W        W17016  19.099  14.252   0.948
51856W        W17017  35.377  15.539  10.213
51857W        W17018  15.648  13.500   3.634
51858W        W17019  33.134  28.984  10.717
51859W        W17020  13.395  36.152   0.747
51860W        W17021  40.879  44.411  12.488
51861W        W17022  38.784  39.971   0.039
51862W        W17023   5.515  18.668   2.224
51863W        W17024  13.802  12.959  13.275
51864W        W17025   1.906  32.946  14.591
51865W        W17026  11.055   3.812   3.401
51866W        W17027  14.236  23.954   2.785
51867W        W17028  22.913   4.268  11.402
51868W        W17029  13.450  10.953   0.880
51869W        W17030   2.864  19.494   3.402
51870W        W17031  22.761  31.691   3.151
51871W        W17032  19.597  12.961  13.941
51872W        W17033   9.350   5.619  13.964
51873W        W17034  11.198  22.620   0.167
51874W        W17035  41.417  21.309   0.797
51875W        W17036  19.564  27.885   3.425
51876W        W17037  13.349  29.065   4.633
51877W        W17038  16.171   9.016   4.879
51878W        W17039   9.777   7.705  11.153
51879W        W17040  36.871  44.728  11.862
51880W        W17041   2.937  24.246  13.916
51881W        W17042   0.536  10.380  11.050
51882W        W17043  27.774  36.906   4.220
51883W        W17044  22.515  25.682  10.963
51884W        W17045   5.426  34.925   2.273
51885W        W17046  22.619  15.749  13.877
51886W        W17047   2.966   7.467   1.376
51887W        W17048  21.226  22.341   1.327
51888W        W17049   5.363  12.061  14.401
51889W        W17050  31.480   1.806  12.012
51890W        W17051  16.274  10.809   4.678
51891W        W17052  33.481  25.435   1.888
51892W        W17053  31.514  28.598   2.704
51893W        W17054   0.469   4.682  13.143
51894W        W17055   7.810  13.265   4.242
51895W        W17056  23.603  22.447   0.863
51896W        W17057   9.870   3.255   4.813
51897W        W17058  21.059  35.057   0.498
51898W        W17059  22.844  32.063  11.811
51899W        W17060  30.234  34.176   1.836
51900W        W17061   0.462  12.628   0.445
51901W        W17062  22.771  32.723   0.820
51902W        W17063  17.730   6.264  13.648
51903W        W17064  39.725  35.580   0.203
51904W        W17065  23.038  38.106  12.451
51905W        W17066  23.517  41.332   0.932
51906W        W17067  43.442  34.313   9.848
51907W        W17068  16.544  30.011  12.328
51908W        W17069  25.047   3.315   0.406
51909W        W17070   7.739  41.538   3.656
51910W        W17071  21.626  34.772   1.569
51911W        W17072  10.663  33.555   3.066
51912W        W17073  20.609  19.522  14.368
51913W        W17074  38.375  31.640   4.202
51914W        W17075  21.131  20.134   2.292
51915W        W17076  29.940  19.180   1.265
51916W        W17077   1.545   1.484   1.850
51917W        W17078   4.302  18.687   4.041
51918W        W17079  16.363  34.113   3.118
51919W        W17080  31.063  29.439  10.276
51920W        W17081  32.485   0.475   2.490
51921W        W17082  30.173  30.544   4.460
51922W        W17083  33.446  34.818   1.883
51923W        W17084  14.276  12.615  10.743
51924W        W17085  39.746   4.372   1.730
51925W        W17086  26.059  26.097  11.530
51926W        W17087   4.439  35.627  12.000
51927W        W17088  16.342  10.401  14.958
51928W        W17089  15.132  39.470   3.553
51929W        W17090  25.432  21.748   0.288
51930W        W17091  15.193  28.926   1.566
51931W        W17092  41.933  28.961   3.632
51932W        W17093   9.313  26.187  10.266
51933W        W17094   0.169  32.542  13.275
51934W        W17095  23.123  24.006   1.425
51935W        W17096  20.594   9.819  11.178
51936W        W17097  29.219   5.836   1.294
51937W        W17098  16.862  20.732  13.372
51938W        W17099  33.878  13.516   3.826
51939W        W17100   4.762  25.013  14.497
51940W        W17101  12.133  23.205  11.578
51941W        W17102  27.661  17.797   0.501
51942W        W17103  30.536  18.734  12.580
51943W        W17104  39.022  38.384  13.820
51944W        W17105   0.446  38.378   4.711
51945W        W17106   2.651  37.295   0.252
51946W        W17107  38.824  35.524  14.095
51947W        W17108   7.791  37.099   3.875
51948W        W17109   6.148  14.231   1.832
51949W        W17110  29.165  44.028   1.228
51950W        W17111   7.956  39.909   3.531
51951W        W17112  29.573  38.663   1.238
51952W        W17113  42.300  23.989  10.978
51953W        W17114  42.273  16.248   1.984
51954W        W17115  35.950  13.094  14.281
51955W        W17116  24.741  30.428   3.146
51956W        W17117  29.032  16.650   4.956
51957W        W17118  21.471  29.131  13.335
51958W        W17119   3.955   6.377  11.103
51959W        W17120  44.491  37.394  13.975
51960W        W17121  24.827  43.683  11.577
51961W        W17122   2.020   0.398   3.049
51962W        W17123  37.223  42.681   1.318
51963W        W17124  38.077   4.955  11.723
51964W        W17125   5.199   4.104  13.501
51965W        W17126  24.930  42.915  13.028
51966W        W17127   4.324   3.031  11.163
51967W        W17128  25.625  37.075  14.007
51968W        W17129  32.535  21.384  13.047
51969W        W17130   3.544  18.497  11.044
51970W        W17131  21.915  41.580   4.682
51971W        W17132  37.003  10.323   0.535
51972W        W17133   5.306   6.368  12.992
51973W        W17134  16.853  14.253   2.653
51974W        W17135  18.616  11.051   1.423
51975W        W17136  42.557  24.225  11.345
51976W        W17137  27.196  41.869  10.863
51977W        W17138  38.823  25.584  10.118
51978W        W17139   4.616  12.815   1.806
51979W        W17140  35.853  24.032   1.665
51980W        W17141   7.469  12.340   2.718
51981W        W17142  25.404   3.868   3.133
51982W        W17143   6.972  35.406  12.963
51983W        W17144  14.435  23.994  10.984
51984W        W17145   6.146  33.020  12.043
51985W        W17146  10.841  26.260  12.383
51986W        W17147  25.276   3.417   0.866
51987W        W17148  35.459  20.711  11.934
51988W        W17149  40.323  27.995  12.651
51989W        W17150  24.188  25.446   3.238
51990W        W17151   8.717  14.481   1.019
51991W        W17152   8.187  35.006   4.147
51992W        W17153   5.824  12.168  14.990
51993W        W17154  20.698   1.458  12.085
51994W        W17155  16.662  41.579   3.221
51995W        W17156  19.989  36.431  11.825
51996W        W17157  20.356   2.694  12.772
51997W        W17158  41.142  30.126   1.650
51998W        W17159   7.650  10.837   4.584
51999W        W17160  32.351  18.642   3.350
52000W        W17161  15.762  25.514   0.390
52001W        W17162   2.751  20.265   1.115
52002W        W17163  26.731  17.524   1.872
52003W        W17164  11.199   1.705  12.008
52004W        W17165  34.511  38.127   5.557
52005W        W17166  14.568  13.269   4.414
52006W        W17167  39.412   9.191  11.175
52007W        W17168  40.581   6.260  11.981
52008W        W17169  37.916   2.978   1.392
52009W        W17170  14.758  27.941  12.520
52010W        W17171  13.317  42.492   3.622
52011W        W17172  38.004  11.697   3.847
52012W        W17173  26.475  14.198  12.448
52013W        W17174  12.208  28.712  12.835
52014W        W17175  36.372  27.690  14.109
52015W        W17176  16.434  10.304   3.387
52016W        W17177  40.844   6.832  11.191
52017W        W17178  43.116  29.036  11.690
52018W        W17179  26.522  19.179   4.695
52019W        W17180  16.087  15.729  14.317
52020W        W17181  27.179  10.493   3.592
52021W        W17182  14.123  30.514   4.653
52022W        W17183  14.876  21.126   1.194
52023W        W17184  40.845  44.515   1.456
52024W        W17185  36.519   1.878   1.654
52025W        W17186  32.304  10.152  11.779
52026W        W17187  44.702   9.927   2.283
52027W        W17188  21.336   6.247  10.607
52028W        W17189  16.706  11.797  13.340
52029W        W17190  17.820  17.630  12.539
52030W        W17191  23.195  15.887  14.452
52031W        W17192  27.122  37.941  11.068
52032W        W17193   6.248  31.003   1.816
52033W        W17194  44.058  33.717  14.386
52034W        W17195   0.848   8.843  14.422
52035W        W17196  31.505  40.235   2.878
52036W        W17197  10.818   3.634   2.338
52037W        W17198  32.767   7.100   1.868
52038W        W17199   2.924  43.929  14.413
52039W        W17200  41.164  31.015  11.162
52040W        W17201  23.522   9.510   1.357
52041W        W17202  38.876  13.164  14.156
52042W        W17203  38.785  40.045  13.026
52043W        W17204  15.079  19.164   2.771
52044W        W17205  16.064  44.814  12.626
52045W        W17206  34.827   0.828   0.566
52046W        W17207  43.938  40.670  12.114
52047W        W17208  38.775   8.413  13.406
52048W        W17209  22.187  32.420  14.393
52049W        W17210   4.451   9.282   3.685
52050W        W17211  34.490  24.951   4.588
52051W        W17212  29.552   3.419   2.694
52052W        W17213   1.573  13.801  11.179
52053W        W17214  19.610  38.569  12.648
52054W        W17215   9.284  24.730   2.388
52055W        W17216  38.014  34.043  14.321
52056W        W17217  31.467   1.392  10.473
52057W        W17218  42.497  35.978   0.697
52058W        W17219  39.411  41.605  11.478
52059W        W17220  13.549  12.741  12.877
52060W        W17221  28.683  36.404   2.791
52061W        W17222   5.857  37.991   4.385
52062W        W17223  15.148  38.840  11.587
52063W        W17224  13.558  25.113   4.578
52064W        W17225   2.760  42.109   1.393
52065W        W17226   3.258   7.670   3.751
52066W        W17227  30.601  34.927   0.937
52067W        W17228   1.740  10.410   3.124
52068W        W17229  27.303  33.343   1.861
52069W        W17230  38.857  35.505   4.004
52070W        W17231  12.864  39.328   0.459
52071W        W17232  11.359  16.633   0.753
52072W        W17233  26.225   8.348   2.234
52073W        W17234   6.306  38.877  13.375
52074W        W17235  20.773  33.130  10.830
52075W        W17236  43.216  26.736   1.945
52076W        W17237  38.909  25.977   2.373
52077W        W17238  31.505  19.154  11.434
52078W        W17239  10.837   3.315   1.910
52079W        W17240  39.861   1.420   0.005
52080W        W17241   5.984  10.119   0.962
52081W        W17242  34.337  23.092  14.439
52082W        W17243   8.102   4.997   2.976
52083W        W17244  13.221   2.851   0.141
52084W        W17245  25.169  22.927   4.597
52085W        W17246  19.091  39.865  11.955
52086W        W17247  27.317  27.421  10.419
52087W        W17248  39.864  40.495   3.204
52088W        W17249   7.622  43.255  11.075
52089W        W17250  11.841   6.283  14.096
52090W        W17251  13.834   0.491   2.446
52091W        W17252  27.887  18.355  12.088
52092W        W17253  25.446  15.751   1.767
52093W        W17254  28.458  43.226   2.171
52094W        W17255   1.278  24.536  10.506
52095W        W17256  26.411  25.263   4.102
52096W        W17257  28.872  31.390   3.439
52097W        W17258   2.428  42.494  13.802
52098W        W17259   3.304  38.566  11.114
52099W        W17260  32.527  30.526   2.459
52100W        W17261  29.483  43.701   1.790
52101W        W17262  37.702   8.721   0.506
52102W        W17263  10.450  20.221  11.190
52103W        W17264   5.505  25.097   1.544
52104W        W17265  29.547  23.986  14.320
52105W        W17266  27.151  14.715   0.287
52106W        W17267  31.031  23.681   3.980
52107W        W17268  24.448  33.183   3.194
52108W        W17269  13.304   7.221  12.073
52109W        W17270  23.581  20.744   2.744
52110W        W17271  43.281  38.974   0.055
52111W        W17272  39.893  33.055   2.636
52112W        W17273  16.128  30.412   1.285
52113W        W17274  25.709  43.088  10.502
52114W        W17275  43.344  15.743  12.406
52115W        W17276  43.422  17.590   3.641
52116W        W17277  17.590  44.062  12.570
52117W        W17278   2.800  40.112  10.667
52118W        W17279  37.463   5.102  11.136
52119W        W17280  23.791  19.047  12.995
52120W        W17281  15.093  30.801   2.863
52121W        W17282  26.211  14.940   4.240
52122W        W17283  33.431  22.513   2.900
52123W        W17284  14.087  24.220   0.866
52124W        W17285  11.944  18.990   0.994
52125W        W17286  31.719  19.655  13.188
52126W        W17287  26.009  39.416   2.762
52127W        W17288  16.731  21.529   3.732
52128W        W17289  12.537   8.321   3.798
52129W        W17290  15.999  25.729   5.057
52130W        W17291  17.345  17.346   0.787
52131W        W17292  28.471  40.885  11.517
52132W        W17293   9.670  18.993  11.197
52133W        W17294  44.748  28.008  10.575
52134W        W17295  31.593  30.524   2.416
52135W        W17296  33.937  16.235   0.824
52136W        W17297  26.748  32.159  14.930
52137W        W17298  13.833  20.582   1.068
52138W        W17299   8.328   0.785   0.955
52139W        W17300  30.641   3.259  12.578
52140W        W17301  16.258   3.044  11.132
52141W        W17302  12.094  14.824  14.590
52142W        W17303  21.377  27.623   4.584
52143W        W17304   7.836  13.428  14.867
52144W        W17305  14.414  44.507  11.961
52145W        W17306   5.460  20.226   3.140
52146W        W17307  21.557  38.482   3.649
52147W        W17308  23.697  41.808  12.097
52148W        W17309  15.355  10.167   1.852
52149W        W17310  32.879  25.400  13.589
52150W        W17311  35.556  22.231  12.079
52151W        W17312  29.833   8.957  14.381
52152W        W17313  30.177  39.622   0.332
52153W        W17314  32.315  23.079   0.919
52154W        W17315   9.743  12.635  12.574
52155W        W17316  26.100  36.289   1.047
52156W        W17317  29.080  38.420   2.788
52157W        W17318  22.123  18.344  14.448
52158W        W17319  42.370  30.426   0.106
52159W        W17320  20.730  26.507   3.274
52160W        W17321   1.826  31.312  14.891
52161W        W17322   7.202  11.844  12.949
52162W        W17323   2.265  17.149  14.041
52163W        W17324   2.738  41.014  13.858
52164W        W17325  12.161  39.288   2.167
52165W        W17326  26.113  16.245  14.530
52166W        W17327  26.046  43.793  11.935
52167W        W17328   1.272  32.652   0.358
52168W        W17329  32.410  39.956  14.760
52169W        W17330  28.447   6.318   4.724
52170W        W17331  33.948  28.207  12.449
52171W        W17332   2.722  27.469  12.497
52172W        W17333  17.343  10.273  14.792
52173W        W17334  31.992  26.718  12.979
52174W        W17335  38.584  28.297   3.861
52175W        W17336  30.994   2.368  14.969
52176W        W17337  34.378  31.586  12.157
52177W        W17338  33.004  12.357   3.650
52178W        W17339  24.852  37.584  14.128
52179W        W17340   3.790  35.860   4.151
52180W        W17341  11.370  16.779   4.782
52181W        W17342  38.657  30.279  11.561
52182W        W17343  28.714  39.939  13.794
52183W        W17344   7.206  19.177  13.036
52184W        W17345   5.126  34.031  14.799
52185W        W17346  23.695   9.746  13.817
52186W        W17347   1.879  41.941   4.473
52187W        W17348  22.040  30.951  12.026
52188W        W17349  27.686  15.330  11.097
52189W        W17350  40.011  22.535   2.865
52190W        W17351  22.642  34.469  14.798
52191W        W17352  15.101  24.612   3.422
52192W        W17353   0.303  21.441  14.391
52193W        W17354  35.824  17.630  14.235
52194W        W17355  13.419  31.546  13.626
52195W        W17356   4.733  38.794   3.315
52196W        W17357  44.216  25.860   1.776
52197W        W17358  28.019  14.838  14.351
52198W        W17359  12.600  24.579  12.571
52199W        W17360  27.626  18.612   2.222
52200W        W17361  30.451  32.508  11.818
52201W        W17362  38.907   6.847  10.962
52202W        W17363  19.275  28.930   4.346
52203W        W17364  32.562   9.964  12.207
52204W        W17365  26.083  13.067   1.266
52205W        W17366   0.739  15.718   1.233
52206W        W17367  43.163  41.090  13.502
52207W        W17368  19.545  24.170   3.730
52208W        W17369   3.864  10.528   4.911
52209W        W17370  24.998  12.662   0.705
52210W        W17371  28.987   1.273  14.277
52211W        W17372  10.322  31.525   3.797
52212W        W17373  14.643   0.873   4.213
52213W        W17374  21.404  10.744  13.421
52214W        W17375  16.534  32.183   1.799
52215W        W17376  30.452  37.320   4.572
52216W        W17377   8.054  44.161  13.939
52217W        W17378   6.128   1.690  11.608
52218W        W17379  15.292  17.770  14.425
52219W        W17380  33.521  22.590  13.825
52220W        W17381   5.182  22.513  14.276
52221W        W17382  40.287  25.494  13.793
52222W        W17383  42.784  20.606   2.989
52223W        W17384  32.375  29.061  14.887
52224W        W17385   6.676  13.605   2.357
52225W        W17386   9.739  15.519  10.301
52226W        W17387  15.102  21.504   3.313
52227W        W17388  21.043  28.086   2.682
52228W        W17389  11.743   2.944   0.526
52229W        W17390  20.279  22.141   2.832
52230W        W17391  34.319   5.521   4.057
52231W        W17392   7.162  39.827  12.496
52232W        W17393   5.905  10.819  13.210
52233W        W17394   1.493  40.997   4.773
52234W        W17395  40.803  21.921  11.005
52235W        W17396   3.500  19.607   0.733
52236W        W17397  20.562  29.738  13.796
52237W        W17398  35.587  43.548   1.038
52238W        W17399  21.280  39.111  10.597
52239W        W17400   8.412  27.130   3.563
52240W        W17401  36.144  29.149   4.249
52241W        W17402  39.300  42.052   2.334
52242W        W17403  18.382  28.150   4.590
52243W        W17404  24.223   4.319   2.643
52244W        W17405  37.156   5.160   3.681
52245W        W17406  14.560  26.690   4.591
52246W        W17407  17.328  27.117   2.313
52247W        W17408  29.037  38.031  10.684
52248W        W17409  43.583  33.557  14.567
52249W        W17410  32.076   2.590   3.634
52250W        W17411  27.116  24.787  14.707
52251W        W17412  10.087  16.472   3.181
52252W        W17413  28.896  12.129   0.830
52253W        W17414   8.807  17.685  12.180
52254W        W17415  13.348   1.728   4.717
52255W        W17416  16.773  21.505   0.298
52256W        W17417  32.858   0.470  12.920
52257W        W17418   6.787  33.406   0.001
52258W        W17419  19.659  12.936  11.166
52259W        W17420  21.693  34.916  14.287
52260W        W17421  32.536  37.585   0.649
52261W        W17422  42.956  20.956   0.467
52262W        W17423  24.986  38.895  14.387
52263W        W17424   7.089  22.781  11.931
52264W        W17425   4.353  30.195  12.376
52265W        W17426  32.954  28.966   4.890
52266W        W17427  29.955  13.557   1.615
52267W        W17428  27.550  17.628  12.028
52268W        W17429  15.139   7.260   1.674
52269W        W17430  38.336  27.844   1.138
52270W        W17431  12.047  35.057   2.313
52271W        W17432  35.558  26.898   1.875
52272W        W17433  20.636  27.759   2.707
52273W        W17434  30.574  36.623   1.238
52274W        W17435  14.361  19.154   4.266
52275W        W17436  28.538  22.667   1.893
52276W        W17437  11.392   4.199   2.172
52277W        W17438  33.973  17.631  11.942
52278W        W17439  14.306  27.624   4.614
52279W        W17440  14.562  44.968  13.645
52280W        W17441  13.791  10.181   3.682
52281W        W17442  16.282  12.591   4.355
52282W        W17443  25.757  32.504   2.342
52283W        W17444  16.031  41.036   0.275
52284W        W17445   1.307  17.566   4.959
52285W        W17446  29.244  39.602   1.388
52286W        W17447   7.203   4.395  14.412
52287W        W17448   0.510  12.137   9.976
52288W        W17449   2.525  34.340   4.623
52289W        W17450  13.712  38.656   2.773
52290W        W17451   6.299  20.932  11.147
52291W        W17452  33.309  35.714  13.887
52292W        W17453  23.648  42.061   5.137
52293W        W17454  16.175   0.359   0.712
52294W        W17455  13.726  28.172  11.883
52295W        W17456  16.741  10.122   4.914
52296W        W17457   9.655  21.641   4.501
52297W        W17458  44.875  27.052   3.232
52298W        W17459  29.439  31.476   0.131
52299W        W17460   6.680   4.107  12.159
52300W        W17461  24.440  40.040   0.867
52301W        W17462  43.865  44.366   1.289
52302W        W17463  34.109  38.805  14.337
52303W        W17464  33.724  25.668  13.303
52304W        W17465   8.643  15.236   1.713
52305W        W17466  11.687  36.047  12.492
52306W        W17467  20.693   1.298  12.568
52307W        W17468  41.931   1.771   1.378
52308W        W17469  13.873  16.682   0.809
52309W        W17470  27.727  31.368  14.533
52310W        W17471  33.598   2.272  11.180
52311W        W17472  39.450  40.558  10.634
52312W        W17473  30.659  25.813  11.164
52313W        W17474  37.418  28.703   4.112
52314W        W17475  44.425  11.656   3.777
52315W        W17476   7.325  14.129   4.141
52316W        W17477  15.385  30.369  14.472
52317W        W17478  11.214  27.650   4.166
52318W        W17479   4.569  28.401  13.883
52319W        W17480   6.172  22.986   1.999
52320W        W17481  25.755  15.535  13.225
52321W        W17482  26.074  41.222   0.408
52322W        W17483  44.694   4.114   2.129
52323W        W17484  39.524   3.864   3.663
52324W        W17485  13.372  14.118   3.105
52325W        W17486  36.366  44.912   2.366
52326W        W17487   4.902   0.263   4.510
52327W        W17488  30.135  15.151  10.594
52328W        W17489  22.266  28.780   2.599
52329W        W17490   7.167  23.984  14.549
52330W        W17491  43.524  38.183   4.417
52331W        W17492  27.603   0.471   4.163
52332W        W17493  12.208   6.714  11.555
52333W        W17494  16.270  42.924   5.399
52334W        W17495  14.452  34.450   0.798
52335W        W17496   6.302  42.303   1.747
52336W        W17497  15.627  15.592  10.667
52337W        W17498  21.647  21.577   2.470
52338W        W17499  15.227  29.040  12.080
52339W        W17500  26.239  41.497  13.292
52340W        W17501   3.852  29.003  13.810
52341W        W17502  21.689  14.683   2.770
52342W        W17503  34.669   3.691  11.533
52343W        W17504  21.995   1.192  11.964
52344W        W17505  30.540  44.497  13.003
52345W        W17506  40.159  25.164   1.088
52346W        W17507  18.093  22.662  13.402
52347W        W17508  22.622   3.313   0.674
52348W        W17509  25.181   6.234   1.335
52349W        W17510   1.175  37.049   0.794
52350W        W17511   1.057   8.609   0.755
52351W        W17512   8.859  33.933   1.388
52352W        W17513  13.583  15.578  13.110
52353W        W17514  25.055  22.670   0.813
52354W        W17515  18.728  24.005   2.345
52355W        W17516  14.831  31.977  13.419
52356W        W17517   9.660  26.773  14.436
52357W        W17518   9.757  16.049   4.972
52358W        W17519  40.347  35.908   2.352
52359W        W17520  41.999   8.395   1.836
52360W        W17521  44.541  40.707   4.366
52361W        W17522   0.470  27.417  12.179
52362W        W17523  41.394   0.036  12.480
52363W        W17524  38.445  33.416  11.834
52364W        W17525   2.518  17.803   2.708
52365W        W17526   4.504  22.594   3.570
52366W        W17527  43.404  16.221  13.510
52367W        W17528  34.066  28.552   3.109
52368W        W17529  37.989   5.770  13.854
52369W        W17530  36.461  10.345  10.941
52370W        W17531  26.951  29.188  11.109
52371W        W17532  25.239  22.115  12.568
52372W        W17533  33.497  33.389  11.735
52373W        W17534  31.730  17.579   2.081
52374W        W17535  38.498  29.720   3.574
52375W        W17536  22.598  33.385   2.487
52376W        W17537   3.882  40.445   4.018
52377W        W17538  41.425  28.540   3.390
52378W        W17539  31.874  34.377  14.566
52379W        W17540  27.632  39.413   4.605
52380W        W17541  37.531  42.028   5.033
52381W        W17542   5.271  41.426  13.517
52382W        W17543  15.694  15.807   0.248
52383W        W17544  14.511  37.900  14.317
52384W        W17545  29.594   2.277  12.513
52385W        W17546  24.154  10.094  13.373
52386W        W17547  34.696   5.296   0.125
52387W        W17548  28.298  37.361   4.908
52388W        W17549  25.059  30.636  12.337
52389W        W17550  25.163  37.855   3.587
52390W        W17551  44.874  20.972   4.074
52391W        W17552  29.381  42.860  11.852
52392W        W17553  23.637  22.762  10.792
52393W        W17554  34.392  25.366   2.233
52394W        W17555  10.829  18.591  11.955
52395W        W17556  40.276   7.225   2.259
52396W        W17557  15.343  29.507   0.454
52397W        W17558   2.799  16.623   2.795
52398W        W17559  34.207  38.825   1.050
52399W        W17560  24.670  17.483  14.831
52400W        W17561  38.218  17.588  11.203
52401W        W17562  16.123  27.616  10.868
52402W        W17563   3.784  31.158   3.383
52403W        W17564  12.664  43.912   1.826
52404W        W17565  37.124   7.227   3.405
52405W        W17566  27.169   5.891  11.724
52406W        W17567  10.757   1.151  12.595
52407W        W17568  18.637   6.091  11.062
52408W        W17569   2.965  16.143   3.119
52409W        W17570  34.415   9.852  11.490
52410W        W17571  41.518   7.278  10.420
52411W        W17572  39.367  40.821   4.088
52412W        W17573  21.032  20.787  11.107
52413W        W17574  17.561  33.632  14.372
52414W        W17575  28.028  37.618  12.915
52415W        W17576  27.421  15.166   2.684
52416W        W17577  10.546   6.169   1.834
52417W        W17578   9.096  25.212  11.791
52418W        W17579   5.419   8.880   2.231
52419W        W17580   7.805  28.888  11.844
52420W        W17581  32.127  21.696  14.316
52421W        W17582  38.120  36.139   1.829
52422W        W17583  11.433   4.307  11.009
52423W        W17584  13.057  10.184  10.435
52424W        W17585   0.975   2.721  11.167
52425W        W17586  29.618  12.397   0.217
52426W        W17587  10.623  44.697  11.516
52427W        W17588  19.330   0.444   4.646
52428W        W17589   9.176  21.210   0.970
52429W        W17590  32.765   8.920   2.711
52430W        W17591  19.515   3.083  11.602
52431W        W17592   2.676   6.827   3.260
52432W        W17593   5.261  28.686  11.901
52433W        W17594  27.976  25.799   0.616
52434W        W17595   6.569  13.769  13.069
52435W        W17596   8.309  38.684  12.546
52436W        W17597  27.639   8.711  13.957
52437W        W17598  20.466  20.174  11.501
52438W        W17599  12.839  43.353  12.509
52439W        W17600  24.131  24.952  12.288
52440W        W17601  18.830  17.310   0.742
52441W        W17602  27.093  44.380   3.410
52442W        W17603  12.588  27.139  14.377
52443W        W17604  26.929  23.177  10.395
52444W        W17605   4.698  34.379   4.997
52445W        W17606  21.029  21.555  10.077
52446W        W17607  42.963  37.221   1.681
52447W        W17608  24.744  36.126  11.429
52448W        W17609  41.582  25.189  14.695
52449W        W17610  18.525  20.724  14.643
52450W        W17611  20.369  21.185   2.689
52451W        W17612  10.257  10.047  13.813
52452W        W17613  35.065  43.898   4.298
52453W        W17614  20.779   8.251   2.775
52454W        W17615  29.637  13.182   1.931
52455W        W17616   4.118   9.773  10.633
52456W        W17617  37.234  17.501  11.227
52457W        W17618  22.446  21.307   3.115
52458W        W17619  31.313   2.795   4.725
52459W        W17620  33.254  34.690  12.854
52460W        W17621  44.311  33.348  14.109
52461W        W17622  17.218  30.030  14.055
52462W        W17623   1.652   1.968  14.230
52463W        W17624  14.838  41.383   4.545
52464W        W17625  42.975   8.174  12.611
52465W        W17626  35.984  26.908   3.635
52466W        W17627  23.053  12.947   3.116
52467W        W17628   9.158   1.961   2.642
52468W        W17629  40.076   0.757  12.367
52469W        W17630   9.581  42.339  13.316
52470W        W17631  28.974  10.316   4.869
52471W        W17632   5.697  22.502   0.746
52472W        W17633  33.104  37.554  14.879
52473W        W17634   0.750  11.671   0.017
52474W        W17635  25.026  39.998  12.814
52475W        W17636  16.249  35.552   0.483
52476W        W17637  24.938  26.644   3.714
52477W        W17638  30.793  22.114   4.289
52478W        W17639   4.448  15.440   3.927
52479W        W17640  36.596  28.997   0.319
52480W        W17641  15.507   5.406   3.779
52481W        W17642  32.162  29.919  13.262
52482W        W17643  35.878  31.454   0.735
52483W        W17644  14.163  15.260  14.192
52484W        W17645  25.692  29.489   0.225
52485W        W17646  19.080  42.940   4.133
52486W        W17647  31.138  20.449   0.343
52487W        W17648  41.095  39.347  13.826
52488W        W17649  36.761  16.044  11.187
52489W        W17650  24.215  31.214   1.322
52490W        W17651  36.578   4.606   1.288
52491W        W17652   0.306  42.496  13.086
52492W        W17653  35.827  37.427  14.454
52493W        W17654   2.454  29.653   2.776
52494W        W17655  11.571  28.052   4.874
52495W        W17656  41.747  24.578   4.665
52496W        W17657  43.008  13.073  11.616
52497W        W17658  32.232   8.977   2.684
52498W        W17659   9.231  16.368   2.762
52499W        W17660  37.797   5.406  12.844
52500W        W17661   7.564  24.546  11.036
52501W        W17662  24.031  26.446   2.776
52502W        W17663  37.239   4.148   2.807
52503W        W17664   3.447  42.790   2.272
52504W        W17665  20.185  28.724  10.940
52505W        W17666  22.605   5.041   1.440
52506W        W17667  28.341   1.053   2.708
52507W        W17668  41.872  38.464  14.587
52508W        W17669  30.477   8.411   3.311
52509W        W17670   1.991  27.016   0.229
52510W        W17671   8.700  38.839  13.894
52511W        W17672   8.828  38.896   4.579
52512W        W17673  27.155  17.298  11.633
52513W        W17674   8.423  10.644  14.395
52514W        W17675  16.618  43.257   0.422
52515W        W17676  13.156  10.560  12.434
52516W        W17677  36.388  10.597   4.312
52517W        W17678  44.499   5.734   1.079
52518W        W17679  23.945   8.596  10.800
52519W        W17680  41.170  14.125  13.711
52520W        W17681  16.545  12.111   3.488
52521W        W17682  36.112   8.289  11.568
52522W        W17683   0.553  17.354  14.983
52523W        W17684  30.450   9.512  12.806
52524W        W17685  23.764  22.994   1.802
52525W        W17686   7.297  14.438   3.222
52526W        W17687  35.211  37.151  12.535
52527W        W17688   8.970  33.011   2.288
52528W        W17689  26.245  14.116  12.925
52529W        W17690  37.965  27.085  12.445
52530W        W17691  44.444   9.708  12.228
52531W        W17692  26.330  43.015  14.939
52532W        W17693  32.922  26.056   4.539
52533W        W17694  17.188  41.594   3.147
52534W        W17695   7.689   8.622  14.401
52535W        W17696  15.829  24.146   2.172
52536W        W17697  25.995  28.286  11.075
52537W        W17698   3.725  43.294   1.877
52538W        W17699  24.443  17.726  12.801
52539W        W17700   0.229  41.454   1.160
52540W        W17701  31.969  39.352   3.232
52541W        W17702   3.267  12.430  13.924
52542W        W17703  13.572  41.640  10.604
52543W        W17704   7.222  33.007   2.728
52544W        W17705   7.378  44.351  14.985
52545W        W17706  14.522  38.363   3.217
52546W        W17707  36.525  37.318   4.394
52547W        W17708  43.402  35.220  11.725
52548W        W17709  35.896  30.700  12.873
52549W        W17710  15.147  28.524   4.502
52550W        W17711  37.519   2.025   0.861
52551W        W17712  22.092  19.972   4.083
52552W        W17713  20.091   8.851  11.504
52553W        W17714  37.902  10.593   4.593
52554W        W17715  24.737  23.249   4.098
52555W        W17716  32.544  27.802   2.186
52556W        W17717  26.371  39.434   0.483
52557W        W17718  39.905  43.189   1.354
52558W        W17719   1.275  10.241  10.601
52559W        W17720  41.257   5.007   2.739
52560W        W17721  42.851  32.635   1.988
52561W        W17722  39.338  19.616   0.920
52562W        W17723  41.849  31.418   1.209
52563W        W17724  16.664   9.191   1.231
52564W        W17725  13.214  23.571   4.319
52565W        W17726  25.110  19.783  10.712
52566W        W17727  28.512  15.222  14.976
52567W        W17728   0.508   9.472  11.970
52568W        W17729   8.474  38.211   4.088
52569W        W17730  10.979   2.401   1.808
52570W        W17731  24.839  25.633   0.744
52571W        W17732  17.205  37.659   1.960
52572W        W17733  18.672  43.393  12.513
52573W        W17734   6.356   6.494   1.491
52574W        W17735  24.561  28.944   4.264
52575W        W17736   1.587  10.890   3.355
52576W        W17737  32.020  21.299  13.977
52577W        W17738  32.600   4.196   2.679
52578W        W17739   4.476  23.521  10.509
52579W        W17740  36.270   1.659   0.247
52580W        W17741  36.789  31.404   2.731
52581W        W17742   7.944  19.566   3.901
52582W        W17743  40.926  31.859  14.788
52583W        W17744  21.901  43.408   0.766
52584W        W17745  14.592  39.674  12.404
52585W        W17746  38.550  16.190  13.612
52586W        W17747  36.490   2.197   2.610
52587W        W17748   9.261  28.140   3.760
52588W        W17749  32.183   1.699   1.699
52589W        W17750  16.795  39.242  12.059
52590W        W17751   5.386  23.988  13.551
52591W        W17752  33.922   1.194  14.747
52592W        W17753  29.589  27.730  11.578
52593W        W17754   9.129  40.372  14.663
52594W        W17755   4.472  24.046  14.057
52595W        W17756  18.257  40.807  12.197
52596W        W17757   0.208  25.108   4.545
52597W        W17758  39.733  25.181   0.243
52598W        W17759   5.237  13.370   3.312
52599W        W17760  30.330  22.300   1.808
52600W        W17761  32.475  23.575   0.803
52601W        W17762  29.494  11.598   4.075
52602W        W17763  34.293  35.948  12.072
52603W        W17764  41.498   2.723  13.388
52604W        W17765  42.334   3.530   4.167
52605W        W17766  18.362  43.326  11.458
52606W        W17767  31.440  43.930  13.026
52607W        W17768  33.964   0.121   2.354
52608W        W17769  12.364  25.203   0.040
52609W        W17770  19.929  44.639   0.854
52610W        W17771  37.539  29.918   2.731
52611W        W17772   9.676  20.875   2.628
52612W        W17773  16.653   7.785   4.569
52613W        W17774  17.560   8.676  13.402
52614W        W17775  11.669  32.620  11.821
52615W        W17776  28.141  34.757  12.486
52616W        W17777  27.390  39.206   1.783
52617W        W17778   6.152  35.666   1.253
52618W        W17779  29.423  38.173  13.415
52619W        W17780  44.655  39.891   4.260
52620W        W17781  32.358   6.672  12.679
52621W        W17782  38.521  32.146  12.166
52622W        W17783  26.969   0.763   0.278
52623W        W17784  35.258  40.819  13.408
52624W        W17785  37.440  40.999  10.469
52625W        W17786  14.221  22.698   0.344
52626W        W17787  16.303  30.245   0.002
52627W        W17788   4.440  31.147  11.922
52628W        W17789  35.534  33.330   0.318
52629W        W17790  18.226   6.308  12.286
52630W        W17791  29.886  27.056   3.917
52631W        W17792  10.341  37.518   1.396
52632W        W17793   2.486  17.946  12.904
52633W        W17794  23.676  33.692   4.706
52634W        W17795  44.443  26.959   1.433
52635W        W17796  15.295  41.580   1.296
52636W        W17797  11.069  27.718  14.421
52637W        W17798  29.187  33.017  10.693
52638W        W17799  19.620  25.252  11.616
52639W        W17800   9.855  31.044  12.442
52640W        W17801  11.718  21.314  10.100
52641W        W17802  31.096  15.551  11.134
52642W        W17803  39.261   3.745   1.853
52643W        W17804  29.667  14.378  13.123
52644W        W17805  34.056  10.372   0.744
52645W        W17806  30.419  33.546  13.808
52646W        W17807   0.908   5.755  11.158
52647W        W17808  28.186  11.151  11.552
52648W        W17809  34.612  44.501  12.088
52649W        W17810  28.180  36.311  12.464
52650W        W17811  10.257   5.755   3.788
52651W        W17812  37.319  17.757   0.854
52652W        W17813  40.532  44.252   4.579
52653W        W17814  37.849  34.009  11.455
52654W        W17815  37.814   7.770   3.391
52655W        W17816  44.287  11.505  14.062
52656W        W17817  44.286   7.978   1.710
52657W        W17818   7.896  12.030  14.725
52658W        W17819  25.336  43.924   1.289
52659W        W17820  24.606  20.795  14.778
52660W        W17821  13.694  23.301   2.017
52661W        W17822  27.430   6.657  13.879
52662W        W17823  11.940   9.859  13.948
52663W        W17824  27.494  10.107   3.747
52664W        W17825   6.608   3.754  14.949
52665W        W17826  25.227   3.079  11.152
52666W        W17827   7.336  28.632  11.791
52667W        W17828  36.898  20.841  11.114
52668W        W17829   1.536  12.790   3.836
52669W        W17830  16.614  25.902   0.362
52670W        W17831  25.510  44.035   2.668
52671W        W17832  10.868   6.926  13.381
52672W        W17833   5.696  31.004   2.850
52673W        W17834  14.678  28.900  14.354
52674W        W17835  30.229   0.831   5.005
52675W        W17836  23.274  28.496  14.886
52676W        W17837  38.438   5.186   3.288
52677W        W17838  11.696  29.166   3.231
52678W        W17839  33.311  20.181   4.552
52679W        W17840  14.760  19.680  11.964
52680W        W17841  35.646  28.507   4.597
52681W        W17842  29.499  25.158  13.606
52682W        W17843  22.459  43.470   2.366
52683W        W17844  33.691   6.360   1.334
52684W        W17845   9.827  10.570  14.352
52685W        W17846  12.070  32.135  13.545
52686W        W17847   6.682  24.680  12.133
52687W        W17848  16.792  30.214   0.719
52688W        W17849  14.878  23.051  14.687
52689W        W17850  10.601  17.630  12.584
52690W        W17851  10.133  30.384   2.333
52691W        W17852  34.526  20.774  11.256
52692W        W17853  16.476  16.659  10.637
52693W        W17854  31.003   0.188   0.745
52694W        W17855  42.405   8.815   2.247
52695W        W17856   4.022  33.121   1.396
52696W        W17857   6.797  14.452   5.042
52697W        W17858   6.264  22.270   2.308
52698W        W17859  16.984  13.886   1.166
52699W        W17860   5.659   5.120  12.510
52700W        W17861  18.931  35.613  11.519
52701W        W17862  37.320  15.178  11.178
52702W        W17863   1.179  43.332  13.520
52703W        W17864  23.105  35.040   4.535
52704W        W17865   4.010  15.696  13.321
52705W        W17866   2.857  33.035   3.121
52706W        W17867   9.120  23.222   3.798
52707W        W17868  19.811  15.309   3.137
52708W        W17869  42.064   4.546   2.341
52709W        W17870  28.025  23.245   9.770
52710W        W17871  40.563  17.643   4.155
52711W        W17872  12.228  34.374  12.969
52712W        W17873   8.656  12.200   3.168
52713W        W17874  38.921  10.782   4.491
52714W        W17875  19.996   0.050  11.040
52715W        W17876   7.154   7.289   4.148
52716W        W17877  35.717  40.265  12.190
52717W        W17878   9.956   3.271  13.961
52718W        W17879  30.962  40.955   1.635
52719W        W17880  44.882   0.843  10.707
52720W        W17881   4.228  12.546   3.618
52721W        W17882   4.697  35.504   3.217
52722W        W17883   2.166  41.031   1.011
52723W        W17884  34.456  35.113   1.729
52724W        W17885  17.066  24.077  12.494
52725W        W17886  34.062   7.283   2.737
52726W        W17887  37.443  36.388  10.801
52727W        W17888  44.211  37.005  12.661
52728W        W17889   9.738  41.897   4.374
52729W        W17890  40.024  26.113   3.911
52730W        W17891  29.073  33.532   1.762
52731W        W17892  22.096   7.439  13.818
52732W        W17893  24.737  12.368   1.890
52733W        W17894  35.600  18.210  13.455
52734W        W17895   8.748  39.905  11.523
52735W        W17896   7.322  15.138  11.932
52736W        W17897  18.814  10.029  10.431
52737W        W17898  44.386  23.069  12.327
52738W        W17899  15.227   1.229  11.147
52739W        W17900  40.988  10.313   1.975
52740W        W17901  24.480  23.549   1.846
52741W        W17902  38.146  32.964   2.195
52742W        W17903  42.539   7.343  12.450
52743W        W17904  14.613  20.296   3.671
52744W        W17905  38.362  14.323  13.439
52745W        W17906  43.936   1.029   4.218
52746W        W17907  20.581  23.924   3.298
52747W        W17908  13.394  23.774   0.343
52748W        W17909  42.825  44.313  11.067
52749W        W17910  32.949  42.356   0.916
52750W        W17911   2.028   7.794   1.387
52751W        W17912  26.974  18.867  11.516
52752W        W17913  10.796  19.818  10.458
52753W        W17914  12.012  40.903   2.639
52754W        W17915  16.145  26.540  11.627
52755W        W17916  39.929  25.140  13.282
52756W        W17917  13.184   4.331   3.914
52757W        W17918  10.309  40.804  14.317
52758W        W17919  33.885  13.090  13.893
52759W        W17920  17.692  26.619  10.980
52760W        W17921  14.531   8.486  13.532
52761W        W17922   9.155  31.703  14.928
52762W        W17923  23.202  13.603   3.680
52763W        W17924  37.163  39.270  12.508
52764W        W17925  40.971  34.109  12.939
52765W        W17926  15.182   8.231  13.938
52766W        W17927  11.155  35.656  13.685
52767W        W17928  19.704  26.587   4.560
52768W        W17929  21.550   8.199  13.493
52769W        W17930  24.627  20.020  13.874
52770W        W17931  32.352   0.408   1.418
52771W        W17932  25.228  39.115  13.987
52772W        W17933  41.921  42.898   3.224
52773W        W17934  30.353  21.614   2.188
52774W        W17935  14.799  10.074  11.194
52775W        W17936  18.539  26.499  10.383
52776W        W17937  21.797  21.061  13.804
52777W        W17938  43.678  29.034   0.285
52778W        W17939   8.364  16.376  12.117
52779W        W17940   8.417   2.770   0.840
52780W        W17941  26.059  11.544  10.765
52781W        W17942  26.242  27.995   2.805
52782W        W17943  10.231  20.283  14.758
52783W        W17944  10.161   8.419  11.914
52784W        W17945  29.957  29.914   3.601
52785W        W17946  32.486   8.411  10.751
52786W        W17947  15.292   6.925   3.746
52787W        W17948  25.093  18.625   1.738
52788W        W17949  14.352  36.052   0.313
52789W        W17950  41.914  25.924   1.774
52790W        W17951  35.907  30.021  12.950
52791W        W17952  41.722  29.069   2.841
52792W        W17953  13.050  33.564  10.153
52793W        W17954  11.206   0.649   1.653
52794W        W17955  19.767  31.964   2.361
52795W        W17956  34.980  17.656  10.620
52796W        W17957   9.733   3.250   2.897
52797W        W17958  35.437  10.217  12.960
52798W        W17959   1.873  44.399   0.738
52799W        W17960   1.425  43.854  11.900
52800W        W17961  34.167  36.947  12.476
52801W        W17962  44.360  44.589   3.355
52802W        W17963  14.872  35.952  10.806
52803W        W17964  39.542  44.452   1.099
52804W        W17965  24.622  22.723   2.588
52805W        W17966   7.836  29.720   2.296
52806W        W17967  27.331  40.459  14.773
52807W        W17968  23.074  12.181   4.628
52808W        W17969   1.944  19.173   0.871
52809W        W17970  33.431  38.566   1.712
52810W        W17971  18.062  32.953  11.257
52811W        W17972   8.402  18.263  11.396
52812W        W17973   5.236  15.710   0.222
52813W        W17974  41.654  31.430  10.540
52814W        W17975  24.022  29.598  14.369
52815W        W17976  16.199  39.048   1.381
52816W        W17977  29.674  34.164   2.860
52817W        W17978  19.356  39.717   1.307
52818W        W17979  10.686  24.581   2.316
52819W        W17980  10.286  16.816   0.854
52820W        W17981  16.148  43.343  12.578
52821W        W17982  37.410  24.602  13.036
52822W        W17983   5.379  14.484   4.093
52823W        W17984  14.837   5.387   4.566
52824W        W17985  33.530   6.232  13.043
52825W        W17986  12.511  13.851  10.643
52826W        W17987  21.815  20.361  13.711
52827W        W17988   0.881   5.835   0.608
52828W        W17989  44.877  16.194  14.514
52829W        W17990  20.548  34.176  12.863
52830W        W17991   0.183  44.369  11.128
52831W        W17992   9.608  27.636   2.712
52832W        W17993  12.332   6.902   0.229
52833W        W17994  10.661  12.285  12.965
52834W        W17995  17.084  13.408   1.970
52835W        W17996  34.663  25.926  14.421
52836W        W17997  33.570  41.944  14.875
52837W        W17998  40.760  13.657  11.707
52838W        W17999  37.329   3.445  14.751
52839W        W18000  16.129  27.620   3.607
52840W        W18001  14.806  27.194   1.418
52841W        W18002  35.114  19.204  13.924
52842W        W18003  29.887  31.263  13.958
52843W        W18004  39.075   0.434   4.551
52844W        W18005  26.886  34.619  11.402
52845W        W18006   4.802  28.621  13.456
52846W        W18007  39.390  21.973   4.072
52847W        W18008  27.920  23.577  11.942
52848W        W18009  38.997   6.254  12.362
52849W        W18010  39.062  31.542  14.924
52850W        W18011  14.849  35.305  13.388
52851W        W18012   5.704  21.551  14.331
52852W        W18013  16.123  43.409   5.557
52853W        W18014  26.600  18.090  12.443
52854W        W18015   9.281  41.490   2.073
52855W        W18016  33.149  11.849   2.706
52856W        W18017  12.935  14.314   2.901
52857W        W18018   1.869  29.909  10.493
52858W        W18019   6.698  39.418   3.322
52859W        W18020  17.895  14.303  12.669
52860W        W18021  42.123  15.229   2.885
52861W        W18022  29.627  31.661  14.165
52862W        W18023  38.160  24.263  12.563
52863W        W18024  38.700   2.258  14.880
52864W        W18025   8.969  25.664   4.936
52865W        W18026  30.528  44.904   1.861
52866W        W18027  30.200   2.825   2.279
52867W        W18028  11.029  31.342   2.291
52868W        W18029  32.879  29.966  10.886
52869W        W18030  12.273  25.632   0.297
52870W        W18031   4.891  39.721   3.272
52871W        W18032  42.423  32.409  12.035
52872W        W18033  30.858  31.878   0.800
52873W        W18034   7.327  24.945  14.424
52874W        W18035  11.331  19.987   1.832
52875W        W18036  15.587  35.323  14.862
52876W        W18037  16.595  38.806  14.802
52877W        W18038  14.014  35.159   1.396
52878W        W18039  39.866  18.064   1.652
52879W        W18040  43.005   5.233   0.964
52880W        W18041  27.575  31.634   4.250
52881W        W18042  22.549  44.259  12.526
52882W        W18043  31.055  23.170  11.567
52883W        W18044  23.715  14.114  13.073
52884W        W18045  41.599  39.720  14.323
52885W        W18046  29.753  29.557   4.684
52886W        W18047  32.448   7.752   1.266
52887W        W18048  41.970  32.183   3.387
52888W        W18049  20.082  41.909   1.522
52889W        W18050  11.555  32.168   4.650
52890W        W18051  17.647   5.300   2.999
52891W        W18052  37.799  40.636   2.058
52892W        W18053  14.215  27.945   0.099
52893W        W18054  30.944  16.731  11.938
52894W        W18055  17.991  16.769  13.205
52895W        W18056  21.755  14.492  14.482
52896W        W18057  28.456  31.394  14.765
52897W        W18058  22.235  34.503   4.654
52898W        W18059  38.370  28.614  13.062
52899W        W18060  38.153  38.299   5.049
52900W        W18061  24.401  11.821   2.951
52901W        W18062   5.878  23.795   0.552
52902W        W18063  19.868  38.580   0.671
52903W        W18064  37.827  21.246  11.568
52904W        W18065   7.613  13.119  11.404
52905W        W18066   9.182   9.751   3.603
52906W        W18067  42.647  40.020  10.228
52907W        W18068  16.998  11.691   3.268
52908W        W18069  44.175  40.248  11.157
52909W        W18070  24.485  27.449   0.342
52910W        W18071  24.639  13.008   0.353
52911W        W18072   4.458  42.990  11.550
52912W        W18073  17.545   0.249   3.633
52913W        W18074   1.254  20.969   3.807
52914W        W18075  31.140   2.273  13.360
52915W        W18076  39.837  23.581   3.708
52916W        W18077  33.471   5.260   2.604
52917W        W18078  36.417  33.142  11.093
52918W        W18079   6.751   7.584   4.285
52919W        W18080  32.270  21.534   3.919
52920W        W18081  18.570   8.736  11.357
52921W        W18082   6.633  21.702  12.878
52922W        W18083  43.810  27.637   0.324
52923W        W18084  22.101  21.428  11.054
52924W        W18085  36.905  30.392  12.015
52925W        W18086  25.165  10.752  12.927
52926W        W18087  43.983  23.342  12.787
52927W        W18088   8.726   6.094   4.846
52928W        W18089  44.927  13.654  11.701
52929W        W18090  18.029  39.329   0.454
52930W        W18091   5.772   3.728  11.494
52931W        W18092  33.018  11.793   1.724
52932W        W18093  22.588   8.342   4.560
52933W        W18094  36.928  39.994   1.654
52934W        W18095  17.606  42.733  14.621
52935W        W18096  16.045  18.017  13.920
52936W        W18097  33.517  33.430  14.974
52937W        W18098  10.315  25.072   1.245
52938W        W18099  32.127  42.411  14.927
52939W        W18100  33.053  41.235  12.501
52940W        W18101   5.073  35.976  10.278
52941W        W18102  36.206  20.139   4.983
52942W        W18103  29.365  22.533   1.954
52943W        W18104  10.806  29.637  14.089
52944W        W18105  17.162  44.005   1.436
52945W        W18106  25.916  42.442   0.817
52946W        W18107  30.205  19.684  14.490
52947W        W18108  21.676  34.362   1.903
52948W        W18109  13.868  30.030   4.688
52949W        W18110  25.243  17.823  12.603
52950W        W18111  14.794  24.864   4.108
52951W        W18112  21.005   3.124   0.466
52952W        W18113  33.966  35.380   3.968
52953W        W18114  32.420  27.543  12.855
52954W        W18115  42.010  26.215   2.197
52955W        W18116  24.646  42.867  12.286
52956W        W18117   4.880  16.781   4.621
52957W        W18118  35.337   5.714  11.508
52958W        W18119  11.614   7.602   1.909
52959W        W18120  26.848   5.727  13.081
52960W        W18121  38.803  41.085   4.734
52961W        W18122  33.619  34.310  12.774
52962W        W18123  41.965  11.627  14.379
52963W        W18124   2.780  10.303  10.631
52964W        W18125  10.205  20.660   4.174
52965W        W18126  16.283  41.851  11.568
52966W        W18127  44.691  21.059   1.772
52967W        W18128   9.424  26.974   0.236
52968W        W18129  35.088  38.983   0.467
52969W        W18130  28.729  40.624  12.552
52970W        W18131   0.410  25.207   0.032
52971W        W18132  25.698  29.597  11.085
52972W        W18133  24.673  37.350  11.163
52973W        W18134  35.372  26.758   1.371
52974W        W18135  40.696  37.853   5.437
52975W        W18136   3.746   7.230   1.336
52976W        W18137  33.805  33.091   0.950
52977W        W18138  44.738  19.770  10.363
52978W        W18139  41.710  10.374   2.852
52979W        W18140  28.244   8.621   2.833
52980W        W18141  26.324  34.879  14.202
52981W        W18142  10.227  23.694   4.687
52982W        W18143  28.593  14.827   2.579
52983W        W18144  41.283   4.674  11.114
52984W        W18145  12.035  18.320  11.224
52985W        W18146  32.031  23.014  12.126
52986W        W18147  18.119   3.946  12.668
52987W        W18148   2.816  31.153   4.261
52988W        W18149  14.917   4.371  13.045
52989W        W18150  41.390  17.568   3.639
52990W        W18151  44.281   4.416  11.089
52991W        W18152   6.787   7.885   0.300
52992W        W18153  31.501  32.457   3.307
52993W        W18154  37.452  23.188  12.982
52994W        W18155  38.388  23.696  11.209
52995W        W18156  34.911  16.628  13.846
52996W        W18157  36.600  11.320  14.016
52997W        W18158  35.596  44.239   3.192
52998W        W18159   1.008   8.944   3.281
52999W        W18160  22.001  24.038  14.834
53000W        W18161  28.525   2.189  14.868
53001W        W18162  20.077   0.403  12.330
53002W        W18163  24.229  17.139  10.395
53003W        W18164   0.956  19.227   0.280
53004W        W18165  38.399  27.555  11.387
53005W        W18166  31.855   8.721   3.698
53006W        W18167   9.652  26.613  10.604
53007W        W18168  22.194  37.367   1.287
53008W        W18169  33.113  23.360  11.319
53009W        W18170   9.318  28.669  12.484
53010W        W18171   6.881   9.461   2.659
53011W        W18172  41.104  15.080   4.071
53012W        W18173  17.264  39.762   3.768
53013W        W18174   8.170  16.916   4.702
53014W        W18175  13.773  33.908  10.566
53015W        W18176   7.799  41.058  14.809
53016W        W18177  10.127  10.866   5.007
53017W        W18178  34.040  28.606   0.881
53018W        W18179  26.871  37.053   2.979
53019W        W18180   6.412  40.131   4.440
53020W        W18181  11.565  11.984   1.849
53021W        W18182  28.304  26.490  13.668
53022W        W18183  15.691  14.654  11.862
53023W        W18184  10.249  38.747  11.476
53024W        W18185  39.068  22.464  10.828
53025W        W18186  24.248  34.853   3.827
53026W        W18187  33.314  20.507  13.450
53027W        W18188  15.141  32.110   4.122
53028W        W18189  36.507  37.938  12.928
53029W        W18190  43.877  40.948   0.097
53030W        W18191  27.804  19.340  11.105
53031W        W18192  10.241   3.426   0.851
53032W        W18193  30.114  37.556  13.507
53033W        W18194  44.203  14.495   1.626
53034W        W18195  28.035  34.485  10.728
53035W        W18196  44.831  18.114   0.980
53036W        W18197   4.305  22.562  10.875
53037W        W18198  10.137  10.896  11.263
53038W        W18199   3.263  19.496   1.766
53039W        W18200  37.956  42.827  12.433
53040W        W18201  30.185   1.741  11.393
53041W        W18202   4.938  20.328   0.780
53042W        W18203  23.536  43.010   4.144
53043W        W18204   9.918  25.249   2.832
53044W        W18205  17.192  40.232   3.563
53045W        W18206  33.463   0.467   4.081
53046W        W18207   9.065  15.579  14.870
53047W        W18208   8.172  10.851   4.555
53048W        W18209  23.742  44.338  11.860
53049W        W18210  10.740  21.474   2.745
53050W        W18211  44.465  17.558  12.058
53051W        W18212  25.957   1.709  14.502
53052W        W18213  38.332   6.276  10.727
53053W        W18214  11.707  27.443  10.974
53054W        W18215  41.923  42.424  12.064
53055W        W18216   5.491  44.850  14.961
53056W        W18217   5.932   4.374   0.207
53057W        W18218  14.906  21.639   2.808
53058W        W18219  14.302  37.015   0.380
53059W        W18220  40.088  40.572   1.268
53060W        W18221   2.906  18.200   2.733
53061W        W18222   0.214  13.599   0.244
53062W        W18223  42.381  43.311  10.752
53063W        W18224   7.061  36.375  10.831
53064W        W18225  29.856   0.301   1.294
53065W        W18226   2.478   6.336  11.679
53066W        W18227   2.256  44.371  10.839
53067W        W18228  22.312  30.701   1.712
53068W        W18229  10.695  39.329  13.442
53069W        W18230  19.294  19.226   1.681
53070W        W18231  18.203  13.569  11.689
53071W        W18232  17.033   7.681  14.352
53072W        W18233  16.044  44.507   0.225
53073W        W18234  29.914   9.148  14.845
53074W        W18235   4.766   3.140  14.744
53075W        W18236  26.753  18.848  14.402
53076W        W18237  34.189  35.786   4.167
53077W        W18238  37.648  42.740  11.148
53078W        W18239  17.728  11.673  13.360
53079W        W18240  44.791  33.490  13.101
53080W        W18241   3.277  36.981  11.003
53081W        W18242  20.798  19.902  11.178
53082W        W18243  17.099   1.395  13.451
53083W        W18244  26.756  37.293   1.308
53084W        W18245  42.532   4.213   3.629
53085W        W18246  44.821   1.937  13.838
53086W        W18247   9.315  20.860  12.479
53087W        W18248  40.353   7.187   4.396
53088W        W18249   0.214  31.646  11.988
53089W        W18250  39.854   6.827  12.316
53090W        W18251  32.682  17.486   2.597
53091W        W18252  14.725  25.971   4.079
53092W        W18253  18.754  28.017  11.219
53093W        W18254  30.134  10.824  10.382
53094W        W18255   3.299   3.291  11.342
53095W        W18256   1.969  28.042   5.008
53096W        W18257  34.420  37.030   1.132
53097W        W18258  43.438  42.746  10.386
53098W        W18259  22.142  16.061  13.787
53099W        W18260  26.593  21.982   9.851
53100W        W18261  26.157  26.962  14.074
53101W        W18262  30.415  30.122   2.728
53102W        W18263  27.290  31.112  12.965
53103W        W18264  31.429  35.500  14.294
53104W        W18265   3.696  41.461  14.278
53105W        W18266  25.094  37.350   5.526
53106W        W18267  20.564  35.372   1.277
53107W        W18268   5.496  38.408  11.085
53108W        W18269  15.717  22.190  14.750
53109W        W18270  37.309  39.893   1.071
53110W        W18271  12.111  28.403   1.800
53111W        W18272   5.708  13.254   3.082
53112W        W18273  27.683  18.238  13.405
53113W        W18274   8.833  25.504  13.069
53114W        W18275   6.325  23.691   3.724
53115W        W18276  21.024   9.700  10.922
53116W        W18277  20.549  43.770   4.204
53117W        W18278   8.984   2.168  14.553
53118W        W18279  32.618  44.771   1.363
53119W        W18280  14.556  30.209  14.059
53120W        W18281  21.872  33.008   2.209
53121W        W18282  18.648  29.555  10.393
53122W        W18283  30.055  33.698   1.916
53123W        W18284  32.579  27.637  14.713
53124W        W18285  25.731  16.732   0.283
53125W        W18286   1.527  39.969  11.167
53126W        W18287  40.295  43.789  14.314
53127W        W18288  26.084  25.591   4.336
53128W        W18289  22.000  21.024   0.346
53129W        W18290  15.747   5.544  13.524
53130W        W18291  10.119  30.076   4.851
53131W        W18292   9.662  21.287   0.769
53132W        W18293  12.891  42.389   1.807
53133W        W18294  10.824  18.380  12.821
53134W        W18295  37.585  10.526   4.180
53135W        W18296   7.742  21.010  14.775
53136W        W18297  40.894   6.754   2.905
53137W        W18298  26.444   9.325   2.357
53138W        W18299  33.493  26.270   4.047
53139W        W18300  24.766  27.147   3.576
53140W        W18301  19.625   1.197   3.201
53141W        W18302  15.763  31.156   1.671
53142W        W18303  43.779   5.901  12.455
53143W        W18304  34.795   8.876  12.382
53144W        W18305  39.474  20.769  11.757
53145W        W18306  12.358  14.155   3.738
53146W        W18307   8.756   4.586   1.020
53147W        W18308  20.726  42.739  14.271
53148W        W18309   4.272  22.934  13.832
53149W        W18310   2.015   6.231  10.635
53150W        W18311  14.123   9.785  11.889
53151W        W18312  40.404  10.843  10.559
53152W        W18313  40.132  35.477  14.251
53153W        W18314  33.575  28.621  14.911
53154W        W18315  23.634   2.807   3.809
53155W        W18316  34.621  19.071   0.647
53156W        W18317  15.727   2.313   2.359
53157W        W18318  37.794  43.341   4.691
53158W        W18319  19.804  42.008   2.528
53159W        W18320  11.674  39.495  11.216
53160W        W18321  37.537   6.912   1.279
53161W        W18322  29.068  34.781   3.233
53162W        W18323  39.625  29.505  12.956
53163W        W18324  17.157  33.596  10.247
53164W        W18325  27.741   1.699  10.272
53165W        W18326   5.399  20.294  11.985
53166W        W18327  44.142  19.630   2.242
53167W        W18328  28.207   2.710   1.021
53168W        W18329  25.185  40.576  13.554
53169W        W18330   7.003  22.481  14.769
53170W        W18331   2.763  20.751   0.849
53171W        W18332   6.923  23.779   3.082
53172W        W18333   0.768  34.484   3.152
53173W        W18334   6.168  21.907  13.488
53174W        W18335  30.005   4.347   4.768
53175W        W18336  37.511  39.061   4.694
53176W        W18337   1.823  10.039   5.013
53177W        W18338  44.009  34.135   0.518
53178W        W18339   8.386  26.917   3.085
53179W        W18340  32.395  12.632   2.358
53180W        W18341  24.094   3.729   3.186
53181W        W18342  38.269  19.040   2.189
53182W        W18343  35.605  22.936  14.842
53183W        W18344  20.830  13.028  12.018
53184W        W18345  29.232  35.129   4.426
53185W        W18346  24.581  31.586   1.314
53186W        W18347   4.336  31.561  14.863
53187W        W18348  23.686  29.196   3.951
53188W        W18349  24.912  22.751   3.337
53189W        W18350  37.860  30.147   2.093
53190W        W18351  40.925   2.821   0.283
53191W        W18352  44.323  24.410   0.405
53192W        W18353  40.241  39.828   3.336
53193W        W18354  13.826  10.199  13.059
53194W        W18355  25.687  28.465  14.840
53195W        W18356  13.605  32.569  11.677
53196W        W18357  35.267   3.971  14.389
53197W        W18358  27.915  40.965   1.411
53198W        W18359  21.685  11.831  13.543
53199W        W18360  37.528  27.465  10.872
53200W        W18361  40.710  35.440  12.468
53201W        W18362  33.545  33.678  10.509
53202W        W18363  10.234  13.608   2.888
53203W        W18364  31.970  37.038   2.420
53204W        W18365  17.502  42.397   3.663
53205W        W18366   9.463  10.152  11.319
53206W        W18367   3.464  13.769  12.058
53207W        W18368  34.113  24.367   1.339
53208W        W18369   3.984  44.865  10.540
53209W        W18370  19.871  11.985  13.103
53210W        W18371  17.014  27.544  13.365
53211W        W18372  10.181  32.019   3.913
53212W        W18373   0.529   4.256   4.947
53213W        W18374  13.805   1.500   4.585
53214W        W18375  39.126  38.609  12.602
53215W        W18376  20.848  37.295   3.831
53216W        W18377  31.420  40.926   3.415
53217W        W18378  38.081   8.970  13.530
53218W        W18379  21.997  35.885   2.477
53219W        W18380  17.843  31.209  12.402
53220W        W18381  42.627   0.335  12.009
53221W        W18382  12.441  12.602   0.284
53222W        W18383  18.117  15.020  14.753
53223W        W18384  24.227  43.537   0.854
53224W        W18385  28.336   9.383   0.460
53225W        W18386  24.528   2.872  12.969
53226W        W18387  40.913  28.146   3.909
53227W        W18388  20.579  32.793   1.455
53228W        W18389  44.246  38.598  10.784
53229W        W18390  16.716  14.772   2.793
53230W        W18391  29.931   9.937  10.408
53231W        W18392  23.109  33.312  14.258
53232W        W18393  19.582  29.930  10.606
53233W        W18394  18.934  31.037   1.826
53234W        W18395  10.037  29.885   2.322
53235W        W18396  10.325  38.227  11.536
53236W        W18397  36.936   5.201  11.147
53237W        W18398   0.965  29.049   0.818
53238W        W18399   6.633  31.235   2.753
53239W        W18400  35.848  38.017   1.868
53240W        W18401   8.277  30.382   0.333
53241W        W18402  24.135  10.595   3.974
53242W        W18403  14.289  23.390  11.530
53243W        W18404  37.026   8.970  14.042
53244W        W18405  11.633  10.253  11.679
53245W        W18406  11.908  38.266  11.455
53246W        W18407  42.311  24.073  12.766
53247W        W18408   7.517  33.807   4.012
53248W        W18409   3.181  34.355  14.699
53249W        W18410   5.967  28.221  11.094
53250W        W18411  10.709  38.333   0.419
53251W        W18412  29.616  40.303  11.094
53252W        W18413  33.389  34.254  12.310
53253W        W18414  11.396  42.441  14.957
53254W        W18415   5.500  37.421  14.845
53255W        W18416  24.034  30.127  11.604
53256W        W18417  34.198  15.600  12.899
53257W        W18418  42.592  32.840  10.883
53258W        W18419  27.482   8.202  14.062
53259W        W18420  41.874  10.887  12.107
53260W        W18421  28.229  40.345   0.436
53261W        W18422  14.771  11.392  13.539
53262W        W18423   2.644  43.097   0.499
53263W        W18424   8.095  13.655   1.287
53264W        W18425  29.151   9.931   1.253
53265W        W18426  33.114  15.907   2.343
53266W        W18427  19.591  16.024   1.273
53267W        W18428   3.846   9.227  13.386
53268W        W18429  39.519  26.784  11.988
53269W        W18430  17.004  38.934   4.552
53270W        W18431  12.580  30.413   4.335
53271W        W18432   9.813   1.434   3.663
53272W        W18433  34.788  33.681   4.754
53273W        W18434  32.575  44.980  11.466
53274W        W18435  29.153   0.167  12.053
53275W        W18436  29.570  38.591   2.702
53276W        W18437  19.282   5.690   3.199
53277W        W18438  31.143  44.356  12.829
53278W        W18439  31.875  21.173   1.790
53279W        W18440   5.041  31.859   5.216
53280W        W18441  15.112   2.062  12.506
53281W        W18442  33.550   7.866  11.104
53282W        W18443  37.374  12.364   0.923
53283W        W18444  19.565   8.624   2.267
53284W        W18445  17.276  38.274   3.669
53285W        W18446  40.759   5.114   1.908
53286W        W18447   1.123  27.115  12.916
53287W        W18448  20.996   1.510  13.291
53288W        W18449   1.973   2.700   2.612
53289W        W18450  24.974   0.420  14.037
53290W        W18451  16.082   5.793  11.830
53291W        W18452  42.782  22.178   0.300
53292W        W18453  26.240  43.505  10.679
53293W        W18454  35.638  19.444  12.562
53294W        W18455  19.606  11.274   2.577
53295W        W18456  10.176  23.597   2.123
53296W        W18457  36.807  24.737   4.113
53297W        W18458  23.120  34.933   3.215
53298W        W18459   0.733  25.109   0.829
53299W        W18460   9.446   1.758  13.850
53300W        W18461  26.645  16.097  14.326
53301W        W18462  22.776   6.955   3.880
53302W        W18463  42.439  39.766   2.327
53303W        W18464  10.115  10.683   3.791
53304W        W18465  13.734  26.201   1.356
53305W        W18466  22.480   4.176   4.270
53306W        W18467  10.781  42.543   2.089
53307W        W18468  36.514  37.481   3.880
53308W        W18469  32.596   6.208   2.222
53309W        W18470  36.102   4.968   1.775
53310W        W18471   7.398   2.727   4.319
53311W        W18472  28.541  28.481   0.262
53312W        W18473  10.593   6.729  10.549
53313W        W18474   3.467  12.090   1.911
53314W        W18475  28.044  17.284  14.945
53315W        W18476  22.261  35.967  10.593
53316W        W18477   2.354  10.421  13.872
53317W        W18478  39.284  35.599   4.262
53318W        W18479   7.119  15.700   1.716
53319W        W18480  29.521  25.018  13.102
53320W        W18481  36.480  18.553  11.818
53321W        W18482  29.918  38.394   4.834
53322W        W18483  25.722  13.457  13.458
53323W        W18484  27.139   2.889   1.273
53324W        W18485  10.415  21.904   4.671
53325W        W18486  30.611   2.768   3.141
53326W        W18487  34.421  34.009  13.568
53327W        W18488  16.378  43.349   5.111
53328W        W18489   6.285  31.095  11.217
53329W        W18490   4.660  20.579  11.093
53330W        W18491  41.052   1.549   4.785
53331W        W18492  25.711  16.198  13.401
53332W        W18493  17.324  10.989   4.008
53333W        W18494  12.913  12.896  11.541
53334W        W18495  31.279  36.777   3.289
53335W        W18496   3.780  33.181  12.444
53336W        W18497  36.854  17.192  12.438
53337W        W18498   3.298  38.810  10.614
53338W        W18499  11.947  29.024  11.984
53339W        W18500   5.661  25.947   1.447
53340W        W18501  29.590  13.273  11.141
53341W        W18502  13.609  40.828   0.683
53342W        W18503  33.523  24.255   3.328
53343W        W18504  21.961  20.669   2.279
53344W        W18505  37.674   6.988  13.497
53345W        W18506  25.546  27.141  14.071
53346W        W18507  33.481  23.192  11.621
53347W        W18508  30.048   4.634   3.362
53348W        W18509  41.982  41.386  13.387
53349W        W18510   5.820  36.751  13.001
53350W        W18511  40.868  17.247  14.554
53351W        W18512  24.198  41.236  14.870
53352W        W18513  42.960  11.170  13.660
53353W        W18514  13.677  36.221  14.121
53354W        W18515  32.434  44.073   1.268
53355W        W18516   5.250  19.016  12.452
53356W        W18517  16.223  15.483  14.731
53357W        W18518  39.967   6.360   1.059
53358W        W18519  21.175   2.243   0.597
53359W        W18520  40.523   3.660  13.124
53360W        W18521   0.891   0.727   4.552
53361W        W18522  39.092  19.457  11.389
53362W        W18523  10.341  13.085   1.026
53363W        W18524  12.432   1.341   1.290
53364W        W18525  28.028  42.209  12.159
53365W        W18526  27.366  18.185  12.954
53366W        W18527   6.397  17.154  10.134
53367W        W18528  28.071  14.693   3.767
53368W        W18529  16.797  28.370  11.008
53369W        W18530  43.109  17.729   1.290
53370W        W18531  42.774   4.816  13.329
53371W        W18532   4.878  21.884  11.690
53372W        W18533  24.099   6.701   0.231
53373W        W18534  43.395  20.216  12.526
53374W        W18535  30.186  26.589   1.749
53375W        W18536  18.123  17.303   9.831
53376W        W18537  20.662  20.397  11.045
53377W        W18538  33.053  22.594   2.572
53378W        W18539  17.311  28.419  11.039
53379W        W18540  14.316  36.452   4.254
53380W        W18541  30.739  12.134  12.237
53381W        W18542  39.706  19.145   4.784
53382W        W18543   3.825  26.706   0.899
53383W        W18544  23.943   5.311   0.321
53384W        W18545  33.138  43.996  14.507
53385W        W18546  38.373  11.510   4.206
53386W        W18547  12.320  12.693   1.831
53387W        W18548  40.941  15.627  12.441
53388W        W18549  40.463   2.244   2.352
53389W        W18550  44.768   8.957  11.566
53390W        W18551   8.869   1.429   3.750
53391W        W18552  32.547  18.813   4.370
53392W        W18553  25.737  20.745  11.427
53393W        W18554  21.659  18.590   4.581
53394W        W18555  20.627  35.017   3.684
53395W        W18556   2.061  26.543   0.886
53396W        W18557  19.186  19.859  13.557
53397W        W18558  39.569   5.521  13.518
53398W        W18559  20.586  41.883   1.437
53399W        W18560  20.027  30.699   3.891
53400W        W18561  38.877   8.076   0.283
53401W        W18562  33.374  37.540   3.627
53402W        W18563   3.302  34.343  11.572
53403W        W18564  11.918   0.723   3.239
53404W        W18565   7.174  20.266  13.122
53405W        W18566  29.393  32.575  14.279
53406W        W18567  22.940  37.274   4.583
53407W        W18568  30.850  16.663   0.917
53408W        W18569  21.451  31.169   1.575
53409W        W18570  20.105  34.390   5.082
53410W        W18571   2.423  14.092  12.360
53411W        W18572  24.689  11.149   1.244
53412W        W18573   5.133  36.985  11.212
53413W        W18574  15.638  14.204  10.592
53414W        W18575  44.259  38.826  10.333
53415W        W18576  44.995   4.986  13.870
53416W        W18577   5.311  14.021   5.083
53417W        W18578  15.029  37.878  11.381
53418W        W18579  40.310  16.506  13.372
53419W        W18580  23.020  36.483  10.924
53420W        W18581  24.727   7.142  14.860
53421W        W18582   6.918  20.800  14.509
53422W        W18583  32.556   4.241  11.165
53423W        W18584  22.238  27.664   2.666
53424W        W18585   3.503  10.995  13.835
53425W        W18586  40.704   4.463  12.686
53426W        W18587  15.748  18.566  10.727
53427W        W18588  11.073  42.028   4.758
53428W        W18589  21.835  44.976  13.495
53429W        W18590   3.744  24.649  13.189
53430W        W18591  22.221  41.875  14.101
53431W        W18592  41.468  43.131  14.091
53432W        W18593  22.985  16.772   4.645
53433W        W18594  41.351  20.349  13.379
53434W        W18595  43.459  39.949   1.565
53435W        W18596  39.877  41.270  13.166
53436W        W18597   1.258  23.446   0.439
53437W        W18598  26.991  27.018   0.650
53438W        W18599   9.364  16.081   4.590
53439W        W18600   4.759  10.621  10.593
53440W        W18601  39.270   1.672   4.095
53441W        W18602  39.862  13.133  13.705
53442W        W18603  10.174  31.727   3.344
53443W        W18604  11.969   6.699   4.983
53444W        W18605  25.560   0.202   1.691
53445W        W18606  44.442  18.855   3.652
53446W        W18607  13.816  23.019  12.383
53447W        W18608  34.565  17.666   3.392
53448W        W18609  38.790  31.558  11.181
53449W        W18610   3.782  36.932  13.651
53450W        W18611  31.075  39.304  10.645
53451W        W18612   2.940  39.122  12.829
53452W        W18613  26.597  32.577   4.596
53453W        W18614  22.566   6.487   3.756
53454W        W18615  29.267  36.666  11.897
53455W        W18616  18.511   6.788   0.775
53456W        W18617  10.196  44.692  11.903
53457W        W18618  44.036  14.159  12.456
53458W        W18619  36.064   2.028   2.839
53459W        W18620  20.134  40.110   3.253
53460W        W18621  39.055   8.921  10.602
53461W        W18622  22.355  11.771   4.570
53462W        W18623  18.577  31.560   1.043
53463W        W18624  16.361  36.053  11.076
53464W        W18625  25.301  11.671   3.275
53465W        W18626  25.936  23.139  12.973
53466W        W18627   7.383  23.226  11.624
53467W        W18628  39.400  32.272   2.271
53468W        W18629  37.119  15.748   3.064
53469W        W18630  31.647  40.424  12.484
53470W        W18631  39.554  37.327  14.321
53471W        W18632  15.684  17.421  14.460
53472W        W18633  25.746  38.370   1.606
53473W        W18634   1.459  13.866   3.121
53474W        W18635  32.599  38.042  13.348
53475W        W18636  21.531  13.537  12.951
53476W        W18637   5.360  27.128   1.745
53477W        W18638  36.630   3.190  12.900
53478W        W18639  20.773  13.294  13.550
53479W        W18640   0.503  44.412   0.977
53480W        W18641  35.401  42.314   4.338
53481W        W18642  30.877  43.481  12.608
53482W        W18643  43.036  11.037  10.168
53483W        W18644   5.690  28.333  13.782
53484W        W18645   6.684   2.843  13.929
53485W        W18646  35.648  29.528  12.848
53486W        W18647  25.670  28.168  13.098
53487W        W18648  32.867   2.648   3.199
53488W        W18649   5.727  26.100   4.009
53489W        W18650  23.061  38.406  11.578
53490W        W18651  13.262  23.275  12.945
53491W        W18652  13.495   2.391   4.163
53492W        W18653  30.516   2.451  11.652
53493W        W18654  29.019  22.560   4.591
53494W        W18655   4.722  39.590   2.733
53495W        W18656   9.464   0.804  11.219
53496W        W18657  12.363  43.877   0.300
53497W        W18658   7.132   6.194   1.758
53498W        W18659  16.534  41.021   0.423
53499W        W18660  21.009  36.468  14.266
53500W        W18661  29.048  26.691   0.728
53501W        W18662  35.358  13.826  13.319
53502W        W18663  18.264  13.708   3.103
53503W        W18664  29.637   4.709  12.377
53504W        W18665  21.183  39.055   0.461
53505W        W18666   2.606  18.698   3.552
53506W        W18667  21.794   0.702   0.854
53507W        W18668  18.150  36.032   0.780
53508W        W18669  16.809  28.522   3.296
53509W        W18670  20.920   2.133   1.024
53510W        W18671  38.857   2.220   0.387
53511W        W18672  34.178   7.389   4.225
53512W        W18673   0.760  11.616   2.295
53513W        W18674   9.830  43.090   0.909
53514W        W18675   7.339  17.983   2.340
53515W        W18676   5.085  36.340   0.859
53516W        W18677  11.843  20.862   0.915
53517W        W18678  28.176  15.055   2.307
53518W        W18679  21.636  12.832  12.316
53519W        W18680  31.486  20.464  12.714
53520W        W18681  33.161   1.528  13.434
53521W        W18682  37.810   7.684  12.441
53522W        W18683  36.093  20.701   2.873
53523W        W18684  12.380  30.218   1.633
53524W        W18685  34.641  22.007   4.740
53525W        W18686   9.273  32.624  11.164
53526W        W18687  28.641  22.651  12.882
53527W        W18688  31.877  19.679   4.712
53528W        W18689   3.800  32.951   0.891
53529W        W18690  23.211  44.910   1.251
53530W        W18691  32.116  33.985  11.109
53531W        W18692   9.591  26.074   1.887
53532W        W18693  28.477  15.712   3.247
53533W        W18694   3.808  43.209   4.820
53534W        W18695  44.861  27.166   1.206
53535W        W18696  19.293  19.199  14.399
53536W        W18697  30.162  21.189  11.538
53537W        W18698  32.389  30.925  12.528
53538W        W18699  22.085  13.158  12.939
53539W        W18700  26.172   1.949  14.008
53540W        W18701  23.626  11.622   1.662
53541W        W18702  26.462  34.558  11.649
53542W        W18703   6.506  34.192   1.903
53543W        W18704  24.114  13.749  11.994
53544W        W18705  11.612  30.424   3.737
53545W        W18706  26.052  36.760  13.305
53546W        W18707  41.894   3.806   4.316
53547W        W18708  33.634  38.937  11.736
53548W        W18709  25.600   5.219  11.664
53549W        W18710   2.789  15.940  11.591
53550W        W18711  11.159  23.401  12.383
53551W        W18712  14.401  31.039  10.706
53552W        W18713  41.357  31.516  14.746
53553W        W18714  19.029   6.714   0.853
53554W        W18715  35.586  36.152  13.430
53555W        W18716  41.090  21.617   4.481
53556W        W18717  43.122  11.374  14.217
53557W        W18718  18.333   8.339   1.871
53558W        W18719  32.746  35.652  11.780
53559W        W18720  39.822   8.188  11.669
53560W        W18721  31.167   0.417  14.752
53561W        W18722   8.680  36.865  14.966
53562W        W18723  10.806  44.636   0.879
53563W        W18724  27.931  41.317  14.440
53564W        W18725  12.413   1.999  11.173
53565W        W18726  30.558   9.156   1.405
53566W        W18727  44.610  29.232   3.199
53567W        W18728  30.403  10.635   4.326
53568W        W18729  10.062   3.842  12.102
53569W        W18730  41.766  17.845  11.556
53570W        W18731   1.502  30.971   0.990
53571W        W18732  30.946  10.518  11.807
53572W        W18733  43.546  15.097  12.224
53573W        W18734   6.780  30.792  11.121
53574W        W18735  10.296  37.363   3.233
53575W        W18736  39.320  16.085   3.179
53576W        W18737  11.862  20.678   3.600
53577W        W18738  37.939  25.729   2.754
53578W        W18739  35.383  15.743   1.378
53579W        W18740  23.553  24.789   1.717
53580W        W18741   8.613  12.032   1.914
53581W        W18742  29.479  34.543  13.979
53582W        W18743  19.852  31.374  10.739
53583W        W18744  11.314  19.159  14.025
53584W        W18745  44.453  26.456  11.315
53585W        W18746  15.687  27.426   3.836
53586W        W18747   3.799  30.133   2.848
53587W        W18748  22.714  36.874   4.335
53588W        W18749  14.900  33.782   1.954
53589W        W18750   8.900  42.386  12.948
53590W        W18751   5.806  12.040   0.961
53591W        W18752  26.750  37.873  13.779
53592W        W18753  28.157  18.209  12.506
53593W        W18754  19.121  22.193   3.361
53594W        W18755   8.936  12.061  13.961
53595W        W18756  14.275  12.757  13.166
53596W        W18757  21.544  33.224  12.134
53597W        W18758  39.425  43.530  11.911
53598W        W18759  26.523  43.388   0.328
53599W        W18760  13.912  15.090   3.727
53600W        W18761   0.616  32.591   1.281
53601W        W18762  16.255  16.298  10.280
53602W        W18763   4.744  13.506  11.483
53603W        W18764  10.816  34.931  11.618
53604W        W18765  19.510   2.986   3.725
53605W        W18766   2.500  10.424   0.832
53606W        W18767   3.975  17.886   1.017
53607W        W18768  41.420  44.151   4.751
53608W        W18769  17.386   9.355  11.574
53609W        W18770  39.222  16.615  14.201
53610W        W18771  12.141  11.982  14.360
53611W        W18772  33.069  26.275   0.404
53612W        W18773  39.388   9.299   3.814
53613W        W18774  20.785  10.868   4.810
53614W        W18775  21.577  36.906   4.582
53615W        W18776   3.266  19.205   2.755
53616W        W18777   9.681  38.090  10.387
53617W        W18778   1.469  36.023  10.697
53618W        W18779   9.451  26.507  12.975
53619W        W18780  26.959   4.906  10.682
53620W        W18781  42.129  13.543   4.111
53621W        W18782  29.676  18.054   1.851
53622W        W18783  23.328  12.671  13.816
53623W        W18784  19.094   1.449  11.727
53624W        W18785  40.998  30.504   2.580
53625W        W18786  15.164  36.114   2.400
53626W        W18787  29.646  21.753  11.982
53627W        W18788   4.973  11.297  12.433
53628W        W18789   1.881  36.177  10.963
53629W        W18790  13.219  34.454  13.333
53630W        W18791  28.654  39.563   3.895
53631W        W18792  30.022  25.763  10.654
53632W        W18793  15.671  11.724   0.925
53633W        W18794  37.080   9.499   3.800
53634W        W18795  40.749  38.452   0.707
53635W        W18796  36.946   0.011  14.995
53636W        W18797  31.118  34.891   0.945
53637W        W18798  34.886   5.186   4.650
53638W        W18799  30.951   7.250   2.188
53639W        W18800  28.469  12.598   0.922
53640W        W18801   2.931  44.911   1.703
53641W        W18802   1.209  41.788   1.223
53642W        W18803  11.664  23.083  12.427
53643W        W18804  10.826   8.317  11.840
53644W        W18805  39.091  22.830   1.433
53645W        W18806   0.299  23.453   3.732
53646W        W18807  40.808   2.195   2.759
53647W        W18808  16.785   9.863   4.078
53648W        W18809  12.246  30.392   0.253
53649W        W18810  40.034  12.620  14.535
53650W        W18811   3.810  10.224   9.994
53651W        W18812  22.743  35.726   9.955
53652W        W18813   1.805   0.904   3.067
53653W        W18814   3.782  20.206   2.688
53654W        W18815  36.724  28.375   1.407
53655W        W18816  30.252  15.897   3.613
53656W        W18817  42.426  41.986  11.175
53657W        W18818  26.182  38.368   0.320
53658W        W18819  26.234  44.574  12.078
53659W        W18820   9.118  17.091  12.217
53660W        W18821  13.866  44.956   0.291
53661W        W18822   5.946  43.932   1.359
53662W        W18823   9.128  44.468  11.220
53663W        W18824  22.611  39.964  12.609
53664W        W18825  32.607  42.618   3.681
53665W        W18826  23.987  20.315  13.065
53666W        W18827  44.100   8.173  13.319
53667W        W18828   9.906  42.098  10.573
53668W        W18829  11.194  26.974   3.313
53669W        W18830   9.649  34.097  14.880
53670W        W18831  12.827  18.464  11.913
53671W        W18832  22.219  13.181  11.007
53672W        W18833  40.434  32.979  11.658
53673W        W18834  41.149   1.037  11.105
53674W        W18835  31.977  28.041  10.808
53675W        W18836  13.626  25.600  14.896
53676W        W18837  22.143  23.195  14.114
53677W        W18838  32.384  11.550   5.096
53678W        W18839  44.552  24.009  14.724
53679W        W18840  12.779  38.143  14.645
53680W        W18841  22.553  15.853   4.510
53681W        W18842  16.058  37.544  11.212
53682W        W18843  37.963  25.461  11.482
53683W        W18844   3.243  16.775  11.051
53684W        W18845  12.699  43.271   4.150
53685W        W18846  26.743  23.472   2.781
53686W        W18847  23.248  32.462  14.408
53687W        W18848   0.485  20.028   3.244
53688W        W18849  41.765  34.071  12.003
53689W        W18850  19.155  38.523   1.822
53690W        W18851   3.193  11.408  10.989
53691W        W18852  32.493  41.792   2.188
53692W        W18853  30.578  43.169   0.888
53693W        W18854  40.957   1.776  14.194
53694W        W18855  29.529  20.184  11.294
53695W        W18856  42.987  12.177  13.751
53696W        W18857  14.826   7.164  13.190
53697W        W18858  12.921   7.191  10.678
53698W        W18859   4.509  25.302   1.706
53699W        W18860  32.950  35.962  14.911
53700W        W18861  40.879  38.367   1.437
53701W        W18862  32.535  31.219  12.923
53702W        W18863  25.413  37.486   2.621
53703W        W18864  29.030  31.217  11.894
53704W        W18865  16.642   8.392   0.797
53705W        W18866  31.401   6.740  12.974
53706W        W18867  42.244  20.586   1.512
53707W        W18868  37.609   7.088   2.690
53708W        W18869   5.156  36.901  10.718
53709W        W18870  41.535  30.367  13.366
53710W        W18871  10.842  37.629   2.026
53711W        W18872  35.448  21.497  10.725
53712W        W18873  35.941  24.438  13.156
53713W        W18874  37.247  23.697  13.038
53714W        W18875   8.218   1.337  14.828
53715W        W18876  25.279  24.649   3.446
53716W        W18877  14.838  19.581   0.338
53717W        W18878  32.017  30.433   0.151
53718W        W18879  40.995  32.623   1.720
53719W        W18880   5.584  36.067  14.398
53720W        W18881  42.946  44.813   0.586
53721W        W18882   0.312  32.946  13.565
53722W        W18883  41.011  43.168  12.236
53723W        W18884  23.222  18.558  11.428
53724W        W18885   6.962  14.584   2.217
53725W        W18886  44.010  27.848  10.912
53726W        W18887   5.760  33.982  12.637
53727W        W18888  44.304  19.838   2.799
53728W        W18889  43.466  40.553   5.461
53729W        W18890   0.678   2.699   2.337
53730W        W18891  33.822  32.079   0.371
53731W        W18892  40.180  43.301  12.465
53732W        W18893  13.296  36.822  12.412
53733W        W18894   7.324  12.679  14.386
53734W        W18895   7.440   9.944  11.171
53735W        W18896  25.053  11.918  14.152
53736W        W18897  22.567  37.623  13.579
53737W        W18898  12.852  27.173  11.660
53738W        W18899  20.244  13.219   0.358
53739W        W18900  41.794  34.430   3.869
53740W        W18901  20.222  42.779  14.342
53741W        W18902   0.866  35.892  14.525
53742W        W18903  13.622  39.061  10.567
53743W        W18904  34.436  18.598  14.827
53744W        W18905   7.661   9.749   3.789
53745W        W18906   8.777  13.812   3.206
53746W        W18907   4.930  39.075   3.731
53747W        W18908  33.915  25.025  12.910
53748W        W18909  35.071  42.453   0.495
53749W        W18910  20.224  32.170   2.329
53750W        W18911  41.464   9.441   0.327
53751W        W18912  21.746  25.149   3.519
53752W        W18913  24.320  32.902  14.008
53753W        W18914   5.398  33.415   2.857
53754W        W18915  21.676  40.358   5.049
53755W        W18916  27.368  12.880   3.138
53756W        W18917   9.235  27.982   2.832
53757W        W18918  28.592  28.513  12.551
53758W        W18919   8.155  41.009   1.423
53759W        W18920   7.122   5.305  12.408
53760W        W18921  13.261  37.325  14.807
53761W        W18922  25.709  12.085   4.134
53762W        W18923   8.696  20.464  14.950
53763W        W18924  39.773  40.087  13.910
53764W        W18925  10.927  19.294  14.322
53765W        W18926  30.426  10.711  12.363
53766W        W18927  10.116  35.387  13.402
53767W        W18928  23.666   5.746  14.391
53768W        W18929  20.686  12.351  11.171
53769W        W18930  15.785  43.933  11.088
53770W        W18931  44.785  25.503  11.558
53771W        W18932   3.235  11.275   3.862
53772W        W18933  13.895  17.841  14.881
53773W        W18934   1.815  13.711  13.072
53774W        W18935  20.804  34.725   4.564
53775W        W18936  27.127   1.982  10.706
53776W        W18937  37.792  13.688  14.070
53777W        W18938   3.758  33.891  10.740
53778W        W18939   4.963  30.944  13.978
53779W        W18940  25.231  22.592   0.261
53780W        W18941  10.048  24.219   2.802
53781W        W18942  20.317  28.485  14.343
53782W        W18943  14.172  21.059   2.777
53783W        W18944  22.089  35.437  10.436
53784W        W18945   3.925  41.690   0.558
53785W        W18946  12.749  26.869   2.659
53786W        W18947  33.942  28.708   1.396
53787W        W18948  42.901   0.242   3.734
53788W        W18949  37.309  37.457  12.042
53789W        W18950   9.440   8.682  10.283
53790W        W18951   6.858  38.355   0.982
53791W        W18952  18.622  31.640  10.986
53792W        W18953  40.557  28.908  11.251
53793W        W18954  33.974   5.321  10.435
53794W        W18955  28.744  26.490  12.867
53795W        W18956  42.980  35.251   3.554
53796W        W18957  36.452  30.580  10.839
53797W        W18958  29.002  39.365   3.339
53798W        W18959  20.653  40.313  12.977
53799W        W18960  10.948  21.160   1.756
53800W        W18961   3.654   1.704   0.309
53801W        W18962   5.639  18.058   0.188
53802W        W18963  27.376  36.477  10.774
53803W        W18964  18.808  11.334   2.228
53804W        W18965  37.710  29.621   0.322
53805W        W18966  26.009  28.602  14.234
53806W        W18967  18.209  14.604   5.108
53807W        W18968   3.847   1.866   2.508
53808W        W18969  42.924  37.799   0.005
53809W        W18970  22.730   1.571   3.917
53810W        W18971  17.772  44.812   1.069
53811W        W18972  10.673  31.484  10.773
53812W        W18973  17.111  14.431   0.314
53813W        W18974  24.484  22.152  12.936
53814W        W18975  28.943   6.815   4.000
53815W        W18976  19.620  29.542  13.826
53816W        W18977  16.783  25.465   1.219
53817W        W18978  34.369  37.588  13.557
53818W        W18979  27.094   9.367  14.870
53819W        W18980  26.534  10.683  11.848
53820W        W18981  15.801   9.886  13.599
53821W        W18982   9.785  20.701   3.549
53822W        W18983  41.862  31.972   4.227
53823W        W18984  42.472   9.154  13.807
53824W        W18985  19.111  18.097   5.070
53825W        W18986  42.331  24.681  14.544
53826W        W18987  11.243  32.413   1.449
53827W        W18988  32.325  29.960  12.527
53828W        W18989  30.278   2.175  12.079
53829W        W18990  38.857  23.686   3.802
53830W        W18991  25.234  33.262   5.104
53831W        W18992  34.081  27.389  13.038
53832W        W18993  16.806  43.358   3.603
53833W        W18994   9.462  10.290   2.855
53834W        W18995  44.724  30.105  12.961
53835W        W18996   0.905  22.282  12.447
53836W        W18997   8.856  33.863   3.440
53837W        W18998   8.209   1.519  13.125
53838W        W18999  15.734  37.002   0.363
53839W        W19000  23.477  13.622  10.740
53840W        W19001   1.027  11.182   0.001
53841W        W19002  33.961  20.938   1.373
53842W        W19003  37.053  22.973   4.117
53843W        W19004  42.259   5.602   3.701
53844W        W19005  19.155  35.323  11.156
53845W        W19006   5.136  14.189  14.458
53846W        W19007  27.185  37.549   3.624
53847W        W19008   3.268  19.992   1.759
53848W        W19009  40.779  21.755   2.247
53849W        W19010  11.108  16.553  12.896
53850W        W19011   9.237  37.400  14.917
53851W        W19012  21.302  44.207   3.750
53852W        W19013  41.833   6.833  10.398
53853W        W19014  10.238  42.552  11.149
53854W        W19015  18.276  36.032  13.373
53855W        W19016  26.100   2.353  12.804
53856W        W19017  35.102   2.364  12.689
53857W        W19018   4.373  36.486  14.901
53858W        W19019  14.075  22.046  11.286
53859W        W19020  34.089  33.943   2.979
53860W        W19021  24.322  41.526   3.614
53861W        W19022  29.911  25.567   2.072
53862W        W19023  31.577   3.775   4.793
53863W        W19024  32.907  37.378   3.411
53864W        W19025  19.640   7.694   0.337
53865W        W19026  44.156  33.589   2.154
53866W        W19027  21.033  31.379  10.720
53867W        W19028  23.127  28.197   4.304
53868W        W19029   0.835  25.518   2.186
53869W        W19030   2.999  18.561  14.478
53870W        W19031   3.675  42.541  14.478
53871W        W19032   5.454  33.583  12.809
53872W        W19033  28.122  38.010  13.895
53873W        W19034   0.735  34.812   3.890
53874W        W19035  27.088   1.062  12.386
53875W        W19036  12.676  29.614   0.935
53876W        W19037  23.060   1.734  14.757
53877W        W19038  23.590  26.952   0.232
53878W        W19039  36.045  26.926  14.749
53879W        W19040  22.321  13.256  14.315
53880W        W19041  27.650  20.023   0.034
53881W        W19042  34.805  30.531   2.460
53882W        W19043  33.647  38.729  13.935
53883W        W19044  11.826   8.463  12.564
53884W        W19045  11.643  12.825   2.226
53885W        W19046  16.126  41.493   3.244
53886W        W19047  13.312   5.722   3.071
53887W        W19048  25.615  32.904  14.776
53888W        W19049   1.195  21.160  10.617
53889W        W19050  43.757   1.932   1.070
53890W        W19051  28.650  33.033   1.078
53891W        W19052  25.188   0.489   0.733
53892W        W19053  31.290   3.299  11.200
53893W        W19054  33.960  41.966   2.848
53894W        W19055  17.993  30.536   4.650
53895W        W19056  38.771  25.243  12.035
53896W        W19057  24.383  20.751  12.191
53897W        W19058  12.334   3.373  12.031
53898W        W19059  37.572  10.269  11.095
53899W        W19060  17.339  37.176  11.088
53900W        W19061  17.503  10.053  14.304
53901W        W19062  33.163   8.953   3.042
53902W        W19063  41.220   1.481   4.277
53903W        W19064  18.233   0.148   4.174
53904W        W19065   5.247  37.300  10.393
53905W        W19066  44.325  35.343   1.967
53906W        W19067  12.846  25.998   4.590
53907W        W19068  12.054  10.661  13.163
53908W        W19069  30.679  22.493  13.066
53909W        W19070   8.215  15.163   2.493
53910W        W19071  19.818  32.713   1.105
53911W        W19072  11.915  38.274  14.952
53912W        W19073   1.937  12.560  14.245
53913W        W19074  39.552  23.640  14.759
53914W        W19075  15.189  31.874   3.678
53915W        W19076  17.123   6.146  11.986
53916W        W19077  19.196  42.764  13.395
53917W        W19078   3.815  22.422  14.078
53918W        W19079   9.909  37.114  11.556
53919W        W19080  16.626  22.031  12.863
53920W        W19081  19.564  43.005   3.173
53921W        W19082  19.191   3.745   1.909
53922W        W19083   6.227   7.224  10.719
53923W        W19084  14.779  22.433  13.001
53924W        W19085   4.580  36.436   0.890
53925W        W19086  39.951  15.447   3.610
53926W        W19087  23.646  13.004  12.081
53927W        W19088  11.711  28.428   1.034
53928W        W19089  29.776  44.977  11.561
53929W        W19090  17.619  17.761   4.673
53930W        W19091  21.232  34.003   2.941
53931W        W19092  22.190  25.171   2.135
53932W        W19093  21.304  20.889   1.850
53933W        W19094  17.144  22.064  12.850
53934W        W19095  27.454  36.079  13.398
53935W        W19096   7.738  18.026  10.736
53936W        W19097  11.102  37.087  13.135
53937W        W19098   7.964  22.616  13.775
53938W        W19099  27.033  37.587  14.852
53939W        W19100  25.328  29.348  11.753
53940W        W19101  42.907  31.581  11.027
53941W        W19102   1.275  27.676  14.166
53942W        W19103  35.842  41.858  13.403
53943W        W19104  30.156  42.314  12.792
53944W        W19105   2.224  35.893  11.263
53945W        W19106  44.406  23.049   1.685
53946W        W19107  24.987  44.282   1.165
53947W        W19108   2.328  43.840   0.251
53948W        W19109  18.593  13.254  11.505
53949W        W19110  35.853  19.623   0.832
53950W        W19111  16.776   4.642   4.547
53951W        W19112  15.514  14.195  13.559
53952W        W19113  34.520  15.415  10.369
53953W        W19114  39.421  20.524  14.524
53954W        W19115  33.415   8.251   0.323
53955W        W19116  31.901  44.931  10.786
53956W        W19117  11.895  33.197   2.353
53957W        W19118   2.881  32.344   3.617
53958W        W19119  22.287  34.216   1.433
53959W        W19120  27.556  37.753  11.266
53960W        W19121  25.101   2.547  10.884
53961W        W19122  25.139  32.827   1.854
53962W        W19123  39.320  13.018  11.987
53963W        W19124  31.621   6.294  13.125
53964W        W19125   8.892  21.796   0.307
53965W        W19126  26.403   9.674   9.810
53966W        W19127  26.407   4.204  11.311
53967W        W19128  23.702  13.676  14.904
53968W        W19129  39.955  44.972  14.481
53969W        W19130   8.159  21.707  12.483
53970W        W19131  24.913  20.779  11.075
53971W        W19132   5.836  18.534  11.869
53972W        W19133  30.362  22.924   0.853
53973W        W19134   1.064  41.122   2.683
53974W        W19135  28.081  17.814   1.313
53975W        W19136  29.650   9.815   4.608
53976W        W19137  28.426  38.579   0.474
53977W        W19138  23.113  35.171  11.109
53978W        W19139  21.750  37.906  13.926
53979W        W19140  17.655  23.072  14.672
53980W        W19141   5.214  21.621   2.914
53981W        W19142  17.608  15.064  11.136
53982W        W19143   2.849  17.294   4.575
53983W        W19144  17.766   8.733   2.802
53984W        W19145   4.949  36.115  10.767
53985W        W19146  16.186   0.949  14.889
53986W        W19147   8.002  21.411   5.193
53987W        W19148  30.025  18.702   3.005
53988W        W19149  14.172   0.490  12.103
53989W        W19150  12.571  11.661  14.378
53990W        W19151  14.106  33.484   0.704
53991W        W19152  36.612   8.965   3.236
53992W        W19153   2.442  26.244  12.013
53993W        W19154  18.974  13.766  13.356
53994W        W19155  21.733   2.567   2.100
53995W        W19156  17.915  19.155   1.771
53996W        W19157  26.060   1.354   2.855
53997W        W19158  24.196   5.944  14.242
53998W        W19159   7.844  39.872  14.896
53999W        W19160  11.214  40.291   0.850
54000W        W19161  42.696  14.455   0.942
54001W        W19162   7.792  10.308   4.603
54002W        W19163  35.465  10.168   3.125
54003W        W19164  42.517  13.358   3.702
54004W        W19165  27.065  23.321   9.918
54005W        W19166  24.588   6.340  10.433
54006W        W19167  32.060   3.137   4.764
54007W        W19168  24.056  26.654   1.348
54008W        W19169   5.859   1.421  12.914
54009W        W19170   4.937  38.341   0.981
54010W        W19171  24.983  29.425  10.493
54011W        W19172  26.195   3.021   3.763
54012W        W19173  32.838  28.695  14.311
54013W        W19174  33.839  19.587   1.386
54014W        W19175  21.533  38.827   1.813
54015W        W19176  13.807   6.666  12.260
54016W        W19177  26.528  43.053   4.316
54017W        W19178   3.280   6.396   2.132
54018W        W19179  17.243   8.121   3.185
54019W        W19180  38.315  44.348  12.709
54020W        W19181  11.450  15.170  11.553
54021W        W19182   9.865  30.444   0.478
54022W        W19183  21.811  11.716   1.390
54023W        W19184   3.457  28.185  13.894
54024W        W19185   8.567  15.193   4.584
54025W        W19186  44.371  16.117   3.830
54026W        W19187  41.961  19.261   4.109
54027W        W19188  43.502  17.247  13.432
54028W        W19189   4.951  22.011   3.147
54029W        W19190   0.180   9.285  11.450
54030W        W19191  10.282  13.260   2.496
54031W        W19192  27.777  31.044   1.727
54032W        W19193   5.848  23.973   4.389
54033W        W19194  37.895  32.505   2.290
54034W        W19195   5.433   0.501   1.882
54035W        W19196  19.510  26.575  10.657
54036W        W19197  44.105   4.704  13.055
54037W        W19198  40.015  11.334  14.338
54038W        W19199   7.763  21.230  13.388
54039W        W19200  13.680  24.430  14.301
54040W        W19201   2.322  11.336   1.634
54041W        W19202   1.394  11.782   0.832
54042W        W19203  23.253  42.522   0.322
54043W        W19204   5.673  10.701  12.046
54044W        W19205  33.998   2.753  14.889
54045W        W19206  27.838   2.696   1.874
54046W        W19207  20.269  36.637  12.790
54047W        W19208   1.379  18.535   4.779
54048W        W19209  14.831  32.127  12.368
54049W        W19210   2.067   9.742  10.723
54050W        W19211  18.885  17.588  13.818
54051W        W19212  41.264  13.769   1.288
54052W        W19213  28.132  31.620  10.694
54053W        W19214   7.719  34.528  14.881
54054W        W19215   1.786   3.252   2.379
54055W        W19216  33.967  32.378   4.109
54056W        W19217  29.095  34.324  11.470
54057W        W19218   8.918  21.567   1.296
54058W        W19219   9.165  18.557   1.220
54059W        W19220  37.280  13.608  12.966
54060W        W19221  28.657  22.694   3.652
54061W        W19222   6.808  25.678  12.870
54062W        W19223  28.856  20.534   2.226
54063W        W19224  33.361  13.717   0.279
54064W        W19225  12.097  29.988  10.664
54065W        W19226  10.097   4.270   4.675
54066W        W19227   5.676  16.203   4.081
54067W        W19228  22.742  42.363   3.836
54068W        W19229   7.368  25.601   5.027
54069W        W19230  25.053  21.396   1.291
54070W        W19231  37.729  14.844  13.869
54071W        W19232  11.828  31.957   5.051
54072W        W19233   7.130   5.866  14.423
54073W        W19234   8.016  44.336   4.135
54074W        W19235  18.200  31.873  14.911
54075W        W19236  31.077  20.763  10.724
54076W        W19237  22.691  12.564   3.956
54077W        W19238  43.366  22.658  11.556
54078W        W19239  42.424  28.658   0.727
54079W        W19240  21.172  34.717  14.781
54080W        W19241  16.689   6.735   0.641
54081W        W19242  26.896   6.512   1.948
54082W        W19243   7.692  19.263  14.076
54083W        W19244   1.787   9.763  13.621
54084W        W19245  10.811  35.009   3.701
54085W        W19246  37.674  39.556   0.891
54086W        W19247  35.394  37.128   1.667
54087W        W19248  14.090  19.077   0.183
54088W        W19249   1.946  38.048  14.637
54089W        W19250  32.976   3.721  11.520
54090W        W19251  16.825  26.702  13.152
54091W        W19252  23.216  42.917  10.603
54092W        W19253  36.996  22.347   1.278
54093W        W19254  17.890  22.144   4.546
54094W        W19255   7.454  30.667   3.132
54095W        W19256  19.298  41.136  11.729
54096W        W19257   2.994  35.159   2.256
54097W        W19258   2.750  15.226  13.646
54098W        W19259  26.854  19.567   0.427
54099W        W19260  32.234  44.530   2.512
54100W        W19261  11.333  36.760   2.902
54101W        W19262  14.245   2.662   2.961
54102W        W19263   6.776  29.694   2.329
54103W        W19264   9.172  29.691  14.492
54104W        W19265  10.076   8.912  11.042
54105W        W19266  16.122  22.870   1.722
54106W        W19267  32.490  35.841   0.401
54107W        W19268   3.367   2.779   1.716
54108W        W19269   9.442  36.520  14.968
54109W        W19270  30.057  21.968  10.296
54110W        W19271   3.808  18.020   2.425
54111W        W19272   7.203  30.583   2.693
54112W        W19273  44.401  32.806   1.443
54113W        W19274  22.534   9.135   1.192
54114W        W19275  18.716  30.184   0.566
54115W        W19276  29.564   1.686  13.410
54116W        W19277  25.206  14.729  12.100
54117W        W19278  39.023  10.548  13.392
54118W        W19279  15.799  27.083  14.176
54119W        W19280   6.117   4.547   3.916
54120W        W19281   0.512  22.250  11.280
54121W        W19282  41.923  38.295  11.246
54122W        W19283  35.645  35.913  13.879
54123W        W19284  20.386  29.611   2.419
54124W        W19285   0.076  31.645   5.291
54125W        W19286   7.145  21.090   3.231
54126W        W19287  30.404  41.438  14.377
54127W        W19288   7.156  37.513   3.149
54128W        W19289  40.980  36.772   2.344
54129W        W19290  29.478  39.560   3.677
54130W        W19291  40.679  12.944  12.474
54131W        W19292   9.850   1.289   2.700
54132W        W19293  35.305   5.578   1.901
54133W        W19294  40.760  39.486  12.482
54134W        W19295   2.141   8.317  14.167
54135W        W19296   6.753   5.345  11.533
54136W        W19297  24.475  24.120   0.858
54137W        W19298  23.108  25.974  14.532
54138W        W19299  14.548  21.787  13.680
54139W        W19300   2.774  29.757   4.085
54140W        W19301   4.935  16.567   1.755
54141W        W19302  11.204  17.073  11.245
54142W        W19303  12.681  22.947  14.710
54143W        W19304  28.625  24.269  13.854
54144W        W19305  28.699  32.892  12.150
54145W        W19306  13.338  22.280  12.927
54146W        W19307   3.129  34.640  12.166
54147W        W19308  25.487   2.937   0.307
54148W        W19309  28.720  24.636  12.476
54149W        W19310  14.537   2.385   1.916
54150W        W19311   7.147  12.827   4.469
54151W        W19312  19.908  37.084   1.353
54152W        W19313   5.504  31.522   0.771
54153W        W19314   7.190  22.098   2.234
54154W        W19315  39.780  23.283   0.397
54155W        W19316  39.238  39.740   2.474
54156W        W19317  25.923   4.874  11.895
54157W        W19318  30.554  11.513   3.260
54158W        W19319  29.959  28.062   3.978
54159W        W19320  20.503  17.002  14.282
54160W        W19321  40.641  30.515  10.766
54161W        W19322   0.802  39.331   3.780
54162W        W19323  30.844  21.891  12.568
54163W        W19324  43.955  21.619  10.866
54164W        W19325  19.730  21.962   9.530
54165W        W19326  15.776   0.326  13.016
54166W        W19327   5.481   8.942  14.321
54167W        W19328   8.023  44.944  10.691
54168W        W19329  23.456  34.459  13.314
54169W        W19330  16.904  43.455  11.463
54170W        W19331  17.536  28.292  13.301
54171W        W19332  41.391   1.115  11.547
54172W        W19333  26.412  12.697  14.330
54173W        W19334  17.441  43.473  11.977
54174W        W19335  17.108  42.554  10.023
54175W        W19336   9.804  36.726  14.324
54176W        W19337  25.483  28.578  12.000
54177W        W19338  32.876  17.341  12.977
54178W        W19339  40.997   2.005   2.308
54179W        W19340  13.779  15.033  13.914
54180W        W19341  38.991  32.520  12.080
54181W        W19342  21.094  16.239   9.910
54182W        W19343  35.271  22.168  14.278
54183W        W19344  37.021  18.119   1.641
54184W        W19345  14.863  20.825   2.376
54185W        W19346  33.460   1.453   3.444
54186W        W19347  35.974  41.589   1.232
54187W        W19348   7.339  37.520   1.424
54188W        W19349  19.818  25.686  12.507
54189W        W19350   9.498  20.170  14.024
54190W        W19351  11.066  33.635  12.188
54191W        W19352  14.000  39.442  10.229
54192W        W19353   7.662  29.958  11.097
54193W        W19354  44.338  40.995   2.922
54194W        W19355   3.634  20.465  14.425
54195W        W19356   3.034  37.354  14.296
54196W        W19357   7.500  43.287   0.746
54197W        W19358  25.693  16.085   2.113
54198W        W19359  37.916  38.380  13.373
54199W        W19360  21.610  39.082   5.250
54200W        W19361  37.509  22.474   0.024
54201W        W19362   1.302  17.936  10.224
54202W        W19363  42.362   6.600  12.193
54203W        W19364  25.478  29.162   4.054
54204W        W19365  37.377  17.784  10.767
54205W        W19366  17.754   6.241   4.906
54206W        W19367  43.003  33.246   2.687
54207W        W19368  39.428  35.783   2.792
54208W        W19369  44.115   0.445  13.853
54209W        W19370  19.024  33.991   2.644
54210W        W19371  29.593  41.440  12.649
54211W        W19372  28.111  40.416   3.212
54212W        W19373   3.913  25.106  11.589
54213W        W19374  12.757   1.924  10.396
54214W        W19375  24.936  19.636   1.334
54215W        W19376  21.505   0.643  12.866
54216W        W19377  36.779  33.955  14.961
54217W        W19378  30.112   5.845   4.800
54218W        W19379  14.550  16.557  10.396
54219W        W19380   4.201  38.025   3.454
54220W        W19381  14.649  29.810  11.580
54221W        W19382  15.178  16.876  11.924
54222W        W19383  11.299  19.575   2.749
54223W        W19384  10.339   1.407   2.306
54224W        W19385   8.731  36.571   4.531
54225W        W19386  39.115  27.236  14.308
54226W        W19387   2.570   7.832   1.428
54227W        W19388   3.375  23.211   4.038
54228W        W19389  40.298  33.891  11.433
54229W        W19390   4.366  15.758  10.332
54230W        W19391  15.653   2.701   1.891
54231W        W19392   9.808  22.183  14.020
54232W        W19393   0.131  34.541  11.619
54233W        W19394  34.562   2.164   0.191
54234W        W19395  31.626  25.346  14.946
54235W        W19396  19.050  29.354   0.799
54236W        W19397  31.628  18.729   1.340
54237W        W19398  33.950   4.407  11.048
54238W        W19399  26.274  38.334  12.374
54239W        W19400  27.766  42.656   1.349
54240W        W19401   9.904  35.986   3.927
54241W        W19402  32.990  19.085   4.382
54242W        W19403   0.717  17.293  13.948
54243W        W19404  30.546  14.068   4.164
54244W        W19405  16.435  13.239  12.731
54245W        W19406  18.628  17.208  14.044
54246W        W19407  21.212   0.678  13.510
54247W        W19408  17.052  17.111   0.401
54248W        W19409  10.658  31.327   0.704
54249W        W19410  15.437   0.312  14.954
54250W        W19411  26.623   2.887   4.632
54251W        W19412   1.882  16.079  11.953
54252W        W19413  12.517  30.833   3.996
54253W        W19414  23.740  29.345  12.510
54254W        W19415   0.008   5.626  10.943
54255W        W19416   2.892  30.608  13.363
54256W        W19417  44.607   3.048   3.253
54257W        W19418  18.322   8.493   2.369
54258W        W19419  32.059  11.590  10.076
54259W        W19420  44.940   8.670  11.160
54260W        W19421   3.217  24.620  13.004
54261W        W19422  23.897   2.223   0.307
54262W        W19423  29.533  18.711   3.879
54263W        W19424  28.992  32.155  13.366
54264W        W19425  27.757  23.118   3.226
54265W        W19426  19.787  21.228  10.696
54266W        W19427  29.274  24.635  11.380
54267W        W19428  41.574  29.794  11.200
54268W        W19429  11.540  25.300  14.283
54269W        W19430   6.760  40.586   1.370
54270W        W19431   0.574   5.189   2.812
54271W        W19432  11.873  14.377  13.869
54272W        W19433  42.855  30.119  12.552
54273W        W19434  27.790  34.472   3.327
54274W        W19435  20.290  40.038  11.517
54275W        W19436  42.062  40.041  11.937
54276W        W19437  39.556  33.489   2.833
54277W        W19438   9.895  44.442  11.556
54278W        W19439  24.602  20.673   0.953
54279W        W19440  32.482  36.710  14.783
54280W        W19441  39.787  16.558  13.399
54281W        W19442   9.571  32.946   3.683
54282W        W19443   0.960  16.746   1.941
54283W        W19444  19.157   9.794   1.650
54284W        W19445   6.095  34.583  11.305
54285W        W19446  13.692  39.091   3.759
54286W        W19447  17.491   5.855  13.846
54287W        W19448  40.815   6.843  10.692
54288W        W19449  38.539  43.794  11.539
54289W        W19450  39.556  24.132  14.901
54290W        W19451   9.676  14.068  10.700
54291W        W19452  16.310  29.542   4.102
54292W        W19453  21.082  28.915  11.511
54293W        W19454   8.155  18.195   3.698
54294W        W19455   2.817  42.509   3.776
54295W        W19456   9.799  16.219   1.473
54296W        W19457  23.778   7.205  10.554
54297W        W19458  22.290  32.577   0.955
54298W        W19459   8.811  23.104  13.812
54299W        W19460  37.446  17.741   1.753
54300W        W19461  40.476  24.471  14.427
54301W        W19462  33.125  18.317  10.727
54302W        W19463  12.866  35.334   1.630
54303W        W19464   6.924  35.862   4.663
54304W        W19465  26.767   6.745   0.026
54305W        W19466   3.877  32.396   1.729
54306W        W19467  26.932   8.784  11.505
54307W        W19468  20.824  13.330  12.450
54308W        W19469  43.714  34.991   2.553
54309W        W19470  36.493  30.012   0.502
54310W        W19471  34.112  12.765   1.792
54311W        W19472   1.947  28.920   2.565
54312W        W19473   0.139  18.441   2.374
54313W        W19474  12.666  29.178   1.330
54314W        W19475   7.364   2.313   3.101
54315W        W19476  25.236  41.714   1.296
54316W        W19477  30.455  37.933  13.748
54317W        W19478  39.550  16.108  11.207
54318W        W19479  35.788   6.837   2.039
54319W        W19480  38.955  24.006   0.714
54320W        W19481  22.194  27.028  11.919
54321W        W19482  13.662  15.792   1.368
54322W        W19483   9.855  14.395  12.815
54323W        W19484  29.808   1.832   1.902
54324W        W19485  15.839  44.541  12.121
54325W        W19486  29.855  33.610  13.845
54326W        W19487  20.962  18.501  13.917
54327W        W19488  14.679  19.086  11.334
54328W        W19489  37.935  39.922  14.445
54329W        W19490  16.153  44.311   2.204
54330W        W19491  27.923  20.428   2.204
54331W        W19492   3.282   0.889   1.433
54332W        W19493  29.467   1.486   2.079
54333W        W19494  22.462  42.757   3.637
54334W        W19495  43.048  40.587  13.387
54335W        W19496  34.984   3.868  11.047
54336W        W19497  17.007  24.180   1.604
54337W        W19498  41.906  28.181   1.208
54338W        W19499  32.991  34.257  14.987
54339W        W19500  23.604  44.791  12.079
54340W        W19501  40.499   1.342   3.295
54341W        W19502  15.214  15.608  13.935
54342W        W19503  16.557  18.046   3.422
54343W        W19504  32.826  20.086   4.730
54344W        W19505  18.832  15.335   5.023
54345W        W19506  13.327  20.814   3.340
54346W        W19507  31.466  25.488   5.418
54347W        W19508  31.194  20.776  13.131
54348W        W19509  40.488  38.751   0.373
54349W        W19510  24.629  16.021  12.004
54350W        W19511   7.604  21.698  13.850
54351W        W19512  17.038  37.839   3.805
54352W        W19513  44.225  33.969  14.788
54353W        W19514  36.667  21.961   1.411
54354W        W19515  11.667   0.514   3.703
54355W        W19516  25.928  19.711  11.041
54356W        W19517  13.898  29.158   0.934
54357W        W19518   3.275  42.849  12.012
54358W        W19519  27.995  23.514   0.783
54359W        W19520   3.172  12.090   2.430
54360W        W19521   2.209  17.895   1.235
54361W        W19522  19.046   1.968  11.750
54362W        W19523  17.230  42.529  10.995
54363W        W19524  26.443   4.363  10.336
54364W        W19525  37.234   8.639   2.729
54365W        W19526   8.402   4.454   0.620
54366W        W19527   1.750  23.712   1.504
54367W        W19528  11.299  11.320  13.299
54368W        W19529  11.200  12.592  12.916
54369W        W19530  22.439  35.000  12.782
54370W        W19531   0.701  30.905  10.731
54371W        W19532   2.793  31.999   3.236
54372W        W19533  26.458   4.648   4.040
54373W        W19534  40.864  17.687   3.700
54374W        W19535  37.298  14.385   2.192
54375W        W19536   4.893   1.317   0.812
54376W        W19537  36.045  37.483  10.264
54377W        W19538  11.433  10.177   3.175
54378W        W19539  17.029  28.222   4.963
54379W        W19540  12.345  43.974  10.630
54380W        W19541  44.375  19.160   2.331
54381W        W19542  33.333  13.599  11.324
54382W        W19543   2.913  40.926  13.371
54383W        W19544   9.656  11.356  14.876
54384W        W19545   9.900   1.029  11.420
54385W        W19546   3.330  26.563   1.905
54386W        W19547  10.190  24.786   2.841
54387W        W19548   7.780   3.237   4.979
54388W        W19549  39.161  15.444   2.198
54389W        W19550  15.050  21.219   5.114
54390W        W19551  41.806  35.508  13.763
54391W        W19552  36.415  24.017   1.350
54392W        W19553  20.002  23.124   0.538
54393W        W19554  39.862  32.638  14.301
54394W        W19555  19.014  21.088   3.633
54395W        W19556   3.294   1.032  12.039
54396W        W19557  20.633  12.381   1.680
54397W        W19558   7.929  39.459  12.845
54398W        W19559  43.607  42.895  14.352
54399W        W19560  44.343  34.542  12.542
54400W        W19561  23.200  39.638  12.311
54401W        W19562  35.547   6.260   2.779
54402W        W19563  16.545  27.436  12.577
54403W        W19564   5.185  42.370   0.232
54404W        W19565  22.234   7.418  10.577
54405W        W19566  11.815  16.628   0.512
54406W        W19567   8.799  15.230  14.448
54407W        W19568  29.543   9.138  13.236
54408W        W19569  31.607   9.986  11.080
54409W        W19570  28.414  41.491   4.085
54410W        W19571  17.115   7.262   1.264
54411W        W19572   3.033  36.428  13.504
54412W        W19573  23.877  11.113  11.694
54413W        W19574  43.873  28.997  13.306
54414W        W19575  42.483  23.030   2.649
54415W        W19576   6.004  23.292   3.694
54416W        W19577   6.697  11.274  14.299
54417W        W19578  20.036   5.973  10.698
54418W        W19579  38.441  42.343  12.891
54419W        W19580  42.975  19.250   4.206
54420W        W19581  41.915  34.360  13.553
54421W        W19582  13.342  44.505  14.757
54422W        W19583  40.555  24.560   0.315
54423W        W19584   0.087  41.138  11.582
54424W        W19585  11.769  15.208  14.372
54425W        W19586  22.683  35.657   0.513
54426W        W19587  43.411  21.636  11.622
54427W        W19588  43.367  18.309  13.349
54428W        W19589  43.920  38.762  14.327
54429W        W19590  20.581   2.381   1.303
54430W        W19591  33.451  16.258  14.353
54431W        W19592  19.062  13.390  10.788
54432W        W19593   5.231   2.274   4.824
54433W        W19594  31.243  21.796  14.253
54434W        W19595   0.446  35.410  11.501
54435W        W19596  41.023  36.494  10.979
54436W        W19597  35.591  10.936   0.485
54437W        W19598  24.287   7.393   2.699
54438W        W19599  25.871  13.055   3.140
54439W        W19600  14.743  44.277  12.905
54440W        W19601  38.363  29.927   1.276
54441W        W19602  39.628  13.995  14.364
54442W        W19603  32.530  18.286  11.154
54443W        W19604  30.586   2.022   3.687
54444W        W19605  41.100  23.333  12.160
54445W        W19606  42.479  10.862   4.264
54446W        W19607   0.383  31.610  13.312
54447W        W19608   7.812  32.482   3.098
54448W        W19609  43.766  26.171  12.864
54449W        W19610   7.698  30.024  13.603
54450W        W19611  31.454  44.646  13.110
54451W        W19612  22.238  33.304  12.516
54452W        W19613  38.583  32.199  10.828
54453W        W19614  35.433  32.637   2.686
54454W        W19615  26.045   2.776  11.649
54455W        W19616   1.401  27.182  10.695
54456W        W19617  13.758  14.427   2.321
54457W        W19618   9.398   4.209  13.103
54458W        W19619   8.796   4.230   1.942
54459W        W19620  34.515   3.336   4.868
54460W        W19621  44.719  11.274  13.500
54461W        W19622  42.130  22.759  12.017
54462W        W19623   1.731  31.957  13.589
54463W        W19624  12.813  33.727  14.841
54464W        W19625  17.905  17.804   0.671
54465W        W19626  43.903   9.662  13.852
54466W        W19627  37.754  19.263   4.300
54467W        W19628  22.301  30.254   0.904
54468W        W19629  17.115   2.343  13.301
54469W        W19630  33.667  33.799  14.078
54470W        W19631  27.045  31.761  14.735
54471W        W19632  39.797  28.124  12.632
54472W        W19633  27.223  20.807  11.030
54473W        W19634   2.171  41.255  14.304
54474W        W19635  18.496  15.205  13.902
54475W        W19636   1.974   5.964  11.080
54476W        W19637  15.032  27.991   2.706
54477W        W19638  23.441  27.126   2.087
54478W        W19639   9.692   2.278   3.241
54479W        W19640  43.728   4.372  12.416
54480W        W19641  29.977  14.045   2.380
54481W        W19642   3.276  21.421  13.447
54482W        W19643   1.351  20.435  13.438
54483W        W19644   6.667  40.080   2.821
54484W        W19645  24.243  16.220  10.690
54485W        W19646  14.266  14.687   0.698
54486W        W19647  13.451  30.310   1.302
54487W        W19648  19.491   3.921   1.188
54488W        W19649  28.114  26.243   9.935
54489W        W19650   4.596  11.393  14.557
54490W        W19651  20.236  16.724   3.174
54491W        W19652  38.054  33.029   3.142
54492W        W19653  11.796  27.819  11.344
54493W        W19654  37.717  35.945  13.153
54494W        W19655  25.117  41.076   3.600
54495W        W19656  15.688  38.952   0.847
54496W        W19657  21.893   6.139  12.617
54497W        W19658   3.469  30.629   1.726
54498W        W19659  26.455  26.769   4.576
54499W        W19660  38.350   1.273   1.019
54500W        W19661  21.728  10.824  11.181
54501W        W19662  41.619  44.794   0.603
54502W        W19663  41.472   2.209  14.905
54503W        W19664  36.008  42.158   4.054
54504W        W19665  15.722  35.856   4.389
54505W        W19666   0.319  26.656  11.637
54506W        W19667  32.125  12.639  13.394
54507W        W19668  22.226   4.668  13.979
54508W        W19669  20.329  11.198  14.752
54509W        W19670  32.548   7.122   0.713
54510W        W19671  43.107   0.919  12.614
54511W        W19672   2.754  29.129   0.330
54512W        W19673   6.010  32.425  12.479
54513W        W19674  22.410  35.456   3.256
54514W        W19675  29.404  11.437  12.854
54515W        W19676  35.904  38.266  14.967
54516W        W19677  25.489  36.034  14.429
54517W        W19678   9.383  10.679  13.408
54518W        W19679  32.119   6.134  13.398
54519W        W19680  18.138  18.633  13.487
54520W        W19681  16.551  35.165   1.218
54521W        W19682   0.026   4.553  12.922
54522W        W19683   3.053   8.639  14.356
54523W        W19684  14.455  21.640  12.357
54524W        W19685   2.435   1.242  10.411
54525W        W19686  16.336  38.137  12.559
54526W        W19687  32.893  33.354  14.017
54527W        W19688   9.850  17.580  12.047
54528W        W19689  33.388  37.351   3.065
54529W        W19690  25.207  19.085   4.138
54530W        W19691  24.428  36.670   4.082
54531W        W19692   1.558  23.772   3.261
54532W        W19693  19.363  33.657   4.064
54533W        W19694   3.943   6.922  10.359
54534W        W19695  15.724  16.514   4.254
54535W        W19696  15.348  25.138   0.976
54536W        W19697  40.758  23.436  12.624
54537W        W19698  41.786   3.757  10.908
54538W        W19699  37.962  17.560   1.980
54539W        W19700  26.681   0.839   3.287
54540W        W19701  16.289  17.007  14.938
54541W        W19702  25.080  14.009   3.952
54542W        W19703  19.338  44.305  11.842
54543W        W19704  43.129   5.232   1.899
54544W        W19705  35.636  41.651  11.038
54545W        W19706  14.324   7.396   2.252
54546W        W19707  34.455  14.751   3.078
54547W        W19708  28.406   4.005  12.634
54548W        W19709  37.538   5.821  10.689
54549W        W19710   8.889  11.108   2.288
54550W        W19711   3.799  17.781  14.131
54551W        W19712  36.994  28.091   1.909
54552W        W19713   0.821  42.764   1.646
54553W        W19714  21.021  43.222  12.496
54554W        W19715  24.560   7.698  13.990
54555W        W19716   3.754   6.092  13.477
54556W        W19717   4.729  16.400  14.048
54557W        W19718  22.953  38.315   2.416
54558W        W19719   4.721  32.629   1.001
54559W        W19720  19.335  31.916   1.004
54560W        W19721  40.317  11.121  11.769
54561W        W19722  15.339  31.073   4.284
54562W        W19723  25.967  35.973  14.219
54563W        W19724   1.027   9.883   1.837
54564W        W19725  19.392  44.050   9.730
54565W        W19726   8.946  39.819   3.618
54566W        W19727  22.691  42.765   4.646
54567W        W19728  34.476   5.197  12.924
54568W        W19729   0.507  41.866  12.434
54569W        W19730  41.050   2.722   1.824
54570W        W19731  30.145  10.393   0.356
54571W        W19732  32.546  25.456   2.684
54572W        W19733  22.618  21.553  12.840
54573W        W19734  43.172  14.722  12.321
54574W        W19735   0.840  42.281   1.396
54575W        W19736  32.465  28.531  10.654
54576W        W19737   5.224  40.903   1.849
54577W        W19738  17.317  34.329   1.966
54578W        W19739   5.122  33.607   2.463
54579W        W19740   3.620  24.990   4.041
54580W        W19741  11.488  17.141   3.598
54581W        W19742  16.965  32.598   1.875
54582W        W19743  41.634  33.160  11.549
54583W        W19744  23.084  42.517  14.796
54584W        W19745   9.186  40.482  10.558
54585W        W19746  17.420  23.088  14.068
54586W        W19747  29.925   1.408   3.295
54587W        W19748  13.525  13.740   0.868
54588W        W19749  12.713  35.565  13.283
54589W        W19750   2.672  35.645  11.094
54590W        W19751  28.114   8.239  14.728
54591W        W19752  14.370   2.096   0.290
54592W        W19753  30.180  20.522  12.842
54593W        W19754   5.549  28.112  10.751
54594W        W19755  41.261  17.504  10.980
54595W        W19756  41.831   1.852  14.615
54596W        W19757  38.481  31.628   2.146
54597W        W19758   6.718  41.411   3.343
54598W        W19759  41.883  39.236  10.172
54599W        W19760   9.281  17.593  13.634
54600W        W19761  36.172  24.146   0.807
54601W        W19762  41.187  18.802  13.529
54602W        W19763  44.579   5.565   1.586
54603W        W19764  12.371  25.703  10.409
54604W        W19765  22.647   6.186  10.911
54605W        W19766  34.137  22.316   4.100
54606W        W19767  29.643  36.883   1.790
54607W        W19768  27.054  28.698  12.504
54608W        W19769  14.847  44.456  11.147
54609W        W19770  38.338  22.142   0.320
54610W        W19771  13.109   2.166  11.629
54611W        W19772  15.692   4.809   3.715
54612W        W19773  30.760   0.226   1.204
54613W        W19774  25.562  14.081   0.881
54614W        W19775  19.331  22.284   4.356
54615W        W19776  23.080   9.721  12.206
54616W        W19777  40.910  12.134  14.281
54617W        W19778   5.202   0.248   2.292
54618W        W19779  28.948  28.216  11.954
54619W        W19780  16.611  35.317  13.752
54620W        W19781  35.478  24.429   3.795
54621W        W19782   6.911  32.971   3.179
54622W        W19783   5.456  30.573   4.116
54623W        W19784  35.234  37.982   4.444
54624W        W19785  38.286   9.696  12.513
54625W        W19786  35.866  18.625  13.636
54626W        W19787  31.635   5.906  13.489
54627W        W19788  40.104  28.482   2.954
54628W        W19789  22.575  42.476  12.045
54629W        W19790  19.653  17.058  12.470
54630W        W19791  16.632  31.066  12.169
54631W        W19792  16.675  33.678  14.497
54632W        W19793   5.159  23.228   4.183
54633W        W19794  25.175  41.512   0.255
54634W        W19795  11.818  26.536   0.534
54635W        W19796   7.252  18.663  12.869
54636W        W19797  12.695  21.466  14.775
54637W        W19798  25.176   8.804   4.095
54638W        W19799   2.433  37.848   2.238
54639W        W19800  12.822  32.102   3.187
54640W        W19801  20.575  29.406  13.398
54641W        W19802   4.651  29.622   4.240
54642W        W19803  12.100   9.462  11.546
54643W        W19804   7.780  11.903  11.235
54644W        W19805   6.926  24.930  12.954
54645W        W19806  31.467  29.432   4.203
54646W        W19807  17.262   6.905   4.619
54647W        W19808  27.685  35.575  12.525
54648W        W19809  28.538  33.120   1.620
54649W        W19810  37.864  42.044  14.116
54650W        W19811  24.072  32.049   0.874
54651W        W19812  23.170  26.583   1.878
54652W        W19813   4.283  41.695   2.284
54653W        W19814  39.399  24.738   4.303
54654W        W19815  12.424  11.731   3.715
54655W        W19816  18.466  13.826  13.416
54656W        W19817  21.388  32.652   0.044
54657W        W19818  14.157  18.695  11.957
54658W        W19819   6.289  32.543   3.890
54659W        W19820  34.118   1.965  13.047
54660W        W19821  43.634   0.948  12.732
54661W        W19822  17.136  24.853  11.029
54662W        W19823  13.170  31.965   4.546
54663W        W19824  27.440  17.929   3.540
54664W        W19825   3.803  21.049   0.412
54665W        W19826   1.999  12.396   1.746
54666W        W19827  23.540  15.916   2.559
54667W        W19828  34.468  41.438   0.770
54668W        W19829  41.593   7.124  12.104
54669W        W19830  20.497  41.702  14.529
54670W        W19831  44.214  40.964  14.273
54671W        W19832  44.865  38.424   2.736
54672W        W19833  38.397  20.018   3.395
54673W        W19834  37.810  34.915   1.313
54674W        W19835  15.392  36.226   0.002
54675W        W19836  24.472  17.167  10.845
54676W        W19837   4.368  18.089   0.720
54677W        W19838  40.989  17.677  13.734
54678W        W19839  15.211  26.453  11.414
54679W        W19840   5.825  17.563   4.150
54680W        W19841  27.181  40.269   3.729
54681W        W19842   7.429  11.655  10.947
54682W        W19843  26.985  23.226  11.990
54683W        W19844   2.387   4.380   3.992
54684W        W19845  11.640  18.145   0.441
54685W        W19846   9.454  15.759   4.166
54686W        W19847   6.754   0.657   3.390
54687W        W19848  22.209  24.116   1.136
54688W        W19849  32.586   7.165  12.779
54689W        W19850   1.007  14.842  10.767
54690W        W19851   3.356   3.174   0.387
54691W        W19852  35.633   4.897  13.462
54692W        W19853   2.322  12.337   2.787
54693W        W19854  33.910  16.360  14.095
54694W        W19855   9.567  24.229  14.236
54695W        W19856  30.267   3.960   4.538
54696W        W19857   1.742  28.052  11.147
54697W        W19858   4.164  44.492  11.579
54698W        W19859   6.190  36.194   0.405
54699W        W19860   3.324  21.037  13.066
54700W        W19861  27.955  28.315  11.126
54701W        W19862   4.295  38.846   2.232
54702W        W19863  35.153   4.824   3.259
54703W        W19864  42.136  21.090  14.827
54704W        W19865  43.860  21.679  13.421
54705W        W19866   5.199  24.698  12.983
54706W        W19867  18.164  32.654   2.713
54707W        W19868  15.883   5.315  12.135
54708W        W19869  13.642  30.955  14.741
54709W        W19870  25.767   8.529  11.206
54710W        W19871   1.453   9.310   2.708
54711W        W19872   2.615  18.170  10.108
54712W        W19873  35.906   7.290  10.963
54713W        W19874  33.474  17.298   1.896
54714W        W19875   6.212   0.227   1.024
54715W        W19876  22.843  13.825  13.569
54716W        W19877   0.763  10.826  11.966
54717W        W19878  40.074   1.825   1.421
54718W        W19879  23.955   5.279  11.072
54719W        W19880  35.517  23.208   0.735
54720W        W19881  17.089  29.873   1.322
54721W        W19882  27.058   7.418   1.662
54722W        W19883  16.803   2.982   2.237
54723W        W19884  23.382  12.205  10.841
54724W        W19885  20.060  26.649  11.164
54725W        W19886  21.238   6.590  11.587
54726W        W19887  28.124   9.115   2.701
54727W        W19888  44.247  41.547   4.461
54728W        W19889  43.011  42.785  10.700
54729W        W19890  34.571  44.873  14.007
54730W        W19891   7.780  27.957  11.728
54731W        W19892  41.999  21.890   2.324
54732W        W19893  10.062   9.753  14.231
54733W        W19894  25.028   3.819  14.672
54734W        W19895  20.557  39.833   4.502
54735W        W19896   7.312  10.283   4.397
54736W        W19897  39.281   8.726  11.025
54737W        W19898  29.399  30.829   4.268
54738W        W19899  11.731  41.048  12.843
54739W        W19900  18.722  17.623   1.119
54740W        W19901  28.349  34.500   3.226
54741W        W19902  12.109  23.055   2.682
54742W        W19903  14.575   6.710   4.286
54743W        W19904  42.323  18.865  13.873
54744W        W19905  39.309   6.891  13.660
54745W        W19906  19.626   9.752  11.917
54746W        W19907  23.256  41.380   2.829
54747W        W19908   6.823   6.904   0.802
54748W        W19909  31.124  20.189   5.007
54749W        W19910  44.924   4.478   1.314
54750W        W19911   7.850  15.604   5.075
54751W        W19912  18.797  23.494  12.442
54752W        W19913  36.608  20.698  12.373
54753W        W19914  13.613   5.160  10.829
54754W        W19915   4.300  24.300  14.944
54755W        W19916  17.354  34.641  14.839
54756W        W19917  41.869  25.448  14.286
54757W        W19918  26.134  13.366   1.684
54758W        W19919  36.775  24.327  12.803
54759W        W19920   7.814  34.404  10.642
54760W        W19921   5.980   6.182  11.642
54761W        W19922   5.219   7.316   3.854
54762W        W19923  16.135   7.761   4.741
54763W        W19924  38.494  26.285  12.403
54764W        W19925  25.153  33.575   0.344
54765W        W19926  20.652  40.218   4.173
54766W        W19927  12.617  37.508   5.052
54767W        W19928  34.327   3.812   2.668
54768W        W19929  14.563  23.907   3.213
54769W        W19930   2.491  11.209   1.159
54770W        W19931   5.321   4.718   2.363
54771W        W19932   2.406  16.851  12.846
54772W        W19933   1.895   4.301   0.314
54773W        W19934   6.319  44.480   3.284
54774W        W19935  18.964   4.719   3.225
54775W        W19936  42.334  42.860   4.454
54776W        W19937  37.004  42.657  10.160
54777W        W19938  21.050   9.848  13.289
54778W        W19939  28.887   1.395  13.772
54779W        W19940   8.619  10.130  11.902
54780W        W19941  43.384  32.318  12.784
54781W        W19942   3.740  44.322   1.726
54782W        W19943  21.795  25.579   4.239
54783W        W19944  14.138   4.725  12.975
54784W        W19945  29.693  25.838  11.094
54785W        W19946  43.394  40.965  11.179
54786W        W19947   3.324  24.300   2.530
54787W        W19948  17.102  32.650  14.956
54788W        W19949  28.151   1.292  12.994
54789W        W19950  37.639  43.436  13.457
54790W        W19951  20.151  35.057   4.504
54791W        W19952  39.356   4.057  12.976
54792W        W19953  40.971   9.015  10.757
54793W        W19954   5.791  28.530   4.579
54794W        W19955   4.565  40.549  11.067
54795W        W19956   1.285  17.409  11.036
54796W        W19957  24.134  25.034  13.553
54797W        W19958  35.627  22.063   1.623
54798W        W19959  22.148  19.232   3.764
54799W        W19960  14.907  34.639  10.229
54800W        W19961  10.246   6.326  13.304
54801W        W19962  42.960  20.285   2.607
54802W        W19963   4.563   0.990   5.107
54803W        W19964  20.462  22.499   3.217
54804W        W19965  33.199  35.861   4.506
54805W        W19966   6.984  41.346   0.807
54806W        W19967  22.747  27.250  12.346
54807W        W19968  30.655  26.457   2.407
54808W        W19969  35.220  30.236  13.316
54809W        W19970  17.570  34.910   3.692
54810W        W19971  37.560  17.998   3.078
54811W        W19972  36.510  27.222  10.668
54812W        W19973  15.156  18.848   0.845
54813W        W19974  38.394  22.900  11.590
54814W        W19975   2.158  44.699  12.445
54815W        W19976  31.886  17.595  12.548
54816W        W19977   7.344  32.696   3.139
54817W        W19978   1.962  44.000   2.991
54818W        W19979  20.716   3.942   0.279
54819W        W19980  15.540  19.523  13.501
54820W        W19981  32.036  25.594  13.860
54821W        W19982   0.211  22.949   2.793
54822W        W19983  14.676  22.855   0.133
54823W        W19984  18.813   3.826  11.848
54824W        W19985  44.110  25.702  12.920
54825W        W19986  31.144  23.675  11.823
54826W        W19987   6.406   8.328   1.705
54827W        W19988  30.405  39.289  11.000
54828W        W19989  42.387  24.901   0.890
54829W        W19990  17.328   3.168  12.429
54830W        W19991   2.332   9.257   4.779
54831W        W19992  23.128  17.803  13.428
54832W        W19993   3.173  35.035   1.798
54833W        W19994  32.540  18.357  13.700
54834W        W19995  34.100  21.983  14.825
54835W        W19996  36.885   7.898   0.821
54836W        W19997  30.207  15.355   4.642
54837W        W19998  24.606  22.454   3.026
54838W        W19999  10.131  37.959   3.589
54839W        W20000  21.467  42.816   4.107
54840W        W20001  41.765  33.492  12.879
54841W        W20002   4.956  10.677   3.449
54842W        W20003   0.038  30.302  13.370
54843W        W20004  33.934  32.678   0.640
54844W        W20005  30.459  16.390   3.785
54845W        W20006  22.712   7.160  11.235
54846W        W20007  25.440   7.695  13.925
54847W        W20008  24.038  43.711  11.293
54848W        W20009  43.891  12.347   2.126
54849W        W20010  26.664  23.247   2.327
54850W        W20011  12.233  31.417  12.996
54851W        W20012  42.953  14.141  13.809
54852W        W20013  33.062  19.143  14.559
54853W        W20014  28.282   0.493   0.324
54854W        W20015  32.453  16.236   4.736
54855W        W20016  22.188  19.034  11.632
54856W        W20017  42.024   8.450  11.057
54857W        W20018   8.900  11.670  10.806
54858W        W20019  32.547   9.676   1.390
54859W        W20020   2.820  34.912   4.828
54860W        W20021  13.411  10.543   3.647
54861W        W20022  39.572  13.137  11.532
54862W        W20023  42.006  10.284   3.283
54863W        W20024  25.944  20.762   0.256
54864W        W20025  35.735  33.399   4.566
54865W        W20026  37.555  26.564  10.771
54866W        W20027  11.800  13.660  14.297
54867W        W20028  35.668  23.516   2.771
54868W        W20029   7.140  18.294   2.780
54869W        W20030  15.704  12.214   0.157
54870W        W20031  18.716   6.309   0.687
54871W        W20032  15.321  23.609  10.413
54872W        W20033  37.668  24.622   3.739
54873W        W20034   2.725  33.429  11.197
54874W        W20035  36.911  26.462   0.520
54875W        W20036  39.248  31.141  13.988
54876W        W20037   9.931  26.782  11.013
54877W        W20038   2.342  33.928  12.029
54878W        W20039  14.308  41.929   2.388
54879W        W20040  21.120   1.549   1.567
54880W        W20041   6.468  42.516   0.398
54881W        W20042  30.602  21.592  12.940
54882W        W20043   9.268  20.439  14.408
54883W        W20044  24.814  30.533   4.302
54884W        W20045  26.853  35.898   0.754
54885W        W20046  25.482  33.584   2.773
54886W        W20047  10.992  24.869   3.295
54887W        W20048  34.775  18.750   4.603
54888W        W20049  28.206  17.761   3.293
54889W        W20050  21.538  42.762  12.375
54890W        W20051  23.070  26.507  12.064
54891W        W20052   4.616  40.966   0.330
54892W        W20053  11.553  36.242  13.012
54893W        W20054  21.202  37.117   1.048
54894W        W20055   0.780  20.928   1.653
54895W        W20056  41.260   0.289  14.015
54896W        W20057  42.481   8.350  13.465
54897W        W20058  43.534  15.316  12.677
54898W        W20059  20.451   5.106  12.982
54899W        W20060  23.036   9.361  11.475
54900W        W20061  17.665   6.807   2.502
54901W        W20062  12.063  27.678  10.695
54902W        W20063  32.352  16.627   0.981
54903W        W20064  36.458  40.414   4.639
54904W        W20065  33.864  32.928  11.083
54905W        W20066  20.811  29.859   5.066
54906W        W20067  36.912  42.655   0.495
54907W        W20068   0.920  19.643  10.330
54908W        W20069   7.044  16.609   1.901
54909W        W20070  11.921  14.334  13.070
54910W        W20071  38.424  15.708   3.896
54911W        W20072  13.358   1.452   3.762
54912W        W20073  18.982  20.179  11.542
54913W        W20074  18.095   9.801  11.100
54914W        W20075  15.703  44.709   1.343
54915W        W20076   3.772   9.318  10.523
54916W        W20077  22.099  18.862  13.304
54917W        W20078   8.726  43.924   3.891
54918W        W20079  42.546  23.075  13.454
54919W        W20080  29.698  36.878   3.966
54920W        W20081   4.916  20.510  11.564
54921W        W20082  34.983   8.138  13.514
54922W        W20083   6.322   2.842  10.474
54923W        W20084  21.248  13.772  11.169
54924W        W20085   6.941  30.583   0.687
54925W        W20086  42.359   1.046  10.756
54926W        W20087  44.616  25.083  11.278
54927W        W20088  44.720  38.989   1.886
54928W        W20089  36.610  35.045   0.932
54929W        W20090  22.729  28.739   2.810
54930W        W20091  32.925  35.496   1.323
54931W        W20092  30.061  30.590   0.794
54932W        W20093  31.497  37.890   0.218
54933W        W20094   7.485  41.552   0.919
54934W        W20095  13.651  36.821  12.000
54935W        W20096  31.739   1.443   3.263
54936W        W20097  21.983  23.001   1.334
54937W        W20098  44.458  29.442  11.545
54938W        W20099  22.892  40.761   1.143
54939W        W20100   9.950   7.775   4.081
54940W        W20101  11.232  26.572  12.511
54941W        W20102  43.784   3.385   3.124
54942W        W20103  41.470  27.133   2.138
54943W        W20104  25.097  42.065  10.237
54944W        W20105  41.522  16.721   0.648
54945W        W20106  20.767  22.565   5.660
54946W        W20107  40.424  37.784   5.014
54947W        W20108  16.693  36.282   0.466
54948W        W20109   5.978  39.494  10.897
54949W        W20110  28.405   1.276  11.403
54950W        W20111  30.926  20.723   5.013
54951W        W20112  36.801   8.492  11.150
54952W        W20113  17.816  37.391  11.586
54953W        W20114  41.999  39.916   4.537
54954W        W20115   5.681  39.103   2.777
54955W        W20116  41.085  17.159  13.523
54956W        W20117  38.930  33.863   5.111
54957W        W20118  18.218  24.129   2.382
54958W        W20119   7.897  17.746   3.669
54959W        W20120  16.661  25.901  12.934
54960W        W20121  19.701  41.744  14.929
54961W        W20122  15.663  30.296   4.047
54962W        W20123  31.094   5.841   2.690
54963W        W20124  21.605  31.943  14.006
54964W        W20125  37.149  42.729  11.945
54965W        W20126   2.760   5.432   1.328
54966W        W20127  17.591  23.317  13.331
54967W        W20128  15.733  36.977   2.126
54968W        W20129   7.472  20.765   2.386
54969W        W20130  26.344  43.864   0.234
54970W        W20131  24.522   4.866  11.995
54971W        W20132  23.202  18.533   2.248
54972W        W20133   5.789  43.820  14.121
54973W        W20134  42.428  31.876  12.600
54974W        W20135  28.710  31.854   0.010
54975W        W20136  18.212  32.837  12.276
54976W        W20137  14.648  15.111   0.932
54977W        W20138  25.086   5.663   4.203
54978W        W20139   7.340   1.688   0.765
54979W        W20140  23.660  35.577   1.277
54980W        W20141  38.108  33.361  12.777
54981W        W20142  32.908  44.806   3.172
54982W        W20143  17.485  32.622   0.587
54983W        W20144  14.234  27.193   0.805
54984W        W20145   9.137  29.104  13.564
54985W        W20146  17.747  29.672   1.763
54986W        W20147  18.551  30.818   1.402
54987W        W20148  15.147  26.016  12.891
54988W        W20149  42.015  12.884  12.994
54989W        W20150  26.807  24.148   9.725
54990W        W20151  19.510   7.785  14.840
54991W        W20152  28.016  32.600   3.929
54992W        W20153  40.025   3.981  14.840
54993W        W20154  34.949   0.868   1.758
54994W        W20155  34.694  18.629   0.342
54995W        W20156  26.901  20.784  10.637
54996W        W20157  37.274  32.565  12.343
54997W        W20158  44.395  38.109   2.659
54998W        W20159  27.657  34.092  10.700
54999W        W20160  30.396  35.090   3.283
55000W        W20161  21.941  33.106  11.170
55001W        W20162   4.377  41.909   0.653
55002W        W20163  38.808   4.636   0.682
55003W        W20164  27.959  39.804  11.667
55004W        W20165  29.572  11.675  13.277
55005W        W20166  22.981  40.037   2.732
55006W        W20167   6.988  43.961   1.349
55007W        W20168  19.731  43.623  11.358
55008W        W20169  23.125  21.475  12.142
55009W        W20170   0.667  18.513   2.436
55010W        W20171  13.123  17.138   4.145
55011W        W20172  42.566   9.386  14.403
55012W        W20173  12.563  41.903  12.226
55013W        W20174  31.140  38.549  12.544
55014W        W20175   0.814   2.674   3.222
55015W        W20176  34.927  29.598  10.658
55016W        W20177   3.975  25.394  12.500
55017W        W20178  39.704  36.154   3.091
55018W        W20179  16.296  28.049   3.299
55019W        W20180  16.211  24.967  12.871
55020W        W20181   7.940  40.482   1.743
55021W        W20182  12.137  39.750  12.402
55022W        W20183  12.964  36.883  12.850
55023W        W20184  24.169  27.536   3.189
55024W        W20185  29.568  10.828  13.481
55025W        W20186  40.390  33.588  12.529
55026W        W20187   7.901   6.642   4.067
55027W        W20188  13.660  27.687  11.674
55028W        W20189  21.851  29.944   4.529
55029W        W20190  38.531  14.538   3.613
55030W        W20191  38.499  18.355  12.474
55031W        W20192  12.755  39.906   2.335
55032W        W20193  33.484  13.765   3.156
55033W        W20194  44.752  34.501  11.201
55034W        W20195   0.864  26.632  13.726
55035W        W20196  25.264  39.310   3.889
55036W        W20197  29.504   3.043  10.802
55037W        W20198  14.641  44.540  14.281
55038W        W20199  26.111   5.872   0.001
55039W        W20200  24.092  33.391  11.528
55040W        W20201  12.542  43.747  12.371
55041W        W20202  41.640  12.695  13.329
55042W        W20203  44.175   7.750  14.830
55043W        W20204  20.224  16.027  13.110
55044W        W20205   2.354  22.940  10.791
55045W        W20206   5.922  37.859   0.859
55046W        W20207   7.846  31.490   1.015
55047W        W20208  32.394  37.574  13.316
55048W        W20209  42.131  29.076   0.847
55049W        W20210   8.673  12.805  13.936
55050W        W20211   6.406   9.562   1.393
55051W        W20212  20.303   4.484  14.849
55052W        W20213  36.994  19.751   0.306
55053W        W20214   6.902  29.398   2.778
55054W        W20215  25.054   1.075  10.391
55055W        W20216  17.065  32.497   3.311
55056W        W20217  37.195  17.287   4.373
55057W        W20218   9.452   8.117  11.246
55058W        W20219  26.131  36.839   0.299
55059W        W20220  21.011  17.601  14.474
55060W        W20221   5.829  18.386   2.561
55061W        W20222  39.570  10.650  12.795
55062W        W20223  29.017  15.673  11.030
55063W        W20224  37.913  10.935  11.350
55064W        W20225  37.853  35.397   4.239
55065W        W20226  19.336   7.396  11.649
55066W        W20227  11.388  34.654   2.330
55067W        W20228  19.733  39.939  13.002
55068W        W20229  24.960   0.339  12.845
55069W        W20230  21.459  19.719  14.897
55070W        W20231  28.806  23.241   3.979
55071W        W20232  23.600  35.207  13.850
55072W        W20233  35.474  33.869   0.294
55073W        W20234  44.632   1.398   0.722
55074W        W20235  28.088   0.040   2.443
55075W        W20236  10.393   4.352   1.927
55076W        W20237  30.407   3.764   4.076
55077W        W20238  32.369  32.621   2.770
55078W        W20239  20.755  42.889   2.088
55079W        W20240  27.071  16.760  13.464
55080W        W20241  41.776   3.897   0.510
55081W        W20242  17.187  28.158  11.514
55082W        W20243  20.394   8.591   4.247
55083W        W20244  13.210  36.422   0.327
55084W        W20245  21.132  41.761   1.633
55085W        W20246  27.224  43.907   3.533
55086W        W20247  31.005  43.430   3.119
55087W        W20248  39.451  31.418  13.087
55088W        W20249  11.749  10.840  12.357
55089W        W20250   0.269  35.151  14.328
55090W        W20251  29.786   3.991  11.612
55091W        W20252   7.209  42.177  13.460
55092W        W20253  28.989  14.855  13.627
55093W        W20254  38.018  33.008   1.242
55094W        W20255   0.263   4.460   0.903
55095W        W20256  23.184   5.952  11.188
55096W        W20257  13.904  34.638   1.444
55097W        W20258  42.845   6.368   4.583
55098W        W20259  31.118  33.474   3.600
55099W        W20260   8.204  32.070  13.911
55100W        W20261  20.245  40.206   9.777
55101W        W20262  36.434  15.710   4.427
55102W        W20263  36.027  25.001  12.845
55103W        W20264  26.021  43.776   1.641
55104W        W20265  38.032  10.977  13.465
55105W        W20266  15.538  38.488  13.054
55106W        W20267  13.191  31.669  11.600
55107W        W20268  15.659  25.977  13.045
55108W        W20269   5.921   3.422   3.253
55109W        W20270  25.577   4.086  11.090
55110W        W20271  22.236  32.556   2.692
55111W        W20272   4.761  31.652  11.139
55112W        W20273  28.178  16.559   1.167
55113W        W20274  18.196  42.356  12.024
55114W        W20275  22.449  15.821   3.616
55115W        W20276  39.570  20.913   1.607
55116W        W20277  25.944  35.591   9.617
55117W        W20278  10.728  34.937   0.245
55118W        W20279   8.340   8.818   2.009
55119W        W20280  15.627  33.186   1.923
55120W        W20281   2.346  12.177   0.295
55121W        W20282  35.043  41.256   4.193
55122W        W20283  10.882  42.472  14.867
55123W        W20284  32.163  37.381   0.937
55124W        W20285  33.090  32.965  12.211
55125W        W20286  42.472   0.273   1.228
55126W        W20287  22.464  11.276  12.983
55127W        W20288  37.997  40.339   3.661
55128W        W20289  13.415   2.479  13.452
55129W        W20290   7.244   2.041  12.956
55130W        W20291   0.585  14.596   2.641
55131W        W20292  18.717  26.993  11.251
55132W        W20293  21.558  39.612   2.293
55133W        W20294   2.866   8.380   0.412
55134W        W20295  24.151  38.741  14.854
55135W        W20296  21.447  23.983   2.215
55136W        W20297  26.192  38.344  14.285
55137W        W20298  12.633  10.387  12.480
55138W        W20299  30.313  13.809  14.515
55139W        W20300  33.607   8.747  14.015
55140W        W20301  32.810  10.526  14.933
55141W        W20302  26.971  10.076   5.007
55142W        W20303  26.607  21.912   3.315
55143W        W20304  24.928  26.741   2.448
55144W        W20305  36.748  33.573   3.731
55145W        W20306   5.386  13.753   4.651
55146W        W20307  18.255   4.471   0.039
55147W        W20308  28.664   9.752   2.571
55148W        W20309  12.587   8.654   2.858
55149W        W20310  22.859   4.256   2.776
55150W        W20311  27.654  33.364  12.905
55151W        W20312  30.693  10.244   2.134
55152W        W20313  35.652  12.405  11.904
55153W        W20314  40.398  15.168  11.498
55154W        W20315   5.575  12.164  11.237
55155W        W20316  14.666  11.670   4.165
55156W        W20317   2.366  15.840   2.772
55157W        W20318  23.421  33.059   3.204
55158W        W20319   5.377  19.779  11.901
55159W        W20320   9.898  14.207   1.325
55160W        W20321  28.086  20.221   2.651
55161W        W20322  31.134   3.456  13.953
55162W        W20323  28.365  30.587  11.449
55163W        W20324  22.523  11.644  12.073
55164W        W20325  40.886  37.631   4.119
55165W        W20326  26.636  19.093   1.931
55166W        W20327  21.793  21.466  12.695
55167W        W20328  33.924  11.754   0.382
55168W        W20329  28.434   1.412   2.273
55169W        W20330  32.017   4.422  12.839
55170W        W20331  17.270  14.290   1.342
55171W        W20332  12.146   0.950  12.714
55172W        W20333  22.883   1.473   0.692
55173W        W20334  24.565  30.119  11.491
55174W        W20335  33.643  12.655  12.615
55175W        W20336  31.527  39.163  13.397
55176W        W20337  34.444  19.955  11.607
55177W        W20338  38.052  31.133   1.187
55178W        W20339  13.596   6.427   4.597
55179W        W20340  10.672  14.624   4.058
55180W        W20341  37.774   1.382  13.290
55181W        W20342  18.549   5.866  10.608
55182W        W20343  18.261  42.368   0.149
55183W        W20344   9.153  35.801   2.754
55184W        W20345   5.345  40.965  12.975
55185W        W20346   3.694  42.168   0.434
55186W        W20347  40.943  20.131  13.630
55187W        W20348  41.372   4.158   3.150
55188W        W20349  43.817  25.260   1.239
55189W        W20350  42.898  44.297   1.217
55190W        W20351  12.017  13.765  10.764
55191W        W20352   6.133  15.677   2.013
55192W        W20353  40.790  36.884   2.848
55193W        W20354   1.261  33.062  11.524
55194W        W20355  38.565  33.366  14.440
55195W        W20356  43.496  41.790  13.115
55196W        W20357   2.450  17.518  13.212
55197W        W20358   1.955  21.780   0.843
55198W        W20359  16.722  38.933  12.469
55199W        W20360  13.335  14.225   0.735
55200W        W20361  28.537  19.690   1.292
55201W        W20362  34.267  14.247   0.188
55202W        W20363  27.049  15.225  11.587
55203W        W20364  25.947  35.762   1.832
55204W        W20365  35.463  20.183   1.843
55205W        W20366  21.187   2.901  10.748
55206W        W20367   6.428   3.378  12.830
55207W        W20368   4.139  12.328   3.160
55208W        W20369  11.150  23.946   3.410
55209W        W20370  42.778  13.129  12.082
55210W        W20371  18.668  33.983   4.788
55211W        W20372  17.356  34.104  12.959
55212W        W20373  37.371  16.812  11.647
55213W        W20374   9.213  35.242   5.007
55214W        W20375  12.847  40.294   3.696
55215W        W20376  11.847  40.958   4.736
55216W        W20377  28.806   5.488   1.387
55217W        W20378  39.942  35.785  12.495
55218W        W20379  44.320  40.287   1.007
55219W        W20380  39.456  29.142   0.220
55220W        W20381  38.216  28.676   3.219
55221W        W20382  21.006  18.736   4.271
55222W        W20383  22.049   1.282  11.090
55223W        W20384  26.351  27.147   3.782
55224W        W20385   1.548  17.805   0.752
55225W        W20386  15.636  11.070   3.208
55226W        W20387   7.724   8.357   1.882
55227W        W20388  21.065  25.687  13.990
55228W        W20389   7.335  24.571  12.884
55229W        W20390  14.073  24.265   4.437
55230W        W20391  21.588  31.639  13.590
55231W        W20392  39.972  36.484   3.395
55232W        W20393  29.674  27.826  10.831
55233W        W20394  28.668  25.637   3.301
55234W        W20395  13.262  27.140   1.425
55235W        W20396  16.939  23.814  12.958
55236W        W20397  32.061  23.044  13.453
55237W        W20398  11.912  12.880  12.267
55238W        W20399  36.711   5.561   2.322
55239W        W20400  42.295  18.549  14.302
55240W        W20401  44.933  23.515   4.155
55241W        W20402  23.890  34.504  14.328
55242W        W20403  23.225  36.437  12.928
55243W        W20404  39.485   2.955   2.455
55244W        W20405  20.555   2.215  12.709
55245W        W20406  28.154   7.397   3.595
55246W        W20407   3.407  18.110  10.163
55247W        W20408   2.510  18.332   1.448
55248W        W20409  27.419   1.995   2.860
55249W        W20410  23.249  15.802   4.282
55250W        W20411  42.248  27.996  12.569
55251W        W20412   7.306  38.875   4.377
55252W        W20413  39.406  31.467   4.159
55253W        W20414   5.316  35.772   2.670
55254W        W20415   5.058   0.401  14.750
55255W        W20416  44.494  43.490   0.365
55256W        W20417  20.149  33.532   4.612
55257W        W20418   8.710  27.494  11.574
55258W        W20419   3.818  12.217  12.593
55259W        W20420   7.074  27.044  13.031
55260W        W20421   9.171  18.597  10.565
55261W        W20422  35.112  17.364  12.069
55262W        W20423  26.158   0.515  11.735
55263W        W20424  30.275   7.639  12.647
55264W        W20425   3.350  20.487  13.804
55265W        W20426  31.007  28.181  13.450
55266W        W20427  42.818  33.927  14.575
55267W        W20428  39.854  32.432  11.160
55268W        W20429  34.130  34.462  12.810
55269W        W20430   8.358  34.470   0.702
55270W        W20431   3.383  10.234  11.464
55271W        W20432  44.496   0.762  12.001
55272W        W20433   5.313  11.596   0.412
55273W        W20434  38.508   1.498   3.256
55274W        W20435  14.186   1.242  10.546
55275W        W20436  41.998  16.094  13.565
55276W        W20437  21.810   4.622  10.842
55277W        W20438   0.973  44.546   1.318
55278W        W20439  40.827  38.462   3.260
55279W        W20440  21.007  11.747   4.298
55280W        W20441   4.849  18.540  10.226
55281W        W20442  21.046  39.964   3.213
55282W        W20443  25.986  24.226   2.795
55283W        W20444  17.822  18.229  11.998
55284W        W20445  44.285  17.520  11.197
55285W        W20446  24.932   0.870   3.867
55286W        W20447  13.203  22.084  11.605
55287W        W20448  20.511  28.616   3.922
55288W        W20449  40.844  29.749  12.477
55289W        W20450  17.474  42.328   5.371
55290W        W20451   1.864  43.403  12.895
55291W        W20452   0.327  13.247  14.817
55292W        W20453  11.187  41.248  13.088
55293W        W20454  30.284  24.728  11.699
55294W        W20455  35.148  28.792  10.996
55295W        W20456  11.224  10.640   0.311
55296W        W20457   6.067  34.084  11.204
55297W        W20458  11.086  38.355  12.491
55298W        W20459  37.094  32.098  10.686
55299W        W20460  40.952   6.032  13.388
55300W        W20461  20.039  18.001  13.154
55301W        W20462  27.663   2.215   4.556
55302W        W20463  10.680   8.428   4.764
55303W        W20464  26.409  14.227  10.155
55304W        W20465  20.761  13.308   0.372
55305W        W20466  24.459   3.887   2.844
55306W        W20467  27.046  33.747  13.420
55307W        W20468  38.366  37.881   0.801
55308W        W20469  14.389  13.099   0.746
55309W        W20470  28.234   3.753   0.710
55310W        W20471  43.812  39.903   2.772
55311W        W20472   4.736  31.408   2.748
55312W        W20473   2.942   0.098  11.579
55313W        W20474   3.418  20.338   3.330
55314W        W20475  24.741  42.412   2.647
55315W        W20476  26.204  37.935   2.892
55316W        W20477   0.785  28.063  12.915
55317W        W20478  23.293  35.605  10.416
55318W        W20479  27.676  17.029  13.814
55319W        W20480  14.076  14.169   1.449
55320W        W20481   5.009  31.131  11.940
55321W        W20482  14.807  43.844   4.756
55322W        W20483  40.278  17.789  11.085
55323W        W20484  29.367  35.624   3.023
55324W        W20485  20.273  12.772   3.861
55325W        W20486  26.957  13.888  11.871
55326W        W20487  28.125  44.129   3.687
55327W        W20488   1.218  37.300  13.494
55328W        W20489   2.901  31.984  14.547
55329W        W20490  31.670  31.307  13.555
55330W        W20491  27.027  12.827   1.517
55331W        W20492   5.853  15.132   0.006
55332W        W20493  31.537  28.586   3.851
55333W        W20494  25.173  18.007   0.593
55334W        W20495   1.531  13.759   3.633
55335W        W20496  36.285  25.943  11.267
55336W        W20497  18.289  19.765  13.881
55337W        W20498  37.478  17.042   3.372
55338W        W20499  15.418  18.785   2.913
55339W        W20500   8.245  15.095   0.979
55340W        W20501  40.926   1.890  10.694
55341W        W20502  40.407  23.060   2.229
55342W        W20503  34.046   3.074  12.124
55343W        W20504  14.108  27.423  12.990
55344W        W20505  22.426  11.140   0.249
55345W        W20506   6.912   2.800   2.848
55346W        W20507  42.386  44.328   0.043
55347W        W20508   1.906  31.012  13.337
55348W        W20509   7.306  10.361  13.298
55349W        W20510  30.756  18.296  12.322
55350W        W20511   2.986  17.034   3.154
55351W        W20512  29.629  19.714  10.411
55352W        W20513   0.393   6.214  12.974
55353W        W20514  23.187  25.068   1.930
55354W        W20515  30.560  26.145   1.186
55355W        W20516  15.254  19.092  11.260
55356W        W20517  29.945   4.940   2.002
55357W        W20518  23.038  20.195   4.581
55358W        W20519  13.035  21.675   1.724
55359W        W20520  25.950   5.836  12.866
55360W        W20521  20.570  28.209  14.980
55361W        W20522  43.875   4.788   1.238
55362W        W20523  12.091  24.564  10.906
55363W        W20524  36.917  11.828   1.812
55364W        W20525  15.345   8.846   3.060
55365W        W20526  14.264   3.709   3.845
55366W        W20527   7.191  13.875   0.359
55367W        W20528   3.262  28.430  12.464
55368W        W20529  20.290  40.127  10.667
55369W        W20530  30.246  12.680  11.178
55370W        W20531  25.215  17.992  11.927
55371W        W20532  10.994   6.875  12.431
55372W        W20533  25.526  37.305   0.403
55373W        W20534  19.306  16.027   2.695
55374W        W20535  33.307  12.010   0.991
55375W        W20536  17.727  43.903  10.588
55376W        W20537  39.464  22.617   3.199
55377W        W20538  34.273  29.561  13.989
55378W        W20539  14.540  26.717   3.689
55379W        W20540   8.883  44.014   0.914
55380W        W20541   5.433  11.079  14.049
55381W        W20542  19.782  14.727   4.874
55382W        W20543  11.761  40.827   5.218
55383W        W20544   5.922   9.915  13.445
55384W        W20545  41.997  22.518  11.559
55385W        W20546  12.143  19.092  10.732
55386W        W20547  11.900  36.648  13.116
55387W        W20548  17.967  18.242   3.210
55388W        W20549  36.478   7.832   0.326
55389W        W20550  13.272  28.252  11.143
55390W        W20551  16.762  29.418   1.994
55391W        W20552  12.804  40.823  12.112
55392W        W20553   2.168  15.645   3.226
55393W        W20554   3.363  43.965   3.718
55394W        W20555  27.273   2.384   4.265
55395W        W20556  31.179  19.650   1.218
55396W        W20557  18.909  26.479  14.791
55397W        W20558  39.605   2.891   3.781
55398W        W20559  31.253  42.229   1.481
55399W        W20560   3.425  25.399   3.789
55400W        W20561  34.361  39.700   3.683
55401W        W20562  14.555  37.656  11.188
55402W        W20563  32.762  36.500  12.886
55403W        W20564  41.847  34.204  14.495
55404W        W20565  28.019  30.161  13.940
55405W        W20566  23.531  40.955   2.784
55406W        W20567  24.639  35.796  12.790
55407W        W20568  41.091   7.812  14.053
55408W        W20569  10.097  35.564  10.611
55409W        W20570  23.668  33.680  10.318
55410W        W20571  12.161  14.781   0.492
55411W        W20572  23.129  32.837   2.850
55412W        W20573  18.278  39.710   2.709
55413W        W20574  30.058   2.450  12.444
55414W        W20575  42.493   1.412  13.623
55415W        W20576  20.000  44.083   2.318
55416W        W20577   9.243  43.306   1.973
55417W        W20578  42.417  32.623   2.791
55418W        W20579  19.707   9.716  12.442
55419W        W20580   8.238  38.639  11.514
55420W        W20581   1.208  38.476   1.281
55421W        W20582  44.323  23.661   0.878
55422W        W20583  36.616  26.000   4.265
55423W        W20584  16.224  38.621   4.670
55424W        W20585   4.464  34.953   4.284
55425W        W20586  19.566  35.605  13.103
55426W        W20587   7.762  21.379   1.836
55427W        W20588   4.787  40.522  10.625
55428W        W20589   9.375   9.343   3.272
55429W        W20590  36.886  21.117  11.558
55430W        W20591  37.234  41.183  14.329
55431W        W20592  23.759   5.851  12.630
55432W        W20593   2.838  20.271  13.841
55433W        W20594   5.368  31.368  12.981
55434W        W20595  29.093  43.064  12.594
55435W        W20596   6.755  35.940  14.835
55436W        W20597  41.094  33.612  11.452
55437W        W20598   2.344  17.787   1.720
55438W        W20599  26.494  31.580  11.236
55439W        W20600   3.975  15.124  11.105
55440W        W20601  11.598  28.477  10.641
55441W        W20602  16.643  41.069   0.932
55442W        W20603   6.162  24.567   4.878
55443W        W20604  18.287  17.210  12.584
55444W        W20605  25.522  33.886   0.119
55445W        W20606   1.031  27.551   4.892
55446W        W20607  10.210   6.516  12.270
55447W        W20608  32.884  26.103  10.882
55448W        W20609  40.183  38.415   4.045
55449W        W20610   8.351  16.086  11.662
55450W        W20611   2.900   4.641  11.125
55451W        W20612  15.178  36.940   4.059
55452W        W20613  24.251  23.960   1.294
55453W        W20614  29.762  18.152  12.451
55454W        W20615  18.285  37.642   0.924
55455W        W20616  19.667  15.169   5.137
55456W        W20617  15.566  33.156  14.383
55457W        W20618   5.641  40.078  12.530
55458W        W20619  26.926  26.431   4.576
55459W        W20620  34.623  39.379   2.747
55460W        W20621  20.558  32.548   2.233
55461W        W20622  35.608  22.689  11.771
55462W        W20623   8.300  38.225   1.645
55463W        W20624  27.589  43.795   2.168
55464W        W20625   7.191   3.254   2.214
55465W        W20626  31.186  14.722   3.388
55466W        W20627  10.892  42.233   2.535
55467W        W20628  22.540  19.515  12.470
55468W        W20629  17.783  35.147  12.016
55469W        W20630  10.089   4.542   1.548
55470W        W20631  41.304   0.754   0.607
55471W        W20632  20.242  20.478   1.579
55472W        W20633  38.745  23.047   4.232
55473W        W20634   9.636  20.261  11.364
55474W        W20635  34.453  33.720  14.009
55475W        W20636  22.034  14.471  10.641
55476W        W20637   0.570  16.607   1.577
55477W        W20638  13.771  18.011   4.100
55478W        W20639   1.745  32.392   2.430
55479W        W20640  24.193  32.962   2.801
55480W        W20641  40.453  29.171   1.323
55481W        W20642  20.813  18.728  12.553
55482W        W20643   4.105   2.535  11.191
55483W        W20644  38.090  10.324   1.308
55484W        W20645  30.449   3.017  14.608
55485W        W20646  29.439   4.677   3.748
55486W        W20647  32.045  24.709   1.875
55487W        W20648  32.092   7.477   4.534
55488W        W20649   8.340  11.907   0.509
55489W        W20650  12.612   7.619  10.852
55490W        W20651  23.270  12.562   0.384
55491W        W20652   3.463  35.956   0.438
55492W        W20653  27.914  18.693  12.475
55493W        W20654   9.363  44.245   1.777
55494W        W20655  35.326   9.398  10.630
55495W        W20656  26.904  21.468   3.212
55496W        W20657  11.241  14.695  12.612
55497W        W20658   7.026  10.790  11.506
55498W        W20659   9.382  31.788   2.816
55499W        W20660  36.714   6.644   4.946
55500W        W20661  11.851   6.784  10.736
55501W        W20662  37.127  22.034  12.609
55502W        W20663  16.817  17.307   4.473
55503W        W20664  30.724  11.264   2.269
55504W        W20665  43.516  17.684   1.600
55505W        W20666   8.459   6.467   2.142
55506W        W20667  31.485  22.130   0.869
55507W        W20668  11.615  40.765  13.928
55508W        W20669  17.806  21.743   2.654
55509W        W20670  22.660  34.869  14.462
55510W        W20671  28.547  41.965   3.832
55511W        W20672  15.843  25.207   0.827
55512W        W20673   5.048  14.733  10.707
55513W        W20674   4.311  42.365  14.875
55514W        W20675  36.037  32.345   0.864
55515W        W20676   6.934   9.719  13.226
55516W        W20677  12.200  12.588  11.068
55517W        W20678  37.008  22.707  10.485
55518W        W20679  34.175  38.416   0.238
55519W        W20680  34.134  38.643   1.645
55520W        W20681  11.646  33.251  14.658
55521W        W20682  34.322  18.227  12.433
55522W        W20683  39.970  13.111   1.404
55523W        W20684  20.718  13.375   1.884
55524W        W20685   1.952  41.492   3.628
55525W        W20686  36.337  11.709   3.889
55526W        W20687  18.843   1.529  10.635
55527W        W20688  17.630   2.874  13.947
55528W        W20689  24.081  34.993  13.618
55529W        W20690  37.835  15.861  10.721
55530W        W20691  16.169  22.797   2.242
55531W        W20692  12.649  20.645  11.434
55532W        W20693  27.510  10.066  14.729
55533W        W20694  30.961   1.524   4.109
55534W        W20695  27.047  19.369  11.558
55535W        W20696  11.207  10.690  12.496
55536W        W20697  35.949  42.430   3.357
55537W        W20698  34.550  14.145   2.867
55538W        W20699  32.746  32.080   1.486
55539W        W20700  13.782   3.391   0.266
55540W        W20701  21.971   5.150   3.277
55541W        W20702  13.165   6.686   4.653
55542W        W20703  38.798  41.850  14.178
55543W        W20704  40.855  18.057   4.133
55544W        W20705  24.698  21.213  11.488
55545W        W20706  14.908   4.228   3.209
55546W        W20707  41.992   7.401  11.135
55547W        W20708  22.789  22.300   3.584
55548W        W20709   4.463  11.520   4.266
55549W        W20710   0.414  34.992   1.217
55550W        W20711  33.054  22.138   2.835
55551W        W20712  23.567  41.461  13.467
55552W        W20713  43.947  43.487  10.716
55553W        W20714   0.316  29.750   1.646
55554W        W20715   9.376  24.693  10.571
55555W        W20716  23.145  38.629  12.421
55556W        W20717   5.815   5.693  14.033
55557W        W20718  28.215  28.992  13.462
55558W        W20719   2.462  43.076  14.844
55559W        W20720  23.729  14.930  11.109
55560W        W20721  16.638  40.275  12.900
55561W        W20722  16.042  17.171   1.263
55562W        W20723  31.379   8.365  11.460
55563W        W20724  32.533   4.195   4.181
55564W        W20725  30.528  31.992  12.587
55565W        W20726  13.380  13.862  11.739
55566W        W20727   1.741   2.382  14.856
55567W        W20728  10.454  26.462   0.568
55568W        W20729  15.044  39.246   4.029
55569W        W20730  29.262  36.383  14.973
55570W        W20731  28.006  38.942   2.156
55571W        W20732   4.909  19.027  12.083
55572W        W20733  23.037  27.593  12.016
55573W        W20734   6.969  25.131  14.737
55574W        W20735  40.429  22.251  11.139
55575W        W20736  36.414  23.602  14.809
55576W        W20737   7.833  25.781  13.463
55577W        W20738  19.952  23.226   3.562
55578W        W20739  40.396  26.607   0.495
55579W        W20740  30.193  10.157  14.887
55580W        W20741  18.336  32.884  13.381
55581W        W20742  24.661   4.677   4.721
55582W        W20743  37.852  22.582   1.421
55583W        W20744  10.114  31.636  14.910
55584W        W20745  40.737  38.446   1.924
55585W        W20746  16.754  12.308  12.713
55586W        W20747  20.113   2.431  13.500
55587W        W20748  21.574  39.007  11.193
55588W        W20749  27.102  21.173   1.104
55589W        W20750  30.624  22.966  11.760
55590W        W20751  17.580   5.741   1.675
55591W        W20752  12.260  33.886  14.652
55592W        W20753  21.794  41.155  13.945
55593W        W20754  19.556  20.278  10.456
55594W        W20755  43.344  35.130   4.272
55595W        W20756  23.910  16.699  13.349
55596W        W20757  33.549   1.153   1.254
55597W        W20758  37.739  21.088  12.061
55598W        W20759  20.990  28.690   0.814
55599W        W20760  23.164   2.018   4.639
55600W        W20761  39.089   5.542   2.828
55601W        W20762   0.779  22.837  11.078
55602W        W20763  40.302  40.799   0.033
55603W        W20764  35.917  10.885  11.247
55604W        W20765  39.616  31.142   4.698
55605W        W20766  25.658  38.666   4.471
55606W        W20767  41.702  24.759  12.053
55607W        W20768  21.643  44.983   4.668
55608W        W20769   0.185  11.111   2.882
55609W        W20770  21.155   6.030   2.751
55610W        W20771  31.885  17.954   0.248
55611W        W20772  40.270  29.676   1.270
55612W        W20773  32.514  11.555   1.028
55613W        W20774   2.306  27.445  13.964
55614W        W20775  36.365  36.539  12.040
55615W        W20776  44.318  23.440  11.968
55616W        W20777  41.057  30.527  13.592
55617W        W20778   1.701  29.865  12.477
55618W        W20779  27.120  44.548  14.444
55619W        W20780  11.645   7.098   1.255
55620W        W20781  17.531  12.665   2.174
55621W        W20782  41.277   0.121  11.519
55622W        W20783  31.359  40.355  12.046
55623W        W20784   1.974  11.942  13.791
55624W        W20785   4.442  44.699   4.045
55625W        W20786  40.826  41.258   0.346
55626W        W20787  21.034   4.686   3.118
55627W        W20788   3.055   9.722   0.837
55628W        W20789  22.345  14.737   0.910
55629W        W20790  26.922  17.722  14.051
55630W        W20791  30.687  37.314   0.831
55631W        W20792  32.189  30.548   3.836
55632W        W20793  31.999  32.674  11.153
55633W        W20794   3.055  22.467   4.494
55634W        W20795  23.207  12.198  12.143
55635W        W20796   4.987  36.886   3.281
55636W        W20797   2.983  25.566   2.927
55637W        W20798   0.383   8.310   3.158
55638W        W20799   9.429  20.427  12.197
55639W        W20800  21.962  11.200  12.959
55640W        W20801   0.860   1.178  11.737
55641W        W20802  38.572  15.909   0.064
55642W        W20803  17.643  41.487   0.765
55643W        W20804  44.198  14.115   3.296
55644W        W20805  23.556  25.148   3.248
55645W        W20806  10.933  40.365  11.986
55646W        W20807  30.480  15.721   0.936
55647W        W20808   8.687  41.555  12.517
55648W        W20809  32.852   8.821   1.843
55649W        W20810  44.448  14.105   2.814
55650W        W20811  30.965  36.642   4.396
55651W        W20812  20.700  14.761  13.529
55652W        W20813  14.940  16.705  13.293
55653W        W20814  26.282  43.754   1.194
55654W        W20815  29.980  39.551  10.964
55655W        W20816   6.609  44.850  13.547
55656W        W20817   3.720  38.412  12.570
55657W        W20818  19.457  35.169  11.534
55658W        W20819   7.125  17.339   2.862
55659W        W20820  34.378  18.795  13.405
55660W        W20821  36.815  24.198  13.624
55661W        W20822   0.724  35.416  11.954
55662W        W20823   6.859   0.669   3.896
55663W        W20824  20.500  22.440   1.917
55664W        W20825   7.657  24.151  13.184
55665W        W20826  40.311  22.752  12.040
55666W        W20827  10.752  14.601   2.227
55667W        W20828  41.373  28.526  11.515
55668W        W20829  22.184  21.296   0.752
55669W        W20830  42.025  25.437   2.646
55670W        W20831   5.477   9.062  10.420
55671W        W20832  41.601  39.001   1.759
55672W        W20833  16.200   5.491  14.023
55673W        W20834   8.358  21.168   2.322
55674W        W20835  41.945  21.512   1.978
55675W        W20836   8.778   5.036  12.976
55676W        W20837  17.472   0.195   1.243
55677W        W20838  30.905  36.633   1.658
55678W        W20839  21.729   7.788   2.602
55679W        W20840  36.615  33.487   4.218
55680W        W20841  34.072  33.442  14.195
55681W        W20842   8.906  34.386   2.700
55682W        W20843  33.352   0.885   2.824
55683W        W20844  34.196  30.780  11.140
55684W        W20845  10.483  14.688  13.999
55685W        W20846  24.201  28.011  12.980
55686W        W20847  20.180  29.273   5.239
55687W        W20848  16.936  22.198   1.033
55688W        W20849  27.494   4.721  14.361
55689W        W20850  35.181   2.697   4.315
55690W        W20851  42.787   6.131  13.532
55691W        W20852  33.880  12.666  10.980
55692W        W20853  17.809  35.378  12.895
55693W        W20854  27.663  38.446  11.311
55694W        W20855  18.300  36.152  10.634
55695W        W20856   5.921  15.253  12.995
55696W        W20857  30.907   2.766  13.353
55697W        W20858  14.620  41.805   1.787
55698W        W20859  22.655  41.907  14.416
55699W        W20860  21.013  23.674   2.242
55700W        W20861  14.274  11.308   4.129
55701W        W20862  20.247   6.645  12.045
55702W        W20863  16.058  15.819   1.029
55703W        W20864   5.007  18.811   4.598
55704W        W20865   8.834  18.040  11.221
55705W        W20866  24.419  41.697  14.794
55706W        W20867  36.457  26.177   1.778
55707W        W20868  21.148  14.660  11.429
55708W        W20869  12.272  38.889   3.546
55709W        W20870  42.461  30.550  14.600
55710W        W20871   7.617  24.999  12.539
55711W        W20872  35.977  28.511  14.385
55712W        W20873   1.360  21.347   3.196
55713W        W20874  43.948  42.948  10.685
55714W        W20875  19.167  22.284  11.606
55715W        W20876   6.007  29.402   4.798
55716W        W20877  13.666   9.342  14.932
55717W        W20878  12.234  27.988   0.418
55718W        W20879  18.119  10.288   3.091
55719W        W20880  18.004   9.929  14.184
55720W        W20881   0.181  36.118   0.283
55721W        W20882  22.143   9.128   3.301
55722W        W20883  38.943  15.630  10.675
55723W        W20884  12.734  34.009  10.573
55724W        W20885  15.492  18.024   1.504
55725W        W20886   9.084  36.124  13.740
55726W        W20887  36.104  20.352   3.286
55727W        W20888  15.704  44.180   3.114
55728W        W20889  18.568   3.868   3.216
55729W        W20890  37.396  42.525   3.078
55730W        W20891  19.624  38.043   1.890
55731W        W20892  41.989   0.251   4.828
55732W        W20893  28.679  11.552   2.706
55733W        W20894   2.739  14.127  12.773
55734W        W20895  24.510   0.549   2.876
55735W        W20896  21.517  13.864  11.592
55736W        W20897  26.395  12.921   5.053
55737W        W20898  19.220  24.313   3.320
55738W        W20899  26.065  24.061  14.758
55739W        W20900  36.856  38.536  13.323
55740W        W20901  27.369   6.746   2.613
55741W        W20902  17.787  42.461   4.937
55742W        W20903  41.261  40.959  13.522
55743W        W20904  42.368  42.954  14.958
55744W        W20905  10.749  42.907   1.348
55745W        W20906   6.392  14.215  13.346
55746W        W20907  15.520  28.946   3.653
55747W        W20908  38.488  41.972  10.442
55748W        W20909  43.461  16.744  13.361
55749W        W20910  17.184  43.833  11.735
55750W        W20911  11.844  39.804   9.973
55751W        W20912  36.242  10.872   2.611
55752W        W20913  23.054  10.632  12.075
55753W        W20914   4.204  44.546  14.502
55754W        W20915  23.153  32.866   3.789
55755W        W20916  17.092  17.480   3.569
55756W        W20917  24.056  19.563   3.873
55757W        W20918  34.584  30.943  11.472
55758W        W20919  18.207  22.801  11.556
55759W        W20920  13.646  38.410   4.518
55760W        W20921  21.461   0.747   1.763
55761W        W20922  20.573  26.747   4.175
55762W        W20923   5.926   8.778   4.694
55763W        W20924   8.917  42.424   2.355
55764W        W20925  14.244  15.023   1.965
55765W        W20926  16.251  37.766   1.728
55766W        W20927  39.377  14.501  11.971
55767W        W20928  10.199   6.747   3.749
55768W        W20929  32.562  38.609  14.871
55769W        W20930  42.716   3.585  10.779
55770W        W20931   3.901  32.086   1.326
55771W        W20932  27.276  19.516  12.807
55772W        W20933  32.816  38.074   4.049
55773W        W20934  21.969   2.345  10.679
55774W        W20935  28.540  27.043   4.729
55775W        W20936  17.560  31.883  13.488
55776W        W20937  39.439   7.920  12.906
55777W        W20938   8.779  41.416  10.452
55778W        W20939  31.249  37.567  11.665
55779W        W20940  24.449   2.083   0.004
55780W        W20941  10.207  31.059  10.539
55781W        W20942  11.796   8.824   4.231
55782W        W20943  40.558  30.632  13.534
55783W        W20944  38.340  32.590   1.208
55784W        W20945  43.112  28.194  12.934
55785W        W20946  28.049  38.889  13.514
55786W        W20947  16.699  35.170  14.232
55787W        W20948  12.513  30.068   1.138
55788W        W20949  14.719  34.805  13.408
55789W        W20950  33.594  27.121  14.813
55790W        W20951  22.429  19.677  14.777
55791W        W20952  25.176  16.136  12.723
55792W        W20953  29.946  26.967  13.225
55793W        W20954   6.308   2.257   4.062
55794W        W20955  22.227  39.399  13.164
55795W        W20956  25.223  30.530   1.662
55796W        W20957  25.247  18.570   3.712
55797W        W20958  19.759   6.328  14.532
55798W        W20959  32.356  30.063  14.958
55799W        W20960  42.295  26.620  12.198
55800W        W20961  15.188  27.443   1.153
55801W        W20962   1.726  12.283   3.193
55802W        W20963  21.261  41.675   4.161
55803W        W20964  36.125  44.314  12.049
55804W        W20965  29.433  32.040   2.756
55805W        W20966  17.981  35.008  11.377
55806W        W20967  40.760   3.617   1.835
55807W        W20968  43.803  27.066  14.528
55808W        W20969  32.713  12.227   3.217
55809W        W20970   8.853  24.971   0.733
55810W        W20971   4.190  19.261   2.385
55811W        W20972  28.476  33.099  11.183
55812W        W20973  21.116  19.019   3.808
55813W        W20974  12.801   2.643   2.346
55814W        W20975  18.630  13.531   2.234
55815W        W20976  26.510  30.401   2.869
55816W        W20977  14.827  29.169  14.776
55817W        W20978  43.862   3.391  13.911
55818W        W20979   0.166   7.728   0.240
55819W        W20980  33.985   5.311  13.002
55820W        W20981   1.389   7.315   4.960
55821W        W20982   9.151  21.159  11.077
55822W        W20983  12.043  38.960   2.618
55823W        W20984  38.025  29.948   3.126
55824W        W20985   9.004   8.761   3.241
55825W        W20986  21.668  31.433   4.440
55826W        W20987  25.757  19.708   4.464
55827W        W20988  39.053  28.616   2.857
55828W        W20989   8.123  12.335  11.490
55829W        W20990  15.286  44.129  11.120
55830W        W20991  38.468  20.003   0.090
55831W        W20992  40.901  37.109   4.182
55832W        W20993   6.430  10.731  14.384
55833W        W20994  19.194  34.159   0.497
55834W        W20995  27.747  11.932   3.154
55835W        W20996  19.748  27.317   4.843
55836W        W20997   8.736  18.585   2.924
55837W        W20998  16.289   3.561  11.054
55838W        W20999  37.083  15.261   3.257
55839W        W21000   8.795  15.428   2.539
55840W        W21001  11.409  30.350   2.289
55841W        W21002  14.575  36.246  13.540
55842W        W21003   3.305  22.103   3.581
55843W        W21004  33.522   1.662   1.302
55844W        W21005  20.761  32.576  10.889
55845W        W21006  15.116  20.517   1.911
55846W        W21007  25.613   5.965   4.696
55847W        W21008   8.654  44.535   1.804
55848W        W21009  26.956   8.844   4.142
55849W        W21010   6.195  28.917  12.503
55850W        W21011  12.081  37.319  12.070
55851W        W21012  11.323  19.062  14.972
55852W        W21013   0.506  17.771  14.010
55853W        W21014  36.843  19.284  12.372
55854W        W21015  33.530   3.233   3.272
55855W        W21016   3.796  40.946   4.181
55856W        W21017  23.604  11.308   4.859
55857W        W21018  40.333  19.106  13.100
55858W        W21019   3.292   8.753  12.345
55859W        W21020  38.330  21.659   0.870
55860W        W21021  11.723   4.385  13.369
55861W        W21022  31.044   8.193   4.021
55862W        W21023  21.746  43.933   0.725
55863W        W21024  43.435  25.026  13.913
55864W        W21025  32.318   9.143   2.196
55865W        W21026  44.953  11.015   3.329
55866W        W21027  43.266   9.484  13.806
55867W        W21028  37.641  31.650   4.685
55868W        W21029  20.576  41.016   1.879
55869W        W21030  33.348  34.425   2.491
55870W        W21031  40.978  33.283   4.625
55871W        W21032  30.340  24.586  10.773
55872W        W21033  24.168  16.105  14.865
55873W        W21034  18.044  18.553  14.564
55874W        W21035  32.107   3.965   3.954
55875W        W21036  19.568  10.577   2.670
55876W        W21037  16.675   2.463   2.315
55877W        W21038  20.119  25.528   2.762
55878W        W21039  28.873   8.254   3.588
55879W        W21040   8.926  37.058   3.175
55880W        W21041  12.669  29.115  14.876
55881W        W21042  21.935  29.482  14.080
55882W        W21043  30.024   1.751  10.437
55883W        W21044  28.015  43.151   1.364
55884W        W21045  30.039   0.545   0.791
55885W        W21046  20.286  21.230  10.707
55886W        W21047  33.215  26.449   3.617
55887W        W21048  37.083  27.102  12.593
55888W        W21049  22.110  31.123   2.852
55889W        W21050  33.705  24.490  14.731
55890W        W21051  15.648  19.477   1.408
55891W        W21052  42.594  35.033  10.812
55892W        W21053  35.949  28.493   2.266
55893W        W21054   0.960  27.241  12.001
55894W        W21055  35.478  39.565   0.142
55895W        W21056   3.053   0.807   2.893
55896W        W21057  39.744  42.179  13.278
55897W        W21058  12.351  12.653   2.775
55898W        W21059   0.656   6.656  11.589
55899W        W21060  12.661  22.713   3.794
55900W        W21061  14.529  20.815  12.577
55901W        W21062  33.436  10.683  10.717
55902W        W21063   8.114   5.223   0.447
55903W        W21064  22.372  42.330  14.364
55904W        W21065   7.243  28.199  14.789
55905W        W21066  31.498  24.914   4.580
55906W        W21067  23.565  43.029   1.405
55907W        W21068  43.873  33.601   2.881
55908W        W21069  25.559   0.712   4.603
55909W        W21070  39.529   8.915   4.628
55910W        W21071  19.623  23.984   3.256
55911W        W21072  36.972  24.712  11.445
55912W        W21073  24.721  19.556   0.490
55913W        W21074  32.521  44.320  10.595
55914W        W21075   5.993  36.983   3.030
55915W        W21076  39.464  39.957   0.647
55916W        W21077  39.794  27.687   2.263
55917W        W21078  23.848  33.337   3.716
55918W        W21079  38.948   7.633  12.982
55919W        W21080  23.629  31.312  13.481
55920W        W21081  42.801  19.631  14.410
55921W        W21082   0.368  37.395   3.140
55922W        W21083  22.630   7.007   0.188
55923W        W21084  22.592  31.045  10.883
55924W        W21085  18.790  14.139   1.353
55925W        W21086  42.856  31.957   1.269
55926W        W21087  32.079  10.791   3.890
55927W        W21088  20.627  33.124  12.999
55928W        W21089  16.553  44.599   3.335
55929W        W21090  18.616  42.018  13.502
55930W        W21091  28.585  28.321  10.725
55931W        W21092  23.157  32.374  12.868
55932W        W21093  24.021  10.111  10.673
55933W        W21094  23.153  31.422   4.658
55934W        W21095  35.158  12.325  12.791
55935W        W21096  34.439  40.484   0.692
55936W        W21097  36.899  17.657   1.820
55937W        W21098  42.843  25.733   4.552
55938W        W21099  33.531  34.766  12.417
55939W        W21100  35.077   4.827   4.233
55940W        W21101  29.082   0.074  14.807
55941W        W21102  42.714  35.263   1.169
55942W        W21103  31.275  17.950   2.656
55943W        W21104   1.984   0.457  12.159
55944W        W21105   3.769  15.079  11.980
55945W        W21106  26.515  26.845   0.745
55946W        W21107  14.224  20.687   2.387
55947W        W21108  44.373   3.716  14.874
55948W        W21109  26.730  41.298  14.857
55949W        W21110  17.882  43.334  11.641
55950W        W21111  39.371  33.013   0.771
55951W        W21112  38.910  14.838  11.087
55952W        W21113   9.747   9.780  10.772
55953W        W21114   9.940  32.575   3.740
55954W        W21115  17.229  17.064   1.239
55955W        W21116   1.066  23.831  11.084
55956W        W21117  31.444  20.592   4.926
55957W        W21118  17.312  35.374   4.063
55958W        W21119   9.391  19.600   1.528
55959W        W21120   8.970  12.771  14.374
55960W        W21121  13.595  26.739   0.590
55961W        W21122  44.333   1.540  12.666
55962W        W21123  35.579  30.619  14.821
55963W        W21124  38.172  17.101  12.085
55964W        W21125  29.720  35.392   4.320
55965W        W21126  37.300  34.907  10.749
55966W        W21127   6.227   3.327  14.356
55967W        W21128   2.969  31.526   2.761
55968W        W21129  10.254  39.652   2.223
55969W        W21130  28.387  37.942  11.982
55970W        W21131  27.382  21.047  13.497
55971W        W21132   6.460  34.342  13.767
55972W        W21133  24.966   9.280   4.113
55973W        W21134   9.503  32.811  12.920
55974W        W21135  41.994  26.716   0.428
55975W        W21136  24.712   9.234  14.854
55976W        W21137   6.219  15.674   3.407
55977W        W21138  11.630  16.343   1.880
55978W        W21139  29.605  39.322  11.269
55979W        W21140   5.695  19.706   1.485
55980W        W21141  15.508  43.755  14.359
55981W        W21142  32.616  39.971   2.289
55982W        W21143  38.460   3.761  10.406
55983W        W21144  41.074  26.133   4.783
55984W        W21145  14.094  21.634   2.351
55985W        W21146  25.542  40.746   3.661
55986W        W21147  31.535  16.214  11.774
55987W        W21148  25.698  30.790   3.601
55988W        W21149  26.065  34.052   0.883
55989W        W21150  33.188  23.763   1.512
55990W        W21151  33.101   8.636   0.119
55991W        W21152  14.366  10.230   4.572
55992W        W21153  20.661  38.898   1.744
55993W        W21154  22.819   1.825  13.564
55994W        W21155   7.158  29.561  13.781
55995W        W21156  24.431  24.210   4.187
55996W        W21157  43.293  30.910   4.695
55997W        W21158  29.391   4.370   2.623
55998W        W21159  10.897  35.561  12.021
55999W        W21160  30.743  39.500  11.933
56000W        W21161  15.564   2.912   2.797
56001W        W21162  24.661  27.386  10.729
56002W        W21163  38.174  37.026   4.488
56003W        W21164   6.954  13.393  12.144
56004W        W21165   2.744  26.217  12.854
56005W        W21166  26.970  43.019   4.963
56006W        W21167  12.270   1.989  14.027
56007W        W21168  22.037  29.205  11.235
56008W        W21169  42.693  29.959  11.576
56009W        W21170  30.635  16.302   2.825
56010W        W21171  24.684   2.322  12.180
56011W        W21172  15.188  43.266  12.593
56012W        W21173  23.142   8.215   3.359
56013W        W21174   9.202   4.589  13.800
56014W        W21175  43.550  23.476   2.129
56015W        W21176  16.103   4.969  11.836
56016W        W21177   9.764  33.089  13.529
56017W        W21178  31.839  25.153  12.862
56018W        W21179  13.339  32.492   0.352
56019W        W21180  27.531  34.134  14.257
56020W        W21181  18.539   6.731   4.536
56021W        W21182  10.667  23.967   3.616
56022W        W21183  40.828  19.898   3.873
56023W        W21184  34.133  29.604   3.259
56024W        W21185  28.499   8.397  12.173
56025W        W21186   2.504  11.352  13.961
56026W        W21187  32.460  32.658   3.294
56027W        W21188  28.852  17.687   4.145
56028W        W21189  29.935  29.661  14.799
56029W        W21190  35.050  35.758   3.697
56030W        W21191  10.447   7.992  14.800
56031W        W21192   7.255  20.406  14.512
56032W        W21193  30.051  16.175   4.592
56033W        W21194  41.292  37.281  10.694
56034W        W21195  35.858  42.513  11.099
56035W        W21196  19.312  15.144  13.431
56036W        W21197  10.661   3.762  14.859
56037W        W21198  42.322   6.605   2.418
56038W        W21199   8.163  28.131  13.561
56039W        W21200  26.070  22.615   1.920
56040W        W21201  36.065  36.161  10.363
56041W        W21202  28.648  36.705  14.920
56042W        W21203  31.628  12.790  13.510
56043W        W21204  41.138  41.477   3.801
56044W        W21205  36.454   3.481  14.506
56045W        W21206  23.983  17.489  12.945
56046W        W21207   8.985  19.012  14.740
56047W        W21208  14.251  30.450   1.377
56048W        W21209  32.239  43.468  14.745
56049W        W21210  44.291   4.426  11.987
56050W        W21211  29.559  39.572  13.446
56051W        W21212  25.114  42.954  13.854
56052W        W21213  17.055  18.120  14.978
56053W        W21214  31.132  15.329  10.646
56054W        W21215  28.115  14.025   3.186
56055W        W21216  40.836  31.108   4.322
56056W        W21217   4.793  16.283   2.179
56057W        W21218  31.451  35.580   2.839
56058W        W21219  34.643   5.776  13.362
56059W        W21220  13.325  15.157   2.337
56060W        W21221   1.481  31.160   2.273
56061W        W21222  18.676  36.138  10.275
56062W        W21223  10.185  36.042  10.790
56063W        W21224  39.405  16.353  12.395
56064W        W21225  44.767  28.984   1.256
56065W        W21226  19.251  37.457   3.865
56066W        W21227  23.526  10.211   1.926
56067W        W21228   0.966  27.036   0.411
56068W        W21229  11.300  23.675   3.830
56069W        W21230  38.948   7.716  14.894
56070W        W21231   7.134   1.017   1.390
56071W        W21232  19.496   8.131   2.446
56072W        W21233  17.614  42.279  14.402
56073W        W21234  14.309   3.191   3.881
56074W        W21235  19.925  42.941  12.014
56075W        W21236  27.603  31.719   2.433
56076W        W21237  13.806  36.924  13.273
56077W        W21238  16.809  33.800   0.956
56078W        W21239  37.545  36.488   0.694
56079W        W21240  21.327  33.847  10.695
56080W        W21241  35.576  17.216  14.965
56081W        W21242  42.103  17.850  13.051
56082W        W21243  27.028  13.384  14.765
56083W        W21244   2.522   9.969  12.610
56084W        W21245   0.042  35.316   0.608
56085W        W21246  25.600  19.304  12.534
56086W        W21247  25.260  41.982   2.359
56087W        W21248  44.534  43.239   4.615
56088W        W21249  33.712  34.418   1.705
56089W        W21250  26.208   3.687   0.832
56090W        W21251  22.273  35.376  13.929
56091W        W21252   0.743  16.542  12.408
56092W        W21253  44.532  13.215   1.834
56093W        W21254  10.335  29.347  12.852
56094W        W21255   1.536  11.191  14.746
56095W        W21256  17.806   3.180   2.668
56096W        W21257   3.852  34.555   2.386
56097W        W21258  38.834   0.497  13.452
56098W        W21259  16.822  44.906  14.175
56099W        W21260  32.464  36.881  10.637
56100W        W21261  42.769  34.136  11.010
56101W        W21262  22.291  39.871   9.917
56102W        W21263  17.864   1.753  10.690
56103W        W21264  38.691  24.075   2.277
56104W        W21265   0.449  38.005  14.461
56105W        W21266   4.385  34.192   3.138
56106W        W21267  34.505  15.795  12.518
56107W        W21268  31.136  14.702   1.326
56108W        W21269  36.345  13.573  11.494
56109W        W21270  10.839  31.082   0.060
56110W        W21271   0.336   2.744   4.600
56111W        W21272  25.162   4.217   1.338
56112W        W21273  41.944  33.845   2.363
56113W        W21274  38.522   7.257   3.566
56114W        W21275  26.685  43.210  10.712
56115W        W21276  26.608  42.001   1.409
56116W        W21277  23.518  24.207   4.146
56117W        W21278  29.582  38.292  11.422
56118W        W21279  24.497  17.876   0.745
56119W        W21280   0.332   3.182  14.397
56120W        W21281  27.692  37.358   2.637
56121W        W21282  41.338  15.395   1.962
56122W        W21283  22.788  11.711   3.628
56123W        W21284  39.777   2.885  11.180
56124W        W21285  32.383  21.158   0.823
56125W        W21286  31.392   0.923  11.241
56126W        W21287  25.187  28.215   2.365
56127W        W21288   6.745  40.503  14.512
56128W        W21289  10.178   5.627   2.441
56129W        W21290  23.744  24.752   1.246
56130W        W21291   2.594  25.943  13.444
56131W        W21292  33.473  35.973  13.422
56132W        W21293  40.943  35.568  10.138
56133W        W21294   3.320  16.193  14.477
56134W        W21295   9.309   6.418   4.695
56135W        W21296  26.086   6.508   2.565
56136W        W21297  42.351   6.210   4.531
56137W        W21298   3.189  38.934  10.071
56138W        W21299  35.169  32.469  12.899
56139W        W21300  24.477  44.482  13.152
56140W        W21301  20.917  38.898   4.140
56141W        W21302   7.283   4.445  12.420
56142W        W21303  12.543  29.990  12.103
56143W        W21304  16.648  30.517   1.135
56144W        W21305  30.492  14.123  14.141
56145W        W21306  35.193  33.114   0.685
56146W        W21307  44.074   7.032   5.071
56147W        W21308  11.590  10.826  12.865
56148W        W21309   2.013  15.180   3.397
56149W        W21310  33.484  15.098  14.862
56150W        W21311  18.243   5.021  10.616
56151W        W21312  18.318   3.569  14.589
56152W        W21313  38.381  33.375   1.947
56153W        W21314  13.161  33.468  13.908
56154W        W21315   6.106  28.034   5.277
56155W        W21316  12.614  43.739  13.405
56156W        W21317   2.909   6.292  11.429
56157W        W21318  24.596  15.357   0.214
56158W        W21319  35.107   0.727   4.899
56159W        W21320  20.556  22.684  12.462
56160W        W21321   9.079  13.749   4.562
56161W        W21322  34.563  16.238  13.629
56162W        W21323   8.391  12.815  11.636
56163W        W21324  24.679  15.692  14.351
56164W        W21325  27.517  30.250  10.634
56165W        W21326  35.204  12.805  12.626
56166W        W21327  18.130  30.549  11.583
56167W        W21328  42.790  37.905  13.516
56168W        W21329  14.173  22.125  13.436
56169W        W21330  16.556   8.690   3.593
56170W        W21331  28.674  30.033   2.208
56171W        W21332  38.626   3.210  13.104
56172W        W21333  16.984  13.781   4.633
56173W        W21334  31.655  32.737  13.522
56174W        W21335  28.631  40.157  13.332
56175W        W21336  22.132  12.625  13.058
56176W        W21337  12.687   5.146   1.424
56177W        W21338  22.032  44.819  14.456
56178W        W21339  44.302  31.984   3.157
56179W        W21340  21.531  36.424  14.288
56180W        W21341  13.784  32.804   4.548
56181W        W21342  40.576   5.033  14.853
56182W        W21343  41.024  13.662   3.041
56183W        W21344  10.498  10.414  10.647
56184W        W21345  23.073  25.998  12.167
56185W        W21346   4.844  33.356   0.348
56186W        W21347  14.094  15.957  12.504
56187W        W21348   9.217  11.174   3.738
56188W        W21349   7.640  33.068   0.333
56189W        W21350  41.072  27.495   4.661
56190W        W21351  21.323   7.489  11.217
56191W        W21352  36.355  42.453  11.192
56192W        W21353  33.051   5.844  14.773
56193W        W21354  25.017  16.529  11.457
56194W        W21355  42.963  41.747   3.465
56195W        W21356  43.541   8.312   4.409
56196W        W21357  27.175  19.184  14.278
56197W        W21358  40.480  11.423   0.493
56198W        W21359  34.674  29.713   3.313
56199W        W21360   1.846   9.487   4.128
56200W        W21361  26.298  27.442  10.683
56201W        W21362   6.245   4.308  12.343
56202W        W21363  18.342  27.948   1.043
56203W        W21364  30.269  24.224  11.640
56204W        W21365  13.100  12.825  10.606
56205W        W21366  29.209  22.292   5.013
56206W        W21367   4.439  19.144   0.749
56207W        W21368  24.929  32.562  12.493
56208W        W21369  16.837  36.208  11.754
56209W        W21370  40.337  19.351  13.583
56210W        W21371  14.711  10.870  13.622
56211W        W21372  36.361  35.958   2.437
56212W        W21373   0.264  40.263   0.091
56213W        W21374  26.746  16.752  11.997
56214W        W21375  11.270  33.069   0.701
56215W        W21376  17.954  34.789  14.806
56216W        W21377   2.702  25.126  11.888
56217W        W21378  35.631   3.907   2.402
56218W        W21379  14.671  19.890  10.940
56219W        W21380  40.338  42.365   4.347
56220W        W21381  43.876   0.642   2.213
56221W        W21382   8.701  22.605   2.861
56222W        W21383   6.899  11.239   4.520
56223W        W21384  34.927  27.376   1.848
56224W        W21385  29.033  31.126   0.288
56225W        W21386  21.031   2.266   3.058
56226W        W21387  36.326  30.608  14.436
56227W        W21388  39.327  41.352   3.271
56228W        W21389   0.052  44.842  14.344
56229W        W21390   0.772  39.875  10.161
56230W        W21391  23.268  21.588   3.269
56231W        W21392  13.105   3.074   2.293
56232W        W21393  29.356  33.583   4.517
56233W        W21394  30.489   4.620  12.090
56234W        W21395  33.091   6.353  14.693
56235W        W21396   6.724  19.131  13.802
56236W        W21397  36.029  36.193  12.637
56237W        W21398  28.027   1.461   3.482
56238W        W21399  37.670  25.787  13.490
56239W        W21400  23.675   8.270  14.194
56240W        W21401  12.627  14.617   3.649
56241W        W21402   7.438  18.487   2.398
56242W        W21403  25.577  31.354  14.987
56243W        W21404  12.666  44.656  14.005
56244W        W21405  27.414  40.512   4.452
56245W        W21406   8.081  40.246  12.667
56246W        W21407  26.348  18.822  12.640
56247W        W21408  27.242  14.327  11.973
56248W        W21409   1.832  36.668  11.160
56249W        W21410  41.419  24.507  14.038
56250W        W21411  41.827   4.851  12.986
56251W        W21412  31.370  35.959   0.438
56252W        W21413  22.664  36.347  12.189
56253W        W21414  30.832  33.124   3.871
56254W        W21415   5.662  17.325   3.656
56255W        W21416  16.468  30.651   3.535
56256W        W21417  34.978  32.771   0.362
56257W        W21418   4.366  32.927  12.929
56258W        W21419   8.112  14.738  13.773
56259W        W21420  42.354  18.588   4.742
56260W        W21421  28.455   1.850  11.976
56261W        W21422  10.917  13.875  12.034
56262W        W21423  18.057  44.830  12.801
56263W        W21424   4.709   1.786  12.265
56264W        W21425  38.042  36.445   2.763
56265W        W21426  22.318  20.614   5.418
56266W        W21427  29.922  18.648   3.535
56267W        W21428  25.192   7.286  11.016
56268W        W21429   2.535  14.228   1.788
56269W        W21430  33.331  27.987  13.888
56270W        W21431   5.225  27.149  14.773
56271W        W21432   6.571  37.356   1.910
56272W        W21433   7.169  23.285   4.943
56273W        W21434   1.158  29.143   3.518
56274W        W21435   4.881  22.163  12.588
56275W        W21436  44.211  15.271   3.690
56276W        W21437  18.171  31.575  14.111
56277W        W21438  42.749  43.596  13.869
56278W        W21439  31.366   7.625   1.858
56279W        W21440  20.824  22.430   2.309
56280W        W21441  20.467   0.323   0.713
56281W        W21442  20.888  12.575   1.286
56282W        W21443  38.806  18.710   0.837
56283W        W21444   9.831  18.051  10.452
56284W        W21445  27.904   3.398   1.377
56285W        W21446   2.542   7.211  11.748
56286W        W21447  38.796  42.902  13.840
56287W        W21448   1.251  13.590   2.140
56288W        W21449  20.827  12.947   4.678
56289W        W21450  34.297   8.551   1.057
56290W        W21451   3.307  35.542   1.722
56291W        W21452  33.591   1.845   1.786
56292W        W21453  23.099   6.449  14.576
56293W        W21454  17.965  13.387  12.547
56294W        W21455  27.026  26.241  11.191
56295W        W21456   5.564  27.544  11.611
56296W        W21457  13.015  27.006   1.860
56297W        W21458   2.946   3.938   3.233
56298W        W21459  27.181  28.384  10.767
56299W        W21460  26.283  38.797  13.438
56300W        W21461  11.087  25.069  10.474
56301W        W21462  18.254  13.236   4.243
56302W        W21463   0.029   8.387  10.743
56303W        W21464  39.021   6.738   1.783
56304W        W21465  10.765  38.924   0.962
56305W        W21466  32.988   5.311   4.307
56306W        W21467  19.342  11.332  14.213
56307W        W21468  11.940   6.325   4.557
56308W        W21469  21.489  17.587   4.177
56309W        W21470   8.176  29.211  12.748
56310W        W21471  26.297  24.577  10.282
56311W        W21472  17.527  36.369  13.009
56312W        W21473  12.160  29.496  12.094
56313W        W21474  16.589   3.798  11.459
56314W        W21475  22.966  38.815   4.705
56315W        W21476   4.066   9.836   3.205
56316W        W21477   3.499  14.660  13.895
56317W        W21478  36.958  16.734   2.261
56318W        W21479  26.557  21.016   5.154
56319W        W21480  11.798  34.943  10.695
56320W        W21481  29.419   7.693   1.706
56321W        W21482   8.772   7.094   4.569
56322W        W21483  37.149  36.572  11.172
56323W        W21484  25.649  40.558   4.101
56324W        W21485   5.932   1.525   0.737
56325W        W21486  34.897   9.364   2.241
56326W        W21487   9.113  17.152  11.691
56327W        W21488  12.045   5.943  11.118
56328W        W21489  22.792  28.637  11.630
56329W        W21490  22.048  15.468   3.402
56330W        W21491  39.812  32.924  13.860
56331W        W21492  38.619  41.409  13.047
56332W        W21493  29.231   8.767  11.027
56333W        W21494  20.027  39.733   0.337
56334W        W21495   2.259  10.129   4.680
56335W        W21496   1.218  33.973  14.803
56336W        W21497  13.618   0.077   0.989
56337W        W21498  18.458  27.551   4.228
56338W        W21499  29.489  38.545   3.609
56339W        W21500  39.945  29.977   4.531
56340W        W21501  43.976  12.985  11.598
56341W        W21502   4.264  34.292  10.751
56342W        W21503  35.628  33.130  11.952
56343W        W21504  20.147   0.988  14.800
56344W        W21505  42.853  37.887  14.033
56345W        W21506  11.036   2.772   3.705
56346W        W21507  33.476  13.232   3.676
56347W        W21508  44.190  17.007   0.436
56348W        W21509  22.151  10.062  11.218
56349W        W21510  37.061   9.127   3.426
56350W        W21511  42.596   3.862   2.634
56351W        W21512  21.065  23.802   3.112
56352W        W21513  23.968  30.639  11.670
56353W        W21514  29.105  23.758   2.186
56354W        W21515  15.300  27.667   2.169
56355W        W21516  22.177  40.854  11.595
56356W        W21517  38.802   7.413  14.283
56357W        W21518  17.654   0.107   0.208
56358W        W21519  24.539  35.940   0.464
56359W        W21520  34.843  36.062   2.415
56360W        W21521  11.979  11.137  11.983
56361W        W21522  35.273   0.306  10.375
56362W        W21523  40.605   0.259  11.078
56363W        W21524   9.430  35.370  12.924
56364W        W21525  44.641   0.560   1.776
56365W        W21526  22.162   8.119  11.160
56366W        W21527   5.216  23.005  12.384
56367W        W21528   6.999  22.030  11.289
56368W        W21529   2.077  32.143  11.083
56369W        W21530  41.792   9.133   0.054
56370W        W21531  32.981  42.734  13.884
56371W        W21532  29.096  37.490   0.016
56372W        W21533  25.380   6.356   0.054
56373W        W21534   3.409   6.847   1.889
56374W        W21535  28.526  38.054   2.100
56375W        W21536  19.562   8.455  13.071
56376W        W21537  19.291   0.030   4.099
56377W        W21538  34.111   5.471   2.842
56378W        W21539  17.283   0.714  13.005
56379W        W21540   8.700   4.234   4.605
56380W        W21541  12.318  31.980   3.157
56381W        W21542   2.327  21.927  10.639
56382W        W21543   2.803  17.184   0.327
56383W        W21544  30.089  17.587  11.026
56384W        W21545  44.850   8.142  12.012
56385W        W21546   9.834   6.459   4.747
56386W        W21547  23.174  39.274   1.245
56387W        W21548  20.156  36.081  14.516
56388W        W21549  26.741  34.585  10.887
56389W        W21550  13.302  39.741   2.834
56390W        W21551  26.256  40.446   2.721
56391W        W21552  28.782  18.754   0.114
56392W        W21553  23.160  42.981   0.601
56393W        W21554  31.827  42.330   2.261
56394W        W21555  44.058  10.601   3.772
56395W        W21556  14.125  17.224  13.471
56396W        W21557  19.645   2.593   2.759
56397W        W21558  11.844  19.456  14.288
56398W        W21559  42.883  11.579   0.034
56399W        W21560   4.028  24.576   2.897
56400W        W21561  26.558   7.269   1.627
56401W        W21562   6.767  17.228   1.897
56402W        W21563  43.451  27.655  14.018
56403W        W21564  31.219   7.195   4.677
56404W        W21565  16.108   1.403  12.082
56405W        W21566  42.386  28.894  12.169
56406W        W21567   7.897   4.724   0.696
56407W        W21568  16.902  15.027  10.636
56408W        W21569  40.728  19.757  12.779
56409W        W21570   1.891  27.494   0.441
56410W        W21571  22.781   7.245   1.808
56411W        W21572  20.984  31.531   3.762
56412W        W21573  40.342  34.107  14.774
56413W        W21574  21.980  37.526   4.840
56414W        W21575  21.232  25.102  13.858
56415W        W21576   1.254   2.338   4.338
56416W        W21577  22.736  13.950  11.001
56417W        W21578  16.214   1.787   3.339
56418W        W21579   4.464  43.151   4.177
56419W        W21580  29.607   8.166  10.778
56420W        W21581   1.746   6.689   2.183
56421W        W21582   5.931  32.056  13.320
56422W        W21583  22.207  38.987  10.150
56423W        W21584  11.279   4.411   1.159
56424W        W21585   6.946   3.833   0.820
56425W        W21586  22.555  16.156   4.069
56426W        W21587  35.015  24.904   0.285
56427W        W21588  39.473  32.108  10.964
56428W        W21589   1.751  25.659  12.323
56429W        W21590  41.490  28.836   1.649
56430W        W21591   7.881  10.637   0.446
56431W        W21592  11.596  14.766  13.002
56432W        W21593  23.171  12.191   0.999
56433W        W21594   6.428  18.718   1.262
56434W        W21595  14.168  23.811   1.211
56435W        W21596  30.646  19.083   3.615
56436W        W21597  41.253  16.271   4.185
56437W        W21598  12.874   6.642  10.630
56438W        W21599  34.571  22.040   4.209
56439W        W21600  21.200  27.373   1.286
56440W        W21601  34.379  28.964   1.217
56441W        W21602   5.773  31.603   5.012
56442W        W21603  36.259  11.739   4.782
56443W        W21604  41.438  33.247  10.706
56444W        W21605  16.200   0.778   0.981
56445W        W21606  29.701  30.960   0.920
56446W        W21607   2.756  29.054   1.230
56447W        W21608  10.103   6.438   1.907
56448W        W21609  14.387  25.570  12.827
56449W        W21610  27.482  42.543  11.552
56450W        W21611  27.399   5.812  14.282
56451W        W21612  26.589  14.607  13.560
56452W        W21613  37.987  29.966  12.954
56453W        W21614  30.390  13.413   1.845
56454W        W21615   7.307  29.691  12.829
56455W        W21616  20.606  11.086  11.614
56456W        W21617  12.280   7.654  12.441
56457W        W21618  35.647  29.001  10.447
56458W        W21619  23.725   7.020   1.732
56459W        W21620  26.972   1.404   2.849
56460W        W21621  37.072  41.597   4.449
56461W        W21622  17.326  30.546  12.118
56462W        W21623   8.251   0.721  11.538
56463W        W21624   1.436  24.914  12.578
56464W        W21625  17.265  24.582  13.584
56465W        W21626  16.515   1.735   0.101
56466W        W21627  38.388   4.181  12.843
56467W        W21628   3.956  35.027   3.607
56468W        W21629   0.203  42.765   0.461
56469W        W21630  17.569  37.071   4.166
56470W        W21631  34.460  32.497   4.201
56471W        W21632   7.564  21.299   2.330
56472W        W21633  41.120  37.416   1.301
56473W        W21634  17.572  22.403   4.897
56474W        W21635   0.797   0.430  11.654
56475W        W21636  31.582   9.459  14.582
56476W        W21637   8.338  35.356   2.333
56477W        W21638  25.501  41.439   2.294
56478W        W21639  37.256  29.888   1.294
56479W        W21640  39.038   7.235  11.270
56480W        W21641   3.155  20.352  14.262
56481W        W21642  25.203  23.173   3.186
56482W        W21643   3.448  37.642  14.214
56483W        W21644   9.275  30.285   2.715
56484W        W21645  31.875  21.126  12.057
56485W        W21646  39.330  20.187  12.612
56486W        W21647  14.635   3.991  13.966
56487W        W21648  44.023   1.788   2.583
56488W        W21649   2.933  21.779  11.476
56489W        W21650  10.143   5.756  10.607
56490W        W21651  21.053   5.302  12.714
56491W        W21652  10.310  19.290   2.769
56492W        W21653  14.094  41.790   1.852
56493W        W21654  42.380  27.409   2.725
56494W        W21655   9.086  25.528   4.086
56495W        W21656  36.976   8.825  10.782
56496W        W21657  42.138  21.310  13.012
56497W        W21658  30.815   3.871  11.653
56498W        W21659  34.389   6.668  14.365
56499W        W21660  12.850  30.196   0.008
56500W        W21661  34.227  31.900   3.738
56501W        W21662  12.744  33.458  10.579
56502W        W21663  16.484  42.759   0.331
56503W        W21664  28.638   3.746  13.834
56504W        W21665  15.914  28.290   4.247
56505W        W21666  12.979  32.405  14.354
56506W        W21667  38.991  37.888  13.909
56507W        W21668  20.526  28.160  11.587
56508W        W21669   4.808  22.046   4.180
56509W        W21670  43.308  12.279   1.753
56510W        W21671  24.305   2.925  11.098
56511W        W21672  22.668  14.050  14.909
56512W        W21673  14.760  20.596   4.105
56513W        W21674   7.857  42.342  10.708
56514W        W21675  43.868  14.626   0.435
56515W        W21676  10.270  13.804  10.652
56516W        W21677  21.681  35.462   0.798
56517W        W21678  33.403  37.797  12.417
56518W        W21679  32.145  25.180   0.382
56519W        W21680  11.526  17.052   1.027
56520W        W21681  40.415  28.263  11.263
56521W        W21682   8.686  41.564  14.916
56522W        W21683  24.449  41.470  12.536
56523W        W21684   3.314  19.839  11.145
56524W        W21685  12.325  29.260  11.683
56525W        W21686  28.866  39.595   2.879
56526W        W21687  15.696  42.828   3.520
56527W        W21688  42.026  31.514  10.891
56528W        W21689  43.331  34.941   2.209
56529W        W21690   4.749  11.586  11.571
56530W        W21691   8.669  11.666   3.726
56531W        W21692  31.456  16.316  11.291
56532W        W21693  18.904  38.234  11.118
56533W        W21694  42.244  11.614  11.201
56534W        W21695   0.192   0.641  11.090
56535W        W21696  20.713  43.526   2.003
56536W        W21697   1.673  11.356   0.676
56537W        W21698  20.061  29.169   3.753
56538W        W21699   5.653   7.189   4.667
56539W        W21700  28.185   0.182  14.904
56540W        W21701  40.771  25.183   3.300
56541W        W21702  41.443  39.771   2.331
56542W        W21703  20.648  11.602  11.644
56543W        W21704  33.342  22.678   0.681
56544W        W21705  37.215  17.976  12.891
56545W        W21706  16.705   2.512   3.412
56546W        W21707  10.200  40.957   3.760
56547W        W21708  33.755  17.332   2.325
56548W        W21709  15.575  18.719  13.922
56549W        W21710  37.917  20.027  13.393
56550W        W21711  32.804  34.602  10.943
56551W        W21712  34.469  12.238  12.472
56552W        W21713  16.724   8.473  11.219
56553W        W21714  34.485  37.944  11.549
56554W        W21715  33.641  14.638   1.712
56555W        W21716  13.045  26.416  14.808
56556W        W21717   5.421   7.244   2.966
56557W        W21718  21.585  42.359  13.010
56558W        W21719  18.235   2.296   3.776
56559W        W21720   2.162  10.707   4.688
56560W        W21721  14.211   9.410   2.473
56561W        W21722   7.779  21.031  10.856
56562W        W21723  16.326  37.596  13.617
56563W        W21724   0.627  13.149   0.816
56564W        W21725   7.180  31.716  14.522
56565W        W21726   6.158  34.469   2.211
56566W        W21727  13.273  25.438   4.038
56567W        W21728  27.080  20.581  13.563
56568W        W21729  24.782   0.191   4.125
56569W        W21730   6.744  23.234  14.469
56570W        W21731   6.798  23.272   3.222
56571W        W21732  33.508  39.560  13.097
56572W        W21733  43.305  41.117  12.578
56573W        W21734  32.873  44.129  10.141
56574W        W21735  28.669  30.305  14.893
56575W        W21736  36.158  38.885  11.136
56576W        W21737  15.896  35.360   0.822
56577W        W21738  19.040  17.842   1.810
56578W        W21739  32.977  37.077  13.663
56579W        W21740   0.435  36.130  14.330
56580W        W21741  17.750  10.331  13.938
56581W        W21742   5.442  27.558  12.581
56582W        W21743  24.069  41.799  13.977
56583W        W21744  43.880  12.180  13.528
56584W        W21745   5.943  34.119   0.957
56585W        W21746  27.932  19.263  11.999
56586W        W21747  17.130  28.583   2.889
56587W        W21748  29.072  16.646  12.053
56588W        W21749  33.995  22.616  14.040
56589W        W21750  15.076  22.135  13.358
56590W        W21751  10.317   5.696  11.103
56591W        W21752   7.875  23.640  12.996
56592W        W21753  34.977  10.939  12.623
56593W        W21754   6.770   5.067  12.006
56594W        W21755   4.976  36.105   3.629
56595W        W21756   6.497  34.876   0.026
56596W        W21757  10.115  31.534  12.591
56597W        W21758  39.459  42.075   0.086
56598W        W21759  19.960   8.816   0.429
56599W        W21760  24.501  13.757  11.629
56600W        W21761  23.190  20.246   1.112
56601W        W21762  25.521  18.686   4.146
56602W        W21763  11.636  13.249   4.848
56603W        W21764  14.174   9.263   1.829
56604W        W21765   7.152  23.835  12.093
56605W        W21766  33.453  27.928  10.759
56606W        W21767  38.570   9.777   2.766
56607W        W21768  33.962  31.554  11.060
56608W        W21769  15.413  22.932   2.792
56609W        W21770  24.645  37.978  13.311
56610W        W21771  17.752  14.229   0.428
56611W        W21772  21.251  39.063  13.588
56612W        W21773  27.062  44.216   1.482
56613W        W21774  39.847  38.988   9.772
56614W        W21775   4.708  32.106   0.903
56615W        W21776  35.952  29.450  10.890
56616W        W21777  28.003   8.678   4.809
56617W        W21778  25.556  42.493  13.382
56618W        W21779  18.361  12.907   0.337
56619W        W21780  16.793  34.087  13.587
56620W        W21781  19.321  33.429   4.539
56621W        W21782  35.860  25.062   4.394
56622W        W21783  32.152   3.665   4.584
56623W        W21784  34.944   6.808   1.798
56624W        W21785  39.503  44.991   3.708
56625W        W21786  28.672  27.638   3.170
56626W        W21787  23.652  36.626  13.842
56627W        W21788  14.326  28.742  12.538
56628W        W21789  40.849  31.028  12.095
56629W        W21790  42.767   7.307  12.908
56630W        W21791  34.790  39.802  12.014
56631W        W21792  24.224  35.533  14.511
56632W        W21793  17.041  25.699   0.718
56633W        W21794  37.575   5.210   1.926
56634W        W21795   2.817  33.983  10.378
56635W        W21796   7.173  36.549   4.668
56636W        W21797  29.731  13.182   0.869
56637W        W21798   9.332  17.181  10.727
56638W        W21799  36.011  43.387  14.265
56639W        W21800   4.990  19.623  13.838
56640W        W21801  25.998  18.021  12.925
56641W        W21802  44.967  27.941  11.486
56642W        W21803  18.236  25.536   1.992
56643W        W21804  31.451  37.620   3.622
56644W        W21805  39.809   1.958  12.698
56645W        W21806  24.687  35.271  12.883
56646W        W21807   1.413  33.852  11.155
56647W        W21808  26.054  19.748  13.641
56648W        W21809  10.258  22.342  12.856
56649W        W21810  35.619  15.175   1.201
56650W        W21811  33.686  17.756   0.271
56651W        W21812  11.883  34.197  14.447
56652W        W21813   9.931   4.174  13.949
56653W        W21814  40.856   8.153   2.847
56654W        W21815  35.818   3.848   1.110
56655W        W21816  16.503  44.443  12.558
56656W        W21817  33.089   3.383  13.434
56657W        W21818   9.885  36.430  10.643
56658W        W21819  17.985  14.531  10.235
56659W        W21820   8.837  34.373  13.919
56660W        W21821  18.505   1.797   3.825
56661W        W21822   6.616  22.663   3.803
56662W        W21823  34.528  37.513   1.028
56663W        W21824  18.527  28.855  14.465
56664W        W21825  17.474  15.711   3.300
56665W        W21826   5.825  42.582  13.376
56666W        W21827  36.935  11.102  12.206
56667W        W21828  16.328  42.563  13.350
56668W        W21829  13.133   5.306  10.638
56669W        W21830  37.768  31.474   3.308
56670W        W21831  31.928  12.458   4.236
56671W        W21832  13.268  18.629  10.864
56672W        W21833  41.549   9.199  14.099
56673W        W21834  23.276  13.354   0.744
56674W        W21835   4.159   8.098  11.994
56675W        W21836  20.616  11.612   0.433
56676W        W21837   5.281  39.996   1.126
56677W        W21838   7.448  36.258  14.412
56678W        W21839   6.011  28.992   0.758
56679W        W21840  12.066  27.397   4.195
56680W        W21841  35.784  20.275  13.111
56681W        W21842  13.216  43.087   1.404
56682W        W21843   7.620  17.232   1.796
56683W        W21844  42.410  16.139   3.395
56684W        W21845  36.860  24.165  12.331
56685W        W21846  13.879   4.226   3.072
56686W        W21847  30.710  35.118  11.231
56687W        W21848  27.424   3.383  14.585
56688W        W21849  24.366  29.154  10.982
56689W        W21850  31.715  26.203   0.782
56690W        W21851  24.089  24.163   4.601
56691W        W21852   2.404  23.067   2.487
56692W        W21853  36.280   4.415   4.158
56693W        W21854  15.202  11.436   4.293
56694W        W21855   6.849  41.451  14.758
56695W        W21856   6.020  24.995  11.521
56696W        W21857  16.103  35.826  11.887
56697W        W21858  35.092  34.072   4.549
56698W        W21859  20.137  29.163   0.043
56699W        W21860  17.282   0.033   2.379
56700W        W21861  34.187  11.397  12.333
56701W        W21862  31.241   1.364   3.681
56702W        W21863  43.904  24.989   3.392
56703W        W21864  25.450  31.184   4.317
56704W        W21865   9.940  23.308  10.869
56705W        W21866  43.499  17.056  14.823
56706W        W21867   8.349   8.104   4.162
56707W        W21868  11.651   4.997  10.115
56708W        W21869   9.760  32.400   4.639
56709W        W21870  20.825   1.083   3.138
56710W        W21871  22.012  24.581   1.797
56711W        W21872   9.803  13.565  10.726
56712W        W21873  11.367   4.136   3.157
56713W        W21874  31.575   6.073  12.668
56714W        W21875  27.872  36.589  10.704
56715W        W21876  33.137  33.319  14.621
56716W        W21877  24.067  16.618  11.623
56717W        W21878   9.722  11.258  12.368
56718W        W21879  39.224   0.046  14.923
56719W        W21880   2.947  35.949   1.820
56720W        W21881  27.664  19.993  11.204
56721W        W21882  27.576   0.074  10.634
56722W        W21883  17.096  26.236  11.523
56723W        W21884  33.827   5.242   0.385
56724W        W21885  36.275  13.240  10.626
56725W        W21886  15.888   0.150   2.238
56726W        W21887   6.159  29.439  12.554
56727W        W21888  24.802  21.608  10.002
56728W        W21889  37.350   1.411  12.074
56729W        W21890  43.370  33.664  11.508
56730W        W21891   3.036   9.854  12.594
56731W        W21892  19.701  32.363  13.420
56732W        W21893  19.097  41.550   0.798
56733W        W21894   5.161  40.451  11.773
56734W        W21895  42.721   4.388   3.186
56735W        W21896  37.448  10.531   1.856
56736W        W21897  15.597  44.004   3.601
56737W        W21898  40.876   9.793   2.052
56738W        W21899   9.480  29.117   3.680
56739W        W21900  20.556  42.999  11.455
56740W        W21901  13.834  22.941   2.413
56741W        W21902  19.792  30.444   4.306
56742W        W21903  22.565  11.556  13.662
56743W        W21904  22.864   8.908   0.256
56744W        W21905  34.355   2.562   2.439
56745W        W21906   8.000   6.833  14.713
56746W        W21907  34.828   6.042  14.832
56747W        W21908  31.361  34.132  11.838
56748W        W21909  32.779  14.405   3.987
56749W        W21910   9.796  16.623  13.140
56750W        W21911  11.806   8.866   0.250
56751W        W21912  20.299  24.460  14.770
56752W        W21913  32.937   1.628   0.221
56753W        W21914  34.383  17.223   3.606
56754W        W21915   0.799  36.480  12.570
56755W        W21916  33.975   2.062   4.567
56756W        W21917  25.748  19.946  10.239
56757W        W21918  14.330  12.334   2.671
56758W        W21919  40.311   7.774   0.290
56759W        W21920   7.699  23.132  12.992
56760W        W21921   7.799  32.277  14.945
56761W        W21922  44.846  22.346   2.452
56762W        W21923  15.580  44.434   4.573
56763W        W21924  35.996  31.830   3.602
56764W        W21925  29.830   6.470  14.715
56765W        W21926  41.937  42.695  12.545
56766W        W21927  40.379  41.507   1.794
56767W        W21928  41.891  30.411  14.141
56768W        W21929   2.760   9.719  14.887
56769W        W21930   6.156  13.322   3.896
56770W        W21931  15.961   8.775   4.459
56771W        W21932  40.925  40.579  13.599
56772W        W21933  22.582  44.445   0.933
56773W        W21934  14.981  13.794   2.207
56774W        W21935  44.903  38.501   3.670
56775W        W21936  16.801  25.164   1.925
56776W        W21937  38.285  10.127  11.590
56777W        W21938   7.349  19.461   1.292
56778W        W21939  14.693  40.898  12.505
56779W        W21940  39.519  20.466   1.372
56780W        W21941  40.231  11.628   0.905
56781W        W21942  33.777   1.809  12.076
56782W        W21943  25.737  34.107  13.768
56783W        W21944  36.164  10.231   0.013
56784W        W21945  32.164   0.507   0.275
56785W        W21946   2.336  33.092  13.857
56786W        W21947  35.345  23.794  13.850
56787W        W21948   8.596  12.294   0.196
56788W        W21949  37.881  31.135   1.682
56789W        W21950  25.446  30.896  13.315
56790W        W21951   2.872  38.308   3.817
56791W        W21952  22.525  35.844  13.409
56792W        W21953  23.645  19.943  14.465
56793W        W21954   1.349  21.211   1.906
56794W        W21955   9.187   1.071  14.403
56795W        W21956  36.576  35.051  14.120
56796W        W21957   1.606  25.659  10.167
56797W        W21958  35.111  13.524   0.085
56798W        W21959   1.652  24.079   1.853
56799W        W21960  16.164  36.908  13.817
56800W        W21961   9.787   8.783   4.404
56801W        W21962  11.615  10.569   4.770
56802W        W21963  12.547  11.193  12.882
56803W        W21964   4.272   1.981   3.294
56804W        W21965  40.333  22.440   4.107
56805W        W21966   0.904  39.612   9.704
56806W        W21967  14.095  12.869  12.023
56807W        W21968  17.990  23.735   3.398
56808W        W21969  10.554  26.038   0.255
56809W        W21970  19.291  37.376   4.866
56810W        W21971  15.502  36.584   3.808
56811W        W21972   0.257  33.361   9.747
56812W        W21973   2.747  19.381   2.263
56813W        W21974   9.827  26.404   2.224
56814W        W21975  30.487  25.508   1.923
56815W        W21976  36.035  21.581   2.720
56816W        W21977  28.288  40.555  13.346
56817W        W21978  25.308   8.613   3.636
56818W        W21979  17.691  21.354   5.290
56819W        W21980   2.941  23.409  12.246
56820W        W21981  27.675  26.243   2.824
56821W        W21982  19.734   8.114   1.951
56822W        W21983  19.496  25.019   1.795
56823W        W21984  42.926  27.621  12.843
56824W        W21985  40.300  23.845   2.628
56825W        W21986  43.572  17.299   3.232
56826W        W21987   8.865  36.971  13.935
56827W        W21988  10.642   2.485   3.583
56828W        W21989   1.782  16.714  13.522
56829W        W21990  36.534  36.934   4.045
56830W        W21991  20.485  28.024   0.474
56831W        W21992  42.930   5.213   2.826
56832W        W21993   4.649  30.891   2.728
56833W        W21994  13.736  28.867  14.767
56834W        W21995  19.169  30.625   4.692
56835W        W21996  34.522  25.751  10.668
56836W        W21997  36.596  38.550   2.856
56837W        W21998   6.823  12.966   1.668
56838W        W21999  38.360  19.201   2.648
56839W        W22000  30.853  26.183  12.539
56840W        W22001  40.918  17.740   4.570
56841W        W22002   3.795   0.549  11.756
56842W        W22003   1.558  32.000   5.020
56843W        W22004  28.075  17.426  12.097
56844W        W22005  10.797  31.197  13.137
56845W        W22006  41.641  30.213   3.207
56846W        W22007   8.757   8.258  10.685
56847W        W22008   2.390  36.515   4.722
56848W        W22009  42.025   0.478  14.285
56849W        W22010  22.061  35.077   1.487
56850W        W22011  27.952   1.908  11.970
56851W        W22012  15.309  22.572   1.458
56852W        W22013  25.996   8.177  12.401
56853W        W22014  24.084  14.325  12.072
56854W        W22015  14.112  26.695   0.640
56855W        W22016  37.666  40.525  10.427
56856W        W22017  16.083   5.854   0.521
56857W        W22018  11.820  30.435   4.625
56858W        W22019   6.368  30.782  10.389
56859W        W22020  25.142  16.493   1.968
56860W        W22021  44.891  16.042   3.626
56861W        W22022  27.196  11.909   3.105
56862W        W22023  44.113  10.200   0.332
56863W        W22024   6.673   8.431  11.529
56864W        W22025   2.383  25.321  10.607
56865W        W22026  34.606  31.505   1.766
56866W        W22027  18.028  12.381  13.320
56867W        W22028  29.788  10.939  10.006
56868W        W22029  11.636  28.095   2.346
56869W        W22030  39.116  27.103  11.674
56870W        W22031  13.113  31.199  13.412
56871W        W22032  24.043  17.266  13.800
56872W        W22033  16.587  35.991  13.539
56873W        W22034  25.416   8.271   0.904
56874W        W22035  11.821  25.656   0.541
56875W        W22036  38.992   4.217   0.035
56876W        W22037  43.344  19.561   2.589
56877W        W22038  14.332  38.833   3.376
56878W        W22039  32.572  29.613  14.778
56879W        W22040   7.205  39.895  14.867
56880W        W22041  33.265  27.629   0.404
56881W        W22042  13.258  13.773   2.692
56882W        W22043   8.997  22.987   3.324
56883W        W22044   3.460  35.316  14.851
56884W        W22045  35.494  39.142   3.639
56885W        W22046  29.519  28.262  11.573
56886W        W22047  24.913   9.187   3.358
56887W        W22048  12.699  37.738   1.353
56888W        W22049  13.741  35.316  11.990
56889W        W22050  39.855  33.828  14.761
56890W        W22051   3.887   7.743  12.852
56891W        W22052  28.402  36.872  12.006
56892W        W22053  22.682  30.887  12.490
56893W        W22054  33.860   1.734   0.915
56894W        W22055  14.829  11.015   1.479
56895W        W22056  14.486  35.938  14.786
56896W        W22057  34.637  42.513   0.822
56897W        W22058   4.766   3.364  11.131
56898W        W22059   3.817   9.417   1.115
56899W        W22060  37.537  26.413  14.645
56900W        W22061  17.096  18.936  11.121
56901W        W22062  24.878  36.362   0.404
56902W        W22063  19.074  43.883   1.950
56903W        W22064  26.648   6.918   1.002
56904W        W22065  10.346  24.707   4.562
56905W        W22066  15.375  20.788   0.976
56906W        W22067  21.903  21.658   2.919
56907W        W22068   2.241   7.014   3.496
56908W        W22069  42.725  20.552  14.416
56909W        W22070  40.329  19.945  12.475
56910W        W22071   5.036  36.156  12.626
56911W        W22072  16.788  32.391  12.145
56912W        W22073   1.348  19.575   0.397
56913W        W22074  11.758  14.593   3.237
56914W        W22075  16.715  26.741  12.285
56915W        W22076  22.417  39.069  11.566
56916W        W22077   5.152  39.261   3.319
56917W        W22078  18.141  17.693   2.172
56918W        W22079  13.400  21.888   0.355
56919W        W22080  28.076  30.733  13.447
56920W        W22081  33.106  36.476  11.262
56921W        W22082  33.422  19.580   0.558
56922W        W22083  11.871  32.963   1.903
56923W        W22084  31.836  41.585  11.349
56924W        W22085  23.658  31.917   3.373
56925W        W22086  13.885  34.038  13.780
56926W        W22087  32.487  29.144  12.964
56927W        W22088  29.925  19.709  14.977
56928W        W22089   5.875  21.512  11.963
56929W        W22090  34.756   1.247   0.965
56930W        W22091  34.172   2.817  14.280
56931W        W22092  21.321  39.871   3.660
56932W        W22093  24.906  41.363   0.682
56933W        W22094  17.787  37.531   0.831
56934W        W22095   4.683  26.735  14.235
56935W        W22096  21.532  21.075  14.252
56936W        W22097  39.825  36.807  11.314
56937W        W22098  37.350  34.646   2.956
56938W        W22099  40.035   6.383  12.525
56939W        W22100   8.053  30.965   1.822
56940W        W22101  30.400   4.906  14.536
56941W        W22102   5.909  31.898  12.485
56942W        W22103   4.043  20.510   1.405
56943W        W22104  20.729  24.652  14.510
56944W        W22105  17.312  37.876   0.216
56945W        W22106  34.894  35.055   3.200
56946W        W22107  39.463  43.894  11.556
56947W        W22108  14.959  32.894  10.743
56948W        W22109  41.995  19.726   1.617
56949W        W22110  18.280  36.321  12.503
56950W        W22111  16.879  22.600   2.809
56951W        W22112   3.897  13.674  14.868
56952W        W22113  23.184  44.238  13.127
56953W        W22114  44.614  33.301   2.229
56954W        W22115  39.819  33.306   0.759
56955W        W22116   1.555   0.010  12.946
56956W        W22117  30.108  38.585   5.647
56957W        W22118  27.846  36.186   5.400
56958W        W22119  20.300  14.631   0.768
56959W        W22120  41.279  44.026  13.578
56960W        W22121  31.925  29.016   0.795
56961W        W22122  24.143  25.183  14.924
56962W        W22123  34.561  11.839   1.967
56963W        W22124   3.905  36.739   1.454
56964W        W22125  15.421  29.516   3.711
56965W        W22126  19.782   5.129  11.555
56966W        W22127  12.940  21.239   1.388
56967W        W22128  24.650   4.439  11.104
56968W        W22129  16.013  43.409  13.079
56969W        W22130   6.821   3.662  13.530
56970W        W22131  21.271  33.999  13.094
56971W        W22132   6.151  12.554   2.750
56972W        W22133   5.979  20.679  11.463
56973W        W22134  33.215   2.554   0.380
56974W        W22135  15.317  39.801   0.387
56975W        W22136   1.876   3.448  13.515
56976W        W22137  27.221  33.217   2.726
56977W        W22138  30.061  32.415   2.227
56978W        W22139   9.367   0.965  13.015
56979W        W22140  28.226   9.343  13.130
56980W        W22141  27.713  20.078   1.009
56981W        W22142  15.621  13.206   2.363
56982W        W22143  17.774  11.327   1.496
56983W        W22144  44.991  21.021   3.196
56984W        W22145  39.592  28.090  14.446
56985W        W22146  31.677  24.655   4.983
56986W        W22147  24.977  13.880   0.330
56987W        W22148  29.454  30.042  13.710
56988W        W22149  28.118  43.118   3.587
56989W        W22150   8.895  31.374  14.551
56990W        W22151  30.592  19.469  13.494
56991W        W22152  28.685  40.949   3.019
56992W        W22153  39.856  10.334  14.441
56993W        W22154  12.298   9.404   2.886
56994W        W22155   0.733  15.267   1.508
56995W        W22156   4.287   0.375  11.621
56996W        W22157  14.859  32.504  14.805
56997W        W22158  23.099  14.664   2.362
56998W        W22159  16.843  11.146   0.554
56999W        W22160  31.863  37.905   2.227
57000W        W22161  37.206  33.686  14.854
57001W        W22162  42.022   9.115   2.436
57002W        W22163  31.086  22.939   0.278
57003W        W22164   5.259  41.659  10.321
57004W        W22165  12.736  43.451  11.994
57005W        W22166  35.493   4.934  14.575
57006W        W22167   1.958  25.749   1.304
57007W        W22168  11.164  28.632   4.336
57008W        W22169  10.464  25.791   3.778
57009W        W22170   2.422  22.483  13.407
57010W        W22171  31.663   0.895   2.465
57011W        W22172   2.297  40.734  11.938
57012W        W22173   3.350  29.970  14.563
57013W        W22174  44.886  26.484   1.948
57014W        W22175  30.610  29.238  10.643
57015W        W22176  12.338  14.682   2.211
57016W        W22177  42.235  21.063   0.652
57017W        W22178   2.867  16.600  10.193
57018W        W22179  44.820  16.317  10.859
57019W        W22180  23.700   5.433  11.487
57020W        W22181   5.706  32.137   4.635
57021W        W22182  10.360  11.298  10.074
57022W        W22183  41.582  34.391   2.663
57023W        W22184  14.515  26.373   0.643
57024W        W22185   2.165   5.531  10.333
57025W        W22186  15.722   4.834   3.202
57026W        W22187   9.810  27.310   0.331
57027W        W22188  21.599  15.946   4.030
57028W        W22189  34.892  41.441   3.730
57029W        W22190  28.085   1.789  12.870
57030W        W22191  29.990  14.239   4.865
57031W        W22192  13.783  14.383   2.894
57032W        W22193  24.436   4.508   1.176
57033W        W22194  40.513   5.916   4.385
57034W        W22195  41.075  18.105   3.218
57035W        W22196  22.099  13.723  12.121
57036W        W22197   6.101   9.226   4.837
57037W        W22198  25.917  15.580  14.854
57038W        W22199  35.013  38.709  14.922
57039W        W22200  10.657   1.695  10.272
57040W        W22201  44.532  24.124   0.767
57041W        W22202   2.822  32.620   2.745
57042W        W22203  32.893  39.968   1.863
57043W        W22204  11.748  19.507  13.343
57044W        W22205  43.518  18.699   4.212
57045W        W22206  38.111  22.003   1.640
57046W        W22207  31.514  44.444   0.876
57047W        W22208  30.145  39.956   0.821
57048W        W22209  10.852  27.325  11.155
57049W        W22210  24.800  17.127   1.243
57050W        W22211  28.754  18.194  13.331
57051W        W22212  33.837   4.984   2.829
57052W        W22213  23.311  38.800  14.502
57053W        W22214  20.601  11.875  12.090
57054W        W22215  29.094  37.862   1.875
57055W        W22216   9.219  22.957   2.416
57056W        W22217   2.853  27.455  13.327
57057W        W22218  39.055  27.661  14.638
57058W        W22219  33.697  27.462  10.602
57059W        W22220   5.156   8.719  13.931
57060W        W22221  18.050   0.483   2.373
57061W        W22222  27.602  39.306   0.954
57062W        W22223  12.766  33.125  13.965
57063W        W22224   3.419   6.762   3.797
57064W        W22225  21.059   0.945  13.945
57065W        W22226  14.536  39.527  10.732
57066W        W22227  39.453  29.878  14.282
57067W        W22228  15.870  15.223   0.265
57068W        W22229  22.026  11.932   4.221
57069W        W22230   4.809   0.772  14.260
57070W        W22231  28.557  23.262  11.334
57071W        W22232  35.340  27.244   1.561
57072W        W22233  23.468  17.196   1.445
57073W        W22234  27.943   1.182   3.050
57074W        W22235  35.176  31.589   3.724
57075W        W22236  22.709  20.247  13.557
57076W        W22237   3.193  15.704  12.088
57077W        W22238  31.091  10.340   2.501
57078W        W22239  13.239  15.588  12.405
57079W        W22240   1.692  14.667   1.806
57080W        W22241  15.310   6.264   2.640
57081W        W22242  14.836  41.504  11.175
57082W        W22243  39.514  30.505  13.419
57083W        W22244   5.044  18.775  13.360
57084W        W22245  15.561  20.252  10.668
57085W        W22246  26.458  43.979  13.275
57086W        W22247  25.899   9.765   2.303
57087W        W22248   0.281  43.474   0.804
57088W        W22249  34.497  24.929  12.977
57089W        W22250   8.602  21.192   3.697
57090W        W22251  27.396  29.156  13.865
57091W        W22252   3.687  44.512   2.262
57092W        W22253  37.611  44.156   2.648
57093W        W22254   0.490  27.468   2.832
57094W        W22255  34.117  19.365  14.994
57095W        W22256   3.390  40.211  14.014
57096W        W22257  44.943  40.524   2.452
57097W        W22258  31.044   8.888   1.331
57098W        W22259  29.135  32.360  13.817
57099W        W22260  31.140  37.591   3.187
57100W        W22261  23.219  38.278   4.755
57101W        W22262  15.343  10.207  11.955
57102W        W22263  25.082  35.782  13.044
57103W        W22264  35.263  33.155   2.666
57104W        W22265  26.101  31.200   2.742
57105W        W22266  16.080  10.422   1.258
57106W        W22267  10.229   8.710   2.457
57107W        W22268  41.797  15.782   4.551
57108W        W22269  11.552  17.964  12.485
57109W        W22270  26.957  38.497   2.676
57110W        W22271  37.363   7.072  13.898
57111W        W22272  22.744  23.661   1.269
57112W        W22273  24.720  28.748   1.399
57113W        W22274   7.749  30.889  14.206
57114W        W22275  31.307  32.180  14.348
57115W        W22276  34.886  10.065  13.036
57116W        W22277  25.661  10.166  11.915
57117W        W22278  16.694   3.985  14.941
57118W        W22279  11.484  35.434  13.268
57119W        W22280  42.459   6.733  11.689
57120W        W22281  27.844  39.937  12.184
57121W        W22282  28.666   1.863   4.361
57122W        W22283  28.324  29.674   9.998
57123W        W22284  12.722  29.978   2.698
57124W        W22285  44.684  34.499   1.504
57125W        W22286   5.254  27.155   1.230
57126W        W22287   3.140   0.955  11.547
57127W        W22288  28.233  10.948   2.892
57128W        W22289  29.984   8.665   0.849
57129W        W22290  15.878  39.248  14.283
57130W        W22291  17.518  39.389   2.444
57131W        W22292  31.531  21.196  11.207
57132W        W22293  31.886  33.183   1.864
57133W        W22294  19.235  21.785   4.330
57134W        W22295   6.006  32.579   4.908
57135W        W22296  16.238  19.765   0.048
57136W        W22297  22.541   4.252   0.986
57137W        W22298   2.192  44.310   4.644
57138W        W22299  31.546  26.137  14.415
57139W        W22300   1.303  34.922  12.959
57140W        W22301  20.017  36.066   4.611
57141W        W22302  43.817  25.591  14.261
57142W        W22303   8.977  42.092   0.277
57143W        W22304  17.358  38.891   4.175
57144W        W22305   7.759   2.869   3.596
57145W        W22306   5.084   9.619  11.549
57146W        W22307  23.160  15.053   4.798
57147W        W22308  10.700   9.716   4.222
57148W        W22309  18.844  27.979  12.489
57149W        W22310   0.009  28.447   4.613
57150W        W22311  19.213  16.913   2.827
57151W        W22312  39.281  21.263  13.387
57152W        W22313  41.781  36.606   4.580
57153W        W22314  11.674  41.499   1.866
57154W        W22315  29.062  39.066  12.889
57155W        W22316  12.287  18.501   2.287
57156W        W22317   1.540   6.477  12.601
57157W        W22318  22.496  31.535  11.074
57158W        W22319  32.046  39.633   1.857
57159W        W22320  26.447  41.036  11.557
57160W        W22321   4.244  21.704  11.146
57161W        W22322  16.588  34.518  12.027
57162W        W22323  32.502   8.254   1.405
57163W        W22324   0.374  44.011  12.858
57164W        W22325   7.671   6.903  12.375
57165W        W22326  24.553  25.088   1.804
57166W        W22327  13.197  36.657   1.690
57167W        W22328   2.541   3.274   0.935
57168W        W22329  32.167   6.963   4.411
57169W        W22330   5.880  13.309   2.069
57170W        W22331  33.377  15.564  14.536
57171W        W22332  26.140  33.810  12.404
57172W        W22333   8.803  39.069  12.451
57173W        W22334   2.821   9.567   3.179
57174W        W22335  43.700  37.881  11.615
57175W        W22336   2.059  21.764  14.808
57176W        W22337  14.783  24.031  14.443
57177W        W22338  23.631  15.064   1.740
57178W        W22339  28.090  21.380  13.425
57179W        W22340  38.933  35.502  12.160
57180W        W22341  42.367  32.993   4.724
57181W        W22342  22.240  28.975   4.457
57182W        W22343  28.136  29.528   0.321
57183W        W22344  13.153   8.577  13.633
57184W        W22345  15.316   0.280  13.990
57185W        W22346  25.938  41.226  12.500
57186W        W22347   1.975   6.189  12.803
57187W        W22348  27.423  33.774   0.817
57188W        W22349   5.448  17.814   3.887
57189W        W22350  31.947  11.940  14.066
57190W        W22351  40.826  40.450  10.729
57191W        W22352  36.664  26.639   5.093
57192W        W22353   7.815  21.671   3.735
57193W        W22354   5.918  12.086   1.914
57194W        W22355  34.565  11.291   4.554
57195W        W22356  14.353  32.431  13.561
57196W        W22357  24.754  42.877   3.260
57197W        W22358  17.828   4.198   4.847
57198W        W22359  33.043  34.531  13.285
57199W        W22360  37.965   1.306  11.355
57200W        W22361  10.017  34.657   3.912
57201W        W22362  28.558  27.630  13.103
57202W        W22363  30.213  24.678   4.593
57203W        W22364   1.259  25.973  13.520
57204W        W22365  39.310  25.955  12.440
57205W        W22366  15.359  44.133  11.995
57206W        W22367  37.068  44.428   2.597
57207W        W22368  14.033   6.259   3.688
57208W        W22369   1.223  18.054   0.354
57209W        W22370   6.519  43.530  12.429
57210W        W22371  15.126   7.675   0.794
57211W        W22372   8.908  27.749  13.393
57212W        W22373   4.147  29.472   4.232
57213W        W22374  27.968  15.313   5.077
57214W        W22375  33.058   7.134  13.015
57215W        W22376  29.454   6.258   4.965
57216W        W22377   9.788  24.573  14.551
57217W        W22378  43.016  18.078  14.056
57218W        W22379  44.844  18.993   3.940
57219W        W22380  17.688   8.576   1.410
57220W        W22381  14.390  17.092  11.672
57221W        W22382   8.964   8.417  11.329
57222W        W22383  10.320  24.254   0.758
57223W        W22384  42.612  37.371   3.103
57224W        W22385  24.618  42.028  10.984
57225W        W22386  15.296  24.672   4.413
57226W        W22387  32.103  44.894  11.260
57227W        W22388  14.707  23.243  10.417
57228W        W22389   4.755  32.175  12.846
57229W        W22390  43.960  12.716  14.438
57230W        W22391  16.670  36.865   4.577
57231W        W22392  33.451  32.981   3.366
57232W        W22393  33.104   3.715   0.956
57233W        W22394  24.759  31.779   4.755
57234W        W22395  38.084  33.053  14.876
57235W        W22396  14.113  17.642   3.303
57236W        W22397  30.951  43.511  11.218
57237W        W22398  41.941   3.330  11.143
57238W        W22399  30.136  20.377   0.549
57239W        W22400  15.637  33.921   0.934
57240W        W22401  40.828   7.342  11.613
57241W        W22402  27.892   9.432   2.259
57242W        W22403   2.249  21.214   2.166
57243W        W22404  11.872  15.537   1.922
57244W        W22405  44.883  35.113  12.026
57245W        W22406  43.432  13.184   0.172
57246W        W22407  23.703   8.589  12.926
57247W        W22408   9.670  28.487   1.863
57248W        W22409  42.791  29.004   4.044
57249W        W22410  23.870  29.030  11.028
57250W        W22411  27.884   2.406   0.395
57251W        W22412   6.643  35.413   0.044
57252W        W22413  14.685  19.295  12.354
57253W        W22414  12.193  19.922   3.321
57254W        W22415  38.090  12.639   3.079
57255W        W22416   2.894  16.687  14.032
57256W        W22417  33.387  12.667  10.751
57257W        W22418  32.612  41.343  14.349
57258W        W22419  33.702  22.978   3.648
57259W        W22420  10.928  16.755   4.543
57260W        W22421  35.521  22.026  10.705
57261W        W22422  19.639  19.624   4.821
57262W        W22423  41.856  42.263  14.572
57263W        W22424  16.017  39.014  13.839
57264W        W22425  21.268  17.338  14.890
57265W        W22426  10.122  13.098   4.706
57266W        W22427  39.103  19.467  10.877
57267W        W22428  22.203   3.982   2.718
57268W        W22429  40.227  31.636  11.574
57269W        W22430  11.443  42.875   3.648
57270W        W22431  22.706  43.803   4.727
57271W        W22432  21.090  19.839   0.885
57272W        W22433  16.061  27.337  13.354
57273W        W22434  41.063  41.921  11.686
57274W        W22435  28.245  26.414   3.623
57275W        W22436  37.384  38.913  11.590
57276W        W22437  37.844   0.389  13.736
57277W        W22438  24.336  40.173   1.385
57278W        W22439  25.263  39.790   3.170
57279W        W22440  23.099  17.155   3.661
57280W        W22441  34.875  24.144   1.185
57281W        W22442  15.817  41.601   2.818
57282W        W22443   9.656  38.499  14.896
57283W        W22444  32.378  27.949  13.711
57284W        W22445  31.856   9.203   0.499
57285W        W22446   6.553  23.986   2.796
57286W        W22447  14.294  40.120  13.442
57287W        W22448  30.173  14.862  14.395
57288W        W22449  21.739  28.624  14.487
57289W        W22450  26.141  14.990   2.792
57290W        W22451  28.244   5.647   1.295
57291W        W22452   9.256  28.408  12.916
57292W        W22453   7.468   7.382  12.461
57293W        W22454   4.009  15.231   4.126
57294W        W22455  19.402  14.723   5.223
57295W        W22456  42.987   4.197   0.888
57296W        W22457   3.078   2.359  12.588
57297W        W22458  36.334  11.731  13.821
57298W        W22459   3.788  21.268  13.353
57299W        W22460   4.269  18.407   3.241
57300W        W22461  22.579   6.980   2.213
57301W        W22462  23.716  40.440  14.410
57302W        W22463   6.673  43.907   2.661
57303W        W22464  40.799   1.265   2.829
57304W        W22465   8.311  31.622   0.283
57305W        W22466  40.560   2.085  11.576
57306W        W22467  38.086  32.060   1.259
57307W        W22468  17.816  14.587  14.853
57308W        W22469  13.689   4.645  14.708
57309W        W22470  37.977   6.463  14.358
57310W        W22471  40.608  22.061   4.443
57311W        W22472   1.964  13.912   4.665
57312W        W22473  23.177  26.259   3.765
57313W        W22474  16.272  40.385  12.549
57314W        W22475  39.888  27.338   3.311
57315W        W22476   3.498  39.420  13.759
57316W        W22477  30.148  16.092   4.087
57317W        W22478  28.716   7.293   1.167
57318W        W22479   2.184  31.450   0.546
57319W        W22480  10.833  34.103  11.116
57320W        W22481   3.362  16.551  12.069
57321W        W22482  36.438   7.301  14.455
57322W        W22483  38.283  10.225   0.813
57323W        W22484  12.266   2.504  13.954
57324W        W22485  31.475  27.826  12.633
57325W        W22486  37.441  27.437  14.889
57326W        W22487   8.203  17.242  11.612
57327W        W22488   5.243   7.836   2.171
57328W        W22489  16.477  21.522  13.858
57329W        W22490   0.392   5.208   4.585
57330W        W22491   8.400   3.228   4.157
57331W        W22492  35.562   0.831  12.592
57332W        W22493  38.839  35.549  14.796
57333W        W22494   5.919  20.758   0.896
57334W        W22495  27.755   2.332   4.056
57335W        W22496  35.964  43.791   3.191
57336W        W22497   1.542   6.814  13.767
57337W        W22498  25.997   9.995   2.760
57338W        W22499  40.468  34.400   0.986
57339W        W22500  10.543   0.843   1.223
57340W        W22501  12.151  17.238  11.176
57341W        W22502  41.271  27.894   0.736
57342W        W22503   9.194  21.006   1.972
57343W        W22504   9.058  10.370   0.007
57344W        W22505  44.589  21.306   5.080
57345W        W22506   5.559  28.355   0.553
57346W        W22507  38.949  16.361  14.571
57347W        W22508  22.955  16.741  12.442
57348W        W22509  41.041  25.534   4.102
57349W        W22510  30.137  35.695  13.611
57350W        W22511   3.703  39.355  11.487
57351W        W22512  39.323   1.762  11.166
57352W        W22513  36.597  19.931   4.562
57353W        W22514  11.350  41.520   0.003
57354W        W22515  16.040  21.098   4.056
57355W        W22516  26.224  35.425  14.407
57356W        W22517   7.668  31.432  12.436
57357W        W22518   8.711  33.231  13.336
57358W        W22519   0.640  43.211  12.542
57359W        W22520  39.309  19.554  14.273
57360W        W22521  27.195  36.065   4.517
57361W        W22522  17.564  24.221  12.510
57362W        W22523  19.529   3.520  14.088
57363W        W22524  18.330  39.771  12.995
57364W        W22525   8.107  41.830  13.382
57365W        W22526  29.036  20.632   0.779
57366W        W22527  32.457  26.262  12.411
57367W        W22528   8.395  40.076   3.091
57368W        W22529  31.630  34.963  14.106
57369W        W22530   1.233  22.673  14.123
57370W        W22531  10.770   9.407  13.546
57371W        W22532   4.331   6.189   1.788
57372W        W22533  38.405   3.021   0.475
57373W        W22534  41.711  42.722  14.374
57374W        W22535  30.856  29.960   2.916
57375W        W22536  26.648   7.810   3.080
57376W        W22537  12.335  44.986  13.299
57377W        W22538  22.474  25.776   2.679
57378W        W22539  22.156  23.420   0.417
57379W        W22540  18.292  36.429  11.693
57380W        W22541  20.555  37.818   0.899
57381W        W22542   2.457  19.247   1.833
57382W        W22543  23.181   2.495  10.786
57383W        W22544  23.300   1.460   2.223
57384W        W22545  25.512   8.918  11.404
57385W        W22546   6.392  41.167   4.940
57386W        W22547  39.037  14.146  13.823
57387W        W22548  44.572  19.794  14.891
57388W        W22549  17.880  36.096   2.274
57389W        W22550  26.383   3.743   4.042
57390W        W22551  38.057   0.418   2.200
57391W        W22552  34.627  39.300  12.288
57392W        W22553  14.263  11.842   1.294
57393W        W22554  21.684  33.674  11.279
57394W        W22555  18.645  34.486  12.737
57395W        W22556  12.198  23.919   2.343
57396W        W22557  30.582  29.504   2.106
57397W        W22558  17.382   1.826  10.497
57398W        W22559   3.906  14.053  12.080
57399W        W22560  28.081   0.543   1.315
57400W        W22561  16.649  23.783  12.528
57401W        W22562   1.181  32.171  10.571
57402W        W22563  23.025  40.138   1.341
57403W        W22564  38.196  10.223  10.618
57404W        W22565  11.340  31.001   4.083
57405W        W22566  38.792   3.537   5.005
57406W        W22567  23.457  15.556  14.758
57407W        W22568  13.781   9.822   0.425
57408W        W22569  13.163  34.057   0.018
57409W        W22570  41.035  16.302  11.143
57410W        W22571  12.604  44.083   2.323
57411W        W22572  25.172  12.263   0.146
57412W        W22573  42.696  37.981   3.182
57413W        W22574  11.813  26.367   4.181
57414W        W22575  33.552  37.278  12.433
57415W        W22576  39.039  23.123   4.667
57416W        W22577  20.042  18.374   4.185
57417W        W22578  10.552  30.860   0.523
57418W        W22579  27.580  15.567   1.868
57419W        W22580   7.134  13.228   2.775
57420W        W22581   3.417  19.639  11.593
57421W        W22582  28.450  20.956  12.574
57422W        W22583  19.402  12.014   3.942
57423W        W22584  29.572   4.052  14.894
57424W        W22585  16.230   8.151  12.415
57425W        W22586   4.239  40.526   2.511
57426W        W22587  27.978  33.472  14.720
57427W        W22588  37.629  18.295   4.059
57428W        W22589  28.501  17.781   3.746
57429W        W22590  16.175  16.575   0.523
57430W        W22591  31.960   9.063   3.308
57431W        W22592  12.557  10.197  11.629
57432W        W22593  18.001  23.272  12.468
57433W        W22594  29.253  43.707  12.791
57434W        W22595  32.572  16.657   3.399
57435W        W22596   3.920   0.457   2.495
57436W        W22597  32.513  16.205   3.160
57437W        W22598  36.173  36.385  13.621
57438W        W22599   3.718  38.405   1.716
57439W        W22600  34.494  42.043  10.251
57440W        W22601   3.458  13.139  13.251
57441W        W22602  41.339  36.865  12.554
57442W        W22603  19.124  36.005   0.172
57443W        W22604  23.400  23.949   2.785
57444W        W22605  37.533  20.415  11.596
57445W        W22606   9.051   3.670  11.214
57446W        W22607  34.066  28.061   2.930
57447W        W22608   7.860  11.559  13.470
57448W        W22609  36.006  14.897  11.960
57449W        W22610  21.598  34.551  12.539
57450W        W22611  42.522  32.067   3.435
57451W        W22612   2.590  14.125  11.878
57452W        W22613  41.058  25.211   2.858
57453W        W22614  28.337  42.371  14.912
57454W        W22615  26.162  21.550  14.503
57455W        W22616  26.799  44.402  13.414
57456W        W22617  11.277   6.531   2.801
57457W        W22618  20.162  26.687   1.235
57458W        W22619  28.113   3.917   1.804
57459W        W22620  25.106  19.282  10.570
57460W        W22621  35.818  11.215  13.031
57461W        W22622  42.280   3.391   1.771
57462W        W22623  43.779  38.547  10.981
57463W        W22624  17.760  41.319  14.766
57464W        W22625   6.295  25.021  13.355
57465W        W22626  36.352  13.333  11.939
57466W        W22627  36.869  14.715   2.784
57467W        W22628  12.163  21.527  11.932
57468W        W22629   2.791  37.515  11.633
57469W        W22630  20.635   4.423  10.767
57470W        W22631  19.231  14.254  14.918
57471W        W22632  19.506  31.793   1.912
57472W        W22633   6.334  28.029  14.857
57473W        W22634  40.656  31.930  13.945
57474W        W22635  36.789   3.019   3.139
57475W        W22636  21.765  32.784  13.522
57476W        W22637  42.841  21.456   3.634
57477W        W22638  36.533  36.463  14.883
57478W        W22639   6.925   9.968  11.139
57479W        W22640  29.069  20.534  14.983
57480W        W22641   7.982  23.577   4.620
57481W        W22642  22.513   8.284  12.015
57482W        W22643   7.452  16.695  13.833
57483W        W22644  25.183  33.748  11.996
57484W        W22645   3.445  17.767   3.552
57485W        W22646  32.180  28.354   0.786
57486W        W22647  41.898  36.381   0.284
57487W        W22648   9.018  27.970  13.865
57488W        W22649   1.253  39.261   2.517
57489W        W22650   2.846  33.865  13.902
57490W        W22651  33.829  11.647   3.214
57491W        W22652  24.245   2.975  14.906
57492W        W22653  34.685  29.439  13.109
57493W        W22654   9.141   2.800   2.956
57494W        W22655   7.231  33.969  12.806
57495W        W22656  40.046  12.252   3.609
57496W        W22657  35.832  26.739  11.544
57497W        W22658  30.986   2.297   1.484
57498W        W22659  14.906   3.298  11.507
57499W        W22660  24.876  21.585  13.351
57500W        W22661  13.700  21.688  14.525
57501W        W22662  18.750  19.994   3.283
57502W        W22663   8.788  12.691   3.711
57503W        W22664   8.856  43.371  12.816
57504W        W22665  41.418  22.221  12.952
57505W        W22666  15.552  19.993   1.362
57506W        W22667  35.075  11.116   4.663
57507W        W22668  31.926   7.879  13.060
57508W        W22669  35.454  26.203   0.744
57509W        W22670  42.400   7.704  14.853
57510W        W22671   0.806  15.123  13.890
57511W        W22672  21.595   9.457  12.995
57512W        W22673  21.731   5.644  13.413
57513W        W22674  13.665  36.470  12.442
57514W        W22675   6.129  29.618  13.918
57515W        W22676  31.215  36.805   4.985
57516W        W22677  34.825  44.009   1.453
57517W        W22678   0.979  32.855   2.010
57518W        W22679  23.667  20.603  11.103
57519W        W22680   1.770  20.180   2.746
57520W        W22681  10.124  30.661  13.062
57521W        W22682   8.518  10.242   0.015
57522W        W22683   4.177  27.623  14.471
57523W        W22684  10.753  21.007   0.036
57524W        W22685  42.848  39.918  10.702
57525W        W22686  11.153  29.264  14.765
57526W        W22687  43.792  31.287   4.001
57527W        W22688   7.963  11.077  11.467
57528W        W22689   9.311   5.907  11.372
57529W        W22690  33.175   3.423  12.520
57530W        W22691  44.808  26.309   4.201
57531W        W22692  28.075  14.714   1.908
57532W        W22693   7.679  31.075   2.909
57533W        W22694  17.288  11.782  14.797
57534W        W22695  24.710  36.494  12.204
57535W        W22696  25.736  33.626   4.733
57536W        W22697   3.170   6.868   2.369
57537W        W22698  17.068  22.758  13.428
57538W        W22699  42.546   9.649  10.652
57539W        W22700   2.430  41.974  13.772
57540W        W22701  23.126  12.200  14.015
57541W        W22702  35.368  20.470  12.402
57542W        W22703  36.367   1.253  13.364
57543W        W22704  37.019  24.499  14.063
57544W        W22705  33.193  41.176  11.141
57545W        W22706  44.608  12.697  10.989
57546W        W22707  11.791  41.019  11.308
57547W        W22708  33.051  24.530   0.432
57548W        W22709  35.376  18.087   3.466
57549W        W22710  12.911  34.946   0.506
57550W        W22711  35.224   6.940   0.260
57551W        W22712  14.064  37.450  14.036
57552W        W22713   5.855  27.765   1.322
57553W        W22714   3.813  31.423  14.842
57554W        W22715   5.449  13.731  12.095
57555W        W22716  12.413  30.144   2.181
57556W        W22717  18.891  19.440   5.333
57557W        W22718   3.247  15.874   5.445
57558W        W22719   2.023  10.575   3.788
57559W        W22720  41.033  37.061  10.297
57560W        W22721  32.859  42.295  13.639
57561W        W22722  25.455  14.376  12.548
57562W        W22723  17.695   8.450  12.957
57563W        W22724  30.135  28.192  10.277
57564W        W22725  17.140  35.349   0.424
57565W        W22726  16.596   8.176   2.895
57566W        W22727  27.060  42.841   3.961
57567W        W22728  29.998  22.093  12.578
57568W        W22729  40.859   8.216  11.566
57569W        W22730  19.766  12.701  13.443
57570W        W22731  11.965  14.656  12.654
57571W        W22732  11.748   3.408   4.033
57572W        W22733  42.250  37.154  11.590
57573W        W22734  19.179  27.459   1.373
57574W        W22735  25.811   6.953   1.275
57575W        W22736   4.813  16.377  11.736
57576W        W22737  13.261  27.071  14.981
57577W        W22738  24.558  41.957   0.244
57578W        W22739  18.277  29.512   2.463
57579W        W22740  16.371  44.065  11.948
57580W        W22741  12.909  20.216  11.462
57581W        W22742  24.906  35.583  13.995
57582W        W22743  24.558  19.032  14.069
57583W        W22744  30.028   4.855  11.147
57584W        W22745  42.701  38.802  12.131
57585W        W22746  25.058  36.988   2.225
57586W        W22747  20.636  38.280  12.940
57587W        W22748  21.653  38.094   0.321
57588W        W22749   4.931  34.043   4.162
57589W        W22750  17.508  17.838   4.058
57590W        W22751  36.040  44.280   4.080
57591W        W22752  30.333  27.210   4.121
57592W        W22753  26.552  16.292  11.097
57593W        W22754  44.364  12.993   9.880
57594W        W22755  30.976  19.432   4.546
57595W        W22756  28.951  39.764   0.044
57596W        W22757  12.546  20.311  10.466
57597W        W22758  24.178  30.624  13.105
57598W        W22759  20.033  21.449  11.124
57599W        W22760  13.374  42.957  12.474
57600W        W22761   1.036  12.071  14.757
57601W        W22762   7.767  26.567   1.745
57602W        W22763  13.445   5.405  12.163
57603W        W22764  44.283   8.907   2.451
57604W        W22765  17.830   6.442  10.701
57605W        W22766  41.402  34.678  13.517
57606W        W22767  15.744  17.092   3.385
57607W        W22768   6.957  39.535  14.581
57608W        W22769   7.106   2.450   1.857
57609W        W22770   7.277  12.574   0.818
57610W        W22771  38.165  14.165   0.278
57611W        W22772  31.357  39.624  13.592
57612W        W22773  20.159  30.892   3.026
57613W        W22774  17.122   9.750   1.003
57614W        W22775  23.752   8.723  11.597
57615W        W22776   2.657  17.997   0.865
57616W        W22777   9.398  34.506   2.880
57617W        W22778  18.843  36.901  11.072
57618W        W22779  14.318  39.798   2.958
57619W        W22780  44.241  28.101  12.091
57620W        W22781  42.143  40.498  12.185
57621W        W22782  34.745  44.311  11.200
57622W        W22783  39.107  39.895   3.374
57623W        W22784  42.499  29.000   3.523
57624W        W22785  37.230  28.956   3.671
57625W        W22786  35.371  25.071  14.941
57626W        W22787  31.029  38.673   2.319
57627W        W22788  29.495   7.252  12.113
57628W        W22789  32.584  18.967   2.695
57629W        W22790  42.757  42.839   2.740
57630W        W22791  18.606  33.902  14.932
57631W        W22792  39.398   5.900  13.858
57632W        W22793  41.054  19.731   1.303
57633W        W22794  22.118   6.634  12.726
57634W        W22795   7.693  10.107  14.151
57635W        W22796   3.978  18.743   4.466
57636W        W22797   1.934  21.536  13.301
57637W        W22798  37.551   4.313  11.508
57638W        W22799  38.708  25.232  11.134
57639W        W22800  23.275   6.654  13.719
57640W        W22801  21.520  10.828   2.919
57641W        W22802   9.331  14.615   2.229
57642W        W22803  11.364  12.914   2.644
57643W        W22804  33.978  20.207  11.357
57644W        W22805  34.455  24.678   2.861
57645W        W22806  29.499  43.926   4.125
57646W        W22807   7.857  15.632  12.972
57647W        W22808  43.308  18.092   3.865
57648W        W22809   5.887  24.273   1.731
57649W        W22810  27.291  43.762   3.027
57650W        W22811   0.314  28.400   3.630
57651W        W22812  44.779  21.591   2.723
57652W        W22813  25.506  27.175  10.879
57653W        W22814  41.724  29.927   2.321
57654W        W22815  15.865  10.228   4.477
57655W        W22816  15.161  11.678   0.390
57656W        W22817  13.805  25.443   4.219
57657W        W22818  36.446  10.968   0.902
57658W        W22819  16.677  31.289   4.088
57659W        W22820  28.001  16.845   4.993
57660W        W22821   1.394   2.012  11.047
57661W        W22822   7.751  40.221  13.121
57662W        W22823  44.698  37.453   0.919
57663W        W22824   5.097   8.209  13.306
57664W        W22825  28.664  26.172   0.372
57665W        W22826  17.694  23.074  12.866
57666W        W22827  35.576  25.213   3.164
57667W        W22828  14.772  12.327  10.677
57668W        W22829  25.622   2.256   1.716
57669W        W22830  31.154  11.703   0.772
57670W        W22831   7.274   6.387  10.467
57671W        W22832   0.844  30.540   4.533
57672W        W22833  26.305  42.003   3.197
57673W        W22834  16.133  42.099  14.490
57674W        W22835  36.866  37.861  14.879
57675W        W22836   8.581  24.761  11.193
57676W        W22837  18.105  12.338  11.156
57677W        W22838  17.596   6.930   1.983
57678W        W22839  27.007  18.676   4.547
57679W        W22840  30.499  44.547  13.552
57680W        W22841  18.097  37.524   2.416
57681W        W22842  40.418  34.656   4.118
57682W        W22843   9.635   9.378   2.720
57683W        W22844  18.798  34.879  11.126
57684W        W22845  29.003  16.519  13.920
57685W        W22846  36.248   8.753   2.610
57686W        W22847  40.742  35.867   9.750
57687W        W22848  28.935  40.882  10.631
57688W        W22849  40.824  10.296  14.658
57689W        W22850  10.047  10.200  10.726
57690W        W22851  31.712   7.293   4.894
57691W        W22852  17.058  36.097   2.782
57692W        W22853  32.012  31.248   2.728
57693W        W22854   4.177  16.078  12.491
57694W        W22855   2.671  21.663  10.359
57695W        W22856  29.555  20.217  11.814
57696W        W22857  38.052   9.361  12.068
57697W        W22858  34.828  12.337  10.693
57698W        W22859  42.775   4.414  12.532
57699W        W22860   4.779  21.653  12.534
57700W        W22861  30.619   6.877   2.261
57701W        W22862   1.303  42.712  14.366
57702W        W22863  11.683   0.274   2.327
57703W        W22864  42.385  19.633  11.207
57704W        W22865  24.703  25.972  11.014
57705W        W22866  17.121  13.523  12.055
57706W        W22867  11.046  34.566   3.743
57707W        W22868  30.487  13.340  11.021
57708W        W22869  23.887  15.770  10.708
57709W        W22870  10.907   7.606  13.895
57710W        W22871  37.938   5.666   3.428
57711W        W22872  26.241   2.259  13.303
57712W        W22873  34.641   3.417  12.884
57713W        W22874  26.120  43.729  12.947
57714W        W22875  15.617  37.969  12.489
57715W        W22876   2.141  44.163  13.000
57716W        W22877  42.990  14.210  10.880
57717W        W22878  17.209  25.054   3.745
57718W        W22879   0.947  34.607   0.101
57719W        W22880  11.851   7.592  10.031
57720W        W22881  38.871  30.745  11.455
57721W        W22882  25.780   2.254   4.050
57722W        W22883  13.199   9.052  14.415
57723W        W22884   0.352  22.527   0.716
57724W        W22885  23.469  18.487   4.422
57725W        W22886  39.454  40.127  12.367
57726W        W22887  44.353  26.178  10.479
57727W        W22888  34.773   8.159   2.689
57728W        W22889  27.676   0.231  11.133
57729W        W22890  21.506  30.078   4.163
57730W        W22891  27.071   5.526  13.500
57731W        W22892  14.825   5.007   2.731
57732W        W22893  10.210  19.337   4.476
57733W        W22894  37.898  22.047  13.100
57734W        W22895  39.351  31.032  10.760
57735W        W22896  44.898  33.885  12.405
57736W        W22897  29.573  22.216  12.884
57737W        W22898  21.547  41.911   4.518
57738W        W22899  25.930  36.707   2.239
57739W        W22900  20.768  33.623  14.448
57740W        W22901  34.897  44.525  11.632
57741W        W22902  42.509   2.744  14.301
57742W        W22903  34.789  13.589   3.716
57743W        W22904  11.782  24.869   1.385
57744W        W22905  20.237  17.966  14.912
57745W        W22906  44.915  29.088   0.780
57746W        W22907   1.374  39.321   4.363
57747W        W22908  17.080  20.567  10.293
57748W        W22909  28.505  43.906   4.437
57749W        W22910  25.953  43.854   4.810
57750W        W22911  12.590  18.082  13.502
57751W        W22912   0.562  26.241  13.822
57752W        W22913   7.796  22.889  11.121
57753W        W22914  37.409   6.419   4.291
57754W        W22915  27.825   9.380   0.455
57755W        W22916  38.568  40.070  12.403
57756W        W22917   4.958  34.430   4.556
57757W        W22918  11.840   7.175   1.741
57758W        W22919  39.425   5.793   4.729
57759W        W22920  37.550  43.240  11.099
57760W        W22921  20.054  16.743  12.669
57761W        W22922  31.849  39.027  14.242
57762W        W22923  42.369  35.762   4.681
57763W        W22924  10.956   2.751   2.413
57764W        W22925  39.996  42.242   2.859
57765W        W22926  21.315   1.577  14.434
57766W        W22927  26.083  31.889   4.607
57767W        W22928  33.477  43.311   2.374
57768W        W22929   0.615  25.972  14.309
57769W        W22930  37.134  25.948  13.501
57770W        W22931   2.483  23.376  13.597
57771W        W22932  28.475  23.744  13.798
57772W        W22933  22.095  14.608  12.114
57773W        W22934  32.170  26.548  12.045
57774W        W22935  19.952  14.819   3.270
57775W        W22936  28.751  41.808   2.776
57776W        W22937  36.807  19.976   2.904
57777W        W22938  36.954   5.486  10.678
57778W        W22939   2.379  26.467  14.111
57779W        W22940  23.664  29.672  14.782
57780W        W22941   6.092  19.970   1.751
57781W        W22942  38.764  14.601   0.423
57782W        W22943   7.015  13.556  10.874
57783W        W22944  33.304  29.982   4.560
57784W        W22945  18.286  41.563  12.994
57785W        W22946  40.101  40.502   2.169
57786W        W22947  20.129  15.410  11.536
57787W        W22948   9.797  26.267  13.845
57788W        W22949  17.494   3.293  13.038
57789W        W22950  22.689  15.164  13.574
57790W        W22951  39.289  31.624  11.005
57791W        W22952  36.581  36.422   4.217
57792W        W22953  22.123  10.190   3.201
57793W        W22954  43.858  21.738   1.793
57794W        W22955  28.158  24.422  13.393
57795W        W22956  28.931  22.027   2.633
57796W        W22957  18.212  15.390  11.313
57797W        W22958  12.214  13.231  13.436
57798W        W22959  27.101  28.391   1.378
57799W        W22960  32.346  33.083   4.174
57800W        W22961   7.790  25.305   4.310
57801W        W22962  42.740   1.581   2.300
57802W        W22963  13.220   8.717  10.303
57803W        W22964  33.348  35.183  10.731
57804W        W22965  39.205  24.080   2.129
57805W        W22966  34.514  10.740   2.740
57806W        W22967  42.936  33.591   4.530
57807W        W22968   0.673  15.347   3.710
57808W        W22969  18.003  27.308   1.692
57809W        W22970  30.303   1.290  11.209
57810W        W22971   0.908  37.079  14.022
57811W        W22972   2.914  25.481   0.135
57812W        W22973  30.199  19.481   4.359
57813W        W22974  39.371  12.854   3.205
57814W        W22975  37.810  13.323  14.475
57815W        W22976  27.126   2.392   3.758
57816W        W22977  29.539  41.877   2.454
57817W        W22978  15.088  17.787  11.742
57818W        W22979  31.497  21.037   2.202
57819W        W22980  31.103  16.646   0.452
57820W        W22981  26.909  29.853  10.189
57821W        W22982  24.040  16.269   1.323
57822W        W22983  27.588   0.320  13.929
57823W        W22984   1.959  38.841  13.009
57824W        W22985   9.353  22.470  10.918
57825W        W22986  28.734   2.312  11.237
57826W        W22987  13.726  26.865   2.296
57827W        W22988  35.897   3.989  12.940
57828W        W22989   6.809   6.988  12.896
57829W        W22990   3.838  15.410   0.378
57830W        W22991  16.009   6.914   4.304
57831W        W22992  39.479  19.121   0.540
57832W        W22993  17.022  42.308   2.762
57833W        W22994   0.256  27.056  10.631
57834W        W22995  27.716  21.216   3.230
57835W        W22996  33.319  31.942   0.497
57836W        W22997  24.055  26.853  11.934
57837W        W22998  11.104  13.495  14.414
57838W        W22999  19.003  11.228   3.091
57839W        W23000   0.204  39.082  10.236
57840W        W23001  20.946   4.978  12.071
57841W        W23002   1.858  25.515   2.624
57842W        W23003   7.964  27.942  13.037
57843W        W23004  41.623  12.386  13.982
57844W        W23005  21.486   2.430  11.588
57845W        W23006  41.363   0.860  12.053
57846W        W23007  20.210  31.627   2.396
57847W        W23008   9.118  32.844   3.957
57848W        W23009  17.551  26.483  11.471
57849W        W23010  14.068  44.151  12.103
57850W        W23011  28.766  30.634  11.116
57851W        W23012  20.692  31.972   2.367
57852W        W23013  23.253   3.026  13.137
57853W        W23014  42.757   8.682   4.920
57854W        W23015  35.347   0.525   4.170
57855W        W23016  11.518  15.676  12.890
57856W        W23017  15.568  12.312   4.976
57857W        W23018  44.305  19.367  10.669
57858W        W23019  10.236   6.213   4.550
57859W        W23020  37.268  23.413   0.321
57860W        W23021  22.955  16.683   0.942
57861W        W23022  39.266  23.770   4.590
57862W        W23023  34.048  18.840   2.338
57863W        W23024  10.805  26.531   3.122
57864W        W23025  41.573  42.500  11.142
57865W        W23026   6.264  30.355  12.353
57866W        W23027  39.433  25.158  13.927
57867W        W23028  14.025  32.375   4.725
57868W        W23029  42.957   7.636  12.540
57869W        W23030  19.075  14.315   5.251
57870W        W23031  17.556   4.243   0.555
57871W        W23032  33.578   7.193  11.664
57872W        W23033  13.606  16.685   3.225
57873W        W23034   0.705  40.972   2.299
57874W        W23035  25.426  13.262   4.734
57875W        W23036   4.323  38.561  11.290
57876W        W23037   8.842  12.972  12.446
57877W        W23038   4.393   6.474  13.955
57878W        W23039  15.328  30.030  11.972
57879W        W23040  18.119   2.833  14.951
57880W        W23041  40.944  15.757   1.989
57881W        W23042  28.114   4.914  12.031
57882W        W23043  40.459  13.166   1.650
57883W        W23044  10.566  38.371  12.452
57884W        W23045  24.407  37.637   0.723
57885W        W23046  15.725  15.628  14.764
57886W        W23047  43.007  29.944   1.328
57887W        W23048  43.145  22.641  13.914
57888W        W23049  31.609  38.729  12.451
57889W        W23050  13.408  40.282  10.184
57890W        W23051  24.188  40.729  14.771
57891W        W23052   8.636  11.903   0.971
57892W        W23053   3.428  41.088   1.943
57893W        W23054  24.228  33.698   4.279
57894W        W23055   9.673  31.420   2.606
57895W        W23056   5.840  11.548   2.912
57896W        W23057  12.929  23.220   2.246
57897W        W23058  12.594  19.694  12.805
57898W        W23059  37.533  32.965   3.424
57899W        W23060  40.140   0.440   4.380
57900W        W23061  11.581   1.989   3.729
57901W        W23062  30.763  14.125   0.806
57902W        W23063   4.685  33.930  12.984
57903W        W23064  43.484  39.760  10.544
57904W        W23065  29.682   8.440   4.403
57905W        W23066   4.484  16.544  11.360
57906W        W23067   4.319  14.072  10.736
57907W        W23068  28.624  41.018  13.937
57908W        W23069  20.029   6.442   3.255
57909W        W23070   1.372  14.713  12.450
57910W        W23071  10.182  13.759   1.381
57911W        W23072  43.785   7.992  12.979
57912W        W23073  28.130  30.509  10.537
57913W        W23074  24.229  40.321   3.978
57914W        W23075  40.002  35.190   0.400
57915W        W23076  37.634   6.306  12.003
57916W        W23077  19.334  25.272  14.072
57917W        W23078  20.666   5.401  11.211
57918W        W23079   5.369  31.960   0.558
57919W        W23080  16.205  19.193   2.542
57920W        W23081  32.124  25.222  12.438
57921W        W23082  17.225   5.925   3.459
57922W        W23083  30.214  11.153  11.610
57923W        W23084  26.736  41.876  11.116
57924W        W23085  41.308  10.709   0.778
57925W        W23086  13.621   1.930   3.848
57926W        W23087  34.891  38.898   1.224
57927W        W23088  20.120  32.001  11.299
57928W        W23089  43.940  35.804  14.887
57929W        W23090  44.954   1.850   2.956
57930W        W23091  44.589  12.812   5.138
57931W        W23092   1.867   8.500  13.304
57932W        W23093  40.492  37.868  10.568
57933W        W23094  25.196  33.118  10.619
57934W        W23095  37.317  43.953   2.284
57935W        W23096  28.787  35.889   1.372
57936W        W23097   5.689  10.806   0.538
57937W        W23098  12.750  29.184   4.013
57938W        W23099  13.086   9.794  12.916
57939W        W23100  33.974  26.541  14.131
57940W        W23101  28.023   3.685  12.439
57941W        W23102  29.569  14.296  14.164
57942W        W23103  34.316  23.649  13.797
57943W        W23104  40.263  17.514   4.575
57944W        W23105  24.318   6.193  13.348
57945W        W23106  32.088  30.944   1.781
57946W        W23107   8.484  32.985  12.933
57947W        W23108  22.503   6.394   1.942
57948W        W23109   0.523  30.567  14.375
57949W        W23110  37.520   2.298   4.582
57950W        W23111  42.103  28.736   2.769
57951W        W23112  23.129  39.066  13.396
57952W        W23113  20.071  23.491  11.555
57953W        W23114   5.661  37.885   2.255
57954W        W23115   3.391  44.789   1.474
57955W        W23116   6.986  25.520  14.372
57956W        W23117  17.532  31.532   2.984
57957W        W23118  14.707  18.044  11.991
57958W        W23119  22.978  35.829   5.210
57959W        W23120  42.107  31.908   3.785
57960W        W23121  27.194  10.178   0.433
57961W        W23122  44.412   0.660  10.564
57962W        W23123  13.835  41.547  11.063
57963W        W23124  35.136  19.532  12.535
57964W        W23125  33.032   1.776  14.745
57965W        W23126  44.866  20.581  10.899
57966W        W23127  18.038  43.784   4.613
57967W        W23128   0.342  31.197  13.852
57968W        W23129  30.852  11.196   1.315
57969W        W23130  41.415  24.979   1.337
57970W        W23131  21.576  24.242   1.766
57971W        W23132   0.148  38.329   1.244
57972W        W23133  30.236  39.233   5.125
57973W        W23134   7.286   5.733   4.715
57974W        W23135  16.824   6.185  12.412
57975W        W23136  20.565  23.587  11.454
57976W        W23137  23.051  27.949   1.320
57977W        W23138  36.342  38.833   4.101
57978W        W23139  42.776  36.153  14.491
57979W        W23140  12.648  18.910   2.735
57980W        W23141  22.283  21.182  14.942
57981W        W23142  16.513  12.380  14.518
57982W        W23143  43.390  10.278  14.823
57983W        W23144  25.997   7.961   1.433
57984W        W23145   0.279  29.667   2.162
57985W        W23146  35.513  35.126  11.973
57986W        W23147  42.831  16.623  12.562
57987W        W23148  15.977   9.014   2.338
57988W        W23149  27.495  14.603   3.627
57989W        W23150  18.065  27.609  14.322
57990W        W23151  10.953  27.363  14.834
57991W        W23152  12.361  10.935   2.567
57992W        W23153  29.432   5.076   0.881
57993W        W23154  20.132  30.957  11.022
57994W        W23155  36.470  41.349  10.432
57995W        W23156  17.243   4.180   3.649
57996W        W23157   6.087  12.946   4.514
57997W        W23158  36.130  10.798  13.024
57998W        W23159  43.195  12.164   3.272
57999W        W23160  44.061  25.085  14.928
58000W        W23161  23.794  13.285   0.786
58001W        W23162  13.083  12.557  13.025
58002W        W23163   3.939  18.666  14.221
58003W        W23164   5.663  40.196   1.410
58004W        W23165   2.279  28.474  10.671
58005W        W23166  34.000  16.877   0.775
58006W        W23167  30.701  31.028   0.597
58007W        W23168  24.312  19.215   3.187
58008W        W23169  28.973  36.553  12.780
58009W        W23170  11.705   4.096   1.357
58010W        W23171  20.387   0.396   0.210
58011W        W23172  11.375  39.488   0.443
58012W        W23173  19.469   3.158  14.936
58013W        W23174  29.713  43.399  10.745
58014W        W23175   5.371  41.130   2.686
58015W        W23176  26.263   3.002   2.922
58016W        W23177  32.635  36.878   0.270
58017W        W23178  10.457  21.005  12.071
58018W        W23179  11.239   7.345   2.999
58019W        W23180   3.385  11.821  11.284
58020W        W23181  12.142  19.653   2.872
58021W        W23182  28.547  12.533  13.675
58022W        W23183   6.648  38.860  11.329
58023W        W23184  40.149  24.605  11.622
58024W        W23185  16.486   8.310  13.035
58025W        W23186  21.507   0.263  11.904
58026W        W23187  35.889  16.207  14.139
58027W        W23188  26.270  37.333   0.218
58028W        W23189  11.349  24.450  12.489
58029W        W23190  38.645   0.782  11.233
58030W        W23191  35.962   8.088  13.283
58031W        W23192  25.455  25.633  13.386
58032W        W23193  21.703  21.998  12.016
58033W        W23194  31.512  43.797  14.891
58034W        W23195  38.930  42.586   1.825
58035W        W23196  10.756   5.105  11.466
58036W        W23197  19.486  40.318   2.245
58037W        W23198   0.389  34.030   4.690
58038W        W23199   6.592  20.580  14.192
58039W        W23200  25.921  24.984   5.004
58040W        W23201  43.327  24.466   0.220
58041W        W23202   6.095   5.597   4.352
58042W        W23203  25.525   0.828  10.237
58043W        W23204  34.874  29.979   1.185
58044W        W23205  43.413   5.815  12.077
58045W        W23206  16.112   2.477   2.071
58046W        W23207  30.356  40.983  12.341
58047W        W23208  26.537   5.091   0.389
58048W        W23209  32.194   1.223  13.389
58049W        W23210  13.907   3.984  12.170
58050W        W23211  14.276  27.161  12.568
58051W        W23212  23.545  39.048   0.938
58052W        W23213  12.095  19.646   3.734
58053W        W23214  27.391   6.458   2.086
58054W        W23215  14.701   5.337   1.078
58055W        W23216  33.608  21.990  12.023
58056W        W23217  26.883  44.989   1.836
58057W        W23218   0.246  24.715   1.860
58058W        W23219  23.159  31.229   2.358
58059W        W23220  14.586  19.664  13.411
58060W        W23221   2.121  36.923   4.888
58061W        W23222  43.402  42.967  14.873
58062W        W23223  30.668  22.029   2.116
58063W        W23224   8.258  18.004  13.810
58064W        W23225   1.264  12.073   4.076
58065W        W23226  27.256  10.260   1.075
58066W        W23227  25.126  43.432  13.091
58067W        W23228  33.595  10.134   0.787
58068W        W23229   2.652  15.072  12.648
58069W        W23230  22.750  14.951  10.872
58070W        W23231  43.461  40.310   4.603
58071W        W23232  24.051  21.763  13.589
58072W        W23233  28.929  42.815  11.173
58073W        W23234  14.377  25.405  13.320
58074W        W23235  38.526  27.765   3.966
58075W        W23236  27.068  42.560  12.113
58076W        W23237  22.079   3.177   3.665
58077W        W23238   8.714  22.478  11.677
58078W        W23239  13.009   4.708   0.410
58079W        W23240   5.298  44.346  10.093
58080W        W23241  40.469   1.811  10.297
58081W        W23242  20.821   5.738  13.566
58082W        W23243  29.889  14.180  10.427
58083W        W23244  31.944  29.622   1.264
58084W        W23245  27.368  37.899   5.606
58085W        W23246   9.988  35.567   3.617
58086W        W23247   0.032  13.381   1.846
58087W        W23248  27.887   2.410   2.314
58088W        W23249  12.306  23.291  14.893
58089W        W23250  23.642  26.271   4.025
58090W        W23251  36.582  23.557  13.968
58091W        W23252  18.850  17.235  13.331
58092W        W23253  17.474  20.060  11.690
58093W        W23254  24.467  41.316  12.035
58094W        W23255  23.935  26.585  10.274
58095W        W23256   7.955  12.311   3.602
58096W        W23257  29.910  35.296  14.510
58097W        W23258  29.963   0.252  10.534
58098W        W23259  19.360  37.542   1.946
58099W        W23260  19.379  31.005  12.430
58100W        W23261  10.294  30.219   1.665
58101W        W23262   7.421  43.287   2.847
58102W        W23263  36.810  36.961  14.973
58103W        W23264  20.709  21.133   0.627
58104W        W23265  11.870  11.739  13.807
58105W        W23266   9.719  40.865   2.463
58106W        W23267  16.182  38.818  10.185
58107W        W23268  25.713  24.386  10.676
58108W        W23269  33.914   2.719   3.835
58109W        W23270  38.602  25.141  13.404
58110W        W23271  24.709   4.706  11.540
58111W        W23272  33.862  44.537  13.968
58112W        W23273  29.148  35.796  12.482
58113W        W23274   6.194  10.322   1.578
58114W        W23275  34.053   5.262   1.399
58115W        W23276   3.928   0.299  10.230
58116W        W23277  41.543  39.197  13.451
58117W        W23278  28.886  20.041   2.348
58118W        W23279  30.938  10.679  12.329
58119W        W23280  40.899  33.578  12.105
58120W        W23281  29.772   0.489  11.327
58121W        W23282  24.114  23.178  14.623
58122W        W23283  11.928  33.379  12.807
58123W        W23284  25.331  37.453  10.753
58124W        W23285   5.266  10.393  11.853
58125W        W23286  24.761  21.945  12.541
58126W        W23287  24.738  22.203   0.846
58127W        W23288  23.928   4.266   0.264
58128W        W23289  42.940  26.479  12.501
58129W        W23290  44.377  32.504   0.080
58130W        W23291  39.734  34.036  11.486
58131W        W23292  26.518  17.024  12.427
58132W        W23293  43.564  15.272  13.572
58133W        W23294  21.416   5.263   4.668
58134W        W23295   2.614  14.697  13.519
58135W        W23296  33.743   0.975  13.059
58136W        W23297  11.648  38.946  12.897
58137W        W23298  43.297  28.962   1.221
58138W        W23299  21.115   7.696   4.236
58139W        W23300  35.455  24.284  14.026
58140W        W23301  34.893  39.223  14.860
58141W        W23302  13.517  41.990   3.634
58142W        W23303   7.768  12.111   4.039
58143W        W23304  33.712  39.898   1.492
58144W        W23305  13.230   8.225   4.914
58145W        W23306  27.461  35.960   3.363
58146W        W23307  31.616  10.833   3.200
58147W        W23308  42.958   3.637  14.366
58148W        W23309  38.084  35.739   3.291
58149W        W23310  40.122  38.850  13.306
58150W        W23311  32.466  28.174  11.030
58151W        W23312  34.399  18.428   3.130
58152W        W23313  32.065  10.865   1.839
58153W        W23314  37.316  19.489   3.382
58154W        W23315   8.071   5.008   2.461
58155W        W23316  40.936  19.422   3.694
58156W        W23317  29.549  32.999  11.115
58157W        W23318   3.314  28.028   3.732
58158W        W23319   2.800  33.849  10.934
58159W        W23320  37.382   6.116   4.694
58160W        W23321   2.132  30.597   4.059
58161W        W23322  39.634  27.052   0.160
58162W        W23323   1.826   3.322  12.044
58163W        W23324  30.218  41.765  13.898
58164W        W23325  25.526  39.144   4.297
58165W        W23326  19.793   9.169  11.153
58166W        W23327  33.251  22.667   4.510
58167W        W23328  16.569   0.460  14.224
58168W        W23329  19.027  36.524   3.250
58169W        W23330  17.486  30.019   2.668
58170W        W23331   9.171  34.590   3.911
58171W        W23332  11.137  44.964   2.688
58172W        W23333  27.397  12.655  12.227
58173W        W23334  39.475   6.437  13.432
58174W        W23335  44.315  30.530   0.801
58175W        W23336   8.758   0.555   2.767
58176W        W23337  13.108   4.215  12.607
58177W        W23338  39.023  36.937  13.596
58178W        W23339  38.328  36.699   1.162
58179W        W23340  11.079  37.476   5.072
58180W        W23341   5.491  27.054   3.249
58181W        W23342  36.878   8.197   0.385
58182W        W23343  24.477  30.547   2.427
58183W        W23344  33.129  28.582   3.445
58184W        W23345   5.710  21.891   3.518
58185W        W23346  24.209  26.202   0.424
58186W        W23347  40.310  25.597  11.591
58187W        W23348  41.266   7.663  13.251
58188W        W23349  24.208  35.475   0.396
58189W        W23350  31.597   4.414   1.735
58190W        W23351  13.577  26.717   4.735
58191W        W23352  33.751  29.570  13.941
58192W        W23353  24.759   8.973   4.474
58193W        W23354  39.571  29.261  12.471
58194W        W23355  16.814  12.026   1.815
58195W        W23356   5.331  22.656   2.847
58196W        W23357  44.194  41.622  14.605
58197W        W23358   8.162  27.077   0.879
58198W        W23359   1.273  10.852  11.011
58199W        W23360  40.881   9.911  14.270
58200W        W23361  21.395  34.008  13.868
58201W        W23362  41.402  30.573   1.793
58202W        W23363  38.174  38.901   3.313
58203W        W23364  39.764  39.927  13.367
58204W        W23365  34.531   4.879   3.877
58205W        W23366  31.158  31.022   0.312
58206W        W23367  19.323   8.293  11.641
58207W        W23368  34.045  26.435  11.971
58208W        W23369  27.098  11.249   0.734
58209W        W23370  19.089  10.804  10.739
58210W        W23371  16.336  39.962   1.395
58211W        W23372  43.470  37.414  14.366
58212W        W23373  40.789  43.228  11.654
58213W        W23374   4.409   0.469  14.098
58214W        W23375  22.526  24.167   3.078
58215W        W23376  14.497  42.798   2.915
58216W        W23377  43.047  20.647  13.973
58217W        W23378  43.930   6.387  11.568
58218W        W23379  36.322  27.433   2.972
58219W        W23380  35.947  29.020   2.162
58220W        W23381   6.836  22.438  11.599
58221W        W23382  35.594  32.451  13.585
58222W        W23383  26.494   9.858   1.482
58223W        W23384   5.440  31.408  11.679
58224W        W23385  43.766  16.247   0.899
58225W        W23386  43.432  38.434   2.908
58226W        W23387  35.641  43.994  12.894
58227W        W23388  44.422  19.316  14.995
58228W        W23389   2.217  39.865   2.272
58229W        W23390  37.787  36.208   3.184
58230W        W23391  44.546  12.696   1.759
58231W        W23392  11.656   5.924  11.808
58232W        W23393   1.410  34.467   1.473
58233W        W23394  14.755   8.275   2.979
58234W        W23395   1.952   6.341  11.809
58235W        W23396   0.022  15.267   0.553
58236W        W23397  37.520   7.306  12.183
58237W        W23398  42.617   2.242   3.893
58238W        W23399  14.121  27.674   1.889
58239W        W23400  37.857  40.744   0.153
58240W        W23401  42.816   7.379   4.605
58241W        W23402   9.263  36.522   4.426
58242W        W23403  43.492  29.348   3.320
58243W        W23404  42.024  31.408   3.675
58244W        W23405  37.372  15.830  12.409
58245W        W23406   7.688  31.755   2.359
58246W        W23407  42.144  42.441   3.540
58247W        W23408  19.288   7.296   2.788
58248W        W23409  27.483  36.937  10.556
58249W        W23410   2.574   3.635  11.101
58250W        W23411  34.647  25.230   3.641
58251W        W23412  42.355   2.186  12.915
58252W        W23413  19.023  31.562   3.613
58253W        W23414   5.417  27.195  12.203
58254W        W23415  21.177   1.690  10.558
58255W        W23416   0.381   3.195   2.790
58256W        W23417  32.957  25.001   0.915
58257W        W23418  25.853  29.542  13.290
58258W        W23419  22.040  25.178  14.889
58259W        W23420  15.898   4.895  11.047
58260W        W23421  35.931  40.051   1.325
58261W        W23422  29.628  41.966  11.482
58262W        W23423  24.882  37.245   9.823
58263W        W23424  13.660   1.184  13.862
58264W        W23425  18.636  42.244  13.963
58265W        W23426  11.819  27.965   1.714
58266W        W23427  44.255  44.191  11.065
58267W        W23428  22.242  44.253   3.708
58268W        W23429  23.382  25.672  10.987
58269W        W23430   3.741  40.314  11.564
58270W        W23431  39.115  25.658   1.995
58271W        W23432  35.053   2.793  11.900
58272W        W23433   9.244  15.678  10.104
58273W        W23434  13.568  41.352  11.448
58274W        W23435  40.873  20.398   3.820
58275W        W23436   1.395  27.584   0.606
58276W        W23437  17.945   8.914   4.582
58277W        W23438   1.751  23.000   3.597
58278W        W23439  19.438  24.140  11.163
58279W        W23440  32.986   2.739  11.615
58280W        W23441   8.268  39.976   0.650
58281W        W23442  33.907  36.639   2.734
58282W        W23443  44.607  19.573  11.851
58283W        W23444  39.967  11.691   1.340
58284W        W23445  27.719  42.204  12.570
58285W        W23446  24.062  31.986  12.742
58286W        W23447  12.282   5.927   4.638
58287W        W23448  21.227  34.454   2.291
58288W        W23449  18.172  23.642   2.266
58289W        W23450  32.249  44.463  11.021
58290W        W23451  29.366  38.588  13.752
58291W        W23452  36.021  33.149  10.741
58292W        W23453  41.552  36.007   5.185
58293W        W23454  25.757  39.095  13.084
58294W        W23455  12.667   7.621  11.369
58295W        W23456  25.897  36.307  11.727
58296W        W23457  41.952  33.445  14.875
58297W        W23458  15.321  38.251   2.576
58298W        W23459  13.457  31.133   4.118
58299W        W23460  23.508   0.984  12.940
58300W        W23461   2.195  30.892  11.629
58301W        W23462  39.454  18.834  10.759
58302W        W23463  39.234  14.745   2.867
58303W        W23464  19.847  38.143  11.632
58304W        W23465  37.341  30.185   0.886
58305W        W23466   8.936  19.141  12.069
58306W        W23467  22.112  11.943   4.986
58307W        W23468  22.812  21.007   9.795
58308W        W23469  11.191  35.154  13.577
58309W        W23470  40.012  34.310   1.245
58310W        W23471  25.155  16.048  11.219
58311W        W23472  44.241  29.558   1.231
58312W        W23473  20.662   6.232  13.503
58313W        W23474  27.796  25.010  12.520
58314W        W23475  12.081  31.641   4.164
58315W        W23476  42.130  22.152  13.330
58316W        W23477  25.548  26.328   0.712
58317W        W23478  23.567  38.805  12.172
58318W        W23479  34.963  28.209   3.670
58319W        W23480  28.384  10.730   2.400
58320W        W23481  31.977  41.060   0.320
58321W        W23482   8.904   4.747   1.920
58322W        W23483   1.790  37.517  12.496
58323W        W23484  15.275   2.886  14.668
58324W        W23485  34.110  10.357   1.759
58325W        W23486  25.890  20.283  14.704
58326W        W23487  23.575  26.990  12.477
58327W        W23488  30.597  11.153   3.615
58328W        W23489  21.839  16.040  14.496
58329W        W23490  20.530  31.164   0.485
58330W        W23491  17.794   2.358  14.096
58331W        W23492   2.641   2.488   4.196
58332W        W23493  10.426   5.355  13.075
58333W        W23494   2.531  44.727   0.452
58334W        W23495  28.915   6.698  11.684
58335W        W23496  11.612  42.900  12.932
58336W        W23497   8.908  35.630   0.116
58337W        W23498  21.727  39.857   0.742
58338W        W23499  14.635  42.747   4.232
58339W        W23500  19.663  30.448  13.400
58340W        W23501  24.458   5.931   1.825
58341W        W23502  29.494  35.767   4.603
58342W        W23503  44.979  27.498   4.620
58343W        W23504   1.049  21.940   0.390
58344W        W23505  42.771   2.391   2.900
58345W        W23506   9.450  18.103   0.789
58346W        W23507   7.115   4.847  13.091
58347W        W23508  19.544  37.923   3.610
58348W        W23509  37.548   7.162  11.156
58349W        W23510  32.608  20.523   1.774
58350W        W23511  37.579  38.475  11.452
58351W        W23512   5.724   6.052  12.976
58352W        W23513  23.485  36.390  11.140
58353W        W23514  23.148  21.563  14.090
58354W        W23515  35.596  27.182  14.555
58355W        W23516  41.331  29.571  10.653
58356W        W23517  43.272  25.230  14.392
58357W        W23518  44.427  20.716   2.380
58358W        W23519  18.653  13.703  10.941
58359W        W23520  11.319  25.181   1.144
58360W        W23521   3.360  35.999  14.380
58361W        W23522   4.787  11.423   4.705
58362W        W23523  42.947  25.098   1.317
58363W        W23524  23.957  43.333  14.515
58364W        W23525  18.517  19.066  12.634
58365W        W23526  41.468  30.389   2.769
58366W        W23527  20.857  33.622   3.700
58367W        W23528  27.614  17.109   1.070
58368W        W23529  12.552  35.171  13.865
58369W        W23530  27.700  42.825  13.380
58370W        W23531  28.535  16.572   1.929
58371W        W23532   7.811  20.910   1.608
58372W        W23533  19.309  20.141  11.914
58373W        W23534  11.869   3.458  13.343
58374W        W23535   9.060  29.139  12.602
58375W        W23536  24.927  28.055  11.640
58376W        W23537   4.710  38.160   1.403
58377W        W23538  36.929  35.913   1.285
58378W        W23539  32.948  20.696   4.563
58379W        W23540  23.015  26.782  10.321
58380W        W23541  16.874  34.005   3.076
58381W        W23542  35.316  36.151  11.934
58382W        W23543  39.005   4.868  14.799
58383W        W23544  17.349  35.138  12.845
58384W        W23545  23.939  22.134   1.185
58385W        W23546  44.810  18.402   0.565
58386W        W23547   5.352  43.048  11.099
58387W        W23548  37.599  28.601   1.952
58388W        W23549   7.992   0.332  14.211
58389W        W23550  13.897  27.972  10.912
58390W        W23551  28.563  41.767  14.530
58391W        W23552  11.876  13.853   2.969
58392W        W23553  44.796  32.917   4.732
58393W        W23554  31.827  32.556   5.001
58394W        W23555  39.119   2.364  12.723
58395W        W23556  10.350  44.909   0.821
58396W        W23557  38.583  23.041  12.051
58397W        W23558   4.715  27.400  10.525
58398W        W23559  20.079  43.643  14.336
58399W        W23560  12.260  20.157   2.863
58400W        W23561  37.214  33.122   4.410
58401W        W23562  15.285  37.453  11.630
58402W        W23563  40.248   4.829   1.143
58403W        W23564  25.928   0.012   4.246
58404W        W23565  39.028   2.493  11.709
58405W        W23566  37.799  42.948  13.623
58406W        W23567  42.469  20.100  14.713
58407W        W23568  15.715  36.532  14.492
58408W        W23569   1.804  24.707  11.704
58409W        W23570  27.506  28.131  14.908
58410W        W23571   4.557  34.052  11.966
58411W        W23572  38.981  17.662   4.029
58412W        W23573  25.401  43.878  14.433
58413W        W23574  23.958  27.198   1.200
58414W        W23575  18.991  40.761   0.349
58415W        W23576  28.872  24.399   4.959
58416W        W23577  33.784  10.263   2.237
58417W        W23578  24.123   4.295   2.134
58418W        W23579   7.936  34.283  11.591
58419W        W23580  41.398   1.007   4.139
58420W        W23581  25.425   8.144  11.530
58421W        W23582  41.544  38.731  10.838
58422W        W23583  22.230  21.706  12.560
58423W        W23584  18.310  43.313   1.184
58424W        W23585  40.378  27.982   2.766
58425W        W23586  44.902  16.412   1.293
58426W        W23587  10.867  33.971  11.628
58427W        W23588  37.005  39.829   9.999
58428W        W23589  42.298  31.162   3.334
58429W        W23590  38.957  16.287   0.463
58430W        W23591  14.199  20.137  10.689
58431W        W23592   4.629   9.444   4.695
58432W        W23593   1.896  18.767  13.076
58433W        W23594  43.044  16.714  11.218
58434W        W23595  16.153  11.727  10.715
58435W        W23596  20.520  21.347   0.196
58436W        W23597  13.612  31.370  11.495
58437W        W23598   1.256  22.192   0.790
58438W        W23599   6.460   0.649   4.200
58439W        W23600  36.103  18.126  13.584
58440W        W23601  28.931  37.069  11.880
58441W        W23602  27.763  37.466   4.141
58442W        W23603   7.879   0.006   4.612
58443W        W23604  39.551   2.819   1.794
58444W        W23605   5.330   2.906   3.789
58445W        W23606  36.458  15.171  13.802
58446W        W23607  38.316  14.954  11.664
58447W        W23608  19.751  43.918   1.880
58448W        W23609  10.005  14.942   2.705
58449W        W23610  34.393  20.312   4.247
58450W        W23611  24.840  20.630  12.536
58451W        W23612  31.969   2.991  11.966
58452W        W23613  40.488  13.667   3.222
58453W        W23614   5.342   5.174   2.710
58454W        W23615  15.376   4.004   2.025
58455W        W23616   1.679  30.700  12.978
58456W        W23617  20.430   3.994  11.101
58457W        W23618  43.308  40.427  11.164
58458W        W23619   9.285  21.289   1.522
58459W        W23620   9.324  28.707   1.533
58460W        W23621  27.177  42.020   4.799
58461W        W23622  11.519  33.952   3.258
58462W        W23623  32.452   2.312   3.920
58463W        W23624  19.762  18.334   5.672
58464W        W23625  11.315   3.301  14.013
58465W        W23626  33.738  42.531   1.337
58466W        W23627  14.082   5.952  12.516
58467W        W23628   7.919  37.399   1.110
58468W        W23629  10.246  40.391  14.012
58469W        W23630  36.477  14.202   3.887
58470W        W23631  34.038  42.934   1.425
58471W        W23632  25.754  14.108  12.073
58472W        W23633  42.540   4.963  10.738
58473W        W23634  19.209  26.142  13.981
58474W        W23635  43.926  18.714  13.970
58475W        W23636  43.290  30.946   3.068
58476W        W23637   4.233  12.750  13.378
58477W        W23638   6.390  18.181   1.337
58478W        W23639  24.632  15.514  11.888
58479W        W23640  26.153  40.224   1.351
58480W        W23641   4.443   7.736  14.987
58481W        W23642  32.522  40.453  12.964
58482W        W23643  39.850  17.931  11.956
58483W        W23644  10.565  35.469   1.678
58484W        W23645  17.214  36.842   3.269
58485W        W23646  15.442   2.935  14.182
58486W        W23647  29.051  31.193   4.292
58487W        W23648  20.312  16.327  13.527
58488W        W23649  21.387  29.364   4.489
58489W        W23650   5.148  43.569  11.162
58490W        W23651  25.987  20.571   3.432
58491W        W23652  14.678  18.325   2.485
58492W        W23653  13.676  11.403  12.487
58493W        W23654   7.637  38.485   3.896
58494W        W23655   1.777  11.628  14.410
58495W        W23656   9.270  32.341  12.631
58496W        W23657  37.294   4.245  11.057
58497W        W23658  35.584  33.706  12.411
58498W        W23659  36.254   0.932   2.749
58499W        W23660  27.421  12.383   0.883
58500W        W23661  19.641   2.934  12.846
58501W        W23662  38.300  18.191  14.737
58502W        W23663  16.441   0.377  11.634
58503W        W23664  21.961   6.626  14.706
58504W        W23665  28.750  28.695  13.894
58505W        W23666  30.952  22.327  11.665
58506W        W23667  14.631  35.292   4.520
58507W        W23668  40.362   8.645  11.896
58508W        W23669  19.539  34.431   1.403
58509W        W23670  38.399  26.543   2.749
58510W        W23671  26.572  26.568  11.583
58511W        W23672  23.109   2.356  12.562
58512W        W23673   2.193   7.289  12.122
58513W        W23674  15.217   3.494   2.000
58514W        W23675  11.554  34.387   1.891
58515W        W23676   2.518  25.151   4.035
58516W        W23677  10.118  20.632   2.721
58517W        W23678  38.597   6.465  11.111
58518W        W23679  14.504  35.682  13.506
58519W        W23680  36.903  28.700   3.321
58520W        W23681  43.462  29.759  10.936
58521W        W23682  34.636  22.310   1.650
58522W        W23683   9.770  36.071  12.414
58523W        W23684   8.593  25.748   9.991
58524W        W23685  25.640  29.499   2.540
58525W        W23686  22.663  36.838   2.957
58526W        W23687  37.983   7.200  12.416
58527W        W23688  29.662  20.227   1.178
58528W        W23689   4.304  12.394  12.480
58529W        W23690  37.512  19.117  13.975
58530W        W23691  14.296  34.663  11.527
58531W        W23692  22.621  42.189   1.741
58532W        W23693   0.982   5.287  14.165
58533W        W23694  32.899  13.797   2.329
58534W        W23695  15.188  33.048  13.961
58535W        W23696   7.115  36.430   1.924
58536W        W23697  32.218  26.142   1.250
58537W        W23698  13.976  37.402  12.121
58538W        W23699   0.519   9.131  12.857
58539W        W23700  34.518  43.085  12.893
58540W        W23701  41.539  10.834   0.268
58541W        W23702  42.475  41.676   0.332
58542W        W23703  22.720  22.423   0.798
58543W        W23704  30.621  35.033  13.457
58544W        W23705  16.015   9.860   1.475
58545W        W23706  13.279  44.934   2.728
58546W        W23707  35.158  11.808   1.403
58547W        W23708  20.505  21.872  12.038
58548W        W23709  14.229  39.281   3.637
58549W        W23710   1.922  14.133  12.492
58550W        W23711   5.151  43.342   3.408
58551W        W23712   6.619  19.650  11.311
58552W        W23713  37.044  42.966   0.884
58553W        W23714  41.343  43.542  14.372
58554W        W23715  23.081  17.604   3.994
58555W        W23716  39.823   1.309  13.561
58556W        W23717  11.868   2.218   1.417
58557W        W23718   1.520   6.484  12.091
58558W        W23719  11.645  20.613  12.347
58559W        W23720  17.736  17.799  10.851
58560W        W23721  21.505  12.650   3.358
58561W        W23722  28.761  28.160  14.321
58562W        W23723  38.513  25.562   0.802
58563W        W23724  44.897  17.549   0.390
58564W        W23725  34.479  33.285   4.888
58565W        W23726  25.091  17.789  14.449
58566W        W23727  23.576  11.705  14.775
58567W        W23728  38.920  19.033  13.836
58568W        W23729  12.654  13.852  13.926
58569W        W23730  40.976  16.993   1.326
58570W        W23731  24.113   3.526   4.177
58571W        W23732   2.444  13.378  13.829
58572W        W23733  44.153   1.622   0.826
58573W        W23734  27.527  24.095   0.496
58574W        W23735  29.534  39.950   1.684
58575W        W23736  33.806   9.459  11.920
58576W        W23737  21.606   6.633  13.503
58577W        W23738   6.059  18.050  10.572
58578W        W23739  34.125  20.146   0.826
58579W        W23740   4.724  22.332  10.070
58580W        W23741   6.662  37.342  13.131
58581W        W23742  23.457  22.539  14.029
58582W        W23743  16.343   8.251   3.771
58583W        W23744   5.225   6.165   0.868
58584W        W23745   1.781  20.283  13.227
58585W        W23746  28.974   8.929  10.610
58586W        W23747  42.450  32.422   2.319
58587W        W23748  23.837  24.556  12.543
58588W        W23749  33.426  30.139  11.513
58589W        W23750  25.239  30.622  10.768
58590W        W23751  26.717   4.316   3.169
58591W        W23752  41.712  12.078  14.408
58592W        W23753  34.684  35.816  13.807
58593W        W23754  41.545  42.890   3.594
58594W        W23755  39.194  10.729  12.458
58595W        W23756  19.575  33.605   1.561
58596W        W23757  29.473  11.013   4.129
58597W        W23758  18.976  22.758   2.695
58598W        W23759  19.713  15.146   4.059
58599W        W23760  42.014  14.172  14.513
58600W        W23761  21.648  23.740   1.702
58601W        W23762  13.802  11.261  14.992
58602W        W23763  37.581   6.377   3.810
58603W        W23764  27.424  26.317   3.271
58604W        W23765  14.300  30.229  13.585
58605W        W23766   0.366  43.055   2.262
58606W        W23767   7.798  33.020  10.672
58607W        W23768   8.265  13.498  11.934
58608W        W23769  22.151  31.684  10.647
58609W        W23770  14.069  34.662   4.254
58610W        W23771   5.624  25.536  13.203
58611W        W23772  42.094  18.269  14.750
58612W        W23773  30.245   4.079   2.038
58613W        W23774  33.134  21.726   4.041
58614W        W23775  43.583   9.411  14.222
58615W        W23776   2.718  22.391   4.129
58616W        W23777  26.982  41.506   2.119
58617W        W23778  42.967  38.435   3.734
58618W        W23779  40.981  35.973  14.507
58619W        W23780  17.223  32.677   1.415
58620W        W23781   5.533  31.885   3.243
58621W        W23782  39.778   6.242  11.548
58622W        W23783  16.719  39.085   0.217
58623W        W23784  18.680  16.529   0.397
58624W        W23785   9.367  32.545   4.327
58625W        W23786   4.656  17.142   2.718
58626W        W23787  31.595   8.213   0.983
58627W        W23788   5.786  23.754   3.712
58628W        W23789  13.209  34.956  10.244
58629W        W23790  24.728  39.951   0.371
58630W        W23791  20.708  22.026  14.126
58631W        W23792  33.510   2.946   0.768
58632W        W23793  39.991  21.254   0.399
58633W        W23794  35.347   7.925   4.568
58634W        W23795  14.565   1.251  14.994
58635W        W23796   3.898  25.676   0.922
58636W        W23797  18.260  37.449  13.964
58637W        W23798   5.380  26.905  11.287
58638W        W23799  18.119  32.910   2.252
58639W        W23800  23.200  29.775   2.309
58640W        W23801   6.371  39.915  13.275
58641W        W23802  21.701  19.119  13.077
58642W        W23803  15.190  13.689  11.154
58643W        W23804  28.954   4.315  12.042
58644W        W23805  26.077  17.077   2.812
58645W        W23806  35.473  29.637   4.525
58646W        W23807  26.209   4.247  12.813
58647W        W23808  36.640   7.340   2.764
58648W        W23809   6.477  30.684   0.466
58649W        W23810  27.969   2.837  13.501
58650W        W23811   8.175  20.466  12.154
58651W        W23812   4.994  39.533   2.214
58652W        W23813  18.230  18.185   0.742
58653W        W23814  42.783  10.767   1.814
58654W        W23815   1.158  35.874  12.022
58655W        W23816  28.939  33.401  14.907
58656W        W23817  43.373  13.203   0.701
58657W        W23818  17.434   7.862  10.805
58658W        W23819  27.429  23.270  10.280
58659W        W23820  40.129  43.889   4.225
58660W        W23821  40.068  42.573   2.220
58661W        W23822  20.038   4.230  13.765
58662W        W23823  23.218  35.303  14.437
58663W        W23824  25.798  23.913   3.635
58664W        W23825  22.698   1.168  14.380
58665W        W23826  36.439  10.442   0.763
58666W        W23827  34.906  33.385   3.360
58667W        W23828  30.939  27.886   0.362
58668W        W23829  16.867  31.873   1.441
58669W        W23830   7.670  11.563  14.680
58670W        W23831  29.851  13.247  11.909
58671W        W23832  12.630  35.037  12.018
58672W        W23833  33.358  23.029   4.916
58673W        W23834  19.802   8.688  14.924
58674W        W23835  23.594   7.405  14.761
58675W        W23836  18.795   0.497  11.616
58676W        W23837  20.980  21.573   0.425
58677W        W23838  38.162   2.373  12.417
58678W        W23839   4.411  40.102  12.868
58679W        W23840  16.009  14.599   3.151
58680W        W23841  35.873  12.137  11.478
58681W        W23842  10.692  26.330   1.590
58682W        W23843   1.645  28.654   1.016
58683W        W23844   8.991  13.228   0.465
58684W        W23845  26.265  34.872  13.346
58685W        W23846  10.670  34.458  10.492
58686W        W23847  35.325  18.054  14.880
58687W        W23848  21.964  29.393  13.489
58688W        W23849  23.913  21.200   2.127
58689W        W23850   7.102  25.485   9.875
58690W        W23851  44.713  18.462  11.187
58691W        W23852   9.833  11.810   4.493
58692W        W23853   8.210  14.199  13.884
58693W        W23854  17.513  10.810  13.908
58694W        W23855  19.290  34.569   1.820
58695W        W23856  15.187  14.320   0.345
58696W        W23857  12.112  14.233   3.268
58697W        W23858  21.491  37.792   0.747
58698W        W23859  27.660   4.083   0.634
58699W        W23860  35.471   8.427   0.411
58700W        W23861   1.242  22.756   4.157
58701W        W23862  30.619  21.165   0.478
58702W        W23863  33.406  31.608   0.124
58703W        W23864   8.810  25.971   0.850
58704W        W23865  13.935  27.073   0.323
58705W        W23866  24.047  37.271   1.593
58706W        W23867  15.854  22.539  13.057
58707W        W23868  17.377  11.946   0.294
58708W        W23869  14.148   2.817   2.360
58709W        W23870  42.413  25.715  12.503
58710W        W23871  36.367  22.266  13.699
58711W        W23872  28.245  37.249   0.193
58712W        W23873  18.528  41.022  10.092
58713W        W23874  34.873  43.441  11.277
58714W        W23875  39.960  21.775   0.365
58715W        W23876  32.509  13.376  13.502
58716W        W23877  12.367  24.146  12.380
58717W        W23878  31.576   6.509   0.757
58718W        W23879  42.458  22.169  14.867
58719W        W23880  26.609  20.191  12.020
58720W        W23881  39.243  28.255  14.799
58721W        W23882  39.308  41.421   2.772
58722W        W23883  15.139  36.112   1.303
58723W        W23884  12.227  10.760   3.044
58724W        W23885  33.892  37.783  13.546
58725W        W23886  13.952  36.861  13.750
58726W        W23887   3.844  16.672   4.845
58727W        W23888  23.787  43.920   3.191
58728W        W23889  32.127  30.567  13.844
58729W        W23890   5.939  18.030  12.007
58730W        W23891  11.527  24.576  11.599
58731W        W23892  28.991  24.297  11.772
58732W        W23893  19.738  36.911  12.524
58733W        W23894  16.563  32.868   2.208
58734W        W23895  34.327  28.985  12.699
58735W        W23896  43.386  41.588   0.457
58736W        W23897  22.302  19.566  13.949
58737W        W23898  23.253   1.091  12.465
58738W        W23899  28.600  27.258  13.938
58739W        W23900  39.810  41.929   4.798
58740W        W23901  40.539  32.502   1.923
58741W        W23902  13.667  23.922   1.296
58742W        W23903  38.913  39.402  12.360
58743W        W23904  36.474   4.843   3.907
58744W        W23905  10.262  24.012   0.310
58745W        W23906  39.293  30.455  12.933
58746W        W23907  30.987  43.935   3.095
58747W        W23908  39.484   9.904  13.913
58748W        W23909  11.440  13.626  11.452
58749W        W23910  30.832   5.895  13.032
58750W        W23911  43.810  22.485   4.500
58751W        W23912  13.869  30.031   0.302
58752W        W23913  39.863  43.067  11.613
58753W        W23914  42.547  39.320   3.240
58754W        W23915  32.915   1.192   4.665
58755W        W23916  12.301  41.129  14.403
58756W        W23917  15.038  41.655   4.148
58757W        W23918  32.063  18.941   4.221
58758W        W23919  25.548  31.680  12.887
58759W        W23920  31.707  34.200   0.676
58760W        W23921  44.814  41.453  11.309
58761W        W23922  28.965  38.419  13.419
58762W        W23923  30.742  31.531  12.485
58763W        W23924   3.896  43.673  13.463
58764W        W23925  17.812  29.470   2.228
58765W        W23926   1.856   4.098   4.675
58766W        W23927  35.859   7.364   1.968
58767W        W23928   8.757  14.999   0.839
58768W        W23929  12.749  23.490  12.079
58769W        W23930  36.942  15.325   2.352
58770W        W23931  10.776  42.097   1.827
58771W        W23932  16.076  28.178  12.963
58772W        W23933  16.639  34.562  11.523
58773W        W23934  22.989   6.165   1.930
58774W        W23935  23.095  24.744  13.742
58775W        W23936   4.958  37.744  11.586
58776W        W23937   2.153  13.257   3.163
58777W        W23938  21.202  28.161  12.810
58778W        W23939  19.012  23.070  14.918
58779W        W23940  20.471  19.862  13.539
58780W        W23941  15.200  37.526   3.227
58781W        W23942  36.377  38.011  14.921
58782W        W23943  32.662  22.554   2.240
58783W        W23944   5.217  19.763   1.901
58784W        W23945  28.889  12.365  11.989
58785W        W23946  10.274   0.290  13.511
58786W        W23947  38.041   3.378   0.423
58787W        W23948  31.441  44.431  12.392
58788W        W23949   2.377  24.105   2.337
58789W        W23950  30.640   0.245   4.228
58790W        W23951  34.115  27.479   4.226
58791W        W23952  44.964  23.596  14.282
58792W        W23953  11.662  38.517   3.836
58793W        W23954  42.845   8.010  11.453
58794W        W23955  38.810  26.597   4.117
58795W        W23956  41.241  22.728  11.107
58796W        W23957   9.866   3.689   2.625
58797W        W23958   0.199  24.157   3.178
58798W        W23959  40.478  32.106   3.232
58799W        W23960  39.021  44.398   2.360
58800W        W23961   7.368   2.967   4.811
58801W        W23962   4.427  44.338  14.918
58802W        W23963  38.366  34.556   2.841
58803W        W23964   1.293  33.264   2.245
58804W        W23965  32.612   3.583  14.883
58805W        W23966  44.833  29.681   1.832
58806W        W23967   8.803  39.379  11.477
58807W        W23968   9.502  40.545  10.137
58808W        W23969  17.566  28.057   0.004
58809W        W23970  28.737  39.586   1.427
58810W        W23971  21.162  36.235  11.149
58811W        W23972  33.815   0.208   3.356
58812W        W23973   3.233  36.892   0.772
58813W        W23974   2.672  12.032  14.421
58814W        W23975  30.655  31.640  11.611
58815W        W23976  24.233   6.416   4.703
58816W        W23977  38.646  23.112  14.494
58817W        W23978   8.779  24.137   2.797
58818W        W23979  19.262  23.813   9.945
58819W        W23980  40.463  16.693   2.409
58820W        W23981  23.811  11.631  11.505
58821W        W23982  41.091   4.297   2.351
58822W        W23983   4.453  20.991   2.676
58823W        W23984  25.912  17.378   0.275
58824W        W23985  32.163  13.141   2.331
58825W        W23986  22.186  41.899  14.847
58826W        W23987  31.882  13.570   3.216
58827W        W23988  13.275   9.036  13.401
58828W        W23989  35.376  20.666   1.388
58829W        W23990   0.930  25.020   4.200
58830W        W23991  28.052   1.984   1.417
58831W        W23992  22.731  43.340   2.791
58832W        W23993  23.812  17.095  11.596
58833W        W23994  34.113   8.809  10.975
58834W        W23995  16.552  17.100   1.341
58835W        W23996  43.929  38.328   2.728
58836W        W23997  26.362  25.962  13.428
58837W        W23998  43.301  32.787   2.746
58838W        W23999  29.953  39.820  11.984
58839W        W24000   1.400  13.053   0.311
58840W        W24001  24.267  19.522  13.536
58841W        W24002  31.525  42.345   9.889
58842W        W24003  33.973  22.560  12.724
58843W        W24004  44.966  18.550  11.661
58844W        W24005  35.221  37.992  10.279
58845W        W24006  17.747  29.904   3.639
58846W        W24007  30.959  41.794   1.428
58847W        W24008  13.163  11.248  13.771
58848W        W24009   6.670  19.982   1.845
58849W        W24010  28.629  14.765   3.100
58850W        W24011  31.843  37.040   1.197
58851W        W24012  42.398  30.065   3.795
58852W        W24013  41.403  30.087  10.807
58853W        W24014  26.013   4.794   3.713
58854W        W24015  35.835  23.029  13.621
58855W        W24016  33.845   2.946  10.662
58856W        W24017  18.310  25.705   0.964
58857W        W24018  33.461   2.674  10.906
58858W        W24019  43.803  39.419   1.077
58859W        W24020  28.483  35.809  12.934
58860W        W24021  40.872  22.906   3.379
58861W        W24022  21.209  18.517   2.900
58862W        W24023   5.308  25.455  11.434
58863W        W24024   1.679  27.204   2.497
58864W        W24025  21.715  14.131   2.868
58865W        W24026  27.919   3.645   2.208
58866W        W24027  32.189  28.616  12.666
58867W        W24028  25.023   0.541   2.192
58868W        W24029  39.349  32.096   2.746
58869W        W24030  15.805  12.617   3.231
58870W        W24031  44.691  28.980   0.317
58871W        W24032  38.562   4.242   0.446
58872W        W24033   3.298   4.850  14.777
58873W        W24034  12.648  44.847   3.745
58874W        W24035  11.661  44.048   0.877
58875W        W24036  14.631  44.708   1.499
58876W        W24037  41.932  29.091   4.568
58877W        W24038  11.816  40.794   1.373
58878W        W24039   9.942   6.903   0.878
58879W        W24040  31.945  38.400   1.830
58880W        W24041  27.983  18.610   1.780
58881W        W24042  28.884  10.687   2.281
58882W        W24043   0.992  34.033   3.235
58883W        W24044  42.549   6.809  11.183
58884W        W24045  21.308  38.565   1.162
58885W        W24046  40.955  27.001   2.041
58886W        W24047  32.489  33.340  11.570
58887W        W24048  36.043   0.813  12.852
58888W        W24049   4.838   5.881   3.771
58889W        W24050  12.159   9.956  12.479
58890W        W24051  28.369  27.561  13.578
58891W        W24052  36.275   9.179   2.321
58892W        W24053  10.638  21.132   0.953
58893W        W24054  18.277  23.720   1.742
58894W        W24055  41.334  33.003  12.862
58895W        W24056   7.453  34.803  11.395
58896W        W24057  14.079  33.061   2.868
58897W        W24058  35.292  31.513   4.219
58898W        W24059   7.712  42.638   5.026
58899W        W24060  42.946  13.053   2.720
58900W        W24061   0.908  41.725   2.723
58901W        W24062   5.979   6.340   0.753
58902W        W24063  14.679  37.530   4.602
58903W        W24064  21.871  31.507   0.876
58904W        W24065  17.632  39.662  12.139
58905W        W24066  11.816  24.895   2.805
58906W        W24067  24.417  15.037  11.800
58907W        W24068  20.070  38.808  14.956
58908W        W24069  25.258  43.937   4.025
58909W        W24070   0.329  28.921  11.637
58910W        W24071  36.742  26.485   4.188
58911W        W24072   9.664  23.360   0.695
58912W        W24073  14.648  15.220  14.555
58913W        W24074  25.614  24.103   0.057
58914W        W24075  37.017  22.527  12.016
58915W        W24076  34.437  28.109  11.186
58916W        W24077  12.844  13.699  14.462
58917W        W24078  30.254  13.924   1.908
58918W        W24079  19.974  33.408  10.381
58919W        W24080   2.751  21.129  10.538
58920W        W24081  37.757   9.681  12.390
58921W        W24082  21.957  33.756  14.683
58922W        W24083  27.206  19.603   0.043
58923W        W24084   0.457   6.836   0.479
58924W        W24085  19.515  35.909  14.827
58925W        W24086  11.777  36.527  10.072
58926W        W24087  36.631  35.473  13.838
58927W        W24088  41.962  35.728  11.552
58928W        W24089  12.185  36.511   3.633
58929W        W24090  20.070  16.286  12.132
58930W        W24091  11.186   8.187  10.569
58931W        W24092  12.134  41.783  14.966
58932W        W24093  29.615  25.702   3.657
58933W        W24094  35.253  34.897  11.536
58934W        W24095  29.358   7.023   4.233
58935W        W24096   3.148  25.221  12.141
58936W        W24097  28.873  39.848  10.357
58937W        W24098  21.220   8.527  12.114
58938W        W24099  25.104  27.972   3.631
58939W        W24100  38.458   1.325  11.255
58940W        W24101  13.032  37.078  13.944
58941W        W24102   8.709  30.657   0.502
58942W        W24103  28.562  44.495  10.500
58943W        W24104  37.431  10.740   3.239
58944W        W24105   8.108  17.201   2.764
58945W        W24106   6.074   4.280   1.835
58946W        W24107   8.886  28.648  13.492
58947W        W24108   2.296  28.427  13.931
58948W        W24109  43.903  38.324   1.855
58949W        W24110  27.249  28.508   3.064
58950W        W24111   3.914  11.235  11.573
58951W        W24112  39.555  26.628  10.939
58952W        W24113  36.349   3.857   2.903
58953W        W24114   8.178   9.821   3.848
58954W        W24115  11.237  38.165   3.059
58955W        W24116  19.457  12.169  12.421
58956W        W24117  26.959  40.680  12.653
58957W        W24118   8.239  41.561   4.684
58958W        W24119  13.606  15.177  14.833
58959W        W24120  30.439  13.863  12.312
58960W        W24121  36.476   1.854   0.698
58961W        W24122  20.457  31.155   2.014
58962W        W24123   8.940   3.443  11.884
58963W        W24124  32.044   9.346   4.658
58964W        W24125  27.424   6.193   2.705
58965W        W24126  24.690   5.873  14.064
58966W        W24127  31.940   2.006  11.986
58967W        W24128  41.534  10.645   1.238
58968W        W24129  31.031  37.679  13.063
58969W        W24130  42.438  27.859  10.736
58970W        W24131  29.208  30.644  10.043
58971W        W24132  18.920   2.780   3.269
58972W        W24133   4.907  15.586   2.784
58973W        W24134  11.554  23.182  14.444
58974W        W24135  28.983  24.825   0.345
58975W        W24136   1.489  22.994   2.400
58976W        W24137  26.182  24.609   3.732
58977W        W24138   6.283   9.379   3.313
58978W        W24139   9.159  21.228   3.864
58979W        W24140  28.639  14.152   3.223
58980W        W24141   9.250  30.106   3.696
58981W        W24142   3.620   7.812  10.638
58982W        W24143  39.405   2.297   2.565
58983W        W24144   5.234   4.173  14.343
58984W        W24145  31.440  11.314   3.161
58985W        W24146  32.647  34.922   3.149
58986W        W24147  44.032   5.330  11.089
58987W        W24148  10.131  28.180  13.422
58988W        W24149  16.686  25.539   3.320
58989W        W24150  34.442  30.726   4.378
58990W        W24151   5.659  35.857   4.134
58991W        W24152  40.526  17.379  14.934
58992W        W24153  10.147  38.483  13.926
58993W        W24154  19.307   1.607  13.894
58994W        W24155   7.789  37.648  14.337
58995W        W24156  20.344  40.524   3.050
58996W        W24157   7.170  24.508  12.049
58997W        W24158  17.654  42.570  10.663
58998W        W24159  30.961  39.254   1.091
58999W        W24160  19.055  21.696  14.035
59000W        W24161   9.770  12.129   0.335
59001W        W24162  27.138  19.218   3.259
59002W        W24163  33.252   3.390  11.268
59003W        W24164  42.585  13.264  10.787
59004W        W24165  44.483  15.114  12.588
59005W        W24166  19.696  19.046   1.389
59006W        W24167  41.946  38.461   2.258
59007W        W24168  22.169   8.728  14.537
59008W        W24169  36.817   3.515  14.852
59009W        W24170  12.226  26.133  12.891
59010W        W24171  43.263  29.468   1.328
59011W        W24172  13.145  43.056  14.921
59012W        W24173  35.967   9.546  13.454
59013W        W24174  31.334  11.340   1.111
59014W        W24175  12.095  26.243  11.601
59015W        W24176  20.104  40.812   2.686
59016W        W24177  21.279  38.240   2.779
59017W        W24178   4.692  20.813  14.306
59018W        W24179  24.973  20.035  13.040
59019W        W24180  42.978   3.426  12.967
59020W        W24181   8.176   0.025  13.003
59021W        W24182  22.666  32.205   0.841
59022W        W24183  27.123  13.439  12.053
59023W        W24184  44.377  15.742   3.497
59024W        W24185   1.254  39.784  11.557
59025W        W24186  20.593  23.690  14.272
59026W        W24187  13.868  11.377   3.718
59027W        W24188  28.351  26.701   4.372
59028W        W24189  33.010  26.679  14.345
59029W        W24190  32.906  12.433  10.613
59030W        W24191   4.874  38.893  12.902
59031W        W24192  30.232  12.220  11.528
59032W        W24193  18.659   6.597  12.211
59033W        W24194   0.295  39.273   4.678
59034W        W24195  33.346  14.910  13.989
59035W        W24196  16.589  32.514   3.081
59036W        W24197  35.681  11.640   2.891
59037W        W24198  43.400  12.156  11.962
59038W        W24199  24.538  31.356  11.106
59039W        W24200  27.033  31.443  11.173
59040W        W24201  15.629   5.464   2.269
59041W        W24202  39.717  25.073  11.180
59042W        W24203  39.128  14.201   4.199
59043W        W24204  41.243   3.434   4.565
59044W        W24205  13.588  20.409   4.534
59045W        W24206  27.066  43.714  13.889
59046W        W24207  25.885   1.328   0.912
59047W        W24208   1.911  22.744   2.181
59048W        W24209  42.337   7.871   2.078
59049W        W24210   4.761  37.088  10.422
59050W        W24211  13.146  35.046  11.992
59051W        W24212   8.184  34.916   2.643
59052W        W24213  37.329   2.818  12.644
59053W        W24214  26.232  10.644   3.268
59054W        W24215   1.703  12.021   1.365
59055W        W24216   4.508  12.572   4.079
59056W        W24217  39.239  19.984  13.949
59057W        W24218  24.020  28.233   0.358
59058W        W24219  34.302  37.295   2.382
59059W        W24220  24.414  24.063   2.717
59060W        W24221  42.238  41.938  14.447
59061W        W24222   7.842   6.464   0.817
59062W        W24223  20.669  20.818   4.818
59063W        W24224   0.974  40.927   4.748
59064W        W24225  30.874  10.326  10.543
59065W        W24226  23.108  19.727   2.815
59066W        W24227  11.046   8.764   0.691
59067W        W24228   3.250  38.329   1.912
59068W        W24229   9.905  30.017  12.369
59069W        W24230   8.760  31.605  13.674
59070W        W24231  22.964  44.014   4.307
59071W        W24232  37.046   1.338  10.602
59072W        W24233  10.358  28.985  12.088
59073W        W24234  39.322  23.884  13.751
59074W        W24235  15.490  14.729   2.299
59075W        W24236   1.258  14.058   0.330
59076W        W24237  31.387  29.632  12.898
59077W        W24238   5.041  24.150  10.489
59078W        W24239  29.713  35.157  13.248
59079W        W24240   1.319  12.816  14.828
59080W        W24241  14.341  16.559  14.472
59081W        W24242  39.046  16.084  13.609
59082W        W24243  39.427   2.101  13.065
59083W        W24244  16.120  29.052   2.272
59084W        W24245  22.069  41.811  10.203
59085W        W24246  39.003  16.510   1.830
59086W        W24247  11.811  41.282   2.934
59087W        W24248  43.895   0.209   4.549
59088W        W24249  10.882  34.965  12.963
59089W        W24250  18.879  44.486  12.776
59090W        W24251  39.086  11.840  13.163
59091W        W24252  37.925  27.056   4.710
59092W        W24253  26.125  35.549   4.409
59093W        W24254  34.893  32.188  13.285
59094W        W24255  18.672  31.749  14.270
59095W        W24256  18.272  23.929  13.044
59096W        W24257  29.198  17.438   4.441
59097W        W24258  40.431  36.283   3.311
59098W        W24259  39.080  31.429   3.711
59099W        W24260  32.246  15.682  11.471
59100W        W24261  10.938  34.088   0.508
59101W        W24262  33.776  32.977   4.303
59102W        W24263  39.340  20.612   0.893
59103W        W24264  32.964  19.084  12.061
59104W        W24265   0.745  42.969  10.008
59105W        W24266   0.661   0.543   1.301
59106W        W24267  12.850  37.764  10.762
59107W        W24268  22.054  35.643   2.935
59108W        W24269  13.830  38.065   3.685
59109W        W24270  15.111   8.290   4.233
59110W        W24271   8.545  14.670   3.716
59111W        W24272   5.189  43.314  14.367
59112W        W24273  41.400   5.843   1.554
59113W        W24274   9.112  13.625   2.189
59114W        W24275  22.304  17.491   1.811
59115W        W24276  41.323  32.125  10.213
59116W        W24277  31.194  38.800   1.229
59117W        W24278  22.989   6.416   0.532
59118W        W24279   3.214  10.957   1.032
59119W        W24280  13.609  34.491   2.769
59120W        W24281   7.696  17.053   0.491
59121W        W24282  28.943  34.943  13.749
59122W        W24283   4.212  14.952  10.684
59123W        W24284  27.994  22.647  13.040
59124W        W24285   3.696  17.047  11.126
59125W        W24286  43.413  23.590  10.406
59126W        W24287  31.904  13.103   4.911
59127W        W24288   8.404  14.307   0.321
59128W        W24289   3.019  39.817  11.045
59129W        W24290  31.730  39.390  14.956
59130W        W24291  36.775  30.643   3.100
59131W        W24292  14.715   2.523   0.949
59132W        W24293  29.998  21.901   1.919
59133W        W24294  26.628  15.132  14.414
59134W        W24295  34.539  31.151  11.001
59135W        W24296  10.357  28.038   3.742
59136W        W24297   9.447  17.278  10.231
59137W        W24298  31.874  25.955   2.287
59138W        W24299  43.046  29.629  11.252
59139W        W24300   5.224  41.378  12.640
59140W        W24301  33.686   2.761   0.327
59141W        W24302  18.456  28.420   0.811
59142W        W24303  26.534  19.094  14.875
59143W        W24304  29.031  24.728  12.070
59144W        W24305   6.121  20.015  12.465
59145W        W24306  14.478   2.978  13.814
59146W        W24307  32.920  19.772   1.260
59147W        W24308  25.880  20.205  13.475
59148W        W24309   6.866  38.877   0.818
59149W        W24310  33.001  42.879   0.768
59150W        W24311  30.681  36.567  11.700
59151W        W24312  32.167  27.876   1.007
59152W        W24313  30.960  41.501  11.246
59153W        W24314   2.407  33.015   4.443
59154W        W24315   2.942  44.425  12.554
59155W        W24316  10.685  39.369  12.109
59156W        W24317  21.731  17.538  12.405
59157W        W24318  14.623  42.790   1.466
59158W        W24319  35.117  29.659  14.761
59159W        W24320  41.525  16.569   2.125
59160W        W24321  44.548  19.064  12.533
59161W        W24322  40.765   1.688  11.861
59162W        W24323  12.003  23.062   4.961
59163W        W24324   8.862  39.298  14.107
59164W        W24325  38.190   1.011   3.545
59165W        W24326   9.743  25.965   4.176
59166W        W24327  26.272  32.211  14.163
59167W        W24328  11.677  11.877  12.926
59168W        W24329  40.465  42.837   1.457
59169W        W24330  14.252  10.287   3.034
59170W        W24331   5.166  28.424   0.890
59171W        W24332  26.898   7.297  12.054
59172W        W24333  41.363  22.051   2.422
59173W        W24334  36.152  21.675   3.221
59174W        W24335  38.482  11.778  14.057
59175W        W24336  13.325   1.756  10.955
59176W        W24337   1.546  15.463   2.120
59177W        W24338   3.212  41.817  12.016
59178W        W24339  12.387   4.461   1.881
59179W        W24340  18.320  22.911   0.453
59180W        W24341  36.650  12.729  13.401
59181W        W24342  28.693  29.576   4.322
59182W        W24343  12.223  38.962  14.854
59183W        W24344   1.431   6.849   1.810
59184W        W24345  34.013   5.854  11.653
59185W        W24346  37.887   1.028   4.893
59186W        W24347  10.367   2.352   1.965
59187W        W24348  12.720   1.895   0.291
59188W        W24349  41.422  18.681  12.664
59189W        W24350  44.492  15.674  13.967
59190W        W24351  29.359  23.660   2.629
59191W        W24352   1.285  12.979   3.276
59192W        W24353  23.357   2.667  11.589
59193W        W24354  12.787   0.425  11.435
59194W        W24355   7.664  40.887   4.725
59195W        W24356  32.872   5.471   1.391
59196W        W24357  32.596  17.032  12.442
59197W        W24358  44.144  31.107  10.657
59198W        W24359  24.691  18.291   1.794
59199W        W24360  33.468   5.392  11.664
59200W        W24361  36.994   6.457  14.323
59201W        W24362  17.588  39.094   1.453
59202W        W24363   6.123   3.263   4.679
59203W        W24364  28.186   2.777  14.350
59204W        W24365  11.267   2.111   0.467
59205W        W24366  39.851  22.655   3.812
59206W        W24367  41.907  13.136  14.395
59207W        W24368  36.540   1.792   2.917
59208W        W24369  12.223  19.703   2.310
59209W        W24370  44.058  13.201   2.066
59210W        W24371  30.209  30.471  11.071
59211W        W24372  24.557  21.691  13.764
59212W        W24373   6.883  36.517   2.376
59213W        W24374  12.712  36.826  10.445
59214W        W24375  29.369  33.541  14.091
59215W        W24376  31.852  15.091   4.711
59216W        W24377  35.344  28.176   0.088
59217W        W24378  40.467  19.167  12.135
59218W        W24379  23.084  13.083  14.051
59219W        W24380  20.158  25.666  12.911
59220W        W24381  28.409  20.601  12.056
59221W        W24382  11.174  20.817   4.518
59222W        W24383  34.524  37.147  11.078
59223W        W24384  21.847  11.622   4.610
59224W        W24385  20.712  21.946  12.915
59225W        W24386   1.929  18.282   3.140
59226W        W24387  24.758  34.405   3.208
59227W        W24388  15.566  19.245  10.331
59228W        W24389  16.465   3.365   3.967
59229W        W24390  37.930  42.510  13.883
59230W        W24391  25.726  21.425   5.109
59231W        W24392  16.040  42.488   1.902
59232W        W24393   8.504  41.428   2.550
59233W        W24394  42.802  42.438   1.200
59234W        W24395  38.960  30.900   3.229
59235W        W24396  34.297   4.222  14.193
59236W        W24397  30.456  44.520  10.631
59237W        W24398  30.826  27.113  12.176
59238W        W24399  17.822   4.807  10.947
59239W        W24400  11.503  20.589   2.239
59240W        W24401  15.714  28.674   1.326
59241W        W24402  12.801  34.175   4.816
59242W        W24403  29.368  24.208   0.188
59243W        W24404  33.531   4.031  14.827
59244W        W24405  21.751  27.048   0.069
59245W        W24406  32.684  14.950  11.499
59246W        W24407  23.457  19.195   2.709
59247W        W24408  38.810   1.373  13.304
59248W        W24409  42.442   7.723  12.134
59249W        W24410  44.614  35.569   0.462
59250W        W24411  36.459  32.449  14.026
59251W        W24412  39.768  30.973  10.440
59252W        W24413   6.724  11.097  12.923
59253W        W24414   6.663   4.891   4.363
59254W        W24415  35.403  24.123   4.629
59255W        W24416  12.323  11.763   4.649
59256W        W24417  11.717   7.175   2.270
59257W        W24418  40.420  35.454   4.740
59258W        W24419   7.646  21.607  12.422
59259W        W24420  43.458  40.773   1.714
59260W        W24421  44.435   6.028   4.480
59261W        W24422  29.604  37.959   1.710
59262W        W24423  22.937  14.417   3.387
59263W        W24424   6.776  35.081  11.587
59264W        W24425  43.627   0.241   0.916
59265W        W24426  40.889   4.638  14.969
59266W        W24427  32.215  17.524   0.314
59267W        W24428  27.171  18.046  11.185
59268W        W24429  18.179   9.904  13.673
59269W        W24430  16.968  41.472   3.727
59270W        W24431  33.965  43.911  10.995
59271W        W24432  36.563  32.971  14.116
59272W        W24433   2.911   3.736  12.949
59273W        W24434   2.302  34.044  11.537
59274W        W24435  11.908  25.567   1.942
59275W        W24436  24.293   1.272   1.330
59276W        W24437  41.208   3.946   3.621
59277W        W24438  31.126   5.631   2.225
59278W        W24439  36.316  27.568   2.477
59279W        W24440  34.354   9.818   2.846
59280W        W24441  12.356  27.951   1.698
59281W        W24442   5.234  39.920   4.523
59282W        W24443  16.832  16.698  12.584
59283W        W24444   3.524   5.081  13.308
59284W        W24445   5.811  41.540  11.397
59285W        W24446  38.138  16.590  14.472
59286W        W24447  21.198  15.654  11.443
59287W        W24448   7.433   4.428   0.257
59288W        W24449  29.966  34.930  14.893
59289W        W24450  29.863  26.203  14.765
59290W        W24451   6.975   2.333  13.973
59291W        W24452  18.206  31.184   2.749
59292W        W24453   8.848  18.625   4.920
59293W        W24454  22.455  43.247  12.608
59294W        W24455  30.479   2.955   3.626
59295W        W24456  24.255  42.467   0.192
59296W        W24457  35.283   7.625   5.080
59297W        W24458  24.551   5.952  12.948
59298W        W24459  20.084   0.381   2.170
59299W        W24460  14.060  11.615   1.714
59300W        W24461  14.138   0.091   2.350
59301W        W24462  12.060  41.236  12.471
59302W        W24463  33.034   7.166  13.958
59303W        W24464  31.443   6.097  11.053
59304W        W24465  41.551  12.775   2.946
59305W        W24466  19.530  33.245   3.794
59306W        W24467  21.523   2.707   2.547
59307W        W24468  19.767  29.483   1.927
59308W        W24469  23.552  12.566   1.754
59309W        W24470  42.305   1.178   1.903
59310W        W24471   2.773   1.554  14.272
59311W        W24472  40.559  41.579  13.403
59312W        W24473  34.626   2.337  12.495
59313W        W24474  24.947   4.745   3.292
59314W        W24475  10.197   2.966  14.968
59315W        W24476  42.023   3.406  13.997
59316W        W24477   0.770   1.073  13.105
59317W        W24478  31.510  41.700  14.926
59318W        W24479  36.807  40.481  13.853
59319W        W24480  14.309  17.702  14.600
59320W        W24481   1.130  14.358  11.340
59321W        W24482  17.815  14.064   2.597
59322W        W24483  26.205  17.088  11.099
59323W        W24484  42.571  27.641  14.946
59324W        W24485  34.221   4.356   1.558
59325W        W24486  27.590  16.526  12.926
59326W        W24487  35.424  25.514   4.736
59327W        W24488   1.236  20.037   2.784
59328W        W24489  12.525  44.504  14.479
59329W        W24490  30.434  16.067  10.740
59330W        W24491  41.431  25.452   0.103
59331W        W24492  41.915  33.832   1.347
59332W        W24493  44.015  18.365  12.022
59333W        W24494  32.179  38.350   3.540
59334W        W24495  43.840  18.341  13.585
59335W        W24496   7.814  30.657   3.706
59336W        W24497  33.807  22.718   3.180
59337W        W24498  38.378  39.372   3.378
59338W        W24499  41.247  33.954   4.118
59339W        W24500  18.594   8.829  12.795
59340W        W24501  34.854  34.104  11.520
59341W        W24502   1.793  44.361  13.332
59342W        W24503  24.467  17.682  13.297
59343W        W24504  35.120  35.454  13.375
59344W        W24505  29.083   9.582  13.947
59345W        W24506   1.458  38.607   0.819
59346W        W24507  39.381  44.960  13.010
59347W        W24508  34.460  24.100  10.377
59348W        W24509  17.106  28.620   3.710
59349W        W24510  37.483  17.908  14.969
59350W        W24511   5.040  26.707   1.054
59351W        W24512  21.087  29.237   3.649
59352W        W24513  32.210   4.743   1.015
59353W        W24514  25.451  19.395  11.947
59354W        W24515  28.788  24.770  11.601
59355W        W24516  28.474  17.972  11.175
59356W        W24517  18.677  40.898  14.484
59357W        W24518  29.940  35.077   3.081
59358W        W24519  30.060  29.754   2.336
59359W        W24520  35.529  43.216  13.521
59360W        W24521  35.374  13.629  10.727
59361W        W24522   4.329  36.445   4.635
59362W        W24523  19.348   3.806  11.868
59363W        W24524  12.050   6.795   2.565
59364W        W24525  14.330  32.308   3.190
59365W        W24526  25.234  28.190  10.672
59366W        W24527  43.697  24.059   0.916
59367W        W24528  39.803  19.750  11.967
59368W        W24529  17.054   3.950   4.382
59369W        W24530  11.741  42.026  12.662
59370W        W24531  33.535  20.380  11.976
59371W        W24532   4.814   6.716  11.961
59372W        W24533  40.388   5.622  14.566
59373W        W24534  43.874  34.606   4.647
59374W        W24535   9.428  38.524  14.433
59375W        W24536  23.177   2.155   1.308
59376W        W24537  24.643  44.497   4.773
59377W        W24538  22.219  43.695  11.131
59378W        W24539  28.000  27.611  14.424
59379W        W24540   8.715  30.921  14.293
59380W        W24541  27.074  32.608   3.853
59381W        W24542   5.369  11.695   3.278
59382W        W24543  42.775  41.523   3.977
59383W        W24544   6.246  37.966   3.115
59384W        W24545  16.795  14.021   3.139
59385W        W24546  39.959  31.236  14.781
59386W        W24547  41.368  13.625   0.795
59387W        W24548   5.974  33.849   4.149
59388W        W24549  24.409  29.485  12.982
59389W        W24550   6.586  17.180   3.639
59390W        W24551  29.093  39.556   4.254
59391W        W24552  38.517  14.115  11.518
59392W        W24553   2.964   5.506  11.836
59393W        W24554  38.486   5.984   2.795
59394W        W24555  44.285  25.428   1.478
59395W        W24556  21.260  27.958  11.123
59396W        W24557   7.745  10.282   3.575
59397W        W24558  38.943  38.836  11.258
59398W        W24559  11.056  33.469   0.398
59399W        W24560   1.311   2.993   0.943
59400W        W24561   8.171  15.385   3.771
59401W        W24562  23.611   1.720  14.291
59402W        W24563  41.876  20.273   0.450
59403W        W24564  34.067  36.624   0.419
59404W        W24565  39.879  30.129   2.264
59405W        W24566  16.897  23.291   0.881
59406W        W24567  38.443  19.194  10.698
59407W        W24568  26.139  29.211   2.365
59408W        W24569  33.739  31.441  11.550
59409W        W24570  10.834   1.287   4.797
59410W        W24571  38.629  15.368   0.951
59411W        W24572  11.152   6.741   3.692
59412W        W24573   8.914  42.146  11.137
59413W        W24574  21.190  30.438  11.776
59414W        W24575  27.405  24.370   5.351
59415W        W24576  24.620  11.723  13.984
59416W        W24577   2.743  34.408   0.706
59417W        W24578  19.662  43.873   3.862
59418W        W24579  41.931   5.769   1.618
59419W        W24580  15.966  16.765  10.695
59420W        W24581  17.033  44.727  12.896
59421W        W24582   9.489  42.876  10.664
59422W        W24583   9.148   7.864   2.017
59423W        W24584  37.547  30.512  12.489
59424W        W24585  18.176  19.321   1.316
59425W        W24586   5.370  12.123   4.676
59426W        W24587  13.697  39.563  10.667
59427W        W24588  25.558   4.734  12.310
59428W        W24589   6.961  15.733   4.186
59429W        W24590  22.096  33.182  10.688
59430W        W24591  19.071   7.285  12.646
59431W        W24592  38.797  31.123   1.911
59432W        W24593  35.917   0.888  10.814
59433W        W24594  20.789  13.671   2.884
59434W        W24595  32.192  13.773  12.145
59435W        W24596   4.174  10.684   4.137
59436W        W24597   2.714  35.453  12.153
59437W        W24598  38.485  26.257   2.319
59438W        W24599  41.904  37.148   0.739
59439W        W24600  18.315  32.492  12.627
59440W        W24601   4.414  26.230  14.893
59441W        W24602  25.719  40.976   0.711
59442W        W24603  29.677  14.166  14.706
59443W        W24604  27.811  21.707  12.097
59444W        W24605  20.591  41.240  14.769
59445W        W24606  33.437   6.021  10.947
59446W        W24607  19.755  23.480   4.503
59447W        W24608  16.848  42.052   2.327
59448W        W24609   0.523  25.067  11.133
59449W        W24610  22.443  18.198  12.997
59450W        W24611  42.768  34.238   1.964
59451W        W24612  16.764   2.853  10.417
59452W        W24613  17.471   5.683  11.976
59453W        W24614   8.160  31.061  13.932
59454W        W24615   4.001  22.649   3.684
59455W        W24616  43.846   0.800   0.388
59456W        W24617   9.814  13.500   4.140
59457W        W24618  18.694  37.573  14.238
59458W        W24619  39.869  35.978  14.022
59459W        W24620  31.020  28.383  14.538
59460W        W24621  14.250  17.644  10.789
59461W        W24622  36.617  16.588   0.456
59462W        W24623  24.968  28.969   3.385
59463W        W24624   6.211  32.591  12.957
59464W        W24625  15.739  21.906   4.625
59465W        W24626  31.466  30.454  12.375
59466W        W24627  22.227  28.074  10.393
59467W        W24628   3.165  40.521  11.531
59468W        W24629   3.218  41.281   2.392
59469W        W24630   1.861  40.838  12.202
59470W        W24631  38.314  16.622   4.145
59471W        W24632  14.813  40.110   1.223
59472W        W24633   8.283  13.280   1.659
59473W        W24634  28.165  26.070  12.073
59474W        W24635  11.295  39.455  11.654
59475W        W24636  26.011  32.471   0.469
59476W        W24637   7.660  12.652  13.003
59477W        W24638  18.185  31.540  11.656
59478W        W24639  38.978  42.281  14.624
59479W        W24640  17.238   3.420  14.450
59480W        W24641  11.248  28.953   1.321
59481W        W24642  34.616  42.559  12.893
59482W        W24643  18.152  11.445  13.537
59483W        W24644  25.648   9.159   1.848
59484W        W24645  35.713  14.122  12.504
59485W        W24646  40.102  31.321  11.185
59486W        W24647  29.562  43.765  14.362
59487W        W24648  20.776  17.424  11.681
59488W        W24649   4.749  37.061   2.822
59489W        W24650  15.368   3.253  11.877
59490W        W24651  28.631  15.391  11.194
59491W        W24652  34.014  42.864  14.742
59492W        W24653  33.591  32.311   0.759
59493W        W24654  15.687  16.921   2.696
59494W        W24655   0.212  22.444   3.781
59495W        W24656  11.806   5.907   1.837
59496W        W24657  21.782  24.532  14.359
59497W        W24658  22.001  39.367  11.508
59498W        W24659   0.330  41.082   1.485
59499W        W24660   3.931   2.911  11.891
59500W        W24661  39.874  43.074  10.695
59501W        W24662  34.868  30.125   2.812
59502W        W24663  38.601  22.641  13.273
59503W        W24664  16.108  20.821  12.450
59504W        W24665   7.395  36.460  13.533
59505W        W24666  12.426  15.404   4.459
59506W        W24667   5.824  27.799  12.866
59507W        W24668  40.579   1.771   2.563
59508W        W24669  20.662   6.329   3.917
59509W        W24670   3.747  17.347   1.788
59510W        W24671  42.853   2.092  12.094
59511W        W24672  21.981  30.685  14.264
59512W        W24673  41.942  25.957  12.541
59513W        W24674  18.509  42.439  14.439
59514W        W24675   2.754  11.181   4.119
59515W        W24676   9.953  19.648  10.674
59516W        W24677  39.324  38.131   2.036
59517W        W24678   9.793  31.667   0.733
59518W        W24679  28.081   5.303  14.533
59519W        W24680  41.352  35.466   4.597
59520W        W24681  14.711   6.295  14.483
59521W        W24682   0.898   9.622   0.909
59522W        W24683  33.899  16.321   2.170
59523W        W24684  14.769  22.533  14.734
59524W        W24685   5.449   4.618  12.458
59525W        W24686  22.174  28.685  12.814
59526W        W24687   4.311  24.768  13.059
59527W        W24688  30.470  29.804   3.490
59528W        W24689  41.315   0.168  10.649
59529W        W24690  43.768  11.839  12.178
59530W        W24691  20.605  30.800  12.478
59531W        W24692  37.098  17.585   2.704
59532W        W24693  34.088   2.274  12.086
59533W        W24694  17.701  23.613   4.106
59534W        W24695  33.314  42.397   2.203
59535W        W24696   9.260   1.703  11.141
59536W        W24697  24.875  14.402   0.364
59537W        W24698  26.722  19.618  14.845
59538W        W24699  36.934  33.677   0.381
59539W        W24700   6.704   5.227  14.361
59540W        W24701  26.048  28.773  11.303
59541W        W24702   9.319  30.047  12.153
59542W        W24703  28.879  30.329   2.653
59543W        W24704  10.600  15.374   4.824
59544W        W24705   0.590   0.059  12.896
59545W        W24706  44.905  22.812  12.815
59546W        W24707   6.418  13.918   2.750
59547W        W24708   1.467   1.971   1.101
59548W        W24709  13.321  25.116   3.175
59549W        W24710  35.799  43.490   4.879
59550W        W24711   4.796   1.950   4.119
59551W        W24712  16.289  36.650  13.082
59552W        W24713  10.263  40.872  11.078
59553W        W24714  39.797  39.393  11.223
59554W        W24715  42.779   5.695   1.037
59555W        W24716  20.814   7.486  14.697
59556W        W24717  11.159  27.292   2.854
59557W        W24718   4.043  31.427  10.698
59558W        W24719  32.943   6.803  10.655
59559W        W24720  38.306  44.256  13.236
59560W        W24721   4.436  38.932   3.723
59561W        W24722  34.457   9.361  11.603
59562W        W24723  37.587  28.501   0.438
59563W        W24724  22.439   9.971   4.927
59564W        W24725  29.937  28.966   1.211
59565W        W24726   3.875  42.500   2.317
59566W        W24727  41.529  17.826   3.199
59567W        W24728  38.880  15.114   0.224
59568W        W24729   1.743  17.790   3.209
59569W        W24730  26.322  23.466   1.215
59570W        W24731  30.542  33.633   2.834
59571W        W24732   8.771  34.798   1.252
59572W        W24733   0.532   9.687   4.092
59573W        W24734  24.012  37.532  11.511
59574W        W24735   7.307   9.805   4.203
59575W        W24736   5.012  28.909   0.761
59576W        W24737  44.404  39.905   3.408
59577W        W24738   4.591  36.124  11.207
59578W        W24739  11.371  14.305  13.807
59579W        W24740  32.668   9.449  14.898
59580W        W24741  40.349  43.213   1.104
59581W        W24742   2.386  44.267  10.353
59582W        W24743   2.543   0.008   2.362
59583W        W24744   6.826  12.130  11.943
59584W        W24745  32.625   5.225  13.035
59585W        W24746  24.963  12.409  13.412
59586W        W24747  31.415  18.498   2.395
59587W        W24748   8.860  21.635   3.692
59588W        W24749   3.931  43.823  14.497
59589W        W24750  32.074   6.371   0.497
59590W        W24751  43.705  10.728  13.040
59591W        W24752   2.411  26.437  12.499
59592W        W24753   5.702  14.160   3.594
59593W        W24754   1.483  12.293   4.495
59594W        W24755  24.584  11.879  11.850
59595W        W24756   5.300  32.934  14.399
59596W        W24757  31.561  41.312   2.751
59597W        W24758  23.467  12.872   0.778
59598W        W24759  33.545  31.569   2.145
59599W        W24760  11.440  12.300   4.685
59600W        W24761  37.137  37.853  14.452
59601W        W24762   2.882  41.022   4.479
59602W        W24763  27.668   4.820   4.047
59603W        W24764  23.187  29.398  13.267
59604W        W24765   6.845  14.593  10.751
59605W        W24766  22.907  35.147  10.644
59606W        W24767  11.623   8.763   2.450
59607W        W24768   8.137   2.558   4.856
59608W        W24769  13.308   9.902   2.655
59609W        W24770  12.127  10.416  11.475
59610W        W24771  13.135   4.870   3.199
59611W        W24772   2.390  15.413  10.977
59612W        W24773  10.182  28.402  10.721
59613W        W24774  38.485  39.509   2.388
59614W        W24775   5.819  34.707  13.317
59615W        W24776  43.949   7.784  11.679
59616W        W24777   3.250  22.937   3.066
59617W        W24778   4.915   9.875  12.023
59618W        W24779  13.124  16.716   2.495
59619W        W24780  13.450  44.216   1.762
59620W        W24781  20.240   8.214  13.614
59621W        W24782  22.906  34.648   2.830
59622W        W24783  17.556   0.238   4.547
59623W        W24784  23.034  15.083  12.983
59624W        W24785  40.887  19.654  11.150
59625W        W24786   9.713  42.373   3.575
59626W        W24787  11.575   9.705   3.291
59627W        W24788   4.976  42.883  12.923
59628W        W24789   6.237  39.473  12.192
59629W        W24790  25.589  18.190   0.980
59630W        W24791  33.404  39.849   1.905
59631W        W24792  12.250  37.343   1.592
59632W        W24793  11.714  41.879  14.569
59633W        W24794   6.251   5.665  12.517
59634W        W24795  27.214  32.978   0.363
59635W        W24796   1.335   9.099   2.219
59636W        W24797   1.703  39.991   3.227
59637W        W24798  22.547  35.447  12.565
59638W        W24799  11.562  33.634   4.525
59639W        W24800  40.634   8.892   1.292
59640W        W24801   7.647  18.284   1.940
59641W        W24802  26.740  21.203   0.499
59642W        W24803  34.023  26.124   0.308
59643W        W24804  43.993  15.560  13.580
59644W        W24805   7.288  38.565  11.667
59645W        W24806  41.437  38.071  11.192
59646W        W24807  12.240   4.206   3.811
59647W        W24808  12.872  25.684   2.319
59648W        W24809  16.342  41.941   3.338
59649W        W24810  33.656  27.486  11.655
59650W        W24811  41.833  16.328   3.333
59651W        W24812  37.549   2.989  13.488
59652W        W24813  35.437  44.318   1.440
59653W        W24814  35.068   9.322   3.433
59654W        W24815  17.191  11.582  11.622
59655W        W24816   8.009  28.843   2.714
59656W        W24817  15.519  20.683   0.019
59657W        W24818   0.385  31.951   0.991
59658W        W24819  23.004  20.181   4.053
59659W        W24820  36.686   1.394   4.583
59660W        W24821  35.332  31.444   3.239
59661W        W24822  29.541   0.843   4.630
59662W        W24823  41.876   9.468   2.101
59663W        W24824  34.122  34.122  13.989
59664W        W24825  41.502   3.387  13.873
59665W        W24826  21.219  28.205   3.759
59666W        W24827   2.653  27.068  10.939
59667W        W24828  20.631  21.880  10.184
59668W        W24829  43.381   0.422   4.682
59669W        W24830  30.603   4.368  11.647
59670W        W24831  38.365   7.945   0.318
59671W        W24832  26.990   3.760   3.214
59672W        W24833   3.054  10.247  11.859
59673W        W24834  26.552  33.360  11.606
59674W        W24835  19.479  20.969   1.807
59675W        W24836   7.846  14.162  10.692
59676W        W24837  30.452  15.833   1.450
59677W        W24838  26.473  19.824   0.709
59678W        W24839  28.154  17.221  12.564
59679W        W24840  44.827  35.663  12.115
59680W        W24841  26.531  38.466   0.889
59681W        W24842  30.599  20.450  13.311
59682W        W24843  12.315  34.302   0.373
59683W        W24844  31.323   6.971  13.809
59684W        W24845  44.570  36.165  14.477
59685W        W24846   3.443  21.217  12.579
59686W        W24847  21.671  20.133  11.076
59687W        W24848  20.551   0.879   2.699
59688W        W24849   4.503  18.835  11.854
59689W        W24850  42.278  29.221   2.709
59690W        W24851  31.718  17.557  13.822
59691W        W24852  12.635  39.311   3.269
59692W        W24853  10.775   4.611  11.317
59693W        W24854   6.188  18.713   3.254
59694W        W24855  25.076   8.989  11.157
59695W        W24856  44.237  22.190  12.384
59696W        W24857  44.417  28.484  12.961
59697W        W24858   2.215  18.793   1.680
59698W        W24859  22.478  22.030  12.968
59699W        W24860  34.100   2.270  12.603
59700W        W24861  37.093   8.718  14.514
59701W        W24862  43.459  38.394  14.073
59702W        W24863  23.813  14.773   4.567
59703W        W24864  22.468  16.216  11.199
59704W        W24865  26.613  13.311   2.722
59705W        W24866  44.062  35.213  14.056
59706W        W24867  10.173  22.759  14.885
59707W        W24868  12.262  44.241   1.882
59708W        W24869  36.095   4.818  11.402
59709W        W24870   0.869  11.835  13.444
59710W        W24871  26.602  25.963   2.017
59711W        W24872  27.025  40.320  13.376
59712W        W24873  33.470   3.544  11.704
59713W        W24874  40.596  36.077   1.335
59714W        W24875  15.435   0.350  12.628
59715W        W24876  11.914  17.517   4.493
59716W        W24877  18.030   3.212  13.781
59717W        W24878  14.128   0.686  10.557
59718W        W24879   0.997  17.659   1.740
59719W        W24880  15.909  14.321   2.706
59720W        W24881  24.565  27.240   4.638
59721W        W24882  23.111  25.912  12.668
59722W        W24883  42.644  31.419  11.956
59723W        W24884  26.020   1.164  14.506
59724W        W24885  37.140  35.666  10.715
59725W        W24886  19.548  30.555   3.799
59726W        W24887  16.615  14.265  11.107
59727W        W24888   8.268  22.598   0.309
59728W        W24889  37.986  19.599   0.650
59729W        W24890  30.896  13.340   1.851
59730W        W24891  18.838  14.377   1.839
59731W        W24892   5.500  28.287  10.218
59732W        W24893  42.964   3.519   2.152
59733W        W24894  23.496  19.466  14.564
59734W        W24895  22.560  36.432   1.832
59735W        W24896   3.959  44.977   4.166
59736W        W24897  16.396   6.694  10.897
59737W        W24898  35.106  33.078  11.298
59738W        W24899   7.887  28.580  13.645
59739W        W24900  22.696  15.186   1.847
59740W        W24901   9.564  39.405   1.730
59741W        W24902  14.029   0.192  10.628
59742W        W24903   3.465  11.679   3.095
59743W        W24904   6.401  23.337  10.269
59744W        W24905  13.529  43.875   4.878
59745W        W24906  28.702  37.289  11.111
59746W        W24907  39.070  20.786   0.459
59747W        W24908  42.265  25.282   2.140
59748W        W24909  13.178  22.613   4.663
59749W        W24910  28.952   4.380  14.327
59750W        W24911  20.350  25.910  13.481
59751W        W24912  43.174   2.945   4.131
59752W        W24913  42.082   7.699  13.948
59753W        W24914  16.474  34.329   4.090
59754W        W24915   9.757  24.656   3.891
59755W        W24916  15.008   0.286  13.567
59756W        W24917  43.218  29.952   2.006
59757W        W24918  20.146  23.407   2.794
59758W        W24919   0.048   2.133  12.064
59759W        W24920  10.718  43.661   0.710
59760W        W24921  21.514   3.041   0.843
59761W        W24922  19.530  42.397  13.607
59762W        W24923  19.199  22.133   1.349
59763W        W24924  17.991  17.225   2.373
59764W        W24925  39.076  26.608   0.946
59765W        W24926   4.626  30.485   4.576
59766W        W24927  31.150  32.917  13.931
59767W        W24928  23.214   9.764  13.134
59768W        W24929  26.487  32.230  10.859
59769W        W24930  38.358   8.873   2.595
59770W        W24931  20.695  17.925   4.945
59771W        W24932   6.752  41.127   1.383
59772W        W24933  24.229   5.031  10.713
59773W        W24934   8.932   7.274   0.392
59774W        W24935  44.742  42.384   2.831
59775W        W24936   5.722  30.021   0.778
59776W        W24937  40.430  41.317   2.285
59777W        W24938  39.831  30.329   1.424
59778W        W24939  21.221   9.051   1.727
59779W        W24940   1.235   1.779   2.122
59780W        W24941   2.210  35.730  14.364
59781W        W24942  27.681  44.376   3.582
59782W        W24943  10.466  10.315   3.022
59783W        W24944  26.667  14.480   0.409
59784W        W24945  11.758  31.702   2.302
59785W        W24946   5.726  10.559   3.245
59786W        W24947  28.197  43.322   4.061
59787W        W24948  44.018  24.422  13.529
59788W        W24949  35.085  15.287  13.006
59789W        W24950  25.109  16.462  14.438
59790W        W24951  38.317  23.226   2.712
59791W        W24952  13.232  24.637   3.358
59792W        W24953  12.659  22.697  13.995
59793W        W24954  16.339  29.494  13.902
59794W        W24955   0.468  35.332  13.872
59795W        W24956  29.614  37.478  12.692
59796W        W24957  32.284   3.218   4.336
59797W        W24958  39.859  10.665   4.380
59798W        W24959   4.836   5.504  12.850
59799W        W24960  27.068  36.573   1.130
59800W        W24961  27.491  29.324   4.609
59801W        W24962  28.183  11.447   3.749
59802W        W24963  24.072  14.252   3.689
59803W        W24964   8.620  43.775   1.285
59804W        W24965  15.965  19.654   2.356
59805W        W24966  12.572  14.342   4.158
59806W        W24967  13.226   5.860   2.581
59807W        W24968   9.343  24.560   4.175
59808W        W24969   5.442  44.335   1.032
59809W        W24970  28.959   0.151   1.820
59810W        W24971  43.020   5.772   3.300
59811W        W24972  24.932   5.703   1.804
59812W        W24973  44.449   4.331  14.505
59813W        W24974  22.645  34.458   1.766
59814W        W24975  32.582   4.687   2.541
59815W        W24976  37.273   3.134   3.749
59816W        W24977  19.068  11.336   0.428
59817W        W24978  19.073   0.014   1.270
59818W        W24979  42.087  19.752  13.720
59819W        W24980   5.339  14.753   0.171
59820W        W24981  31.620  31.937   4.208
59821W        W24982  12.431  27.532   4.525
59822W        W24983  20.044   7.390   0.414
59823W        W24984  43.373  36.032   1.653
59824W        W24985  16.668  20.105   0.634
59825W        W24986  12.425   0.413   1.858
59826W        W24987  26.400   6.098  12.851
59827W        W24988  23.979   9.628  11.559
59828W        W24989  27.933  15.085  12.908
59829W        W24990  22.166   6.965  13.101
59830W        W24991   3.233   4.685  12.855
59831W        W24992  14.115   6.915   2.286
59832W        W24993   7.865  38.280   0.851
59833W        W24994   1.390  21.623  10.394
59834W        W24995  18.861  11.435  11.054
59835W        W24996  41.800   1.184  13.726
59836W        W24997   6.309   7.170  11.647
59837W        W24998  27.620  19.081   2.490
59838W        W24999  36.035  10.387   4.865
59839W        W25000  19.178   8.886   1.740
59840W        W25001   0.358  23.534  12.634
59841W        W25002   1.269  35.841  10.252
59842W        W25003  15.284   5.461  12.396
59843W        W25004   5.911  34.373  12.946
59844W        W25005   2.297  36.446   2.190
59845W        W25006   2.194  31.687  14.021
59846W        W25007  34.419  24.488   2.297
59847W        W25008   0.087   8.907  10.691
59848W        W25009  27.358  20.543  11.913
59849W        W25010  30.227  31.196   3.606
59850W        W25011  23.108  28.966  12.400
59851W        W25012  34.156  42.885   3.208
59852W        W25013  14.197  27.099   3.737
59853W        W25014  14.192  33.671   4.510
59854W        W25015  13.853  14.129   1.915
59855W        W25016  15.299  35.575  12.048
59856W        W25017  23.466  14.252   5.020
59857W        W25018  44.782  34.902   0.408
59858W        W25019   1.302  20.556  11.272
59859W        W25020   5.478  28.060   4.660
59860W        W25021  27.231  30.912   1.146
59861W        W25022   0.931  37.139  11.611
59862W        W25023  24.108  28.182   5.197
59863W        W25024  39.432  20.752   4.906
59864W        W25025  44.930  42.278   1.368
59865W        W25026  43.285  39.239   2.000
59866W        W25027  36.091  38.503   0.386
59867W        W25028  43.678   6.941  14.133
59868W        W25029  15.694  38.096  13.500
59869W        W25030  38.906  36.479   3.359
59870W        W25031   9.493  40.901  10.561
59871W        W25032   8.657  39.587  12.418
59872W        W25033   2.267  38.026   0.344
59873W        W25034  25.536  11.640   2.253
59874W        W25035  33.607  13.101  10.961
59875W        W25036  24.087  37.873   2.424
59876W        W25037  39.360  19.793  13.405
59877W        W25038  23.074   4.231   2.194
59878W        W25039  34.862  18.932  14.808
59879W        W25040   0.403  37.641  14.078
59880W        W25041  41.549   9.892  10.713
59881W        W25042  12.635  19.270   1.821
59882W        W25043  18.047  12.751   2.176
59883W        W25044  31.818  16.308  14.445
59884W        W25045  30.581  40.726   1.861
59885W        W25046  43.725  21.570   2.853
59886W        W25047  38.876  18.840  14.342
59887W        W25048   5.466   3.231   2.274
59888W        W25049   4.617  10.467   1.276
59889W        W25050  17.213  15.639  11.213
59890W        W25051  25.460  36.338   0.294
59891W        W25052  34.476   6.680   1.507
59892W        W25053  13.615   4.494   4.262
59893W        W25054   6.580  28.993   3.713
59894W        W25055  37.457  42.382  12.988
59895W        W25056   5.750  43.131   3.706
59896W        W25057   0.362  22.734   1.735
59897W        W25058  23.196   4.722   2.374
59898W        W25059  17.259  29.345  14.461
59899W        W25060  30.541   8.101   1.451
59900W        W25061  24.718  35.617  14.506
59901W        W25062   7.438  32.641  12.463
59902W        W25063  41.470  10.289   2.402
59903W        W25064  40.552   1.399   1.348
59904W        W25065  40.325   1.255  13.374
59905W        W25066  15.599   5.844  12.534
59906W        W25067  25.731  40.539  11.936
59907W        W25068  27.180  24.198  11.097
59908W        W25069  28.413  39.924   0.686
59909W        W25070  27.550   0.400   0.045
59910W        W25071   7.982   4.505   4.192
59911W        W25072  13.115   2.403   1.853
59912W        W25073  20.122  37.476  11.048
59913W        W25074  43.020  26.068  14.298
59914W        W25075   7.031  34.415  12.951
59915W        W25076  15.137  34.245   1.889
59916W        W25077   6.687   0.768   1.423
59917W        W25078   2.920  21.511   3.598
59918W        W25079   8.268  30.625  14.862
59919W        W25080  36.040  43.467   0.277
59920W        W25081  35.966  19.109   3.838
59921W        W25082   5.750  19.757  11.214
59922W        W25083  23.547  23.188  12.355
59923W        W25084  12.147   5.961  14.561
59924W        W25085  34.686  33.382   3.858
59925W        W25086  30.294  36.111  11.059
59926W        W25087  15.880  32.118  12.063
59927W        W25088  19.725  11.918  13.958
59928W        W25089   9.584  17.024  13.427
59929W        W25090  21.239   1.768   0.036
59930W        W25091   4.778  14.522   2.362
59931W        W25092  39.058  13.586  11.965
59932W        W25093  40.529   4.678  14.451
59933W        W25094  34.333  27.288  12.369
59934W        W25095   0.878   1.477  14.937
59935W        W25096  19.035   1.875   4.998
59936W        W25097  34.772   9.563  12.951
59937W        W25098   1.396  42.409  13.094
59938W        W25099   1.197  18.808  11.102
59939W        W25100  40.019  13.396  11.635
59940W        W25101  18.596  14.512   5.435
59941W        W25102   5.052  10.240   5.166
59942W        W25103  27.443  35.443  14.723
59943W        W25104   6.267  38.291   3.670
59944W        W25105   8.888  30.005  10.741
59945W        W25106   6.635  37.583  13.982
59946W        W25107  27.686  23.673   1.448
59947W        W25108  26.218  33.432   2.310
59948W        W25109  36.434  30.226   4.702
59949W        W25110  11.572   3.905  14.543
59950W        W25111  32.606  33.999   0.705
59951W        W25112  25.560  17.694  11.233
59952W        W25113  38.633  28.770   3.653
59953W        W25114  29.423  29.584  11.374
59954W        W25115  11.641  37.044   1.373
59955W        W25116  14.941   7.368  10.275
59956W        W25117  44.758  37.922  13.917
59957W        W25118   0.716  28.434   2.669
59958W        W25119  24.043  13.579   1.149
59959W        W25120   5.162  24.584   0.423
59960W        W25121   3.123  44.998   2.896
59961W        W25122  28.423  29.072   0.279
59962W        W25123  20.156  43.493  12.030
59963W        W25124  31.633   5.887   4.791
59964W        W25125  10.704  11.955   0.413
59965W        W25126   7.206   7.656   1.759
59966W        W25127  31.442  26.408   3.738
59967W        W25128   1.306  15.321  14.808
59968W        W25129  22.536  11.593   0.055
59969W        W25130  29.515   1.934   4.610
59970W        W25131  10.753   5.743   3.970
59971W        W25132  22.778   3.276  12.857
59972W        W25133  38.611  27.637  14.942
59973W        W25134  21.291  17.595   2.694
59974W        W25135  32.662  14.782   4.934
59975W        W25136  30.451  31.443  12.034
59976W        W25137  42.102  34.388  11.740
59977W        W25138  31.611  31.934  12.167
59978W        W25139  14.680  27.579  10.754
59979W        W25140   6.715  29.049  11.055
59980W        W25141  12.766   4.225  13.514
59981W        W25142   6.303  10.436   2.090
59982W        W25143   0.465  37.791   1.889
59983W        W25144   2.970  41.272  14.770
59984W        W25145  26.101  29.963  14.440
59985W        W25146   4.326  44.331  14.056
59986W        W25147  16.850  20.158   3.605
59987W        W25148  44.794  34.389   0.510
59988W        W25149  43.041   7.336   0.359
59989W        W25150   3.792  23.200   0.514
59990W        W25151  40.380  31.091   3.145
59991W        W25152  23.306  10.679  12.859
59992W        W25153  19.218  36.037  13.462
59993W        W25154  43.600  34.196   5.463
59994W        W25155   7.180  18.404  11.495
59995W        W25156  40.473  19.078   0.972
59996W        W25157   3.329  41.914   3.556
59997W        W25158  40.096  27.557   1.819
59998W        W25159  29.509  37.741   4.522
59999W        W25160  17.222  44.814   0.934
60000W        W25161  18.105  29.997   3.286
60001W        W25162  10.578  14.054  11.640
60002W        W25163  26.480  40.070  14.262
60003W        W25164  24.776   4.493   1.652
60004W        W25165  12.818   2.880  14.779
60005W        W25166   9.191  35.904   4.107
60006W        W25167  21.558  37.561  13.512
60007W        W25168   0.205  11.290   4.662
60008W        W25169  38.977  25.277  14.781
60009W        W25170   0.591   1.120   0.282
60010W        W25171  21.354   8.853  13.433
60011W        W25172  16.420  33.023   4.650
60012W        W25173   9.080  30.862  13.933
60013W        W25174  28.471  14.369   2.793
60014W        W25175  39.264   5.407   1.646
60015W        W25176   1.979  38.387   0.025
60016W        W25177  23.726  19.108   9.495
60017W        W25178  27.011  38.074   1.270
60018W        W25179  16.114  26.060  11.423
60019W        W25180  43.893   2.499   3.224
60020W        W25181  15.625  21.537   3.366
60021W        W25182  28.951  29.891   0.019
60022W        W25183  16.574  10.858  14.895
60023W        W25184  33.948  37.452   3.103
60024W        W25185  23.531  15.637  10.366
60025W        W25186   2.934  40.524  13.822
60026W        W25187  31.242  25.012  14.938
60027W        W25188  29.640  40.453  12.456
60028W        W25189   9.224   0.213  11.644
60029W        W25190  30.917  30.748  13.522
60030W        W25191  15.107  34.600  10.726
60031W        W25192  40.009   1.202   4.047
60032W        W25193  35.549  40.271   5.183
60033W        W25194  25.722  23.863  11.761
60034W        W25195  30.328  27.042  14.526
60035W        W25196  37.497  28.990  11.562
60036W        W25197  37.519  21.039  14.982
60037W        W25198  33.538   0.930   3.813
60038W        W25199  34.370  12.761   4.800
60039W        W25200  13.461  14.356  11.073
60040W        W25201  17.099  23.545  11.622
60041W        W25202  42.752  32.897  14.845
60042W        W25203   8.271  25.653  13.752
60043W        W25204  31.184   3.064   1.241
60044W        W25205  28.105  23.032  11.156
60045W        W25206  26.411   2.398  11.580
60046W        W25207  28.995  18.631  14.612
60047W        W25208  11.427   0.915  12.974
60048W        W25209  19.004  12.203   0.737
60049W        W25210  32.362  13.608   4.309
60050W        W25211  20.735  30.362  10.786
60051W        W25212  24.636   0.657   4.294
60052W        W25213   9.110  10.141  13.148
60053W        W25214  36.781  34.462  14.871
60054W        W25215   6.408  27.963  12.822
60055W        W25216  13.399  34.531   1.347
60056W        W25217   1.840  20.693   2.839
60057W        W25218  18.220  16.236   0.840
60058W        W25219   1.851  39.601  13.279
60059W        W25220  30.992  33.569   4.135
60060W        W25221  20.674  27.456  14.439
60061W        W25222  37.326  36.813  12.916
60062W        W25223  37.051   0.415   0.964
60063W        W25224   4.672  37.530   2.151
60064W        W25225  13.069  16.325   4.619
60065W        W25226  38.064  40.375   4.541
60066W        W25227  31.314   9.839  12.461
60067W        W25228  10.487  37.995   1.256
60068W        W25229   6.815   7.159  11.241
60069W        W25230   9.236  33.547  11.224
60070W        W25231  41.763  44.548   4.096
60071W        W25232  24.519  27.897   2.377
60072W        W25233  15.429  16.056  13.999
60073W        W25234  43.927   6.824  12.600
60074W        W25235  16.958  40.975   0.109
60075W        W25236  20.818  19.143  13.282
60076W        W25237  19.364  38.538  12.214
60077W        W25238  38.084  11.583   2.201
60078W        W25239  36.009  35.168   0.243
60079W        W25240  22.053   4.883  11.222
60080W        W25241  32.771  34.958   0.324
60081W        W25242  35.358  26.532   2.610
60082W        W25243   1.374  15.971   4.522
60083W        W25244  42.935  37.957   0.487
60084W        W25245   1.354  22.560  10.787
60085W        W25246  32.309  13.484  14.453
60086W        W25247   4.861  17.322   4.604
60087W        W25248   6.757  30.255   4.194
60088W        W25249   6.162  13.295   0.420
60089W        W25250   9.656  35.563  11.557
60090W        W25251  25.039  12.676  12.361
60091W        W25252  23.114  31.656  10.683
60092W        W25253  29.622  21.988   5.200
60093W        W25254  26.470  13.166  13.053
60094W        W25255  44.157  37.162   3.473
60095W        W25256  14.746   0.229   3.429
60096W        W25257  32.424   4.947  11.758
60097W        W25258  33.496   6.043  13.824
60098W        W25259  38.431   3.188   1.387
60099W        W25260  32.865  32.303   3.333
60100W        W25261  26.975  24.651   2.816
60101W        W25262  34.868  12.933   1.408
60102W        W25263   0.795  25.195  12.577
60103W        W25264  12.820  35.510   2.111
60104W        W25265   4.526   7.953   0.463
60105W        W25266  31.795   5.219   2.769
60106W        W25267   1.941  30.117   4.056
60107W        W25268   6.780  13.119  14.800
60108W        W25269   9.421   5.029   4.478
60109W        W25270   7.286   8.688  14.759
60110W        W25271  41.800  31.969   2.424
60111W        W25272  40.882  10.003   1.519
60112W        W25273   5.717  25.731  11.253
60113W        W25274  26.649  29.962  14.397
60114W        W25275  34.857  37.729  11.924
60115W        W25276  14.596  44.214  11.561
60116W        W25277   3.328  25.980  11.677
60117W        W25278   0.063  43.337   4.498
60118W        W25279   4.993   8.754  13.021
60119W        W25280   4.163  15.188  13.416
60120W        W25281  36.526  37.841   4.255
60121W        W25282  25.110  30.544  14.738
60122W        W25283  17.124  10.277   3.613
60123W        W25284  38.904   1.471  14.546
60124W        W25285  40.633  22.073   3.181
60125W        W25286  17.031  35.785  11.573
60126W        W25287  36.387  21.121   0.498
60127W        W25288  36.013  28.422   5.029
60128W        W25289  34.359  36.502  13.579
60129W        W25290   5.187  44.442  10.614
60130W        W25291  24.425  33.267  11.093
60131W        W25292   6.708  15.264   4.018
60132W        W25293  17.567  34.656  12.016
60133W        W25294   7.860  17.607  11.658
60134W        W25295  12.150  40.417  13.328
60135W        W25296  44.563  10.824   2.343
60136W        W25297  15.098   2.501   1.284
60137W        W25298  21.090  31.086  13.322
60138W        W25299  43.992   6.649   3.817
60139W        W25300  32.347  15.243  11.233
60140W        W25301   8.407  37.040   3.259
60141W        W25302   4.423  17.498   3.043
60142W        W25303  12.247   3.989  10.756
60143W        W25304  28.527  26.131  13.374
60144W        W25305  22.667   4.688  12.705
60145W        W25306  41.514   9.373   3.611
60146W        W25307  35.515  16.642   2.459
60147W        W25308   1.350   5.833   4.639
60148W        W25309  13.240  13.622  12.175
60149W        W25310   0.180  43.187  11.746
60150W        W25311   3.869  41.159   0.623
60151W        W25312   8.306  21.717  12.981
60152W        W25313  29.502  19.803   0.258
60153W        W25314  32.745  37.417   0.221
60154W        W25315   9.732  27.500   3.259
60155W        W25316  37.091  13.256  12.389
60156W        W25317  32.125  30.540  11.158
60157W        W25318  35.584  21.369   4.029
60158W        W25319  12.873  33.064  11.574
60159W        W25320   5.601  29.031   3.422
60160W        W25321  35.863   5.362  13.420
60161W        W25322   2.880  11.932   5.530
60162W        W25323   4.536  31.563  10.690
60163W        W25324  28.471  33.689   1.646
60164W        W25325   2.022   9.329  14.809
60165W        W25326  11.396   2.052   0.998
60166W        W25327  38.387  17.645  13.984
60167W        W25328  30.924   8.142  11.562
60168W        W25329  36.978  25.411   1.915
60169W        W25330   0.352  19.648   0.954
60170W        W25331   9.515   3.211  12.468
60171W        W25332  30.777  20.714   3.304
60172W        W25333  31.449  29.496   3.219
60173W        W25334  29.786   8.811   1.816
60174W        W25335  18.096  31.182  12.878
60175W        W25336  36.347  24.598  12.832
60176W        W25337  11.048  27.073  11.561
60177W        W25338  21.618  18.640   2.614
60178W        W25339  36.805   1.871  12.346
60179W        W25340  44.889  35.494   1.076
60180W        W25341  34.037  10.704  11.604
60181W        W25342  17.516   4.401  11.089
60182W        W25343   5.471  23.352   3.740
60183W        W25344  28.457  24.266   0.861
60184W        W25345   8.062  12.980   0.001
60185W        W25346   6.743  19.109   0.772
60186W        W25347  16.729  41.567  11.584
60187W        W25348  17.364  30.408   0.261
60188W        W25349  43.609  41.957  10.576
60189W        W25350  10.885  15.111  12.340
60190W        W25351  13.723  43.070   1.011
60191W        W25352  26.851  34.426   4.793
60192W        W25353  19.682  21.549  12.448
60193W        W25354   3.413   6.772  12.113
60194W        W25355  34.831  35.929  12.012
60195W        W25356  41.991  42.446  14.034
60196W        W25357  15.897   9.766   4.166
60197W        W25358  22.151  25.100  11.665
60198W        W25359  34.451  36.400   2.381
60199W        W25360  14.205  17.820   3.784
60200W        W25361   6.170  44.040   2.674
60201W        W25362  30.216  11.894   3.289
60202W        W25363  33.543   6.172  10.453
60203W        W25364  43.006  43.092  12.083
60204W        W25365   9.919  23.522   1.691
60205W        W25366  15.849  13.408   0.369
60206W        W25367   8.683  34.860  13.005
60207W        W25368  33.974   0.339  11.092
60208W        W25369  13.365  15.506  10.471
60209W        W25370   5.672   2.472   0.828
60210W        W25371  41.025  30.252  11.779
60211W        W25372  43.749   5.606   2.821
60212W        W25373  35.268   0.972  14.768
60213W        W25374  41.072  40.848   2.754
60214W        W25375   8.153  39.899  13.071
60215W        W25376  21.252  22.083   3.501
60216W        W25377  27.644  15.628  10.676
60217W        W25378   7.745   8.217  13.510
60218W        W25379  23.622   9.710   1.821
60219W        W25380  38.069   2.818   2.249
60220W        W25381  13.032  24.576   0.836
60221W        W25382   0.489   7.684   1.349
60222W        W25383  25.636  29.523   1.642
60223W        W25384  11.914  39.938   3.195
60224W        W25385  12.376  42.032  12.769
60225W        W25386  16.247  22.009  10.749
60226W        W25387  34.453  26.037   4.048
60227W        W25388  19.640  32.720   0.224
60228W        W25389   2.550  10.308  11.972
60229W        W25390  18.742  29.594  12.949
60230W        W25391   7.689   0.248  11.154
60231W        W25392  12.412  39.036  13.357
60232W        W25393  14.089   3.438   0.679
60233W        W25394  44.429  15.864  14.478
60234W        W25395  41.864   2.925   0.182
60235W        W25396   9.895   7.423   2.219
60236W        W25397  15.204  15.874  10.625
60237W        W25398  22.886  11.635   5.449
60238W        W25399   9.317  43.187   0.803
60239W        W25400  15.769   3.816   1.189
60240W        W25401   8.349  39.733  14.888
60241W        W25402  20.234  14.275   0.367
60242W        W25403  17.200  25.894  13.885
60243W        W25404  39.200  33.563   2.465
60244W        W25405  13.681   3.191   3.187
60245W        W25406   4.595   4.465  11.768
60246W        W25407  43.965   7.283  13.824
60247W        W25408  39.303  37.139  10.563
60248W        W25409  11.188  10.115  13.334
60249W        W25410   2.146  13.319   0.862
60250W        W25411  38.593   5.394  12.504
60251W        W25412  25.755  18.324   1.475
60252W        W25413  16.472  13.903  10.752
60253W        W25414  20.151  13.218   3.583
60254W        W25415   7.305   8.714   1.829
60255W        W25416  20.534  34.114  14.381
60256W        W25417  26.031   2.888  11.114
60257W        W25418  22.237  35.150  11.280
60258W        W25419  15.188  38.814   3.759
60259W        W25420  22.048  19.892  13.632
60260W        W25421  38.334  15.702  13.609
60261W        W25422  17.219  23.797   4.012
60262W        W25423   3.904  28.946  14.827
60263W        W25424  43.862  36.443   0.811
60264W        W25425  44.063   8.887  10.824
60265W        W25426  20.962  24.681  14.023
60266W        W25427  13.379  32.733  14.528
60267W        W25428  35.831   6.838   2.576
60268W        W25429   9.808  28.262   2.308
60269W        W25430  33.616  28.647  11.612
60270W        W25431   6.774  13.869   3.638
60271W        W25432  11.128  25.528   2.372
60272W        W25433  39.553   6.764  12.736
60273W        W25434  18.722  35.306  13.287
60274W        W25435  34.443  24.984  10.456
60275W        W25436  22.175  28.184   0.295
60276W        W25437  44.784  37.705   1.655
60277W        W25438  32.161  40.341   3.359
60278W        W25439  29.029  18.167   3.242
60279W        W25440   5.357  21.694  13.737
60280W        W25441   0.808  31.790  10.446
60281W        W25442  41.289  42.605   1.790
60282W        W25443   0.553  37.485  11.493
60283W        W25444  32.454  14.251   0.946
60284W        W25445  13.204  18.635   1.475
60285W        W25446  14.835  10.751  11.963
60286W        W25447  34.354  41.264  12.842
60287W        W25448  18.560  33.792  12.516
60288W        W25449  26.782  29.759  11.567
60289W        W25450  36.251  38.263  12.039
60290W        W25451  26.272  22.653   0.722
60291W        W25452  35.351   2.269   3.228
60292W        W25453   5.798  32.629  12.057
60293W        W25454  32.688  33.769  11.124
60294W        W25455   6.803   7.652   3.269
60295W        W25456   0.250  41.891  14.277
60296W        W25457  42.349  42.386  11.794
60297W        W25458  10.249  31.509   1.011
60298W        W25459  35.882  17.696   4.037
60299W        W25460  21.195   3.479  13.649
60300W        W25461  44.660  20.278   3.525
60301W        W25462  40.276   2.927  11.054
60302W        W25463  17.764  31.599   2.044
60303W        W25464  36.994   3.231   1.636
60304W        W25465  27.466  40.793  14.395
60305W        W25466   5.435  30.936   2.388
60306W        W25467   0.805  23.745  12.436
60307W        W25468   9.576  12.611   3.344
60308W        W25469  32.618   7.873   1.776
60309W        W25470  32.934  38.438  11.931
60310W        W25471  18.378  37.267  13.448
60311W        W25472   6.365  32.833  12.482
60312W        W25473   4.130  41.239   2.468
60313W        W25474  24.697  39.805   1.275
60314W        W25475   6.880   0.535   2.629
60315W        W25476  44.588  25.442  12.870
60316W        W25477  43.957  37.112   1.237
60317W        W25478  36.809  19.329   0.031
60318W        W25479  43.553  11.662  11.240
60319W        W25480   6.918  11.820   2.939
60320W        W25481  26.698   0.997   0.675
60321W        W25482   4.732  13.847  12.457
60322W        W25483  22.282  11.869   3.390
60323W        W25484  33.003  34.577  12.401
60324W        W25485  14.377  33.988   2.853
60325W        W25486  40.793  21.991  12.069
60326W        W25487   0.168  30.422   0.290
60327W        W25488   7.320  40.459   4.069
60328W        W25489  29.006   8.295  11.574
60329W        W25490  28.174  15.818  10.617
60330W        W25491   9.594  25.698   2.869
60331W        W25492   9.992  18.470   2.833
60332W        W25493  35.747  30.461  11.955
60333W        W25494  33.434  28.197  12.164
60334W        W25495  19.224  34.286   2.247
60335W        W25496  19.672  43.343  12.198
60336W        W25497  36.529   8.662   4.120
60337W        W25498   7.223  12.120  11.125
60338W        W25499  14.106  40.516   4.474
60339W        W25500   0.513  18.256  12.823
60340W        W25501  38.889   8.739   1.758
60341W        W25502   2.625  37.568   4.599
60342W        W25503  39.640  26.990  12.471
60343W        W25504  27.491  33.473   4.608
60344W        W25505  39.470  10.891   2.074
60345W        W25506   2.792   9.294   4.137
60346W        W25507  31.270  24.319  13.795
60347W        W25508  40.807   1.758   4.058
60348W        W25509   6.416  43.972   3.133
60349W        W25510  18.551  33.101   4.913
60350W        W25511  10.297  17.438   2.957
60351W        W25512  22.194  35.636  14.439
60352W        W25513  41.848  21.015   1.993
60353W        W25514  35.593  27.450   4.512
60354W        W25515  42.965   6.487   1.444
60355W        W25516   9.662  15.724   1.274
60356W        W25517   5.555  12.770   3.838
60357W        W25518   9.353   4.836  11.541
60358W        W25519  37.072  14.121  13.812
60359W        W25520  22.303  10.463   1.116
60360W        W25521  33.928  21.617  13.814
60361W        W25522  23.940  34.035   3.363
60362W        W25523   5.168  30.005   2.749
60363W        W25524  10.119  25.913  10.683
60364W        W25525  15.051   0.538  14.398
60365W        W25526  37.494  18.462   4.546
60366W        W25527  28.915  18.294   0.349
60367W        W25528  14.125  13.254   0.326
60368W        W25529  44.340  25.219   4.274
60369W        W25530  14.750  41.522   0.434
60370W        W25531   3.943  10.111  14.746
60371W        W25532  28.046   9.872   0.366
60372W        W25533  25.191  13.507  13.409
60373W        W25534  30.611  13.514   4.659
60374W        W25535  30.317  18.101   4.206
60375W        W25536  39.252  13.181  14.534
60376W        W25537  38.822   0.859  12.943
60377W        W25538  44.454  37.313  10.481
60378W        W25539  35.779  40.696  12.482
60379W        W25540  35.134  26.129  14.346
60380W        W25541   0.986  35.971   1.630
60381W        W25542  13.488   7.433  14.274
60382W        W25543  19.836  21.934  11.200
60383W        W25544  32.923  22.584   3.058
60384W        W25545  13.559  28.370   3.746
60385W        W25546   9.387  33.665   0.731
60386W        W25547  39.457   5.840  11.501
60387W        W25548  34.845  11.898  10.430
60388W        W25549   7.912   3.704   4.714
60389W        W25550  27.954   2.860   0.031
60390W        W25551   7.031   5.206   2.289
60391W        W25552  23.061  17.047   2.699
60392W        W25553  34.473   1.904  11.081
60393W        W25554  20.810   2.405   4.836
60394W        W25555   3.021   5.199   3.541
60395W        W25556  16.475  20.002  10.705
60396W        W25557  11.298  20.697   0.863
60397W        W25558  42.590  41.933  10.665
60398W        W25559  12.229  37.606  12.938
60399W        W25560  30.459  35.591   1.965
60400W        W25561   1.759  32.654   0.950
60401W        W25562   8.220  42.334   3.449
60402W        W25563  21.737  34.467   2.393
60403W        W25564  16.387  16.137  12.971
60404W        W25565  31.158  42.753   1.607
60405W        W25566  31.177   4.014   3.601
60406W        W25567  14.137   9.785   3.682
60407W        W25568   8.369  42.854   4.138
60408W        W25569  31.619  16.644   0.469
60409W        W25570  19.304  24.079   4.598
60410W        W25571   1.944  24.804  13.943
60411W        W25572  15.784  43.367   2.799
60412W        W25573   3.520  28.516   1.638
60413W        W25574   5.501  27.575   0.994
60414W        W25575  31.920  30.687  10.314
60415W        W25576  37.417  30.726  13.862
60416W        W25577  16.741  42.311  11.089
60417W        W25578  14.769  19.192   1.461
60418W        W25579  22.675  11.573  12.608
60419W        W25580   2.386  43.875  11.996
60420W        W25581  44.857   7.164   3.590
60421W        W25582  35.335  16.287  14.883
60422W        W25583  20.508  19.569   4.861
60423W        W25584  16.651  28.390   3.826
60424W        W25585  44.750  18.713   4.850
60425W        W25586   9.246  27.345   5.141
60426W        W25587  41.935  37.304  11.986
60427W        W25588  30.398   7.267  11.835
60428W        W25589  20.362   0.078   4.112
60429W        W25590   7.376   5.118   1.041
60430W        W25591  31.049  20.958   3.656
60431W        W25592  27.224  21.071   3.156
60432W        W25593  17.926   0.787   0.701
60433W        W25594  17.817  27.815  11.687
60434W        W25595  35.854  28.224   3.305
60435W        W25596  21.043  15.132   1.733
60436W        W25597  43.872   7.331  14.860
60437W        W25598   4.242  13.086  14.301
60438W        W25599  28.847  39.258   0.035
60439W        W25600  40.879  32.048  13.468
60440W        W25601  16.710  38.273   5.373
60441W        W25602  38.401  14.436  14.421
60442W        W25603  31.623  43.640  11.339
60443W        W25604   8.417  33.053   1.417
60444W        W25605   8.218   6.845   1.207
60445W        W25606  39.916  31.470   4.374
60446W        W25607  18.228   5.934   3.685
60447W        W25608   1.487  28.007   1.263
60448W        W25609  40.165   1.879  13.058
60449W        W25610  42.524   4.881   0.184
60450W        W25611  26.203  29.502  10.386
60451W        W25612  30.176  26.283  12.917
60452W        W25613   2.301  34.836   0.836
60453W        W25614  13.754  11.680  13.044
60454W        W25615  42.069  33.704  11.797
60455W        W25616  25.686  36.848   4.160
60456W        W25617  43.824  33.478  10.645
60457W        W25618  19.578  22.720   5.099
60458W        W25619  33.475  19.741   3.641
60459W        W25620  34.544  33.853  13.017
60460W        W25621  26.159   4.890   4.986
60461W        W25622   9.836  21.513   3.215
60462W        W25623   9.702   7.451   3.700
60463W        W25624  37.887  23.444   1.944
60464W        W25625  44.646  24.115  12.985
60465W        W25626  37.080  42.294  14.333
60466W        W25627  33.439  27.963   2.788
60467W        W25628  23.010  34.867   1.169
60468W        W25629   8.928   3.264   3.511
60469W        W25630  41.168  42.759  14.327
60470W        W25631  32.534  41.923  12.115
60471W        W25632  40.510  27.137  12.026
60472W        W25633  23.702  18.312  11.166
60473W        W25634  19.205   7.266  10.808
60474W        W25635  33.850  23.290  14.363
60475W        W25636  25.630  29.771   2.085
60476W        W25637  28.402  32.387   0.436
60477W        W25638  40.009  37.618  12.341
60478W        W25639  44.321   4.087   4.244
60479W        W25640   8.204  15.675  10.862
60480W        W25641   0.814  24.196  11.571
60481W        W25642   6.063  34.692  13.765
60482W        W25643   2.704  16.576   3.301
60483W        W25644  28.470  30.047   1.692
60484W        W25645  12.110  11.656  10.811
60485W        W25646  30.577  37.962   0.332
60486W        W25647  21.628  41.938  13.349
60487W        W25648  13.594  23.997   4.261
60488W        W25649  13.525  43.376   0.190
60489W        W25650  42.036  25.145   4.696
60490W        W25651   8.285  44.149   2.682
60491W        W25652  17.066  25.573  12.935
60492W        W25653  17.269  37.172   1.046
60493W        W25654  28.766  10.144   1.519
60494W        W25655  33.981   3.235   0.768
60495W        W25656  17.523  25.560   0.613
60496W        W25657  23.041   1.818  11.518
60497W        W25658   8.819  12.781   0.783
60498W        W25659  34.647  23.306  14.814
60499W        W25660  43.528   4.289  11.561
60500W        W25661  33.076  25.487  12.723
60501W        W25662  43.875   4.117  11.946
60502W        W25663  13.217  27.921   0.849
60503W        W25664  32.433  43.962   3.310
60504W        W25665  33.384   5.978   1.438
60505W        W25666  38.067   8.370   0.362
60506W        W25667  23.038  38.888  14.030
60507W        W25668  12.199  38.059  10.559
60508W        W25669  22.896   5.888   3.332
60509W        W25670  20.807  17.828  12.020
60510W        W25671  29.161  44.855   3.588
60511W        W25672   4.921  35.230   0.800
60512W        W25673  44.031   2.883  11.556
60513W        W25674  33.551  28.836  13.576
60514W        W25675  34.468   2.501   0.743
60515W        W25676  21.036  12.056  14.114
60516W        W25677  24.861  30.193   4.731
60517W        W25678  27.966   3.462   3.602
60518W        W25679   6.396  15.386  10.590
60519W        W25680  13.263  35.108  10.739
60520W        W25681   1.931  14.458   1.382
60521W        W25682  14.041  44.570   2.309
60522W        W25683  21.780  28.598   2.656
60523W        W25684  31.940  43.330   1.874
60524W        W25685  19.204  24.614   1.612
60525W        W25686  28.207  37.328  12.520
60526W        W25687  39.467  35.715   3.305
60527W        W25688  21.707  38.929   4.762
60528W        W25689  34.345  35.092  10.622
60529W        W25690  25.052  13.588  11.586
60530W        W25691  43.293   5.264   1.401
60531W        W25692  38.362  20.911  14.757
60532W        W25693  13.414  31.099   1.883
60533W        W25694  28.543  35.578  11.593
60534W        W25695  15.677   1.380  10.929
60535W        W25696  27.817  38.270   3.600
60536W        W25697  32.226  43.920  11.488
60537W        W25698  39.468   7.608   4.096
60538W        W25699  42.370  44.230   1.250
60539W        W25700   3.819  34.681   1.850
60540W        W25701  18.261  41.930   4.376
60541W        W25702  24.217  21.255  12.113
60542W        W25703  23.728  23.765  12.984
60543W        W25704  19.217  36.393  13.884
60544W        W25705   4.200  34.499  14.805
60545W        W25706   4.331   9.133  14.738
60546W        W25707   2.189  25.706  13.640
60547W        W25708  22.060   6.328   0.137
60548W        W25709  22.572  15.066   4.132
60549W        W25710  11.906   2.978   2.808
60550W        W25711   8.696   2.322  14.116
60551W        W25712  33.905  31.266   1.469
60552W        W25713   8.630  44.503  14.753
60553W        W25714   6.899  16.370   2.631
60554W        W25715  21.957   8.442   3.220
60555W        W25716  14.671   1.787  12.435
60556W        W25717  33.361  18.170   4.218
60557W        W25718  34.156  23.028   3.374
60558W        W25719   5.205  10.799   1.836
60559W        W25720   1.530  38.940   1.217
60560W        W25721  39.115  40.852  11.945
60561W        W25722  14.775  32.663  13.758
60562W        W25723  44.259  20.881   5.063
60563W        W25724   2.279  10.692   2.289
60564W        W25725   1.376  27.076   0.728
60565W        W25726  20.783   3.903  10.732
60566W        W25727  36.975   8.019   4.083
60567W        W25728  36.535  24.564  13.857
60568W        W25729   1.766  40.819   1.264
60569W        W25730  17.931  30.149   1.907
60570W        W25731  32.992   4.918   2.217
60571W        W25732   3.157  15.264  12.840
60572W        W25733   4.111  22.581  13.261
60573W        W25734   7.252  39.122  14.755
60574W        W25735   5.795  30.607  11.603
60575W        W25736  30.539   4.942   2.804
60576W        W25737  21.456   9.573  13.492
60577W        W25738   2.483  12.191  13.476
60578W        W25739  41.049   5.205   2.312
60579W        W25740  40.985  14.284   3.688
60580W        W25741  38.427   2.240   3.987
60581W        W25742  28.630   0.782  11.553
60582W        W25743  17.565  28.159  10.292
60583W        W25744  29.228  44.731  14.439
60584W        W25745  16.339  19.714  11.859
60585W        W25746  17.808  29.868  14.779
60586W        W25747  38.675  14.179   3.950
60587W        W25748   2.352  21.420  10.701
60588W        W25749   6.457  41.466   0.524
60589W        W25750  27.829  11.844  14.503
60590W        W25751  25.625  15.597  12.223
60591W        W25752  34.380  15.751   1.203
60592W        W25753  40.192  37.341  11.946
60593W        W25754  42.972  38.058   0.988
60594W        W25755  44.297  39.631   2.753
60595W        W25756  24.358  33.839   1.999
60596W        W25757  31.868  31.923  11.576
60597W        W25758  20.586  36.991  14.860
60598W        W25759  31.796  36.557   1.759
60599W        W25760  33.107  12.197  12.997
60600W        W25761   2.565  32.107   5.014
60601W        W25762  21.858  38.620  10.284
60602W        W25763  42.919  41.024   4.005
60603W        W25764  22.739  42.694  14.363
60604W        W25765   5.442  32.106   2.337
60605W        W25766  10.077  38.619   2.892
60606W        W25767  32.582  43.919   4.303
60607W        W25768  36.083  14.352   2.675
60608W        W25769  28.045  31.108  10.613
60609W        W25770  23.809  30.460  10.758
60610W        W25771  25.023   4.809  12.115
60611W        W25772  38.458  10.449  11.938
60612W        W25773  38.383   7.738  11.711
60613W        W25774  31.570   0.493   4.262
60614W        W25775  35.408  14.743   2.825
60615W        W25776   9.236  10.388  10.360
60616W        W25777  22.634  42.779   4.122
60617W        W25778  17.762  28.526   0.068
60618W        W25779  32.497  41.882  13.981
60619W        W25780  43.961  12.823  12.091
60620W        W25781  15.457  35.665   1.277
60621W        W25782  32.957   5.954  11.111
60622W        W25783  27.611   7.723  12.397
60623W        W25784  40.078  28.006  13.083
60624W        W25785  19.567   4.645   3.844
60625W        W25786  26.048   5.115  11.424
60626W        W25787  33.018  44.433  13.388
60627W        W25788  12.135  32.660  11.592
60628W        W25789  14.725  14.525   3.361
60629W        W25790  30.073  16.163  12.087
60630W        W25791  41.273  42.881  13.141
60631W        W25792  42.222  10.816   4.707
60632W        W25793  21.304  29.126   1.691
60633W        W25794  24.249  18.318   0.747
60634W        W25795  38.293  39.370   3.876
60635W        W25796  39.906   6.701   3.396
60636W        W25797   7.426  18.813  12.390
60637W        W25798  11.659  19.633  12.843
60638W        W25799  21.476  28.570  11.480
60639W        W25800  14.627   5.836   2.398
60640W        W25801  42.785  30.633  10.727
60641W        W25802   8.975  31.286   5.096
60642W        W25803  40.337  30.899  12.051
60643W        W25804  43.527  33.327   1.520
60644W        W25805   1.373  20.535  12.614
60645W        W25806  36.804   7.298  10.452
60646W        W25807  26.202   4.644   2.322
60647W        W25808  19.570   5.795   2.774
60648W        W25809  28.588  24.798  13.890
60649W        W25810  26.480  30.623  12.139
60650W        W25811  23.158  26.305  10.726
60651W        W25812   8.470  36.819   4.158
60652W        W25813  14.010   9.350   3.942
60653W        W25814   2.287   1.379  11.387
60654W        W25815   9.708  15.276  12.825
60655W        W25816  22.561  31.365   2.799
60656W        W25817  13.109   6.347  11.893
60657W        W25818   3.431  12.134   2.872
60658W        W25819  35.937  15.732  13.818
60659W        W25820  36.685  18.129   4.284
60660W        W25821  23.069   7.947   3.806
60661W        W25822  41.149  26.267  13.530
60662W        W25823  23.595  40.408   3.521
60663W        W25824  18.560  19.361   4.921
60664W        W25825   5.949  40.188  11.599
60665W        W25826  29.188  23.031  12.976
60666W        W25827  33.623  43.842   3.029
60667W        W25828   9.635  36.590   3.170
60668W        W25829  10.322  21.278  14.794
60669W        W25830  36.005   9.783  10.493
60670W        W25831   4.899   8.774   2.172
60671W        W25832  15.331  41.030   1.303
60672W        W25833   9.496  12.211   4.548
60673W        W25834  21.753  15.706  11.357
60674W        W25835  39.315  28.157   2.848
60675W        W25836   4.335  24.433  10.607
60676W        W25837   1.711  16.842   3.145
60677W        W25838  32.527  12.745  13.977
60678W        W25839  12.915  15.887  11.184
60679W        W25840  21.762  22.207   2.640
60680W        W25841   9.204  34.643  13.507
60681W        W25842  15.097   8.815  14.376
60682W        W25843  15.691  15.801   1.404
60683W        W25844  17.215  31.729  12.647
60684W        W25845  31.246  43.956  11.618
60685W        W25846  32.860  39.231   1.327
60686W        W25847  25.244   8.894  12.074
60687W        W25848  40.543  36.341  14.801
60688W        W25849  25.780  18.835   4.579
60689W        W25850  38.663  21.725  11.241
60690W        W25851  10.789   9.844  11.406
60691W        W25852  35.019  40.631   4.799
60692W        W25853   7.970   6.483  12.535
60693W        W25854  17.058  18.495   0.348
60694W        W25855  37.405  20.646  12.043
60695W        W25856  29.401  38.379  10.519
60696W        W25857  12.136  10.925  11.536
60697W        W25858  35.594   8.694   1.260
60698W        W25859  12.047   5.654  13.310
60699W        W25860   0.915  16.864  13.265
60700W        W25861  36.924  15.850  13.325
60701W        W25862  13.658  42.820   9.622
60702W        W25863  20.976   7.743   1.239
60703W        W25864  39.421  30.635  13.934
60704W        W25865   4.139  33.595  12.457
60705W        W25866   8.687  25.545  11.795
60706W        W25867  39.873  42.549   4.458
60707W        W25868  21.011  11.286   0.443
60708W        W25869  11.665  43.842  12.164
60709W        W25870  31.626  10.598   3.683
60710W        W25871  22.190   8.271  13.292
60711W        W25872  34.037  17.756  12.495
60712W        W25873  20.065  17.714  14.487
60713W        W25874  17.188  11.463   0.257
60714W        W25875  42.968  31.115  10.775
60715W        W25876  14.968   5.860  13.364
60716W        W25877  36.486  15.196   0.847
60717W        W25878  41.399  12.722  12.887
60718W        W25879  28.699  13.832   0.383
60719W        W25880  39.582  43.472  13.949
60720W        W25881  32.377  25.254  14.900
60721W        W25882  13.775   6.551  10.431
60722W        W25883  41.033   5.300  10.654
60723W        W25884  13.775   1.297   1.654
60724W        W25885  13.636   7.527   4.724
60725W        W25886  22.347   1.440   3.104
60726W        W25887  41.374  20.834   2.756
60727W        W25888  17.720   0.835  10.112
60728W        W25889  41.866   7.137  14.368
60729W        W25890   0.740  26.890   1.222
60730W        W25891  27.807   2.536  10.705
60731W        W25892   7.349  22.765   4.986
60732W        W25893  32.154   7.614  14.018
60733W        W25894  33.521   5.038  14.855
60734W        W25895  27.027  14.832   1.190
60735W        W25896  35.863   4.223  13.432
60736W        W25897  17.919   3.695   4.117
60737W        W25898  43.164  26.867   3.977
60738W        W25899  21.815  10.730  14.391
60739W        W25900  42.777  26.506   1.018
60740W        W25901  18.167  34.176   2.897
60741W        W25902  33.228  19.093  14.031
60742W        W25903  18.618  43.926   1.663
60743W        W25904   6.435  24.584   4.398
60744W        W25905  22.750   3.843  14.968
60745W        W25906  33.490  26.657  14.568
60746W        W25907   9.584   3.917  11.914
60747W        W25908  23.944   2.768  14.434
60748W        W25909  18.745  42.348   3.332
60749W        W25910  31.717   4.700   0.844
60750W        W25911  37.516  10.945  14.290
60751W        W25912  40.011   4.800   1.589
60752W        W25913  35.002  28.508   0.334
60753W        W25914   7.366  19.865  10.624
60754W        W25915  34.908   4.351   4.076
60755W        W25916  26.455  31.166   0.056
60756W        W25917  30.220  40.252   3.290
60757W        W25918  39.630  41.913   0.550
60758W        W25919  31.868  40.941   1.796
60759W        W25920  36.110  15.859   0.895
60760W        W25921  37.364  29.731  13.576
60761W        W25922  12.045  26.489   1.003
60762W        W25923  16.274   4.389   0.306
60763W        W25924  25.155  28.608   4.184
60764W        W25925  22.734  44.393  14.954
60765W        W25926  35.390  14.297   1.264
60766W        W25927  19.603  13.954   3.265
60767W        W25928  15.135  22.310  11.027
60768W        W25929   2.065  38.982  12.509
60769W        W25930   0.672  31.488   2.389
60770W        W25931  14.209  30.262  12.577
60771W        W25932  27.654  42.528  10.713
60772W        W25933  24.047  28.727   0.468
60773W        W25934  41.030  26.686   3.391
60774W        W25935  41.637  27.501  14.874
60775W        W25936  13.448  38.574  13.997
60776W        W25937   4.370   6.803  12.203
60777W        W25938  28.890   1.715  14.585
60778W        W25939  12.289  42.583  13.582
60779W        W25940  30.401  41.434  12.678
60780W        W25941  43.504   8.281   2.403
60781W        W25942  30.707   9.213  14.287
60782W        W25943  38.832   3.363   3.991
60783W        W25944   1.760  35.466  14.227
60784W        W25945   1.711  17.582   2.714
60785W        W25946  11.128   2.378  11.210
60786W        W25947  20.495  13.285   0.852
60787W        W25948  33.195  15.210  12.375
60788W        W25949  23.530   6.211   3.743
60789W        W25950  31.442   5.146  12.620
60790W        W25951   4.823  43.864   2.058
60791W        W25952  10.138  30.421  12.167
60792W        W25953  41.443  21.359  13.551
60793W        W25954  23.203   0.227   0.553
60794W        W25955  33.498  21.435  13.481
60795W        W25956  22.251  42.212  12.368
60796W        W25957  42.332   3.357   3.308
60797W        W25958  35.276  32.479   2.191
60798W        W25959   5.362  28.755  13.753
60799W        W25960  36.372  40.421  10.425
60800W        W25961  22.997  35.575   1.874
60801W        W25962   4.275  29.511   0.849
60802W        W25963  22.510  12.096   3.835
60803W        W25964  23.032  12.363  14.938
60804W        W25965  42.613  19.751   0.997
60805W        W25966  18.063   8.906   3.713
60806W        W25967   8.839  15.337  13.568
60807W        W25968  36.140  31.038   0.890
60808W        W25969  20.646   8.698   3.735
60809W        W25970  12.689  44.426  10.721
60810W        W25971   3.103   4.926  10.715
60811W        W25972   6.750  43.921   0.883
60812W        W25973   2.661   1.818   2.072
60813W        W25974  30.991  40.126   2.880
60814W        W25975  21.299  37.709   0.265
60815W        W25976  39.351   4.635   1.329
60816W        W25977   2.223  39.379   3.992
60817W        W25978  19.095   3.743   4.191
60818W        W25979  28.901  26.204  12.408
60819W        W25980   6.714  11.261   1.544
60820W        W25981  16.614  35.291   3.738
60821W        W25982  26.777  31.607   4.931
60822W        W25983  31.670  17.859  12.979
60823W        W25984  16.245  25.508  12.928
60824W        W25985  14.830   8.660   1.351
60825W        W25986  31.026   3.070   2.617
60826W        W25987  39.337  29.531   2.611
60827W        W25988   9.197  14.830   4.159
60828W        W25989  32.215   7.118  14.032
60829W        W25990  17.230  14.668  13.744
60830W        W25991  33.612  31.144  13.978
60831W        W25992  14.557  26.049   0.238
60832W        W25993  26.149   3.232  14.413
60833W        W25994  41.122  19.784  12.466
60834W        W25995  19.499  11.038   1.713
60835W        W25996  12.761  27.443  11.218
60836W        W25997  44.441   6.387  11.450
60837W        W25998  35.039  42.967   4.469
60838W        W25999  16.558  32.894   4.151
60839W        W26000  13.719  30.063  14.794
60840W        W26001  43.870  24.725  11.593
60841W        W26002   8.293   2.049  11.944
60842W        W26003  17.061  37.095   2.835
60843W        W26004  39.347  37.522  10.192
60844W        W26005  12.920  15.880   0.818
60845W        W26006  11.522  22.706  10.087
60846W        W26007   1.443  27.982   3.147
60847W        W26008   5.983  28.988   3.085
60848W        W26009   7.888  27.135   3.172
60849W        W26010  16.775  18.688  11.466
60850W        W26011  12.400  42.456  10.740
60851W        W26012  41.935  44.647   9.867
60852W        W26013  22.736  27.173   3.721
60853W        W26014   8.005   1.718  10.768
60854W        W26015   9.846  30.179  13.042
60855W        W26016  32.001  26.625   2.082
60856W        W26017  19.255  21.334   4.561
60857W        W26018  19.453  35.524   3.210
60858W        W26019  39.971  13.306   0.924
60859W        W26020  44.390  30.135   0.060
60860W        W26021  29.674  19.314   0.318
60861W        W26022   1.043  30.863  10.349
60862W        W26023   1.462  42.889  10.798
60863W        W26024   1.376   5.588  14.307
60864W        W26025  25.793  12.889   4.038
60865W        W26026   2.226  33.882   4.896
60866W        W26027  27.450  38.316  11.946
60867W        W26028  42.940  24.920   4.232
60868W        W26029  40.349  22.192   3.620
60869W        W26030  25.703  34.988  14.827
60870W        W26031  35.897  42.528  13.924
60871W        W26032  34.628  14.630  12.973
60872W        W26033  30.778   9.772   1.867
60873W        W26034   3.846   1.655  10.433
60874W        W26035  20.964   5.085  14.245
60875W        W26036  34.966   8.473   2.323
60876W        W26037  18.798  16.639   1.535
60877W        W26038  14.205   4.269   2.660
60878W        W26039   2.291  43.473   2.331
60879W        W26040  23.170  33.481   4.686
60880W        W26041   3.422   7.591   1.158
60881W        W26042  27.974  41.651  13.005
60882W        W26043  18.031  17.195  14.431
60883W        W26044  27.748  36.143  13.869
60884W        W26045  10.818  43.506  13.419
60885W        W26046  16.053  20.126  11.964
60886W        W26047  22.044  21.103   1.781
60887W        W26048  44.487  37.479   4.075
60888W        W26049  35.804  43.003   0.226
60889W        W26050  16.784  34.294   4.562
60890W        W26051  43.912  15.896   3.693
60891W        W26052  41.489   6.528   2.281
60892W        W26053   8.199  33.088  13.986
60893W        W26054  15.763  41.851  10.904
60894W        W26055   9.828   4.178  11.535
60895W        W26056  41.486   8.339   2.225
60896W        W26057  42.378   1.952   2.187
60897W        W26058  11.668  23.462  13.136
60898W        W26059  29.491  24.139  13.377
60899W        W26060  29.724  26.550   1.942
60900W        W26061  27.070  14.747  13.298
60901W        W26062  35.358  37.387   2.376
60902W        W26063  35.440  12.672  13.085
60903W        W26064   9.804  11.301   0.833
60904W        W26065  42.046   5.787  13.891
60905W        W26066   8.969  36.832   4.136
60906W        W26067  28.545  42.716   2.224
60907W        W26068   3.698  29.035  14.362
60908W        W26069  13.339  10.710   2.274
60909W        W26070  18.085  29.047  12.884
60910W        W26071  28.968  25.600   1.120
60911W        W26072  31.701  17.740  11.320
60912W        W26073  26.193   7.235  10.675
60913W        W26074  39.342  11.726   4.584
60914W        W26075  39.030  13.207   2.401
60915W        W26076  37.005  41.653   3.169
60916W        W26077  12.855  26.936  13.471
60917W        W26078  22.261  20.816   3.656
60918W        W26079  20.579  40.480  13.848
60919W        W26080  20.527   4.468   0.342
60920W        W26081   5.325  14.655  11.145
60921W        W26082  27.944  36.075   1.652
60922W        W26083  15.312   4.792  10.599
60923W        W26084   9.069  34.425   0.241
60924W        W26085  17.013  24.116  11.636
60925W        W26086  17.343  12.154  10.775
60926W        W26087  37.962  20.617  12.047
60927W        W26088  23.614  31.976   1.494
60928W        W26089  22.654  41.210  14.894
60929W        W26090   1.213   8.915  14.774
60930W        W26091  30.242   9.715   4.599
60931W        W26092  31.937  32.365   0.729
60932W        W26093  14.101  35.496   3.869
60933W        W26094   8.362  39.527   0.382
60934W        W26095  14.234  21.364  13.779
60935W        W26096  18.312   2.589  12.032
60936W        W26097  44.559  19.889   2.364
60937W        W26098  22.680  43.507  14.018
60938W        W26099   7.636  42.749  12.338
60939W        W26100   4.925  14.488  13.162
60940W        W26101  27.952  27.575   4.269
60941W        W26102  20.672  25.673   1.485
60942W        W26103  18.791  44.332   1.960
60943W        W26104   5.174  35.434   3.032
60944W        W26105  20.565  12.813   4.259
60945W        W26106  25.789  14.825  11.136
60946W        W26107   3.793  29.360   1.053
60947W        W26108  11.635  43.046   4.506
60948W        W26109  36.354  18.723  14.401
60949W        W26110  11.454  41.532   0.535
60950W        W26111  20.102  17.948  14.006
60951W        W26112  15.056   3.738  11.220
60952W        W26113  30.081  30.772   4.927
60953W        W26114  17.730  43.916  13.825
60954W        W26115  29.369  40.057  12.073
60955W        W26116   8.652  27.422   2.575
60956W        W26117  34.716  21.795   2.435
60957W        W26118   5.839  32.128   1.384
60958W        W26119   1.216  37.821  13.539
60959W        W26120  26.285  23.997   9.799
60960W        W26121   7.115  35.146   3.708
60961W        W26122  22.659  30.662  13.460
60962W        W26123  33.460   2.993   3.840
60963W        W26124  16.439  21.635   2.685
60964W        W26125   4.884   5.890   1.161
60965W        W26126  35.291  34.879  13.931
60966W        W26127  10.376  43.295  10.682
60967W        W26128  28.168  22.480  11.181
60968W        W26129   3.335   4.008  10.714
60969W        W26130  24.094   9.830   0.053
60970W        W26131  25.109  33.028  13.776
60971W        W26132  15.231  11.152   3.788
60972W        W26133  24.929  15.093  11.837
60973W        W26134  20.512  31.493  11.995
60974W        W26135   6.858  35.058   3.183
60975W        W26136  28.867  35.145   4.060
60976W        W26137  15.829  15.179  13.051
60977W        W26138  11.852  22.952  14.051
60978W        W26139  38.360  19.142  14.510
60979W        W26140  20.861  27.580   3.125
60980W        W26141   0.776  44.385  10.674
60981W        W26142  33.343   3.979  12.616
60982W        W26143  14.569  40.889   5.163
60983W        W26144  25.582  16.215  14.416
60984W        W26145  12.150  40.413   4.215
60985W        W26146  44.548   7.378  13.869
60986W        W26147   8.968  28.654   2.888
60987W        W26148   8.805  42.804   4.899
60988W        W26149  24.575  30.060   4.116
60989W        W26150   0.505  34.396   3.629
60990W        W26151   6.614  12.854   4.565
60991W        W26152  27.791  21.471  12.979
60992W        W26153  26.388  16.651   2.832
60993W        W26154  16.296  29.395  11.499
60994W        W26155  35.148  12.449   2.518
60995W        W26156  43.312  42.436   1.251
60996W        W26157  10.369   5.730   1.544
60997W        W26158  19.717  33.511  14.549
60998W        W26159  20.951  19.246   0.735
60999W        W26160  18.195   1.404   3.941
61000W        W26161  11.064  26.478  11.588
61001W        W26162  39.544  13.373   0.368
61002W        W26163  11.142  31.483  11.591
61003W        W26164  15.539  27.887   2.569
61004W        W26165   6.171  22.409  11.268
61005W        W26166  10.196  27.923   2.221
61006W        W26167   9.493  24.981  13.813
61007W        W26168  42.580  15.700  11.836
61008W        W26169  42.049  23.040   3.741
61009W        W26170  24.485   5.678  11.552
61010W        W26171   5.719  21.669  10.427
61011W        W26172  18.804   5.275  14.683
61012W        W26173  20.275  25.207   4.945
61013W        W26174  28.211  11.178  12.417
61014W        W26175  10.600  37.104  13.330
61015W        W26176  20.241  13.230   4.095
61016W        W26177  25.925  42.401   1.872
61017W        W26178  21.899  25.892   1.489
61018W        W26179  14.768  18.143  13.357
61019W        W26180  13.870  32.051   4.363
61020W        W26181   1.187  38.515  14.395
61021W        W26182   7.155  25.820  12.509
61022W        W26183  41.131   2.078  12.764
61023W        W26184   1.981   5.959   1.373
61024W        W26185  17.908  41.827  14.882
61025W        W26186   4.417  38.820  10.756
61026W        W26187  14.102  25.183   4.564
61027W        W26188  30.565  41.258   0.782
61028W        W26189  36.529  42.491   2.291
61029W        W26190  12.813  42.785  13.540
61030W        W26191  27.911  22.108  13.932
61031W        W26192  12.531  20.677   2.275
61032W        W26193  22.593   1.374  12.996
61033W        W26194  24.529   4.414  13.852
61034W        W26195   9.369   5.798  14.442
61035W        W26196  18.808   7.892  12.019
61036W        W26197  17.604  34.194  13.405
61037W        W26198  44.496   0.554  12.935
61038W        W26199  21.486  11.150  14.484
61039W        W26200  42.764  10.428  12.076
61040W        W26201  27.153  29.480  12.947
61041W        W26202  41.814  33.618  13.785
61042W        W26203   8.901  21.503  14.867
61043W        W26204  35.820  41.376   1.680
61044W        W26205  31.967  18.836  13.613
61045W        W26206  11.773  26.957   0.846
61046W        W26207  28.061  34.872  10.024
61047W        W26208  27.773  17.512   2.292
61048W        W26209  30.006  27.407   0.334
61049W        W26210   0.056  14.067  12.595
61050W        W26211  17.113  33.082  12.671
61051W        W26212  18.177  37.821   4.275
61052W        W26213   2.948  36.116  12.856
61053W        W26214   0.867  33.465   5.035
61054W        W26215  16.795  16.732   0.128
61055W        W26216  27.933   9.724  12.409
61056W        W26217  36.002  14.188   4.386
61057W        W26218  13.703   8.863  12.375
61058W        W26219  29.435  41.888  12.441
61059W        W26220  17.075   2.452  11.093
61060W        W26221  26.005  41.339   5.277
61061W        W26222  44.032   4.203   1.390
61062W        W26223   4.984  18.020  11.941
61063W        W26224  23.521   9.360  12.393
61064W        W26225  19.165  37.500  14.011
61065W        W26226   1.544  15.123  11.509
61066W        W26227  42.986  31.367   0.404
61067W        W26228   2.517  12.040   5.912
61068W        W26229  29.005  41.762  14.879
61069W        W26230  42.847   5.897  12.395
61070W        W26231   0.905  21.815   3.991
61071W        W26232  37.060   4.798   4.539
61072W        W26233  28.699  17.256  12.714
61073W        W26234  41.505  17.794  13.891
61074W        W26235  26.171  10.344   3.685
61075W        W26236  19.987  33.497  11.595
61076W        W26237  43.783  39.136   0.237
61077W        W26238  34.382  13.760   4.636
61078W        W26239  29.135  40.321  11.687
61079W        W26240  12.014  17.090  13.336
61080W        W26241  32.905   9.724   3.853
61081W        W26242   7.944  13.388  11.127
61082W        W26243  40.291  26.873  11.166
61083W        W26244  21.578  27.074   3.317
61084W        W26245  27.558  34.834  11.984
61085W        W26246   4.168  32.035   0.889
61086W        W26247  20.013  41.924   2.031
61087W        W26248  23.862  24.917   2.866
61088W        W26249  35.152   0.339   0.987
61089W        W26250   9.894  31.077  11.933
61090W        W26251  11.118  37.399  11.064
61091W        W26252  29.649  10.600   1.606
61092W        W26253   6.613   8.143   1.270
61093W        W26254  42.098  37.392   0.321
61094W        W26255  32.437  21.932   3.128
61095W        W26256  37.322  36.525  14.370
61096W        W26257  29.246  13.061   0.832
61097W        W26258  32.402  13.648   3.262
61098W        W26259  41.200  27.243  11.032
61099W        W26260  25.957  13.720   0.689
61100W        W26261   2.796  37.796   3.734
61101W        W26262   3.859  22.994   4.586
61102W        W26263   7.143   6.374   3.186
61103W        W26264  38.041  37.403   1.704
61104W        W26265  31.973   4.269  14.121
61105W        W26266  22.590  28.419   0.511
61106W        W26267  34.250  39.170   3.660
61107W        W26268  13.147  15.719   1.272
61108W        W26269  44.009  27.150   2.030
61109W        W26270  15.357  25.578  13.080
61110W        W26271   8.218   7.806   0.535
61111W        W26272  19.548  22.549  13.514
61112W        W26273   6.177  37.700   2.177
61113W        W26274  20.543  30.243   4.174
61114W        W26275  20.703  39.886   0.939
61115W        W26276  32.221  27.440  13.872
61116W        W26277   0.959  26.061  12.859
61117W        W26278  17.598   3.919   2.420
61118W        W26279  34.871   5.310  13.533
61119W        W26280   3.823   8.250  12.893
61120W        W26281  14.248   5.892   0.687
61121W        W26282  30.154  27.977  13.141
61122W        W26283   1.512  30.157   4.845
61123W        W26284  42.472  14.647   3.168
61124W        W26285  38.396  16.172   2.658
61125W        W26286  26.354   8.157   1.783
61126W        W26287  22.662  32.887   2.621
61127W        W26288  35.869  35.429  11.239
61128W        W26289  44.866  36.547  12.182
61129W        W26290  21.679   7.759  12.655
61130W        W26291   0.835   0.697   0.474
61131W        W26292  42.919  24.000   3.940
61132W        W26293  29.793  19.042  11.118
61133W        W26294  17.537  19.320  11.825
61134W        W26295  26.638  21.672  11.249
61135W        W26296   0.352  11.173  11.849
61136W        W26297  38.404   9.263   2.179
61137W        W26298  21.292  15.786   0.987
61138W        W26299  36.303  28.551  10.589
61139W        W26300  34.384  10.726  14.008
61140W        W26301  23.979  23.303  13.132
61141W        W26302  39.402  32.424   0.933
61142W        W26303  21.884  19.419  11.478
61143W        W26304  37.651  22.084   3.440
61144W        W26305  19.567   8.403  12.066
61145W        W26306  10.259  34.992   4.880
61146W        W26307   4.443  29.506   2.863
61147W        W26308   2.295  23.049   0.888
61148W        W26309  30.418  14.345  12.444
61149W        W26310  34.519  16.829   0.433
61150W        W26311  22.755   4.791   1.020
61151W        W26312   1.445  14.218  12.274
61152W        W26313  13.467   4.995  13.000
61153W        W26314  32.707  16.492  12.505
61154W        W26315  36.622  10.259   4.963
61155W        W26316  15.378  29.133  12.580
61156W        W26317   3.990  29.421  14.557
61157W        W26318  36.673   1.727  14.521
61158W        W26319  22.387  24.181   2.572
61159W        W26320  12.613  12.263  14.903
61160W        W26321  12.751   0.859   1.824
61161W        W26322  28.472  35.490   1.480
61162W        W26323   6.749  19.184   1.307
61163W        W26324  34.846  25.837   1.816
61164W        W26325  22.927  31.467  11.972
61165W        W26326  23.624   5.321   3.947
61166W        W26327  44.141  25.380   2.013
61167W        W26328  10.695  32.719   4.424
61168W        W26329   9.006  37.439   3.698
61169W        W26330  19.769   5.299   3.987
61170W        W26331  17.081  39.031   5.062
61171W        W26332  33.831   8.745  12.260
61172W        W26333   9.839  44.386  12.384
61173W        W26334  11.649  15.830   2.766
61174W        W26335  27.010  17.546  12.051
61175W        W26336  14.692  39.527   1.025
61176W        W26337   9.635  25.405   2.419
61177W        W26338   2.493  22.878   0.433
61178W        W26339  35.102   8.962   2.488
61179W        W26340  30.081   5.318  10.955
61180W        W26341  27.446  27.648   1.180
61181W        W26342  39.837  19.050  11.514
61182W        W26343  19.625   4.940  10.724
61183W        W26344  19.587  30.446  10.326
61184W        W26345  12.897   2.969   1.400
61185W        W26346   9.413  40.834   0.005
61186W        W26347  21.294  39.322  11.480
61187W        W26348  20.593  32.320  12.493
61188W        W26349  15.796  36.431   2.994
61189W        W26350  27.438  29.694   4.240
61190W        W26351  43.791  24.486  14.418
61191W        W26352  43.788  11.470   4.235
61192W        W26353  22.261  11.659   3.842
61193W        W26354  11.017  31.273  11.098
61194W        W26355  20.972  25.768   2.320
61195W        W26356  37.464  43.805  12.831
61196W        W26357  37.013  11.588  12.043
61197W        W26358   7.433  36.181  11.151
61198W        W26359   8.480   9.404   4.704
61199W        W26360   5.928  26.618   4.013
61200W        W26361  13.307   9.669   3.260
61201W        W26362  18.717  29.997   4.561
61202W        W26363   5.688   4.660   3.653
61203W        W26364  38.856  43.102  11.558
61204W        W26365  20.957  44.510   0.255
61205W        W26366  43.531  28.698  13.999
61206W        W26367  16.639  30.168  11.852
61207W        W26368   8.240   5.548   1.767
61208W        W26369  21.664   0.809   4.266
61209W        W26370  34.713  13.670   2.788
61210W        W26371  21.592  15.451   4.180
61211W        W26372  15.320   9.680  12.151
61212W        W26373  35.608  38.469   2.659
61213W        W26374   2.812  29.923   3.605
61214W        W26375  11.059  17.187  13.599
61215W        W26376  31.060  20.480   4.584
61216W        W26377  28.428  22.140   1.919
61217W        W26378  21.109  27.833  12.046
61218W        W26379   2.154  24.984   2.647
61219W        W26380   7.178  20.788  12.980
61220W        W26381  25.532  25.977  11.632
61221W        W26382  26.178   6.569  11.353
61222W        W26383  40.797  35.895  11.055
61223W        W26384   4.776   2.212   4.553
61224W        W26385  19.744  10.370   2.067
61225W        W26386  28.962  27.584  13.527
61226W        W26387  30.600  32.143   3.636
61227W        W26388  36.033  44.594  11.589
61228W        W26389  13.232   3.796   2.624
61229W        W26390  14.884  20.667   0.876
61230W        W26391  13.630  29.879  10.780
61231W        W26392  40.825  12.290  11.931
61232W        W26393  21.714  21.512  12.179
61233W        W26394  11.850  31.081   4.518
61234W        W26395  11.308  23.669  14.280
61235W        W26396  31.775   0.884  10.900
61236W        W26397  35.506   0.271   1.414
61237W        W26398  11.826   9.281   3.162
61238W        W26399  16.325   6.450  14.304
61239W        W26400   0.843  15.834  13.344
61240W        W26401  29.073   2.784   2.131
61241W        W26402  39.561  42.840   3.078
61242W        W26403   8.323  30.945   3.558
61243W        W26404  22.728   2.308   0.961
61244W        W26405  16.720   9.913   3.578
61245W        W26406  32.359  17.054   0.440
61246W        W26407  38.314  21.435  12.567
61247W        W26408  13.640   1.920   0.419
61248W        W26409  30.392  42.187   4.148
61249W        W26410  39.293  38.596   0.966
61250W        W26411  25.348  11.227  13.005
61251W        W26412   4.148   5.294  10.710
61252W        W26413  41.943   4.201  13.543
61253W        W26414  38.769   0.267   0.898
61254W        W26415  33.067  26.834  13.043
61255W        W26416  44.245  42.406   2.938
61256W        W26417  28.190   4.149   4.144
61257W        W26418  14.413  39.285   0.174
61258W        W26419  24.976  43.211  12.594
61259W        W26420  25.019  20.309  14.968
61260W        W26421  35.405  26.144   2.242
61261W        W26422   7.926  16.098   1.413
61262W        W26423  30.968  39.533  10.160
61263W        W26424  26.174  21.983   0.265
61264W        W26425   9.723   9.451   0.878
61265W        W26426  12.656  19.344  13.364
61266W        W26427  25.120  24.184  13.550
61267W        W26428  13.387  19.176   4.151
61268W        W26429  19.761  40.098   9.964
61269W        W26430   6.967  35.495   0.465
61270W        W26431  38.366  35.839  11.879
61271W        W26432   0.396  10.216  11.497
61272W        W26433  29.596  36.490  12.477
61273W        W26434  32.900  27.649  13.453
61274W        W26435  23.704  28.152   1.271
61275W        W26436   8.795  20.807   2.342
61276W        W26437  18.235  43.092  12.414
61277W        W26438  17.090  39.060  13.948
61278W        W26439  18.979   3.309  13.505
61279W        W26440   3.412  25.452   0.254
61280W        W26441   4.313  11.848   2.229
61281W        W26442  25.650  13.349   0.397
61282W        W26443  12.146  40.136  14.157
61283W        W26444  19.268   0.404  12.849
61284W        W26445  22.577  30.477   1.285
61285W        W26446   8.442  26.852   5.458
61286W        W26447   8.319   6.067   1.682
61287W        W26448  14.361  28.014  10.685
61288W        W26449  44.353  28.681  12.470
61289W        W26450  36.655  29.443  12.954
61290W        W26451  41.246  15.590  14.286
61291W        W26452  18.961  16.252   1.821
61292W        W26453  19.106  30.069  12.875
61293W        W26454  16.910   7.940  13.682
61294W        W26455   8.165  39.431   3.172
61295W        W26456  23.687   1.605  11.626
61296W        W26457   7.644  29.989   4.234
61297W        W26458  44.052  27.468  12.600
61298W        W26459  29.598  16.044   3.917
61299W        W26460  29.507   2.530  10.813
61300W        W26461   2.405  37.654  14.975
61301W        W26462   8.775  19.644  12.070
61302W        W26463  21.922  22.616  13.009
61303W        W26464  38.940  10.699   3.529
61304W        W26465  36.871  37.131  12.652
61305W        W26466  44.419  21.631  11.106
61306W        W26467  12.618  30.549   0.953
61307W        W26468  41.959   8.822   0.901
61308W        W26469  26.555  39.068   3.115
61309W        W26470  21.089  35.204  14.996
61310W        W26471  32.856   9.271   1.295
61311W        W26472  38.505  24.492   2.527
61312W        W26473  34.342  19.162  12.443
61313W        W26474   5.360  13.719  11.181
61314W        W26475  35.342  18.712   1.019
61315W        W26476   3.845  12.533  12.071
61316W        W26477  12.356  26.950   2.312
61317W        W26478  29.479  21.071  13.051
61318W        W26479  42.374  43.171   0.643
61319W        W26480  25.712   5.218  13.592
61320W        W26481  26.080   3.679   1.336
61321W        W26482   6.411  12.808   3.246
61322W        W26483  33.440   3.171  10.870
61323W        W26484   6.286  31.559  10.261
61324W        W26485  35.785  15.686  10.519
61325W        W26486  34.969  35.370  12.108
61326W        W26487  19.730  13.302  14.433
61327W        W26488  36.916  16.229   2.380
61328W        W26489  32.774  43.401  14.866
61329W        W26490  20.587   0.714  13.875
61330W        W26491  19.916  34.740  14.545
61331W        W26492  43.047  35.300  14.831
61332W        W26493  20.837   8.111   4.115
61333W        W26494  30.195  39.632  12.394
61334W        W26495  24.528  29.590  10.760
61335W        W26496  44.747   5.823   4.882
61336W        W26497  19.317  44.764  12.085
61337W        W26498  16.251  35.592  13.493
61338W        W26499  20.213  20.702   2.444
61339W        W26500  19.628  18.696   5.339
61340W        W26501  22.668  33.206   4.716
61341W        W26502  10.788  41.357  13.870
61342W        W26503  30.154   0.397   0.233
61343W        W26504  32.191  21.148  12.502
61344W        W26505  38.727  28.118  14.706
61345W        W26506   3.202  12.543  12.568
61346W        W26507  12.528  40.294  13.824
61347W        W26508  12.246  16.361   4.062
61348W        W26509  42.051  17.315  12.502
61349W        W26510   9.433   5.279   4.027
61350W        W26511  41.312  41.316   2.687
61351W        W26512  13.847  22.731  11.954
61352W        W26513  35.497  32.952   2.255
61353W        W26514   2.262  40.596   1.268
61354W        W26515  40.554   0.454  13.045
61355W        W26516  10.316  29.031  14.381
61356W        W26517  33.829   8.311   2.885
61357W        W26518  23.568  44.532   4.060
61358W        W26519  15.762  23.826  10.571
61359W        W26520   7.668  15.632  11.151
61360W        W26521  17.819  17.820   2.912
61361W        W26522  43.815  22.873  10.488
61362W        W26523  20.304  20.837  13.393
61363W        W26524   6.334  23.008   0.168
61364W        W26525  32.494  17.078  10.213
61365W        W26526  27.074   6.321  12.225
61366W        W26527  25.527   3.008   1.132
61367W        W26528  18.120   5.831   2.322
61368W        W26529  31.450   0.971   0.860
61369W        W26530  10.176   4.260  12.384
61370W        W26531  13.092  24.623  11.248
61371W        W26532  10.092  37.124   5.022
61372W        W26533   1.767  17.212  13.794
61373W        W26534   4.654  18.737   3.663
61374W        W26535  37.456   6.324  14.509
61375W        W26536   7.968   9.341   3.946
61376W        W26537   1.831  40.293   1.310
61377W        W26538   2.039  37.784   4.717
61378W        W26539  25.066  19.721   0.086
61379W        W26540   3.040  43.999  13.355
61380W        W26541  16.346   7.787   4.140
61381W        W26542  36.905  32.395  14.310
61382W        W26543  37.896  13.064  12.668
61383W        W26544  11.741  17.101   4.042
61384W        W26545   1.264  14.392   3.194
61385W        W26546  11.754  15.568  11.671
61386W        W26547  30.916  24.376   0.726
61387W        W26548  24.652  31.570   2.308
61388W        W26549  43.397  24.437  10.807
61389W        W26550  42.528  27.118  14.924
61390W        W26551  41.838   0.319  10.664
61391W        W26552  17.767  26.017   4.656
61392W        W26553  26.083   8.408  12.851
61393W        W26554  26.260  24.990   1.190
61394W        W26555  40.213  18.186   1.260
61395W        W26556   0.727  30.049  10.888
61396W        W26557  15.742  35.957  10.427
61397W        W26558  34.084   1.734  12.600
61398W        W26559  17.105  20.068   2.084
61399W        W26560  29.228  25.832   1.508
61400W        W26561  30.100  44.804  13.052
61401W        W26562  22.887  23.214  13.977
61402W        W26563   0.844  13.894   1.942
61403W        W26564  42.894  17.987  13.548
61404W        W26565  17.934   4.353  14.654
61405W        W26566  42.019   1.798  11.579
61406W        W26567  14.555  39.004  10.778
61407W        W26568  12.723  42.889   1.810
61408W        W26569   3.477  18.312   2.729
61409W        W26570   1.608  10.261   1.652
61410W        W26571  17.310  16.183   2.106
61411W        W26572  32.943  16.476  12.050
61412W        W26573  26.944   1.002  10.398
61413W        W26574  31.062  17.391  12.422
61414W        W26575   1.203  29.987  12.604
61415W        W26576  19.350   1.630  12.140
61416W        W26577  24.624   4.687  14.318
61417W        W26578   3.815  27.549  11.577
61418W        W26579  18.557  44.991   2.777
61419W        W26580  28.614  37.212   3.160
61420W        W26581  41.899   6.485   4.718
61421W        W26582  10.344  10.215   0.627
61422W        W26583  11.317  44.265  13.480
61423W        W26584  44.557  33.285  11.128
61424W        W26585   1.537  42.412   2.661
61425W        W26586  11.206  42.838  14.676
61426W        W26587  16.250  18.048  14.837
61427W        W26588  25.248  20.190   0.430
61428W        W26589  29.716  10.967  11.803
61429W        W26590   5.363  38.381   0.185
61430W        W26591  30.045  28.734  12.176
61431W        W26592   0.859  20.631   3.078
61432W        W26593  33.957   3.658   3.877
61433W        W26594  15.262  30.370  11.583
61434W        W26595   4.671  22.337  14.193
61435W        W26596  29.960  14.551  12.548
61436W        W26597  41.620  31.238   4.884
61437W        W26598   0.571  24.544  13.483
61438W        W26599  10.471  16.536  10.098
61439W        W26600  15.816  19.502  10.683
61440W        W26601   0.365  43.669  11.637
61441W        W26602  28.913  30.932  10.524
61442W        W26603  14.101  14.504  11.552
61443W        W26604  40.129  15.666   0.067
61444W        W26605   7.204  33.160   1.799
61445W        W26606  24.824  20.112   3.093
61446W        W26607  11.893  12.978   0.940
61447W        W26608  23.014  15.344   4.076
61448W        W26609   4.249  37.940   2.946
61449W        W26610  24.324  40.308  12.977
61450W        W26611  31.034   0.703   3.205
61451W        W26612  28.613  19.186   1.454
61452W        W26613  36.321  27.425  13.146
61453W        W26614   8.181  10.902  13.991
61454W        W26615  28.289  39.927   3.137
61455W        W26616  36.165   5.597  10.522
61456W        W26617  42.057  15.946  14.971
61457W        W26618   2.864  33.977   3.181
61458W        W26619   7.874  39.087  11.334
61459W        W26620  30.631  16.202   1.097
61460W        W26621  13.253  27.136   4.686
61461W        W26622   8.634  42.005   0.669
61462W        W26623  20.030  27.426  11.575
61463W        W26624   3.316  34.842  11.654
61464W        W26625  17.569  40.210   3.199
61465W        W26626  22.163  22.272   2.241
61466W        W26627   9.161  42.566  13.942
61467W        W26628  31.333  22.446  13.512
61468W        W26629  31.582  44.085  10.689
61469W        W26630  25.921  11.678   4.501
61470W        W26631  38.850  29.530   4.453
61471W        W26632  18.767  25.238   4.123
61472W        W26633  32.088  35.037   3.779
61473W        W26634  27.731  23.399   5.374
61474W        W26635  21.155  20.162   3.243
61475W        W26636  20.574   9.012  11.534
61476W        W26637  37.018   6.376   3.031
61477W        W26638  12.711  32.269  13.021
61478W        W26639  17.724   6.743  12.187
61479W        W26640  40.379  11.571  10.516
61480W        W26641  19.073   8.196  11.192
61481W        W26642  10.838  28.403  11.149
61482W        W26643  41.663  18.576  13.542
61483W        W26644  30.477  19.793  10.229
61484W        W26645  20.275  36.422   4.333
61485W        W26646  34.766  21.828   1.554
61486W        W26647  22.001   1.170  14.088
61487W        W26648  23.045  31.909  14.738
61488W        W26649   3.497  17.031   3.141
61489W        W26650  25.748  44.426  10.456
61490W        W26651  22.414  29.693  11.956
61491W        W26652  41.022   1.514  13.041
61492W        W26653  34.558  13.590   4.178
61493W        W26654  36.084  44.418   0.327
61494W        W26655  28.864  17.512   1.013
61495W        W26656  41.323  43.298  10.918
61496W        W26657  23.908  37.805  12.900
61497W        W26658  35.974   4.756  10.907
61498W        W26659  44.242   4.742  10.677
61499W        W26660  44.980  40.484   4.501
61500W        W26661  33.445  22.444   1.132
61501W        W26662  25.704  22.638   3.773
61502W        W26663  42.322  29.203  13.452
61503W        W26664  25.689   9.669   3.986
61504W        W26665  23.198   0.905  11.325
61505W        W26666  25.327  29.643  13.090
61506W        W26667  32.553  25.694  10.880
61507W        W26668  13.427   2.897  13.867
61508W        W26669  37.414   6.586  14.069
61509W        W26670  15.604  25.010  11.994
61510W        W26671  38.429  42.410   2.719
61511W        W26672  19.808  25.291   4.338
61512W        W26673   0.122  30.012   4.931
61513W        W26674  28.011  38.533   0.797
61514W        W26675   5.279  17.706  11.639
61515W        W26676  31.370  17.168   1.395
61516W        W26677   6.797  36.073  11.788
61517W        W26678  33.892  18.847  11.240
61518W        W26679   6.690  33.897   2.767
61519W        W26680  25.969  30.257  12.646
61520W        W26681  31.269   3.936   4.408
61521W        W26682   8.988  29.151   4.605
61522W        W26683  35.096  10.074   3.920
61523W        W26684  21.464  10.232   4.599
61524W        W26685  32.931   8.459   2.871
61525W        W26686  19.624   9.727   3.385
61526W        W26687  30.466  37.834  14.261
61527W        W26688  37.326  40.567   4.646
61528W        W26689   6.781  23.681   0.352
61529W        W26690  20.552  33.239   1.184
61530W        W26691  19.512  36.132  11.191
61531W        W26692   7.581  20.018  14.604
61532W        W26693  28.527  41.438   3.082
61533W        W26694   3.024  13.600  14.983
61534W        W26695  32.648  41.554   1.739
61535W        W26696   3.138  42.909   4.497
61536W        W26697   2.169  35.583   1.237
61537W        W26698  23.924  29.972   1.422
61538W        W26699  12.859  32.725   2.415
61539W        W26700   3.295  29.834   2.795
61540W        W26701  41.961  37.400  13.624
61541W        W26702   8.523  37.896  11.183
61542W        W26703  34.325  10.223  13.884
61543W        W26704  40.575  42.787  12.896
61544W        W26705   2.731  41.480   4.682
61545W        W26706  10.387  26.156  12.584
61546W        W26707  30.557  22.659   1.335
61547W        W26708  17.146  40.766   3.571
61548W        W26709  38.511   5.766  11.725
61549W        W26710   8.331  42.710   0.708
61550W        W26711  13.834  34.485  11.683
61551W        W26712  23.340  13.140   4.483
61552W        W26713  32.138  43.765  12.034
61553W        W26714   6.131  16.139   2.292
61554W        W26715  39.912  27.662  14.605
61555W        W26716  17.309  24.199   1.169
61556W        W26717  15.553   9.409   3.734
61557W        W26718  18.207  12.624   3.195
61558W        W26719  16.856  23.475   4.181
61559W        W26720  22.065  26.913   2.193
61560W        W26721   3.467  30.877  12.057
61561W        W26722  36.154  20.042   0.965
61562W        W26723  29.875   8.920  10.546
61563W        W26724  36.317  25.488  12.921
61564W        W26725  42.924  41.565  12.406
61565W        W26726  40.347  44.534   1.722
61566W        W26727   8.691  11.129   3.697
61567W        W26728  15.361   6.602  13.929
61568W        W26729  34.568  28.729   1.657
61569W        W26730  26.972  12.415  12.055
61570W        W26731  10.561   8.908  14.937
61571W        W26732   8.457  27.936  13.173
61572W        W26733   3.033   8.080   3.560
61573W        W26734  44.864   2.130   0.126
61574W        W26735  33.618  22.551  11.028
61575W        W26736  33.193  35.064   1.448
61576W        W26737  19.198  29.353  14.587
61577W        W26738  11.132  40.813   3.630
61578W        W26739  11.850  18.223  14.902
61579W        W26740  31.579  38.612  14.636
61580W        W26741   1.378  20.541   0.775
61581W        W26742  12.048   9.222   4.473
61582W        W26743  19.035  11.317   3.621
61583W        W26744   6.432  37.857   1.752
61584W        W26745  32.539  32.929   1.231
61585W        W26746  10.315  21.615  11.159
61586W        W26747  10.186  35.429  11.503
61587W        W26748  25.113  12.897   2.384
61588W        W26749  19.580  36.585   4.053
61589W        W26750  35.857  13.634   2.387
61590W        W26751  13.383  25.724  14.401
61591W        W26752  26.505  29.940   2.264
61592W        W26753  36.347  17.297   2.336
61593W        W26754  13.122  24.749  11.804
61594W        W26755   3.971  42.522  10.724
61595W        W26756  38.863  16.839   3.059
61596W        W26757  36.327  21.587   1.274
61597W        W26758  15.106   3.625   4.317
61598W        W26759   7.661  19.670   0.318
61599W        W26760  18.586  24.142  14.365
61600W        W26761   8.889  41.288   2.918
61601W        W26762  36.881  25.700   4.635
61602W        W26763  32.914  37.527   2.853
61603W        W26764  38.289   8.817   3.891
61604W        W26765  30.433  14.124   3.258
61605W        W26766  28.875  33.084   3.359
61606W        W26767  15.286  44.633  12.080
61607W        W26768  21.740  41.915   2.271
61608W        W26769  13.519  21.586   2.445
61609W        W26770  10.430  26.975   1.335
61610W        W26771  32.656   7.353  13.305
61611W        W26772   9.743  33.984  13.624
61612W        W26773  19.857   8.378   4.169
61613W        W26774  22.953  24.762  10.293
61614W        W26775  12.238  43.065  14.348
61615W        W26776  19.031   7.924  12.473
61616W        W26777  23.997  44.827   4.188
61617W        W26778  28.062  34.381  14.923
61618W        W26779  20.171  11.352  10.557
61619W        W26780  14.274  15.112   2.953
61620W        W26781  26.950  29.317  14.838
61621W        W26782  29.848  42.853  10.097
61622W        W26783  25.659  20.044  10.746
61623W        W26784  32.511  40.426   2.949
61624W        W26785  33.327  13.287  14.736
61625W        W26786  31.336  37.762  13.950
61626W        W26787   1.596  17.090  12.799
61627W        W26788  11.841  43.995  11.695
61628W        W26789  34.124   3.008   0.317
61629W        W26790  24.591   9.083   9.961
61630W        W26791   0.898  11.104  11.554
61631W        W26792  43.460  29.900   1.545
61632W        W26793  43.981  27.611   1.734
61633W        W26794  31.099  37.133  13.992
61634W        W26795   4.377  42.929   3.646
61635W        W26796  44.039  29.150   4.067
61636W        W26797  41.366   4.210   4.091
61637W        W26798  13.374  21.762  12.979
61638W        W26799   1.942  26.121  10.391
61639W        W26800  31.344  29.128  14.917
61640W        W26801   8.295  25.407  10.248
61641W        W26802  40.771  37.858   3.648
61642W        W26803  42.808  23.234   0.402
61643W        W26804  10.136  40.331   1.706
61644W        W26805  39.961   4.696   2.086
61645W        W26806  20.136  36.075  12.577
61646W        W26807   4.195   1.034   3.597
61647W        W26808  33.166  26.231   4.999
61648W        W26809   3.403   2.703  13.154
61649W        W26810   9.770   4.171  12.704
61650W        W26811  21.126  21.293  11.114
61651W        W26812  32.878  35.997  11.119
61652W        W26813  37.347  26.477   1.401
61653W        W26814  43.885   9.787  11.455
61654W        W26815  11.416  26.072   1.221
61655W        W26816  38.512  38.130  13.864
61656W        W26817  43.967   8.620  13.581
61657W        W26818  10.888  26.458   4.587
61658W        W26819  10.300  41.042  12.289
61659W        W26820   0.797  17.677   3.721
61660W        W26821  42.210  19.427  13.344
61661W        W26822  14.683  14.327   2.349
61662W        W26823   1.560  13.200  13.023
61663W        W26824  36.873   6.713  14.786
61664W        W26825  27.925  42.197  11.643
61665W        W26826  10.989  28.661  11.555
61666W        W26827  27.464  39.191   2.758
61667W        W26828  34.921  16.098  13.967
61668W        W26829  15.647  11.230   1.766
61669W        W26830  14.634   9.782   4.617
61670W        W26831  17.725  11.413   2.756
61671W        W26832  16.570  38.409  13.683
61672W        W26833  38.627   5.789   1.720
61673W        W26834  29.929  23.671   0.753
61674W        W26835  30.484  32.112  11.519
61675W        W26836  13.602   6.402  13.551
61676W        W26837  13.711  26.214   4.057
61677W        W26838   7.348  41.040  12.945
61678W        W26839  19.113  16.734   1.944
61679W        W26840  27.177  16.646   3.199
61680W        W26841  29.690  15.326  12.114
61681W        W26842  43.445   3.927  12.904
61682W        W26843   3.800  10.176  13.116
61683W        W26844  23.274  30.538  12.898
61684W        W26845  14.633  38.769   2.635
61685W        W26846   6.880  30.871  12.068
61686W        W26847  29.347  34.661  11.981
61687W        W26848  44.454  21.487  14.647
61688W        W26849  41.272   6.757  13.493
61689W        W26850  10.693  13.758   3.104
61690W        W26851  41.799  41.033   3.225
61691W        W26852  13.862  16.334   1.645
61692W        W26853   9.264  18.079  10.574
61693W        W26854  35.028  23.165   4.772
61694W        W26855  21.884  18.270   0.305
61695W        W26856  19.667  12.461  13.983
61696W        W26857  32.591  17.634   2.115
61697W        W26858  44.403  31.207  12.419
61698W        W26859  37.048  15.074  12.026
61699W        W26860  44.255  43.907   2.890
61700W        W26861  37.377  13.707   4.316
61701W        W26862  40.940  12.720   0.024
61702W        W26863  41.385   2.713   0.033
61703W        W26864  21.597  18.347   3.191
61704W        W26865  12.539  38.072  12.170
61705W        W26866  10.101  18.058   3.676
61706W        W26867   0.797   2.256   1.317
61707W        W26868   0.440  40.240   3.773
61708W        W26869  25.896  44.580   2.087
61709W        W26870  23.567  35.396  11.025
61710W        W26871   1.734  13.360   2.213
61711W        W26872  38.897  41.472   0.937
61712W        W26873  14.258   0.582   2.162
61713W        W26874  40.782  12.510   2.621
61714W        W26875  10.388  39.901   0.942
61715W        W26876   0.334  43.571   2.253
61716W        W26877  10.194  21.298  10.277
61717W        W26878  37.606   0.731   4.165
61718W        W26879   5.875   8.752  10.280
61719W        W26880   0.293  44.812  13.871
61720W        W26881  35.413  35.381  12.961
61721W        W26882  10.603  15.773   2.618
61722W        W26883  20.069  30.938   0.243
61723W        W26884  44.640  10.357   0.356
61724W        W26885  30.032  36.415  12.754
61725W        W26886  30.366  37.877  11.116
61726W        W26887  15.289  19.745  11.861
61727W        W26888  42.103  20.196   1.849
61728W        W26889  41.402   6.001   3.837
61729W        W26890  35.586  24.125  12.958
61730W        W26891   5.890  15.358  10.694
61731W        W26892  17.764  42.568  11.156
61732W        W26893  39.146  32.556   2.747
61733W        W26894  32.026  43.590  10.985
61734W        W26895  44.848  28.575   0.692
61735W        W26896   4.861   1.224   1.754
61736W        W26897  22.552  41.913  11.090
61737W        W26898  15.056   5.097   2.129
61738W        W26899  21.259  16.805  14.330
61739W        W26900   3.653  23.140   0.030
61740W        W26901   3.819  28.970  12.861
61741W        W26902   0.235  14.236  14.999
61742W        W26903   1.719  16.322   3.147
61743W        W26904  17.232  41.148   4.527
61744W        W26905   7.787  18.537  10.706
61745W        W26906   3.289  43.885  11.078
61746W        W26907  11.256  37.347   3.225
61747W        W26908  11.644   5.424   1.820
61748W        W26909  29.069  13.128  10.685
61749W        W26910  11.375   9.402  14.369
61750W        W26911   4.843  11.927   4.632
61751W        W26912  33.940  24.187  14.360
61752W        W26913   0.243   3.122   4.190
61753W        W26914   1.285  14.396  10.833
61754W        W26915  16.667  36.619  10.840
61755W        W26916  19.114  44.336  12.326
61756W        W26917  37.455  41.782   4.129
61757W        W26918   6.363  16.166  12.486
61758W        W26919  38.806  32.990   4.826
61759W        W26920  24.918   1.831   4.284
61760W        W26921  18.108  43.463  13.188
61761W        W26922  32.635  37.451   1.169
61762W        W26923  44.225   7.289  12.054
61763W        W26924  44.083  13.763   1.069
61764W        W26925  42.416  28.885  10.609
61765W        W26926   6.867  17.233  12.874
61766W        W26927  23.108  33.057  10.711
61767W        W26928   1.441  40.241  13.801
61768W        W26929   3.721  15.601  11.069
61769W        W26930  35.301  38.450  11.725
61770W        W26931  31.446  24.059  13.008
61771W        W26932  20.883  38.328   2.396
61772W        W26933  12.059   0.516   4.560
61773W        W26934   5.948  34.157  13.576
61774W        W26935   5.281  40.924   0.055
61775W        W26936  29.165  28.600   0.698
61776W        W26937  15.534   6.222  10.018
61777W        W26938   6.583  35.153   0.477
61778W        W26939   8.942  42.780   2.904
61779W        W26940  28.589   2.572   0.223
61780W        W26941  34.529  27.957  12.874
61781W        W26942  15.327  18.162  11.440
61782W        W26943  32.141  20.367  14.181
61783W        W26944   0.410  18.269  13.793
61784W        W26945  24.211  24.954   5.075
61785W        W26946  40.882  13.696   4.707
61786W        W26947  33.659  18.597   0.219
61787W        W26948  11.642   6.110   0.410
61788W        W26949  42.511   2.763  11.694
61789W        W26950   9.313   9.289   1.885
61790W        W26951  34.374  11.744   4.827
61791W        W26952  32.132  30.522   4.707
61792W        W26953  13.723   3.803  14.934
61793W        W26954  15.777  12.931   2.788
61794W        W26955   6.222  22.254   0.874
61795W        W26956  28.658  11.307  10.344
61796W        W26957  23.686  42.372   2.740
61797W        W26958   7.534   5.172   0.551
61798W        W26959  27.556  42.291   4.522
61799W        W26960  42.555   2.476  13.874
61800W        W26961  34.117  28.985   1.827
61801W        W26962  41.109  20.037  12.032
61802W        W26963  39.952  29.018  14.983
61803W        W26964  27.488  26.284   4.184
61804W        W26965   3.745  16.280  12.641
61805W        W26966   3.742   2.280   1.149
61806W        W26967  39.050   7.139   4.325
61807W        W26968  44.503  12.574   4.121
61808W        W26969  10.962  33.371  14.896
61809W        W26970   7.854  33.470  10.399
61810W        W26971  30.712  35.570   4.097
61811W        W26972  34.485  34.989   2.843
61812W        W26973  41.987  40.250  14.810
61813W        W26974  42.810  42.978   4.624
61814W        W26975  24.481  23.079  13.427
61815W        W26976  25.052  15.390  13.456
61816W        W26977   2.419  21.729  14.036
61817W        W26978   4.145  22.130   2.403
61818W        W26979  23.583  44.312   2.358
61819W        W26980  20.895  34.505   2.719
61820W        W26981  10.131  29.589   4.645
61821W        W26982  18.789  26.973   0.755
61822W        W26983  10.607   1.314   0.458
61823W        W26984  20.544  34.697  12.878
61824W        W26985   2.005  27.621  13.597
61825W        W26986  42.830  14.554   0.055
61826W        W26987   3.173   6.786  14.705
61827W        W26988  15.018  36.716   0.824
61828W        W26989   1.823  12.928  13.874
61829W        W26990  39.255  23.966   3.955
61830W        W26991  43.976  29.877  13.847
61831W        W26992  40.289  18.192   3.538
61832W        W26993  30.642  14.611  14.295
61833W        W26994  19.830  42.716   2.617
61834W        W26995   2.149  34.193   0.003
61835W        W26996   3.722  18.596   1.810
61836W        W26997  14.332  13.508  11.448
61837W        W26998  12.854  39.039   2.897
61838W        W26999  13.808   7.764  13.428
61839W        W27000  40.297   5.068   9.877
61840W        W27001   5.173  23.036  13.977
61841W        W27002  30.214  17.478  12.256
61842W        W27003   0.159   7.521   4.600
61843W        W27004  31.893  19.485   0.251
61844W        W27005  17.585  17.090   0.385
61845W        W27006  42.983  25.580   0.546
61846W        W27007   5.788  23.308   1.837
61847W        W27008  38.115  11.403  14.791
61848W        W27009  21.756  15.768  14.031
61849W        W27010  13.834  44.037   4.480
61850W        W27011   2.754  26.841  12.557
61851W        W27012  43.900  36.996   2.601
61852W        W27013   5.500   8.816   0.886
61853W        W27014  24.033   7.064  14.331
61854W        W27015  40.442  38.327  12.004
61855W        W27016  22.607  17.118   2.915
61856W        W27017  36.925   5.971   1.288
61857W        W27018  25.645  20.641  13.344
61858W        W27019  14.285  17.389  11.246
61859W        W27020  11.174  22.305   1.863
61860W        W27021  11.257  12.148  13.843
61861W        W27022   5.643  21.499   3.183
61862W        W27023  23.631  41.461   1.448
61863W        W27024  16.294  21.050   2.237
61864W        W27025  28.534  33.190   2.994
61865W        W27026  11.353  27.487  11.382
61866W        W27027  36.363  35.068   2.978
61867W        W27028  22.061  21.544   0.258
61868W        W27029   3.902  28.500  13.983
61869W        W27030  15.473  12.918  14.022
61870W        W27031  28.580   6.311   3.846
61871W        W27032  38.525   3.684  12.897
61872W        W27033  16.791  15.646  13.855
61873W        W27034  18.770   7.302  10.421
61874W        W27035   3.077   7.974   1.260
61875W        W27036  41.496  40.100   4.539
61876W        W27037  34.954  17.052  14.810
61877W        W27038   4.364   5.849   0.938
61878W        W27039  33.104  43.040   5.132
61879W        W27040  43.030  32.178   4.709
61880W        W27041  28.006   9.120  13.960
61881W        W27042   5.228   3.542  13.468
61882W        W27043   1.331   8.961  12.381
61883W        W27044  16.218   8.273   1.311
61884W        W27045  30.608  31.033   2.680
61885W        W27046  30.108  26.637  14.914
61886W        W27047  36.987  40.080   3.219
61887W        W27048  10.403   3.855  11.621
61888W        W27049  37.340  19.096   3.727
61889W        W27050  37.246   0.468   2.735
61890W        W27051  16.608  16.223   4.277
61891W        W27052  43.544  31.374  13.085
61892W        W27053  31.912   3.961  11.026
61893W        W27054  19.978  19.872   4.100
61894W        W27055  22.173  42.771  12.039
61895W        W27056  34.056  24.704   3.643
61896W        W27057  33.665  11.808   2.743
61897W        W27058   8.038  30.478  13.230
61898W        W27059  40.731   3.132   1.664
61899W        W27060   1.205   4.854   4.814
61900W        W27061  32.502   7.412  14.365
61901W        W27062  32.182  35.870  13.232
61902W        W27063  31.004  24.713  13.572
61903W        W27064  34.316   8.355  11.144
61904W        W27065   3.926  13.525   1.866
61905W        W27066   9.650  44.535  14.823
61906W        W27067   3.877  25.087  13.430
61907W        W27068  13.317  40.197   4.982
61908W        W27069  38.552  25.054   3.835
61909W        W27070  19.267  17.095  12.069
61910W        W27071  28.079  43.818  10.591
61911W        W27072  26.270  40.467   5.282
61912W        W27073  27.455  34.111  13.425
61913W        W27074  28.691   0.400  14.072
61914W        W27075   6.958  27.090   3.400
61915W        W27076  10.484  25.159   2.622
61916W        W27077  33.327  26.763  13.521
61917W        W27078   8.867  33.947   4.470
61918W        W27079   4.947  44.303  11.985
61919W        W27080  17.187  44.155   0.917
61920W        W27081  24.980   1.977  14.819
61921W        W27082  41.567  35.535   3.302
61922W        W27083  27.011  33.472  11.820
61923W        W27084   6.799  28.451   4.683
61924W        W27085   3.218  17.474  12.584
61925W        W27086  13.696  19.997  12.115
61926W        W27087  40.622  18.122  13.060
61927W        W27088  19.368  32.951   0.910
61928W        W27089  42.825   6.310  14.362
61929W        W27090   8.223  28.705  11.608
61930W        W27091   4.631  38.945  14.239
61931W        W27092  32.869  22.257  11.517
61932W        W27093  32.445  15.273  12.029
61933W        W27094  10.697  34.348   3.404
61934W        W27095  26.915  23.564   1.956
61935W        W27096  41.960  33.314   1.229
61936W        W27097  36.335  17.246  12.416
61937W        W27098  20.954  41.276   4.383
61938W        W27099   9.818  16.131   4.361
61939W        W27100   7.827  25.002  11.096
61940W        W27101  39.786  23.331  12.837
61941W        W27102  13.529  30.082   0.753
61942W        W27103  10.455   9.592  13.924
61943W        W27104  26.036  20.244  11.040
61944W        W27105  22.059   6.391   3.872
61945W        W27106  25.923   6.657   3.903
61946W        W27107  20.555   7.768   2.796
61947W        W27108   1.226  21.702   1.333
61948W        W27109  40.021  13.636   2.439
61949W        W27110  29.744   9.479   3.752
61950W        W27111  29.407  15.152  14.006
61951W        W27112  10.007  12.204   4.771
61952W        W27113  16.185  23.557  10.714
61953W        W27114   7.773  23.505   1.358
61954W        W27115  33.028  19.622  12.007
61955W        W27116  31.475   3.054   3.411
61956W        W27117   7.686  29.086  12.999
61957W        W27118  41.022  28.003  13.930
61958W        W27119  23.692  23.703  12.280
61959W        W27120  10.772  14.691   4.554
61960W        W27121  37.928   7.697   4.993
61961W        W27122  23.730  26.854   2.682
61962W        W27123   5.394  13.818   1.464
61963W        W27124  33.451  25.655  12.356
61964W        W27125  36.458   2.071   5.140
61965W        W27126  16.489  43.288  12.973
61966W        W27127  35.918   6.293  13.392
61967W        W27128   3.692   6.083  14.360
61968W        W27129  33.346   5.894   3.703
61969W        W27130   4.197  24.034   0.384
61970W        W27131  25.029  20.074  14.507
61971W        W27132   9.854  29.034  11.987
61972W        W27133  30.413  21.548   0.761
61973W        W27134  27.083  37.954   2.200
61974W        W27135   7.704  44.487  10.657
61975W        W27136   1.403  33.706   4.571
61976W        W27137  27.929   2.748  11.155
61977W        W27138  23.905  29.537   5.152
61978W        W27139  40.234  17.197   1.683
61979W        W27140   0.701  34.477  13.715
61980W        W27141  40.842  28.436   2.211
61981W        W27142  30.976  16.140   2.020
61982W        W27143  23.566  30.327  12.483
61983W        W27144  24.461   5.984   4.923
61984W        W27145  43.695  22.719   1.307
61985W        W27146   1.389  44.234   1.468
61986W        W27147   1.821  41.332   2.069
61987W        W27148   3.876  27.686   4.222
61988W        W27149  25.628  17.013   3.110
61989W        W27150  44.954  43.458  12.197
61990W        W27151  19.767  32.945  10.902
61991W        W27152  21.685  14.843  12.527
61992W        W27153   7.878  31.087  13.337
61993W        W27154   4.411  32.576   3.605
61994W        W27155  37.923  27.370  12.924
61995W        W27156  36.678  44.947   0.925
61996W        W27157   5.850  44.348  10.964
61997W        W27158  15.505  15.133  14.869
61998W        W27159  18.285  21.547  12.421
61999W        W27160   7.774  33.803  11.713
62000W        W27161  33.377  34.526  10.024
62001W        W27162  14.314  21.639   3.632
62002W        W27163  22.560  18.243  10.833
62003W        W27164  19.043  14.710   5.596
62004W        W27165  17.313  14.891   1.834
62005W        W27166  39.358  16.117   1.756
62006W        W27167  18.573  10.242  12.481
62007W        W27168  22.530   8.297  12.913
62008W        W27169  28.276  26.559   1.419
62009W        W27170  19.043  28.036  10.790
62010W        W27171   3.737  44.413  10.405
62011W        W27172  22.656  26.407  13.546
62012W        W27173  17.118  20.612   4.532
62013W        W27174  38.559  13.691   3.789
62014W        W27175   0.295  20.073  14.008
62015W        W27176  30.898  33.077  10.660
62016W        W27177  17.734  23.780  11.419
62017W        W27178  41.857  27.005  12.514
62018W        W27179  11.817  22.818   3.818
62019W        W27180  25.278  22.008   2.605
62020W        W27181  38.437  36.395  12.108
62021W        W27182   2.865  22.380   0.045
62022W        W27183  19.313  18.321   4.638
62023W        W27184  15.586  17.227   0.485
62024W        W27185  38.476  14.428   2.255
62025W        W27186  42.217  37.133   5.444
62026W        W27187  35.069   5.588  10.562
62027W        W27188  39.765  17.004   1.683
62028W        W27189  40.691  23.476  11.462
62029W        W27190  41.259   6.725  12.110
62030W        W27191  25.064  42.908  14.376
62031W        W27192  19.021  36.471   4.274
62032W        W27193  10.808  43.578   3.143
62033W        W27194  40.260  17.203   3.139
62034W        W27195  27.669  14.694   0.461
62035W        W27196   9.383   1.941  10.691
62036W        W27197  21.784  20.136   2.397
62037W        W27198  17.463  28.985   4.011
62038W        W27199   4.496  31.636   3.697
62039W        W27200  15.115  34.713  12.122
62040W        W27201  22.230  36.788  12.961
62041W        W27202  12.762   7.803  13.578
62042W        W27203  38.620  33.042   1.236
62043W        W27204  23.154  23.521   5.399
62044W        W27205  31.231  17.703  13.951
62045W        W27206  38.595  36.539  12.580
62046W        W27207  10.598  17.096   0.501
62047W        W27208  31.510  41.727  14.032
62048W        W27209  17.756  16.362  12.448
62049W        W27210  36.149  43.301  12.493
62050W        W27211  35.909   7.882   1.748
62051W        W27212  38.878   8.343  12.518
62052W        W27213   7.850   0.689  12.929
62053W        W27214  43.779  31.347  14.940
62054W        W27215   1.633  36.427  14.528
62055W        W27216  27.570  36.346  12.942
62056W        W27217  29.232  43.476   4.126
62057W        W27218  21.580   3.538  13.311
62058W        W27219   4.171   9.321   3.236
62059W        W27220   3.585  16.020  14.070
62060W        W27221  33.360  38.008   0.015
62061W        W27222  13.984   2.905  10.786
62062W        W27223  11.740  41.695   1.359
62063W        W27224  14.340  28.513   1.351
62064W        W27225  19.690  21.619   1.522
62065W        W27226   4.487  26.781   3.224
62066W        W27227  29.650  26.612  11.106
62067W        W27228   3.157  35.354   5.588
62068W        W27229   3.815  36.033  13.470
62069W        W27230  25.408  29.844   3.821
62070W        W27231  26.494  29.406   2.019
62071W        W27232  17.520   0.450  14.345
62072W        W27233  19.963  18.612  10.219
62073W        W27234  42.282  29.093   3.981
62074W        W27235  32.355   2.836  13.325
62075W        W27236  43.773   8.694  11.804
62076W        W27237  11.555  35.119   2.439
62077W        W27238   6.596  15.633   1.767
62078W        W27239  18.873  37.292   4.579
62079W        W27240  10.774  10.127   2.280
62080W        W27241  34.090  25.497  12.984
62081W        W27242  22.543   8.467  11.099
62082W        W27243  17.049  31.884  13.526
62083W        W27244  18.094  33.910   0.007
62084W        W27245  12.360  27.477   0.446
62085W        W27246   6.444   6.359   0.988
62086W        W27247  41.010  27.959  14.943
62087W        W27248  12.754  21.973  11.874
62088W        W27249  27.949  16.188   0.875
62089W        W27250  34.944  19.525  10.788
62090W        W27251  43.481   7.439  12.548
62091W        W27252  14.556  44.155   5.092
62092W        W27253  40.635  43.787   4.117
62093W        W27254  35.258  22.105  13.379
62094W        W27255  10.386   0.214  12.394
62095W        W27256  31.470  13.138  14.347
62096W        W27257   2.806  19.674   3.898
62097W        W27258   2.033  36.045   4.750
62098W        W27259  31.912  15.580  14.925
62099W        W27260  37.615  14.781   1.264
62100W        W27261  37.012  43.015   2.178
62101W        W27262   2.754  21.706  14.435
62102W        W27263  44.758  38.398   4.133
62103W        W27264  26.197  34.053  10.527
62104W        W27265  29.071   9.371  13.443
62105W        W27266   2.334  13.757   2.581
62106W        W27267   1.616  24.843  14.342
62107W        W27268   9.417  11.684  10.697
62108W        W27269  20.707   9.459  13.146
62109W        W27270  16.913  40.915   2.871
62110W        W27271  32.343  18.159  10.698
62111W        W27272   9.130   5.916  10.540
62112W        W27273   1.427  22.604  13.054
62113W        W27274  31.914  15.617  13.961
62114W        W27275   7.789  20.501  14.731
62115W        W27276   3.217   5.714   3.362
62116W        W27277  15.250   0.714  12.024
62117W        W27278  28.598  14.644  11.888
62118W        W27279  40.065   2.190   0.814
62119W        W27280  10.301   7.904   3.088
62120W        W27281  16.630  26.095   2.780
62121W        W27282   4.502  12.136   2.841
62122W        W27283  18.257   0.720   1.647
62123W        W27284  14.600  25.699   3.639
62124W        W27285   5.407  27.586   2.008
62125W        W27286  21.162   9.990  12.461
62126W        W27287  11.120  17.308   1.183
62127W        W27288  21.285  36.473   4.606
62128W        W27289  32.016  17.101   0.040
62129W        W27290  21.820  36.454  13.844
62130W        W27291   6.069  42.101   2.629
62131W        W27292  35.642  35.058   0.617
62132W        W27293  35.596  10.399  11.566
62133W        W27294   0.274  38.636  14.053
62134W        W27295  14.439  22.415  11.607
62135W        W27296  37.914  25.180  13.505
62136W        W27297   7.455  21.465   1.207
62137W        W27298  42.195  17.223   1.947
62138W        W27299   4.372  31.359   4.122
62139W        W27300  14.714   9.549   3.348
62140W        W27301  40.735  31.885  12.986
62141W        W27302  44.550   0.499   3.178
62142W        W27303  13.076  42.091   3.413
62143W        W27304   0.391   1.338  14.860
62144W        W27305  39.454  38.473   0.462
62145W        W27306  33.090  24.659  12.936
62146W        W27307   0.539  39.805  13.336
62147W        W27308   5.820   7.799   0.265
62148W        W27309  14.778  32.621   0.328
62149W        W27310  32.989   1.704   4.799
62150W        W27311   8.889  35.290   1.395
62151W        W27312  37.809  32.510   1.219
62152W        W27313   1.065  23.220   2.627
62153W        W27314  30.039  43.711   2.576
62154W        W27315  21.307  31.126   2.533
62155W        W27316  15.375   6.716   2.896
62156W        W27317  19.203  11.314  12.426
62157W        W27318   5.849  35.157  13.613
62158W        W27319  32.101  20.089  12.015
62159W        W27320  40.401  30.683   1.261
62160W        W27321  10.311   4.051   1.481
62161W        W27322   2.527  20.580  14.821
62162W        W27323  26.655  35.655   2.808
62163W        W27324  30.968  27.693  13.281
62164W        W27325  41.122  38.058  14.964
62165W        W27326  22.420  12.346  13.923
62166W        W27327  29.930  11.707  12.873
62167W        W27328  16.905  33.086   4.482
62168W        W27329  43.024  23.972  13.821
62169W        W27330  37.120  42.023  12.923
62170W        W27331  41.320   3.152   3.138
62171W        W27332  22.087   2.194   2.171
62172W        W27333  29.980   6.926  14.984
62173W        W27334  18.669  40.738   0.812
62174W        W27335  40.306   6.312   4.649
62175W        W27336  33.064  28.034   2.178
62176W        W27337   7.230  19.852   4.531
62177W        W27338  37.609  25.023  14.511
62178W        W27339  21.834  18.555  11.761
62179W        W27340  35.559  20.042   0.593
62180W        W27341  16.662  43.779  12.978
62181W        W27342   7.632  38.988  13.943
62182W        W27343  30.150   9.240   3.922
62183W        W27344  40.584  34.058   3.295
62184W        W27345  42.773  19.368   1.791
62185W        W27346   2.741  30.702  11.586
62186W        W27347  37.378  16.867   0.828
62187W        W27348   3.999  42.937  10.385
62188W        W27349  10.650  33.337   3.570
62189W        W27350  14.383   0.848  13.330
62190W        W27351  27.692  24.920   0.774
62191W        W27352  13.109  41.532  13.871
62192W        W27353   1.870  19.709  14.898
62193W        W27354   6.185  30.131   1.786
62194W        W27355   8.694  27.589   3.519
62195W        W27356  14.108   6.621   1.853
62196W        W27357  19.220  34.177   4.156
62197W        W27358   6.860   5.927  14.933
62198W        W27359  18.997  41.856   2.157
62199W        W27360  27.087  38.064   3.627
62200W        W27361   6.865  15.376  12.083
62201W        W27362  14.199  41.284   1.835
62202W        W27363  10.699   2.954  14.497
62203W        W27364   7.889  42.022  11.642
62204W        W27365  21.075   2.750   0.800
62205W        W27366  14.257   1.455   4.341
62206W        W27367   8.793   4.485  12.084
62207W        W27368  27.394  31.598  13.905
62208W        W27369  28.955  20.413  12.946
62209W        W27370  19.217   3.397  12.191
62210W        W27371  30.999  40.782   3.753
62211W        W27372  39.545  24.693   0.377
62212W        W27373  12.092   1.683  14.984
62213W        W27374  27.965   3.170   3.147
62214W        W27375  10.940  44.024   2.470
62215W        W27376   0.313  24.250   4.159
62216W        W27377  36.040  14.269  13.402
62217W        W27378  38.020   7.220  14.953
62218W        W27379  27.124  44.029   2.071
62219W        W27380  19.064  32.588  11.870
62220W        W27381  37.185  27.469   4.758
62221W        W27382  28.536   3.415  13.136
62222W        W27383  25.171  19.337   0.465
62223W        W27384  26.249  20.643  12.716
62224W        W27385  26.638  22.728  10.263
62225W        W27386  44.893  31.875   0.464
62226W        W27387  40.279  12.687   1.430
62227W        W27388  19.583  30.963  14.287
62228W        W27389   8.709  36.027  12.226
62229W        W27390  36.674  29.765  14.283
62230W        W27391  20.158  18.259   0.392
62231W        W27392  43.608  16.345   3.261
62232W        W27393  10.458   4.708   3.691
62233W        W27394  34.012  26.488  12.892
62234W        W27395  14.253  29.441   2.362
62235W        W27396  33.676  19.149   0.264
62236W        W27397  40.585   3.172  10.714
62237W        W27398  18.575  14.054   4.534
62238W        W27399  31.059  38.780  10.674
62239W        W27400  13.747  39.170   2.840
62240W        W27401  32.004  36.112   1.670
62241W        W27402  41.618   6.468  11.884
62242W        W27403  19.483  22.707  11.497
62243W        W27404  36.771  14.500  14.026
62244W        W27405  19.113  33.320  13.344
62245W        W27406  18.363  21.810  11.521
62246W        W27407  17.927  36.420   0.264
62247W        W27408  19.960  20.208   0.323
62248W        W27409  20.801  16.274   1.242
62249W        W27410  12.557  42.246   2.661
62250W        W27411  14.237   7.708   2.858
62251W        W27412   9.786  20.508  14.542
62252W        W27413  32.635  22.603  12.204
62253W        W27414  44.352   6.611  12.754
62254W        W27415  31.693  37.764   3.201
62255W        W27416  20.781  21.129  11.514
62256W        W27417  43.254  14.866  12.795
62257W        W27418  24.774  28.426  10.574
62258W        W27419   6.808  17.090  12.385
62259W        W27420   4.297  39.696  14.203
62260W        W27421  33.454   7.153  14.333
62261W        W27422  35.429  23.528  10.690
62262W        W27423   7.967  33.560   2.718
62263W        W27424  38.484   5.893   4.278
62264W        W27425   8.683  22.086   0.802
62265W        W27426   4.264  27.575   3.426
62266W        W27427  35.405  19.801  10.754
62267W        W27428  26.836  16.789   4.189
62268W        W27429  34.969  17.282  14.334
62269W        W27430  19.048  44.901   2.905
62270W        W27431  14.716   3.744   3.147
62271W        W27432  36.618   2.664  12.898
62272W        W27433  23.471  10.091   3.336
62273W        W27434   4.317  11.839   4.642
62274W        W27435   6.859   5.809   0.444
62275W        W27436   9.955  35.594  12.372
62276W        W27437   3.843  12.699   0.877
62277W        W27438  10.403  11.781  10.798
62278W        W27439   6.509  13.191  10.758
62279W        W27440  27.943  15.672   0.534
62280W        W27441   5.016   0.909   2.737
62281W        W27442  24.271  13.051  14.741
62282W        W27443  34.545  11.523  13.609
62283W        W27444   7.757  40.293   2.197
62284W        W27445   2.991  27.632   5.407
62285W        W27446   0.238  30.034   4.079
62286W        W27447  34.329  30.627  12.566
62287W        W27448  33.972  21.789   1.902
62288W        W27449  13.632   0.012   3.736
62289W        W27450  39.239   3.236   1.765
62290W        W27451  26.548  28.049   0.284
62291W        W27452  23.965  14.873  12.014
62292W        W27453  12.119   1.192  11.138
62293W        W27454   4.950  10.894  10.976
62294W        W27455  36.193  41.713  12.951
62295W        W27456  40.336  38.307   3.186
62296W        W27457  13.216  11.408   0.738
62297W        W27458  36.032  42.394   2.105
62298W        W27459  14.439  40.594  13.321
62299W        W27460   6.798  40.490  12.001
62300W        W27461  23.104  28.546  14.369
62301W        W27462  26.932   3.958  14.377
62302W        W27463   9.007  14.271  14.505
62303W        W27464  37.070  21.674  13.611
62304W        W27465  41.090   8.386  10.710
62305W        W27466  26.983  38.504  12.840
62306W        W27467  44.466  42.952  11.901
62307W        W27468  36.484  41.244  10.926
62308W        W27469  30.774  22.457   2.721
62309W        W27470  18.834   0.913   2.319
62310W        W27471  19.815  43.011   3.620
62311W        W27472  24.806  17.009   2.711
62312W        W27473   9.289  41.131   2.563
62313W        W27474   3.372  34.634   4.631
62314W        W27475  19.648  16.537  12.439
62315W        W27476  23.839  22.233  13.764
62316W        W27477  26.501  36.695   2.883
62317W        W27478  37.388   6.173   1.867
62318W        W27479  22.108   8.811   2.407
62319W        W27480  39.174  15.564   0.364
62320W        W27481  28.104  10.729   1.400
62321W        W27482  38.918  40.793  14.822
62322W        W27483  11.625   9.835   2.351
62323W        W27484  24.018   0.860   1.159
62324W        W27485   3.371   7.121   0.156
62325W        W27486  36.524  19.995  11.967
62326W        W27487   2.805  31.129  13.468
62327W        W27488  18.653  15.561  11.098
62328W        W27489  35.698  22.626  14.338
62329W        W27490  34.805  41.492  12.687
62330W        W27491  31.985  27.654   1.428
62331W        W27492   3.466  25.390   0.781
62332W        W27493  19.266  26.462   2.685
62333W        W27494  18.737  23.104  11.924
62334W        W27495  34.340  12.859  13.934
62335W        W27496  27.189  36.587  12.083
62336W        W27497  25.828  32.462  13.910
62337W        W27498   2.567   2.040   1.248
62338W        W27499  32.449   5.294   3.505
62339W        W27500  15.787  19.533   3.337
62340W        W27501  29.141  21.488  14.899
62341W        W27502  33.964  43.101   1.903
62342W        W27503   8.873  16.088   0.222
62343W        W27504  24.740   9.960  13.445
62344W        W27505  22.142  28.699   0.291
62345W        W27506  35.548  41.475   3.375
62346W        W27507  34.482   4.373   3.782
62347W        W27508  44.509  20.295  10.364
62348W        W27509  17.023  26.179  10.612
62349W        W27510   4.961  36.142   2.610
62350W        W27511  23.587  18.532   1.875
62351W        W27512  18.481  26.715  14.015
62352W        W27513   6.147  40.523  12.502
62353W        W27514  19.128  29.185  13.337
62354W        W27515  14.821  18.091   2.937
62355W        W27516   1.893  39.300   1.292
62356W        W27517  37.409  33.949   3.201
62357W        W27518  12.190  34.872   1.838
62358W        W27519  10.286  37.911  12.454
62359W        W27520  24.664  41.085  14.025
62360W        W27521   5.776  33.108  14.445
62361W        W27522  17.689  44.224  14.224
62362W        W27523  42.809  34.353   1.438
62363W        W27524   6.334  21.160  14.988
62364W        W27525   8.299  12.753   0.906
62365W        W27526  12.320  33.450  14.259
62366W        W27527  44.956  18.438  14.018
62367W        W27528  11.984  21.617  11.384
62368W        W27529  17.551  18.334   2.883
62369W        W27530   0.976  43.094  12.128
62370W        W27531   0.399  37.152  14.214
62371W        W27532  19.048  12.378   3.750
62372W        W27533  40.036   6.924   1.900
62373W        W27534  31.576   4.422  13.131
62374W        W27535  38.999  36.516   2.830
62375W        W27536  31.947  27.966  14.478
62376W        W27537  29.483  35.063  14.948
62377W        W27538  16.844  33.102   1.808
62378W        W27539  20.013   3.191  11.645
62379W        W27540   2.237  11.000  10.274
62380W        W27541  14.088  41.415   3.265
62381W        W27542  32.107  31.535  13.100
62382W        W27543  36.183  10.042   2.382
62383W        W27544   1.927  16.146  11.060
62384W        W27545  19.342   6.112   0.472
62385W        W27546  29.688  35.834  13.357
62386W        W27547   4.610  42.313   1.368
62387W        W27548  43.943  43.093   1.718
62388W        W27549   1.678  25.794  10.670
62389W        W27550  30.143  28.057   1.689
62390W        W27551  29.151  40.315  12.561
62391W        W27552  37.617  25.205   4.138
62392W        W27553   7.120  12.792  13.901
62393W        W27554  42.960  29.724  12.918
62394W        W27555  26.920  19.744   1.498
62395W        W27556   2.249   6.000  13.205
62396W        W27557  22.032  37.974   1.979
62397W        W27558  25.710  22.287  12.666
62398W        W27559  25.104  26.161   0.447
62399W        W27560  16.206  37.352   4.141
62400W        W27561   3.377   7.015  13.474
62401W        W27562  30.070  22.807   0.260
62402W        W27563  39.956  43.283  11.164
62403W        W27564  12.147  22.537  12.084
62404W        W27565  16.776  28.703   1.946
62405W        W27566  44.867  39.199   1.428
62406W        W27567   2.054  21.692   2.263
62407W        W27568  21.129  36.575  10.764
62408W        W27569   4.744   5.005   4.134
62409W        W27570   9.516  16.521   4.838
62410W        W27571  29.131   2.461   4.388
62411W        W27572  13.292  41.098   3.192
62412W        W27573  17.688  35.469  12.413
62413W        W27574   0.945  27.764   3.652
62414W        W27575  18.509  16.191  13.802
62415W        W27576   8.713  13.964  14.981
62416W        W27577   2.023  28.120   2.149
62417W        W27578  18.289  11.725   3.250
62418W        W27579  16.197  26.352   2.680
62419W        W27580  12.864   6.941  13.881
62420W        W27581  40.391  27.225   3.209
62421W        W27582  28.371  12.124   0.761
62422W        W27583  37.745  41.803  12.079
62423W        W27584  44.406  27.241   3.206
62424W        W27585  28.511  15.610  12.437
62425W        W27586  18.997   6.665   3.187
62426W        W27587  32.483  36.591  13.329
62427W        W27588  23.676  23.420  13.961
62428W        W27589  33.607  37.335  14.012
62429W        W27590  18.596  42.913  11.652
62430W        W27591  19.605  44.239  13.927
62431W        W27592  18.479  19.124   4.285
62432W        W27593   2.360   8.665  11.042
62433W        W27594  27.269  41.063  12.537
62434W        W27595  33.376  18.258  12.870
62435W        W27596   2.330  33.123   1.877
62436W        W27597  24.474   3.338  11.617
62437W        W27598  27.873   7.377  11.918
62438W        W27599  11.610  28.367   4.439
62439W        W27600  12.830  13.646  11.331
62440W        W27601  37.553  10.823  10.592
62441W        W27602  20.174  24.503   2.679
62442W        W27603  43.842  41.629   1.212
62443W        W27604  25.034  26.640  14.404
62444W        W27605  36.079  33.475   1.922
62445W        W27606  27.113  24.423   1.394
62446W        W27607  42.855  30.317   3.920
62447W        W27608  43.389  43.756  13.633
62448W        W27609  36.669  24.249   0.955
62449W        W27610  32.462  15.756   2.891
62450W        W27611   2.875  34.623  14.380
62451W        W27612  17.007  37.599  10.204
62452W        W27613  44.391  34.506  10.300
62453W        W27614  18.778   6.267   4.546
62454W        W27615  40.986  23.702  10.671
62455W        W27616   0.278   8.722   5.170
62456W        W27617  32.512  41.258  14.885
62457W        W27618   3.520  28.977   3.295
62458W        W27619   5.965  17.737  13.916
62459W        W27620  17.880  13.847  11.418
62460W        W27621  21.457  18.380  14.446
62461W        W27622  11.867  44.830  14.473
62462W        W27623   0.139  39.888  13.024
62463W        W27624  22.821  34.973   4.961
62464W        W27625   0.895   9.789   4.599
62465W        W27626  39.380   0.271   1.647
62466W        W27627  35.626  29.170   4.319
62467W        W27628  11.409   4.532   4.044
62468W        W27629  10.147  32.216   3.434
62469W        W27630  32.794  19.753  12.500
62470W        W27631  21.263   8.160   0.305
62471W        W27632   0.993   3.895  12.859
62472W        W27633  21.754  25.056  13.857
62473W        W27634  32.401  16.255  12.160
62474W        W27635  11.973  43.410   1.790
62475W        W27636  39.936   4.801   3.682
62476W        W27637  38.540  34.895   0.904
62477W        W27638   2.344  28.541  11.180
62478W        W27639   2.516   4.849   3.695
62479W        W27640  18.496  31.432   0.569
62480W        W27641  35.088   8.754   0.290
62481W        W27642  10.195  26.741   0.945
62482W        W27643  38.833  15.730   2.470
62483W        W27644  34.386  19.642  13.975
62484W        W27645  20.554  34.829   1.273
62485W        W27646  15.788  32.023   4.997
62486W        W27647  21.964  13.724  10.330
62487W        W27648   9.567  12.773   2.174
62488W        W27649  26.451   5.828  14.593
62489W        W27650  37.340  13.252   3.214
62490W        W27651  22.455   7.902  13.949
62491W        W27652  18.254  10.603   1.771
62492W        W27653   1.272   2.041  11.761
62493W        W27654   7.968   9.861   1.658
62494W        W27655  39.166  22.217   4.717
62495W        W27656  24.498  14.559  13.958
62496W        W27657  19.551  22.043  13.533
62497W        W27658  16.384   1.939   2.872
62498W        W27659  10.789  13.252  14.958
62499W        W27660  11.145   3.932   0.270
62500W        W27661  38.244  42.822  12.879
62501W        W27662  39.139  26.220   4.050
62502W        W27663  26.035  38.492  13.820
62503W        W27664  24.608  35.756  10.640
62504W        W27665  28.579  41.904  11.665
62505W        W27666   5.330  25.944  13.348
62506W        W27667  16.162   2.265  13.337
62507W        W27668  23.067   6.679   0.995
62508W        W27669   9.384  42.850   1.751
62509W        W27670   0.533  24.461  12.205
62510W        W27671  44.103  40.871   9.781
62511W        W27672  15.833  41.927   3.247
62512W        W27673  10.874  40.003  12.961
62513W        W27674   3.872  15.024  13.886
62514W        W27675  28.916  20.680  11.941
62515W        W27676   8.403  29.298   2.713
62516W        W27677  26.194  28.206   2.333
62517W        W27678  12.918  43.619  12.968
62518W        W27679  35.597  32.832  10.626
62519W        W27680   9.427  24.465  13.724
62520W        W27681   2.369   6.743   0.344
62521W        W27682  21.518   2.250   2.842
62522W        W27683   8.259   1.714   1.169
62523W        W27684  36.878  41.279  12.239
62524W        W27685  39.838  31.888  10.657
62525W        W27686  38.340  11.151   2.599
62526W        W27687  33.521  44.061  14.835
62527W        W27688   2.227  34.856   1.366
62528W        W27689   9.158  17.206   0.359
62529W        W27690  38.528  38.169   2.951
62530W        W27691  44.209  27.400   1.298
62531W        W27692  29.190   5.457   3.997
62532W        W27693  44.127  22.668   3.838
62533W        W27694   1.790  18.306   4.486
62534W        W27695  30.014  15.760   4.917
62535W        W27696  18.365  30.387  10.692
62536W        W27697  26.041   3.155   2.488
62537W        W27698  35.457  14.121  14.897
62538W        W27699   4.728  38.365   1.883
62539W        W27700   1.293  32.645   3.744
62540W        W27701  13.562  26.138  10.706
62541W        W27702  12.349   2.752   2.581
62542W        W27703  42.683  16.072  14.909
62543W        W27704  38.493  44.402  12.172
62544W        W27705  12.319  40.362   1.189
62545W        W27706  22.504  42.319   2.229
62546W        W27707  11.318  34.033  12.414
62547W        W27708   4.678  26.004   0.439
62548W        W27709  42.631  15.083   2.929
62549W        W27710  14.137  39.820  10.571
62550W        W27711  29.190  18.543  11.136
62551W        W27712  43.882  31.906   2.231
62552W        W27713  25.554  16.773  12.681
62553W        W27714  21.852   8.410   4.145
62554W        W27715  22.070  44.846  13.005
62555W        W27716  18.846   1.051  13.492
62556W        W27717  34.459   3.967   0.176
62557W        W27718   1.358   4.511   1.739
62558W        W27719   0.652  11.369  13.581
62559W        W27720  32.389   8.942  10.132
62560W        W27721  34.956  36.498  10.670
62561W        W27722  28.431  44.503   2.851
62562W        W27723  29.451  38.909   2.325
62563W        W27724  43.846  40.364   4.233
62564W        W27725  12.798  10.202  12.923
62565W        W27726  31.953  35.796  12.033
62566W        W27727  11.644  21.251  13.160
62567W        W27728   5.259   4.704   0.817
62568W        W27729  10.825  38.281   2.326
62569W        W27730  38.111  27.114  13.761
62570W        W27731   9.869  17.184  10.872
62571W        W27732  10.622  20.460   5.036
62572W        W27733  20.250   4.902  11.499
62573W        W27734  36.477  43.072   4.559
62574W        W27735  11.323  32.807   3.281
62575W        W27736  25.123   4.756  10.697
62576W        W27737   5.943  31.500  11.628
62577W        W27738   1.516  28.018   0.325
62578W        W27739   2.747   5.678  10.990
62579W        W27740   1.816   5.724   2.667
62580W        W27741  40.052  11.181   1.332
62581W        W27742  34.341   6.770  11.566
62582W        W27743  23.627  37.859  13.328
62583W        W27744  41.246   7.954   4.557
62584W        W27745  34.553  32.197  13.799
62585W        W27746  32.492   2.800   4.134
62586W        W27747  36.614  44.242  10.836
62587W        W27748  16.352  32.061  12.913
62588W        W27749  24.228  14.381   1.698
62589W        W27750  30.483  23.276  13.966
62590W        W27751  35.006  22.921   3.912
62591W        W27752  26.550  30.913   2.839
62592W        W27753   3.081   3.033  13.387
62593W        W27754  11.240  11.900  11.137
62594W        W27755  24.877  29.019   2.207
62595W        W27756   7.183  20.210   0.847
62596W        W27757  23.469   8.993   1.314
62597W        W27758  37.365  15.201  13.931
62598W        W27759   0.294   1.389  13.511
62599W        W27760  13.185  22.710   1.745
62600W        W27761  19.232  18.848   2.629
62601W        W27762   6.594   7.384  12.158
62602W        W27763  34.060  22.558   3.630
62603W        W27764  15.145  44.012  13.098
62604W        W27765  23.664  40.452   0.877
62605W        W27766   5.301  21.251   2.476
62606W        W27767  25.718  40.038   3.254
62607W        W27768  35.639  15.362  14.923
62608W        W27769  29.896  44.462  13.724
62609W        W27770   4.019  28.452   2.800
62610W        W27771  23.080  17.685  11.526
62611W        W27772  41.252  10.665   1.657
62612W        W27773   2.685  38.455  13.497
62613W        W27774  44.377  38.543   3.593
62614W        W27775  34.121  31.639  14.570
62615W        W27776   5.833  14.952   1.502
62616W        W27777  17.049  32.581   0.924
62617W        W27778  42.069  31.936  13.931
62618W        W27779  42.932   0.035   2.455
62619W        W27780  37.778  24.179  10.784
62620W        W27781   9.168  29.358   2.303
62621W        W27782   0.728  23.412   0.408
62622W        W27783  13.600  16.511  10.763
62623W        W27784   3.212  26.940  11.472
62624W        W27785   6.264  44.420  12.918
62625W        W27786  29.611  39.134  14.959
62626W        W27787   7.361   8.201  14.548
62627W        W27788  19.831  20.090  11.896
62628W        W27789  44.929  31.505  10.743
62629W        W27790  41.217  20.623   4.157
62630W        W27791   6.672  35.467   0.881
62631W        W27792  20.631  24.161   1.870
62632W        W27793  44.233  34.368   2.799
62633W        W27794  21.908  39.560   2.740
62634W        W27795  23.150   7.697  14.711
62635W        W27796  12.788   2.930   4.340
62636W        W27797  18.545  26.790  13.012
62637W        W27798  20.161  20.007   3.255
62638W        W27799  38.306  25.249   2.230
62639W        W27800  27.208  17.576   0.551
62640W        W27801  36.843  20.311  14.857
62641W        W27802  23.662  23.404   4.507
62642W        W27803  32.075  36.149   0.318
62643W        W27804  17.567  15.836   4.948
62644W        W27805   9.624  43.880   1.460
62645W        W27806  19.697  15.542  12.394
62646W        W27807  21.211  39.147   4.867
62647W        W27808  40.611  35.021  13.903
62648W        W27809  11.730  37.366  14.917
62649W        W27810  25.904  20.513   1.231
62650W        W27811  42.985  27.453   0.779
62651W        W27812  16.823  30.937  13.099
62652W        W27813   3.114  27.912  14.177
62653W        W27814  40.425  35.314  12.000
62654W        W27815  11.131  27.122   4.788
62655W        W27816  18.370  33.015   0.880
62656W        W27817  36.373  10.208   3.634
62657W        W27818  25.166  25.933  11.265
62658W        W27819  32.420  18.485  14.547
62659W        W27820  28.005   6.703   1.344
62660W        W27821  42.288  11.234  14.413
62661W        W27822  29.631   5.532  14.251
62662W        W27823   1.724  34.405   4.109
62663W        W27824  39.848  12.616   2.277
62664W        W27825  33.212  41.196   3.506
62665W        W27826  41.558  35.219   2.189
62666W        W27827  12.587   0.901  11.570
62667W        W27828  35.594  37.916   3.166
62668W        W27829   9.721  44.860   0.558
62669W        W27830  34.074  25.126   1.841
62670W        W27831  42.034   2.893   3.572
62671W        W27832  31.675  28.545   0.753
62672W        W27833  43.319  42.482  12.154
62673W        W27834  32.332  35.970  10.342
62674W        W27835  41.053   7.194  13.355
62675W        W27836   0.006   5.823  12.935
62676W        W27837  15.258  15.648  14.999
62677W        W27838  37.057   6.832  10.536
62678W        W27839  23.433  26.216  12.914
62679W        W27840  15.203   8.384  10.743
62680W        W27841  31.088  16.117  14.887
62681W        W27842  34.383   3.461   0.319
62682W        W27843   1.499  20.539  14.447
62683W        W27844  33.051   6.995   2.301
62684W        W27845  27.067   2.159   3.274
62685W        W27846  44.937  31.364  11.653
62686W        W27847  32.486  29.480  13.433
62687W        W27848  19.545  21.767   2.715
62688W        W27849  18.825  39.785  13.354
62689W        W27850  19.510  23.074   1.237
62690W        W27851   2.867  39.063  13.330
62691W        W27852   2.832  11.126   1.820
62692W        W27853   5.855   0.944   2.686
62693W        W27854   1.746  22.239   0.941
62694W        W27855   9.112   0.978   1.405
62695W        W27856   7.447  31.280  14.416
62696W        W27857   6.536  14.836   2.021
62697W        W27858  34.008  14.687  11.763
62698W        W27859  34.559   8.121   3.159
62699W        W27860   8.380  33.392   0.732
62700W        W27861  42.470   7.275   1.656
62701W        W27862  38.535  43.412  11.186
62702W        W27863  37.096   3.696  11.625
62703W        W27864  37.645  13.212   4.095
62704W        W27865  34.029  15.706  14.910
62705W        W27866  42.224   4.259   3.190
62706W        W27867  42.851  14.792   3.530
62707W        W27868  12.856  32.218   2.320
62708W        W27869  16.829   0.783  11.100
62709W        W27870  22.177  17.072  13.953
62710W        W27871  15.771  26.493  11.976
62711W        W27872  29.688  35.872   4.131
62712W        W27873  41.323  28.637  14.000
62713W        W27874  19.599  14.239   2.813
62714W        W27875   1.156  20.105   3.747
62715W        W27876  14.393  31.908   1.259
62716W        W27877   0.789  44.390  10.077
62717W        W27878  38.398  34.973  13.060
62718W        W27879  42.077  15.372   0.866
62719W        W27880  18.795  19.362   1.761
62720W        W27881  35.037  33.756   2.778
62721W        W27882  41.947  18.116   3.147
62722W        W27883  34.457  14.851   3.581
62723W        W27884  22.610   4.361  14.940
62724W        W27885  31.757  17.676   2.605
62725W        W27886  14.402  18.172  14.423
62726W        W27887  17.593   1.488  13.288
62727W        W27888  30.077   8.256  11.041
62728W        W27889  23.663  38.006   2.110
62729W        W27890   9.784  35.515   0.435
62730W        W27891   3.566  19.630  13.361
62731W        W27892  21.296  40.376  14.380
62732W        W27893   8.565  38.995  10.733
62733W        W27894   0.224  12.922  14.435
62734W        W27895   8.406  34.633  12.490
62735W        W27896  44.957   8.752   3.263
62736W        W27897  26.275  23.962   4.507
62737W        W27898  14.754  36.259   2.728
62738W        W27899  16.827  24.561   3.530
62739W        W27900  40.993  37.945  10.693
62740W        W27901   6.748  24.500  12.596
62741W        W27902  36.570  18.062  13.979
62742W        W27903  18.569  38.459  12.551
62743W        W27904  15.414   2.090   3.141
62744W        W27905  15.583  31.666   4.675
62745W        W27906  15.599   7.608   3.312
62746W        W27907  27.899  14.791  13.466
62747W        W27908  41.805  36.073   4.607
62748W        W27909  37.467  12.112   0.433
62749W        W27910  13.977  12.749   0.239
62750W        W27911  24.085  29.143   0.165
62751W        W27912  14.055  10.872  14.756
62752W        W27913   3.250   4.854   3.194
62753W        W27914  27.152  18.210   2.220
62754W        W27915   3.797  28.005  12.872
62755W        W27916  23.348  19.262  12.096
62756W        W27917   7.868  12.092  13.419
62757W        W27918  43.914  41.538  13.324
62758W        W27919  30.629  26.335  11.106
62759W        W27920  34.466   2.486   1.948
62760W        W27921  34.312  28.744  12.102
62761W        W27922  39.166   4.073  14.535
62762W        W27923  44.239  15.957  10.301
62763W        W27924  24.972  31.617  11.118
62764W        W27925  16.812  14.738   0.938
62765W        W27926  10.332  14.278   0.073
62766W        W27927  10.532  21.722  12.349
62767W        W27928  17.336  33.027   0.871
62768W        W27929  40.514  16.975   0.838
62769W        W27930  15.531  22.435   2.843
62770W        W27931  34.893  24.130   4.560
62771W        W27932  26.153  32.005  11.233
62772W        W27933  35.752  40.929  13.389
62773W        W27934  20.849   2.006  13.337
62774W        W27935  25.872  37.299   9.842
62775W        W27936   9.370  31.802  13.875
62776W        W27937   5.196  27.436   3.482
62777W        W27938  20.027  34.233  14.510
62778W        W27939   3.283  16.300   2.725
62779W        W27940  35.031  34.412   0.467
62780W        W27941  14.061  32.248  14.922
62781W        W27942  20.754  10.209   4.104
62782W        W27943  39.065  13.353  14.997
62783W        W27944  10.819   7.740   3.021
62784W        W27945   5.848  38.408  11.815
62785W        W27946  10.705  22.751   0.290
62786W        W27947  11.811  33.900   1.919
62787W        W27948  11.116  42.430  14.391
62788W        W27949  35.696  20.870  12.358
62789W        W27950  36.966   9.780   0.381
62790W        W27951  44.233   7.678  12.995
62791W        W27952  36.904  24.240   1.433
62792W        W27953  12.522   8.861  12.001
62793W        W27954  10.107  15.376   2.437
62794W        W27955  28.066  28.035  14.863
62795W        W27956  26.689  25.941   2.912
62796W        W27957  17.306  28.569  13.692
62797W        W27958   4.974  31.419   4.899
62798W        W27959  12.378  18.623  12.127
62799W        W27960  36.607   7.463   0.797
62800W        W27961   6.257  43.748   0.792
62801W        W27962  41.466  24.985  13.833
62802W        W27963  39.843  39.572  12.038
62803W        W27964  21.802  19.048   0.847
62804W        W27965  26.023   8.948  10.271
62805W        W27966  39.650  15.645   0.227
62806W        W27967  18.103  36.614  10.757
62807W        W27968  17.726  33.906  10.841
62808W        W27969  23.447  26.544  11.163
62809W        W27970  12.618   1.346  11.106
62810W        W27971  34.507  11.096   0.820
62811W        W27972  17.335   7.983   1.906
62812W        W27973  44.195  18.135   3.240
62813W        W27974   1.046  43.590   1.311
62814W        W27975  29.114  23.247  14.527
62815W        W27976  22.504  40.951  11.200
62816W        W27977  34.932  31.443   2.854
62817W        W27978  13.584  10.790  14.998
62818W        W27979  21.749  13.278   1.720
62819W        W27980  31.322  16.604   1.844
62820W        W27981   6.887   3.203   1.598
62821W        W27982   1.862   3.692  11.553
62822W        W27983  27.395  23.773  10.181
62823W        W27984   4.368  11.795  14.843
62824W        W27985  11.392  18.541   0.667
62825W        W27986  40.992  44.434   4.730
62826W        W27987  12.072  20.839  12.465
62827W        W27988  10.718  13.833   0.678
62828W        W27989   1.234  40.868   2.271
62829W        W27990   1.980  39.982   4.564
62830W        W27991  34.887   5.090  12.083
62831W        W27992   9.819  10.091  14.552
62832W        W27993  14.362   9.394   4.866
62833W        W27994  40.451  15.749  12.184
62834W        W27995   5.009   5.113  13.750
62835W        W27996  44.757  16.200   0.860
62836W        W27997  16.753  17.671  12.422
62837W        W27998  16.804  23.644  11.217
62838W        W27999  20.254  30.668   4.344
62839W        W28000  21.670   8.303   2.774
62840W        W28001  38.227  13.228  14.788
62841W        W28002  33.220  32.965   1.799
62842W        W28003  42.961  10.105  13.030
62843W        W28004  15.352  11.044   2.762
62844W        W28005   9.379  44.325  10.619
62845W        W28006  38.023  43.362   1.341
62846W        W28007  41.367  40.821   2.304
62847W        W28008  43.295  32.698  13.500
62848W        W28009   6.401   6.332  11.081
62849W        W28010   8.383  19.629   1.212
62850W        W28011  27.974  24.589  11.206
62851W        W28012  25.703  44.403  10.973
62852W        W28013  20.443   3.001  14.085
62853W        W28014  24.013  24.260  14.993
62854W        W28015   7.146  29.913   4.137
62855W        W28016  36.826  15.822  12.455
62856W        W28017  12.615  32.510   0.953
62857W        W28018  36.175  24.655  11.887
62858W        W28019  10.653  25.411  13.989
62859W        W28020  31.947  37.364  13.441
62860W        W28021  15.604   0.516   2.886
62861W        W28022  20.333  32.255  10.904
62862W        W28023  30.670   8.037   0.598
62863W        W28024  19.988   7.421  12.472
62864W        W28025  24.700  12.938  12.688
62865W        W28026  24.748  43.304   1.704
62866W        W28027   0.946   4.414   4.683
62867W        W28028   9.609  17.995   3.566
62868W        W28029  43.325  34.479   1.280
62869W        W28030  28.099  33.371   2.826
62870W        W28031  15.811  28.945   0.902
62871W        W28032   8.719  18.821  10.729
62872W        W28033  38.376  34.649   4.844
62873W        W28034  29.062  36.163  10.494
62874W        W28035  28.538  39.128   1.343
62875W        W28036  24.179   3.834   1.357
62876W        W28037  19.348  13.247   4.556
62877W        W28038  44.360  11.149   0.936
62878W        W28039  19.122  25.647  12.137
62879W        W28040   5.725  25.163   2.912
62880W        W28041  28.635  43.468   2.581
62881W        W28042  10.215  40.427   3.881
62882W        W28043  19.545  11.348   4.580
62883W        W28044  10.351  24.172   3.230
62884W        W28045   0.124  37.903  14.891
62885W        W28046   6.388  21.518   2.752
62886W        W28047  42.658  14.857   2.211
62887W        W28048  44.910   2.730   1.235
62888W        W28049  24.036  27.722   0.400
62889W        W28050  27.350  15.325   5.417
62890W        W28051  14.762   1.210   1.283
62891W        W28052  37.648  34.992  11.106
62892W        W28053  33.468   4.470   4.174
62893W        W28054  18.467  25.633   3.807
62894W        W28055   0.818  41.429  11.106
62895W        W28056  25.095  37.872   1.800
62896W        W28057  17.184  44.751  14.923
62897W        W28058   3.760   7.602   3.772
62898W        W28059   1.340  43.003   4.539
62899W        W28060   9.244  22.452   2.463
62900W        W28061  23.474   4.009  11.155
62901W        W28062  34.968  39.288  13.294
62902W        W28063  16.115  30.037  14.065
62903W        W28064  26.671  40.480  12.298
62904W        W28065  36.983   3.080   4.456
62905W        W28066  38.875   5.190  11.287
62906W        W28067  26.547  26.938   3.095
62907W        W28068  34.800   7.390   1.307
62908W        W28069  27.577   0.787   1.345
62909W        W28070   1.671   3.644  14.352
62910W        W28071   8.576  33.971  12.004
62911W        W28072  42.131  22.243  12.014
62912W        W28073  25.147  13.682  12.549
62913W        W28074  12.059  25.196   0.486
62914W        W28075   7.736   0.318   2.296
62915W        W28076  14.602  35.414   3.773
62916W        W28077  17.748   2.023  13.396
62917W        W28078  14.052  24.953   1.425
62918W        W28079  38.972  11.443   1.852
62919W        W28080   4.825  15.989   0.335
62920W        W28081   9.721  13.318  14.528
62921W        W28082  18.172   9.358  12.847
62922W        W28083  29.213   2.399   3.826
62923W        W28084  24.629  33.562   0.763
62924W        W28085  10.364  29.538  13.548
62925W        W28086  41.551  25.995   3.841
62926W        W28087  28.385  14.794  14.713
62927W        W28088  20.715  38.825  12.930
62928W        W28089  16.576   1.304  14.799
62929W        W28090  36.964  27.931   0.428
62930W        W28091  19.361  39.630  14.219
62931W        W28092  34.033   0.877   3.931
62932W        W28093  36.978  27.264   0.045
62933W        W28094  27.706  19.964  12.657
62934W        W28095  10.204  30.890   2.323
62935W        W28096  15.628  44.310  10.748
62936W        W28097   0.932  38.378  13.827
62937W        W28098  36.515   3.158   1.324
62938W        W28099   9.804  16.151  14.376
62939W        W28100  44.156   6.389  13.591
62940W        W28101   9.089  39.392   0.972
62941W        W28102   9.268  22.762   4.182
62942W        W28103  32.432  14.740  12.497
62943W        W28104  34.169  11.831  12.577
62944W        W28105  15.022  34.367  13.399
62945W        W28106  37.343  36.917  14.907
62946W        W28107   9.351  37.169  11.606
62947W        W28108  38.619  17.780   0.490
62948W        W28109  28.622  38.829  12.094
62949W        W28110  34.645  29.574  11.936
62950W        W28111   3.931  21.783  11.558
62951W        W28112  36.117  38.305   3.713
62952W        W28113   5.151  44.115  11.106
62953W        W28114  25.155  36.280   1.784
62954W        W28115  26.112  30.395  13.163
62955W        W28116  36.299   8.895   3.685
62956W        W28117  23.197  10.650   4.545
62957W        W28118  17.154  25.403   2.247
62958W        W28119  39.010   1.275  12.011
62959W        W28120  15.700  14.166  11.646
62960W        W28121  19.250   2.977   1.421
62961W        W28122  14.755  29.993   4.620
62962W        W28123  15.770  30.481  11.473
62963W        W28124  30.688  23.087  10.290
62964W        W28125  25.608  44.368   3.063
62965W        W28126  32.968  24.998  11.949
62966W        W28127  10.374  17.151  10.757
62967W        W28128  20.174  39.158  11.689
62968W        W28129  21.626  40.826   4.866
62969W        W28130  31.831   3.385   1.731
62970W        W28131   1.061  12.678   3.634
62971W        W28132  28.724  18.078  13.968
62972W        W28133   0.955  11.180  13.186
62973W        W28134  18.667  44.308  13.806
62974W        W28135   5.448   8.766  12.083
62975W        W28136  37.803  31.618  11.522
62976W        W28137   4.121  14.790   1.591
62977W        W28138  14.711   7.675  13.266
62978W        W28139  13.189  43.680  11.176
62979W        W28140  26.170   8.855   1.032
62980W        W28141  38.891  11.092  11.035
62981W        W28142   0.946  43.005   0.110
62982W        W28143   0.434  38.011  13.120
62983W        W28144  40.913  20.024  10.736
62984W        W28145  22.433  23.715   2.796
62985W        W28146  33.132  17.773  10.641
62986W        W28147  13.823  32.358   3.251
62987W        W28148  15.644  29.570  12.654
62988W        W28149  15.112  37.155  14.908
62989W        W28150  19.050  14.780   0.219
62990W        W28151  25.699   8.635   0.068
62991W        W28152  15.897  41.069   3.022
62992W        W28153  37.323  10.208   3.196
62993W        W28154  37.297  39.383   1.229
62994W        W28155   3.153  10.799   4.046
62995W        W28156  24.770   2.387   4.914
62996W        W28157  33.966  22.272   5.050
62997W        W28158   0.897  40.024   5.174
62998W        W28159  20.752  39.372   4.360
62999W        W28160  12.917  36.278   0.866
63000W        W28161  23.145  32.036   0.693
63001W        W28162  16.608  27.660   0.475
63002W        W28163   9.336  21.547   2.475
63003W        W28164  17.542  42.954  11.414
63004W        W28165  19.170  41.342   2.237
63005W        W28166  16.179  17.226  12.866
63006W        W28167   9.815  25.159   3.709
63007W        W28168  38.147  44.351   0.432
63008W        W28169  40.868  24.273   1.474
63009W        W28170  30.894  27.303  11.178
63010W        W28171  14.642  27.654  14.384
63011W        W28172  26.721  24.623   3.272
63012W        W28173  37.267  10.670   4.585
63013W        W28174  44.328  14.123  12.019
63014W        W28175  17.784  41.969   3.688
63015W        W28176  22.018  26.638   2.658
63016W        W28177  26.647   8.641   1.353
63017W        W28178   4.399  24.604   1.446
63018W        W28179  14.059  21.005  11.553
63019W        W28180  13.561  19.636  13.492
63020W        W28181   5.092  27.313   4.001
63021W        W28182  19.199   7.576  14.426
63022W        W28183  23.975  44.684   3.687
63023W        W28184  12.828  12.816  14.366
63024W        W28185  19.917   6.177   2.823
63025W        W28186  30.741  20.017   2.796
63026W        W28187  14.269  14.850  11.064
63027W        W28188  31.998  33.130   2.383
63028W        W28189   9.838  35.156   3.920
63029W        W28190  39.220  40.302   0.359
63030W        W28191   1.611  27.275  13.121
63031W        W28192  32.438  28.601   2.221
63032W        W28193  35.176  30.349  12.025
63033W        W28194  28.965  20.051   3.724
63034W        W28195  16.381  35.298   4.214
63035W        W28196  37.570  40.895   4.150
63036W        W28197  40.353  44.292  10.799
63037W        W28198   3.221  43.514   2.773
63038W        W28199  24.736   7.749  11.674
63039W        W28200   9.620  23.210  13.667
63040W        W28201   9.492  20.126  12.994
63041W        W28202  29.580  33.088  12.981
63042W        W28203  42.815  31.919  13.580
63043W        W28204   5.197  44.416  11.533
63044W        W28205   6.711  36.311   4.837
63045W        W28206  11.191  41.873  13.753
63046W        W28207   4.178  15.100   0.122
63047W        W28208  30.611   9.120  10.718
63048W        W28209  12.881  36.573  13.863
63049W        W28210  18.140   7.429   2.664
63050W        W28211  32.917  19.767   2.224
63051W        W28212  29.114  20.044  11.561
63052W        W28213  23.143  42.525   4.748
63053W        W28214  21.633  28.912   0.384
63054W        W28215  20.333  21.795   5.086
63055W        W28216  23.035  30.106   0.342
63056W        W28217  30.738  35.728  12.491
63057W        W28218  15.336  22.003   1.910
63058W        W28219  40.544  10.890   0.457
63059W        W28220   8.774  16.196   2.915
63060W        W28221  43.918   2.387  12.455
63061W        W28222  26.905  31.250   2.705
63062W        W28223  31.625  29.526  10.988
63063W        W28224  16.488  27.651   1.491
63064W        W28225  34.837  16.562   0.717
63065W        W28226   4.442  12.183   0.486
63066W        W28227  38.797  20.345   3.502
63067W        W28228   0.241  13.820  10.129
63068W        W28229  34.540  23.537  12.822
63069W        W28230   8.830  27.809  12.046
63070W        W28231  29.505  28.639   3.269
63071W        W28232   3.088  23.607   3.637
63072W        W28233  20.170  11.708  13.845
63073W        W28234  28.690  11.880  11.137
63074W        W28235  26.181  36.298  12.535
63075W        W28236  13.183  32.898  10.999
63076W        W28237  11.708  36.187  11.096
63077W        W28238  38.897  29.472   0.903
63078W        W28239  13.637   8.132  13.093
63079W        W28240  31.157  28.195  14.982
63080W        W28241  35.889  21.761  12.496
63081W        W28242  13.826  31.967  12.897
63082W        W28243  12.851   9.137  13.658
63083W        W28244  26.910  17.259  14.302
63084W        W28245  15.808   4.777  14.882
63085W        W28246   1.667  22.617   1.334
63086W        W28247  44.342   0.847   3.467
63087W        W28248  36.813  32.768  12.508
63088W        W28249  32.030  36.379   0.776
63089W        W28250  15.395  30.853  11.555
63090W        W28251  35.929   1.223  12.082
63091W        W28252  26.883  23.989  11.522
63092W        W28253  11.110   7.767  12.428
63093W        W28254  31.820  20.784  12.455
63094W        W28255  38.714  39.051  11.650
63095W        W28256  16.558  41.296  11.164
63096W        W28257  35.943  12.309   2.789
63097W        W28258   3.129  41.803  12.959
63098W        W28259  28.513  31.463   0.791
63099W        W28260  38.031  17.253   4.748
63100W        W28261  16.034   1.795   3.821
63101W        W28262  30.845   2.227  14.490
63102W        W28263  25.047  14.629  11.605
63103W        W28264  17.061  10.100  13.334
63104W        W28265  15.738   8.684   0.188
63105W        W28266  31.525  19.270   1.343
63106W        W28267  35.621  11.648  10.772
63107W        W28268  12.182  30.719   4.366
63108W        W28269  37.200  40.081   0.164
63109W        W28270  44.939  42.307   0.464
63110W        W28271   3.482  22.452  11.925
63111W        W28272  13.366  20.146  13.987
63112W        W28273  32.933  20.958   0.243
63113W        W28274  21.113  16.483  12.921
63114W        W28275   6.716   0.715  14.548
63115W        W28276  38.598   6.809   4.311
63116W        W28277  29.456  42.011   3.480
63117W        W28278  25.617  35.596   4.258
63118W        W28279  43.607  39.974   1.067
63119W        W28280  19.938  21.187   1.706
63120W        W28281   4.739  38.016  10.539
63121W        W28282  33.187   7.206   3.902
63122W        W28283   0.065  11.161   1.766
63123W        W28284   6.205   4.984   2.385
63124W        W28285   6.147  37.070   1.319
63125W        W28286  35.842   9.465   2.212
63126W        W28287  35.986  21.734   3.727
63127W        W28288  12.905  28.977  14.414
63128W        W28289  22.738  26.905  14.460
63129W        W28290  44.374  22.214   2.275
63130W        W28291  21.537  38.949  11.708
63131W        W28292  25.079   2.921   1.919
63132W        W28293   6.458   6.853  14.595
63133W        W28294  36.395  43.744  14.962
63134W        W28295  28.477   9.301  13.694
63135W        W28296   1.474  11.101   0.262
63136W        W28297  34.501  36.301   4.733
63137W        W28298  31.245   6.091   0.769
63138W        W28299  10.627  25.582   4.225
63139W        W28300  14.171  15.859   3.149
63140W        W28301  43.848  10.868   0.779
63141W        W28302   5.604  25.463   0.349
63142W        W28303  13.355  29.969  12.919
63143W        W28304   3.332   5.726  12.118
63144W        W28305   5.416  14.199  11.393
63145W        W28306  30.192  31.025   2.297
63146W        W28307  25.663   0.545  11.634
63147W        W28308  40.259  11.598   1.861
63148W        W28309  44.816   9.797   4.361
63149W        W28310  23.258  20.644   5.237
63150W        W28311  12.476  10.837  14.955
63151W        W28312   5.499  15.334   1.299
63152W        W28313  17.259  42.344   2.263
63153W        W28314  36.761  25.573  13.487
63154W        W28315  25.248   5.940  11.186
63155W        W28316   9.624   7.326   2.650
63156W        W28317  27.991  35.412   3.176
63157W        W28318   2.858  21.118  11.987
63158W        W28319  32.837  30.526  14.256
63159W        W28320   5.865  37.480  14.483
63160W        W28321  30.600  12.373   2.672
63161W        W28322  15.724   0.849   0.093
63162W        W28323  43.052  44.005  13.942
63163W        W28324  40.979  36.384   2.715
63164W        W28325  34.052  14.171   4.615
63165W        W28326   9.650   8.612  11.100
63166W        W28327  20.601  31.638   2.771
63167W        W28328  42.871  24.469  13.900
63168W        W28329  24.086  39.344   1.889
63169W        W28330  16.699  10.914   1.733
63170W        W28331  22.568  24.972  13.492
63171W        W28332  22.960   0.710  14.846
63172W        W28333  41.061  14.171   2.186
63173W        W28334   3.370  42.953   3.611
63174W        W28335  14.496   5.009   9.994
63175W        W28336  40.815   9.127  13.051
63176W        W28337  27.303  37.469  12.568
63177W        W28338  25.232   3.832  11.494
63178W        W28339  40.900  42.991  10.610
63179W        W28340  23.693  12.616  10.942
63180W        W28341  40.177  16.393  13.899
63181W        W28342  12.738  29.949  11.282
63182W        W28343  39.544   1.284  11.994
63183W        W28344  22.553  41.108   0.397
63184W        W28345   9.466  30.130   0.430
63185W        W28346  13.831  16.505  11.238
63186W        W28347  25.882   9.268   0.884
63187W        W28348  33.662   8.773   4.511
63188W        W28349  13.430  32.061   4.084
63189W        W28350  37.022  18.093  14.248
63190W        W28351  29.053  36.833  12.326
63191W        W28352   8.866  13.080  11.169
63192W        W28353   7.124  28.066   1.696
63193W        W28354   1.248   6.352  11.127
63194W        W28355  25.272  14.244   4.437
63195W        W28356   8.230  29.600  14.374
63196W        W28357   5.854  41.201   0.487
63197W        W28358   1.741  18.104  12.405
63198W        W28359  12.281   6.486  13.890
63199W        W28360  29.404  42.066   0.007
63200W        W28361   5.990   4.580  14.710
63201W        W28362  17.788  18.676   3.805
63202W        W28363   9.716  14.610   0.237
63203W        W28364  33.957  11.758  14.355
63204W        W28365  34.575   3.507  11.051
63205W        W28366   2.816  17.101   0.872
63206W        W28367   6.177  18.683  14.758
63207W        W28368   0.959  12.422  12.755
63208W        W28369  12.516  18.960   3.300
63209W        W28370  37.630   1.874  14.415
63210W        W28371   1.389   3.418   2.686
63211W        W28372   6.724  30.513  11.661
63212W        W28373  10.445  19.465  10.630
63213W        W28374   0.990   1.710   3.389
63214W        W28375  26.963  33.505   1.052
63215W        W28376  32.787  26.650  12.458
63216W        W28377  27.906   7.706   4.178
63217W        W28378  38.594  29.587  12.983
63218W        W28379  30.484  29.508   1.591
63219W        W28380   4.412  14.821  11.150
63220W        W28381  27.057  24.217   0.311
63221W        W28382   3.740  25.245  12.050
63222W        W28383  36.903   2.311  12.061
63223W        W28384   2.818  26.013   4.303
63224W        W28385   1.864   5.895   3.150
63225W        W28386  10.428  41.501   4.553
63226W        W28387   8.677  30.688   2.217
63227W        W28388   5.300  28.846  14.259
63228W        W28389  18.592  20.050  14.382
63229W        W28390   5.445  26.690   2.840
63230W        W28391  32.964  35.180  11.647
63231W        W28392  23.001  39.289   0.749
63232W        W28393  16.490  22.912  13.808
63233W        W28394   7.518  24.484   3.260
63234W        W28395  32.384  31.864  11.574
63235W        W28396  26.782  24.006  13.918
63236W        W28397   4.442  25.078  11.707
63237W        W28398  17.801  18.167   2.486
63238W        W28399  32.601   4.970   1.259
63239W        W28400  37.013   5.730   0.831
63240W        W28401  25.656   6.474   1.314
63241W        W28402  43.759  32.889  14.970
63242W        W28403  13.372   6.829  10.670
63243W        W28404   2.871  13.770  10.797
63244W        W28405   8.278  17.970   0.311
63245W        W28406   8.670  19.180   1.243
63246W        W28407  36.643  22.094  12.763
63247W        W28408   6.490  41.237  12.938
63248W        W28409  21.158   0.652   1.269
63249W        W28410  36.108  17.908   0.239
63250W        W28411  34.237   1.901  11.769
63251W        W28412   1.540  24.621   1.736
63252W        W28413   1.472  23.028  10.568
63253W        W28414  28.063  40.024   1.788
63254W        W28415  32.378  15.598  14.184
63255W        W28416  16.552  16.770   3.728
63256W        W28417  16.082   6.643   0.411
63257W        W28418  14.512   0.986   3.707
63258W        W28419  30.192  35.155   1.835
63259W        W28420  44.640  25.448   1.842
63260W        W28421   5.082  20.636   3.681
63261W        W28422   3.754  31.298  13.088
63262W        W28423   7.709  17.020  10.878
63263W        W28424   4.314  41.418   4.624
63264W        W28425  37.010  18.245  13.758
63265W        W28426  36.057   8.033   4.567
63266W        W28427  23.255   7.062   1.890
63267W        W28428  22.626  14.701  13.830
63268W        W28429   1.825  41.062   3.889
63269W        W28430  20.791  44.503   0.926
63270W        W28431  30.617  35.572   3.311
63271W        W28432  29.957  12.605  13.318
63272W        W28433  28.050  42.824   3.993
63273W        W28434   2.716  28.625   3.261
63274W        W28435  23.469  41.889   3.700
63275W        W28436   2.045  39.941  11.159
63276W        W28437  36.786  36.133   3.369
63277W        W28438  18.093  26.609   2.344
63278W        W28439  30.179  36.025   4.131
63279W        W28440  20.600  38.546   4.345
63280W        W28441   6.148  26.128  13.305
63281W        W28442  32.660  28.413  12.541
63282W        W28443  33.325  30.028  10.624
63283W        W28444  19.018  33.548  12.440
63284W        W28445  28.126  43.288  10.652
63285W        W28446  34.946  18.674  13.884
63286W        W28447   3.104  18.701   2.752
63287W        W28448  24.813  38.995   0.307
63288W        W28449  15.679  22.786  11.568
63289W        W28450  27.086  12.626   2.748
63290W        W28451  11.127  16.693   2.740
63291W        W28452  19.084  40.077  14.280
63292W        W28453  40.373   4.958   4.675
63293W        W28454  25.445  26.653   3.742
63294W        W28455  22.923  35.729  14.534
63295W        W28456  18.976  29.843  11.090
63296W        W28457   4.384  43.827  14.199
63297W        W28458  43.541  13.282  13.807
63298W        W28459  33.958  34.857  10.199
63299W        W28460  14.173  13.771  13.422
63300W        W28461  11.260  43.388   2.968
63301W        W28462  17.151  11.884   4.986
63302W        W28463  10.680  22.155  13.118
63303W        W28464  32.435  11.382  10.358
63304W        W28465  19.240   5.455   2.574
63305W        W28466  38.306  30.341   4.759
63306W        W28467  32.996   6.381   0.839
63307W        W28468   9.634  20.288  13.524
63308W        W28469  34.349  31.797  10.176
63309W        W28470  24.150  24.059  14.539
63310W        W28471  39.429   9.446   1.248
63311W        W28472   2.332  43.755  12.506
63312W        W28473   7.992   6.252   2.088
63313W        W28474  24.064  33.705   1.580
63314W        W28475  42.804  44.994  12.820
63315W        W28476   9.156  22.723  11.849
63316W        W28477  15.116   8.715   0.742
63317W        W28478  27.619  10.547   2.200
63318W        W28479  27.298  24.125  13.898
63319W        W28480  33.522  20.979   4.189
63320W        W28481  14.646  24.602  14.274
63321W        W28482   3.297  44.544   1.923
63322W        W28483  24.063  18.539  12.901
63323W        W28484  43.955   6.359   2.630
63324W        W28485  31.486  21.205  11.713
63325W        W28486  16.107  20.169   3.100
63326W        W28487   7.170  37.070   1.216
63327W        W28488  37.817   3.222  11.999
63328W        W28489  34.088  27.943  14.309
63329W        W28490  24.237  42.903   3.260
63330W        W28491   0.998  25.763  12.403
63331W        W28492   4.336   4.699  13.419
63332W        W28493  28.958  40.818  11.699
63333W        W28494  13.642   4.725  11.101
63334W        W28495  13.842   0.935  12.103
63335W        W28496  10.847  25.476   1.935
63336W        W28497  12.744  11.954  13.498
63337W        W28498  31.626  28.549  11.553
63338W        W28499  39.977   6.737  10.730
63339W        W28500  29.915   9.641   4.203
63340W        W28501  22.588  18.609  10.161
63341W        W28502   1.946  36.003  10.457
63342W        W28503  33.876   4.860  12.702
63343W        W28504  13.073  44.443   4.592
63344W        W28505  12.934  10.872   3.712
63345W        W28506  25.061   4.417  12.455
63346W        W28507  19.034  33.351  10.511
63347W        W28508  32.868  29.127  11.133
63348W        W28509  21.177  10.274  13.555
63349W        W28510  22.012  21.090   3.245
63350W        W28511  29.536  38.336   3.145
63351W        W28512  32.399  10.669  11.677
63352W        W28513  10.922  32.368   3.516
63353W        W28514  29.554  40.065  11.560
63354W        W28515  44.913  34.441  14.465
63355W        W28516  16.182  28.390   2.669
63356W        W28517  13.314  39.561   1.301
63357W        W28518  28.648  15.281   2.346
63358W        W28519  23.151  15.138   1.560
63359W        W28520  11.571  34.553   3.720
63360W        W28521  18.482  36.093  13.833
63361W        W28522  39.372  28.697   0.707
63362W        W28523  13.889  21.103  14.211
63363W        W28524  32.110  28.449   1.836
63364W        W28525   6.215  17.058   4.829
63365W        W28526  19.121   5.099  10.515
63366W        W28527  17.759   0.924  10.698
63367W        W28528  21.728  12.735  14.754
63368W        W28529  37.476   7.379  14.283
63369W        W28530  30.544  22.571   3.668
63370W        W28531  32.971   9.232  14.479
63371W        W28532  30.548  44.257  13.992
63372W        W28533   7.837   2.889   4.596
63373W        W28534  29.665  31.062   2.383
63374W        W28535  20.720  35.566  14.893
63375W        W28536  12.564   0.410  13.527
63376W        W28537  43.374   2.734  10.639
63377W        W28538  10.195  34.465  11.294
63378W        W28539  20.359   0.894  12.022
63379W        W28540  22.872  28.186  14.984
63380W        W28541  35.370   6.237   3.258
63381W        W28542  12.578   2.983   0.773
63382W        W28543  20.095   2.306  10.480
63383W        W28544  24.625  33.657  14.242
63384W        W28545  18.503   7.292   1.494
63385W        W28546  24.019  39.298   0.876
63386W        W28547  15.085  29.049   0.258
63387W        W28548  22.548  18.127  11.370
63388W        W28549  21.206  40.577   1.651
63389W        W28550  18.741  15.206   0.188
63390W        W28551  12.355  27.791   0.893
63391W        W28552  21.135  36.053   0.539
63392W        W28553  41.389  32.202   1.032
63393W        W28554  31.385  12.843   2.151
63394W        W28555  14.300  42.199  13.839
63395W        W28556  36.889   2.528   3.249
63396W        W28557  38.046  20.348   0.973
63397W        W28558  20.819  23.720   3.768
63398W        W28559  39.078   2.483   0.837
63399W        W28560  43.322  28.919  13.405
63400W        W28561  43.056   7.141  12.449
63401W        W28562  24.992  22.121   0.076
63402W        W28563  31.137  29.438   0.841
63403W        W28564  19.061  16.106  11.989
63404W        W28565  10.043  43.568   3.596
63405W        W28566  39.356  44.010   1.348
63406W        W28567  30.168  15.096  12.028
63407W        W28568   8.825  34.012   0.892
63408W        W28569   0.081  10.620   0.422
63409W        W28570  26.476  26.654   3.696
63410W        W28571   7.836  25.103   1.830
63411W        W28572  33.144  27.917   4.074
63412W        W28573  16.277  33.562   1.571
63413W        W28574  40.357   3.406   3.845
63414W        W28575   8.375   7.258  14.514
63415W        W28576  30.089  40.585  11.075
63416W        W28577  18.761   7.085   0.437
63417W        W28578  16.755  30.764   0.683
63418W        W28579  11.785   5.845  13.820
63419W        W28580   1.842  34.332  14.235
63420W        W28581  35.902   7.835  11.647
63421W        W28582  35.403  21.350   0.362
63422W        W28583  38.450  41.433   4.963
63423W        W28584  30.532   6.331  12.900
63424W        W28585   7.117   5.499   2.729
63425W        W28586  13.806  34.196  13.257
63426W        W28587   4.805  12.621  14.847
63427W        W28588  10.758  39.445   4.593
63428W        W28589  11.340   8.676  10.647
63429W        W28590  25.971  43.301   2.754
63430W        W28591   5.632  28.107   1.002
63431W        W28592   8.869  38.884  13.354
63432W        W28593   8.394  20.658  10.809
63433W        W28594  19.494  13.620  10.625
63434W        W28595  18.738  27.172   1.261
63435W        W28596  36.801  24.182   4.594
63436W        W28597  14.094   3.517   4.613
63437W        W28598  24.641   4.282   4.338
63438W        W28599  39.775  18.247   2.728
63439W        W28600  16.786   0.251   2.721
63440W        W28601  39.694  28.927  12.838
63441W        W28602  27.816  35.139  11.630
63442W        W28603  18.845   9.325  12.665
63443W        W28604  11.725  40.556   0.817
63444W        W28605  17.053  44.550   2.395
63445W        W28606   3.873  23.623   0.191
63446W        W28607   0.128  23.353  14.707
63447W        W28608  31.563   6.541  12.506
63448W        W28609   4.668   8.158  11.916
63449W        W28610  33.370  34.780   3.797
63450W        W28611   9.704   2.370  10.712
63451W        W28612   1.474  33.094   3.577
63452W        W28613  22.258   1.094  12.635
63453W        W28614  34.545  30.048  11.317
63454W        W28615  33.343   6.668   2.593
63455W        W28616  21.465  37.933  14.829
63456W        W28617  17.098  27.071   0.025
63457W        W28618   3.268  22.662  14.860
63458W        W28619  27.416  28.152   1.048
63459W        W28620  31.868  41.427   4.454
63460W        W28621  28.141  26.119   2.203
63461W        W28622  35.051  15.552   2.294
63462W        W28623  43.408  14.088  14.070
63463W        W28624   3.510   2.736   2.245
63464W        W28625  13.262  11.084  12.444
63465W        W28626  23.082  19.866  14.679
63466W        W28627  35.372  13.530   0.767
63467W        W28628  43.967  21.989  10.511
63468W        W28629  20.479  26.715  13.810
63469W        W28630   7.345   6.935   1.310
63470W        W28631   7.450  44.179  13.406
63471W        W28632  27.323  38.111   5.126
63472W        W28633  16.405  34.598   0.828
63473W        W28634  26.068  14.160   0.974
63474W        W28635  12.433  33.391  14.758
63475W        W28636  18.752   1.411   2.120
63476W        W28637  25.253  36.535   1.322
63477W        W28638   0.916  21.333  11.033
63478W        W28639  30.205  34.164   4.004
63479W        W28640  21.601  22.456  12.654
63480W        W28641  31.050   9.242   2.126
63481W        W28642  38.537  28.591   0.365
63482W        W28643  34.438  40.909  13.558
63483W        W28644  27.710   7.405  10.654
63484W        W28645  42.772  11.250  14.582
63485W        W28646  11.668  11.258  14.558
63486W        W28647  23.506  17.218   0.052
63487W        W28648  42.560   1.928   0.297
63488W        W28649  17.959  33.628   4.339
63489W        W28650  44.096  42.042   1.098
63490W        W28651  22.859  24.895   1.584
63491W        W28652  42.483  12.655  13.101
63492W        W28653  19.357  29.166  11.511
63493W        W28654  40.697  35.925  11.967
63494W        W28655  40.428  17.517  13.092
63495W        W28656  33.647  27.055  12.353
63496W        W28657  29.537  12.646   4.179
63497W        W28658  39.377   8.247   0.320
63498W        W28659  27.548   8.878  10.682
63499W        W28660   9.378  17.806  12.910
63500W        W28661   4.779  18.481   4.088
63501W        W28662  30.284   4.830   4.844
63502W        W28663  15.138  38.627  14.673
63503W        W28664  34.866   1.258   2.115
63504W        W28665  10.642  25.185   4.565
63505W        W28666  11.394  44.358  11.280
63506W        W28667  44.679  32.354  13.304
63507W        W28668  31.414  35.887   2.321
63508W        W28669  34.029  41.786  11.162
63509W        W28670  32.115  23.146   0.035
63510W        W28671  41.035  29.608  11.956
63511W        W28672  43.807  16.122  13.799
63512W        W28673  13.031  14.578   4.058
63513W        W28674  34.367  34.538  14.235
63514W        W28675  23.498  22.458  14.932
63515W        W28676  29.376  41.146   3.683
63516W        W28677  15.883  16.963  13.176
63517W        W28678  33.510   1.475  14.922
63518W        W28679  40.354  15.760   3.178
63519W        W28680  15.529   0.431  10.749
63520W        W28681  21.432  10.498  11.571
63521W        W28682  18.114  22.487  11.990
63522W        W28683  11.855  34.451   4.134
63523W        W28684   9.236  33.657  10.179
63524W        W28685  26.263   4.358   1.883
63525W        W28686  13.058  16.740  12.992
63526W        W28687   4.838  29.174   4.103
63527W        W28688  32.789  44.023   1.997
63528W        W28689  43.103  34.589   1.799
63529W        W28690   8.639  41.951   2.461
63530W        W28691  44.804  39.833  14.415
63531W        W28692   1.930   1.227  13.909
63532W        W28693  15.033  38.091   1.184
63533W        W28694  11.151  18.128   3.720
63534W        W28695  42.522  21.828   3.197
63535W        W28696  10.307  18.754  14.000
63536W        W28697  11.252  37.503  14.742
63537W        W28698   9.627   6.598   1.348
63538W        W28699   7.546  26.744   3.122
63539W        W28700  29.901  33.559   4.581
63540W        W28701   7.936  23.190   2.315
63541W        W28702  33.014   4.934  13.380
63542W        W28703  16.208  37.121  13.345
63543W        W28704  16.728  27.922  11.347
63544W        W28705  13.504   3.566  10.269
63545W        W28706  14.774  43.013  12.409
63546W        W28707   6.973  42.295  10.696
63547W        W28708  10.215   5.325   4.603
63548W        W28709   8.848  33.788   3.964
63549W        W28710  18.281   2.846  13.522
63550W        W28711  16.071  38.127   4.807
63551W        W28712   2.257   6.800  11.572
63552W        W28713  13.188  25.157  13.503
63553W        W28714  39.174  20.795  13.627
63554W        W28715   9.597   4.331   4.584
63555W        W28716  22.761  10.843   4.758
63556W        W28717  19.482  39.353   2.249
63557W        W28718   8.624  29.063  13.382
63558W        W28719  11.877  39.467   0.408
63559W        W28720  32.094   8.478   2.476
63560W        W28721   1.743  40.462  13.428
63561W        W28722   0.811  16.615  10.639
63562W        W28723  21.520  37.894   1.861
63563W        W28724  30.961  31.974  11.379
63564W        W28725  28.508  41.575  12.508
63565W        W28726   2.969   0.805  11.069
63566W        W28727  29.343   6.160  13.495
63567W        W28728   6.725  17.853   4.545
63568W        W28729   2.389  16.139   3.201
63569W        W28730  10.153   5.254   1.468
63570W        W28731  28.566  40.946  12.041
63571W        W28732  34.660  40.944   1.421
63572W        W28733  32.509  36.000  11.473
63573W        W28734  43.660  35.604  12.637
63574W        W28735  22.064  36.537   1.975
63575W        W28736  35.438   1.661   0.344
63576W        W28737   1.598  16.116   4.958
63577W        W28738   6.940  10.799   1.634
63578W        W28739  19.105   0.737   1.884
63579W        W28740  32.981  41.474  14.743
63580W        W28741   3.776   9.592   2.399
63581W        W28742  13.601  31.090  11.056
63582W        W28743   9.349  43.958   3.265
63583W        W28744   5.017  10.725   3.951
63584W        W28745  18.561  19.386  14.813
63585W        W28746   1.928  24.290  13.776
63586W        W28747   2.102   8.030   3.601
63587W        W28748  23.465  35.273   1.763
63588W        W28749  31.377  40.008  14.363
63589W        W28750  25.879  41.419   0.930
63590W        W28751  13.852  24.066  12.429
63591W        W28752  28.858  33.958   0.290
63592W        W28753  24.443  25.945   4.974
63593W        W28754  21.698  11.307   2.693
63594W        W28755  44.848   5.486  13.843
63595W        W28756  30.448   8.224  14.029
63596W        W28757  38.877  21.763   3.311
63597W        W28758  12.293   2.875   4.141
63598W        W28759  10.351   3.339   4.551
63599W        W28760  26.980  24.057  10.651
63600W        W28761   8.030  24.653   3.319
63601W        W28762  38.586  35.154   2.246
63602W        W28763  27.335  35.749   0.883
63603W        W28764  18.614   6.441   1.165
63604W        W28765  10.739  41.485  10.685
63605W        W28766  10.826  18.103  14.855
63606W        W28767  30.582   4.918  12.538
63607W        W28768  20.664  44.539  11.608
63608W        W28769  18.670  32.332   0.536
63609W        W28770  42.038  23.198   0.775
63610W        W28771  11.868  39.972   2.669
63611W        W28772  29.524   5.295   2.190
63612W        W28773  11.224  21.655   4.313
63613W        W28774  38.546  14.560   1.360
63614W        W28775  19.947   5.495  13.456
63615W        W28776  10.749  23.759   1.342
63616W        W28777  11.074   3.757   2.878
63617W        W28778  26.646  12.395   1.461
63618W        W28779  10.289  26.936   0.475
63619W        W28780  32.998  13.693  12.986
63620W        W28781   9.263  28.308   5.029
63621W        W28782  38.401   6.742  13.982
63622W        W28783   8.711  16.154   2.016
63623W        W28784  27.516  32.623   4.133
63624W        W28785  24.027  36.444  14.469
63625W        W28786   2.688  34.713   1.163
63626W        W28787  11.416  33.086   1.665
63627W        W28788  42.310  33.870   1.812
63628W        W28789   3.126  43.340  12.347
63629W        W28790   8.856   6.604   4.928
63630W        W28791  12.021  11.727   0.799
63631W        W28792   1.270  18.426  11.966
63632W        W28793  25.981  30.419  14.705
63633W        W28794  22.183  26.107  10.740
63634W        W28795  28.516   5.927  11.819
63635W        W28796  34.552  27.627  14.825
63636W        W28797  22.363  26.677   3.549
63637W        W28798  34.577  35.084  12.321
63638W        W28799  17.373   9.812  13.051
63639W        W28800  23.660  14.127   3.991
63640W        W28801  44.083  39.846   0.907
63641W        W28802  15.630   7.665  11.972
63642W        W28803  24.732  12.822  14.885
63643W        W28804  37.130   6.610   3.879
63644W        W28805  35.221   7.459   9.845
63645W        W28806  29.887   1.393   0.518
63646W        W28807  38.470  23.112   4.671
63647W        W28808  38.520  34.375   0.918
63648W        W28809  20.256  17.112   2.020
63649W        W28810  36.885  42.803   1.721
63650W        W28811  24.997  17.053  12.015
63651W        W28812  44.533  35.545   2.396
63652W        W28813  36.887  10.602   0.970
63653W        W28814  29.455  37.142   0.565
63654W        W28815  29.915  31.145  12.177
63655W        W28816  16.837  39.456  14.191
63656W        W28817  28.970  16.968   3.129
63657W        W28818   6.804  12.580  11.673
63658W        W28819  19.464  28.579   1.744
63659W        W28820   9.213  10.899  11.080
63660W        W28821   0.489   1.467  11.447
63661W        W28822  39.805  21.501  13.996
63662W        W28823  17.251  28.506   1.821
63663W        W28824  15.017  34.130  12.923
63664W        W28825   8.473   0.657  13.801
63665W        W28826  24.412  23.624  14.571
63666W        W28827  20.274   4.401   1.491
63667W        W28828  11.681  30.191   3.280
63668W        W28829  22.356  32.641   1.695
63669W        W28830  37.551  12.946  10.599
63670W        W28831  16.058   9.411  12.006
63671W        W28832   6.733  39.462   4.641
63672W        W28833  11.747  29.050  11.059
63673W        W28834   5.631  25.888  10.766
63674W        W28835  18.055  39.789   0.744
63675W        W28836  25.161  18.864   3.266
63676W        W28837  29.050  16.804   0.250
63677W        W28838  13.845  38.231  13.878
63678W        W28839  16.523  26.671  10.927
63679W        W28840  27.104  15.822  12.576
63680W        W28841   7.850  20.544   1.215
63681W        W28842  19.625  42.862  14.889
63682W        W28843  16.823  37.143  10.999
63683W        W28844  25.068   8.915   0.878
63684W        W28845   7.319  44.580  10.990
63685W        W28846   9.522   6.435   2.265
63686W        W28847   9.672  38.885   1.571
63687W        W28848  14.058   2.186   2.778
63688W        W28849  14.394   8.851  13.917
63689W        W28850   1.341  22.285  12.180
63690W        W28851  23.139   9.556  12.679
63691W        W28852   4.854  38.457  14.087
63692W        W28853  37.982  20.030   0.286
63693W        W28854  16.674  10.813   0.910
63694W        W28855  36.825  21.663   4.354
63695W        W28856   6.296  32.409   1.315
63696W        W28857  13.237  16.322   3.297
63697W        W28858  34.971  21.008  11.210
63698W        W28859  23.098  12.626  10.985
63699W        W28860  35.177  38.135  12.884
63700W        W28861  44.643  29.655   0.924
63701W        W28862  24.073  35.103   3.405
63702W        W28863  26.047  29.520   4.516
63703W        W28864  20.612  15.661   5.545
63704W        W28865  40.956  33.595   2.703
63705W        W28866   2.746  23.283   2.194
63706W        W28867   7.661  19.609   4.334
63707W        W28868  38.943  21.948  12.985
63708W        W28869  33.126  19.605   4.703
63709W        W28870   9.900   3.455  13.466
63710W        W28871  40.810  18.604   2.193
63711W        W28872  24.625  37.537   4.550
63712W        W28873  26.494  13.756  13.783
63713W        W28874  28.145  35.792  10.574
63714W        W28875   5.331  43.974  13.802
63715W        W28876   2.729  15.077   4.618
63716W        W28877  30.593   6.378   0.816
63717W        W28878  24.305  18.835  14.882
63718W        W28879  34.079  42.604   1.830
63719W        W28880  30.922  25.469  11.458
63720W        W28881  10.886   0.718   2.174
63721W        W28882  23.531  24.753   4.160
63722W        W28883  22.194  29.006   1.510
63723W        W28884  32.204   7.078  14.849
63724W        W28885  37.881   0.920  12.441
63725W        W28886   5.363  43.613   0.292
63726W        W28887  28.510  32.330  13.441
63727W        W28888  11.677  22.834   2.889
63728W        W28889  29.092  39.081  11.986
63729W        W28890   4.932  21.128  13.943
63730W        W28891  25.200   6.809   1.802
63731W        W28892  35.895  13.034  11.080
63732W        W28893  35.529   4.219  12.332
63733W        W28894  26.758  28.484   0.967
63734W        W28895  31.979  21.703  13.262
63735W        W28896   9.616   9.383  12.419
63736W        W28897   2.321  17.336   0.115
63737W        W28898   4.464  20.730   2.218
63738W        W28899  42.127  31.824  13.030
63739W        W28900   1.363   7.653   0.102
63740W        W28901  34.965  43.320  12.646
63741W        W28902  44.236  42.484  11.982
63742W        W28903  39.904  33.311  11.039
63743W        W28904  34.467  22.733   4.097
63744W        W28905  27.924   1.554   2.113
63745W        W28906  11.074  43.322  12.432
63746W        W28907  28.301  18.583   2.767
63747W        W28908   8.239  36.542   0.719
63748W        W28909  28.202  42.317   5.107
63749W        W28910  11.071  43.659  14.091
63750W        W28911  26.039  18.023   2.807
63751W        W28912   9.206  18.728   3.156
63752W        W28913  26.706  26.903   4.142
63753W        W28914   7.129  30.576   9.715
63754W        W28915  10.810   0.399  12.100
63755W        W28916  10.444  31.850  13.899
63756W        W28917   8.293  44.132   4.610
63757W        W28918  43.245  27.846  11.955
63758W        W28919  37.001  16.303   1.399
63759W        W28920   8.641  29.147   1.251
63760W        W28921  23.930  28.705  14.441
63761W        W28922  20.134  22.254   9.365
63762W        W28923  42.007  31.051  10.632
63763W        W28924  42.972   7.846  10.976
63764W        W28925   1.407  32.107  12.898
63765W        W28926  25.826  35.072  14.306
63766W        W28927  11.496  14.968   0.444
63767W        W28928   2.205  16.925   3.624
63768W        W28929  35.124  31.418   2.355
63769W        W28930  38.562  36.810  14.772
63770W        W28931  21.594   3.900  12.939
63771W        W28932  10.192  24.796   3.689
63772W        W28933  20.857  16.172  14.324
63773W        W28934  39.960   9.581  12.697
63774W        W28935  43.301  22.609  12.565
63775W        W28936  21.977  10.866   4.133
63776W        W28937  23.067   3.089  14.385
63777W        W28938  33.751  32.513   3.195
63778W        W28939   7.499  14.185  14.636
63779W        W28940  32.602   0.336   0.484
63780W        W28941  35.081  15.506  14.948
63781W        W28942  27.115  16.921  13.957
63782W        W28943   2.608  11.171  11.905
63783W        W28944  30.999  27.679   1.522
63784W        W28945  37.546  22.922   4.313
63785W        W28946   4.631  33.398   3.270
63786W        W28947  41.457  17.207   0.899
63787W        W28948  31.119  16.885   4.185
63788W        W28949   3.497  22.627   3.601
63789W        W28950  34.949  41.655  14.501
63790W        W28951  24.805  21.266  14.866
63791W        W28952   0.871  19.070  12.573
63792W        W28953  38.052  12.799   1.619
63793W        W28954  32.777  17.111   3.607
63794W        W28955  11.810  25.478  11.952
63795W        W28956  42.832  12.862  11.177
63796W        W28957  40.512  43.318   0.196
63797W        W28958  35.822  19.778  12.939
63798W        W28959  23.311  15.165   0.064
63799W        W28960   7.670  34.892   2.734
63800W        W28961  36.392  38.017  11.015
63801W        W28962  21.693  37.097   1.243
63802W        W28963  35.108  42.999  11.197
63803W        W28964  13.846  31.327   1.093
63804W        W28965  21.413  22.865   1.779
63805W        W28966  30.881  20.183   3.319
63806W        W28967  33.206  41.510   0.202
63807W        W28968   2.939  17.612   3.577
63808W        W28969  41.341   4.452  13.786
63809W        W28970   1.530  24.095  12.956
63810W        W28971  39.362   5.235   3.186
63811W        W28972   3.089  10.283   4.146
63812W        W28973  43.727  19.112  12.884
63813W        W28974  16.741  21.960  14.728
63814W        W28975  20.717  30.297  12.512
63815W        W28976   2.319  15.874   4.556
63816W        W28977  17.511  19.969   5.000
63817W        W28978  15.142  44.437  10.725
63818W        W28979  14.028   6.683   2.733
63819W        W28980  39.815   8.669  14.248
63820W        W28981  20.295  31.948   9.868
63821W        W28982  15.753  12.889  13.564
63822W        W28983  32.112   6.935   0.445
63823W        W28984  40.898  18.924   4.587
63824W        W28985  36.107   7.716   2.789
63825W        W28986   2.459   3.854   3.087
63826W        W28987   4.566  20.310   4.127
63827W        W28988  26.955   1.416   0.865
63828W        W28989   7.721  20.698   0.194
63829W        W28990   8.183  12.503  11.986
63830W        W28991  16.284  14.283  13.769
63831W        W28992  36.793  16.125  11.999
63832W        W28993  11.301  43.254  10.711
63833W        W28994   2.749  25.005   0.052
63834W        W28995   3.845  22.924  14.149
63835W        W28996   4.351  12.735  12.031
63836W        W28997  16.795   0.940  14.193
63837W        W28998  18.019  38.142  14.488
63838W        W28999   7.965   7.122   4.956
63839W        W29000  34.832   3.227  11.691
63840W        W29001  36.618  18.518  10.781
63841W        W29002  38.550   2.141   4.473
63842W        W29003   3.686  37.345   3.845
63843W        W29004  26.943   0.792  13.575
63844W        W29005  34.166  42.501   0.076
63845W        W29006  40.954   5.308   3.338
63846W        W29007   5.359  15.677  12.002
63847W        W29008   3.454  42.498  10.773
63848W        W29009  16.861  10.224   2.296
63849W        W29010   7.254  26.494   0.277
63850W        W29011  31.797  33.196  10.489
63851W        W29012  18.247   5.865  14.950
63852W        W29013  43.078  40.247  11.999
63853W        W29014  30.487  33.841   4.379
63854W        W29015  21.301  30.542  14.965
63855W        W29016   1.399  36.815   0.380
63856W        W29017  21.739  27.263   1.401
63857W        W29018  43.784  14.341  11.150
63858W        W29019   8.579  20.290  10.431
63859W        W29020  39.943  42.465   3.932
63860W        W29021  42.101  11.278  10.846
63861W        W29022  43.889   5.460  13.356
63862W        W29023  20.185   4.412   4.334
63863W        W29024  36.499  18.626   2.241
63864W        W29025  34.498   7.444  13.899
63865W        W29026  36.838   6.285   1.719
63866W        W29027  25.009  29.955  13.392
63867W        W29028   9.023  41.695   0.871
63868W        W29029  35.128  37.389   1.089
63869W        W29030  18.301   9.141  11.538
63870W        W29031  32.974  44.223  12.569
63871W        W29032  31.121  29.751  13.399
63872W        W29033  11.654   5.622   0.331
63873W        W29034  10.746  10.409  12.566
63874W        W29035   4.708  24.237   1.215
63875W        W29036  15.670  24.735   0.951
63876W        W29037  13.022  42.955   5.026
63877W        W29038  17.951  29.936   2.393
63878W        W29039  36.489  18.094   0.550
63879W        W29040  27.147  42.864  13.104
63880W        W29041  30.539  22.765  13.941
63881W        W29042   0.677   5.376  13.751
63882W        W29043  22.531   6.898   3.386
63883W        W29044  25.206  39.750   1.749
63884W        W29045  23.514  27.747  12.207
63885W        W29046   8.674  28.111  14.728
63886W        W29047  15.392  30.152  11.125
63887W        W29048  16.216  44.044   3.234
63888W        W29049   5.298   8.864  14.815
63889W        W29050  17.771  18.052   1.137
63890W        W29051  39.399  13.129  13.978
63891W        W29052  43.711  32.936  11.814
63892W        W29053  42.910   0.189  11.184
63893W        W29054  39.438  22.129  12.899
63894W        W29055   4.388  21.209   3.667
63895W        W29056  21.256  25.920  13.019
63896W        W29057  40.254  32.094  12.926
63897W        W29058  43.915  29.402   3.625
63898W        W29059  28.970  37.558  13.012
63899W        W29060  22.013  33.454  13.390
63900W        W29061  16.082  11.575   4.290
63901W        W29062   6.360  40.853   1.177
63902W        W29063  17.271  22.493  11.605
63903W        W29064  31.775  23.110   3.377
63904W        W29065   5.474  20.652  12.764
63905W        W29066  33.467  25.659  10.917
63906W        W29067  42.614   5.419  11.064
63907W        W29068  44.968  14.174  10.415
63908W        W29069   1.726  40.033   2.360
63909W        W29070  34.346  37.081  14.305
63910W        W29071  21.624  33.998  11.665
63911W        W29072  26.277  35.545   4.911
63912W        W29073   6.815  23.400   0.989
63913W        W29074  26.176  25.697  12.066
63914W        W29075  23.026  34.680  11.000
63915W        W29076  36.027  35.044   4.325
63916W        W29077  29.099   8.855  13.387
63917W        W29078  15.287  23.212  12.590
63918W        W29079  27.190  35.099  14.270
63919W        W29080  37.360  39.765  13.792
63920W        W29081  20.679  23.462  13.791
63921W        W29082  28.646  11.608   3.596
63922W        W29083  20.012  25.069   1.821
63923W        W29084  17.554   1.133   1.852
63924W        W29085  28.400   1.273  13.578
63925W        W29086  44.064   7.270   0.324
63926W        W29087  19.640  29.040  12.056
63927W        W29088   8.777  27.932   0.823
63928W        W29089  39.119  44.887  11.111
63929W        W29090  41.578  39.598   4.615
63930W        W29091  29.549  32.983   1.420
63931W        W29092  10.456  44.743   4.030
63932W        W29093  43.880  15.772   0.707
63933W        W29094  26.421   0.441   0.801
63934W        W29095  27.109  16.777  14.476
63935W        W29096  23.729  38.934   2.451
63936W        W29097   7.832  32.668   0.893
63937W        W29098  40.248  40.283  14.292
63938W        W29099   2.772  11.453   3.682
63939W        W29100  22.591  28.613   0.038
63940W        W29101  29.407  26.577  10.632
63941W        W29102  22.236  38.546   4.096
63942W        W29103  25.221  39.235   1.345
63943W        W29104  17.505  10.783  14.854
63944W        W29105  34.204  32.449  14.106
63945W        W29106  29.485  21.082  10.325
63946W        W29107   3.747  13.787  11.631
63947W        W29108  37.098  11.307   2.682
63948W        W29109  14.664  29.710  12.812
63949W        W29110  24.682  20.266   3.576
63950W        W29111  30.606  24.407   4.402
63951W        W29112   3.997  14.717   4.225
63952W        W29113  20.942  25.136  11.229
63953W        W29114  24.030  14.632  14.962
63954W        W29115  16.631  43.972   1.684
63955W        W29116  25.385  29.253  10.784
63956W        W29117  30.933  40.220  12.973
63957W        W29118  41.835   4.713  13.523
63958W        W29119  20.247  38.345  14.727
63959W        W29120  10.865  31.929  11.692
63960W        W29121  34.117  18.642  12.969
63961W        W29122  23.675  32.834   2.794
63962W        W29123   0.599  29.526  12.489
63963W        W29124  24.450  33.976   1.022
63964W        W29125  41.754   3.414   1.803
63965W        W29126  37.095   3.229   0.163
63966W        W29127  37.691  28.431   0.939
63967W        W29128   3.940  33.383  12.920
63968W        W29129  19.599   0.432   4.200
63969W        W29130   7.051   9.100  12.060
63970W        W29131  39.353  42.753   5.135
63971W        W29132  30.713  35.811  14.608
63972W        W29133  15.355  44.643  11.163
63973W        W29134  33.486  43.130   0.845
63974W        W29135  30.430  21.323   4.003
63975W        W29136  21.778  10.651   4.590
63976W        W29137  31.170  32.946  13.417
63977W        W29138  18.439  19.271  10.764
63978W        W29139  17.161  35.011  13.318
63979W        W29140   6.419  36.481  14.453
63980W        W29141  26.713  12.745   4.687
63981W        W29142  22.110   2.929   1.820
63982W        W29143  10.126  19.312   1.762
63983W        W29144   5.740   8.749   2.924
63984W        W29145  11.678   5.845  14.329
63985W        W29146  18.571  20.424   4.222
63986W        W29147  42.320  43.460  14.252
63987W        W29148  33.560  44.838  11.764
63988W        W29149  13.237  24.678  14.384
63989W        W29150  37.169  24.586   3.718
63990W        W29151   5.253  11.823  12.387
63991W        W29152   3.902  13.152  14.928
63992W        W29153  27.303  16.682   1.049
63993W        W29154  14.674  30.519   2.872
63994W        W29155  13.234  26.817  10.948
63995W        W29156   6.755  23.908  13.135
63996W        W29157  28.663   0.021   3.665
63997W        W29158   5.696  21.223  10.111
63998W        W29159  22.003  15.999   0.364
63999W        W29160  21.066  10.817  10.666
64000W        W29161  32.634   7.886  10.802
64001W        W29162  24.442  17.205   4.243
64002W        W29163  42.576  23.045   3.557
64003W        W29164  27.978  24.170   3.622
64004W        W29165  40.028  38.058  10.744
64005W        W29166  41.886  24.782  14.758
64006W        W29167  43.963   7.670  13.443
64007W        W29168  33.389  12.305  11.575
64008W        W29169   4.367   3.442  14.922
64009W        W29170  40.275   1.586  11.729
64010W        W29171   5.087  25.488  13.165
64011W        W29172   2.179  30.058  12.923
64012W        W29173  21.747  36.571   1.240
64013W        W29174  30.253  42.821   0.036
64014W        W29175  35.122  14.181   3.494
64015W        W29176  29.529  39.788  11.052
64016W        W29177  28.276  18.691   4.143
64017W        W29178  32.651  11.208  14.253
64018W        W29179  16.067  23.373   1.586
64019W        W29180  22.702  12.775   1.598
64020W        W29181   4.397   3.935  13.995
64021W        W29182   7.133  21.563   2.145
64022W        W29183   9.224  27.060  14.364
64023W        W29184  12.752  43.747   3.295
64024W        W29185   2.294   8.868  14.856
64025W        W29186  31.903   0.350  11.106
64026W        W29187  34.397  14.253  11.146
64027W        W29188  20.017  34.226  11.094
64028W        W29189  35.756   4.307  11.021
64029W        W29190  42.470   0.407  14.591
64030W        W29191   7.286  25.620   2.260
64031W        W29192   4.904  21.601   2.490
64032W        W29193  13.239  28.354   3.347
64033W        W29194  29.939   2.389   1.325
64034W        W29195  37.855   9.262   4.065
64035W        W29196  34.453  33.475   4.392
64036W        W29197  39.825   0.022   1.832
64037W        W29198   3.814  43.349  12.492
64038W        W29199  42.746  38.063  11.706
64039W        W29200   3.513  15.091   2.363
64040W        W29201  14.316  41.024  12.992
64041W        W29202  25.938   1.410   1.862
64042W        W29203  37.141  34.804   4.157
64043W        W29204   4.959   3.980   0.125
64044W        W29205  43.995  21.559   4.159
64045W        W29206  11.657  25.114   4.799
64046W        W29207  30.876   4.473   3.642
64047W        W29208  34.466  11.485   4.085
64048W        W29209  43.376  41.281  13.058
64049W        W29210  41.886  34.183   0.896
64050W        W29211  11.143  23.732  11.164
64051W        W29212  29.578   8.544   2.259
64052W        W29213  11.384  43.029   2.148
64053W        W29214   3.259   4.972   2.277
64054W        W29215  19.253  23.206  11.963
64055W        W29216  25.536  16.356  12.401
64056W        W29217  12.238  12.766   4.900
64057W        W29218  43.158  31.982  10.619
64058W        W29219   0.999   2.976   3.616
64059W        W29220  32.696  40.180  14.336
64060W        W29221  11.725  12.533  11.905
64061W        W29222  17.460  16.374  12.003
64062W        W29223  44.807  28.246   1.763
64063W        W29224   4.000  29.067   0.684
64064W        W29225  19.668  33.644  12.881
64065W        W29226  31.125  31.259  14.393
64066W        W29227   9.392  14.381  12.042
64067W        W29228  29.527  20.095   3.815
64068W        W29229  18.680  22.187  12.358
64069W        W29230   6.484  32.539   2.859
64070W        W29231  26.963   2.844  12.122
64071W        W29232  38.406  33.983   1.276
64072W        W29233  20.212  40.629   1.758
64073W        W29234  19.993  21.458   0.354
64074W        W29235  30.999  10.698  11.332
64075W        W29236  24.655  36.514   2.659
64076W        W29237  21.318  28.664  10.659
64077W        W29238  18.613  31.322   1.474
64078W        W29239   7.914  13.594   3.691
64079W        W29240  20.165  39.950  13.991
64080W        W29241   3.046  31.573  13.320
64081W        W29242  31.362  37.837   2.361
64082W        W29243  28.160  15.796   3.718
64083W        W29244   4.690  31.173   0.823
64084W        W29245   9.685  16.709   0.147
64085W        W29246  16.505   7.438   1.845
64086W        W29247  13.668  15.537   3.863
64087W        W29248  31.548  15.208   0.007
64088W        W29249   2.246   0.481  12.823
64089W        W29250  43.368  44.736  13.441
64090W        W29251   2.355   0.027  13.677
64091W        W29252  39.769  16.378   3.160
64092W        W29253  13.290   9.261   0.865
64093W        W29254  34.179  25.093  11.500
64094W        W29255  34.091  29.998   4.127
64095W        W29256  27.664  30.743  10.613
64096W        W29257   1.405  11.726  11.087
64097W        W29258  36.699  40.842  11.174
64098W        W29259  38.451  40.599   3.777
64099W        W29260   5.017  18.236   3.644
64100W        W29261   4.411  37.485   2.770
64101W        W29262  44.712  19.770  10.875
64102W        W29263  10.751  19.581  13.915
64103W        W29264  19.984  24.142  13.307
64104W        W29265  41.393  16.628   2.608
64105W        W29266  27.648  18.051   2.407
64106W        W29267   9.588  26.280   0.295
64107W        W29268  31.597  11.099   2.703
64108W        W29269  23.435  30.831  13.573
64109W        W29270  35.544   3.995  11.841
64110W        W29271  37.575  19.057   3.259
64111W        W29272   3.841   4.730  13.542
64112W        W29273  35.891  42.845  12.568
64113W        W29274  13.633  31.916   3.461
64114W        W29275  24.443  43.417   4.278
64115W        W29276  28.169   6.266   2.272
64116W        W29277   3.288  32.859  14.451
64117W        W29278  20.991   5.076   2.694
64118W        W29279   5.642  21.284   0.226
64119W        W29280   4.212  23.239   5.237
64120W        W29281   8.730  41.512   3.365
64121W        W29282  31.519  15.628   2.335
64122W        W29283  32.504  17.269  11.189
64123W        W29284  11.707   9.096   1.174
64124W        W29285  43.710   6.315   1.655
64125W        W29286  42.368  39.336   0.898
64126W        W29287   8.947  37.604  12.833
64127W        W29288  27.064  12.750   0.993
64128W        W29289   0.423  22.364  14.663
64129W        W29290  17.757  14.559   2.721
64130W        W29291   7.676   6.668  12.900
64131W        W29292  27.167  23.785   9.709
64132W        W29293  31.899  10.178  13.957
64133W        W29294   3.775  40.604  14.929
64134W        W29295   1.137  17.200  12.966
64135W        W29296  12.484   6.831   4.007
64136W        W29297  35.557   2.917  11.680
64137W        W29298  25.039   3.163   1.242
64138W        W29299  40.645  44.335   2.092
64139W        W29300   4.396  16.553   3.284
64140W        W29301  41.499   1.862   4.894
64141W        W29302  21.764  39.669   4.381
64142W        W29303  37.351   7.669   1.875
64143W        W29304   6.283  38.607  11.584
64144W        W29305   0.607  23.216   2.368
64145W        W29306  37.568  39.944  10.534
64146W        W29307  19.374  20.262   2.802
64147W        W29308  44.405  41.054  13.331
64148W        W29309  24.969  40.902   0.977
64149W        W29310  26.416   8.401   0.949
64150W        W29311   5.624   4.092   1.031
64151W        W29312  19.281   5.160   3.239
64152W        W29313   4.975  14.616   3.746
64153W        W29314   0.370   8.760  13.847
64154W        W29315  19.976  35.153   2.235
64155W        W29316  12.404  28.091  11.993
64156W        W29317   0.180  10.211   2.743
64157W        W29318  32.189  31.466   1.896
64158W        W29319  33.024   3.675   4.303
64159W        W29320   9.081  34.247   4.882
64160W        W29321  21.472  28.823  11.931
64161W        W29322  24.280  32.421  14.185
64162W        W29323  27.517  40.350   3.174
64163W        W29324   4.320  20.131   4.590
64164W        W29325  26.414  26.992  11.005
64165W        W29326  33.355  18.891  14.909
64166W        W29327  44.983  15.262  12.530
64167W        W29328  15.171  20.234  11.725
64168W        W29329  31.863   3.362   0.339
64169W        W29330  32.521  43.547  11.239
64170W        W29331   9.343  40.904   2.074
64171W        W29332  10.635  10.986   2.421
64172W        W29333  26.443   6.361  14.797
64173W        W29334  29.665   1.217  13.598
64174W        W29335  11.727  44.911   3.886
64175W        W29336   4.840  39.729   4.223
64176W        W29337  11.929  11.233   2.642
64177W        W29338  42.375  26.212   0.983
64178W        W29339  18.310  35.095   0.778
64179W        W29340  12.122  32.922   3.635
64180W        W29341  15.309   0.798  14.771
64181W        W29342  38.461  31.160   2.426
64182W        W29343  16.753  22.459   1.440
64183W        W29344  40.398  21.049   4.530
64184W        W29345  37.696  42.069   0.047
64185W        W29346  26.546   1.190  12.454
64186W        W29347  36.001  21.136   2.449
64187W        W29348  23.855  38.486  13.486
64188W        W29349  35.935  16.839   3.736
64189W        W29350  23.776  16.309   2.226
64190W        W29351  22.815  13.469   0.973
64191W        W29352  27.520  20.978   1.401
64192W        W29353   3.811   0.941  14.536
64193W        W29354   2.683  39.057   2.232
64194W        W29355  41.718  31.028   0.275
64195W        W29356   9.124  10.739   4.533
64196W        W29357   0.485  15.675  11.385
64197W        W29358  27.702  28.730  13.837
64198W        W29359   6.557   0.367   0.243
64199W        W29360  17.637  20.049   2.077
64200W        W29361  11.589  32.947  13.827
64201W        W29362  22.975   3.141   1.413
64202W        W29363  11.124  38.866   1.366
64203W        W29364  40.936  21.029  10.692
64204W        W29365  43.423  34.693   5.518
64205W        W29366  41.024  26.471   0.163
64206W        W29367  18.479   2.427  12.488
64207W        W29368  18.853  33.499   4.756
64208W        W29369  30.478   7.758  13.120
64209W        W29370  14.585  33.563  11.461
64210W        W29371  36.160  24.496  11.026
64211W        W29372  25.192  42.928   0.497
64212W        W29373   1.295   6.986  14.471
64213W        W29374  24.035  33.063  12.551
64214W        W29375  11.416  28.188   2.819
64215W        W29376  25.734   3.714  11.449
64216W        W29377  23.602  44.448  12.864
64217W        W29378   7.702  38.877   5.122
64218W        W29379  23.290  21.089  14.828
64219W        W29380   3.956   9.872   4.124
64220W        W29381  27.541   8.582   0.426
64221W        W29382  10.050  12.814   4.259
64222W        W29383  13.331  20.708   1.041
64223W        W29384   0.912  20.554  11.629
64224W        W29385  19.428  33.852  12.431
64225W        W29386  19.977  17.896   4.910
64226W        W29387  15.401  39.046  14.431
64227W        W29388   6.239  17.456   0.485
64228W        W29389  43.819   6.850   1.273
64229W        W29390  40.113  30.006   1.765
64230W        W29391  24.460  43.741  12.012
64231W        W29392  44.793   2.285   3.251
64232W        W29393  14.248  39.854   3.959
64233W        W29394  41.525   4.659  12.470
64234W        W29395  43.238  33.387   3.701
64235W        W29396  33.384  10.574   2.176
64236W        W29397  27.604   3.034  12.958
64237W        W29398  31.110  36.091  10.614
64238W        W29399  26.404   5.454   1.215
64239W        W29400  19.063  32.595   4.287
64240W        W29401  39.389  41.868   4.117
64241W        W29402  18.503  33.771  13.341
64242W        W29403  33.354  20.465  14.410
64243W        W29404  24.407  34.786   1.875
64244W        W29405   5.950  21.066   5.329
64245W        W29406  40.805  43.496   1.509
64246W        W29407  17.725  18.437  13.826
64247W        W29408   1.010   0.302   0.894
64248W        W29409  25.212  35.294  12.966
64249W        W29410  41.052   1.988  13.261
64250W        W29411  43.081   7.352  10.790
64251W        W29412  28.299   3.321   2.240
64252W        W29413  10.405  22.649  11.598
64253W        W29414  28.434  23.965  10.205
64254W        W29415  38.829  43.913  12.953
64255W        W29416  19.709  20.189  12.946
64256W        W29417  40.608   5.890   2.233
64257W        W29418  26.528  35.349   3.234
64258W        W29419   1.954  39.833  12.041
64259W        W29420   3.409  12.119   3.793
64260W        W29421  28.067  34.375   1.143
64261W        W29422  36.765  38.362  11.531
64262W        W29423   6.048  14.700  14.825
64263W        W29424  33.889  15.506   0.362
64264W        W29425  20.799   8.823  11.979
64265W        W29426  26.452   4.792   3.163
64266W        W29427   2.363   0.002  13.082
64267W        W29428  22.300  40.583   2.937
64268W        W29429  40.813  20.774   1.476
64269W        W29430   2.405   5.100   1.519
64270W        W29431  11.223  14.442   4.727
64271W        W29432  41.964  32.066  12.260
64272W        W29433  24.186  19.006   1.239
64273W        W29434  31.329   5.326   2.602
64274W        W29435  44.846  16.128   1.725
64275W        W29436   5.244   4.437  10.758
64276W        W29437   4.754  33.158  13.174
64277W        W29438  12.176  37.271   0.165
64278W        W29439   1.259   8.666   1.362
64279W        W29440  39.383  41.587  14.921
64280W        W29441  26.042   8.778   4.608
64281W        W29442  30.823  13.046  12.131
64282W        W29443   3.813  17.640   3.224
64283W        W29444  17.311  26.261  11.048
64284W        W29445  20.757  37.670  11.325
64285W        W29446   9.877  24.252   1.054
64286W        W29447  36.611  32.888  10.686
64287W        W29448  27.701  19.066  11.547
64288W        W29449  28.747   1.419  11.045
64289W        W29450  40.010  13.663  14.464
64290W        W29451  12.010  18.835   2.595
64291W        W29452  20.102  12.788  13.823
64292W        W29453  20.807  30.648   0.791
64293W        W29454  40.445  40.758  13.589
64294W        W29455  31.565   6.183   0.363
64295W        W29456  29.992  21.572   4.020
64296W        W29457  27.825  26.492  13.840
64297W        W29458  16.791  35.563  10.776
64298W        W29459  44.953  19.592   4.597
64299W        W29460  11.643  25.397   4.285
64300W        W29461   1.837  14.602   3.696
64301W        W29462  22.697  12.909   0.264
64302W        W29463  35.742   7.819   4.938
64303W        W29464  44.799   3.661  10.782
64304W        W29465  37.253  42.578   4.599
64305W        W29466  10.379  40.871   1.885
64306W        W29467   6.132  34.836  12.930
64307W        W29468   4.113  11.424   0.875
64308W        W29469  39.337  29.462  13.409
64309W        W29470  27.162   4.706  13.336
64310W        W29471  35.062  39.805  13.380
64311W        W29472  19.145   1.237   3.393
64312W        W29473  12.871  32.906  14.426
64313W        W29474  10.366  14.086   2.774
64314W        W29475  10.520  26.116  13.453
64315W        W29476  13.392  21.563   1.372
64316W        W29477   4.333   8.832  12.451
64317W        W29478  33.877  39.782  12.079
64318W        W29479  38.835  19.780   4.218
64319W        W29480  11.187  15.649  10.986
64320W        W29481  34.664  23.765   2.852
64321W        W29482  42.523  13.004   0.474
64322W        W29483  40.136  34.532   2.436
64323W        W29484   7.984  40.006  12.217
64324W        W29485   4.567  35.337   4.988
64325W        W29486   1.281   9.946   3.504
64326W        W29487  19.540  25.276   3.196
64327W        W29488  18.328  32.017   3.100
64328W        W29489  14.147  18.871  13.912
64329W        W29490  43.727   7.113  12.240
64330W        W29491   6.793  21.001   1.800
64331W        W29492  34.310   8.761   3.715
64332W        W29493  19.527  16.998  14.373
64333W        W29494  11.204   5.688   4.736
64334W        W29495  43.467  38.112   1.625
64335W        W29496  33.810  44.366   4.844
64336W        W29497  33.441   8.329   4.666
64337W        W29498  21.581  43.754   2.675
64338W        W29499  38.634  41.772  14.662
64339W        W29500  29.699  38.325  14.823
64340W        W29501  14.024  39.422   0.524
64341W        W29502   0.328  40.527  13.014
64342W        W29503   8.939  15.010  13.982
64343W        W29504  13.441  43.199  11.320
64344W        W29505  28.394   7.454  14.293
64345W        W29506   4.993  35.069   5.149
64346W        W29507  33.345  14.768   1.290
64347W        W29508  31.385  35.803  12.897
64348W        W29509  39.107  20.261  11.109
64349W        W29510  43.023  40.001  11.544
64350W        W29511  22.172  38.663   4.955
64351W        W29512  13.791  31.490  14.014
64352W        W29513  42.545  37.645  10.673
64353W        W29514  26.604  39.037   1.660
64354W        W29515   3.094  21.527  10.598
64355W        W29516  18.371   4.234  11.136
64356W        W29517  10.278   2.875  13.092
64357W        W29518  25.038  22.680   1.826
64358W        W29519  17.194  17.740  13.318
64359W        W29520   2.757  43.645   2.212
64360W        W29521   5.245  28.900  13.275
64361W        W29522  25.690   4.764  12.820
64362W        W29523  22.760  37.408  12.107
64363W        W29524  10.873  24.097  13.783
64364W        W29525  35.680  36.149  11.096
64365W        W29526  23.111  26.717   0.285
64366W        W29527  12.607  32.920  14.869
64367W        W29528   3.115  37.753   4.561
64368W        W29529  34.855   2.759  12.942
64369W        W29530   0.258  23.024  12.504
64370W        W29531  16.688  30.240   3.284
64371W        W29532  43.276  33.655  13.815
64372W        W29533  36.098  42.768   2.462
64373W        W29534  29.410  10.221   2.852
64374W        W29535  21.167  32.930   2.760
64375W        W29536  25.536   2.468  12.204
64376W        W29537  24.965  20.756   0.580
64377W        W29538  23.130   1.693   1.106
64378W        W29539  44.309  28.210  10.713
64379W        W29540  10.227   1.356  10.303
64380W        W29541  33.133  18.848   3.926
64381W        W29542  20.753  29.001   4.759
64382W        W29543  36.288  30.676  11.308
64383W        W29544  11.248  20.764   0.321
64384W        W29545  13.384  27.854  12.077
64385W        W29546  26.954   5.932   3.648
64386W        W29547  33.046  33.382  10.604
64387W        W29548  24.457  10.885   0.836
64388W        W29549  11.683  26.981  12.937
64389W        W29550  10.237  27.921  13.877
64390W        W29551  29.494  38.636   5.025
64391W        W29552  13.783  26.662   1.769
64392W        W29553  10.299   8.439  14.512
64393W        W29554  43.040   4.775  11.581
64394W        W29555  29.074  41.746   0.796
64395W        W29556  11.541  17.093   0.509
64396W        W29557  42.578  18.188  11.728
64397W        W29558  21.819  41.323   1.248
64398W        W29559  21.718  28.634  12.354
64399W        W29560  38.083  36.646  13.923
64400W        W29561  23.478  43.381   0.480
64401W        W29562  29.722  37.905   2.302
64402W        W29563  26.739  35.120   2.824
64403W        W29564   2.478  20.271   2.040
64404W        W29565  32.109  22.238  14.463
64405W        W29566   1.899  15.128   1.898
64406W        W29567   7.869   0.395   4.257
64407W        W29568  17.982  24.197   1.901
64408W        W29569  22.316  40.827  14.897
64409W        W29570  35.195   1.679  11.627
64410W        W29571   0.435   1.841  12.203
64411W        W29572  19.236  10.611   0.905
64412W        W29573  37.405  29.876   2.210
64413W        W29574   0.992  13.758  13.436
64414W        W29575  33.673  38.108   1.007
64415W        W29576  42.381  36.034  14.168
64416W        W29577   0.479  28.030   0.335
64417W        W29578  31.187   9.746   0.897
64418W        W29579  43.332  38.683  11.645
64419W        W29580  25.779  17.149  13.471
64420W        W29581   9.326   3.921  10.844
64421W        W29582  40.907  26.420  11.587
64422W        W29583  27.196  37.442   2.125
64423W        W29584   7.401  25.602   0.227
64424W        W29585  31.474  10.602   1.045
64425W        W29586  33.084   0.198  11.299
64426W        W29587  43.449  28.196  14.928
64427W        W29588  21.235   8.044   2.915
64428W        W29589   9.500  19.554  14.161
64429W        W29590  25.526  34.177   4.051
64430W        W29591  28.061  20.144   1.788
64431W        W29592   2.940  14.073  12.298
64432W        W29593  12.871   4.308   1.687
64433W        W29594  11.247   6.811   1.440
64434W        W29595  24.941  35.291   1.785
64435W        W29596  14.090  36.888  14.885
64436W        W29597  20.400  29.428   3.392
64437W        W29598  42.938   0.373  14.818
64438W        W29599   6.006  25.034  14.755
64439W        W29600  32.562   0.560   0.957
64440W        W29601  30.786  26.956   0.804
64441W        W29602  11.601  26.069   0.296
64442W        W29603  43.362  20.243  10.760
64443W        W29604   2.463  13.369   1.828
64444W        W29605  41.824  25.694  12.970
64445W        W29606  19.624  22.692  12.437
64446W        W29607  18.766  14.738  12.409
64447W        W29608  18.793  20.266  12.068
64448W        W29609   4.173   0.885   4.091
64449W        W29610  35.311  19.716  12.980
64450W        W29611  19.024  43.819   0.345
64451W        W29612  10.207  36.208   0.812
64452W        W29613  31.540  35.446  11.265
64453W        W29614   2.703  20.039   2.848
64454W        W29615  26.473  18.323  12.017
64455W        W29616   7.197  42.528   1.704
64456W        W29617   8.307  24.609   2.255
64457W        W29618   8.257  21.322  14.906
64458W        W29619   1.364  40.303  11.515
64459W        W29620  14.221  35.440  13.848
64460W        W29621  27.987  26.040  11.548
64461W        W29622  36.011   2.201  12.542
64462W        W29623  35.096  32.685  11.632
64463W        W29624   2.313  15.533   2.341
64464W        W29625  41.312  34.619   1.355
64465W        W29626  37.176   4.879  14.316
64466W        W29627   1.002  32.112   2.866
64467W        W29628  34.414   3.334  10.589
64468W        W29629  27.033  44.763   4.120
64469W        W29630  19.947  42.212   3.231
64470W        W29631   2.857  30.028   3.102
64471W        W29632  14.066  26.534  14.746
64472W        W29633  39.251   4.419  11.295
64473W        W29634  21.224  11.624  13.337
64474W        W29635  21.550  36.129   3.756
64475W        W29636  41.157  21.520  10.764
64476W        W29637  18.535   5.647   2.623
64477W        W29638  11.383   8.242  13.406
64478W        W29639  42.163  38.066  14.796
64479W        W29640  36.896  18.550  12.108
64480W        W29641  31.199  13.149  13.091
64481W        W29642  32.517  31.553  10.960
64482W        W29643  28.102  29.667   2.664
64483W        W29644  26.995  36.730   0.266
64484W        W29645  18.241   9.296   1.696
64485W        W29646   4.769  32.834   1.930
64486W        W29647  27.509  38.986  12.693
64487W        W29648  31.114  21.921   4.630
64488W        W29649  19.334   6.814  11.067
64489W        W29650  32.335   5.431   1.970
64490W        W29651  10.892  21.582   0.823
64491W        W29652   0.607  24.272   4.585
64492W        W29653  15.330  22.034  10.613
64493W        W29654  15.706  19.326  11.150
64494W        W29655  13.290  23.913   2.905
64495W        W29656   4.970  35.673  12.024
64496W        W29657  36.808  17.822   0.887
64497W        W29658  39.592  38.530  12.832
64498W        W29659  11.275   8.861   1.632
64499W        W29660  16.749  35.008  11.965
64500W        W29661  31.708  43.799   4.949
64501W        W29662  44.592  13.098  13.659
64502W        W29663  30.518   3.988  14.303
64503W        W29664   2.649  17.348  12.756
64504W        W29665  13.684  27.962   2.734
64505W        W29666  27.997  13.091   2.316
64506W        W29667  23.989  43.806   3.665
64507W        W29668  15.141  27.655  12.317
64508W        W29669   3.953   6.350   1.460
64509W        W29670  25.092  42.803  10.685
64510W        W29671   8.829  33.250  11.402
64511W        W29672  13.310  12.521   4.145
64512W        W29673  37.182  29.558  10.754
64513W        W29674  16.791  26.761   4.069
64514W        W29675  41.407   8.257   4.163
64515W        W29676  19.087   1.012   1.437
64516W        W29677  12.318  29.187   2.784
64517W        W29678  34.627   6.719  13.465
64518W        W29679  20.160  17.453  14.951
64519W        W29680  34.478  13.850   3.333
64520W        W29681  18.303  35.650  10.749
64521W        W29682  42.330   5.837   0.305
64522W        W29683  43.506  28.991  12.918
64523W        W29684  30.569  22.673   3.163
64524W        W29685  43.748  40.881  14.067
64525W        W29686  16.989  18.812   3.434
64526W        W29687  33.986  31.003   4.282
64527W        W29688  28.723   0.340   0.081
64528W        W29689  30.695  36.099   3.294
64529W        W29690   9.788  23.777  12.876
64530W        W29691  35.529  40.593  14.827
64531W        W29692  22.217  39.823  11.357
64532W        W29693  13.707  29.426   1.382
64533W        W29694  25.631  25.371   0.973
64534W        W29695  35.348  18.276   2.978
64535W        W29696  26.782  32.662  14.034
64536W        W29697  28.251   9.587   2.875
64537W        W29698  26.751  39.121   0.332
64538W        W29699  32.595  28.582  14.887
64539W        W29700  21.257  34.833   3.390
64540W        W29701  18.219  26.742  12.590
64541W        W29702  37.276  23.512  10.998
64542W        W29703  24.691  37.498   1.372
64543W        W29704  34.648  15.962   1.795
64544W        W29705  15.217  25.483  12.591
64545W        W29706   0.778   3.379  12.121
64546W        W29707  34.334  30.288  12.193
64547W        W29708   1.504   5.797   2.271
64548W        W29709  36.781  13.616  13.923
64549W        W29710  14.768   4.458   2.743
64550W        W29711  28.454  24.461  11.101
64551W        W29712  28.633  32.846   3.736
64552W        W29713  28.499  29.127   4.149
64553W        W29714  12.463  19.483   1.388
64554W        W29715  28.987   2.738  13.038
64555W        W29716  37.355  37.104  13.430
64556W        W29717  25.972  36.484  10.737
64557W        W29718  13.774  43.846  12.896
64558W        W29719  17.305  25.530  14.714
64559W        W29720  32.711  41.736  11.644
64560W        W29721  15.544  31.875   2.431
64561W        W29722  29.107  17.019  13.005
64562W        W29723  34.584   4.876  13.391
64563W        W29724  39.133  34.050  14.268
64564W        W29725  13.110  40.936   0.881
64565W        W29726  24.781   3.163  14.069
64566W        W29727  23.203  16.717   0.489
64567W        W29728  25.666  42.885   0.323
64568W        W29729  14.636  38.134   1.539
64569W        W29730  22.630  12.588   4.460
64570W        W29731  32.928  36.290   0.859
64571W        W29732  18.528  34.469   1.407
64572W        W29733  26.757  39.021  11.681
64573W        W29734  36.640   9.091  13.738
64574W        W29735  18.742  36.065   0.956
64575W        W29736  28.755   8.481  11.157
64576W        W29737  39.593   9.931  12.792
64577W        W29738  25.928  13.438   2.214
64578W        W29739  14.988  16.116  14.906
64579W        W29740  14.045   9.844  11.380
64580W        W29741  44.018  11.623  11.453
64581W        W29742   0.785   5.227  10.798
64582W        W29743  28.321  26.756  12.718
64583W        W29744  39.125   7.611  12.077
64584W        W29745   9.454  19.257   2.758
64585W        W29746  27.243   1.656   2.478
64586W        W29747  26.393   6.985   2.460
64587W        W29748  29.168  12.428   9.887
64588W        W29749  20.342   7.733  11.106
64589W        W29750  41.581  43.810   2.390
64590W        W29751  23.255   0.676   3.257
64591W        W29752  12.681   3.612   4.976
64592W        W29753  23.456  33.612  14.830
64593W        W29754  27.591   2.532  13.048
64594W        W29755  32.130  33.629   4.894
64595W        W29756   9.382  40.324  11.939
64596W        W29757  11.821  36.745   4.508
64597W        W29758  19.776  44.214  12.079
64598W        W29759  18.166  15.926   1.926
64599W        W29760  42.191  31.540   4.181
64600W        W29761  43.984   2.840   1.839
64601W        W29762  32.598  27.555   1.209
64602W        W29763   0.510  40.895  10.330
64603W        W29764   8.069  10.751  12.280
64604W        W29765  15.720   1.762  14.089
64605W        W29766  36.009  22.115  11.161
64606W        W29767  28.436   2.705   4.140
64607W        W29768  18.121  31.071   4.086
64608W        W29769  41.321  18.572  11.240
64609W        W29770   2.747  16.904  12.477
64610W        W29771  24.669  19.179   1.382
64611W        W29772   2.745  34.622   0.242
64612W        W29773  28.678  37.966   3.914
64613W        W29774   6.581   6.740  11.484
64614W        W29775  12.830  14.740  12.367
64615W        W29776  18.179  24.470  12.168
64616W        W29777  37.140  17.085  12.024
64617W        W29778   1.845  43.210   2.369
64618W        W29779  36.859  31.854  10.282
64619W        W29780  17.587   1.147   1.034
64620W        W29781   8.338  26.020   4.228
64621W        W29782   6.319  30.715  10.884
64622W        W29783  17.804  19.269   2.736
64623W        W29784  40.596  27.966  13.087
64624W        W29785   7.809  27.184  13.407
64625W        W29786  19.191   2.554   3.667
64626W        W29787  18.953  41.576  10.547
64627W        W29788  12.338   9.573   4.237
64628W        W29789  10.609   7.262  13.680
64629W        W29790  24.111  24.463   2.888
64630W        W29791  41.421   2.934   0.488
64631W        W29792   9.767  11.079  14.414
64632W        W29793  33.645   8.789  13.511
64633W        W29794  15.237  26.959  12.544
64634W        W29795  39.825  31.600   3.880
64635W        W29796  36.040  19.130  13.762
64636W        W29797   9.002   4.894  12.395
64637W        W29798  42.824  40.231  11.125
64638W        W29799  31.213  12.307  14.468
64639W        W29800  26.032   9.684  10.584
64640W        W29801  25.642  18.700   5.050
64641W        W29802   7.680  27.079  12.048
64642W        W29803  27.563  25.506   2.602
64643W        W29804  24.101  31.430   3.635
64644W        W29805  21.435  43.242  13.023
64645W        W29806  26.488  13.199   5.492
64646W        W29807  43.462  33.873   4.559
64647W        W29808  21.299  19.313  13.328
64648W        W29809   4.170  37.040   2.857
64649W        W29810  38.028  20.566   3.770
64650W        W29811  26.132  22.718  10.462
64651W        W29812  13.797   1.945   4.874
64652W        W29813  34.950  24.118  10.170
64653W        W29814  11.079  29.982   2.150
64654W        W29815  22.009  16.345  13.357
64655W        W29816  31.980  42.001  14.075
64656W        W29817   4.348   0.801  13.141
64657W        W29818   4.120  44.995   2.726
64658W        W29819  44.896   2.481   4.771
64659W        W29820  22.954   6.911   4.518
64660W        W29821  10.304  41.256  14.008
64661W        W29822  20.233  29.518  12.096
64662W        W29823  39.577  26.932   3.920
64663W        W29824  27.666   8.214   1.795
64664W        W29825   1.332  32.462   1.847
64665W        W29826  14.880  40.376  12.469
64666W        W29827  42.758  30.159   1.800
64667W        W29828  29.654  19.948  12.679
64668W        W29829  12.914   8.218   2.896
64669W        W29830   1.160  20.111   4.630
64670W        W29831  11.376  16.887   2.329
64671W        W29832  32.920  25.741   0.288
64672W        W29833  41.388  34.586  14.045
64673W        W29834  22.200  26.646  10.668
64674W        W29835   1.455  28.609  14.355
64675W        W29836  29.642  21.135   3.823
64676W        W29837  11.469   8.397   2.817
64677W        W29838  40.079  13.763  12.549
64678W        W29839  25.082  33.951  11.045
64679W        W29840   6.306  42.926   4.194
64680W        W29841  16.367   0.861   4.859
64681W        W29842  41.866  15.587  13.475
64682W        W29843  40.030  28.169  14.680
64683W        W29844  37.284  38.100   0.753
64684W        W29845  21.167   3.762  11.172
64685W        W29846  14.628  30.925  13.588
64686W        W29847  16.685   5.343   3.240
64687W        W29848   8.743  33.027   4.905
64688W        W29849  37.402  32.412  13.731
64689W        W29850  39.471   8.460  11.422
64690W        W29851  36.736   9.870  12.997
64691W        W29852  19.491  12.980  13.099
64692W        W29853   9.778  22.764   0.396
64693W        W29854  39.541  39.001   3.592
64694W        W29855  38.917  26.158  13.130
64695W        W29856  23.248  35.975  11.662
64696W        W29857  31.938  23.469   2.619
64697W        W29858  11.776  20.331   2.614
64698W        W29859   5.250  21.795  12.711
64699W        W29860   6.649  29.065  13.332
64700W        W29861  25.754  36.651  13.740
64701W        W29862  11.367  37.946   0.959
64702W        W29863  16.543   6.469   3.698
64703W        W29864  28.164  18.830   1.320
64704W        W29865  21.159   5.723   4.598
64705W        W29866  32.124  43.327  12.425
64706W        W29867  20.165  21.067   4.614
64707W        W29868  37.396  32.043  11.562
64708W        W29869  13.597  29.578   0.887
64709W        W29870  33.056   4.147   0.221
64710W        W29871  22.212  27.124  13.821
64711W        W29872  40.118  14.091   2.213
64712W        W29873  38.089  28.655   1.162
64713W        W29874   0.822  31.391  14.034
64714W        W29875  28.124   6.719   3.190
64715W        W29876  35.491  19.256   2.897
64716W        W29877  39.955  27.066  12.050
64717W        W29878   8.855  41.590   0.396
64718W        W29879  20.013  34.996   2.745
64719W        W29880  22.040  35.304  14.830
64720W        W29881   1.031  34.335   2.687
64721W        W29882  35.347   7.445  14.495
64722W        W29883  28.360  34.535  10.335
64723W        W29884   4.787   7.208  11.176
64724W        W29885   8.652  40.847  13.006
64725W        W29886  13.654   8.879   1.688
64726W        W29887   6.672   3.309   0.770
64727W        W29888  31.709  41.467   1.817
64728W        W29889   9.734  42.437  13.792
64729W        W29890   0.134   3.201   3.674
64730W        W29891  40.502  30.364   2.653
64731W        W29892  10.104  22.817  13.052
64732W        W29893  38.565  25.147   4.378
64733W        W29894  40.335  16.771   3.451
64734W        W29895  24.791  39.053  13.171
64735W        W29896  27.732  22.340   4.576
64736W        W29897  30.618  19.271   0.043
64737W        W29898  29.078   1.989   1.260
64738W        W29899  21.653   8.219  12.407
64739W        W29900   1.743  24.757   1.258
64740W        W29901  26.947  19.195   3.765
64741W        W29902  12.152  38.907   4.540
64742W        W29903  13.735   3.735  11.077
64743W        W29904  30.954  18.456   0.613
64744W        W29905  23.938  20.324   1.611
64745W        W29906   1.041  15.224  11.207
64746W        W29907  27.784  26.595   1.261
64747W        W29908  30.693  39.490  12.459
64748W        W29909  41.474   0.369  13.552
64749W        W29910  38.015   2.509   3.824
64750W        W29911  15.701   3.210  13.065
64751W        W29912  15.150  17.057   2.642
64752W        W29913   5.930   4.417   2.358
64753W        W29914  16.389   9.901  10.798
64754W        W29915  24.677  26.083  13.984
64755W        W29916   5.668   6.655   2.311
64756W        W29917  35.997  41.909   1.648
64757W        W29918  44.640  18.262   2.445
64758W        W29919  10.415  27.952   0.322
64759W        W29920  20.777  17.077  13.264
64760W        W29921  16.740  40.070   0.536
64761W        W29922  12.878  15.235   2.607
64762W        W29923  14.127   5.825   4.260
64763W        W29924  20.547  38.666   3.795
64764W        W29925  27.966  17.231  10.576
64765W        W29926  17.366  25.604  12.530
64766W        W29927   9.981  21.081  11.831
64767W        W29928  43.351  37.174  13.520
64768W        W29929  36.195  25.658   1.302
64769W        W29930  39.311  26.665   4.281
64770W        W29931   3.412  35.900   4.530
64771W        W29932  37.808  18.317  14.879
64772W        W29933  33.846  37.721  11.190
64773W        W29934   7.247  33.413   1.328
64774W        W29935  32.246  44.264  11.898
64775W        W29936  27.641  29.549  12.527
64776W        W29937  10.747  30.183  14.891
64777W        W29938  17.582  10.788   1.389
64778W        W29939  33.038  39.805   0.947
64779W        W29940  17.087  41.825  12.053
64780W        W29941  32.793   9.248  11.223
64781W        W29942  24.019  31.689   1.298
64782W        W29943  29.328  25.286   1.340
64783W        W29944  25.082  40.003   3.617
64784W        W29945  31.727  10.740  11.936
64785W        W29946  41.037  26.011   3.848
64786W        W29947   7.487  43.921   1.403
64787W        W29948  42.253  22.238   2.989
64788W        W29949   6.971  41.417  12.923
64789W        W29950  18.247   8.642  11.747
64790W        W29951   3.874   1.179  14.992
64791W        W29952  10.569   6.203   4.131
64792W        W29953  42.106  42.352   2.014
64793W        W29954  31.986  20.200   4.709
64794W        W29955  12.176  25.107  11.914
64795W        W29956  18.587  37.836   1.849
64796W        W29957  33.659  18.243   2.849
64797W        W29958   0.848  21.658  12.181
64798W        W29959  31.165   6.111  13.426
64799W        W29960  39.889   4.666   0.762
64800W        W29961  17.042   3.296  10.450
64801W        W29962  16.179  22.959  13.076
64802W        W29963   2.850  32.919   4.740
64803W        W29964  10.557   8.087   0.885
64804W        W29965  38.103  35.352   2.215
64805W        W29966   5.172  35.388   0.143
64806W        W29967  11.208   5.465  14.836
64807W        W29968  20.079  25.966   0.847
64808W        W29969  28.598  43.919  12.817
64809W        W29970  40.564  23.220   3.676
64810W        W29971  24.421   1.715   4.162
64811W        W29972  33.186  12.874  12.651
64812W        W29973   8.742   4.494   3.319
64813W        W29974  43.953  20.772  10.913
64814W        W29975   8.721  26.856  14.310
64815W        W29976  40.437  11.632  12.924
64816W        W29977  42.363  20.458  13.340
64817W        W29978   2.976  36.636   2.410
64818W        W29979   4.414  37.443  13.464
64819W        W29980   9.343  15.679  12.295
64820W        W29981  38.401  22.670  12.796
64821W        W29982  31.091  20.638  11.770
64822W        W29983   5.642  11.393   3.889
64823W        W29984   5.733   5.918  12.046
64824W        W29985  11.603  13.682   1.166
64825W        W29986  41.062   6.876  11.641
64826W        W29987   3.741  22.744   1.806
64827W        W29988  24.193  35.539   1.271
64828W        W29989  21.994  20.095   0.371
64829W        W29990  29.163  36.146   4.800
64830W        W29991   1.582  11.719   9.851
64831W        W29992  11.143   5.821  10.521
64832W        W29993  41.324  13.895   0.347
64833W        W29994  25.088  30.200  12.890
64834W        W29995   0.154  38.295   3.219
64835W        W29996  33.955   4.212   3.777
64836W        W29997  26.909   1.449   1.898
64837W        W29998  31.318   4.892  13.046
64838W        W29999  41.239   8.337  14.502
64839W        W30000   9.117  17.591  10.482
64840W        W30001  32.528  18.846  12.871
64841W        W30002   9.459  18.802  14.842
64842W        W30003  31.598  32.865   2.168
64843W        W30004  29.957  30.320   1.804
64844W        W30005  31.523  39.212  12.341
64845W        W30006  41.208  18.953  13.037
64846W        W30007  41.752  39.433  11.071
64847W        W30008  22.880  18.047   1.297
64848W        W30009   8.952  27.146  11.163
64849W        W30010  25.679   9.860  13.034
64850W        W30011  37.900  44.935   4.044
64851W        W30012   3.950  32.450  13.832
64852W        W30013  37.938  37.804   1.975
64853W        W30014  26.223   6.499  13.444
64854W        W30015  44.315  22.235   0.039
64855W        W30016   7.203  31.822   0.363
64856W        W30017  20.067   7.901   2.690
64857W        W30018  36.529  23.580  11.633
64858W        W30019  39.652  29.647  13.868
64859W        W30020  35.045  43.896   4.818
64860W        W30021  40.266  14.893   2.962
64861W        W30022  18.352  43.379   4.469
64862W        W30023  21.481  25.291  14.953
64863W        W30024  15.893  18.115   3.661
64864W        W30025  42.934   5.746   1.924
64865W        W30026  21.420  44.589   4.910
64866W        W30027  14.617  26.837   0.842
64867W        W30028  16.199  21.073  13.817
64868W        W30029  17.678  19.947  13.517
64869W        W30030  34.970  21.339  12.800
64870W        W30031  16.010  30.190   2.293
64871W        W30032  42.479  13.354   4.512
64872W        W30033   7.131  15.955  11.540
64873W        W30034  14.155  29.179  11.232
64874W        W30035  15.258   1.654   0.480
64875W        W30036  38.243  27.545   2.437
64876W        W30037  43.806  23.912  13.516
64877W        W30038  40.636  14.737  11.626
64878W        W30039   6.421  11.596   1.278
64879W        W30040   8.328  17.750  11.446
64880W        W30041   8.365  11.907   4.144
64881W        W30042  26.485   3.990   2.222
64882W        W30043  11.747  37.390  13.545
64883W        W30044  44.928   5.783   3.837
64884W        W30045   9.095  24.900   3.213
64885W        W30046  10.484  12.163  12.464
64886W        W30047  30.258   8.828   3.641
64887W        W30048   9.496  35.145   0.758
64888W        W30049  19.171   7.737   2.560
64889W        W30050  23.535   6.176   1.276
64890W        W30051   7.254   8.803  11.703
64891W        W30052  31.353  44.772   2.885
64892W        W30053   4.376  42.151  11.858
64893W        W30054  25.446  34.829  12.921
64894W        W30055   2.212  26.532   4.099
64895W        W30056  33.460  11.661   1.386
64896W        W30057  22.918  30.089   1.373
64897W        W30058  21.017  38.876   2.356
64898W        W30059  34.069  26.902  11.186
64899W        W30060  17.249  37.003   3.756
64900W        W30061  12.899   6.804   2.445
64901W        W30062  40.363  12.256   3.202
64902W        W30063  11.284  31.478   1.362
64903W        W30064  32.045  12.603   4.727
64904W        W30065  21.770   5.909  11.275
64905W        W30066  26.907  33.817  12.502
64906W        W30067  40.729   1.827  11.179
64907W        W30068   6.741  27.414  14.495
64908W        W30069   8.434  26.110  12.505
64909W        W30070  33.154  23.559  14.566
64910W        W30071  32.740  23.017  11.483
64911W        W30072  22.363  24.451   3.624
64912W        W30073  41.866  21.046  13.378
64913W        W30074  11.120  16.552  14.241
64914W        W30075   6.726  12.162  10.955
64915W        W30076  14.680  35.822   1.184
64916W        W30077  37.305  13.229  14.279
64917W        W30078   2.776   1.349   0.803
64918W        W30079  29.952  25.128   3.156
64919W        W30080  19.109  25.035   3.780
64920W        W30081  42.044   4.161   0.899
64921W        W30082  41.871  44.220   2.571
64922W        W30083  40.858  16.055   2.411
64923W        W30084   5.949  39.285   2.281
64924W        W30085  41.704  40.898   4.763
64925W        W30086  13.253  39.045  10.923
64926W        W30087  31.920  29.101  13.577
64927W        W30088  29.438  26.720   4.503
64928W        W30089  22.066  39.347   3.658
64929W        W30090   2.285  15.822  13.907
64930W        W30091  33.017  35.116  13.066
64931W        W30092  36.096  37.583  10.780
64932W        W30093   7.125  39.837   1.807
64933W        W30094  28.118  36.548  14.786
64934W        W30095  38.447   7.212   0.479
64935W        W30096  18.249  19.854   4.047
64936W        W30097   5.680   3.156   0.109
64937W        W30098  26.633   1.041   1.707
64938W        W30099  30.833  21.815   3.121
64939W        W30100  25.745  15.741   0.317
64940W        W30101  39.856   7.307  13.156
64941W        W30102   0.427  16.610   2.611
64942W        W30103  25.125  21.094   2.155
64943W        W30104  33.639  38.870   0.479
64944W        W30105   5.476  29.582   2.710
64945W        W30106  22.221  24.581   3.157
64946W        W30107  16.575  24.971  14.564
64947W        W30108  29.624   5.198  13.486
64948W        W30109  12.271   4.142   2.390
64949W        W30110  38.352   4.811   1.448
64950W        W30111  12.243  13.675   2.617
64951W        W30112  38.529  44.279  10.851
64952W        W30113  15.071  37.243  12.912
64953W        W30114  40.383  40.540   4.573
64954W        W30115   1.366  15.150  13.296
64955W        W30116  15.094  18.727   1.337
64956W        W30117   0.025  29.691  12.847
64957W        W30118  33.102  36.418   3.086
64958W        W30119  38.998   1.987  11.522
64959W        W30120  31.813   4.904  12.923
64960W        W30121   9.319   4.941   1.698
64961W        W30122   3.974  30.043  11.193
64962W        W30123  19.564  38.409   4.156
64963W        W30124   9.415  15.843  10.608
64964W        W30125   5.222  26.151   0.745
64965W        W30126  22.979  40.318   4.525
64966W        W30127   6.153   9.393  13.912
64967W        W30128  18.127  14.755   4.125
64968W        W30129  37.460  38.333  12.369
64969W        W30130  43.245   0.843  13.099
64970W        W30131  18.177   6.159   4.158
64971W        W30132  10.869  37.443  13.597
64972W        W30133   5.662  28.778  10.146
64973W        W30134   6.396   7.467  11.211
64974W        W30135  33.962  24.599   2.742
64975W        W30136  44.498  31.969  12.108
64976W        W30137  34.236  39.207  11.597
64977W        W30138  40.035  30.920   3.482
64978W        W30139  44.196  42.835   0.491
64979W        W30140  16.214  21.968  13.974
64980W        W30141  20.441  18.300   2.604
64981W        W30142  25.212  18.741  10.548
64982W        W30143  44.032  30.795  14.349
64983W        W30144  17.120  34.468  13.455
64984W        W30145   4.361  38.614  13.959
64985W        W30146  41.100  25.481  14.693
64986W        W30147  11.586  19.165   1.885
64987W        W30148  24.693  25.254   3.316
64988W        W30149  12.289   6.383   2.312
64989W        W30150   5.869   7.905  13.298
64990W        W30151   5.765  17.516  13.429
64991W        W30152   2.225  31.708   3.341
64992W        W30153  44.332   3.568  13.442
64993W        W30154  30.502  40.937  12.816
64994W        W30155   6.515  30.735   4.094
64995W        W30156  26.634  18.256   1.190
64996W        W30157   2.986  39.601   0.887
64997W        W30158   2.262  30.848  12.473
64998W        W30159  32.897  20.228   0.926
64999W        W30160  28.105  42.457   2.260
65000W        W30161  36.142   1.803   4.219
65001W        W30162  20.368   5.964   4.115
65002W        W30163   2.312  36.959   1.410
65003W        W30164   0.282  32.159  14.107
65004W        W30165  28.254   7.622  10.703
65005W        W30166  16.268  36.997   1.271
65006W        W30167  18.978  30.121   1.871
65007W        W30168  26.440  23.045  14.069
65008W        W30169  12.363  31.524   0.445
65009W        W30170  35.487  21.468   4.807
65010W        W30171  32.177  18.062  14.005
65011W        W30172  23.769   4.129  12.991
65012W        W30173  16.884  13.523   3.288
65013W        W30174  21.152  40.117   9.652
65014W        W30175   9.441   2.911   0.119
65015W        W30176  32.428  14.889  13.506
65016W        W30177   6.222  10.925  10.190
65017W        W30178  19.697  14.584  12.045
65018W        W30179  38.811   6.623  12.974
65019W        W30180   1.920  17.044   0.935
65020W        W30181  43.575   2.945  12.441
65021W        W30182  43.142   0.813  10.530
65022W        W30183   0.894  17.115  11.896
65023W        W30184  20.719   0.857  11.081
65024W        W30185   9.297  19.793   3.414
65025W        W30186  16.376  40.134   3.282
65026W        W30187  38.610   8.259  10.440
65027W        W30188   5.048  31.505  10.705
65028W        W30189  16.407  39.752  11.591
65029W        W30190   8.204  15.624  13.956
65030W        W30191  20.837  40.049   3.690
65031W        W30192  23.998  14.295   2.688
65032W        W30193   8.594  12.837   1.349
65033W        W30194  24.392   0.946  13.844
65034W        W30195  43.769   0.382   2.668
65035W        W30196  24.405  14.796  12.761
65036W        W30197  12.785   3.077   4.909
65037W        W30198  25.470  24.481   4.072
65038W        W30199  41.272  15.817   2.868
65039W        W30200  33.126  23.340   1.238
65040W        W30201  13.080  19.953   1.436
65041W        W30202   5.957  30.558  14.083
65042W        W30203  30.065  13.403   4.445
65043W        W30204  37.541  30.359   2.452
65044W        W30205   9.797   2.995  14.367
65045W        W30206  30.881  14.400  11.539
65046W        W30207   5.958  26.904   3.073
65047W        W30208  37.579   5.810  14.534
65048W        W30209  17.740  42.248   2.333
65049W        W30210   0.770  30.580   2.151
65050W        W30211  28.585  36.065  10.678
65051W        W30212   1.927  29.573  11.187
65052W        W30213   9.519  21.433  14.468
65053W        W30214  28.620  12.162   4.148
65054W        W30215   8.811  30.997  10.566
65055W        W30216  39.405  17.100  14.367
65056W        W30217  16.760  37.126  14.282
65057W        W30218   6.724  32.050   0.448
65058W        W30219  18.523  43.071   0.467
65059W        W30220  26.006   8.205   0.026
65060W        W30221  19.236  27.722  12.060
65061W        W30222  17.001  39.394   2.249
65062W        W30223   4.760  23.846   2.107
65063W        W30224  42.297   8.363   1.392
65064W        W30225  44.969  30.928   2.474
65065W        W30226   8.364  41.315  13.126
65066W        W30227   3.827   8.719   0.418
65067W        W30228  27.495  26.019  11.761
65068W        W30229  18.381   7.982   3.710
65069W        W30230  27.891  27.971   0.907
65070W        W30231  43.309  28.115   4.600
65071W        W30232  41.490  32.938   0.430
65072W        W30233  25.565  17.867   4.404
65073W        W30234  23.703   3.801  11.559
65074W        W30235   3.228  28.154  12.031
65075W        W30236  31.226  17.598  11.187
65076W        W30237  26.875  14.740   5.024
65077W        W30238  19.808  24.923  12.917
65078W        W30239  25.739  35.574  14.475
65079W        W30240   5.950   3.015  12.079
65080W        W30241  35.017  40.307   1.029
65081W        W30242   9.487  22.692  11.396
65082W        W30243  25.703  28.672  13.358
65083W        W30244  41.235  18.315   3.911
65084W        W30245  38.911  11.422   4.131
65085W        W30246  18.750  27.506  11.246
65086W        W30247   4.705  44.138   3.521
65087W        W30248   5.123  26.850   3.716
65088W        W30249   3.463  15.771   0.334
65089W        W30250  43.278  20.100   3.718
65090W        W30251  19.221  23.799  13.352
65091W        W30252  30.552  26.347  13.801
65092W        W30253  12.263  23.561   2.752
65093W        W30254  34.653  23.689   1.981
65094W        W30255  36.570   8.910   4.575
65095W        W30256  14.385  26.939  13.878
65096W        W30257   9.169  32.090   1.196
65097W        W30258  24.196   6.973  10.332
65098W        W30259  29.448  15.608  11.671
65099W        W30260   2.267  41.419   2.367
65100W        W30261  22.502  13.610  10.379
65101W        W30262  29.631  26.578   3.227
65102W        W30263   7.382  42.301   3.714
65103W        W30264   8.185  18.011  14.339
65104W        W30265  14.160  32.912  12.031
65105W        W30266  18.722  22.985  13.788
65106W        W30267  31.360  25.004   5.237
65107W        W30268   4.986   5.901  11.596
65108W        W30269  40.514  24.904  10.830
65109W        W30270  42.024   1.815   4.649
65110W        W30271   4.280  31.170  12.444
65111W        W30272  24.470   0.890   3.453
65112W        W30273  10.349  16.893   2.269
65113W        W30274   0.081  40.875  14.536
65114W        W30275   8.620  22.497  14.936
65115W        W30276  12.814  30.461  13.399
65116W        W30277  22.677  13.692   2.788
65117W        W30278  36.516   9.524  12.029
65118W        W30279  28.152  25.691   3.257
65119W        W30280  30.957  17.305  11.504
65120W        W30281  16.797  15.320   4.032
65121W        W30282  21.966   9.848  14.424
65122W        W30283  38.571  32.924  12.049
65123W        W30284   7.818  11.367   3.611
65124W        W30285  39.066  36.365  11.457
65125W        W30286  44.964   5.126   3.681
65126W        W30287  16.807  42.362   0.297
65127W        W30288  23.434   2.366   2.222
65128W        W30289  39.637  24.427   2.022
65129W        W30290  12.374   4.765   2.734
65130W        W30291  35.041  33.916  11.964
65131W        W30292   4.474  17.981  11.982
65132W        W30293  18.175  14.245   4.271
65133W        W30294   1.836   8.670  13.874
65134W        W30295   9.916  26.530   3.111
65135W        W30296  11.649  35.836  10.680
65136W        W30297  10.350  43.004   0.690
65137W        W30298  35.481  33.835  12.911
65138W        W30299   6.218  19.928  11.090
65139W        W30300  35.512  43.098   5.106
65140W        W30301  13.749   9.175  13.530
65141W        W30302   7.314  23.704   3.824
65142W        W30303  29.414   6.831   2.704
65143W        W30304  20.392   5.702  12.031
65144W        W30305  20.267  30.582  14.902
65145W        W30306  42.638  32.373  14.841
65146W        W30307  13.755  14.870   1.422
65147W        W30308   8.735  34.462  14.814
65148W        W30309  36.277   3.628   1.297
65149W        W30310  13.798  17.927   2.675
65150W        W30311  30.661  14.775   0.322
65151W        W30312  41.446   0.366   3.702
65152W        W30313  18.241   7.325  10.529
65153W        W30314   0.011  34.871   0.891
65154W        W30315   8.854   2.704  12.851
65155W        W30316  20.243   5.344   0.323
65156W        W30317  29.537  10.635  14.497
65157W        W30318  44.873  33.942   4.527
65158W        W30319  14.125  39.562  11.066
65159W        W30320   0.760  29.872   3.288
65160W        W30321  39.523   9.080  14.337
65161W        W30322   8.277  43.293   3.312
65162W        W30323  28.323  24.162   0.357
65163W        W30324  14.159  38.104   1.361
65164W        W30325  23.099  35.636   3.825
65165W        W30326  22.674  31.666  13.501
65166W        W30327   1.510   9.141   3.227
65167W        W30328  38.400   7.418  11.296
65168W        W30329  33.077  11.380  10.660
65169W        W30330   9.236  37.698  11.637
65170W        W30331  31.510   3.235   2.475
65171W        W30332  39.786   3.572   0.064
65172W        W30333   5.880  17.789   3.607
65173W        W30334  40.118  25.808  12.962
65174W        W30335   3.493  27.460   1.231
65175W        W30336  44.498  33.548   1.774
65176W        W30337  14.755  27.335   0.899
65177W        W30338  11.711  27.487  12.962
65178W        W30339  35.465  42.280   3.332
65179W        W30340  20.934   1.116  11.474
65180W        W30341  13.508   9.013   4.602
65181W        W30342  32.903  20.627   1.351
65182W        W30343  43.698   3.828   1.515
65183W        W30344  39.176  33.983   3.705
65184W        W30345  38.048  41.044   1.821
65185W        W30346   6.977  17.808  12.006
65186W        W30347  29.027  25.466  12.916
65187W        W30348  20.954  30.562  10.354
65188W        W30349   6.085  10.631   2.834
65189W        W30350  41.479  30.489  13.860
65190W        W30351  16.551  26.060  13.499
65191W        W30352  29.644  15.839  12.120
65192W        W30353  42.913   8.470   3.504
65193W        W30354  21.305  17.488  10.596
65194W        W30355  36.195   6.812  14.234
65195W        W30356  28.542  16.063   1.784
65196W        W30357   4.952  29.348   4.581
65197W        W30358  33.465  34.925  13.294
65198W        W30359  18.717   3.285  12.515
65199W        W30360  18.319   9.687   0.428
65200W        W30361  17.348  18.057   0.419
65201W        W30362   3.399   8.327  11.586
65202W        W30363   1.893  24.540   2.732
65203W        W30364  33.325  23.346   0.768
65204W        W30365  22.119  19.486   1.792
65205W        W30366  14.837  28.890   4.719
65206W        W30367   2.866  43.410   4.755
65207W        W30368  24.804  26.027   1.256
65208W        W30369  15.096  28.601  10.661
65209W        W30370  26.376  31.617   3.423
65210W        W30371  12.881  21.736   0.334
65211W        W30372  18.994  32.217   4.638
65212W        W30373  12.644   8.889   0.531
65213W        W30374  18.731  19.869  14.855
65214W        W30375  37.943  41.483   3.028
65215W        W30376  30.873  12.871   1.255
65216W        W30377   8.162  22.156  13.671
65217W        W30378   9.912  37.739  14.110
65218W        W30379  39.776  32.588  11.654
65219W        W30380  32.042  20.610  12.007
65220W        W30381  17.767  25.909  14.759
65221W        W30382  36.503   8.787  12.437
65222W        W30383  40.727  31.601  10.682
65223W        W30384  29.687  33.172   3.214
65224W        W30385   4.940  14.733   4.237
65225W        W30386   8.642  26.090   2.171
65226W        W30387  13.625  14.092  14.253
65227W        W30388   4.131  30.899   4.049
65228W        W30389  35.125  25.829   0.575
65229W        W30390  34.038  11.168   3.283
65230W        W30391  40.826  28.020  14.440
65231W        W30392  33.959  44.223  12.431
65232W        W30393  37.478  37.277   1.322
65233W        W30394  11.365   1.592   0.446
65234W        W30395  39.743  34.097  13.399
65235W        W30396   4.280  24.018   2.216
65236W        W30397   9.695   1.437  11.156
65237W        W30398  15.649  12.463  13.887
65238W        W30399  29.179   2.361  13.398
65239W        W30400  21.303   7.211  10.796
65240W        W30401  10.174  35.836  14.397
65241W        W30402  29.994  10.361  10.675
65242W        W30403  16.733  34.213   2.611
65243W        W30404  12.195   3.374   0.842
65244W        W30405  18.219  30.487   4.177
65245W        W30406   5.451  33.235  10.525
65246W        W30407  23.599  15.296   1.210
65247W        W30408  33.586  26.850   0.936
65248W        W30409  14.380  28.428   3.257
65249W        W30410  15.737  23.147  13.797
65250W        W30411  44.441   4.375   1.120
65251W        W30412  44.017  13.101   2.580
65252W        W30413   9.198  11.679   3.859
65253W        W30414  23.333  39.212   2.258
65254W        W30415  28.973   6.882   0.964
65255W        W30416  27.163   5.642  12.690
65256W        W30417  42.536   1.008   2.441
65257W        W30418  21.997   4.687   0.313
65258W        W30419   0.744  28.497  10.712
65259W        W30420   1.585  42.352  11.632
65260W        W30421   2.821  40.077  11.466
65261W        W30422  43.987  35.299  14.781
65262W        W30423  31.565   9.816   4.127
65263W        W30424  16.282   9.150   1.920
65264W        W30425  15.240   8.854   0.262
65265W        W30426  32.180   4.877   4.728
65266W        W30427  13.739  40.079  10.728
65267W        W30428  22.154  23.031   0.075
65268W        W30429   1.628   8.227  14.136
65269W        W30430  24.390  17.093   3.002
65270W        W30431  31.495  29.232  13.843
65271W        W30432  22.486   7.102  13.470
65272W        W30433  25.961  42.547   3.775
65273W        W30434  11.669  26.314   4.701
65274W        W30435  20.481  20.730   0.874
65275W        W30436  19.728   1.301  12.980
65276W        W30437  20.396  30.083  12.858
65277W        W30438  41.390  20.196  11.595
65278W        W30439  19.708  28.667  10.710
65279W        W30440   3.304  19.831   4.156
65280W        W30441  25.022  15.053   2.864
65281W        W30442   9.364   4.289   4.110
65282W        W30443  41.205  30.910   0.402
65283W        W30444   4.087  30.539   4.589
65284W        W30445  37.099  22.597   0.317
65285W        W30446  20.091  33.032   4.478
65286W        W30447  13.581  18.195   0.474
65287W        W30448  26.851  19.606   1.005
65288W        W30449  11.871  37.421  12.601
65289W        W30450   7.465  21.183  10.065
65290W        W30451  13.801  39.523  13.946
65291W        W30452  20.357   6.038   3.142
65292W        W30453  22.033  43.178  11.113
65293W        W30454  31.140   6.682   2.211
65294W        W30455  28.355  34.935  10.672
65295W        W30456  35.316  40.453  12.508
65296W        W30457  35.836  36.676   2.481
65297W        W30458  17.868  43.991   5.061
65298W        W30459   5.068  42.700   4.636
65299W        W30460   4.709  32.594  14.305
65300W        W30461   2.362  14.328   4.844
65301W        W30462   0.770   4.469   2.882
65302W        W30463   4.316  29.229  10.938
65303W        W30464  28.218   2.314  12.152
65304W        W30465  19.110  33.709   0.842
65305W        W30466   1.401  31.063  13.390
65306W        W30467   2.836   6.335   3.298
65307W        W30468  19.984  31.850   2.838
65308W        W30469  42.918  20.039  13.011
65309W        W30470  14.666   3.711  10.614
65310W        W30471  14.250  30.972  12.959
65311W        W30472  27.184  41.979   4.283
65312W        W30473  24.439   6.405   1.183
65313W        W30474  13.090  30.012   3.170
65314W        W30475   9.370  17.347   1.799
65315W        W30476  17.634  24.179   3.246
65316W        W30477  43.323  19.769  10.540
65317W        W30478   1.081  14.879  11.625
65318W        W30479  22.252  44.349  14.738
65319W        W30480  20.124  14.825   4.108
65320W        W30481  31.322  27.817   3.477
65321W        W30482  16.548  17.834   0.817
65322W        W30483  12.636  22.274  10.445
65323W        W30484  16.740  32.675  12.576
65324W        W30485  37.570  23.655   0.867
65325W        W30486   8.261  41.970   4.357
65326W        W30487   7.765   9.551   2.528
65327W        W30488  19.003  39.131  12.517
65328W        W30489  28.170  43.919  12.478
65329W        W30490  10.792  12.257  13.513
65330W        W30491  15.511  30.477   3.567
65331W        W30492  23.570  22.731   0.383
65332W        W30493  25.614   8.700   2.776
65333W        W30494  23.024  30.657   3.967
65334W        W30495   7.895  35.591   2.210
65335W        W30496  20.495  24.545   4.094
65336W        W30497  36.539  10.806  11.705
65337W        W30498   7.649  37.963   2.725
65338W        W30499  24.493  14.769   1.428
65339W        W30500  28.940  22.518   0.738
65340W        W30501  28.651  17.058   4.822
65341W        W30502  35.448  31.131  14.651
65342W        W30503   2.526  44.551   3.261
65343W        W30504  31.862  28.489  10.595
65344W        W30505  23.625  19.551  13.108
65345W        W30506  17.819  27.243   0.192
65346W        W30507  42.889  29.686   2.704
65347W        W30508  23.692  43.930   4.088
65348W        W30509  18.801  17.199  12.294
65349W        W30510  40.540  24.112   2.271
65350W        W30511  20.319  23.671   3.663
65351W        W30512  17.227  39.956  11.995
65352W        W30513  44.977  19.682   1.663
65353W        W30514   0.555  43.956  12.024
65354W        W30515  37.814  23.211  13.876
65355W        W30516  43.778   0.512  13.447
65356W        W30517  19.057   7.954   1.314
65357W        W30518   3.264  43.029   1.846
65358W        W30519  28.709  38.671   0.023
65359W        W30520  12.128  15.669  11.142
65360W        W30521  36.858  43.849   0.553
65361W        W30522   7.882  19.679  11.658
65362W        W30523  38.388  31.894  11.187
65363W        W30524  33.291   5.427  14.622
65364W        W30525  16.352  44.572  12.085
65365W        W30526   6.601   8.231  13.410
65366W        W30527   9.426  30.525   0.825
65367W        W30528   8.191  40.401  14.412
65368W        W30529  37.482   8.775   2.283
65369W        W30530   2.357  11.698   1.221
65370W        W30531  21.562  21.800   1.732
65371W        W30532  40.922  13.002   4.631
65372W        W30533   9.285  29.567   4.504
65373W        W30534  20.776  42.782   4.692
65374W        W30535  40.371  21.204   1.702
65375W        W30536  30.529  38.793   3.216
65376W        W30537   3.789  30.083   3.876
65377W        W30538  41.667  13.595  11.501
65378W        W30539  24.208   8.338   4.109
65379W        W30540  34.116  23.301   0.377
65380W        W30541  42.222   8.675  13.006
65381W        W30542   0.007  17.935   2.589
65382W        W30543  16.674  16.955  14.123
65383W        W30544  24.980  19.571   2.751
65384W        W30545  25.639  32.138  11.185
65385W        W30546  39.190   9.826   1.502
65386W        W30547   0.373  19.696  11.154
65387W        W30548  14.243  15.125  10.636
65388W        W30549   4.180  21.122   4.517
65389W        W30550  25.485  13.894   9.803
65390W        W30551  12.356   3.743   2.867
65391W        W30552  10.709  41.950  10.956
65392W        W30553  22.731  14.333  14.478
65393W        W30554  43.067  16.193  12.333
65394W        W30555  32.209  24.506   0.511
65395W        W30556  40.361  44.813   0.445
65396W        W30557  41.842  25.618  14.803
65397W        W30558  22.818   1.056   0.297
65398W        W30559  17.289  44.039   3.236
65399W        W30560  43.077  19.591   3.022
65400W        W30561  35.627  41.858   2.643
65401W        W30562  20.620  24.169  11.302
65402W        W30563  30.192   3.926   0.113
65403W        W30564  37.129  40.341   1.309
65404W        W30565  28.447  20.557   4.264
65405W        W30566  31.096  18.020   3.792
65406W        W30567   6.222  33.594  14.769
65407W        W30568  25.308  11.872  12.284
65408W        W30569  20.045  35.894   1.810
65409W        W30570  19.632  32.901   2.839
65410W        W30571  41.619  19.730  11.646
65411W        W30572  44.367  42.806  12.389
65412W        W30573   7.873  19.982   2.593
65413W        W30574  10.339  17.559  14.285
65414W        W30575   0.103  23.078  11.786
65415W        W30576  14.855   8.377  12.111
65416W        W30577  23.422  34.351  14.196
65417W        W30578   9.665  39.981   2.572
65418W        W30579  20.647   4.843  13.466
65419W        W30580  17.999  33.759  12.538
65420W        W30581  16.587  36.363  12.201
65421W        W30582  20.285  29.130   1.648
65422W        W30583  37.161  22.784  14.301
65423W        W30584  41.333   5.747  12.015
65424W        W30585  42.633  26.811   4.159
65425W        W30586  35.617  42.336   2.387
65426W        W30587   0.601   4.945  14.093
65427W        W30588  38.398  13.688   0.398
65428W        W30589   9.512  28.306  10.003
65429W        W30590  27.227  43.170  14.964
65430W        W30591  29.317  17.871  11.584
65431W        W30592   3.369  13.389  12.376
65432W        W30593   1.966  25.555   4.428
65433W        W30594   4.847  25.509   1.370
65434W        W30595  34.423  13.829   0.435
65435W        W30596  16.991  16.278   0.308
65436W        W30597  21.101  12.241  13.073
65437W        W30598  39.058  11.076  10.545
65438W        W30599  34.534  20.951  14.172
65439W        W30600  18.207  32.132   4.024
65440W        W30601  37.467  37.628  10.574
65441W        W30602  40.835  17.018   2.253
65442W        W30603  27.578  31.588  12.114
65443W        W30604  17.599  22.805  13.352
65444W        W30605  21.712   0.570   3.293
65445W        W30606  30.382  22.169   1.292
65446W        W30607  27.098  15.587  10.726
65447W        W30608  39.207  40.238  14.295
65448W        W30609  40.532   4.763   1.629
65449W        W30610  21.531  10.761  14.831
65450W        W30611   7.869  12.161  12.183
65451W        W30612  38.384  42.330  11.412
65452W        W30613  42.012  22.729  14.413
65453W        W30614  13.715  43.256   1.480
65454W        W30615   1.839  16.576   2.704
65455W        W30616  18.004  18.234  10.690
65456W        W30617  31.845   6.365   4.646
65457W        W30618   3.790  43.859  12.114
65458W        W30619  42.333  17.123  14.486
65459W        W30620  24.140  14.852  14.506
65460W        W30621  14.755   4.229  14.423
65461W        W30622  35.924   3.784  11.086
65462W        W30623  17.178  23.232  14.502
65463W        W30624   0.962  26.755   3.701
65464W        W30625  10.596  18.892   0.252
65465W        W30626  15.200  15.067   1.808
65466W        W30627  16.793  38.825  13.452
65467W        W30628  15.540  44.827  14.147
65468W        W30629   8.911  18.053   4.198
65469W        W30630  41.541   8.673   1.750
65470W        W30631  34.067  20.259   3.300
65471W        W30632   8.181  20.140  10.723
65472W        W30633  13.480  44.140  13.807
65473W        W30634  32.629  40.446  14.787
65474W        W30635  27.586  12.332  13.943
65475W        W30636  11.879  44.787   2.443
65476W        W30637  34.516   0.385  11.245
65477W        W30638  40.025  16.661  14.854
65478W        W30639   4.737  43.831  12.056
65479W        W30640  33.748  36.980  10.787
65480W        W30641   6.772  26.721   2.084
65481W        W30642  23.743   0.840  13.595
65482W        W30643  25.988  42.057  10.742
65483W        W30644   9.572   0.888   4.422
65484W        W30645  10.494  36.173   0.387
65485W        W30646  17.353   6.603  11.103
65486W        W30647  29.462  29.655   0.026
65487W        W30648  12.990  25.427  12.987
65488W        W30649  39.856  20.464  11.560
65489W        W30650   2.612  28.013  14.317
65490W        W30651  33.459  39.527   0.718
65491W        W30652  19.887  40.529   4.875
65492W        W30653  23.491   9.161  13.740
65493W        W30654  18.445  32.512   0.975
65494W        W30655  21.249  31.923   3.565
65495W        W30656  14.175  39.396   2.651
65496W        W30657  16.847  14.170  14.358
65497W        W30658  17.327  22.567   0.437
65498W        W30659  43.409   4.448   0.714
65499W        W30660   5.975  42.199   0.447
65500W        W30661   4.108  29.546   2.187
65501W        W30662  38.112   3.336  12.906
65502W        W30663  18.767  15.263  14.352
65503W        W30664  43.099  12.661  13.885
65504W        W30665  39.331  22.766   3.702
65505W        W30666  40.528  31.477  13.592
65506W        W30667   8.608  24.145   3.743
65507W        W30668  11.390  44.511   2.632
65508W        W30669  16.635   5.855   1.233
65509W        W30670   6.316  27.527  12.565
65510W        W30671  34.715  26.320  11.162
65511W        W30672  35.352  14.600  11.586
65512W        W30673   0.459  26.054   1.447
65513W        W30674   3.478  34.187   0.866
65514W        W30675  10.182  38.456   3.769
65515W        W30676  18.022  34.594   0.706
65516W        W30677  31.677  27.636  10.202
65517W        W30678   8.255   6.098  13.622
65518W        W30679  30.434  41.582  11.699
65519W        W30680   1.394  19.886  11.920
65520W        W30681  10.303  37.432  14.901
65521W        W30682  15.054  23.728   0.905
65522W        W30683  41.632  16.643  12.096
65523W        W30684  36.655  17.116   1.249
65524W        W30685  16.427  42.485  11.458
65525W        W30686  17.337  36.085  11.848
65526W        W30687  23.242  10.906  13.319
65527W        W30688  13.252  17.561   1.722
65528W        W30689  15.690  28.210   2.201
65529W        W30690  23.413  28.019   1.705
65530W        W30691   0.215   3.498   1.181
65531W        W30692  16.795  26.205  11.073
65532W        W30693  34.393   3.414  11.942
65533W        W30694  36.633   8.193  11.561
65534W        W30695   3.472  41.252  13.853
65535W        W30696  37.533  38.216   9.685
65536W        W30697  24.377  17.268   3.726
65537W        W30698   7.730  17.512  12.508
65538W        W30699  20.517   9.316   2.774
65539W        W30700  14.768  32.556  14.270
65540W        W30701  20.814  21.421  12.001
65541W        W30702   9.686  17.319   2.247
65542W        W30703   0.217  40.977   2.478
65543W        W30704  43.908  39.505   0.573
65544W        W30705  39.759   2.385  13.813
65545W        W30706  27.727   3.212  11.142
65546W        W30707   6.264  39.123  14.916
65547W        W30708  24.689  42.893   0.457
65548W        W30709  21.019   2.933   4.831
65549W        W30710  16.110  36.195  12.241
65550W        W30711   2.742   2.451  13.837
65551W        W30712  22.959   8.420  11.387
65552W        W30713  44.507   2.806  14.785
65553W        W30714  36.878  25.681  14.382
65554W        W30715  21.136   5.187  11.284
65555W        W30716   8.762  16.811   1.395
65556W        W30717  16.216   7.807  14.510
65557W        W30718  18.153   5.567  11.507
65558W        W30719  25.547  34.381   3.570
65559W        W30720  32.952  30.553   0.614
65560W        W30721  25.798  19.290   2.885
65561W        W30722  24.089   2.912   5.032
65562W        W30723  19.207  13.307  13.473
65563W        W30724  12.732  18.527   3.091
65564W        W30725  16.803  39.343  10.744
65565W        W30726   6.431   2.929   4.429
65566W        W30727  27.228  31.341  13.459
65567W        W30728   8.113  19.449   5.162
65568W        W30729  31.780  18.531   4.151
65569W        W30730  12.924  19.037   3.625
65570W        W30731  31.072  29.518   2.278
65571W        W30732   3.058  33.861  14.750
65572W        W30733  30.196  20.602   4.257
65573W        W30734  27.225  17.254   2.938
65574W        W30735  27.985  17.276   3.248
65575W        W30736  16.570  23.211   1.704
65576W        W30737  44.934  25.051   2.129
65577W        W30738  21.914  41.640   2.649
65578W        W30739   5.194  29.555   4.986
65579W        W30740   7.961   5.950   0.842
65580W        W30741  36.973   0.543  12.800
65581W        W30742   4.204  35.025   4.731
65582W        W30743  22.211   0.941  13.471
65583W        W30744   3.714  20.785   4.236
65584W        W30745  36.008   0.786  11.820
65585W        W30746  36.387  21.613   4.701
65586W        W30747  44.881  29.401  13.610
65587W        W30748  37.142  21.250  13.296
65588W        W30749  11.602  37.962  10.016
65589W        W30750  43.875   0.822  11.637
65590W        W30751  41.861  18.692  10.928
65591W        W30752   9.384  25.729  14.823
65592W        W30753  36.819   1.792  10.492
65593W        W30754  18.689  25.599  14.800
65594W        W30755  40.528  20.923  13.376
65595W        W30756  10.418  37.084   3.649
65596W        W30757  38.780  12.223  12.084
65597W        W30758   9.352   9.114   2.381
65598W        W30759   9.719  25.707  10.319
65599W        W30760  18.617  30.562  13.806
65600W        W30761  14.990   9.878  12.491
65601W        W30762  31.837  30.719  14.365
65602W        W30763  35.482  34.632  13.442
65603W        W30764  11.755   2.166  12.484
65604W        W30765  39.240   3.415  10.766
65605W        W30766  22.880  20.256   2.496
65606W        W30767  15.225  38.701   2.023
65607W        W30768  14.093  38.319   0.667
65608W        W30769  30.072  22.710   1.551
65609W        W30770  39.741  31.584  12.376
65610W        W30771  32.547  33.990   2.692
65611W        W30772  19.522   8.078   1.499
65612W        W30773  12.089  19.289   4.564
65613W        W30774  38.598  29.261   3.768
65614W        W30775  10.155  30.043   0.661
65615W        W30776  44.863   7.206   1.898
65616W        W30777  44.913  13.065  14.051
65617W        W30778   6.295  38.403  14.103
65618W        W30779  19.303  28.282  11.181
65619W        W30780  15.285  31.872   1.997
65620W        W30781  34.937   0.514  12.096
65621W        W30782   9.714  34.362  12.112
65622W        W30783  36.744  16.647   2.721
65623W        W30784  20.529  10.588  11.686
65624W        W30785   9.429  27.257   3.617
65625W        W30786  33.077  15.805   3.204
65626W        W30787  41.168  24.330  14.856
65627W        W30788   9.161  23.034  12.890
65628W        W30789  37.545  12.092  13.119
65629W        W30790  36.100   0.392   3.353
65630W        W30791  10.850  36.053  11.886
65631W        W30792  35.420   1.265  12.365
65632W        W30793  17.342   5.698  11.107
65633W        W30794   5.130   2.061   1.982
65634W        W30795  16.560  42.348  14.244
65635W        W30796  18.750  12.972  13.489
65636W        W30797  22.786  20.536   1.215
65637W        W30798  26.696   6.189  13.280
65638W        W30799   1.383  43.779   2.316
65639W        W30800  44.493  30.683   2.605
65640W        W30801   0.362  16.175   1.836
65641W        W30802  13.588   8.523   4.683
65642W        W30803  41.910  42.379  13.515
65643W        W30804  26.538  32.395   0.375
65644W        W30805  13.449  34.209   0.932
65645W        W30806  42.816  16.798   5.081
65646W        W30807   5.850  39.542   0.453
65647W        W30808   2.873  23.135   1.722
65648W        W30809  13.739  43.202   2.342
65649W        W30810  15.862  39.056  13.338
65650W        W30811  42.229  37.314  14.062
65651W        W30812  41.342  29.729   1.969
65652W        W30813  29.164  33.998  14.326
65653W        W30814  27.067  27.724   4.102
65654W        W30815  42.575  30.179   2.677
65655W        W30816  34.474  28.494   2.158
65656W        W30817  39.986   1.167   3.159
65657W        W30818  18.974  30.297  11.356
65658W        W30819  39.826  42.821   4.878
65659W        W30820   4.502  18.713   4.510
65660W        W30821  24.801  15.734  12.894
65661W        W30822  12.314   7.292   1.930
65662W        W30823  29.755  39.372  12.195
65663W        W30824   1.305  39.431   1.019
65664W        W30825  20.897  21.752  11.064
65665W        W30826  33.300  30.398   1.873
65666W        W30827  25.441  23.016   2.738
65667W        W30828  31.083   9.901   0.414
65668W        W30829  10.842   7.145   3.258
65669W        W30830  15.678   6.027  10.490
65670W        W30831   0.314  27.482  12.665
65671W        W30832  27.976  20.172   4.615
65672W        W30833  38.264  14.468   3.162
65673W        W30834  41.994  26.688   1.263
65674W        W30835  11.208   9.195   4.798
65675W        W30836  37.252  23.947   2.812
65676W        W30837  15.154  22.809   2.362
65677W        W30838   6.289  21.706   1.748
65678W        W30839  34.845  28.104  13.623
65679W        W30840  36.612   9.909  11.701
65680W        W30841   9.668  37.450   5.190
65681W        W30842  42.037   7.808   3.216
65682W        W30843   9.321  33.945   1.149
65683W        W30844  17.991  15.485   1.735
65684W        W30845  31.931  19.552  13.985
65685W        W30846  43.831  34.401  13.580
65686W        W30847  36.357   8.966  10.913
65687W        W30848  15.707   8.950   1.691
65688W        W30849  25.711  26.476  11.605
65689W        W30850  17.019  24.153  13.367
65690W        W30851  11.896  17.227  10.725
65691W        W30852  29.083   6.840  11.234
65692W        W30853  11.846  10.600   1.712
65693W        W30854   0.765  13.582  12.162
65694W        W30855  24.751  25.561   1.901
65695W        W30856  11.251  37.816   3.417
65696W        W30857   3.200  10.946  13.417
65697W        W30858  27.889  22.112  13.020
65698W        W30859   1.931   9.765   3.705
65699W        W30860   9.768  30.518  14.445
65700W        W30861  41.544   1.230   0.522
65701W        W30862  10.207  35.337   3.212
65702W        W30863   9.374  11.853  14.750
65703W        W30864  37.637   5.660  13.260
65704W        W30865  12.092  31.709  11.609
65705W        W30866   5.352  44.352  14.823
65706W        W30867  27.179  20.940   0.614
65707W        W30868  24.236  43.274   2.900
65708W        W30869  43.537   2.315  11.022
65709W        W30870  24.526  22.027  12.084
65710W        W30871  32.537   9.719  11.668
65711W        W30872  19.690  39.422   4.501
65712W        W30873  44.172  31.976  10.666
65713W        W30874   2.681   7.724   3.785
65714W        W30875  28.590  20.293  14.039
65715W        W30876  35.566  41.506  14.896
65716W        W30877   3.059   5.306   2.999
65717W        W30878  17.075  35.627   3.681
65718W        W30879   6.230  25.683  12.096
65719W        W30880  44.594  23.226  14.270
65720W        W30881  28.052   6.465   2.729
65721W        W30882   3.308  36.513  10.627
65722W        W30883  24.763  42.436   0.217
65723W        W30884  42.088  35.955   1.028
65724W        W30885  29.932   3.863  12.100
65725W        W30886   9.903  20.191  12.303
65726W        W30887  13.226   3.521  11.038
65727W        W30888   4.284   3.519  11.063
65728W        W30889  36.991  38.089  13.056
65729W        W30890  38.641  19.923   1.389
65730W        W30891   4.131  32.973   0.486
65731W        W30892  38.968  35.652   0.752
65732W        W30893  28.079   4.260  14.923
65733W        W30894   2.924  44.439   3.573
65734W        W30895   8.812   5.348  10.660
65735W        W30896   9.240   8.423  13.117
65736W        W30897  21.711  28.032   4.392
65737W        W30898   0.198  30.716  14.000
65738W        W30899   7.222   2.480  10.739
65739W        W30900  41.828  20.538  13.393
65740W        W30901   0.308   1.396   1.867
65741W        W30902  38.050  39.966   0.374
65742W        W30903  11.654   5.400  13.059
65743W        W30904  23.394  20.274  14.770
65744W        W30905  30.225  36.918  11.995
65745W        W30906   3.386   6.245  10.639
65746W        W30907  17.697  35.722  11.971
65747W        W30908   3.255  21.547   1.166
65748W        W30909  22.326  25.278  13.024
65749W        W30910  31.525  29.997  10.695
65750W        W30911  20.210   1.391  10.425
65751W        W30912  21.449  44.935   2.772
65752W        W30913  19.041  15.296  14.803
65753W        W30914  40.683   8.139  13.172
65754W        W30915  31.219  38.153  12.961
65755W        W30916  37.427  44.516  13.486
65756W        W30917  17.097   6.242   2.429
65757W        W30918   6.581  30.093  13.995
65758W        W30919  31.955  39.507  14.062
65759W        W30920  44.882  22.443   0.897
65760W        W30921  30.869  40.924  12.415
65761W        W30922  38.790  27.274  12.058
65762W        W30923  35.403  39.908  13.013
65763W        W30924  33.796  18.278  13.146
65764W        W30925  17.758  21.219  10.788
65765W        W30926  23.099  14.341  14.881
65766W        W30927  18.186   2.151   2.297
65767W        W30928  27.212   1.339  12.805
65768W        W30929  39.327  33.189   3.234
65769W        W30930   3.248   8.918  12.810
65770W        W30931   1.212   1.200  13.334
65771W        W30932  13.659  28.934   2.866
65772W        W30933  42.812   1.301   2.751
65773W        W30934  37.179  41.871   3.660
65774W        W30935  41.961  38.924  13.329
65775W        W30936  36.280  22.477  12.569
65776W        W30937  21.287  21.462   4.290
65777W        W30938  29.679   2.452   2.681
65778W        W30939   8.417  44.972   1.989
65779W        W30940  28.484  38.902   2.367
65780W        W30941  28.525  25.099   2.541
65781W        W30942   0.703  29.883  14.000
65782W        W30943  13.713  37.904   1.144
65783W        W30944  32.825   7.850  13.475
65784W        W30945   6.708  23.691  11.915
65785W        W30946  18.217  13.110  10.746
65786W        W30947  10.363  37.606   0.864
65787W        W30948  33.114  37.071   0.370
65788W        W30949   6.924   3.483   1.182
65789W        W30950   8.274   0.338  10.469
65790W        W30951  39.368  17.028   3.050
65791W        W30952  29.453   6.840  14.888
65792W        W30953   7.937  29.484   1.818
65793W        W30954  39.376  16.560  14.850
65794W        W30955  11.409   4.927   1.066
65795W        W30956  22.245  25.198  13.920
65796W        W30957  29.617   5.375   3.142
65797W        W30958  30.499  34.077  13.606
65798W        W30959  43.795  19.141   3.270
65799W        W30960  25.715   1.007   1.300
65800W        W30961  33.441  19.768   2.298
65801W        W30962  30.518  17.060   2.154
65802W        W30963  42.674  38.458   4.175
65803W        W30964  27.945  19.537   3.647
65804W        W30965  11.998  40.284  10.088
65805W        W30966   7.442   2.353   3.933
65806W        W30967  38.287  14.673   2.677
65807W        W30968  13.347  35.547   1.637
65808W        W30969  18.416  19.633   0.241
65809W        W30970   2.834  28.260  13.893
65810W        W30971  10.436  26.860  13.217
65811W        W30972  17.726  29.434  12.882
65812W        W30973   4.956  23.724   4.171
65813W        W30974  39.883  24.908   0.738
65814W        W30975  24.179  15.688   0.246
65815W        W30976  34.319  35.810   3.263
65816W        W30977  25.840  44.001   1.189
65817W        W30978  14.795  42.918   1.956
65818W        W30979  37.374  15.066   3.653
65819W        W30980  22.002  13.657  13.074
65820W        W30981   6.449  19.119  14.879
65821W        W30982  27.547   8.390  10.840
65822W        W30983  43.699   8.961  14.973
65823W        W30984  14.301  18.625   5.067
65824W        W30985  27.148  22.992  12.438
65825W        W30986  44.980  18.820  12.094
65826W        W30987  13.269   7.740  13.291
65827W        W30988  24.347  12.127  14.731
65828W        W30989   4.219   1.282  10.634
65829W        W30990  11.843  29.609  13.335
65830W        W30991  37.431  36.724   2.153
65831W        W30992   2.263  35.003  12.621
65832W        W30993  44.839  21.785  12.093
65833W        W30994   4.146   1.228   2.861
65834W        W30995  30.481  17.193  10.742
65835W        W30996  23.834  20.909  12.079
65836W        W30997  26.579  41.850  14.091
65837W        W30998  15.976  13.767   1.376
65838W        W30999  42.011  42.902   1.394
65839W        W31000  23.005  15.854   0.481
65840W        W31001  40.271  27.336  14.368
65841W        W31002  13.931  16.811   1.847
65842W        W31003   0.519  11.199  14.888
65843W        W31004  31.188   6.605   3.164
65844W        W31005   4.926  22.249  11.221
65845W        W31006  42.515   4.446  10.762
65846W        W31007   4.352   0.210   2.269
65847W        W31008  30.576   9.601  14.729
65848W        W31009   9.230  19.286   4.317
65849W        W31010  40.877  37.843   1.444
65850W        W31011  14.921   3.445   0.461
65851W        W31012  30.920  44.537   2.585
65852W        W31013  39.727   1.048   3.635
65853W        W31014  34.508  32.415   1.788
65854W        W31015  14.049   7.931  12.098
65855W        W31016  28.322  34.628   1.937
65856W        W31017  34.564  28.707   3.200
65857W        W31018  14.827  34.433   4.672
65858W        W31019  42.301   9.322  12.805
65859W        W31020  33.997  29.795   1.212
65860W        W31021  41.965   8.121   2.307
65861W        W31022  39.023  21.297   1.282
65862W        W31023   0.923  38.375   3.588
65863W        W31024  14.083  19.521  11.659
65864W        W31025   9.488  34.550   4.740
65865W        W31026  17.873  39.998   2.857
65866W        W31027  41.050   4.362  13.069
65867W        W31028  16.139   3.172   3.602
65868W        W31029  33.313  30.724   2.711
65869W        W31030   1.217  26.935  11.140
65870W        W31031  38.594  38.087   1.339
65871W        W31032  40.676  44.861  13.472
65872W        W31033   9.746  16.209  11.284
65873W        W31034  21.049  37.791  13.485
65874W        W31035  18.724  35.435  12.776
65875W        W31036  26.518  27.435  11.912
65876W        W31037   4.353  40.853  13.540
65877W        W31038   8.884  24.605   4.902
65878W        W31039  37.820  37.371  10.857
65879W        W31040   1.621  44.741  12.528
65880W        W31041  28.855  29.874   1.387
65881W        W31042   8.640   9.262  11.158
65882W        W31043   0.975  41.900  10.967
65883W        W31044   0.850   9.246   2.390
65884W        W31045  41.633  42.371   3.518
65885W        W31046  12.396  15.117   3.592
65886W        W31047  19.132  33.031   2.745
65887W        W31048  12.730  44.622   2.294
65888W        W31049  17.101  17.779  11.523
65889W        W31050  29.357  31.420  13.790
65890W        W31051  10.840  34.579   2.980
65891W        W31052  12.092  30.432  12.966
65892W        W31053  38.413  33.394   0.893
65893W        W31054  23.759  12.920  12.577
65894W        W31055   5.844  28.151   0.129
65895W        W31056  28.786   9.021  11.090
65896W        W31057   3.484  38.063  14.540
65897W        W31058  31.980   5.697   2.741
65898W        W31059  44.404  34.033  12.375
65899W        W31060  23.780  28.675   3.918
65900W        W31061  21.222  31.390   2.081
65901W        W31062  14.526   4.505   3.592
65902W        W31063   6.879  32.381  12.007
65903W        W31064  17.743  23.690   4.627
65904W        W31065   4.890  44.645  11.092
65905W        W31066  34.371  21.016   0.318
65906W        W31067  17.872   7.233  11.994
65907W        W31068  33.119  16.369  13.256
65908W        W31069  39.222  31.559  12.435
65909W        W31070  42.368  31.819  11.126
65910W        W31071  13.393   1.246  11.644
65911W        W31072  18.733  39.043   2.483
65912W        W31073  35.476  17.719  11.972
65913W        W31074  43.689  17.123   0.358
65914W        W31075  40.572  36.842  14.920
65915W        W31076  19.064  33.846  10.674
65916W        W31077  22.251  27.705   3.597
65917W        W31078   0.332  29.729  12.020
65918W        W31079   2.347  32.472  12.479
65919W        W31080  28.860  21.529  11.945
65920W        W31081  26.754  10.200  12.698
65921W        W31082  14.374  14.102   3.978
65922W        W31083  21.080  30.557  12.260
65923W        W31084   7.973  23.734   2.239
65924W        W31085  12.158   7.321  14.524
65925W        W31086  26.962  25.132   4.087
65926W        W31087   2.766  38.949   3.143
65927W        W31088  17.069  28.692  10.649
65928W        W31089  33.219  44.517  12.925
65929W        W31090  24.521  23.259  14.959
65930W        W31091  42.002  39.298   4.561
65931W        W31092  24.058  21.019  12.526
65932W        W31093  36.358  20.952   4.713
65933W        W31094  22.995   4.329  13.713
65934W        W31095  31.508  15.052   1.419
65935W        W31096  41.893  13.899   2.939
65936W        W31097   7.220  41.393  14.395
65937W        W31098  35.888  24.548   2.637
65938W        W31099   8.752  23.999  11.603
65939W        W31100  30.067  22.224  10.740
65940W        W31101  38.210  10.190   2.205
65941W        W31102   6.273   8.032  12.670
65942W        W31103   1.370  41.357   0.523
65943W        W31104  35.382  35.642  11.973
65944W        W31105   2.047  42.762   2.279
65945W        W31106  29.723  32.511  11.172
65946W        W31107  32.266  33.446   2.727
65947W        W31108  15.063   1.256  14.839
65948W        W31109  35.508   1.971   3.656
65949W        W31110  19.302   4.264  11.602
65950W        W31111   5.736  19.473  11.669
65951W        W31112   4.670  42.412   4.132
65952W        W31113  16.757   2.198   4.326
65953W        W31114  10.340  41.914  12.783
65954W        W31115  18.341  30.355   1.388
65955W        W31116  36.921  21.710  11.445
65956W        W31117  38.780  21.643   4.352
65957W        W31118  11.190  24.594  10.718
65958W        W31119  23.072  22.529  12.516
65959W        W31120  42.247  17.129   0.514
65960W        W31121  14.451  34.004   1.805
65961W        W31122  22.969  18.469   4.053
65962W        W31123  15.565  32.505   0.546
65963W        W31124   0.273  43.337   1.813
65964W        W31125  19.040  15.629  13.589
65965W        W31126  34.380  28.197   3.325
65966W        W31127  15.895  12.731   3.741
65967W        W31128  30.743  19.287  13.028
65968W        W31129  11.623  27.856   4.365
65969W        W31130  34.410  29.318  13.539
65970W        W31131  16.560   7.026  13.312
65971W        W31132  18.543  10.264   2.722
65972W        W31133  25.632  12.826   1.177
65973W        W31134  16.921  11.643  12.057
65974W        W31135   7.273   8.212   0.580
65975W        W31136  29.314   9.184   3.777
65976W        W31137   1.548  37.382   2.564
65977W        W31138  22.752  36.420   0.843
65978W        W31139   5.020   6.280  11.190
65979W        W31140  20.957  23.084  13.507
65980W        W31141   7.023  44.844  10.662
65981W        W31142   9.862  44.031  10.723
65982W        W31143  12.756  24.624   2.171
65983W        W31144  35.616  24.185   0.430
65984W        W31145   8.287  20.177  11.742
65985W        W31146  19.253   8.714  13.424
65986W        W31147  19.753  29.500  12.294
65987W        W31148  27.071  38.382  13.364
65988W        W31149   2.780  16.132   3.583
65989W        W31150  18.652  21.862   2.764
65990W        W31151  21.286   2.910  14.926
65991W        W31152   4.068   1.749   0.616
65992W        W31153  33.032  34.257   0.849
65993W        W31154  16.878   1.984   2.344
65994W        W31155  41.159  21.871   3.844
65995W        W31156  21.567  31.355  10.738
65996W        W31157   8.257  41.784   3.845
65997W        W31158  42.608  11.959  11.081
65998W        W31159  25.207   9.736   4.170
65999W        W31160  39.848  44.814  13.268
66000W        W31161  37.856   9.156   4.579
66001W        W31162   5.018  44.935  10.642
66002W        W31163  33.133   4.697   3.343
66003W        W31164  43.633  21.011   0.823
66004W        W31165  25.258   5.193   4.092
66005W        W31166  10.974  12.644   4.025
66006W        W31167  43.093  23.511   4.595
66007W        W31168  35.620   7.562   2.721
66008W        W31169  43.364  38.770   3.820
66009W        W31170  13.178  14.882  11.636
66010W        W31171  40.553  26.896  14.524
66011W        W31172  30.044  26.091   1.871
66012W        W31173   1.344  41.793  14.224
66013W        W31174  10.324  13.657  12.777
66014W        W31175  37.266   2.373   2.057
66015W        W31176   4.219   0.802   1.337
66016W        W31177  10.813  36.940  13.779
66017W        W31178  13.217  31.044  10.739
66018W        W31179   4.263  10.286   3.366
66019W        W31180  40.329   2.930   0.238
66020W        W31181  11.080  26.664  13.779
66021W        W31182  32.144  15.132  14.068
66022W        W31183  27.898   7.334   2.198
66023W        W31184   5.704  17.271  12.943
66024W        W31185  38.826  27.042   0.801
66025W        W31186   0.988   4.952  13.760
66026W        W31187  37.091  26.584   2.375
66027W        W31188  41.445   2.650   1.451
66028W        W31189  19.508   3.419   4.041
66029W        W31190  40.977  10.897  13.347
66030W        W31191  15.213  38.957  10.568
66031W        W31192  35.870  44.756  11.043
66032W        W31193   2.753  12.236  12.529
66033W        W31194  23.163   1.455  14.336
66034W        W31195  30.084   2.271  14.911
66035W        W31196  11.361  38.000  14.146
66036W        W31197  30.862   1.324   4.594
66037W        W31198   8.760  13.799  10.452
66038W        W31199  30.468  13.062  10.589
66039W        W31200  33.860  25.350  12.049
66040W        W31201  10.545  32.083  13.061
66041W        W31202  11.662  13.187  11.673
66042W        W31203  11.560   1.417  13.132
66043W        W31204  12.892  31.534  13.771
66044W        W31205   9.727  28.661  10.754
66045W        W31206  42.078  19.377  14.986
66046W        W31207  29.447  19.512  12.555
66047W        W31208  12.125  25.400   1.475
66048W        W31209  15.330   6.587   4.946
66049W        W31210  19.301  10.214   3.341
66050W        W31211  10.137  23.215   0.845
66051W        W31212   7.948   8.672  12.885
66052W        W31213  29.834  43.009  11.071
66053W        W31214  35.885  10.490   2.445
66054W        W31215  39.731  37.502  10.669
66055W        W31216  38.869  13.082  11.110
66056W        W31217  12.518  23.521   2.252
66057W        W31218  28.039  10.465   2.717
66058W        W31219  10.092   6.138  10.968
66059W        W31220  18.853  13.236   4.142
66060W        W31221  16.740  38.317   0.673
66061W        W31222  21.079  18.704  12.008
66062W        W31223  15.162  11.688  10.444
66063W        W31224  21.001   3.420  10.664
66064W        W31225   7.785   1.026  12.549
66065W        W31226   4.293  19.595   4.509
66066W        W31227  34.690   2.677  14.371
66067W        W31228   9.795  10.146  13.995
66068W        W31229  31.638  11.822  14.886
66069W        W31230  16.692  21.750  11.642
66070W        W31231  11.418   4.956   1.802
66071W        W31232  15.724  26.411   2.223
66072W        W31233   9.145  42.206   0.800
66073W        W31234  37.349   6.924   4.256
66074W        W31235  24.800  10.603  13.892
66075W        W31236  38.012  18.285   1.146
66076W        W31237  28.007  16.435   4.614
66077W        W31238  12.970  20.949   2.284
66078W        W31239  43.385  27.388  14.483
66079W        W31240  10.455  33.811  12.556
66080W        W31241   9.135  43.161  11.986
66081W        W31242  39.801   3.408   3.993
66082W        W31243   1.375  25.766  13.071
66083W        W31244  41.445  21.107   1.316
66084W        W31245   8.272  11.079  11.902
66085W        W31246  15.643  17.610  10.583
66086W        W31247  37.599  38.850  11.087
66087W        W31248  26.118  25.094   2.341
66088W        W31249  28.647  13.654   1.333
66089W        W31250  36.441   4.001  14.424
66090W        W31251   4.858  40.089  10.335
66091W        W31252  36.811  16.788   1.749
66092W        W31253   2.032  22.645   0.365
66093W        W31254  30.606  18.514   1.861
66094W        W31255  29.374  37.830   3.146
66095W        W31256  10.486  17.097  14.974
66096W        W31257  25.340  17.242   1.470
66097W        W31258   2.623   8.945  14.371
66098W        W31259  27.498  41.989  13.621
66099W        W31260   2.894  26.905   1.755
66100W        W31261   0.117  41.391  14.421
66101W        W31262   1.673  17.641   5.535
66102W        W31263  42.964   7.221   1.815
66103W        W31264  19.181   4.928   3.679
66104W        W31265  28.670   6.819   1.419
66105W        W31266   3.839  39.781   3.408
66106W        W31267  26.039  33.089  13.752
66107W        W31268   3.416  24.827   4.485
66108W        W31269  20.614   4.913  10.987
66109W        W31270  39.980  44.251  12.448
66110W        W31271  18.791  15.189  13.444
66111W        W31272  44.009  37.649   3.897
66112W        W31273  32.728  18.587  12.443
66113W        W31274  33.085  28.128  12.543
66114W        W31275  34.381  37.433   4.814
66115W        W31276  17.776  11.827   3.170
66116W        W31277  14.546  37.150   1.876
66117W        W31278  17.094  36.830   2.381
66118W        W31279   0.303  37.190  10.709
66119W        W31280  22.760  20.273  14.080
66120W        W31281  41.457  24.503  10.612
66121W        W31282  26.532  33.776   4.120
66122W        W31283  44.757   3.316   4.055
66123W        W31284  28.616  36.570  12.406
66124W        W31285   3.343   1.435  10.894
66125W        W31286  13.256   7.805   2.765
66126W        W31287  10.844  25.949  11.984
66127W        W31288   6.224   3.258   1.880
66128W        W31289  37.144  14.375  12.527
66129W        W31290   4.858  29.681   0.232
66130W        W31291  33.638  12.154  14.490
66131W        W31292  16.072  37.899   3.496
66132W        W31293  19.282  31.893  13.058
66133W        W31294  27.159  12.760  14.710
66134W        W31295   4.168   9.171   4.592
66135W        W31296  23.867  43.128   0.871
66136W        W31297  11.076   9.662   3.310
66137W        W31298   7.900   8.148  14.415
66138W        W31299  12.282  34.334   1.363
66139W        W31300  24.484   0.706  10.965
66140W        W31301  19.597   4.426  10.996
66141W        W31302  31.379  19.023  10.640
66142W        W31303  29.874  38.338   0.909
66143W        W31304  14.599  35.056  14.748
66144W        W31305  29.114  35.395  10.719
66145W        W31306   9.140  29.572   0.399
66146W        W31307  13.826   8.403  12.094
66147W        W31308  36.364   9.093  14.649
66148W        W31309   7.910  37.973  13.926
66149W        W31310  39.476  27.669   4.514
66150W        W31311  38.088  28.400   0.555
66151W        W31312  29.533  44.969  10.672
66152W        W31313  44.459  31.444  14.312
66153W        W31314  18.827  40.404  14.603
66154W        W31315  20.265  25.493   4.183
66155W        W31316  34.122  13.773   0.008
66156W        W31317   0.016  39.585   4.048
66157W        W31318  14.820  13.722  11.587
66158W        W31319   1.003  29.972  13.611
66159W        W31320  19.683  12.163  14.428
66160W        W31321  41.770   4.487  11.204
66161W        W31322  39.408  22.474   4.145
66162W        W31323  35.305  19.376   2.434
66163W        W31324   0.014  22.574  13.776
66164W        W31325  23.234  37.830  12.961
66165W        W31326  12.319  37.516   4.599
66166W        W31327  35.967  18.121   0.689
66167W        W31328  13.630  26.527   3.182
66168W        W31329   4.546  21.174   1.354
66169W        W31330   4.854   4.784   2.132
66170W        W31331  32.000  13.465  12.847
66171W        W31332   6.990  31.889  11.908
66172W        W31333  23.569  37.095  11.630
66173W        W31334  19.256  37.591  12.904
66174W        W31335  25.709  11.178   1.277
66175W        W31336   1.064  30.461   4.069
66176W        W31337  15.472  43.812  10.722
66177W        W31338   9.693   4.339  12.205
66178W        W31339  10.785  24.946  13.002
66179W        W31340  10.225   0.980  13.985
66180W        W31341  36.013  39.504  14.441
66181W        W31342  28.223  25.569  11.967
66182W        W31343  15.537  14.698  10.368
66183W        W31344   9.312  21.976  13.811
66184W        W31345  10.309  29.430   3.168
66185W        W31346   3.725  11.203   3.735
66186W        W31347   6.023   6.925  10.338
66187W        W31348  13.819  14.516  14.000
66188W        W31349   5.397  23.971  11.422
66189W        W31350  21.783  10.229  11.914
66190W        W31351  29.150  32.691  11.090
66191W        W31352  35.324   8.852   3.734
66192W        W31353  11.930   7.185  11.472
66193W        W31354  28.154  26.112  14.031
66194W        W31355  17.697  24.706  12.528
66195W        W31356  31.051  25.043   4.832
66196W        W31357  27.471  44.080  13.036
66197W        W31358  20.506  19.563   3.286
66198W        W31359   9.584  20.231   0.994
66199W        W31360   1.232  23.712   1.854
66200W        W31361   5.758  34.646   1.796
66201W        W31362  23.936  40.226   1.830
66202W        W31363  40.419  24.419   1.722
66203W        W31364  14.028  22.237   1.794
66204W        W31365  40.436  33.981   4.701
66205W        W31366  30.493  22.090   3.854
66206W        W31367  30.594  28.418   4.701
66207W        W31368  23.698  23.919  14.717
66208W        W31369  32.271  20.663   3.092
66209W        W31370  18.824   1.376   3.752
66210W        W31371  21.258  42.826   2.436
66211W        W31372  40.647  29.925  12.021
66212W        W31373  32.303  10.700  13.416
66213W        W31374  35.867  38.024   2.733
66214W        W31375  21.042  25.108   4.303
66215W        W31376  28.855   1.374   3.709
66216W        W31377  26.492   5.910   0.985
66217W        W31378  31.071  30.748   4.477
66218W        W31379  30.203  18.326  11.465
66219W        W31380  19.751  29.983  14.077
66220W        W31381  16.206  16.354   3.641
66221W        W31382  10.829   1.716  12.537
66222W        W31383   1.500  43.920  13.618
66223W        W31384  35.708  32.968  14.938
66224W        W31385  34.532  17.470  13.974
66225W        W31386  24.019   4.423  12.563
66226W        W31387  11.775   1.968  12.002
66227W        W31388  15.243  31.404   1.764
66228W        W31389  13.620  32.555  12.189
66229W        W31390  39.723  24.410   0.785
66230W        W31391  15.143  19.840   0.676
66231W        W31392  41.742  31.566  14.391
66232W        W31393  30.470   3.762  13.454
66233W        W31394  25.047   4.505   2.683
66234W        W31395  19.072   0.518   4.177
66235W        W31396  39.765  40.742   0.894
66236W        W31397   0.618  10.869  14.043
66237W        W31398  15.211  19.298  14.342
66238W        W31399  24.483  27.834  12.556
66239W        W31400  16.372   4.894   1.002
66240W        W31401  44.081  33.478  14.867
66241W        W31402  22.694  29.387   4.126
66242W        W31403  36.429  31.136  11.470
66243W        W31404  27.240  15.651  14.928
66244W        W31405  12.373  39.415   0.388
66245W        W31406  11.591  13.297   2.929
66246W        W31407  10.309   1.444  14.968
66247W        W31408  37.882  13.635   4.286
66248W        W31409  39.345  14.289   3.648
66249W        W31410  30.446  36.521   1.899
66250W        W31411  13.101   2.089   1.364
66251W        W31412  36.642   2.111  11.662
66252W        W31413  17.228  39.564  13.839
66253W        W31414  13.752  27.561   0.246
66254W        W31415  17.356  29.148  12.199
66255W        W31416  24.919  22.950  14.742
66256W        W31417   5.433  27.715  12.083
66257W        W31418  34.246  44.462  14.306
66258W        W31419  37.545  12.300   4.863
66259W        W31420  21.178  42.114  14.774
66260W        W31421  27.997   9.102  10.832
66261W        W31422  26.466  26.398   0.974
66262W        W31423  38.102  16.638  12.824
66263W        W31424  36.547  10.993   2.171
66264W        W31425  35.022  14.688   3.194
66265W        W31426  38.955  41.611  11.242
66266W        W31427  16.829  10.428   1.804
66267W        W31428  14.095  23.944   4.016
66268W        W31429   6.409  26.774   2.863
66269W        W31430  42.597  19.044  12.029
66270W        W31431  40.855  30.389   1.265
66271W        W31432   3.698  43.763   2.804
66272W        W31433  16.877  36.435  13.552
66273W        W31434  22.019  35.386  12.578
66274W        W31435   9.626  38.868   2.826
66275W        W31436  41.476  12.814  12.034
66276W        W31437  18.194  12.700  12.080
66277W        W31438  19.818  37.366  10.661
66278W        W31439  22.089   6.982  14.349
66279W        W31440  17.033  29.467   0.977
66280W        W31441  20.681  18.736   3.864
66281W        W31442   7.250  10.936  11.059
66282W        W31443  25.329  19.528  10.106
66283W        W31444  14.119   5.632  11.555
66284W        W31445   8.887  17.634  12.971
66285W        W31446  26.480  26.313   1.658
66286W        W31447  21.489   5.819  14.893
66287W        W31448  10.815  20.193  12.218
66288W        W31449   0.893  19.808  12.115
66289W        W31450  32.430  39.413  13.858
66290W        W31451  13.840  35.085  13.369
66291W        W31452   3.725  20.741   3.351
66292W        W31453   1.967  15.155  10.807
66293W        W31454  29.562   7.423   3.112
66294W        W31455  12.679  12.133   0.396
66295W        W31456  44.426  27.152   2.341
66296W        W31457  11.086   3.041  11.880
66297W        W31458  24.164  29.763   2.400
66298W        W31459  19.435  14.954   3.106
66299W        W31460  23.690   5.463  14.832
66300W        W31461  19.241   3.196   3.311
66301W        W31462   1.730   7.154   4.587
66302W        W31463  40.555  31.983   0.955
66303W        W31464  33.436  21.217  14.973
66304W        W31465   8.808  33.947   2.407
66305W        W31466  37.177  25.715   1.523
66306W        W31467  43.546   6.047   4.145
66307W        W31468  38.359  19.862   1.826
66308W        W31469  39.813  39.357  12.506
66309W        W31470  18.751  10.424   2.231
66310W        W31471  18.607   7.287   2.893
66311W        W31472  39.135  12.047   0.025
66312W        W31473  10.738  22.209   1.162
66313W        W31474   3.557  19.403   4.010
66314W        W31475  37.539  42.338  12.054
66315W        W31476  40.941  28.070   3.409
66316W        W31477  36.347  39.133  14.838
66317W        W31478  41.321  40.464   0.852
66318W        W31479  23.979   7.875   3.836
66319W        W31480   9.135   2.553   4.285
66320W        W31481  25.382   1.760  12.948
66321W        W31482  13.305   9.587   0.423
66322W        W31483  41.413  40.259  10.650
66323W        W31484  32.530   7.916  14.452
66324W        W31485  39.087  27.041   3.991
66325W        W31486  34.562  22.780  14.043
66326W        W31487  41.993  11.691  11.647
66327W        W31488  37.960  30.470  10.759
66328W        W31489  33.544   7.935   2.264
66329W        W31490  37.569  16.284  11.558
66330W        W31491  25.945   0.897   3.765
66331W        W31492  11.311  43.258  13.886
66332W        W31493  31.525  27.614   4.675
66333W        W31494  35.019   4.909  11.243
66334W        W31495  20.320   6.412  10.663
66335W        W31496  26.531   7.628  12.978
66336W        W31497  43.486  12.811   4.429
66337W        W31498  20.603   7.634   4.126
66338W        W31499   5.894  21.891  14.657
66339W        W31500  21.592  21.506  11.656
66340W        W31501  44.960  27.433   2.814
66341W        W31502  37.435  29.366   3.401
66342W        W31503  29.918  30.235   2.673
66343W        W31504  25.717  32.639  11.201
66344W        W31505  39.941   7.914   1.867
66345W        W31506   6.394  29.792  10.712
66346W        W31507  24.114  18.366   2.654
66347W        W31508  40.269   6.191  10.503
66348W        W31509  12.964   3.365  14.677
66349W        W31510  28.025  20.747   2.625
66350W        W31511   6.971  18.813  11.208
66351W        W31512   2.413  34.556  11.427
66352W        W31513   1.768   0.636  12.605
66353W        W31514  12.880  29.962  13.161
66354W        W31515  31.389  44.268  14.055
66355W        W31516   5.183  22.634  13.360
66356W        W31517  44.050  24.722   2.907
66357W        W31518  35.912   9.862  14.743
66358W        W31519  21.016  11.610   2.904
66359W        W31520   3.850  30.688   2.064
66360W        W31521  26.487  14.051   4.089
66361W        W31522  24.838  30.745   2.746
66362W        W31523  39.032   5.305   4.651
66363W        W31524  17.202  37.883   3.319
66364W        W31525  20.104  27.179  11.130
66365W        W31526  35.175  14.618   1.885
66366W        W31527  14.208   3.780  11.325
66367W        W31528   3.967   5.596  11.590
66368W        W31529  18.600   6.779   2.885
66369W        W31530  10.913  11.861  12.496
66370W        W31531  43.798   2.757   3.683
66371W        W31532  10.850  20.765  10.952
66372W        W31533  23.311  11.774   3.710
66373W        W31534  35.025  17.587   3.130
66374W        W31535  37.850  20.725  14.731
66375W        W31536   3.065   7.219  14.428
66376W        W31537  14.783  33.011   1.840
66377W        W31538  20.697  39.428   1.839
66378W        W31539  32.178  35.651   3.349
66379W        W31540  35.396   0.901   2.739
66380W        W31541  22.634  26.784  12.157
66381W        W31542  19.608  36.374  13.524
66382W        W31543  22.239   6.891   3.814
66383W        W31544  41.358   6.876   2.700
66384W        W31545   5.257  42.501   2.149
66385W        W31546  30.959   9.363   1.135
66386W        W31547  12.172  19.626  10.703
66387W        W31548  25.468  16.385  10.199
66388W        W31549  10.362  27.843  12.881
66389W        W31550  17.313   2.958   4.669
66390W        W31551  39.788  13.620  13.974
66391W        W31552  16.777  32.601  11.655
66392W        W31553  10.573  33.318   0.217
66393W        W31554  16.723  23.445   2.608
66394W        W31555  11.426   0.837   3.327
66395W        W31556  35.485   3.329  11.403
66396W        W31557   7.139  22.653   2.435
66397W        W31558   9.769  37.571  12.811
66398W        W31559  30.026  34.215  13.421
66399W        W31560  36.509  43.952  12.353
66400W        W31561  32.490  17.537  13.305
66401W        W31562  12.782  22.680   1.375
66402W        W31563  17.007  19.451  11.135
66403W        W31564  24.904   9.659  11.734
66404W        W31565   0.429  23.174  10.808
66405W        W31566  40.870  29.651   1.718
66406W        W31567  18.756  25.130   1.276
66407W        W31568  30.229  18.802  13.804
66408W        W31569  36.038  25.051   3.390
66409W        W31570  38.558  14.835   4.046
66410W        W31571  38.077   9.632   4.522
66411W        W31572   4.846   4.122  12.053
66412W        W31573  26.697  23.659   1.497
66413W        W31574  17.753  36.508  11.618
66414W        W31575  39.429  12.553   4.655
66415W        W31576  16.246  35.301  13.030
66416W        W31577  16.821  27.899  10.317
66417W        W31578  16.090  22.329   0.874
66418W        W31579  38.766  31.924   5.202
66419W        W31580  38.195   2.185  14.828
66420W        W31581  18.122  15.522   2.227
66421W        W31582  10.732  19.562   1.472
66422W        W31583  14.183  24.089  13.088
66423W        W31584  18.323   2.391   4.369
66424W        W31585  21.025  18.232  11.743
66425W        W31586  12.098   1.333   4.148
66426W        W31587  30.053   0.733  12.922
66427W        W31588   7.045  12.788   1.235
66428W        W31589  20.036  28.417   2.842
66429W        W31590  35.353   8.930  13.565
66430W        W31591  29.092  32.013  12.456
66431W        W31592   3.004  41.319  11.230
66432W        W31593   8.469   5.789   2.682
66433W        W31594  38.270   7.704   3.649
66434W        W31595  15.350  37.488   4.975
66435W        W31596  12.595  32.776  12.986
66436W        W31597  18.067   4.128  11.673
66437W        W31598  36.663  25.106   1.673
66438W        W31599  28.381  23.330  12.844
66439W        W31600  38.309  29.184   4.199
66440W        W31601  35.208   8.235   4.092
66441W        W31602  26.226  44.230   3.865
66442W        W31603   0.246  29.977   1.070
66443W        W31604  32.383  32.990  12.869
66444W        W31605  37.086  36.055   1.774
66445W        W31606  28.518  22.035  14.353
66446W        W31607   4.035   7.988   1.812
66447W        W31608  11.295   5.390   0.860
66448W        W31609  43.415  31.492  14.244
66449W        W31610  36.398  21.611  12.856
66450W        W31611   9.792   6.281  12.448
66451W        W31612  11.177   0.873  12.507
66452W        W31613  34.999   4.106  11.494
66453W        W31614   5.688  42.901   0.821
66454W        W31615  24.159  21.544   5.298
66455W        W31616  15.919  11.266   0.769
66456W        W31617   8.271  18.129   1.255
66457W        W31618  10.455  15.649   1.720
66458W        W31619  37.408  27.583  11.930
66459W        W31620   7.909  15.982  13.415
66460W        W31621  24.040  40.735   0.282
66461W        W31622  10.842  18.789  10.621
66462W        W31623  44.738  30.189  14.679
66463W        W31624  41.933  30.630   1.967
66464W        W31625  18.796  18.050  14.457
66465W        W31626  40.971  41.479   0.796
66466W        W31627   1.536   9.814   1.883
66467W        W31628  30.777   4.178  12.113
66468W        W31629  28.181  23.782  14.275
66469W        W31630   5.294   3.843   3.370
66470W        W31631   3.665   5.008  10.736
66471W        W31632  35.545  13.611  14.825
66472W        W31633  23.277  35.250   0.383
66473W        W31634  29.992  14.384   1.062
66474W        W31635  44.072  13.371   3.813
66475W        W31636   5.421   2.732   0.346
66476W        W31637  21.833  29.500   2.351
66477W        W31638  39.373  37.280  13.359
66478W        W31639   4.870  11.081   0.840
66479W        W31640  41.811  41.204   0.566
66480W        W31641  11.235  34.340  14.794
66481W        W31642  38.563  44.502   2.690
66482W        W31643  23.670  42.439   4.740
66483W        W31644  13.602  28.577  13.780
66484W        W31645  34.462   7.656  10.749
66485W        W31646  35.649  36.168   1.939
66486W        W31647  30.952  39.332   4.590
66487W        W31648  22.283  24.248  12.962
66488W        W31649  36.485  21.477  11.498
66489W        W31650  25.170   2.702   1.402
66490W        W31651  28.997  38.382   1.153
66491W        W31652   2.825  16.087  11.083
66492W        W31653  29.950  15.178   1.002
66493W        W31654  20.582  10.329   1.384
66494W        W31655  30.997   2.451  10.734
66495W        W31656  18.586  12.420   1.336
66496W        W31657  30.194  31.088   0.749
66497W        W31658  43.294  11.379   4.317
66498W        W31659   7.329  44.820  11.432
66499W        W31660  10.017  26.642  10.166
66500W        W31661   8.903  22.062  10.947
66501W        W31662  19.116  28.139  12.923
66502W        W31663   0.829  34.307  14.709
66503W        W31664  35.410  35.921   2.431
66504W        W31665  22.421  32.959   2.149
66505W        W31666  31.537  15.753  13.092
66506W        W31667  35.962   1.207   0.398
66507W        W31668  26.632  29.475  11.985
66508W        W31669  41.392   5.158  12.446
66509W        W31670  17.656  27.304   2.714
66510W        W31671   7.999  41.514  13.799
66511W        W31672   5.766  18.492   4.280
66512W        W31673   0.531  26.783   0.237
66513W        W31674  11.797  34.360   3.301
66514W        W31675  25.644  21.230   4.306
66515W        W31676  25.566  13.975  10.340
66516W        W31677  17.588  43.422   0.384
66517W        W31678  11.660   8.664   1.946
66518W        W31679  10.629  33.123  10.690
66519W        W31680  40.897   2.523   2.364
66520W        W31681  17.075  41.653   5.425
66521W        W31682  41.419   6.876  12.565
66522W        W31683  26.472   1.138   3.669
66523W        W31684  15.182  35.039  10.437
66524W        W31685  37.688  38.816   3.211
66525W        W31686  40.729  39.325   1.702
66526W        W31687   3.989  18.146  12.005
66527W        W31688   8.572  30.106   4.624
66528W        W31689   6.180  22.854  10.349
66529W        W31690   6.314  21.135   3.486
66530W        W31691  17.787  18.211  11.165
66531W        W31692   6.461  21.616   3.604
66532W        W31693  42.030  37.631  10.717
66533W        W31694  11.554  15.187  13.349
66534W        W31695   6.127   1.026   0.391
66535W        W31696   7.393  30.045  12.089
66536W        W31697  12.242  44.306   1.370
66537W        W31698  42.502  24.959  12.922
66538W        W31699  43.583  43.444  11.067
66539W        W31700   3.874  12.942  13.024
66540W        W31701   7.630  32.057   3.706
66541W        W31702   2.794  25.714  12.967
66542W        W31703  22.075  29.711   0.406
66543W        W31704  44.959  26.231   1.445
66544W        W31705  17.868  42.088  11.687
66545W        W31706  26.160  28.677  14.751
66546W        W31707   9.887   8.353  14.228
66547W        W31708  41.089  18.048  12.881
66548W        W31709  18.321  37.396  11.621
66549W        W31710  29.104   1.841  13.577
66550W        W31711  14.125  15.022  11.507
66551W        W31712  37.086  14.714  11.145
66552W        W31713  36.476   7.956   3.077
66553W        W31714  36.407  31.053   1.901
66554W        W31715  14.778   0.044   1.871
66555W        W31716  36.546  40.365   3.160
66556W        W31717   6.763  13.610  11.701
66557W        W31718  11.094  20.902  12.644
66558W        W31719   4.287  38.336   2.162
66559W        W31720  20.708   8.648  13.822
66560W        W31721  30.503  35.819   4.515
66561W        W31722  10.169  19.698   2.167
66562W        W31723   8.310  32.900   0.927
66563W        W31724  39.419  17.636   1.341
66564W        W31725  11.101   0.447   1.184
66565W        W31726  16.348   9.660   2.787
66566W        W31727  27.842  10.611   5.072
66567W        W31728  23.377  37.533   0.737
66568W        W31729  11.180   2.264  10.631
66569W        W31730  44.446  18.586   3.193
66570W        W31731  32.895  27.070   1.370
66571W        W31732  35.402  18.365  11.451
66572W        W31733  24.056  28.677  12.619
66573W        W31734  26.485   2.205  12.500
66574W        W31735  33.023  24.084  13.762
66575W        W31736  31.051  19.721   0.723
66576W        W31737   4.322  34.438  12.259
66577W        W31738  10.193  35.373  12.799
66578W        W31739  26.209  16.812  13.443
66579W        W31740  19.007  31.167   4.195
66580W        W31741  38.281  12.799   0.355
66581W        W31742   9.078  19.683   1.927
66582W        W31743  23.643  22.027  13.338
66583W        W31744  20.528  36.016   2.755
66584W        W31745  22.968  22.045  14.255
66585W        W31746  19.373   1.697   0.461
66586W        W31747  10.052   6.193   0.350
66587W        W31748  43.476  27.524   2.895
66588W        W31749  32.576  19.981   3.536
66589W        W31750  41.474  11.811   3.143
66590W        W31751  37.538  16.589   3.097
66591W        W31752  26.638  13.287  12.181
66592W        W31753  35.979  35.485   3.266
66593W        W31754   2.701  33.612  13.437
66594W        W31755  28.516   4.793  14.014
66595W        W31756  28.717  19.961  12.676
66596W        W31757  11.633  31.953   2.817
66597W        W31758   6.612  28.577  11.842
66598W        W31759  13.295  36.230  13.786
66599W        W31760  44.420   8.872   3.457
66600W        W31761   6.366  39.132   4.714
66601W        W31762  39.592  20.061   3.181
66602W        W31763  21.412  38.940   3.862
66603W        W31764  11.791  14.734  13.492
66604W        W31765   7.452  16.086   1.244
66605W        W31766   0.448  10.777  14.517
66606W        W31767  27.637  10.698   4.586
66607W        W31768  27.795   5.203  13.768
66608W        W31769  22.244   8.708   4.439
66609W        W31770  27.287  42.221   3.846
66610W        W31771  26.671  44.454   0.763
66611W        W31772  22.625  42.532  12.972
66612W        W31773  17.758  20.894   3.192
66613W        W31774  18.298  26.934   3.314
66614W        W31775  18.976  26.513   3.589
66615W        W31776   2.747  24.797  13.043
66616W        W31777  29.543  42.964  10.532
66617W        W31778  21.708  33.045  14.957
66618W        W31779  15.652   9.800   4.629
66619W        W31780  22.509  15.712   2.692
66620W        W31781  29.959  27.271  12.474
66621W        W31782  13.722  22.656   1.932
66622W        W31783  26.991  25.054   3.319
66623W        W31784  32.363  14.279  14.919
66624W        W31785  14.483  17.686   0.942
66625W        W31786  43.501  32.855  14.527
66626W        W31787  26.966   0.740   3.690
66627W        W31788   9.099  42.225  14.360
66628W        W31789   8.273  33.452   1.947
66629W        W31790  36.818  16.546  11.173
66630W        W31791  19.808  43.739   2.664
66631W        W31792   7.624  14.746  13.071
66632W        W31793   2.482  42.030  10.713
66633W        W31794  14.676  41.203  12.096
66634W        W31795  13.627  40.920   5.636
66635W        W31796   1.042  30.373  11.489
66636W        W31797   7.941  13.210   4.750
66637W        W31798  32.007  31.414   0.407
66638W        W31799   2.506  43.000   2.327
66639W        W31800  29.102  36.438   3.947
66640W        W31801  43.986   4.245  10.664
66641W        W31802  23.841   1.549  10.688
66642W        W31803  18.905  13.735   3.730
66643W        W31804  43.981  32.534   4.619
66644W        W31805   9.829  30.623  11.706
66645W        W31806  27.898   4.517   0.388
66646W        W31807  13.641  33.225   2.425
66647W        W31808  14.994  12.909   2.322
66648W        W31809  31.998  19.023  11.171
66649W        W31810  23.810  34.587  12.458
66650W        W31811   8.929   9.750   3.137
66651W        W31812  25.959  14.293  12.511
66652W        W31813  12.288  41.379   3.739
66653W        W31814  16.716  41.914   3.690
66654W        W31815  30.691  32.616   2.714
66655W        W31816  17.755  11.717   0.034
66656W        W31817   3.707  35.174   1.723
66657W        W31818  44.955   2.241   0.618
66658W        W31819   4.595  39.662  10.533
66659W        W31820  35.150  24.753  12.826
66660W        W31821  26.032  18.985  13.927
66661W        W31822  25.710  39.610   5.002
66662W        W31823  26.394   1.370   4.159
66663W        W31824  23.165  19.694  11.921
66664W        W31825   6.715  16.558   4.268
66665W        W31826  15.822  36.955  14.200
66666W        W31827  26.504  40.575   0.830
66667W        W31828   2.395  13.350  13.315
66668W        W31829  39.464  27.478  12.543
66669W        W31830   0.665  39.997   3.395
66670W        W31831  24.155  20.077  14.421
66671W        W31832  39.620   9.172   0.342
66672W        W31833  15.547  28.929   2.697
66673W        W31834  25.063  32.621  11.707
66674W        W31835   6.746  26.372  14.363
66675W        W31836  13.389  41.882  11.489
66676W        W31837  40.991  20.318   0.034
66677W        W31838  22.100  26.334  14.890
66678W        W31839   4.373  18.450  12.204
66679W        W31840  34.943  23.800   2.412
66680W        W31841  22.196  19.535  10.595
66681W        W31842  23.005  36.759   3.337
66682W        W31843   2.902  21.633  13.807
66683W        W31844  32.557  34.074  14.739
66684W        W31845  31.635  22.460  14.401
66685W        W31846  13.234   2.710   0.646
66686W        W31847  27.497  35.276   4.320
66687W        W31848   0.690  42.812  12.874
66688W        W31849   4.265  21.626   1.276
66689W        W31850  40.058  33.560  11.724
66690W        W31851  15.756  10.687   4.697
66691W        W31852  32.768  44.464  11.041
66692W        W31853  11.104  12.679   1.337
66693W        W31854   5.679  30.688  14.508
66694W        W31855  39.546   7.274  11.182
66695W        W31856   2.447  15.612  13.440
66696W        W31857  35.480  22.635   0.873
66697W        W31858  43.867  17.395  12.333
66698W        W31859  25.112  40.040   2.741
66699W        W31860   6.246  30.291   4.106
66700W        W31861  42.316  19.100   3.661
66701W        W31862  36.108  19.171   0.914
66702W        W31863  12.273   7.717  13.358
66703W        W31864  12.354  32.117   1.193
66704W        W31865  10.263  34.985   2.815
66705W        W31866  22.175  31.127   3.824
66706W        W31867  39.776  43.920  12.040
66707W        W31868  33.161  36.440  12.560
66708W        W31869   1.903  36.783  12.027
66709W        W31870   0.397  41.422   2.272
66710W        W31871   5.591   8.354   2.310
66711W        W31872   9.800   1.026  10.383
66712W        W31873  20.673   7.263   4.902
66713W        W31874   9.806   9.080   3.093
66714W        W31875  33.530  44.730  10.693
66715W        W31876  23.552  34.366   1.191
66716W        W31877  23.418  35.891  14.512
66717W        W31878  19.786  29.051  11.125
66718W        W31879   9.764  26.770   1.261
66719W        W31880   4.933  29.560  12.111
66720W        W31881  39.040   0.358  12.019
66721W        W31882   4.933   0.126   0.201
66722W        W31883   6.401   0.304  10.776
66723W        W31884   0.916  41.834   3.245
66724W        W31885  34.435  10.654   3.692
66725W        W31886   7.196  10.183   2.893
66726W        W31887  21.258  44.083  12.713
66727W        W31888  35.116  12.637  14.933
66728W        W31889   6.678  20.168  11.200
66729W        W31890  18.298  10.302  14.718
66730W        W31891   8.986  38.068   2.333
66731W        W31892   3.165  25.218   4.779
66732W        W31893   4.369  36.881   1.652
66733W        W31894   1.977   1.820  13.000
66734W        W31895   3.789  36.679  10.514
66735W        W31896  37.840  42.823   1.164
66736W        W31897   6.336  36.398  11.011
66737W        W31898  34.324  23.609   4.235
66738W        W31899  42.926  11.579   2.496
66739W        W31900  13.337  14.592   1.239
66740W        W31901  14.389   0.882   0.318
66741W        W31902  42.156  21.470   3.272
66742W        W31903   6.872  37.952   4.878
66743W        W31904  29.034  30.935  11.440
66744W        W31905  21.511  27.742   1.476
66745W        W31906  43.628  19.164   1.878
66746W        W31907  18.895  13.439  12.443
66747W        W31908  16.705  42.931   0.825
66748W        W31909   7.435  37.509   3.858
66749W        W31910  11.555  25.954   3.692
66750W        W31911  36.920   5.947  12.853
66751W        W31912  17.272   5.256   4.250
66752W        W31913  28.062   5.258   0.968
66753W        W31914  13.319   1.736  11.459
66754W        W31915   3.638  14.169   3.742
66755W        W31916   4.338   4.816   3.835
66756W        W31917  39.693   5.404  14.817
66757W        W31918  26.687  37.630   3.767
66758W        W31919  18.572  17.547   1.918
66759W        W31920   2.756  14.406   0.328
66760W        W31921   1.537   8.153   1.466
66761W        W31922  38.164  41.934   3.697
66762W        W31923  42.324  16.616  11.347
66763W        W31924  12.265   8.421  14.093
66764W        W31925  33.664  32.130   1.362
66765W        W31926   7.093  40.904  13.384
66766W        W31927  30.423  30.664  13.350
66767W        W31928  36.475  31.875  14.894
66768W        W31929  19.554  19.310   0.957
66769W        W31930  24.249   4.333  12.085
66770W        W31931  20.813  26.649   4.629
66771W        W31932   3.024  10.144   4.648
66772W        W31933  35.991  27.123   4.642
66773W        W31934  29.572  21.212   2.354
66774W        W31935  28.941  35.372   3.240
66775W        W31936  28.169   8.984   1.442
66776W        W31937  17.197  30.443  11.637
66777W        W31938   7.849  43.337   1.491
66778W        W31939  23.605  13.909  11.160
66779W        W31940  20.082   2.744  11.393
66780W        W31941  20.430  42.527  13.908
66781W        W31942   0.698  32.935  13.953
66782W        W31943  21.762  44.814  12.606
66783W        W31944  17.697   0.989  13.135
66784W        W31945   9.980  27.922   4.397
66785W        W31946  19.064   2.892  11.449
66786W        W31947  26.979   9.892   1.310
66787W        W31948   3.512  25.153  12.499
66788W        W31949  40.828  43.909  12.654
66789W        W31950  11.652  24.989  11.876
66790W        W31951  39.821  11.303   0.870
66791W        W31952  25.069  19.844  13.557
66792W        W31953   8.469   5.989   0.881
66793W        W31954  17.650   4.787  12.484
66794W        W31955  14.231  37.455   3.141
66795W        W31956  13.544  29.067   0.241
66796W        W31957  28.292  30.614   9.933
66797W        W31958  41.867  40.347  13.883
66798W        W31959  42.383  23.548   2.721
66799W        W31960  19.446   5.576  13.532
66800W        W31961  40.265   9.275   2.684
66801W        W31962  21.680  24.693   4.103
66802W        W31963  32.927  12.875  14.763
66803W        W31964  41.189  14.225  14.220
66804W        W31965  21.206  16.777  13.315
66805W        W31966  11.632  14.694  14.397
66806W        W31967  39.793  13.173  14.516
66807W        W31968  33.355  20.326  12.968
66808W        W31969  24.305  24.527  14.453
66809W        W31970   6.498  31.693   3.479
66810W        W31971  44.266   3.834   4.700
66811W        W31972  13.593  17.314  13.421
66812W        W31973   1.154  23.041  11.539
66813W        W31974  33.166  42.902   2.237
66814W        W31975  36.880   5.935   0.358
66815W        W31976  40.438  27.036   1.355
66816W        W31977  11.293  37.540  13.347
66817W        W31978  28.728  15.695  11.997
66818W        W31979  12.801  30.389  10.770
66819W        W31980   8.449  15.214  10.912
66820W        W31981   8.407   0.995  11.134
66821W        W31982  36.546  24.525  14.972
66822W        W31983  10.937  44.419   3.959
66823W        W31984  12.241   0.284   0.850
66824W        W31985  38.625  22.434  11.592
66825W        W31986  36.894  25.730  12.597
66826W        W31987  11.211  43.823   0.759
66827W        W31988  11.222   2.047   2.169
66828W        W31989   7.185  25.436   5.510
66829W        W31990   4.385  34.427   3.731
66830W        W31991  27.632   3.934  10.724
66831W        W31992   7.812   9.045   3.509
66832W        W31993   5.811  23.165   4.974
66833W        W31994  19.260  10.343   3.854
66834W        W31995  14.479  27.711  10.271
66835W        W31996  32.387  16.925  14.582
66836W        W31997  44.615  34.468  11.688
66837W        W31998  12.861  27.902   1.754
66838W        W31999  23.762  18.099   0.848
66839W        W32000  27.672  31.817  10.642
66840W        W32001  41.085   5.012   0.851
66841W        W32002  20.034  35.490  10.789
66842W        W32003   5.081  25.176  14.020
66843W        W32004  11.728  21.399  14.941
66844W        W32005  23.445   9.241  14.249
66845W        W32006  16.206  19.290   3.584
66846W        W32007  44.991  20.339   0.949
66847W        W32008  30.914  44.332  12.362
66848W        W32009  40.131   9.237  10.734
66849W        W32010  44.263  24.499  11.834
66850W        W32011  16.369  24.293   3.696
66851W        W32012  24.140  12.310   0.729
66852W        W32013  31.357  35.506   3.770
66853W        W32014   7.927  36.208  14.294
66854W        W32015  32.671  10.323  13.439
66855W        W32016  44.824  13.239   2.820
66856W        W32017   3.059  11.160  14.039
66857W        W32018   5.830  36.689  11.758
66858W        W32019  30.716   4.120  11.199
66859W        W32020  16.572  18.167  13.151
66860W        W32021  42.480  22.522  13.503
66861W        W32022  43.954  38.245  14.313
66862W        W32023  11.983   0.382  12.131
66863W        W32024  38.008  42.859   4.626
66864W        W32025  22.304   7.219   0.554
66865W        W32026  23.112  12.418   4.193
66866W        W32027  13.710  28.662   4.145
66867W        W32028  26.137   8.907   0.048
66868W        W32029  27.529  28.380  12.026
66869W        W32030  37.962  37.796   4.870
66870W        W32031  24.037  32.889   0.055
66871W        W32032  43.258   9.760   0.518
66872W        W32033  12.611   2.262  13.051
66873W        W32034  28.445  40.430   2.787
66874W        W32035  26.755  14.215  13.870
66875W        W32036  26.560  33.286  10.039
66876W        W32037  39.878   8.218  12.569
66877W        W32038  33.521  42.171   5.022
66878W        W32039  23.584   8.747  14.352
66879W        W32040   2.322   4.688  13.905
66880W        W32041  21.724   3.996  14.255
66881W        W32042  37.108  25.362  14.743
66882W        W32043  32.083  18.754   0.746
66883W        W32044  38.755  11.411  14.388
66884W        W32045  40.357  18.264   4.957
66885W        W32046  12.764   6.416  12.297
66886W        W32047   6.893  34.338  12.426
66887W        W32048   4.039   2.307  12.531
66888W        W32049   0.250  30.616   3.716
66889W        W32050  44.521  28.500   4.426
66890W        W32051  28.977  44.691  12.122
66891W        W32052  23.097  31.151   0.340
66892W        W32053   6.295  22.497   0.382
66893W        W32054  31.622  44.972   4.728
66894W        W32055  41.812  27.050  13.505
66895W        W32056  24.624  15.102  12.279
66896W        W32057  39.380  11.985  14.442
66897W        W32058  15.866  26.461  10.070
66898W        W32059  21.605  17.420  11.920
66899W        W32060  27.286  44.292   3.894
66900W        W32061  42.965  17.914  14.538
66901W        W32062  17.086   2.231  12.296
66902W        W32063  22.060  21.572  14.687
66903W        W32064  41.102   8.957  12.388
66904W        W32065  13.094  29.483   4.420
66905W        W32066  14.308  13.682  10.960
66906W        W32067  27.590  33.525   3.608
66907W        W32068  41.005  29.265   4.521
66908W        W32069  32.055  20.694   3.835
66909W        W32070  44.041   2.273  12.931
66910W        W32071   9.676  32.912  12.213
66911W        W32072  19.043   6.398  11.141
66912W        W32073  41.016  44.096  13.091
66913W        W32074  29.926  25.287   3.658
66914W        W32075   1.393  39.892   0.785
66915W        W32076   7.057  27.073   3.914
66916W        W32077   3.757  29.283   5.034
66917W        W32078   9.213  39.673  11.601
66918W        W32079  27.153  43.929  14.363
66919W        W32080  19.007  27.440   0.879
66920W        W32081   6.531  23.212   3.679
66921W        W32082   1.853   0.719   4.003
66922W        W32083  17.480   9.784   4.819
66923W        W32084  33.380  40.479   4.460
66924W        W32085  29.078  40.099   1.440
66925W        W32086  14.059   6.264   4.525
66926W        W32087  31.881  11.595   0.276
66927W        W32088  34.589  16.665  10.607
66928W        W32089  25.661  21.574  13.903
66929W        W32090  30.248  39.722   3.355
66930W        W32091  19.591  26.117   4.363
66931W        W32092   9.839  40.554   4.642
66932W        W32093  32.952  42.300   4.019
66933W        W32094   8.781  31.355   0.881
66934W        W32095  43.127   3.428   0.392
66935W        W32096   8.496   4.042   0.915
66936W        W32097  42.499  13.004  11.642
66937W        W32098  26.420  27.960  11.273
66938W        W32099   6.970  19.622  11.894
66939W        W32100   6.903  27.769  13.390
66940W        W32101  18.155  42.917  13.265
66941W        W32102  32.871   5.874   2.760
66942W        W32103  12.633  44.160  13.743
66943W        W32104  19.967  37.767   0.095
66944W        W32105  14.742  27.409  12.532
66945W        W32106  42.722  37.237   3.656
66946W        W32107   5.057   8.299   2.288
66947W        W32108  27.890  42.354   0.859
66948W        W32109  43.801  10.198   2.291
66949W        W32110   1.547  14.415  10.389
66950W        W32111  22.080  26.345   1.270
66951W        W32112   6.787   2.473   2.281
66952W        W32113  11.429  37.306  11.461
66953W        W32114  28.096  17.041  13.412
66954W        W32115  28.009  12.034  13.805
66955W        W32116  25.205   9.757   5.022
66956W        W32117   1.025  10.682  10.599
66957W        W32118   6.891  10.894  12.089
66958W        W32119  19.195  25.116  10.794
66959W        W32120  24.235  37.691  12.354
66960W        W32121  10.202   2.693  12.126
66961W        W32122  14.590   6.835   0.887
66962W        W32123   6.383   6.237   0.365
66963W        W32124  11.349  15.518   4.175
66964W        W32125  28.543  29.168   1.731
66965W        W32126  28.632  40.156   4.936
66966W        W32127   2.389  33.028   3.419
66967W        W32128   0.083  10.203   1.741
66968W        W32129   8.677  21.886  12.342
66969W        W32130  27.174   8.878   1.182
66970W        W32131  40.009   5.818  14.869
66971W        W32132   6.542  12.618  14.821
66972W        W32133   1.402  28.919  11.328
66973W        W32134  16.991  29.131  10.358
66974W        W32135   3.841  39.818  11.692
66975W        W32136  42.612  27.223  12.019
66976W        W32137   4.705  16.289  14.936
66977W        W32138  26.912  18.751  13.518
66978W        W32139  39.130  44.658  12.643
66979W        W32140   0.393  13.567  13.421
66980W        W32141   4.776  28.060  12.987
66981W        W32142  31.157   5.697  10.692
66982W        W32143  28.021   2.306  12.638
66983W        W32144  24.210  16.327  12.049
66984W        W32145  14.643  12.766   2.682
66985W        W32146  22.632  25.118  12.527
66986W        W32147  37.954  21.451  11.066
66987W        W32148  26.764  41.528  12.082
66988W        W32149  30.457  44.286  14.515
66989W        W32150  28.896  31.425   2.204
66990W        W32151  44.863  23.629   2.795
66991W        W32152   4.170   9.404  11.599
66992W        W32153  33.949  41.116  12.427
66993W        W32154   7.152  22.908  14.425
66994W        W32155   2.889   8.132  14.372
66995W        W32156  12.384  20.775   3.557
66996W        W32157  30.054  33.436   3.673
66997W        W32158   8.350  16.557  10.903
66998W        W32159  34.293  13.052  10.744
66999W        W32160  39.038  43.844  10.186
67000W        W32161  11.922  37.739   2.724
67001W        W32162   6.310   0.965  12.858
67002W        W32163   8.365  18.800   2.219
67003W        W32164  42.778  19.406   0.391
67004W        W32165   6.163  13.543   2.452
67005W        W32166  17.062  37.901  10.640
67006W        W32167  39.069  10.980  14.351
67007W        W32168  16.031  17.988   0.786
67008W        W32169  17.152  34.347   0.272
67009W        W32170  18.504  18.567   2.175
67010W        W32171  26.654  13.051   0.461
67011W        W32172  35.313  43.390  13.030
67012W        W32173  34.457  22.766  12.673
67013W        W32174  13.243  12.250   1.887
67014W        W32175   8.250  11.842  11.464
67015W        W32176  24.760   7.752   1.713
67016W        W32177   9.709   3.765   3.152
67017W        W32178  24.878  37.388   2.684
67018W        W32179  40.942   5.492   0.882
67019W        W32180  21.193  12.764  10.322
67020W        W32181  24.503  15.117   3.713
67021W        W32182   4.291   2.052   1.956
67022W        W32183  12.366  32.047  14.835
67023W        W32184  25.459   7.884   3.169
67024W        W32185   8.654  28.996   3.124
67025W        W32186  32.927  10.844   2.802
67026W        W32187  22.911  20.142   0.669
67027W        W32188   7.713  27.725   2.361
67028W        W32189  13.611  19.164   0.435
67029W        W32190  17.100  39.361   2.754
67030W        W32191  25.942   1.805  12.661
67031W        W32192  14.859  31.415   4.662
67032W        W32193  38.676  15.276   3.150
67033W        W32194  27.006  21.986   0.726
67034W        W32195   3.557  26.522   3.606
67035W        W32196  43.826  17.024  12.660
67036W        W32197  16.584  25.101   4.395
67037W        W32198   1.757  12.421  13.748
67038W        W32199  14.898  32.227   1.776
67039W        W32200  37.999  12.098   1.365
67040W        W32201  14.145   1.886   4.061
67041W        W32202  32.633   3.053  10.754
67042W        W32203  44.861  37.328  14.776
67043W        W32204  44.037   0.054  10.387
67044W        W32205  27.451  20.285   2.016
67045W        W32206  35.810  41.910   3.636
67046W        W32207  41.525  10.310   1.898
67047W        W32208  30.189  13.163  12.879
67048W        W32209  12.264   5.935  12.003
67049W        W32210  28.663  36.527   3.715
67050W        W32211  23.974  30.545  12.183
67051W        W32212  38.424  23.401  11.683
67052W        W32213  28.974   6.268   4.715
67053W        W32214   7.659   0.854   2.232
67054W        W32215   6.669  22.068  14.906
67055W        W32216  24.526  27.977   0.321
67056W        W32217  30.986  37.089  11.548
67057W        W32218  40.512  32.406  13.256
67058W        W32219  40.134  44.018   0.916
67059W        W32220  27.254  26.561   0.420
67060W        W32221  25.063   9.615   3.686
67061W        W32222   5.774  25.550  12.702
67062W        W32223  13.904   5.164  13.208
67063W        W32224   2.796   7.795   2.326
67064W        W32225  40.913  32.109   4.133
67065W        W32226  40.067  39.924  10.536
67066W        W32227  13.167  43.396   2.299
67067W        W32228  17.697   6.177   0.028
67068W        W32229  28.966  12.645   0.781
67069W        W32230  15.564  41.118   0.534
67070W        W32231  39.216   3.140  13.883
67071W        W32232  42.840  40.517  10.235
67072W        W32233   6.809  32.669  13.867
67073W        W32234   2.684  21.690   3.168
67074W        W32235  31.321  42.356   2.298
67075W        W32236  40.101  10.445   2.683
67076W        W32237  20.243  40.315   4.569
67077W        W32238  38.567   1.209  10.772
67078W        W32239  16.296  32.594  12.894
67079W        W32240  37.988   3.882  10.647
67080W        W32241  26.625   3.152   5.103
67081W        W32242  22.519   3.818  13.532
67082W        W32243  27.649  29.209  10.832
67083W        W32244  41.601  37.002  14.014
67084W        W32245  39.117  20.250   3.088
67085W        W32246  14.620  11.208  13.992
67086W        W32247  23.227  20.191   5.043
67087W        W32248  25.742  19.380   4.967
67088W        W32249  34.592   9.781   2.381
67089W        W32250  19.778  14.374  10.232
67090W        W32251   8.887  16.527  14.486
67091W        W32252  31.303  25.605  12.340
67092W        W32253  39.941  10.203   4.120
67093W        W32254  30.550  21.622   3.606
67094W        W32255  42.405  28.780   1.848
67095W        W32256   2.935  34.087  13.448
67096W        W32257   3.563  11.236   2.301
67097W        W32258  19.658  15.217   4.594
67098W        W32259  10.287  19.849   4.567
67099W        W32260  33.350  34.297   3.180
67100W        W32261  43.435  38.293   1.085
67101W        W32262  41.260   8.806  12.862
67102W        W32263   6.810  39.987   1.402
67103W        W32264   7.871   8.272   0.364
67104W        W32265  20.464  28.911  13.459
67105W        W32266  35.344  18.772   2.816
67106W        W32267  19.248  33.675   5.035
67107W        W32268   9.988  43.021  10.474
67108W        W32269   5.182  30.108  14.585
67109W        W32270  18.853  36.420  14.422
67110W        W32271  27.973  39.340  12.521
67111W        W32272   8.820  38.969   0.767
67112W        W32273   0.183   1.872   1.680
67113W        W32274   1.082  22.303   3.953
67114W        W32275  36.692   9.280   1.925
67115W        W32276   6.171  29.736  11.174
67116W        W32277  18.092  30.927  11.987
67117W        W32278  37.519   3.872   0.003
67118W        W32279  14.165  31.906  11.240
67119W        W32280  16.298  15.081  14.379
67120W        W32281   9.859  19.020  13.987
67121W        W32282   3.878  11.562   3.398
67122W        W32283  12.339  13.643  12.061
67123W        W32284  16.702  43.615   2.079
67124W        W32285  42.288  41.274  13.884
67125W        W32286  33.049  38.413  14.763
67126W        W32287   3.467   4.907   3.644
67127W        W32288  20.557  19.016   0.256
67128W        W32289  40.420   0.515  11.493
67129W        W32290   5.331  17.640  14.256
67130W        W32291  38.355  10.999   0.597
67131W        W32292  19.738   1.353   1.690
67132W        W32293   8.670  26.266  11.062
67133W        W32294  14.590  17.791   2.573
67134W        W32295  25.085  13.021   4.287
67135W        W32296  41.901   9.836  12.103
67136W        W32297  38.118   0.948  10.538
67137W        W32298   1.811   9.061  12.514
67138W        W32299  28.757  19.845   0.832
67139W        W32300  22.361  22.638   1.507
67140W        W32301  35.463  42.722   4.675
67141W        W32302  32.099  31.491  10.664
67142W        W32303   4.303  13.042   4.244
67143W        W32304   0.013  35.858  14.495
67144W        W32305  41.536   2.266   4.063
67145W        W32306   7.162  12.905   0.390
67146W        W32307  18.803  21.110  14.838
67147W        W32308  29.983  33.537  10.582
67148W        W32309   3.866   1.573  11.520
67149W        W32310  12.212   6.716   3.574
67150W        W32311   6.882  30.983   3.838
67151W        W32312   4.361   6.891  11.698
67152W        W32313  23.125  33.968   1.697
67153W        W32314  40.492  28.696   1.857
67154W        W32315  27.529  44.965   0.666
67155W        W32316   4.847  36.837   1.835
67156W        W32317  28.459  24.099   2.881
67157W        W32318   8.234  21.128  10.637
67158W        W32319  43.185  23.112  12.766
67159W        W32320  37.179   3.675  12.517
67160W        W32321  19.736   7.900   4.348
67161W        W32322  22.083   6.150  13.847
67162W        W32323  44.962  20.446   4.055
67163W        W32324  14.336  38.573  11.443
67164W        W32325  12.381  32.689   3.230
67165W        W32326  20.997  44.207  10.304
67166W        W32327  33.148  32.118   4.667
67167W        W32328  11.884  39.447   1.427
67168W        W32329  15.326  10.111   0.798
67169W        W32330  34.327  39.893  12.938
67170W        W32331   9.695  41.943   4.882
67171W        W32332  42.547  14.122  14.318
67172W        W32333  25.011   5.471   2.623
67173W        W32334  27.184   4.479  10.848
67174W        W32335  31.126  21.651   1.498
67175W        W32336  41.581   0.838   0.168
67176W        W32337  39.317   2.715   4.188
67177W        W32338  25.249   2.446  13.024
67178W        W32339   4.680  16.362   1.312
67179W        W32340  28.492   8.960  12.820
67180W        W32341  43.127   9.239   0.704
67181W        W32342   4.213  11.069  14.327
67182W        W32343  34.670  38.026  12.943
67183W        W32344  20.434  31.506   3.666
67184W        W32345  32.788  15.911  13.438
67185W        W32346  39.391  30.120   0.285
67186W        W32347  20.321   4.048  12.464
67187W        W32348  33.071  25.040  12.469
67188W        W32349  44.893  37.591   3.323
67189W        W32350  17.528  36.060  13.495
67190W        W32351  28.758  26.711   0.270
67191W        W32352  12.608  42.419   4.055
67192W        W32353   4.741  40.704   1.781
67193W        W32354  18.931  18.170  14.961
67194W        W32355  20.209  16.811  12.182
67195W        W32356  32.197   0.833   4.623
67196W        W32357   4.464  13.681   1.825
67197W        W32358  10.689  13.655  14.683
67198W        W32359  26.585  35.506   1.551
67199W        W32360  30.008  25.600  13.936
67200W        W32361  21.715  37.469  14.849
67201W        W32362  27.907  38.040  12.152
67202W        W32363  22.020  23.041  14.591
67203W        W32364   2.291  27.268  11.699
67204W        W32365  10.370  38.640   0.665
67205W        W32366  19.670  44.425  13.423
67206W        W32367  32.424  43.358   0.236
67207W        W32368   2.551  15.849   0.285
67208W        W32369  36.871  35.220  10.753
67209W        W32370  28.590  12.654  13.147
67210W        W32371  38.064  29.462  12.892
67211W        W32372  18.062  25.049   1.981
67212W        W32373  14.181  37.804  12.944
67213W        W32374  33.849   5.821   0.776
67214W        W32375   7.882  20.723  13.822
67215W        W32376  10.896   9.019   1.319
67216W        W32377  44.534  20.730   3.309
67217W        W32378   8.578   3.196  12.662
67218W        W32379  26.931  15.054   1.670
67219W        W32380  24.240  43.829   0.299
67220W        W32381  27.624  25.162   0.275
67221W        W32382   4.820  37.959  14.321
67222W        W32383   8.875  14.727  12.935
67223W        W32384  15.142  20.500  10.848
67224W        W32385  31.565  43.306   3.870
67225W        W32386   6.572   3.909  12.962
67226W        W32387   1.983  39.897   3.672
67227W        W32388  16.678  22.956  12.906
67228W        W32389  15.271  23.163   3.224
67229W        W32390   5.364   8.458   4.895
67230W        W32391  28.048  24.714  13.810
67231W        W32392  36.244  31.076   4.947
67232W        W32393  13.797  11.751   2.252
67233W        W32394  12.521  22.065   1.723
67234W        W32395  21.385   0.131  12.792
67235W        W32396  16.563  12.180   1.385
67236W        W32397  42.020  21.975  11.590
67237W        W32398  21.759   5.990   1.702
67238W        W32399  36.402  19.194  10.700
67239W        W32400   0.500  10.127   4.474
67240W        W32401  25.678  27.235   0.842
67241W        W32402  44.669  28.593  10.709
67242W        W32403  22.148  23.237   2.230
67243W        W32404  11.741  18.798   3.084
67244W        W32405  14.754  29.728   1.350
67245W        W32406   9.095   0.440  11.198
67246W        W32407  23.934  10.422   2.186
67247W        W32408  33.893  25.040   0.963
67248W        W32409   1.183  27.465  11.049
67249W        W32410  27.790  33.433   1.634
67250W        W32411  29.616   8.073   2.476
67251W        W32412  20.295  30.678   2.212
67252W        W32413  22.246  38.363  14.884
67253W        W32414  30.089  14.681  13.035
67254W        W32415  15.262   8.107  11.998
67255W        W32416  32.857  23.277  12.368
67256W        W32417  39.988  44.470  13.820
67257W        W32418  13.210  41.283  10.530
67258W        W32419  18.622  34.973  10.582
67259W        W32420  39.274  38.518  10.938
67260W        W32421  26.511  29.255  10.739
67261W        W32422  31.137  25.566   2.645
67262W        W32423  36.173  28.191  14.007
67263W        W32424  16.110  44.493  13.494
67264W        W32425   7.371  18.121   3.271
67265W        W32426   1.309  19.501   2.800
67266W        W32427   7.381  22.535   4.520
67267W        W32428  43.022   5.943   4.132
67268W        W32429  15.446  26.635   4.271
67269W        W32430   2.359  16.362  10.338
67270W        W32431  36.161  11.300  11.080
67271W        W32432  19.534  32.461  11.634
67272W        W32433   0.492  25.835   0.696
67273W        W32434  39.288  38.946  10.624
67274W        W32435  10.172   7.317  11.307
67275W        W32436  32.010  12.835  10.646
67276W        W32437  14.634  12.896  11.993
67277W        W32438  26.016  17.554   2.599
67278W        W32439   2.305   2.689   4.649
67279W        W32440  40.820  23.672   3.791
67280W        W32441  18.752  24.037  10.448
67281W        W32442  18.325  14.533  14.727
67282W        W32443  39.514   4.950  14.991
67283W        W32444  33.331   4.683   5.119
67284W        W32445  30.901  22.733  11.317
67285W        W32446   3.914  19.446   0.306
67286W        W32447  13.006  10.853  14.982
67287W        W32448  15.992  14.789   1.407
67288W        W32449  40.723  23.001  12.913
67289W        W32450  38.826  29.072   4.181
67290W        W32451  12.265  41.433   2.714
67291W        W32452   6.475   7.375  13.852
67292W        W32453  21.099  16.776   3.222
67293W        W32454  18.332  14.423   3.799
67294W        W32455  30.151  36.892   1.662
67295W        W32456   0.186  25.521   0.390
67296W        W32457  12.858  42.525   0.332
67297W        W32458  12.588  36.861  11.444
67298W        W32459   3.809   2.158  13.850
67299W        W32460  44.414  27.486  10.991
67300W        W32461  25.675  25.880   0.181
67301W        W32462  35.069  32.417  13.895
67302W        W32463   5.363  43.462   2.531
67303W        W32464  29.341  41.364  13.095
67304W        W32465  31.214  23.612  13.588
67305W        W32466  21.525  36.482  12.056
67306W        W32467   6.745  17.602  11.573
67307W        W32468   5.933   9.242  11.576
67308W        W32469   0.373   4.176   2.778
67309W        W32470  10.425  11.933   3.635
67310W        W32471  41.007   0.385   0.838
67311W        W32472  25.215  44.471  11.163
67312W        W32473  22.107  39.271  10.548
67313W        W32474  14.262  36.107  10.369
67314W        W32475  25.707  25.867   2.173
67315W        W32476  31.389  27.436   0.377
67316W        W32477  13.779  10.398  13.953
67317W        W32478  22.166  34.159   1.908
67318W        W32479  21.631  40.669  12.981
67319W        W32480  12.586  34.162   2.314
67320W        W32481  22.412   6.239  12.614
67321W        W32482  29.639   2.288   1.750
67322W        W32483   3.404   1.088   5.154
67323W        W32484  26.101  14.721  13.777
67324W        W32485  27.722  18.727  14.840
67325W        W32486   1.718  28.486   2.411
67326W        W32487  41.994  41.015   4.251
67327W        W32488   3.446  19.496  13.839
67328W        W32489   2.698  39.488  13.086
67329W        W32490   8.788  15.756   3.806
67330W        W32491   8.310   5.846   4.597
67331W        W32492  30.077  20.421   1.446
67332W        W32493   0.554  29.590   1.199
67333W        W32494  31.407  10.795   0.011
67334W        W32495  11.242  44.212   3.572
67335W        W32496  16.697  11.760  10.767
67336W        W32497   2.307  21.038   0.753
67337W        W32498  40.742  15.845   3.721
67338W        W32499  38.729  35.995   3.365
67339W        W32500  38.223   4.634  12.631
67340W        W32501   9.056  25.092  14.070
67341W        W32502  25.537  15.284  12.658
67342W        W32503  43.852  41.199   4.609
67343W        W32504  40.494  28.077  14.890
67344W        W32505   0.976  19.290  11.151
67345W        W32506  12.970  43.196  13.862
67346W        W32507  16.989  26.500   2.752
67347W        W32508   0.952  12.901   1.653
67348W        W32509  43.924  28.683  11.416
67349W        W32510  27.945  36.956  14.345
67350W        W32511  44.889   6.650   4.286
67351W        W32512  38.619  39.526  14.767
67352W        W32513  25.320  12.700  10.688
67353W        W32514  15.570  24.918   9.932
67354W        W32515  41.706  41.580  10.591
67355W        W32516  38.462  17.266   0.277
67356W        W32517  35.080  42.610   3.166
67357W        W32518  31.239   8.815  14.898
67358W        W32519   5.287  29.208   1.982
67359W        W32520   7.443  34.412  12.572
67360W        W32521  21.000  34.434  12.932
67361W        W32522  11.297  24.722  12.955
67362W        W32523  23.589   4.879   3.616
67363W        W32524  42.796  25.180   3.793
67364W        W32525   7.368   9.671   2.858
67365W        W32526  34.428  43.319   4.605
67366W        W32527  28.583   5.936  12.323
67367W        W32528  26.510  26.928  11.982
67368W        W32529  33.578  10.448  11.553
67369W        W32530  19.942  41.474   3.256
67370W        W32531  42.224   5.276   3.298
67371W        W32532  17.467   3.199   1.763
67372W        W32533  32.911  30.072  11.388
67373W        W32534  12.129   5.377  12.864
67374W        W32535  10.343  40.358   1.220
67375W        W32536  31.541  19.771   4.319
67376W        W32537  10.134  37.612   0.374
67377W        W32538  33.688   4.320   3.305
67378W        W32539  38.944   6.069  14.170
67379W        W32540  24.774  14.370   4.163
67380W        W32541  44.440  40.323  13.951
67381W        W32542  21.587  43.569  12.066
67382W        W32543  26.176   0.668   3.341
67383W        W32544  44.557  14.233   4.606
67384W        W32545  14.546  14.836   0.225
67385W        W32546  25.319  30.584   5.133
67386W        W32547  33.994  43.475   0.350
67387W        W32548  11.103  40.316  11.509
67388W        W32549   0.774  19.097  14.783
67389W        W32550   0.675   7.448  12.161
67390W        W32551  42.299  30.539   1.240
67391W        W32552  19.368  28.604  12.918
67392W        W32553  38.501  33.349  14.933
67393W        W32554  12.799   0.024  14.918
67394W        W32555  33.555  41.101  13.387
67395W        W32556  14.854  35.972   0.178
67396W        W32557   8.265  43.946  11.273
67397W        W32558  21.686  11.615  13.064
67398W        W32559  42.367  38.477   4.586
67399W        W32560  11.497  27.389   3.386
67400W        W32561  24.039  38.140  12.540
67401W        W32562  16.737  13.200  11.980
67402W        W32563  31.281  26.273  14.841
67403W        W32564  29.902  39.702   2.000
67404W        W32565  27.004   6.451   2.894
67405W        W32566  44.407  32.054   0.369
67406W        W32567  12.753  29.952   3.576
67407W        W32568   0.587  37.914   4.460
67408W        W32569   3.850  44.818   1.841
67409W        W32570  13.256  41.204   5.163
67410W        W32571  20.714  37.891  12.125
67411W        W32572  38.500  18.828   1.775
67412W        W32573  33.348  23.972   2.886
67413W        W32574  18.779  28.633   4.126
67414W        W32575   8.293  27.469  13.361
67415W        W32576  28.916  15.358   0.259
67416W        W32577  27.433   0.026   1.778
67417W        W32578  16.279  38.890  11.209
67418W        W32579  44.006  43.947   3.895
67419W        W32580  40.496  18.383  12.633
67420W        W32581  15.595  27.617   1.463
67421W        W32582  12.418  31.550   2.840
67422W        W32583   3.000  37.833   1.451
67423W        W32584  25.946  30.432   4.486
67424W        W32585  36.305  44.908   0.554
67425W        W32586  41.331  13.768  10.605
67426W        W32587   7.482  11.150   3.254
67427W        W32588  22.551  15.181  14.585
67428W        W32589   9.156  35.493  11.594
67429W        W32590  18.814  10.857   0.339
67430W        W32591  21.273  19.759  11.052
67431W        W32592  40.443  18.585   3.967
67432W        W32593  31.473  16.956  14.442
67433W        W32594   3.143  18.526  13.578
67434W        W32595   8.960   4.186  14.208
67435W        W32596  14.132   4.256  11.093
67436W        W32597  22.094  25.672   0.539
67437W        W32598  12.311  37.006   4.410
67438W        W32599   4.447  38.322   0.791
67439W        W32600  22.774  10.176  11.898
67440W        W32601  19.110  21.887   2.947
67441W        W32602  40.980  21.511  13.896
67442W        W32603   9.989  27.238   1.273
67443W        W32604  19.095  43.510  12.914
67444W        W32605   0.479  12.624   2.674
67445W        W32606   4.765  15.471   0.305
67446W        W32607   4.465  15.857  11.182
67447W        W32608  20.996  15.916  11.002
67448W        W32609   3.247  13.993   5.376
67449W        W32610  36.767  12.926   0.507
67450W        W32611  31.973  38.269  11.486
67451W        W32612  37.356  37.340  12.962
67452W        W32613   2.512  22.212  12.287
67453W        W32614  41.374  42.461  13.442
67454W        W32615  44.713  27.405   0.156
67455W        W32616  28.939   8.832   0.850
67456W        W32617   8.797   9.763   2.627
67457W        W32618  31.497  14.797   1.875
67458W        W32619  20.020  21.787  10.747
67459W        W32620  26.983  33.287  12.355
67460W        W32621  15.077  10.244  12.866
67461W        W32622  18.193  11.675   2.742
67462W        W32623   0.311  15.724  11.990
67463W        W32624  35.613  35.932  12.476
67464W        W32625  20.101  35.071   1.353
67465W        W32626  20.545  29.966   4.645
67466W        W32627  18.665  43.994  14.310
67467W        W32628   8.554  20.254   0.424
67468W        W32629  34.473  40.916   2.734
67469W        W32630  33.074  27.800  12.160
67470W        W32631   9.206  30.585   0.336
67471W        W32632  12.585  19.855  13.348
67472W        W32633  33.259  35.587  11.956
67473W        W32634   3.171   4.628  11.554
67474W        W32635   8.847  22.264   2.089
67475W        W32636   9.696   8.950   1.732
67476W        W32637   4.725  31.617   2.225
67477W        W32638   7.424  43.028  11.510
67478W        W32639  16.051   0.030   2.978
67479W        W32640  24.141  34.469   2.191
67480W        W32641  35.297   2.876  12.668
67481W        W32642   2.608  31.177  11.626
67482W        W32643  33.078  25.162  10.774
67483W        W32644  12.305   8.754   0.175
67484W        W32645   7.728  33.515   1.162
67485W        W32646   7.168  10.219   1.908
67486W        W32647  44.469  35.428  13.781
67487W        W32648   0.761  18.563   0.070
67488W        W32649  44.941  26.551   3.763
67489W        W32650  31.863   0.749   0.611
67490W        W32651   8.650  42.071  12.549
67491W        W32652   7.705   2.283  12.946
67492W        W32653   7.807   7.593   2.328
67493W        W32654   8.569  22.642   1.884
67494W        W32655  41.550  35.376   4.136
67495W        W32656  22.235   6.932  11.840
67496W        W32657  16.151  18.285   3.140
67497W        W32658   9.327  31.005   3.246
67498W        W32659  14.019  24.564  12.827
67499W        W32660  16.165  30.228  12.038
67500W        W32661   9.199   7.487   1.681
67501W        W32662  39.351  20.705  11.245
67502W        W32663  43.255  26.163  12.798
67503W        W32664  29.087  23.754  14.462
67504W        W32665   2.520  35.100  13.055
67505W        W32666  13.572  32.679   1.175
67506W        W32667  13.177  13.323   1.824
67507W        W32668  40.474  29.384  14.349
67508W        W32669   4.255  41.365   0.894
67509W        W32670  22.069  36.424   3.368
67510W        W32671  36.549  39.949  11.248
67511W        W32672  30.888   0.239   1.703
67512W        W32673  44.331  38.929   0.430
67513W        W32674   1.342  19.758  12.441
67514W        W32675  11.194  27.692  12.520
67515W        W32676  21.448  42.448  13.964
67516W        W32677  35.054   7.834   1.339
67517W        W32678  44.902  37.047  10.383
67518W        W32679  39.102  31.584   5.017
67519W        W32680  40.469   8.366   2.398
67520W        W32681   0.308  10.733  11.609
67521W        W32682  31.650  41.022  11.722
67522W        W32683  14.167   1.938  12.502
67523W        W32684  19.584   8.247  11.202
67524W        W32685   8.326  16.351   1.212
67525W        W32686  27.655  14.131  11.160
67526W        W32687  15.926  40.361   0.894
67527W        W32688  27.066  28.983   4.682
67528W        W32689  20.733  33.895  13.234
67529W        W32690  38.338   0.077  13.941
67530W        W32691  30.587  39.378   0.506
67531W        W32692  12.584  15.234   1.341
67532W        W32693   5.611  11.630   1.278
67533W        W32694  24.955  32.688   0.273
67534W        W32695  41.594  19.958  12.111
67535W        W32696  34.889  13.626   4.582
67536W        W32697  36.105  16.602   0.353
67537W        W32698  28.965  41.286   3.321
67538W        W32699  42.823  21.327   1.823
67539W        W32700   8.118  20.284   0.820
67540W        W32701  11.031  34.355  12.123
67541W        W32702   5.671  40.430   0.729
67542W        W32703   6.776   6.199   1.379
67543W        W32704  44.799  36.751   2.711
67544W        W32705  42.396  43.824   0.186
67545W        W32706  14.328   0.520   3.255
67546W        W32707  26.428   4.281   2.642
67547W        W32708  14.746  15.013   3.142
67548W        W32709  26.525  22.490  10.736
67549W        W32710  35.161  33.383  13.947
67550W        W32711  13.683  30.582  13.391
67551W        W32712  23.794  40.534  10.748
67552W        W32713   0.335  35.624  12.216
67553W        W32714  38.877  42.204  10.687
67554W        W32715  28.302  28.952  12.557
67555W        W32716  34.072  38.441  14.718
67556W        W32717  10.832  16.769  12.530
67557W        W32718  24.182  34.152  14.563
67558W        W32719  42.397  33.056  10.460
67559W        W32720  21.606  14.143   0.872
67560W        W32721  11.431  30.033  13.156
67561W        W32722  41.936  12.533   2.423
67562W        W32723  32.791  44.285  13.837
67563W        W32724  38.812  30.433   3.448
67564W        W32725  28.045  26.897   4.004
67565W        W32726  38.554   8.386   0.557
67566W        W32727   2.153  11.502  10.345
67567W        W32728  24.659  25.430   3.795
67568W        W32729  32.184  10.118   0.424
67569W        W32730  40.989  36.668   0.751
67570W        W32731  19.672  31.535  13.986
67571W        W32732  12.600  35.380  11.620
67572W        W32733  39.454  42.384  14.254
67573W        W32734   5.873  22.729  14.125
67574W        W32735  24.270  37.041   3.323
67575W        W32736  25.711   3.734  10.726
67576W        W32737  41.023  35.544   4.182
67577W        W32738   7.283  17.346  11.541
67578W        W32739   4.785  25.498   2.136
67579W        W32740  34.456  17.248  12.620
67580W        W32741  15.730   0.965   2.406
67581W        W32742  19.697  24.125   0.904
67582W        W32743  33.390  31.906  13.026
67583W        W32744   8.829  20.539   3.333
67584W        W32745   8.683  14.728  10.874
67585W        W32746  34.542   1.075   1.432
67586W        W32747  36.619   2.650   2.807
67587W        W32748   7.430  42.030  10.616
67588W        W32749  28.848  14.590  14.586
67589W        W32750  19.027   6.142   3.208
67590W        W32751  22.078  40.478   1.655
67591W        W32752  35.263  32.736   4.081
67592W        W32753  37.867   1.356  14.713
67593W        W32754   8.675  11.119  12.977
67594W        W32755  43.066  26.175   3.753
67595W        W32756  30.010  16.563  13.411
67596W        W32757  26.148  13.813  12.496
67597W        W32758   9.292  16.694  11.877
67598W        W32759  19.159  33.461   1.291
67599W        W32760  31.457  17.987   1.804
67600W        W32761   8.616  13.599   1.358
67601W        W32762   1.051  37.786   4.662
67602W        W32763  26.343  27.927  11.823
67603W        W32764   2.007   8.441  12.799
67604W        W32765  35.329   0.131  12.103
67605W        W32766  25.197  42.363   4.039
67606W        W32767   4.820  38.055   2.812
67607W        W32768  27.583   0.948  14.988
67608W        W32769  38.155   4.606  10.952
67609W        W32770  40.652  40.558  14.066
67610W        W32771  16.883  34.164  11.340
67611W        W32772   7.326   5.985   0.275
67612W        W32773   4.759  15.170  12.009
67613W        W32774  37.601  36.094  14.464
67614W        W32775  39.349  39.341   0.383
67615W        W32776  22.594  43.914  10.790
67616W        W32777   7.805  21.551  11.518
67617W        W32778  13.525  41.858   0.005
67618W        W32779  34.434  30.487  11.679
67619W        W32780  13.367  36.599   3.406
67620W        W32781  43.272   5.687  11.519
67621W        W32782  35.949  16.131  10.735
67622W        W32783  12.272   2.357   0.723
67623W        W32784  22.150  34.586   0.644
67624W        W32785   1.308  43.301  11.106
67625W        W32786   4.105  18.932  11.545
67626W        W32787  20.721   5.520   0.415
67627W        W32788  34.151  10.872  13.032
67628W        W32789  37.914  31.495  13.792
67629W        W32790  24.222  41.305   1.689
67630W        W32791  39.601   3.838  11.607
67631W        W32792  28.242  16.085   0.456
67632W        W32793  19.212  25.666  14.835
67633W        W32794  17.011  11.148   3.181
67634W        W32795  40.507   1.766   5.109
67635W        W32796  38.958  25.559  12.410
67636W        W32797  29.113  36.324  12.342
67637W        W32798  18.360  30.549  14.441
67638W        W32799  34.852  16.748   3.839
67639W        W32800   2.524  22.160  11.069
67640W        W32801   0.856  18.955   2.242
67641W        W32802  18.296  34.978   5.124
67642W        W32803   0.087  19.161   4.876
67643W        W32804  30.685   6.716   4.242
67644W        W32805   0.774   7.685   3.624
67645W        W32806  35.833  42.783  13.466
67646W        W32807  40.336  17.174   2.189
67647W        W32808   6.188  20.736  13.409
67648W        W32809  13.893  34.936   2.733
67649W        W32810  37.844  11.798   0.036
67650W        W32811  28.097  23.047   5.597
67651W        W32812  25.675  21.705   1.846
67652W        W32813  40.122   5.958  12.798
67653W        W32814  13.189  27.394  12.970
67654W        W32815   4.904   6.434   1.212
67655W        W32816  17.860  33.385  13.920
67656W        W32817   4.630   4.405   2.455
67657W        W32818  19.285  14.313  14.383
67658W        W32819   6.351  22.561  14.007
67659W        W32820  39.855  20.862  11.227
67660W        W32821   7.032  22.574  14.027
67661W        W32822  22.539   4.860  11.107
67662W        W32823  33.535   0.847  12.600
67663W        W32824  20.866   9.764   0.290
67664W        W32825  29.577  29.357   4.231
67665W        W32826  44.246  30.238  10.595
67666W        W32827  44.325  39.112  12.551
67667W        W32828  14.414   7.312   3.152
67668W        W32829  27.623  28.648   3.387
67669W        W32830   6.818   1.472   4.270
67670W        W32831  24.273  31.705  10.814
67671W        W32832   8.238  40.932  14.506
67672W        W32833  41.287  37.109  12.060
67673W        W32834  34.384  29.934   2.933
67674W        W32835  15.657  44.272   2.272
67675W        W32836  21.777  11.849  14.058
67676W        W32837  21.608   3.817   4.064
67677W        W32838  16.781  14.662   3.685
67678W        W32839  32.973  18.541  11.169
67679W        W32840   4.828  42.826   9.721
67680W        W32841  19.376  27.486   2.295
67681W        W32842  39.482  33.452   4.363
67682W        W32843  32.105  34.460  11.573
67683W        W32844  23.079  37.796  13.476
67684W        W32845  42.927  43.041  12.600
67685W        W32846  38.846  11.658  14.860
67686W        W32847  13.360  25.027   2.212
67687W        W32848  41.375   4.363  12.077
67688W        W32849  16.652  21.882   2.275
67689W        W32850   3.927  24.678   1.206
67690W        W32851  26.049  34.396  13.447
67691W        W32852  44.049  14.165  13.287
67692W        W32853  11.798  11.109   1.518
67693W        W32854   4.542  34.528   1.172
67694W        W32855   8.217  18.473   4.608
67695W        W32856  19.171   9.642   1.162
67696W        W32857  30.717  30.528   2.874
67697W        W32858  20.672   9.759   4.814
67698W        W32859  36.165  21.429  11.879
67699W        W32860   7.638  15.853  11.626
67700W        W32861  40.147  29.083   1.712
67701W        W32862  24.286  24.399   3.359
67702W        W32863  18.282  12.157  12.054
67703W        W32864  28.040  36.075  12.920
67704W        W32865   7.652  11.878   2.311
67705W        W32866  39.424  23.582   2.142
67706W        W32867  33.043  30.947  14.538
67707W        W32868  16.767  39.872   2.317
67708W        W32869  16.972  18.256  11.669
67709W        W32870  17.605  22.165   4.098
67710W        W32871  20.592   7.791  10.669
67711W        W32872  41.946  18.010  12.580
67712W        W32873   3.261   2.677  12.180
67713W        W32874  11.859  18.800  12.104
67714W        W32875  29.200  38.034  10.178
67715W        W32876   7.744  12.143   1.862
67716W        W32877  30.577  22.955   2.724
67717W        W32878  36.478  18.193   4.756
67718W        W32879  40.133  19.818   1.348
67719W        W32880   7.379  30.005   3.708
67720W        W32881  13.298   3.977   1.851
67721W        W32882  23.727   3.510   1.728
67722W        W32883   6.101  15.707  12.531
67723W        W32884   2.818  12.815  12.800
67724W        W32885  38.416  18.572   1.320
67725W        W32886  12.504  24.034   0.307
67726W        W32887  32.205  34.343   0.554
67727W        W32888  11.878   0.269  11.224
67728W        W32889   5.734  34.775   2.688
67729W        W32890   2.853   1.564   1.645
67730W        W32891  15.753  13.300  11.585
67731W        W32892  34.656  22.259   1.121
67732W        W32893  42.686   4.515   5.241
67733W        W32894  43.855  20.027   3.434
67734W        W32895  26.545  12.732   2.794
67735W        W32896  32.462  13.274   1.927
67736W        W32897  10.394  36.036   4.158
67737W        W32898  10.393  36.379  10.440
67738W        W32899  19.162  33.866  11.198
67739W        W32900   2.357   6.039  14.549
67740W        W32901  29.890   4.394   1.235
67741W        W32902   8.441  11.623  11.046
67742W        W32903  38.914   9.347   1.312
67743W        W32904  35.400  23.628   3.204
67744W        W32905  41.260  38.514   0.544
67745W        W32906  10.736   2.897   3.271
67746W        W32907  38.959  30.480  11.911
67747W        W32908  33.539  17.478  11.586
67748W        W32909  33.944  29.665  12.652
67749W        W32910   6.569  41.984  11.595
67750W        W32911  32.448   6.509   2.671
67751W        W32912  31.827  44.732  14.734
67752W        W32913  22.732  14.856   4.577
67753W        W32914  14.341  22.685  12.117
67754W        W32915   3.344   1.896   3.134
67755W        W32916   9.225   6.427   4.117
67756W        W32917  43.618   6.895  14.732
67757W        W32918  41.260   9.997  14.695
67758W        W32919   4.336   3.441  13.021
67759W        W32920  28.441   5.121  11.688
67760W        W32921  16.605   8.495  12.159
67761W        W32922  12.338   9.321   1.978
67762W        W32923  10.596  35.898   2.521
67763W        W32924   2.999  14.155  14.934
67764W        W32925  20.068  21.754   3.286
67765W        W32926  31.417  16.983  13.100
67766W        W32927  44.391  43.264  10.594
67767W        W32928  27.506   3.485   3.334
67768W        W32929  17.176  29.695  10.735
67769W        W32930  14.568  34.845   2.155
67770W        W32931   5.291   5.196  14.398
67771W        W32932   6.796  38.975   2.312
67772W        W32933  24.892  17.498   1.872
67773W        W32934  44.928   6.629  11.049
67774W        W32935  44.903  41.849   1.078
67775W        W32936  29.587  34.669   3.094
67776W        W32937  29.141   7.839  14.232
67777W        W32938   6.789   7.976   1.738
67778W        W32939  15.631   5.819   3.172
67779W        W32940   7.278  30.687   4.740
67780W        W32941  15.316  35.079   2.410
67781W        W32942  23.941  20.484  12.380
67782W        W32943  21.760   7.164   2.147
67783W        W32944   2.891  26.522  14.243
67784W        W32945  21.600  33.545   0.006
67785W        W32946  20.633  42.065  14.864
67786W        W32947   3.079  24.019   4.626
67787W        W32948  22.625  33.704   2.884
67788W        W32949  21.747  38.950  13.469
67789W        W32950  44.782   5.352   2.083
67790W        W32951  31.367  18.054  10.967
67791W        W32952  36.894  28.968   2.361
67792W        W32953  42.871  38.890   3.966
67793W        W32954  34.095  17.483   2.687
67794W        W32955  43.815  13.400  12.902
67795W        W32956  39.805   8.312   4.316
67796W        W32957   5.415   2.384   3.736
67797W        W32958   5.307  10.840   3.121
67798W        W32959  17.519  14.684   2.268
67799W        W32960  37.733  26.511   4.027
67800W        W32961  20.116  36.363   3.273
67801W        W32962  30.252  12.937  11.884
67802W        W32963   0.513  14.698  12.200
67803W        W32964  28.490  11.125   3.495
67804W        W32965  28.546   7.018   3.232
67805W        W32966  35.073  29.734  13.332
67806W        W32967   1.186   3.798   2.351
67807W        W32968  35.061  20.519  11.121
67808W        W32969  27.287  24.400  14.353
67809W        W32970  20.620  36.981   4.176
67810W        W32971  29.381  31.697  12.916
67811W        W32972  29.156  35.938  13.446
67812W        W32973  29.520  14.757   3.348
67813W        W32974  18.093  43.490   3.144
67814W        W32975  20.052   4.739   2.329
67815W        W32976  28.066  17.791  14.786
67816W        W32977  42.340  22.339  10.653
67817W        W32978  32.473  27.052   0.413
67818W        W32979   8.337   9.721  12.109
67819W        W32980  31.177  11.860  13.620
67820W        W32981  34.226  36.091  13.891
67821W        W32982  18.751  34.495   2.220
67822W        W32983   4.454  16.048   3.401
67823W        W32984  41.647   3.397   0.335
67824W        W32985   6.317  28.811  10.779
67825W        W32986   1.487  17.838   4.517
67826W        W32987  28.615  21.555   4.389
67827W        W32988  14.546   4.535  11.182
67828W        W32989  22.409   7.061  12.639
67829W        W32990  25.653  22.326  14.409
67830W        W32991  43.592   2.617   4.156
67831W        W32992   8.213   9.378  10.832
67832W        W32993  37.995   7.461  11.957
67833W        W32994  17.247  18.679   2.431
67834W        W32995  16.067  29.455  13.445
67835W        W32996   8.228  13.709   4.805
67836W        W32997  20.279  37.966  14.034
67837W        W32998  27.433  43.258   3.057
67838W        W32999  13.862  30.626   3.103
67839W        W33000  19.060  25.731  10.949
67840W        W33001   1.302  12.347  12.401
67841W        W33002  19.289   3.434   2.847
67842W        W33003  21.581  41.997  11.041
67843W        W33004  38.481  25.627   1.383
67844W        W33005  35.567  34.632  14.294
67845W        W33006   8.383   2.988   2.861
67846W        W33007  19.191  42.935  12.543
67847W        W33008  40.991   4.434   3.341
67848W        W33009  31.307  37.515   4.626
67849W        W33010  10.806  15.147  12.840
67850W        W33011   8.696  26.552   2.393
67851W        W33012  33.573  25.691   3.229
67852W        W33013  18.023   1.725  14.058
67853W        W33014  31.912  43.844   2.025
67854W        W33015  39.967  15.642   1.091
67855W        W33016  22.125  37.323  11.632
67856W        W33017  10.619  20.201   0.749
67857W        W33018  41.799  16.990  10.640
67858W        W33019  38.461  18.672   0.390
67859W        W33020  22.223  32.288  12.631
67860W        W33021   9.257  16.304  11.550
67861W        W33022  37.345   0.769   1.802
67862W        W33023  37.007   5.748   4.387
67863W        W33024  37.551   7.149  14.743
67864W        W33025  12.617  41.607   0.092
67865W        W33026   3.468  11.687  10.278
67866W        W33027   9.382   4.356   0.449
67867W        W33028  15.285  34.804  14.550
67868W        W33029  28.612  39.341  12.015
67869W        W33030   4.774   5.926  14.695
67870W        W33031  11.552  40.983  14.867
67871W        W33032  43.576  23.129   1.014
67872W        W33033  32.952   1.484  12.064
67873W        W33034   9.111  41.262   0.029
67874W        W33035  34.470  17.601  14.927
67875W        W33036  33.541  43.759  12.908
67876W        W33037  41.298  21.816   1.507
67877W        W33038  24.114  44.190   2.827
67878W        W33039  24.567  15.344   0.735
67879W        W33040  14.982  41.374  13.387
67880W        W33041  28.155  19.096   3.835
67881W        W33042  25.487  26.932   2.751
67882W        W33043  12.204  43.064   0.390
67883W        W33044  31.337  24.541   1.357
67884W        W33045  30.039  15.983  13.399
67885W        W33046   2.990  41.894   4.366
67886W        W33047  33.261  13.118  11.378
67887W        W33048  26.767  33.379   3.193
67888W        W33049  15.374  41.026   3.116
67889W        W33050  41.476  16.552   4.575
67890W        W33051   4.901  21.591   3.920
67891W        W33052  10.834  37.115  10.359
67892W        W33053  23.670   5.735   4.545
67893W        W33054  36.684   6.852  14.330
67894W        W33055  43.878  17.269   3.647
67895W        W33056   8.712  25.473   4.508
67896W        W33057  31.196  38.358  14.887
67897W        W33058  13.812  27.441   3.582
67898W        W33059  38.477   8.953  12.993
67899W        W33060  20.438  22.973   4.783
67900W        W33061   0.778  10.589  11.468
67901W        W33062  40.338  22.679  13.022
67902W        W33063  31.679  43.557  11.857
67903W        W33064  36.553  37.309   1.457
67904W        W33065   4.011  15.269   2.360
67905W        W33066  11.211   0.733   3.798
67906W        W33067  36.965  20.447   0.887
67907W        W33068   2.158  25.871  14.510
67908W        W33069   5.521  30.489   1.376
67909W        W33070  33.815   7.205   0.377
67910W        W33071  37.579   8.051  14.716
67911W        W33072  24.461  14.136   2.862
67912W        W33073   7.281  23.657   2.720
67913W        W33074  12.122   2.302  14.423
67914W        W33075  10.972  37.798  11.887
67915W        W33076  42.411  23.564   0.512
67916W        W33077  26.149  25.069   4.512
67917W        W33078  42.204  22.664   4.366
67918W        W33079   5.694  32.426   0.855
67919W        W33080   2.335   9.714   3.039
67920W        W33081   1.978   8.759   0.283
67921W        W33082  31.610  16.563  12.869
67922W        W33083  33.354  38.796   0.045
67923W        W33084  41.334  25.251  14.259
67924W        W33085   2.745  44.720  14.954
67925W        W33086  25.768  20.835   1.625
67926W        W33087  10.833   8.095  13.803
67927W        W33088  42.307  38.478  10.695
67928W        W33089   6.232   3.570   5.073
67929W        W33090  38.417  21.755   3.572
67930W        W33091  36.768  12.128   2.243
67931W        W33092  38.617  22.335   2.664
67932W        W33093   6.214  43.985  11.150
67933W        W33094  30.120  34.617   3.779
67934W        W33095  20.164   9.531  10.982
67935W        W33096  14.206  22.656   2.096
67936W        W33097  41.487  21.358   1.785
67937W        W33098   8.197  36.757  12.185
67938W        W33099   8.359  10.765  11.450
67939W        W33100   5.367  44.345   1.825
67940W        W33101  29.519  36.350  10.691
67941W        W33102  27.996  17.775  13.327
67942W        W33103  19.991  14.728   2.345
67943W        W33104  44.802  19.828   3.730
67944W        W33105  23.245  32.605  10.980
67945W        W33106  26.278  33.045  11.973
67946W        W33107  29.005  30.537   3.123
67947W        W33108  24.734  28.289   0.707
67948W        W33109  28.899  10.225   1.993
67949W        W33110   9.340  24.060  11.202
67950W        W33111   4.482  20.074   0.759
67951W        W33112  37.326   9.682   4.679
67952W        W33113  34.750  33.008   1.755
67953W        W33114  20.856  17.031  12.429
67954W        W33115  29.585  30.200  13.228
67955W        W33116  18.249   3.236   3.584
67956W        W33117  43.215   8.318  11.684
67957W        W33118  16.595  11.375   1.919
67958W        W33119  44.398  18.559   2.102
67959W        W33120  37.993  24.217  13.423
67960W        W33121  23.450  27.128  12.934
67961W        W33122  34.651   6.208  14.358
67962W        W33123   0.747  28.102   0.809
67963W        W33124  24.044  15.099  14.016
67964W        W33125  35.974  10.321   0.966
67965W        W33126  23.429  41.894   2.824
67966W        W33127  16.054   0.420  10.754
67967W        W33128  26.511  26.498  14.258
67968W        W33129  26.555  16.613   4.630
67969W        W33130  37.197  29.385   2.916
67970W        W33131  25.228  17.205   0.956
67971W        W33132  40.636  42.825   0.159
67972W        W33133  31.314   8.668   1.731
67973W        W33134  35.372   1.174   3.319
67974W        W33135  27.495  22.269  12.702
67975W        W33136   8.613  20.049   1.421
67976W        W33137  21.928   4.734  14.400
67977W        W33138  13.887  44.317  13.054
67978W        W33139  27.933  39.492  11.235
67979W        W33140  20.164   1.254   2.494
67980W        W33141   6.187  43.736   1.769
67981W        W33142  35.814  44.915  10.555
67982W        W33143   1.787   4.505  13.411
67983W        W33144  12.520  35.335   1.252
67984W        W33145   0.963   2.740   1.412
67985W        W33146  30.670  29.037   2.402
67986W        W33147  10.092  39.924   0.405
67987W        W33148  17.077  33.923  14.275
67988W        W33149  35.493  12.382  13.592
67989W        W33150  23.175  27.044  13.812
67990W        W33151  39.012  18.771  10.140
67991W        W33152  31.847   7.440   0.442
67992W        W33153  36.286  15.738  10.752
67993W        W33154   2.742  41.150  12.565
67994W        W33155  41.790   4.120  14.493
67995W        W33156  36.110  15.063   2.108
67996W        W33157  44.845  23.710   1.444
67997W        W33158  36.471  16.092   1.301
67998W        W33159  36.099  12.401   4.201
67999W        W33160  23.203  21.457   0.601
68000W        W33161  13.346   3.456   1.667
68001W        W33162  36.088  25.513   3.672
68002W        W33163  35.143  23.996  11.607
68003W        W33164  42.217  38.784  12.009
68004W        W33165  41.533  36.852  14.768
68005W        W33166  33.884  41.134   2.920
68006W        W33167  40.690  37.248  12.051
68007W        W33168  27.558  42.900  14.563
68008W        W33169  27.518  13.849  14.004
68009W        W33170  31.874   8.922   2.311
68010W        W33171  31.865  18.065   1.479
68011W        W33172  30.026  18.663   1.070
68012W        W33173  38.062  43.196  12.093
68013W        W33174  22.461  10.369  11.535
68014W        W33175  44.462  12.945  11.461
68015W        W33176  44.330  30.596  13.776
68016W        W33177  40.517  18.067  11.488
68017W        W33178  17.010   0.755   2.768
68018W        W33179  22.487  23.157   1.284
68019W        W33180  21.170  12.951  12.517
68020W        W33181  21.955   2.866   4.919
68021W        W33182  40.826   4.007  12.346
68022W        W33183  34.033  15.796  14.041
68023W        W33184  30.318  19.114   1.773
68024W        W33185  39.988  15.765  11.987
68025W        W33186  14.041  37.058  11.117
68026W        W33187  41.580  12.367  11.204
68027W        W33188  19.286   2.396   0.988
68028W        W33189   1.712  26.930  14.005
68029W        W33190   6.644  39.986   0.744
68030W        W33191  39.365  18.036   3.231
68031W        W33192  40.589  10.306  12.568
68032W        W33193  16.822  28.043   0.849
68033W        W33194  43.493  17.063  12.081
68034W        W33195  41.804  11.463  13.903
68035W        W33196  23.975   9.004   4.898
68036W        W33197  19.643  26.201  13.524
68037W        W33198  33.416  42.850   2.715
68038W        W33199  31.670  32.315  11.329
68039W        W33200  28.060  15.593  14.130
68040W        W33201   1.846  24.277  10.590
68041W        W33202  17.638  31.694  10.412
68042W        W33203  16.245  42.333   0.549
68043W        W33204  24.539   5.598  12.490
68044W        W33205  39.368  25.779   4.156
68045W        W33206  16.163  43.439  10.186
68046W        W33207  36.877  31.043  13.275
68047W        W33208   1.890  36.144   3.409
68048W        W33209  15.073  44.177   5.033
68049W        W33210   3.231   5.254  13.706
68050W        W33211   7.864  35.063   2.261
68051W        W33212   6.378  11.760  10.646
68052W        W33213   1.291  42.895   5.043
68053W        W33214   3.221   3.139   2.048
68054W        W33215   5.770   0.091   4.463
68055W        W33216  20.504  36.462   1.147
68056W        W33217  26.305  21.761   9.476
68057W        W33218  42.097  16.572  10.665
68058W        W33219  20.774   0.835  14.363
68059W        W33220   9.273  15.060  13.569
68060W        W33221  31.234  40.487   3.239
68061W        W33222  15.174  43.139  11.136
68062W        W33223  36.394  42.018  13.897
68063W        W33224   1.363  18.100  13.864
68064W        W33225  24.968  24.949  14.191
68065W        W33226  13.249  19.426  12.575
68066W        W33227  29.485  12.746  14.860
68067W        W33228  41.931  42.683  14.865
68068W        W33229  28.822  33.840  13.954
68069W        W33230  28.216   6.050   5.102
68070W        W33231  22.192   0.200  13.835
68071W        W33232  19.589  44.769   3.746
68072W        W33233   3.947  21.488   3.725
68073W        W33234  26.503  21.312   4.105
68074W        W33235  23.608  14.480   3.592
68075W        W33236  32.666   6.054  11.560
68076W        W33237   0.952  24.592   3.130
68077W        W33238  27.078  39.521  13.837
68078W        W33239  21.327  15.335  13.170
68079W        W33240  11.093   2.914  12.375
68080W        W33241  44.283  18.381  11.576
68081W        W33242   3.471   6.379   1.655
68082W        W33243  42.498  12.462  11.157
68083W        W33244  18.360  10.044  12.067
68084W        W33245   6.149   0.554   0.595
68085W        W33246   9.243  25.408   3.196
68086W        W33247  19.990  44.037   1.379
68087W        W33248  17.734   4.217   4.325
68088W        W33249   3.196  16.042   2.270
68089W        W33250   5.054  14.752   4.964
68090W        W33251   3.305   7.921   2.458
68091W        W33252  17.646  44.242  11.023
68092W        W33253   0.375   0.857  12.847
68093W        W33254  16.996  21.958  11.271
68094W        W33255   8.469  38.826  12.082
68095W        W33256  13.868  16.801  13.386
68096W        W33257  19.782  33.640  12.096
68097W        W33258  24.554   5.290   2.822
68098W        W33259  10.408  26.010  11.113
68099W        W33260  41.896  44.355   4.668
68100W        W33261  38.566   9.131   1.698
68101W        W33262   6.733   5.319   0.239
68102W        W33263   8.004  16.362  14.928
68103W        W33264   0.579   2.866  13.422
68104W        W33265  38.455  22.192  13.037
68105W        W33266  43.184  10.945   4.592
68106W        W33267   4.243  32.118   4.574
68107W        W33268  44.213  41.925   0.583
68108W        W33269  43.736  27.613   2.188
68109W        W33270   6.923   2.675  14.341
68110W        W33271  14.149   0.981  14.862
68111W        W33272   2.675  15.062  14.553
68112W        W33273  28.082  31.647  12.014
68113W        W33274   7.181  38.021   3.014
68114W        W33275   9.204  41.295   3.909
68115W        W33276  28.958  10.810   4.075
68116W        W33277  12.732  16.249   4.216
68117W        W33278  29.027   6.888  14.576
68118W        W33279  19.652   3.194   4.488
68119W        W33280  39.739  20.036   4.482
68120W        W33281  17.724  26.918  11.756
68121W        W33282  11.370  42.785   0.754
68122W        W33283  18.037  27.913   1.454
68123W        W33284  19.553   3.981  11.248
68124W        W33285   5.290  36.507  14.335
68125W        W33286  42.151  37.955   3.801
68126W        W33287  16.605  41.604  12.446
68127W        W33288   1.755  20.814  11.332
68128W        W33289  30.624  28.679   4.264
68129W        W33290  35.224   0.669   0.215
68130W        W33291  43.280  19.561   1.711
68131W        W33292  19.753  10.167   4.165
68132W        W33293  43.290  38.311   0.573
68133W        W33294  19.912  40.424  14.622
68134W        W33295  24.978  14.130  14.861
68135W        W33296   2.038  17.752   4.620
68136W        W33297  30.750  24.570   2.198
68137W        W33298  32.885  16.078   2.798
68138W        W33299  29.077  43.330   1.747
68139W        W33300  14.773   5.808  13.836
68140W        W33301  39.385  31.890  13.300
68141W        W33302  27.101  42.242  11.714
68142W        W33303   0.242  24.269   2.270
68143W        W33304   2.784  44.337   0.707
68144W        W33305  37.603  32.869  14.876
68145W        W33306  29.177  41.061   2.899
68146W        W33307  39.393  33.031   4.644
68147W        W33308  10.947  35.974   2.912
68148W        W33309  42.984  38.547  12.468
68149W        W33310   2.723  35.955  14.863
68150W        W33311   2.564  24.566   0.860
68151W        W33312  41.179   9.714  13.853
68152W        W33313  17.192  14.036  13.493
68153W        W33314  35.043  25.237  12.986
68154W        W33315   2.152  35.153  13.948
68155W        W33316  34.171  40.074  10.247
68156W        W33317  35.492   6.265   4.233
68157W        W33318  39.380  25.655   0.733
68158W        W33319  27.596  22.606   0.475
68159W        W33320  13.089  13.811   1.652
68160W        W33321  40.051   6.675  14.213
68161W        W33322   9.386  10.407  12.236
68162W        W33323  34.023  15.629  11.435
68163W        W33324  31.072  36.384   2.962
68164W        W33325   2.262  30.542   0.553
68165W        W33326   5.238  40.211  10.680
68166W        W33327  12.095  36.095   3.264
68167W        W33328  31.592  15.809   3.850
68168W        W33329   6.278  31.602  11.172
68169W        W33330  36.888  12.030   3.223
68170W        W33331  25.632   2.952  12.398
68171W        W33332   7.187  17.064   0.239
68172W        W33333   0.916  38.019   0.589
68173W        W33334  42.904  14.393   3.176
68174W        W33335   5.857   4.236  11.507
68175W        W33336   3.267  32.206  10.806
68176W        W33337   1.119  35.396  12.943
68177W        W33338  31.005  27.756   2.608
68178W        W33339  17.531  18.807   0.752
68179W        W33340  17.907  39.851  12.637
68180W        W33341  39.533  14.631  12.465
68181W        W33342  35.392   5.318   3.212
68182W        W33343  20.652  37.831  12.642
68183W        W33344  21.432  24.943   0.347
68184W        W33345  23.284   7.345   4.473
68185W        W33346  42.791  40.024   0.623
68186W        W33347   9.305  34.046   2.648
68187W        W33348  31.379  11.648  13.030
68188W        W33349  23.410  43.823   4.512
68189W        W33350  41.827   3.484   2.660
68190W        W33351   7.788  22.556  13.287
68191W        W33352  28.902   4.871  11.781
68192W        W33353  12.645  12.755   1.215
68193W        W33354  10.211  42.771   4.397
68194W        W33355  28.682  30.336  12.392
68195W        W33356  30.053   5.798  14.446
68196W        W33357  12.593   3.129   2.253
68197W        W33358   2.829   5.353  14.086
68198W        W33359  22.570  35.354  14.664
68199W        W33360  44.392  19.222   4.120
68200W        W33361  31.199  12.382   1.874
68201W        W33362  10.336  29.669   0.959
68202W        W33363   7.435  32.656  11.590
68203W        W33364  32.940  18.047   1.813
68204W        W33365  33.000  16.891  14.928
68205W        W33366   9.286  24.757   3.683
68206W        W33367  22.010   7.830   1.321
68207W        W33368  36.040  33.399  12.096
68208W        W33369  17.140  26.116  14.362
68209W        W33370  22.559  31.063   1.993
68210W        W33371   1.628  25.015   2.636
68211W        W33372   5.121  14.361   5.408
68212W        W33373  21.428  11.711  14.936
68213W        W33374   1.506  13.261  12.093
68214W        W33375  17.049   1.835   4.115
68215W        W33376  24.976  15.578   1.977
68216W        W33377  35.785  13.760   3.721
68217W        W33378   8.878  23.501  11.607
68218W        W33379  26.831  14.734  11.241
68219W        W33380  38.591  10.299   1.251
68220W        W33381  12.037  41.005   0.714
68221W        W33382  40.762  24.227   0.965
68222W        W33383  42.709   1.669  14.845
68223W        W33384  14.842  37.070  13.896
68224W        W33385  20.340  42.302   1.703
68225W        W33386  24.688  15.680   1.563
68226W        W33387  32.679  20.170  13.899
68227W        W33388  40.168  30.627  12.479
68228W        W33389  17.272  32.385   4.358
68229W        W33390   1.438  37.067  12.849
68230W        W33391  16.055  43.255   3.311
68231W        W33392  12.532   9.790  12.780
68232W        W33393  13.640  35.400  10.537
68233W        W33394   8.960  14.230  13.016
68234W        W33395   2.340  33.965   3.859
68235W        W33396  38.144   7.821   1.229
68236W        W33397  19.021  34.405  11.223
68237W        W33398  42.478   8.607   2.787
68238W        W33399  16.277   1.103   2.377
68239W        W33400  15.721   6.376   5.181
68240W        W33401  14.139  43.377   0.384
68241W        W33402  13.222  34.033   1.395
68242W        W33403  26.821  27.040   2.659
68243W        W33404  43.454  16.461   0.480
68244W        W33405  23.460   3.149  11.424
68245W        W33406  37.666  22.542   2.795
68246W        W33407  19.271   6.727   1.857
68247W        W33408  31.565  15.661   3.364
68248W        W33409   6.222  32.559   0.811
68249W        W33410  17.732  15.900   9.812
68250W        W33411   6.822   8.940   2.583
68251W        W33412  13.423  31.561   3.793
68252W        W33413  20.502  26.230  12.904
68253W        W33414  27.765  27.135   3.644
68254W        W33415  42.315  15.823   4.520
68255W        W33416  33.469   0.946   3.304
68256W        W33417  15.528  14.209  14.553
68257W        W33418   8.825   9.916  14.721
68258W        W33419  28.990  25.782   2.563
68259W        W33420  42.520  11.986   1.189
68260W        W33421  27.101  17.870   1.802
68261W        W33422  18.237  12.622   2.655
68262W        W33423  42.954  32.131   4.198
68263W        W33424  38.803  21.426  11.651
68264W        W33425   5.862  44.709   3.180
68265W        W33426   0.829   7.593   0.043
68266W        W33427  30.037   7.002  12.083
68267W        W33428   1.286  44.246  13.273
68268W        W33429  29.473  18.265   0.362
68269W        W33430   8.278   2.451  12.247
68270W        W33431  42.629  42.518   1.658
68271W        W33432  21.741  43.399  13.907
68272W        W33433  22.319   3.446  13.040
68273W        W33434  31.598  11.684  12.130
68274W        W33435  43.596  36.458   2.194
68275W        W33436  30.475  16.255  14.457
68276W        W33437  12.309  43.906  11.499
68277W        W33438   4.842  41.955  10.232
68278W        W33439  43.924   8.979   3.262
68279W        W33440  32.535   2.485   5.010
68280W        W33441   9.466   6.337   0.864
68281W        W33442  37.016  12.344   2.823
68282W        W33443  17.630  37.229   1.780
68283W        W33444  44.668  41.317   1.924
68284W        W33445  40.440  27.071   2.349
68285W        W33446  28.154  41.084  14.873
68286W        W33447  39.162  13.638   5.070
68287W        W33448  36.519  36.050   3.829
68288W        W33449   0.349  17.588  14.520
68289W        W33450  30.643  43.416   3.788
68290W        W33451   4.340  30.065  14.000
68291W        W33452  18.158  20.182  11.217
68292W        W33453  38.986  39.554  12.880
68293W        W33454  16.656  42.864   1.343
68294W        W33455   8.949  26.107  12.443
68295W        W33456  21.715  23.445  13.895
68296W        W33457   1.183   0.280  10.934
68297W        W33458  35.588  16.762   3.340
68298W        W33459  19.518   8.264   2.963
68299W        W33460  31.396   0.404  12.031
68300W        W33461  20.091   0.026  11.952
68301W        W33462   5.368  36.074   4.499
68302W        W33463   3.996  12.158   1.887
68303W        W33464   4.836  20.612  13.854
68304W        W33465   9.348  37.993  13.431
68305W        W33466  15.608   6.543  10.533
68306W        W33467  31.893  26.284   4.924
68307W        W33468  22.549  43.278   4.174
68308W        W33469  36.045   0.463   4.787
68309W        W33470  19.937   7.574   3.571
68310W        W33471   7.729   9.026  11.409
68311W        W33472  26.688  25.036   9.848
68312W        W33473  10.024  37.417   3.720
68313W        W33474  12.904  18.075   2.877
68314W        W33475  38.442   6.791  10.702
68315W        W33476  30.947  39.179   9.759
68316W        W33477  20.503  34.404  10.181
68317W        W33478  24.716  19.576   2.273
68318W        W33479  11.479  26.532   0.948
68319W        W33480   6.095  35.521   2.977
68320W        W33481  21.819  33.935   4.478
68321W        W33482  30.394  17.756  14.994
68322W        W33483  33.521   2.920   1.702
68323W        W33484  18.980  35.816   2.729
68324W        W33485  34.499  20.002  10.724
68325W        W33486   3.145  10.346  14.517
68326W        W33487  11.087  21.681  14.388
68327W        W33488  18.765  25.586   1.919
68328W        W33489  25.476  31.577  14.030
68329W        W33490  12.319  32.664  10.738
68330W        W33491  17.246  13.644   4.217
68331W        W33492  21.003  28.759   3.800
68332W        W33493   8.743   6.860   1.263
68333W        W33494  38.330  43.742   2.074
68334W        W33495  35.514   1.901  13.136
68335W        W33496  26.664  43.522   2.335
68336W        W33497  20.037  17.768   0.364
68337W        W33498  29.534  33.557   2.603
68338W        W33499  24.801  39.787   4.392
68339W        W33500  36.517   5.235   4.682
68340W        W33501  15.581  16.709   4.721
68341W        W33502  36.527   2.993  13.379
68342W        W33503  25.921  25.411  13.517
68343W        W33504   4.801  43.690  12.589
68344W        W33505   7.351  35.120   2.381
68345W        W33506  42.572  19.881   5.073
68346W        W33507   7.150   2.385   2.630
68347W        W33508  17.230  19.568  14.400
68348W        W33509  38.411  29.835   1.781
68349W        W33510  41.903  13.230   1.689
68350W        W33511  30.900  37.238  10.810
68351W        W33512  28.910  34.296  12.389
68352W        W33513   0.739  43.776   4.789
68353W        W33514   5.590  21.085  14.541
68354W        W33515  15.689   2.228  13.530
68355W        W33516  11.225  14.776  13.527
68356W        W33517   1.869  38.989   1.912
68357W        W33518  35.487  22.630   3.837
68358W        W33519  13.277  44.663   3.175
68359W        W33520  27.083  37.796   1.718
68360W        W33521  39.214  33.106   4.051
68361W        W33522   0.711  36.963  12.100
68362W        W33523  41.060  25.465  10.591
68363W        W33524  12.017  20.647   2.228
68364W        W33525  27.704  28.462   0.264
68365W        W33526  21.948  21.579   1.461
68366W        W33527   6.508  32.344  12.546
68367W        W33528  28.980  28.479  14.961
68368W        W33529  24.960  24.727   1.932
68369W        W33530  25.156  40.358  14.567
68370W        W33531  32.910  18.467   4.196
68371W        W33532  30.257   1.881   2.169
68372W        W33533  33.922  31.213   3.304
68373W        W33534  29.568   8.405   2.873
68374W        W33535  22.731  38.448   5.008
68375W        W33536   8.190  19.648   4.669
68376W        W33537   9.457  25.958  12.068
68377W        W33538  37.825   8.332  13.032
68378W        W33539  44.897  29.663   4.169
68379W        W33540  37.129   7.396  11.364
68380W        W33541  27.135  14.692  10.807
68381W        W33542  37.431  16.123  14.343
68382W        W33543  39.356  28.393  13.431
68383W        W33544  26.588  24.959   1.814
68384W        W33545  11.552  17.563   4.132
68385W        W33546  26.977  37.025   2.471
68386W        W33547  16.953   0.554  11.641
68387W        W33548  33.059   4.316  14.732
68388W        W33549  33.349  15.211   4.962
68389W        W33550  29.463  18.327   4.219
68390W        W33551  21.731  29.247   1.360
68391W        W33552   6.224   4.762   1.908
68392W        W33553  39.167  20.616  14.977
68393W        W33554  25.593  15.036  10.464
68394W        W33555   0.500   5.372  12.529
68395W        W33556  42.963  20.558   4.833
68396W        W33557  11.358  44.280   1.712
68397W        W33558  41.771   9.245  10.842
68398W        W33559  31.376   7.836   2.732
68399W        W33560  37.607  13.275  10.976
68400W        W33561  35.027   4.977   3.732
68401W        W33562  32.006  27.731  12.577
68402W        W33563  18.367  38.944   4.118
68403W        W33564   2.258  34.169  14.504
68404W        W33565   9.754   6.781  12.683
68405W        W33566  23.986   0.794  13.140
68406W        W33567  38.985  40.303  11.197
68407W        W33568  30.999   8.670   3.286
68408W        W33569  26.678  14.661  12.522
68409W        W33570  25.952  24.280   4.063
68410W        W33571  38.921  29.393   0.373
68411W        W33572  31.714  44.315  12.804
68412W        W33573  11.424  28.096  14.409
68413W        W33574  20.148  30.392  14.421
68414W        W33575  41.779   2.552   2.712
68415W        W33576  15.068  30.066   0.978
68416W        W33577   1.781  42.067  14.489
68417W        W33578  28.691   1.335   4.202
68418W        W33579  18.658  41.274   0.776
68419W        W33580   7.350  11.253   4.816
68420W        W33581  13.886  39.528  11.530
68421W        W33582   7.948  26.626   5.471
68422W        W33583  32.374  11.808   0.302
68423W        W33584  39.649   2.022   5.650
68424W        W33585  36.839  31.077   2.228
68425W        W33586  22.773  31.555  14.396
68426W        W33587  20.951  20.876  13.061
68427W        W33588  25.745   5.443  14.910
68428W        W33589  32.134  15.751   0.368
68429W        W33590  33.592  17.557  10.718
68430W        W33591  20.468   3.014   1.827
68431W        W33592   7.218   0.238   0.905
68432W        W33593  37.198  44.522   1.268
68433W        W33594  12.006  30.054   1.237
68434W        W33595   6.413  23.711  11.510
68435W        W33596  27.170   0.088  12.878
68436W        W33597   4.891  42.135  11.769
68437W        W33598  34.080  18.044  11.561
68438W        W33599  41.846   8.718   0.393
68439W        W33600  37.490  37.360   4.808
68440W        W33601   9.266  16.084  12.601
68441W        W33602  21.341   6.750  13.985
68442W        W33603   5.884  42.451   0.975
68443W        W33604  14.416  16.724  13.333
68444W        W33605  23.086   1.238   9.858
68445W        W33606  17.257  38.514  11.988
68446W        W33607   0.683  41.732   1.216
68447W        W33608  44.485  30.193   3.606
68448W        W33609   4.287  24.120   2.813
68449W        W33610  23.919   1.304  13.008
68450W        W33611  12.886   5.604   3.353
68451W        W33612  36.810  23.093  14.080
68452W        W33613  39.835   0.708   4.026
68453W        W33614   8.577  37.121  11.241
68454W        W33615   1.493   9.447  12.372
68455W        W33616  15.253  35.841   1.746
68456W        W33617  10.286  38.839   4.114
68457W        W33618  27.660  36.857   0.968
68458W        W33619  29.242  24.641  12.584
68459W        W33620  15.497  27.142   4.209
68460W        W33621  35.021  22.227  10.728
68461W        W33622  21.607  25.784   5.599
68462W        W33623  25.708  39.221   3.650
68463W        W33624  33.981  10.744   0.374
68464W        W33625  19.795  37.581  12.914
68465W        W33626  19.829   0.814   0.957
68466W        W33627  41.465  28.679   0.276
68467W        W33628   2.731  39.112  14.810
68468W        W33629  11.778  23.947  12.204
68469W        W33630  34.342  26.042   2.187
68470W        W33631  17.300  15.217   1.410
68471W        W33632  23.460   6.716   1.391
68472W        W33633  13.280  37.639  11.515
68473W        W33634  23.679  20.107  13.960
68474W        W33635   1.010  18.680   3.278
68475W        W33636  39.506  15.172   1.925
68476W        W33637  44.821  42.206  14.111
68477W        W33638  13.794  33.804   0.961
68478W        W33639   7.451  28.752  12.673
68479W        W33640  43.527  18.668   2.617
68480W        W33641  20.591   1.246  10.746
68481W        W33642  38.902  41.659   3.196
68482W        W33643  34.780  41.408   5.025
68483W        W33644  36.413   8.567  11.876
68484W        W33645  32.465  26.620   1.183
68485W        W33646  25.169  25.994  13.611
68486W        W33647   8.841  23.525  10.701
68487W        W33648   1.839  33.526  11.195
68488W        W33649  35.066   1.152   1.349
68489W        W33650  19.598  33.572   1.051
68490W        W33651   5.658  34.347  14.853
68491W        W33652  44.029  19.109  12.469
68492W        W33653   1.876   5.041  11.211
68493W        W33654  29.550  29.118  14.950
68494W        W33655  22.181  30.689   2.289
68495W        W33656  33.088  44.843  10.924
68496W        W33657   1.360  31.493  11.042
68497W        W33658   7.847  35.502  13.919
68498W        W33659  15.289   5.803  13.797
68499W        W33660  10.832  12.606  10.296
68500W        W33661  29.506  27.661   2.317
68501W        W33662  26.213  15.516   0.302
68502W        W33663  38.486  33.016  12.733
68503W        W33664  10.944  19.781  14.534
68504W        W33665  34.849  40.263   2.825
68505W        W33666  36.147   5.473   3.726
68506W        W33667  34.521  43.234   2.179
68507W        W33668  32.452   5.235   5.030
68508W        W33669  32.014  15.692  10.480
68509W        W33670   4.851  35.371   4.108
68510W        W33671  33.439  29.517  10.722
68511W        W33672  21.574  34.451  14.932
68512W        W33673  26.749  36.457  13.971
68513W        W33674  21.716  14.632   4.555
68514W        W33675  12.566  43.399   0.229
68515W        W33676  34.319   7.135   0.440
68516W        W33677  13.121  36.041  10.949
68517W        W33678  24.329  21.592   3.199
68518W        W33679  29.113   3.702   2.658
68519W        W33680  23.609   6.858  13.394
68520W        W33681  41.384  20.308   2.699
68521W        W33682  15.324   7.665  14.843
68522W        W33683   3.263  30.383   1.316
68523W        W33684  39.244  37.644  10.684
68524W        W33685  34.572  37.315   2.848
68525W        W33686  19.813  29.824   2.874
68526W        W33687  39.273  22.575   0.975
68527W        W33688   0.870  38.151  13.348
68528W        W33689  36.983  19.442  10.813
68529W        W33690   3.355  24.363  13.449
68530W        W33691  23.870  19.303  10.961
68531W        W33692  12.891  15.683  10.693
68532W        W33693  15.715  28.180   0.357
68533W        W33694   1.267  29.028   0.366
68534W        W33695  25.907  14.399  10.327
68535W        W33696  39.468  41.206  12.844
68536W        W33697  25.568   4.886  10.475
68537W        W33698  10.255  14.868   3.220
68538W        W33699   0.040  19.242   1.935
68539W        W33700  10.442  43.431   1.349
68540W        W33701  10.694  44.526   3.113
68541W        W33702  14.586  16.681  12.846
68542W        W33703  17.822  44.298   1.514
68543W        W33704  26.617  40.834   1.984
68544W        W33705  15.254  38.838   0.569
68545W        W33706   5.868  43.715   4.543
68546W        W33707  18.533  10.897  12.895
68547W        W33708  44.811  35.789  13.634
68548W        W33709  10.397   0.433   0.952
68549W        W33710   0.943  35.575  14.095
68550W        W33711  42.411   6.502  13.464
68551W        W33712  40.373   9.838   2.245
68552W        W33713   6.151   3.883  12.644
68553W        W33714  39.371  33.534   1.909
68554W        W33715  31.950  10.589   0.272
68555W        W33716   3.132   3.627   2.869
68556W        W33717  15.629  14.792   1.776
68557W        W33718  42.830  29.178  12.129
68558W        W33719  23.074   8.913  14.407
68559W        W33720  40.826  17.166  13.088
68560W        W33721  43.000  22.316   0.738
68561W        W33722   4.300   5.898   2.314
68562W        W33723  38.060   1.304  14.239
68563W        W33724  21.183  36.593   1.781
68564W        W33725  22.640  41.544  13.072
68565W        W33726   7.440  44.310  12.863
68566W        W33727  39.906   2.393  14.334
68567W        W33728   4.431  10.061  10.916
68568W        W33729  15.531  40.310  13.339
68569W        W33730  26.436  37.918  11.684
68570W        W33731  23.551  27.535   3.861
68571W        W33732  30.159   3.375  13.632
68572W        W33733  15.812  20.518   0.414
68573W        W33734  15.136  27.526  13.242
68574W        W33735   0.968  17.379   0.862
68575W        W33736  11.086  26.018   0.229
68576W        W33737  25.956  32.551  14.971
68577W        W33738  15.702  33.747  13.615
68578W        W33739   6.750  39.098  14.829
68579W        W33740  21.450  11.031   0.528
68580W        W33741   7.144  38.457   3.764
68581W        W33742   3.217  29.076   2.550
68582W        W33743  24.118  26.943   1.815
68583W        W33744   4.321   3.073   1.950
68584W        W33745  24.648  34.637   2.342
68585W        W33746  27.695  19.163   1.470
68586W        W33747  28.476  18.214  10.712
68587W        W33748   2.433  39.965  14.918
68588W        W33749  24.995   5.413  11.130
68589W        W33750   3.193  22.867  10.433
68590W        W33751   8.294  15.245  11.403
68591W        W33752  24.449   4.941   3.683
68592W        W33753   9.039  19.199   2.297
68593W        W33754  22.235  41.759   2.209
68594W        W33755   2.395   3.209   4.615
68595W        W33756  16.574  15.558   4.890
68596W        W33757   5.215  27.958   3.328
68597W        W33758  42.278  28.598   3.763
68598W        W33759   5.954  22.657   4.732
68599W        W33760  37.832  15.096  12.970
68600W        W33761  15.139  39.842  13.170
68601W        W33762  31.866  30.563   1.215
68602W        W33763   2.409  23.377   4.161
68603W        W33764  21.554  30.873  11.015
68604W        W33765  40.323  35.186  11.230
68605W        W33766  16.654  16.426  13.304
68606W        W33767   0.358  24.019  12.431
68607W        W33768  39.877  29.599  13.413
68608W        W33769  25.294  22.051   1.823
68609W        W33770   5.270  27.947  12.898
68610W        W33771  20.267  38.639  12.772
68611W        W33772  19.774  19.641  11.668
68612W        W33773  15.338  13.810   3.192
68613W        W33774  43.227   0.658  14.078
68614W        W33775  38.851  41.308  14.904
68615W        W33776  35.453  22.357   0.154
68616W        W33777  24.033  13.880   0.727
68617W        W33778  25.183  17.925   3.245
68618W        W33779   3.015  11.860  11.648
68619W        W33780  29.471   3.925   2.382
68620W        W33781  13.044  10.904   1.663
68621W        W33782  26.911  14.377   2.330
68622W        W33783   9.988  22.229   3.237
68623W        W33784  41.849  30.749  11.585
68624W        W33785  36.381  33.947  12.417
68625W        W33786  32.080  31.005   0.792
68626W        W33787  40.438  44.284   4.082
68627W        W33788  36.878   4.760  14.699
68628W        W33789  26.087  13.223   2.693
68629W        W33790   7.947   2.382   3.704
68630W        W33791  42.983  34.212  10.461
68631W        W33792  32.373  35.913  14.206
68632W        W33793  31.806   4.812   1.431
68633W        W33794  11.574   3.628  11.170
68634W        W33795   7.895  44.864   4.115
68635W        W33796  18.791   6.864  14.022
68636W        W33797   7.373   5.423  14.397
68637W        W33798  39.111  36.590   0.879
68638W        W33799   9.949  44.518  12.868
68639W        W33800  32.148   1.353  12.486
68640W        W33801  41.002  36.075   0.023
68641W        W33802  39.731   2.195   0.374
68642W        W33803   2.433  41.472   0.936
68643W        W33804  11.443  10.773   0.760
68644W        W33805  30.377  29.683  12.973
68645W        W33806  32.822  24.581  12.498
68646W        W33807  34.046  37.715   2.230
68647W        W33808  29.943  36.908  11.540
68648W        W33809  36.831  34.473   1.617
68649W        W33810  23.479   7.693   0.967
68650W        W33811  37.821  20.368  11.180
68651W        W33812  30.511  21.058   3.569
68652W        W33813  40.978  10.147   3.378
68653W        W33814   5.952  29.566  14.405
68654W        W33815  18.746   5.157   2.499
68655W        W33816  41.892  35.888   2.428
68656W        W33817  24.901  33.333  11.939
68657W        W33818   8.654  32.811  13.937
68658W        W33819  38.927  12.565  10.498
68659W        W33820  34.901  34.508   3.257
68660W        W33821  33.572  44.924  10.012
68661W        W33822  42.289  22.727   0.746
68662W        W33823  21.627   1.475  12.564
68663W        W33824  18.606  25.079  14.539
68664W        W33825  10.308  18.184   4.113
68665W        W33826   4.950   9.937   2.829
68666W        W33827   2.833  16.355  14.412
68667W        W33828  43.044  12.710  11.963
68668W        W33829  21.579   4.619  13.303
68669W        W33830  40.635  19.594  10.685
68670W        W33831  35.226  20.083   3.194
68671W        W33832   2.647  29.435  10.739
68672W        W33833   9.180  23.261   2.838
68673W        W33834  21.236   0.163   1.380
68674W        W33835  14.325  33.633  14.755
68675W        W33836  11.179  37.770   0.503
68676W        W33837  23.816  27.710  13.672
68677W        W33838   0.438  20.518   4.397
68678W        W33839  12.643  32.571  11.597
68679W        W33840  31.894  44.894  13.006
68680W        W33841  24.604  28.636   2.896
68681W        W33842   6.814   0.213   2.237
68682W        W33843  13.078  40.257   9.763
68683W        W33844  35.112  41.460   1.475
68684W        W33845  30.121  11.466  14.417
68685W        W33846  39.515  36.769   1.835
68686W        W33847   7.737  17.137  12.888
68687W        W33848   5.355  36.396   1.449
68688W        W33849  29.583  21.679  12.869
68689W        W33850  21.225  15.357   1.275
68690W        W33851  13.156  23.916  10.750
68691W        W33852  21.819   2.388   1.214
68692W        W33853  44.518   5.870   0.063
68693W        W33854  36.428  43.237  14.887
68694W        W33855  39.750   4.467  12.981
68695W        W33856  27.581  36.941  11.737
68696W        W33857  42.028  22.318  11.091
68697W        W33858  24.634  16.979  14.748
68698W        W33859   3.199  14.819   3.610
68699W        W33860  12.678  30.945  13.272
68700W        W33861  32.634  15.229   3.654
68701W        W33862  10.060  32.124  11.083
68702W        W33863  29.985   4.953  14.834
68703W        W33864  39.748  24.080   3.893
68704W        W33865  21.928  26.414   2.182
68705W        W33866  14.569  10.361   0.329
68706W        W33867   1.273  12.233  13.927
68707W        W33868   0.050   5.726   3.348
68708W        W33869  24.782  32.511   3.703
68709W        W33870  33.249  30.173   2.744
68710W        W33871  36.437  36.859  10.299
68711W        W33872  26.955  37.054  13.307
68712W        W33873  17.130  42.831   4.838
68713W        W33874  19.721   5.402   3.120
68714W        W33875   5.879  27.430   3.147
68715W        W33876   9.798  23.768   0.343
68716W        W33877  39.328  33.503   0.983
68717W        W33878  17.527  27.137   1.698
68718W        W33879  29.198  19.312   1.953
68719W        W33880  23.659  21.555  12.885
68720W        W33881  14.366  13.776   1.324
68721W        W33882  14.293  25.527  14.271
68722W        W33883  42.227  33.731   2.851
68723W        W33884   1.913  40.079  13.086
68724W        W33885  43.565   8.479  14.863
68725W        W33886  34.055  21.430   2.791
68726W        W33887  41.431  41.242  12.588
68727W        W33888  22.722   0.447  12.890
68728W        W33889  19.376  14.157  11.139
68729W        W33890  12.970  40.664  11.640
68730W        W33891  38.484  43.836   1.579
68731W        W33892  14.235  21.868   0.877
68732W        W33893  15.547  39.149   2.282
68733W        W33894   3.049  40.342   2.037
68734W        W33895  10.304  20.037   5.041
68735W        W33896  25.530  12.285  12.833
68736W        W33897  31.669  38.130  14.784
68737W        W33898  28.190  15.656  12.015
68738W        W33899  42.428  25.126  11.647
68739W        W33900   7.071   2.546  12.845
68740W        W33901  31.154  18.674   1.525
68741W        W33902  24.461  35.319   3.133
68742W        W33903  44.898  32.879   0.231
68743W        W33904  39.563   0.229   3.264
68744W        W33905  13.362  19.796   4.963
68745W        W33906   6.420  34.855   0.876
68746W        W33907  40.540   5.152  13.539
68747W        W33908  22.260  19.645   0.292
68748W        W33909   8.052  17.148  13.305
68749W        W33910  39.719  17.633  10.579
68750W        W33911   8.091  13.346   0.381
68751W        W33912  42.183  18.595  13.391
68752W        W33913   2.408  35.498  12.597
68753W        W33914  25.959  44.723   2.648
68754W        W33915  43.257   8.800   4.659
68755W        W33916  31.833   7.681  13.552
68756W        W33917   1.162  24.321  11.197
68757W        W33918  21.133   4.931   5.020
68758W        W33919   7.086  11.886   0.300
68759W        W33920  36.354  36.920  14.729
68760W        W33921  28.663  12.195  10.747
68761W        W33922   0.477  44.203  11.555
68762W        W33923   1.745   8.769   2.178
68763W        W33924  14.388  24.582  13.793
68764W        W33925  23.963  27.080  12.925
68765W        W33926  26.129  37.800   0.447
68766W        W33927  18.797  15.709  14.051
68767W        W33928  19.663   8.813   4.810
68768W        W33929  23.154  31.268  11.558
68769W        W33930  36.605   7.771   1.256
68770W        W33931  30.251  41.089   1.777
68771W        W33932   5.671   5.924  13.483
68772W        W33933  19.132  18.914   1.299
68773W        W33934  44.248  29.405  13.152
68774W        W33935   5.609  24.192   0.256
68775W        W33936  36.655  44.871   3.642
68776W        W33937  35.351  24.217   2.359
68777W        W33938  42.997   4.857   3.230
68778W        W33939  22.751   7.386   2.631
68779W        W33940  34.972  39.837   0.809
68780W        W33941  44.241  12.071   2.987
68781W        W33942   8.223  42.024   1.426
68782W        W33943  14.348   8.892   3.755
68783W        W33944  25.148   0.580  10.513
68784W        W33945  13.346  33.904  11.146
68785W        W33946  18.415  10.122   2.034
68786W        W33947   5.752  27.017  10.063
68787W        W33948   9.344   0.822   0.935
68788W        W33949  44.393   7.655  10.528
68789W        W33950   2.447  23.977  11.724
68790W        W33951   5.805  34.620   1.273
68791W        W33952   7.686  35.744  14.381
68792W        W33953  21.631  28.130  13.709
68793W        W33954   6.759  44.216  12.915
68794W        W33955  40.070  23.959  10.841
68795W        W33956  21.934  11.214  11.557
68796W        W33957  17.574  23.089   0.380
68797W        W33958  33.816   2.343   4.162
68798W        W33959   6.177  21.141  11.607
68799W        W33960  30.703   0.240   3.304
68800W        W33961  26.849  43.777   0.163
68801W        W33962  29.605  40.457   0.209
68802W        W33963  19.844  44.957   4.158
68803W        W33964  16.153  27.454  11.860
68804W        W33965   0.466  29.141   0.831
68805W        W33966   0.456  33.359  14.835
68806W        W33967  31.797  44.275   2.335
68807W        W33968  27.368   6.579   4.698
68808W        W33969  34.893   2.482  11.145
68809W        W33970   3.697  34.381   1.429
68810W        W33971  26.855  15.321  13.946
68811W        W33972  28.122  13.774  10.346
68812W        W33973  40.344   9.132  13.383
68813W        W33974  25.091  12.830  11.149
68814W        W33975  20.442   4.384   2.552
68815W        W33976  12.922  22.714   2.294
68816W        W33977  36.010  10.111  10.888
68817W        W33978  10.301  31.240   3.277
68818W        W33979  17.096   1.916   4.639
68819W        W33980  23.663   2.347   4.607
68820W        W33981   5.945  38.931  14.593
68821W        W33982  42.375  26.154   1.830
68822W        W33983  24.513  37.509  14.489
68823W        W33984  41.336  25.202  13.376
68824W        W33985   4.182  29.864   2.577
68825W        W33986  14.757  31.023  13.068
68826W        W33987  18.947  41.071   4.648
68827W        W33988   9.233  23.639  13.543
68828W        W33989  44.753  18.608   1.090
68829W        W33990  19.249  23.492   1.398
68830W        W33991  42.280  42.422   1.277
68831W        W33992  23.649  13.398   0.318
68832W        W33993   5.591   1.680  11.589
68833W        W33994   6.764  44.218   2.183
68834W        W33995  18.133  34.926  14.331
68835W        W33996   1.152  10.310  12.314
68836W        W33997  29.431  15.026   1.810
68837W        W33998  23.172  25.501  13.611
68838W        W33999  44.397  29.869  11.890
68839W        W34000  20.099  41.078  10.922
68840W        W34001  10.651  14.152  10.767
68841W        W34002   1.179   9.350  14.427
68842W        W34003  25.207  31.957  11.407
68843W        W34004  34.142  23.480  14.788
68844W        W34005  15.060  22.288  12.393
68845W        W34006  37.508  41.397   0.661
68846W        W34007  28.235  25.174  14.001
68847W        W34008  21.610  20.614   2.646
68848W        W34009   1.767   0.698   2.200
68849W        W34010  38.946  44.317  13.906
68850W        W34011  25.547  20.633   2.587
68851W        W34012  27.785  35.501   0.685
68852W        W34013  36.848  36.628  12.926
68853W        W34014  43.986   0.969  13.515
68854W        W34015  21.333  33.406   2.837
68855W        W34016  43.348  36.057   0.734
68856W        W34017  31.169   1.405  13.555
68857W        W34018  10.341  13.609  11.528
68858W        W34019  12.899  28.145  14.303
68859W        W34020  41.574  37.265  14.477
68860W        W34021  20.171  38.349  11.268
68861W        W34022  20.828  30.422   3.309
68862W        W34023  30.065   1.741  11.887
68863W        W34024   2.382  25.714  12.107
68864W        W34025  13.782  16.244   1.143
68865W        W34026   9.149  21.783  12.514
68866W        W34027   6.407  22.250  11.882
68867W        W34028  34.573   3.336   4.368
68868W        W34029   7.290  40.329  11.958
68869W        W34030  44.253  38.307  10.300
68870W        W34031  36.637  11.251  12.594
68871W        W34032  10.172  41.232   4.190
68872W        W34033   7.253  27.626   2.120
68873W        W34034   0.920   4.329   1.511
68874W        W34035   5.681  13.041   1.661
68875W        W34036  38.500   7.936  14.817
68876W        W34037  22.274  32.588   3.805
68877W        W34038  27.769   0.941   0.886
68878W        W34039  15.510  24.985   0.501
68879W        W34040  41.019  29.931  14.999
68880W        W34041  31.145  20.344  11.034
68881W        W34042  44.190   3.741  10.948
68882W        W34043  40.114  10.568   0.387
68883W        W34044   9.674  25.924   2.396
68884W        W34045   8.348   4.249   0.026
68885W        W34046  35.117   1.749   4.063
68886W        W34047   5.083  11.855   5.095
68887W        W34048  43.446  17.811  14.290
68888W        W34049   0.343   0.661  10.587
68889W        W34050  18.824  38.825   4.336
68890W        W34051  10.710  19.584   3.441
68891W        W34052  15.727   5.368   1.358
68892W        W34053  22.287  24.989   3.587
68893W        W34054  12.864  10.364   3.750
68894W        W34055  33.648  16.311  12.924
68895W        W34056  32.393  10.364   0.833
68896W        W34057  33.945  36.152   1.346
68897W        W34058  13.721   8.301   0.165
68898W        W34059  27.208   8.752   2.683
68899W        W34060  28.164  16.927   3.614
68900W        W34061  42.085  14.882  11.433
68901W        W34062  31.630   8.821  14.103
68902W        W34063  39.762  38.355   3.708
68903W        W34064  30.405  14.622  11.613
68904W        W34065  13.787  10.901  12.454
68905W        W34066  18.843  21.041   4.505
68906W        W34067  32.822   7.479   1.522
68907W        W34068   6.441  42.894  14.938
68908W        W34069  28.201   4.160  12.181
68909W        W34070  36.956  28.425   4.983
68910W        W34071  33.821  25.186   2.333
68911W        W34072  13.824   4.214  11.515
68912W        W34073  41.267  30.240  11.301
68913W        W34074  11.615  13.873  14.730
68914W        W34075  13.296  29.230  13.425
68915W        W34076   0.452  38.036   0.843
68916W        W34077  40.329  40.775  10.111
68917W        W34078  16.919  13.113   2.665
68918W        W34079  15.211  42.904   4.370
68919W        W34080  15.363  16.554   9.520
68920W        W34081  44.233  25.688  10.693
68921W        W34082   8.365  15.431  12.824
68922W        W34083  27.578  16.701  14.268
68923W        W34084   3.503  21.118   1.387
68924W        W34085   4.043  22.159  11.122
68925W        W34086  22.845  11.178   3.749
68926W        W34087  19.295  38.296   4.624
68927W        W34088  33.675  28.341   1.695
68928W        W34089  27.424  20.154  13.075
68929W        W34090  20.282  13.715  12.893
68930W        W34091   8.410  26.534  13.997
68931W        W34092  39.620   9.395   2.677
68932W        W34093  12.180  37.858   1.457
68933W        W34094   5.453  35.020   4.260
68934W        W34095   1.722  29.104   2.135
68935W        W34096   1.700   1.992   1.937
68936W        W34097  41.485  12.907   1.605
68937W        W34098  17.501  26.120  12.505
68938W        W34099  21.147  39.081   0.989
68939W        W34100   8.453  37.971   3.234
68940W        W34101  15.423  23.848  13.710
68941W        W34102  30.977  43.304   1.737
68942W        W34103   6.431   0.958   5.086
68943W        W34104  14.380  37.059  12.523
68944W        W34105  38.813  24.976   1.855
68945W        W34106   2.538  21.530  14.875
68946W        W34107  21.714  22.225   0.842
68947W        W34108  43.156  37.967  10.360
68948W        W34109   6.732  33.648   0.483
68949W        W34110   9.861  16.647   4.428
68950W        W34111  29.217   2.509  14.331
68951W        W34112  14.386  34.456   2.440
68952W        W34113  23.486  13.085  10.831
68953W        W34114  19.640  10.371  13.969
68954W        W34115   4.347  21.695   0.764
68955W        W34116  28.728  10.687   3.629
68956W        W34117  19.184  12.687   0.793
68957W        W34118  37.373  27.207   1.872
68958W        W34119  40.495  14.343   4.240
68959W        W34120  26.096  18.087   3.706
68960W        W34121   4.223  29.100   1.170
68961W        W34122  17.281  17.114  13.917
68962W        W34123  16.719  28.156   0.356
68963W        W34124  36.727  41.466   1.873
68964W        W34125  10.555  27.254   4.959
68965W        W34126  37.097  40.783  10.836
68966W        W34127  28.669  19.459  14.524
68967W        W34128  28.691   2.679  14.270
68968W        W34129   4.628   8.561  13.955
68969W        W34130  39.075  11.057  13.480
68970W        W34131  31.330  44.218   2.746
68971W        W34132  13.867  33.618   2.194
68972W        W34133  32.806  25.138   4.768
68973W        W34134  38.265  14.096   3.648
68974W        W34135  36.995  30.709   0.161
68975W        W34136  38.887  39.415   3.222
68976W        W34137  18.074  29.568  11.660
68977W        W34138  29.497  10.132   5.015
68978W        W34139  12.930  10.258  12.067
68979W        W34140  20.233  33.675  14.380
68980W        W34141  31.562  14.300  14.557
68981W        W34142   8.890  44.939  14.954
68982W        W34143  37.396  33.159   1.892
68983W        W34144   0.441  44.697   2.766
68984W        W34145  23.119  10.871  11.094
68985W        W34146   3.402  33.845  13.442
68986W        W34147  30.125  12.229  12.976
68987W        W34148  27.934   0.305   1.794
68988W        W34149  20.062  19.636  10.127
68989W        W34150  24.728   2.836  12.484
68990W        W34151  28.016  28.117   4.048
68991W        W34152  11.729   7.956   3.966
68992W        W34153  41.474   1.782  12.979
68993W        W34154  24.654  15.366   2.352
68994W        W34155  38.852  26.453  13.976
68995W        W34156  15.893   5.737  14.555
68996W        W34157   4.771  28.721  12.543
68997W        W34158  31.407  13.426   2.803
68998W        W34159  35.682  43.071  12.152
68999W        W34160  28.435  18.727  13.286
69000W        W34161   1.824  27.234  14.797
69001W        W34162   1.286  31.853  13.318
69002W        W34163  36.023  14.268   4.930
69003W        W34164  32.164  29.569  11.761
69004W        W34165   8.592  14.269   3.072
69005W        W34166  25.851  19.110  11.770
69006W        W34167  27.648  14.280   4.053
69007W        W34168  18.982  33.925   3.767
69008W        W34169   4.748  21.529   0.454
69009W        W34170   7.007  23.710   2.270
69010W        W34171  13.597  22.070   1.205
69011W        W34172  18.918  12.386  11.555
69012W        W34173   2.042  18.524  12.611
69013W        W34174  40.637  34.478  10.793
69014W        W34175  36.927  34.943  12.166
69015W        W34176   5.445  39.309   3.747
69016W        W34177  21.721  17.908  11.968
69017W        W34178  14.858   2.646   2.949
69018W        W34179  32.955  39.387  13.948
69019W        W34180  22.046  14.409   3.148
69020W        W34181  20.222  10.057  10.952
69021W        W34182   7.699  13.746  14.476
69022W        W34183  10.141  36.738  13.076
69023W        W34184  43.063  25.487   4.147
69024W        W34185  20.001   5.331   4.681
69025W        W34186  12.081  27.029   0.426
69026W        W34187  26.939  39.479   1.639
69027W        W34188   9.373  35.851   1.700
69028W        W34189  17.578  14.984  11.972
69029W        W34190   6.597  28.655  13.687
69030W        W34191  18.126  38.028   1.773
69031W        W34192   3.413  38.873  12.169
69032W        W34193  42.670   1.564   3.153
69033W        W34194  17.866   6.602  11.187
69034W        W34195  22.607   5.396  11.579
69035W        W34196   9.417  31.573   3.635
69036W        W34197  35.446  43.238   4.603
69037W        W34198  25.268  32.423   2.155
69038W        W34199  32.863  30.038  14.832
69039W        W34200  26.603  34.078  10.859
69040W        W34201  10.714  22.135  12.582
69041W        W34202  30.599  34.355  11.520
69042W        W34203  17.069  27.128   3.638
69043W        W34204  12.176   2.564  12.987
69044W        W34205   9.710  43.591   0.812
69045W        W34206  29.988   2.370  10.729
69046W        W34207   5.206  18.844  14.748
69047W        W34208  21.714  11.324   4.193
69048W        W34209  44.485  19.751   0.399
69049W        W34210  24.008   8.369   4.581
69050W        W34211  18.616  28.036  14.790
69051W        W34212  39.639   1.506   2.820
69052W        W34213   7.837  38.038   1.844
69053W        W34214  33.909  16.383  14.937
69054W        W34215  12.871  44.720   4.196
69055W        W34216  38.300  12.509   3.991
69056W        W34217   0.292  17.377  13.054
69057W        W34218  11.350   1.351  10.699
69058W        W34219  25.585   1.337  14.326
69059W        W34220  12.791  11.438  13.442
69060W        W34221   9.180  15.414   3.793
69061W        W34222   8.315  40.751  14.991
69062W        W34223  33.803  20.702   3.320
69063W        W34224  39.035  21.089  10.749
69064W        W34225  33.928  20.525   3.840
69065W        W34226   9.141   5.643  10.968
69066W        W34227   0.003   7.435   1.418
69067W        W34228  33.755  35.781  12.173
69068W        W34229  41.891  10.270  10.710
69069W        W34230  16.682  36.839   0.346
69070W        W34231  25.704  27.527   4.519
69071W        W34232   7.674  20.149  11.423
69072W        W34233  43.339   8.003  11.306
69073W        W34234  35.787  12.553  11.202
69074W        W34235  35.159  24.106   0.744
69075W        W34236  37.457  24.606   2.162
69076W        W34237  25.251   9.035   4.587
69077W        W34238  18.567  38.602   3.329
69078W        W34239  14.839  12.781   1.812
69079W        W34240  14.778  28.735  11.921
69080W        W34241  19.417  17.523  11.635
69081W        W34242  25.178  41.046  10.202
69082W        W34243   7.287   2.941   1.795
69083W        W34244  37.487   6.910   2.222
69084W        W34245  38.403  40.795   1.541
69085W        W34246  39.140  33.073   1.255
69086W        W34247   9.406  27.795   9.995
69087W        W34248  37.345  43.716  11.059
69088W        W34249  20.586   9.753   3.777
69089W        W34250  37.401   2.937  12.125
69090W        W34251  40.751  11.454   3.816
69091W        W34252  34.485   7.698   1.555
69092W        W34253  13.124  44.908  13.957
69093W        W34254  21.354  32.149   3.127
69094W        W34255  28.511  34.073   1.274
69095W        W34256  17.714   9.823  12.365
69096W        W34257  24.679  42.671  14.620
69097W        W34258   1.890  12.073   4.719
69098W        W34259  15.705  18.169   5.233
69099W        W34260  27.674   4.847  13.392
69100W        W34261  12.709   5.401   1.956
69101W        W34262   1.238  42.079   2.934
69102W        W34263  29.977   3.014  13.300
69103W        W34264   2.276  29.114  13.042
69104W        W34265  35.843   0.255  11.016
69105W        W34266  13.633   8.092  11.631
69106W        W34267  32.009  39.558  13.052
69107W        W34268  32.520  29.579  10.975
69108W        W34269  25.521  18.433  14.933
69109W        W34270  43.418  35.839   1.185
69110W        W34271   4.253  14.137  14.261
69111W        W34272  10.262  13.827   0.436
69112W        W34273  16.129  39.117  10.632
69113W        W34274  44.959  25.170  13.334
69114W        W34275  33.427  18.280   4.733
69115W        W34276   8.555  32.373   2.806
69116W        W34277  43.363  13.770  10.607
69117W        W34278  31.680  38.451   9.966
69118W        W34279  16.509  25.488  14.487
69119W        W34280  17.690  10.638  10.990
69120W        W34281  22.976  37.374  10.731
69121W        W34282  44.071  33.945   2.513
69122W        W34283  11.584  38.108  13.179
69123W        W34284  14.174  25.606   2.344
69124W        W34285  34.573  12.913  14.383
69125W        W34286  30.957  37.854   3.569
69126W        W34287   4.923   0.993   4.138
69127W        W34288  19.046   1.793   2.305
69128W        W34289   9.862   4.233   3.274
69129W        W34290   9.893  27.291  11.139
69130W        W34291  33.689  41.074   2.428
69131W        W34292  41.854  43.339  10.815
69132W        W34293  17.530  14.267  11.500
69133W        W34294  39.442  39.521  11.561
69134W        W34295  26.650  36.261  11.168
69135W        W34296   4.998  43.502   0.911
69136W        W34297   7.715  14.250   1.935
69137W        W34298  27.604  28.024   2.307
69138W        W34299   0.791   7.178  10.297
69139W        W34300  39.414   2.273  14.457
69140W        W34301  24.020  30.702   2.278
69141W        W34302  26.959   7.942  12.917
69142W        W34303  28.716  24.692   2.276
69143W        W34304  40.958   0.272  13.572
69144W        W34305   9.702  26.693  13.526
69145W        W34306  28.777  10.848   3.172
69146W        W34307  35.332  12.582  14.039
69147W        W34308  42.484   5.767   3.241
69148W        W34309   7.169  15.052   4.501
69149W        W34310  35.623  20.600   4.327
69150W        W34311  29.586   0.508  10.846
69151W        W34312  37.281   3.758   0.461
69152W        W34313  30.649  36.904  13.859
69153W        W34314  19.821  16.178  13.407
69154W        W34315  17.595  44.829   5.340
69155W        W34316  30.384  28.014  11.598
69156W        W34317  36.322   6.459   1.778
69157W        W34318  37.713   1.525  11.762
69158W        W34319  16.037  43.746   3.639
69159W        W34320  35.366  34.795   3.140
69160W        W34321  25.642  13.683   4.507
69161W        W34322  25.502   5.605   3.893
69162W        W34323  23.497  16.837  12.527
69163W        W34324   8.166  13.863   0.441
69164W        W34325  41.741  26.653   2.134
69165W        W34326  32.077  11.380   1.842
69166W        W34327  38.074  33.496  11.482
69167W        W34328  44.277   8.444   2.674
69168W        W34329  10.390   4.300  10.897
69169W        W34330   2.703   1.286  12.948
69170W        W34331  16.332  25.979   2.350
69171W        W34332  24.164  11.777   1.684
69172W        W34333  35.947  40.438  10.763
69173W        W34334  13.684  30.877  11.515
69174W        W34335   3.271  44.837   2.420
69175W        W34336  35.472  27.254   3.982
69176W        W34337  40.349   2.676  10.595
69177W        W34338  16.667  16.914  10.240
69178W        W34339  26.007  43.947  14.818
69179W        W34340  42.305  44.269  12.635
69180W        W34341  17.809   0.327   2.802
69181W        W34342  22.066  25.062  13.435
69182W        W34343  33.922  39.257  12.021
69183W        W34344  37.837   5.958   1.070
69184W        W34345   2.953  31.983  12.974
69185W        W34346  19.403  29.508  11.917
69186W        W34347   4.414  12.268  14.608
69187W        W34348  23.472  18.359   3.921
69188W        W34349  10.082  36.422   3.026
69189W        W34350  35.621  36.271   2.808
69190W        W34351  44.936  41.589  10.853
69191W        W34352  19.289  23.968   5.443
69192W        W34353   9.698  17.252   1.414
69193W        W34354  14.781  25.722   2.703
69194W        W34355   1.367  30.619   4.502
69195W        W34356  28.491  17.134  14.720
69196W        W34357  37.512  39.988  13.338
69197W        W34358  40.363  21.480   1.221
69198W        W34359  42.330  17.336  14.007
69199W        W34360  20.167  14.485  14.891
69200W        W34361  18.077  13.360   0.357
69201W        W34362  12.746  43.328  14.736
69202W        W34363  20.038  14.276  10.755
69203W        W34364  38.038   1.371  12.809
69204W        W34365  15.833   0.493   4.272
69205W        W34366  15.531   2.334   0.948
69206W        W34367  31.642  21.203   1.338
69207W        W34368   0.681  40.459  11.100
69208W        W34369  18.496  38.797   0.559
69209W        W34370   9.315  37.472  13.411
69210W        W34371  41.429  22.326   0.790
69211W        W34372  15.036  16.758  10.513
69212W        W34373  32.743  42.400   1.389
69213W        W34374  28.520  14.559  11.401
69214W        W34375   0.260  44.438  12.502
69215W        W34376  39.455  26.007   1.824
69216W        W34377  18.482  26.024  12.445
69217W        W34378  33.420  44.220   0.337
69218W        W34379  30.870   8.964   0.244
69219W        W34380  12.605  21.308   2.359
69220W        W34381  18.799  18.097   2.521
69221W        W34382  17.533  39.251   1.945
69222W        W34383   1.471  30.489  13.381
69223W        W34384   1.484  39.866   3.720
69224W        W34385   7.419  27.896  13.062
69225W        W34386  27.673  13.946  12.655
69226W        W34387  24.007  25.600  11.578
69227W        W34388  24.089  25.990   4.125
69228W        W34389  16.500  12.688   1.278
69229W        W34390  34.149   0.203  12.523
69230W        W34391  27.295  25.943  13.112
69231W        W34392  41.468  39.931   0.900
69232W        W34393   0.910  23.051   4.501
69233W        W34394  27.440  24.737   9.525
69234W        W34395  11.903  23.934  13.129
69235W        W34396  44.883  22.560   2.912
69236W        W34397  10.231  27.058   3.571
69237W        W34398   5.343  31.003   3.757
69238W        W34399  33.654  39.837   2.351
69239W        W34400   2.800  29.136  13.054
69240W        W34401  28.394  38.937  13.895
69241W        W34402  35.061  42.877   4.970
69242W        W34403  17.002   8.848   4.608
69243W        W34404  38.293  29.959   2.272
69244W        W34405  31.457  39.121   1.876
69245W        W34406   9.798   0.779   0.710
69246W        W34407  27.637  25.313   4.072
69247W        W34408  14.619  36.406   1.047
69248W        W34409   6.903   5.303   4.142
69249W        W34410   2.962  23.540  13.492
69250W        W34411  34.772  14.129  12.153
69251W        W34412  43.493  34.702  11.650
69252W        W34413  15.338  32.156  12.155
69253W        W34414  35.447   7.382   0.461
69254W        W34415  33.129  38.027   3.645
69255W        W34416  25.735  29.953  14.822
69256W        W34417   5.489  38.736  12.564
69257W        W34418  22.765   5.469   3.594
69258W        W34419  39.703  27.695  12.951
69259W        W34420  27.011  41.829   0.001
69260W        W34421  18.113  32.926  14.878
69261W        W34422   1.460  41.710   4.243
69262W        W34423  36.357  22.196   3.797
69263W        W34424  41.514  32.257  11.619
69264W        W34425  30.549  19.690  12.627
69265W        W34426  27.338  31.103  14.735
69266W        W34427   1.824  23.223   0.705
69267W        W34428  19.560   9.613  11.413
69268W        W34429  41.878   7.281  11.640
69269W        W34430  35.420   3.566  10.937
69270W        W34431  43.958  28.716  12.867
69271W        W34432  15.218  37.397  14.455
69272W        W34433  33.570  36.056  10.264
69273W        W34434  19.528  14.648  13.405
69274W        W34435  42.000   8.885   1.416
69275W        W34436  34.538  26.318  11.935
69276W        W34437  30.116  12.891  14.312
69277W        W34438   4.745  39.909   4.697
69278W        W34439  14.286  35.426  11.113
69279W        W34440  32.423  32.150   0.643
69280W        W34441  27.683  17.342  13.386
69281W        W34442  10.404  32.465  12.628
69282W        W34443  33.489  19.264  12.990
69283W        W34444  25.812  29.419  11.562
69284W        W34445   5.735  18.046  13.365
69285W        W34446  44.545  37.567   5.164
69286W        W34447  19.163   8.979   2.278
69287W        W34448   2.857  35.876  10.662
69288W        W34449  17.625  40.535  13.748
69289W        W34450  43.873   2.601   2.305
69290W        W34451  18.350   7.653  13.568
69291W        W34452  37.627   3.814  12.324
69292W        W34453   8.479  22.478   1.197
69293W        W34454  33.522  14.948  12.686
69294W        W34455  10.377  33.082   1.870
69295W        W34456  23.977   7.243  12.607
69296W        W34457  33.195  20.030  11.085
69297W        W34458  40.887   2.167  11.991
69298W        W34459  28.079  25.429   0.278
69299W        W34460  32.898  20.259  12.490
69300W        W34461   0.495  31.110   3.738
69301W        W34462  10.485   6.431   1.009
69302W        W34463  43.518  35.060  10.355
69303W        W34464  32.858  20.978   1.745
69304W        W34465  11.156  17.264   3.992
69305W        W34466   2.948  36.123  12.315
69306W        W34467   5.427  30.979  12.648
69307W        W34468   2.269  34.685  14.996
69308W        W34469  38.603  37.394  12.933
69309W        W34470  23.452  11.179  12.870
69310W        W34471  37.660  15.647   4.267
69311W        W34472  13.602  27.544  10.783
69312W        W34473  32.704   1.918  12.626
69313W        W34474  44.106   9.382   1.779
69314W        W34475   5.911  12.587   4.153
69315W        W34476  43.580  37.902   0.749
69316W        W34477  10.043  41.393  13.569
69317W        W34478  28.736  25.664  13.317
69318W        W34479  31.124  19.160   0.731
69319W        W34480  27.596  10.555  12.843
69320W        W34481  32.911  37.757   4.449
69321W        W34482  12.223  31.204  11.651
69322W        W34483  43.743  42.805   0.723
69323W        W34484  17.786  23.747  12.503
69324W        W34485  20.100  29.058   2.691
69325W        W34486  17.491   2.409  13.660
69326W        W34487   2.437   1.281   1.787
69327W        W34488  37.368  12.335  12.679
69328W        W34489   1.418  34.932   0.725
69329W        W34490  38.361   4.687   4.164
69330W        W34491  35.568  23.329  13.964
69331W        W34492   8.506  34.858   1.678
69332W        W34493  10.816  27.834   1.526
69333W        W34494   1.885   6.376   4.182
69334W        W34495   1.538  41.074   2.937
69335W        W34496  10.405  37.311  11.603
69336W        W34497  44.491  25.540  11.123
69337W        W34498  11.827  24.177  13.605
69338W        W34499  25.966   3.288  11.651
69339W        W34500  31.655  40.308  14.711
69340W        W34501  27.024  22.473  12.973
69341W        W34502   6.770  33.846   4.527
69342W        W34503  42.696  23.826  12.511
69343W        W34504  39.995  22.058   2.677
69344W        W34505  20.252  12.861   2.642
69345W        W34506  23.104  15.217   0.541
69346W        W34507   9.274  41.959   1.798
69347W        W34508  24.102  36.809   2.507
69348W        W34509  11.096  12.142  11.630
69349W        W34510  10.488  31.299   2.444
69350W        W34511  34.914  14.839  13.366
69351W        W34512  44.115  24.965  11.205
69352W        W34513  22.449  37.616   0.356
69353W        W34514  40.703  25.038  12.965
69354W        W34515  21.280  11.699   4.738
69355W        W34516  24.684  38.486  11.853
69356W        W34517  22.340  30.119   4.512
69357W        W34518   9.485  39.355   2.868
69358W        W34519  28.508   4.716   1.719
69359W        W34520  39.826  19.696  14.321
69360W        W34521  35.013  12.224   0.229
69361W        W34522  13.419  30.455  11.416
69362W        W34523  25.711  16.066  13.920
69363W        W34524  32.947  39.071  14.872
69364W        W34525   6.173  10.707   0.322
69365W        W34526   8.091   1.583  13.905
69366W        W34527  43.665  39.587   1.876
69367W        W34528  11.743  26.639  14.494
69368W        W34529  14.894  10.299  12.199
69369W        W34530  31.329  44.151  14.548
69370W        W34531  12.806  26.411  12.356
69371W        W34532  17.885  16.378   1.926
69372W        W34533  43.338  44.776   3.266
69373W        W34534  16.840  27.718  12.893
69374W        W34535  37.115   6.736  11.974
69375W        W34536  36.784  29.680  11.542
69376W        W34537  39.943  34.875  11.432
69377W        W34538  37.339   4.241   1.720
69378W        W34539  20.364  38.869  10.341
69379W        W34540  15.861  25.065   2.423
69380W        W34541   5.171  25.883   0.296
69381W        W34542  26.730  20.843   0.868
69382W        W34543   7.203  34.641  14.916
69383W        W34544  18.208  14.111   9.894
69384W        W34545  12.980  29.839   0.369
69385W        W34546  24.202  15.896  11.119
69386W        W34547   4.054   9.598   3.675
69387W        W34548  23.522  16.920   2.885
69388W        W34549  36.553  12.119   2.733
69389W        W34550   1.531  34.241   2.815
69390W        W34551  38.858  41.295  12.138
69391W        W34552   4.637  34.455   4.169
69392W        W34553  15.545  23.744   2.352
69393W        W34554   2.174  26.087  11.548
69394W        W34555   9.311  16.068   2.342
69395W        W34556  14.067  10.328  13.508
69396W        W34557  34.011  42.430   2.603
69397W        W34558   9.370  39.827  12.072
69398W        W34559  10.857  20.044   2.664
69399W        W34560   3.732   4.766  14.074
69400W        W34561  28.445  27.306  14.435
69401W        W34562  20.512  13.744  14.318
69402W        W34563  22.208  37.417  12.992
69403W        W34564  29.765  41.113   5.422
69404W        W34565   7.286  28.677   3.574
69405W        W34566  18.530  31.330   4.315
69406W        W34567   1.656  25.145   0.743
69407W        W34568  28.697  33.151   4.146
69408W        W34569  39.503  19.322  12.529
69409W        W34570  39.376  37.438   0.304
69410W        W34571  41.738  26.118  14.801
69411W        W34572   8.019  24.612   1.823
69412W        W34573  36.968   4.949   1.337
69413W        W34574  36.244  20.024   1.485
69414W        W34575  21.785  17.429   1.989
69415W        W34576  43.987  29.974   2.773
69416W        W34577  28.200  16.194  13.376
69417W        W34578  20.309  37.966   4.178
69418W        W34579  23.772  10.703   0.105
69419W        W34580  33.955  13.036   3.665
69420W        W34581   7.006  34.853  11.153
69421W        W34582  37.812  27.085   0.687
69422W        W34583  18.254   6.890  12.025
69423W        W34584  18.649  33.604  11.278
69424W        W34585   6.718  11.577   3.329
69425W        W34586  28.272   6.787  14.967
69426W        W34587   9.185  29.426   4.982
69427W        W34588  29.976  36.417   3.266
69428W        W34589  34.089   2.183  11.284
69429W        W34590  37.985  32.026  14.920
69430W        W34591  22.632  33.480   1.978
69431W        W34592  42.856  22.075   1.208
69432W        W34593  22.268  42.448  10.785
69433W        W34594  27.673   5.040  14.741
69434W        W34595  30.215  13.622  11.649
69435W        W34596   7.355  29.837   0.592
69436W        W34597  34.666  20.248   4.906
69437W        W34598   0.987  15.123   4.357
69438W        W34599  11.872   4.754  11.596
69439W        W34600   5.085  15.975   4.913
69440W        W34601  15.370   6.217  14.893
69441W        W34602  17.211  42.328  10.487
69442W        W34603  12.817   8.629  10.697
69443W        W34604  15.166  44.765   0.501
69444W        W34605   9.296  33.837   1.656
69445W        W34606  44.269  43.507  14.877
69446W        W34607  18.136  35.560  12.125
69447W        W34608   0.065  35.828  12.623
69448W        W34609  14.165   5.022  12.560
69449W        W34610  34.095  44.538  12.022
69450W        W34611  12.562  35.100   2.331
69451W        W34612  14.746  36.481  13.036
69452W        W34613  23.424  17.188  10.494
69453W        W34614   6.699  36.339   0.762
69454W        W34615  13.766  22.018   0.711
69455W        W34616  39.886   0.527   0.191
69456W        W34617  39.899  15.894   4.370
69457W        W34618  22.498   1.523   1.733
69458W        W34619  10.838   6.285  14.618
69459W        W34620  39.950   1.875  12.186
69460W        W34621  29.916  10.417  10.156
69461W        W34622  34.645  22.775  12.187
69462W        W34623  13.821  23.072  12.902
69463W        W34624  31.682  21.273  12.524
69464W        W34625  10.337  34.070  13.441
69465W        W34626  14.328   2.410  11.878
69466W        W34627  16.960  38.271   0.212
69467W        W34628   6.341  33.971   2.338
69468W        W34629   9.821  22.085   1.912
69469W        W34630  37.434  39.010   2.257
69470W        W34631  43.460  38.523  13.563
69471W        W34632  23.565  39.345   0.163
69472W        W34633  19.073  23.301   3.296
69473W        W34634   6.496  42.550   4.540
69474W        W34635   3.028  11.722   4.037
69475W        W34636  14.675   6.420  10.607
69476W        W34637  42.302  12.764   0.055
69477W        W34638  40.357  19.636  13.127
69478W        W34639  17.180   9.222  10.751
69479W        W34640  14.097  43.034  13.024
69480W        W34641  27.906  25.534  11.535
69481W        W34642   4.850   6.632  10.430
69482W        W34643   8.468  18.461   1.822
69483W        W34644  13.568  17.643   1.332
69484W        W34645  11.089  24.938  13.424
69485W        W34646  21.222   6.343   3.227
69486W        W34647   2.260  17.831   2.229
69487W        W34648  24.258  34.184   4.098
69488W        W34649  33.416  31.671   4.849
69489W        W34650  25.231   8.772  13.570
69490W        W34651   0.960   3.175   0.574
69491W        W34652  39.541  20.230  14.929
69492W        W34653  21.449  39.853   2.742
69493W        W34654  33.967   4.054   4.654
69494W        W34655  27.160  37.360   4.903
69495W        W34656  26.384   7.240   4.201
69496W        W34657  37.309  11.733   0.084
69497W        W34658  41.546   0.294   2.378
69498W        W34659   2.882  36.571   4.606
69499W        W34660   0.321  31.884   2.353
69500W        W34661  38.886  20.733   3.135
69501W        W34662  25.647  12.180   1.933
69502W        W34663  30.035  39.875  12.842
69503W        W34664  31.794   2.712  13.139
69504W        W34665  17.812  20.456  13.462
69505W        W34666  36.012   8.046   3.687
69506W        W34667   5.731   0.869  12.090
69507W        W34668  43.256   9.341  11.605
69508W        W34669  34.617  36.290   0.340
69509W        W34670  25.157  20.727  13.452
69510W        W34671  28.087  29.252   4.944
69511W        W34672  15.046  14.616  11.602
69512W        W34673  39.374  10.065  14.403
69513W        W34674  33.104  21.150   3.041
69514W        W34675  36.136  27.762   0.428
69515W        W34676   5.695  16.222   0.577
69516W        W34677   1.508  33.553   1.870
69517W        W34678  20.688  29.061   0.591
69518W        W34679  32.085   6.648  13.511
69519W        W34680  37.942  27.685  11.580
69520W        W34681   9.344  44.159   0.055
69521W        W34682  44.810  26.799  11.185
69522W        W34683  24.618  43.289  14.522
69523W        W34684   0.380   0.426  12.592
69524W        W34685  13.069  36.335  11.563
69525W        W34686  33.854  31.496   4.420
69526W        W34687  42.383   6.229  12.564
69527W        W34688  40.741  27.473  14.525
69528W        W34689  13.271   3.263   0.479
69529W        W34690  26.000   7.392  13.486
69530W        W34691  26.211   5.666   2.312
69531W        W34692  13.182  42.103  14.713
69532W        W34693  23.367  13.241  12.686
69533W        W34694  23.169  32.588  14.929
69534W        W34695  39.894  20.767  12.505
69535W        W34696  13.769  19.492  12.072
69536W        W34697  33.801  20.754  14.331
69537W        W34698  44.727  26.319   0.210
69538W        W34699  41.769   4.777   4.540
69539W        W34700  33.903  26.356   4.618
69540W        W34701   9.662  29.286   1.355
69541W        W34702  23.481  26.616  13.843
69542W        W34703  36.531  12.682  10.738
69543W        W34704  24.148  23.614   2.686
69544W        W34705  36.916  21.508   1.432
69545W        W34706  39.368  19.833  11.186
69546W        W34707   6.825  20.266   1.419
69547W        W34708   4.413  11.143   0.573
69548W        W34709  10.942  21.763  12.868
69549W        W34710  41.082  26.548  14.328
69550W        W34711  42.284  27.634   3.620
69551W        W34712  36.600  20.223   3.346
69552W        W34713  13.242  39.908   4.562
69553W        W34714  19.537  32.443   4.086
69554W        W34715   7.873   2.425  14.517
69555W        W34716  39.522  35.087  11.670
69556W        W34717  25.752  28.438  11.561
69557W        W34718  31.928  29.744   3.187
69558W        W34719  13.918   2.348  11.230
69559W        W34720  16.793  24.510  14.552
69560W        W34721  42.786  25.123   2.875
69561W        W34722  14.128  34.426   1.889
69562W        W34723  17.937  10.275  10.296
69563W        W34724  30.394  26.093  11.514
69564W        W34725  43.977  20.792  11.932
69565W        W34726  10.310  30.014   3.352
69566W        W34727  29.789   6.286  11.216
69567W        W34728  17.831  39.484   2.843
69568W        W34729   7.847  13.787   1.708
69569W        W34730  29.656  42.415   0.359
69570W        W34731   2.733  34.934   3.042
69571W        W34732   6.989  19.582  10.955
69572W        W34733  34.113   8.471  11.919
69573W        W34734   2.770  11.913   0.425
69574W        W34735  41.304  41.076  14.833
69575W        W34736  16.604  30.387   1.879
69576W        W34737   4.823  18.801   0.980
69577W        W34738  19.508  40.424   3.564
69578W        W34739  15.386  21.692   1.490
69579W        W34740  26.104  18.992   4.970
69580W        W34741  12.142  35.398   4.834
69581W        W34742  29.444   4.175   3.569
69582W        W34743  19.077  44.715   1.727
69583W        W34744  19.277  15.746  14.967
69584W        W34745  29.117  28.398   1.321
69585W        W34746  19.006   1.312   0.449
69586W        W34747  33.029   4.459   3.831
69587W        W34748  16.124  39.570  14.925
69588W        W34749  21.042   9.033   3.886
69589W        W34750  19.069  36.348  12.961
69590W        W34751   2.370  14.866  14.930
69591W        W34752  39.147  26.052  11.512
69592W        W34753  44.299  24.002  13.378
69593W        W34754  23.011  13.629  12.992
69594W        W34755  43.621  20.461  11.154
69595W        W34756   9.631  15.199   1.360
69596W        W34757  26.621  31.876   0.474
69597W        W34758  38.026   4.401   4.639
69598W        W34759  16.395  26.387   0.320
69599W        W34760  44.323   6.933   2.712
69600W        W34761  41.334  36.541   3.409
69601W        W34762  20.221  41.281  13.477
69602W        W34763  14.677  35.460  10.769
69603W        W34764  44.397   6.954   3.612
69604W        W34765  38.738  35.884  12.959
69605W        W34766  23.137  32.784  12.483
69606W        W34767   3.832   7.852   4.590
69607W        W34768   0.380   9.840  13.794
69608W        W34769   8.421  22.248  12.851
69609W        W34770  41.717  39.304  14.590
69610W        W34771  30.343  13.103  14.782
69611W        W34772   4.273   4.049   0.619
69612W        W34773  44.957  40.657  11.522
69613W        W34774  28.475  20.127   4.935
69614W        W34775  29.543  28.680   1.440
69615W        W34776   7.980  15.381   3.285
69616W        W34777  15.357  31.448  14.863
69617W        W34778  31.977  22.281   4.376
69618W        W34779  12.750  24.099  13.942
69619W        W34780  24.033  30.182   2.130
69620W        W34781  38.545  28.115   4.860
69621W        W34782  13.543  30.452  12.896
69622W        W34783  29.490  25.773   2.346
69623W        W34784  21.672   9.387   3.333
69624W        W34785  27.114  44.389   2.428
69625W        W34786  35.683  41.014   0.702
69626W        W34787  28.550  29.073   3.627
69627W        W34788  13.180   0.332  14.744
69628W        W34789  15.671  29.187  13.061
69629W        W34790   4.998  14.637   1.064
69630W        W34791   8.815   1.083   2.729
69631W        W34792  22.230  28.435   1.252
69632W        W34793  35.764  25.055   4.902
69633W        W34794  27.507  27.208   3.211
69634W        W34795  27.171   4.384  12.901
69635W        W34796  28.136   1.833  14.740
69636W        W34797  31.078  41.812  11.658
69637W        W34798   1.107   4.821  10.794
69638W        W34799  15.757  35.070  12.911
69639W        W34800  26.102  32.969  11.123
69640W        W34801  38.388  25.583   4.165
69641W        W34802   2.769  10.748   1.170
69642W        W34803   1.152   4.232   3.104
69643W        W34804   1.147  29.521   3.174
69644W        W34805   7.747  13.853   3.281
69645W        W34806  37.408  10.278  14.704
69646W        W34807  22.891  43.367   0.821
69647W        W34808  10.597  24.448   3.726
69648W        W34809   1.503   5.277  11.516
69649W        W34810  33.468   5.890   4.220
69650W        W34811  21.062  40.409  11.498
69651W        W34812  30.630   4.314  10.729
69652W        W34813  37.588  32.084   2.158
69653W        W34814  32.128  13.774  13.991
69654W        W34815  10.415   8.659  10.745
69655W        W34816  13.343  11.223  11.178
69656W        W34817  23.266  20.777   1.221
69657W        W34818  16.670  44.935   1.216
69658W        W34819  28.512  28.525  13.456
69659W        W34820  28.420   6.395   1.038
69660W        W34821   4.929  30.035   2.300
69661W        W34822  33.938  39.894  11.127
69662W        W34823  37.467  40.478   2.908
69663W        W34824  13.396   6.063   0.822
69664W        W34825  39.130  26.972   2.442
69665W        W34826  40.270   8.402   3.468
69666W        W34827  37.591  33.095   2.891
69667W        W34828   3.807  42.070  14.621
69668W        W34829  36.987   6.247  13.330
69669W        W34830  24.031   0.747  14.862
69670W        W34831  20.310  30.142   2.325
69671W        W34832  19.070   0.747  10.695
69672W        W34833  38.152  21.482   1.783
69673W        W34834  26.501   4.599   0.585
69674W        W34835  28.423  15.690  11.559
69675W        W34836   7.051  23.234   3.692
69676W        W34837   3.717  42.467  13.098
69677W        W34838   3.182  39.301  14.996
69678W        W34839  23.541  40.512   3.035
69679W        W34840   6.670  32.905   0.934
69680W        W34841  35.796   8.945   2.459
69681W        W34842  30.608  16.341  11.141
69682W        W34843  40.886  14.628   4.602
69683W        W34844  38.770  30.604   2.041
69684W        W34845  28.457  19.597  13.589
69685W        W34846  30.296   4.803  11.598
69686W        W34847  33.219  34.621   0.291
69687W        W34848  19.272   4.453  14.957
69688W        W34849   6.881  11.930  13.371
69689W        W34850  19.500  18.522  12.920
69690W        W34851  42.350  34.681   2.620
69691W        W34852  29.947  35.935  12.884
69692W        W34853  35.086   2.893  10.888
69693W        W34854  16.045  23.909   4.663
69694W        W34855  20.341  24.393  14.245
69695W        W34856  35.809  42.114  14.418
69696W        W34857  40.514  16.528   4.359
69697W        W34858  15.052   7.900  11.529
69698W        W34859  32.484  22.572  14.615
69699W        W34860  42.287  20.675   2.033
69700W        W34861  44.845  30.598  12.939
69701W        W34862  35.869  11.609  14.931
69702W        W34863  38.638  32.115   0.346
69703W        W34864   5.282   7.811  12.522
69704W        W34865  34.848   3.027   3.565
69705W        W34866  30.535  34.475   1.247
69706W        W34867  14.201  18.658  14.387
69707W        W34868   5.829   4.308   4.895
69708W        W34869  41.936  27.695   5.089
69709W        W34870  24.634   9.866   2.442
69710W        W34871  28.061  16.665   2.703
69711W        W34872  15.857  29.352  12.174
69712W        W34873  36.869  18.955   4.451
69713W        W34874   4.151   1.478   3.321
69714W        W34875  16.558   0.554   3.065
69715W        W34876  26.555  16.793   0.808
69716W        W34877   8.826  43.714  13.206
69717W        W34878  23.775   1.301   1.316
69718W        W34879   5.375  22.207   4.285
69719W        W34880  34.156  32.052  12.811
69720W        W34881  43.057  12.532   2.742
69721W        W34882  23.259   4.183  13.278
69722W        W34883  25.581   7.177   0.883
69723W        W34884   3.609  11.296  10.657
69724W        W34885  10.865  38.320  12.029
69725W        W34886  10.622  30.288   2.635
69726W        W34887  30.197  41.567   1.505
69727W        W34888  16.873   7.951   2.202
69728W        W34889   3.806   1.101   3.261
69729W        W34890   4.612  14.100   4.530
69730W        W34891  37.917   1.325   0.736
69731W        W34892   0.409  35.934  14.840
69732W        W34893  22.550  16.053   0.941
69733W        W34894  35.149  29.138   4.142
69734W        W34895   5.246  40.839   4.641
69735W        W34896   9.329  17.812   0.366
69736W        W34897  11.043  15.698   1.663
69737W        W34898   1.231  26.989   2.670
69738W        W34899  15.344  27.495  11.373
69739W        W34900  30.030  32.855  10.918
69740W        W34901  22.173  40.943   1.882
69741W        W34902  15.136  10.376  10.437
69742W        W34903  16.850  30.398  12.594
69743W        W34904  32.524  36.989  11.483
69744W        W34905  14.498  30.309   3.701
69745W        W34906  11.145  39.965   1.286
69746W        W34907  14.593  24.423   3.196
69747W        W34908  24.382   3.888  13.837
69748W        W34909  42.006   7.428  12.111
69749W        W34910  35.458   3.956  11.293
69750W        W34911  17.302   6.392   4.699
69751W        W34912  12.913  27.915  12.509
69752W        W34913   0.912  17.640   0.408
69753W        W34914  25.196  15.831   3.673
69754W        W34915  11.713   6.811   4.534
69755W        W34916  16.634  21.092   1.846
69756W        W34917  38.517  19.490  13.856
69757W        W34918  40.666  14.432  14.164
69758W        W34919  44.069  40.794  13.678
69759W        W34920  40.280  36.991   2.853
69760W        W34921   0.177  16.856  13.123
69761W        W34922  41.837   1.935   0.902
69762W        W34923  43.364   7.404  12.016
69763W        W34924   9.489  38.065   2.252
69764W        W34925  13.850   7.967  13.892
69765W        W34926  34.944  11.993  12.288
69766W        W34927   4.822   5.881  12.495
69767W        W34928  16.674  16.115   0.720
69768W        W34929  23.887  28.778  13.155
69769W        W34930  18.683  27.659  13.831
69770W        W34931  20.069   1.148   3.654
69771W        W34932  18.254  29.715   3.715
69772W        W34933  25.071  28.445  11.073
69773W        W34934  35.105  36.476   0.197
69774W        W34935   9.635  23.658  13.937
69775W        W34936  13.698   6.052  10.624
69776W        W34937  24.414  14.292  12.484
69777W        W34938  11.755   1.825   1.907
69778W        W34939   4.452  12.229  12.017
69779W        W34940   9.163  34.478  14.499
69780W        W34941  29.739  35.874  13.883
69781W        W34942   8.671   7.826   2.749
69782W        W34943   0.929  39.576  12.702
69783W        W34944  10.285  10.135  12.456
69784W        W34945   2.204  33.374  13.418
69785W        W34946   2.669   3.170  13.092
69786W        W34947   9.219   2.272  12.712
69787W        W34948  33.349  17.295   4.756
69788W        W34949  31.061  11.176  14.288
69789W        W34950  19.182  42.009  12.973
69790W        W34951  31.439  28.612  14.743
69791W        W34952   9.435  40.537  14.274
69792W        W34953  15.241  15.178   3.853
69793W        W34954  17.110  26.451  13.977
69794W        W34955  32.834  15.223   0.979
69795W        W34956  30.369   4.411   3.672
69796W        W34957  13.379  39.514  11.658
69797W        W34958  18.934  21.795   9.586
69798W        W34959   5.200  20.210  14.912
69799W        W34960  26.520  27.044  12.876
69800W        W34961  25.215  16.754  11.054
69801W        W34962  27.893  41.536   4.099
69802W        W34963  30.381   5.473   3.621
69803W        W34964  34.319  40.426  13.382
69804W        W34965  15.344  33.230  14.837
69805W        W34966  30.190  44.536   3.563
69806W        W34967   4.123  17.739   4.271
69807W        W34968  13.403  44.346  13.321
69808W        W34969   9.872   0.368   3.632
69809W        W34970   4.286  23.100  10.301
69810W        W34971  16.178  44.223  10.222
69811W        W34972  30.088  25.439   0.180
69812W        W34973   9.144  37.186   2.381
69813W        W34974  22.577  33.342  11.175
69814W        W34975  15.396   1.797   0.981
69815W        W34976  18.934  18.632   0.845
69816W        W34977   1.373  20.023  14.500
69817W        W34978   4.568  23.695  11.227
69818W        W34979   0.555   4.343  14.946
69819W        W34980  36.460  12.632   0.221
69820W        W34981  16.720  11.341   0.086
69821W        W34982  13.423  31.916  12.533
69822W        W34983  14.912   0.639   5.109
69823W        W34984  37.447  21.209  12.624
69824W        W34985  43.775  28.548  13.581
69825W        W34986  20.987   2.077   4.444
69826W        W34987  28.322   4.200   0.374
69827W        W34988   4.895  16.813  14.954
69828W        W34989  14.413   5.306   2.829
69829W        W34990  33.343  35.397   4.338
69830W        W34991  17.770  13.490   4.255
69831W        W34992  44.010   4.785   3.035
69832W        W34993   9.123   5.701   0.325
69833W        W34994  40.562  27.381   4.099
69834W        W34995  28.632  27.718  11.550
69835W        W34996  18.390   0.636  12.411
69836W        W34997  28.004  44.522  11.768
69837W        W34998  29.415  31.019  14.910
69838W        W34999  24.602  40.899  12.349
69839W        W35000  33.693  20.681  13.119
69840W        W35001  13.420  30.176  13.792
69841W        W35002   4.727  12.163   2.378
69842W        W35003  31.030   3.715  13.485
69843W        W35004  29.484   3.923   2.922
69844W        W35005  23.778  34.017  13.330
69845W        W35006  27.784  31.606  11.580
69846W        W35007  27.368   4.258  14.069
69847W        W35008  28.851  39.550   5.398
69848W        W35009  33.848  26.569  11.515
69849W        W35010   8.043  40.500  13.484
69850W        W35011  24.094   8.809   1.007
69851W        W35012  21.457   2.761   1.715
69852W        W35013  39.565  34.042   1.748
69853W        W35014  27.650  15.783   0.987
69854W        W35015  26.494  12.224  11.368
69855W        W35016  33.600  19.053   4.115
69856W        W35017  10.440  33.017   3.178
69857W        W35018  42.345  35.561  14.340
69858W        W35019  22.270  26.264  11.563
69859W        W35020  24.978  33.348  11.052
69860W        W35021   4.645  39.150  10.427
69861W        W35022   9.894  18.452  13.940
69862W        W35023  17.677  20.376   0.727
69863W        W35024   6.219  25.061  14.279
69864W        W35025  44.560  17.755   0.738
69865W        W35026  25.521   2.782  13.363
69866W        W35027  40.006  28.673   3.856
69867W        W35028  12.241  28.163  13.303
69868W        W35029  40.846  17.833  14.933
69869W        W35030  42.099  16.647  14.485
69870W        W35031  33.004   0.910  14.338
69871W        W35032  18.638  33.305  13.537
69872W        W35033  32.004  23.043   2.906
69873W        W35034   2.457   0.753   1.812
69874W        W35035  16.914  23.261   2.152
69875W        W35036  19.567  15.299  14.837
69876W        W35037  37.089  24.234   0.365
69877W        W35038  35.090   6.194  14.063
69878W        W35039  20.422   5.649   0.835
69879W        W35040   6.680  14.038  14.493
69880W        W35041  25.966  42.405  14.470
69881W        W35042  13.638  35.614   4.248
69882W        W35043  11.599  12.335   2.402
69883W        W35044  23.177  10.741   2.261
69884W        W35045  40.279   2.774   2.404
69885W        W35046   9.961   0.279   0.742
69886W        W35047  17.723  40.526  11.510
69887W        W35048  37.605  31.515  13.336
69888W        W35049  41.392  19.933  14.337
69889W        W35050  44.296  35.134  13.367
69890W        W35051  27.488  24.062  10.613
69891W        W35052  40.055  38.460  12.568
69892W        W35053  30.490   3.468  11.615
69893W        W35054  30.739  24.838   5.796
69894W        W35055  37.295  39.550  14.825
69895W        W35056  12.159  22.612   1.974
69896W        W35057  36.502  11.068   1.647
69897W        W35058  14.862  13.240   0.619
69898W        W35059   4.390  13.823  12.045
69899W        W35060  33.603  40.900   0.711
69900W        W35061  37.060  24.425   2.862
69901W        W35062  12.643   1.823   1.373
69902W        W35063  35.480   3.903  13.260
69903W        W35064  26.581   2.278   2.245
69904W        W35065  38.934  25.062  11.583
69905W        W35066  41.420  26.159   0.397
69906W        W35067  20.870  43.563   0.665
69907W        W35068  23.274  28.277  10.737
69908W        W35069   2.922  38.130  10.239
69909W        W35070   3.937  30.977  13.974
69910W        W35071  27.161  27.644  14.806
69911W        W35072  32.532   4.234   3.178
69912W        W35073  37.089  29.068  14.195
69913W        W35074   2.237  18.770   0.743
69914W        W35075  39.396  39.431   3.324
69915W        W35076   5.144   9.242  12.863
69916W        W35077   4.898  37.509  13.611
69917W        W35078  20.078   1.329   3.002
69918W        W35079  25.597  15.245  14.502
69919W        W35080   3.958   9.924  11.102
69920W        W35081  12.175  39.904   0.431
69921W        W35082  22.170  13.037   3.700
69922W        W35083  16.573   0.931   1.308
69923W        W35084   8.216   2.128   4.077
69924W        W35085  38.515  34.826   3.621
69925W        W35086  33.528  36.573   3.399
69926W        W35087  39.930  13.271   4.492
69927W        W35088  18.804  37.364   5.073
69928W        W35089  17.175  12.533  14.521
69929W        W35090   8.290   4.641   1.231
69930W        W35091   3.664  30.469  10.749
69931W        W35092  26.933  42.351   1.613
69932W        W35093  40.944  26.481   2.010
69933W        W35094  21.147  10.231  14.093
69934W        W35095   3.828  39.102   2.239
69935W        W35096  32.006  40.584   4.132
69936W        W35097  14.296  15.124   2.451
69937W        W35098   8.666  25.381  13.939
69938W        W35099  30.895  23.761   0.833
69939W        W35100  40.879  18.772  10.988
69940W        W35101  38.100   7.285   4.279
69941W        W35102  15.066  10.148   1.238
69942W        W35103  42.001  26.486  14.386
69943W        W35104  32.400  30.372   2.961
69944W        W35105  34.458  41.686   2.062
69945W        W35106  31.285   8.754   3.748
69946W        W35107   8.696   0.379  11.661
69947W        W35108  17.293  44.521   4.991
69948W        W35109   0.977  14.224   4.584
69949W        W35110  22.814   5.709   0.811
69950W        W35111   3.882   2.806  13.399
69951W        W35112  23.550  39.017   1.466
69952W        W35113  38.417   7.216  13.053
69953W        W35114  10.564  39.805  13.303
69954W        W35115  17.736  29.189  11.493
69955W        W35116   2.145  41.220  11.082
69956W        W35117  23.469  39.236  13.068
69957W        W35118  34.621   5.845   0.742
69958W        W35119  44.682  11.311  14.504
69959W        W35120   3.952  11.635  14.066
69960W        W35121  21.305  11.207  12.041
69961W        W35122   4.878  26.981   1.940
69962W        W35123  42.456  22.206  11.511
69963W        W35124  23.053  36.766   4.696
69964W        W35125  23.932  44.548   0.883
69965W        W35126  39.631  15.641  12.878
69966W        W35127  15.136   4.080  12.488
69967W        W35128  20.303  14.790   2.750
69968W        W35129  33.622  19.577  10.758
69969W        W35130  22.646  17.317  13.957
69970W        W35131  15.200  23.533  11.842
69971W        W35132  28.618   5.472   3.157
69972W        W35133  18.025   6.215   3.258
69973W        W35134  10.096   9.221  14.078
69974W        W35135  44.219   3.518   3.369
69975W        W35136  16.251  32.477   3.468
69976W        W35137  42.349  32.395   3.766
69977W        W35138  19.040  40.642  14.211
69978W        W35139  18.167   4.919   4.565
69979W        W35140   6.124  21.528   0.306
69980W        W35141   5.870  39.600  12.594
69981W        W35142  11.150  23.429  13.318
69982W        W35143   2.304  37.595   3.770
69983W        W35144  34.806  10.322   1.227
69984W        W35145  36.610  43.300  13.453
69985W        W35146  24.550   2.477   1.837
69986W        W35147   2.845  10.721  12.022
69987W        W35148  38.212   0.856  11.561
69988W        W35149  22.722  31.492   0.290
69989W        W35150  36.489  32.195   4.232
69990W        W35151   6.696  44.768   1.876
69991W        W35152  11.946   9.293  13.109
69992W        W35153   1.509  29.553   4.775
69993W        W35154  11.113  18.353  12.394
69994W        W35155  40.068   0.663   1.433
69995W        W35156  38.350   3.270  11.185
69996W        W35157   4.146   4.767  10.619
69997W        W35158  35.311   3.734  12.239
69998W        W35159  22.641  23.997   0.839
69999W        W35160   5.902  24.602  13.963
70000W        W35161  26.413  25.242  11.882
70001W        W35162  29.270  39.798   3.174
70002W        W35163  41.854   2.010  14.126
70003W        W35164  16.483   3.343   3.200
70004W        W35165  17.082  22.275  14.494
70005W        W35166   3.347  44.261   3.291
70006W        W35167  34.861  14.062   2.460
70007W        W35168  36.652  26.112   0.224
70008W        W35169  38.818  14.714  12.956
70009W        W35170   9.552  37.057   1.458
70010W        W35171   0.050   7.731  14.339
70011W        W35172  11.197   9.336   1.934
70012W        W35173  18.673  34.790   0.394
70013W        W35174  22.254  39.030  13.521
70014W        W35175   0.898  41.436   2.307
70015W        W35176  21.071  13.221  11.224
70016W        W35177  27.330  34.334   4.557
70017W        W35178  44.652  16.172  11.565
70018W        W35179  41.891  37.688   4.868
70019W        W35180  22.500  39.156  13.962
70020W        W35181  40.931  33.696   0.528
70021W        W35182  36.303  25.127  10.945
70022W        W35183   5.891  21.008   1.777
70023W        W35184  23.462  38.715  13.208
70024W        W35185  42.665  40.422   4.997
70025W        W35186  26.158  36.336   3.722
70026W        W35187  14.221  37.949   3.375
70027W        W35188   8.109  29.145  14.714
70028W        W35189  13.140  41.626   2.240
70029W        W35190  40.739  37.024   1.303
70030W        W35191   0.801  16.530  14.989
70031W        W35192  44.022   9.877   4.671
70032W        W35193  31.339  42.399  14.661
70033W        W35194  41.903   6.855   2.163
70034W        W35195  11.518  18.695  10.266
70035W        W35196  18.175  40.047  14.217
70036W        W35197  34.831  28.044  12.042
70037W        W35198  35.587  24.614   1.221
70038W        W35199  42.468   7.740  11.170
70039W        W35200  32.115   6.371   2.299
70040W        W35201  12.743   5.218  10.967
70041W        W35202  32.935  40.944   3.887
70042W        W35203   4.847  30.894   9.847
70043W        W35204  26.243  34.098  11.520
70044W        W35205  25.205  40.274  11.803
70045W        W35206  29.503   9.615  11.492
70046W        W35207  17.512  10.208  10.571
70047W        W35208  28.140  18.529  11.161
70048W        W35209  15.763  20.271  10.179
70049W        W35210  14.222  13.668   4.194
70050W        W35211  31.122  24.770  12.576
70051W        W35212  44.077   0.270  14.459
70052W        W35213  29.146  22.021  14.989
70053W        W35214  14.022  36.951   0.794
70054W        W35215  30.926  22.835   2.097
70055W        W35216  17.106   0.384   4.348
70056W        W35217   1.773  12.768   0.854
70057W        W35218  36.030  43.450   1.263
70058W        W35219   0.329  34.383  10.613
70059W        W35220   4.771   4.888   4.659
70060W        W35221  44.413   6.718   4.110
70061W        W35222   0.057  26.158  11.853
70062W        W35223   9.312  13.721  11.615
70063W        W35224   5.414   8.055   4.562
70064W        W35225  21.081   6.632   3.661
70065W        W35226  20.243  14.102   1.786
70066W        W35227  23.682  15.397  14.307
70067W        W35228   5.889  24.926   4.295
70068W        W35229  19.797  20.420   3.093
70069W        W35230   1.483  16.774   1.156
70070W        W35231  15.949   4.365  12.775
70071W        W35232   9.139  23.155  13.407
70072W        W35233  34.071  13.773  11.971
70073W        W35234  34.154  14.317  14.347
70074W        W35235  43.858   6.773   2.889
70075W        W35236  14.197  16.978  12.579
70076W        W35237  23.142  11.387  11.083
70077W        W35238  17.436  31.759  14.286
70078W        W35239  16.530  14.034   0.911
70079W        W35240  15.095   6.908  12.447
70080W        W35241  22.983   1.386  12.129
70081W        W35242  14.201   2.438  14.251
70082W        W35243  30.474  30.658   0.308
70083W        W35244  44.301  35.571  14.470
70084W        W35245  10.163  26.176   3.626
70085W        W35246   6.828  44.323   1.655
70086W        W35247  28.730  30.158  12.893
70087W        W35248   5.778   2.578  13.934
70088W        W35249  10.668   2.967   1.506
70089W        W35250   5.253   8.359  14.823
70090W        W35251  38.460  37.560   3.631
70091W        W35252  10.337  38.485  11.979
70092W        W35253  11.331   5.613  13.633
70093W        W35254   4.785  34.354   2.006
70094W        W35255   1.042  38.862   3.735
70095W        W35256  11.799   3.670  12.453
70096W        W35257  29.042  26.751  14.743
70097W        W35258  20.759  14.005   3.867
70098W        W35259  15.002   0.879   3.817
70099W        W35260  28.387   7.137  12.899
70100W        W35261  23.093  21.522   0.112
70101W        W35262  21.279  30.656  13.534
70102W        W35263  39.093  26.436  11.129
70103W        W35264  28.894  43.060  13.917
70104W        W35265  43.956  40.141   4.708
70105W        W35266  29.518  29.434  14.537
70106W        W35267  19.727  17.649   4.150
70107W        W35268  34.547  15.681  13.899
70108W        W35269  12.484  19.785  11.085
70109W        W35270  43.460   7.759  13.323
70110W        W35271  29.654   8.621   1.325
70111W        W35272   2.388  29.475  14.069
70112W        W35273  38.369  23.678   2.084
70113W        W35274  16.990   0.842   0.999
70114W        W35275  29.572   5.673  12.026
70115W        W35276  12.337  26.959   4.099
70116W        W35277  10.596  27.072   0.080
70117W        W35278   6.003   3.222  10.651
70118W        W35279  14.390  17.717   2.038
70119W        W35280  12.044   5.565  14.951
70120W        W35281  18.830  43.458   1.735
70121W        W35282  36.369  18.617  12.857
70122W        W35283  37.248  29.590  12.325
70123W        W35284  42.361  28.046   4.226
70124W        W35285   6.768  28.183   4.236
70125W        W35286  15.076  26.153  12.403
70126W        W35287  30.606  32.811   1.045
70127W        W35288   7.432   0.062  12.421
70128W        W35289  44.401  10.742  12.161
70129W        W35290  34.071  20.141   0.152
70130W        W35291  35.372   2.911   0.895
70131W        W35292  39.032  33.570  14.474
70132W        W35293   5.249   2.928  11.575
70133W        W35294  43.680   4.695   2.638
70134W        W35295  14.605  23.208   0.533
70135W        W35296   5.898  28.489  10.629
70136W        W35297   1.414  13.621  11.669
70137W        W35298   3.479  33.089  11.206
70138W        W35299  10.194  44.864   4.480
70139W        W35300  21.100  36.551   3.288
70140W        W35301  20.570  39.632  10.127
70141W        W35302  15.111  15.112   2.298
70142W        W35303   0.784   9.005  10.245
70143W        W35304  25.407  10.111  10.797
70144W        W35305  41.275   1.819  11.998
70145W        W35306  11.389  15.391   2.840
70146W        W35307   6.967  24.520   0.013
70147W        W35308  35.501  38.982   2.399
70148W        W35309   3.388  17.705  10.498
70149W        W35310  33.841  38.790  12.215
70150W        W35311  16.480  11.690  14.753
70151W        W35312   0.790  41.419   0.288
70152W        W35313  24.480  23.705   4.099
70153W        W35314  14.597  38.378   0.496
70154W        W35315  44.484  31.936  13.019
70155W        W35316   6.084  11.121   0.694
70156W        W35317  16.789   0.531  12.986
70157W        W35318  10.202   5.925  13.624
70158W        W35319  26.977  20.012   0.668
70159W        W35320  26.719  15.573   4.622
70160W        W35321  39.768   3.859   1.729
70161W        W35322  19.169  20.384  11.120
70162W        W35323  25.048  11.687  12.699
70163W        W35324  28.103  23.422   2.364
70164W        W35325   8.345  19.837  14.110
70165W        W35326  31.441  10.184   0.727
70166W        W35327  25.145   2.661   2.820
70167W        W35328  16.651  43.995  14.753
70168W        W35329  14.615  25.707   1.233
70169W        W35330   5.952   1.019   0.907
70170W        W35331  14.645  39.503   4.308
70171W        W35332  19.166  31.040   0.382
70172W        W35333  17.571  37.396  12.920
70173W        W35334   3.126  38.685   3.406
70174W        W35335  21.704  22.505   2.208
70175W        W35336  32.165   2.304   1.796
70176W        W35337  25.702  17.465  14.787
70177W        W35338  34.756  41.951   4.486
70178W        W35339  21.492  33.457   1.436
70179W        W35340   9.748  21.515   1.771
70180W        W35341  10.201   4.291  11.883
70181W        W35342  33.653  22.214   3.873
70182W        W35343  23.161   3.642  10.638
70183W        W35344  20.117  20.318  14.417
70184W        W35345   3.461  27.676   4.527
70185W        W35346  29.688  17.492   1.676
70186W        W35347  40.138  31.944  13.901
70187W        W35348  16.385  29.045  12.418
70188W        W35349  39.254  30.859   1.959
70189W        W35350  14.638   9.377  12.448
70190W        W35351  42.783   7.709   1.882
70191W        W35352  32.095  18.178   0.746
70192W        W35353  42.290  27.759   1.810
70193W        W35354   0.003   6.132  10.983
70194W        W35355  23.360  13.743  11.595
70195W        W35356  32.993  32.011  10.577
70196W        W35357   0.274  19.142   1.026
70197W        W35358   2.217  36.966  11.008
70198W        W35359   9.821   1.759   3.229
70199W        W35360  27.415   2.714  11.191
70200W        W35361  34.535   8.169  10.727
70201W        W35362   4.270  29.924   1.200
70202W        W35363   5.891  30.419  14.903
70203W        W35364  25.435  19.623   1.222
70204W        W35365  11.635  38.050   0.502
70205W        W35366  31.329  32.371  12.118
70206W        W35367  41.590  34.656  12.641
70207W        W35368  25.605   2.501   1.212
70208W        W35369  21.640   8.345  11.895
70209W        W35370  41.954   2.035   1.839
70210W        W35371   6.351  14.091  11.109
70211W        W35372  12.680  14.386  13.496
70212W        W35373  32.026  35.491   1.134
70213W        W35374  38.015   8.621   2.306
70214W        W35375  16.655  37.384  13.269
70215W        W35376  30.451   3.558   2.668
70216W        W35377  11.791  18.066   3.400
70217W        W35378  37.477  26.489   3.344
70218W        W35379  12.616  23.707  12.537
70219W        W35380  37.917  18.102  13.436
70220W        W35381   2.763  39.929   1.861
70221W        W35382   3.139   2.387   4.112
70222W        W35383  28.946  43.484  14.883
70223W        W35384  42.095  42.577   4.959
70224W        W35385  37.580   8.371   0.139
70225W        W35386  37.670  40.734  11.672
70226W        W35387   6.840  25.592  11.811
70227W        W35388  12.352   3.743   4.094
70228W        W35389  22.963  19.207  12.501
70229W        W35390   2.368  15.893  11.186
70230W        W35391   5.235  14.705  12.096
70231W        W35392   0.184  29.939  11.580
70232W        W35393   6.440  26.633  12.600
70233W        W35394  34.049  12.999   2.277
70234W        W35395  36.044   6.642   0.604
70235W        W35396  21.009  10.788  11.486
70236W        W35397  16.559   8.921   0.762
70237W        W35398  31.131  29.526   4.587
70238W        W35399  35.218  34.425  10.737
70239W        W35400  21.132  26.007   0.142
70240W        W35401  39.222  15.846   3.646
70241W        W35402   3.360  34.459  10.694
70242W        W35403   4.828  13.556  12.007
70243W        W35404  36.014  27.104  10.792
70244W        W35405  31.535  17.707   3.619
70245W        W35406  39.380  14.735  13.918
70246W        W35407  14.279   8.201  10.387
70247W        W35408  10.205  22.338  13.704
70248W        W35409   4.250  14.825  12.008
70249W        W35410   0.770  13.286   3.007
70250W        W35411   8.849  22.595   0.819
70251W        W35412  11.768  38.142   3.000
70252W        W35413  23.690  26.959  14.282
70253W        W35414  10.799   7.209  10.543
70254W        W35415   6.326  31.630   3.974
70255W        W35416  38.370  20.151  14.102
70256W        W35417  38.344   7.727   1.741
70257W        W35418  39.376   8.417  13.180
70258W        W35419  43.828  42.209  13.031
70259W        W35420  43.871  42.338   0.382
70260W        W35421  23.010  28.561   0.798
70261W        W35422  29.540  23.538  12.660
70262W        W35423  35.421  35.438  10.589
70263W        W35424  33.644  38.010   3.713
70264W        W35425  28.986  35.681   0.333
70265W        W35426   3.470  28.177  14.463
70266W        W35427  29.584   9.114  11.513
70267W        W35428  17.588  24.638   2.792
70268W        W35429  44.747  40.079   2.234
70269W        W35430  24.617  20.802  14.269
70270W        W35431   6.365  26.195  12.279
70271W        W35432  32.082   5.848   2.243
70272W        W35433  25.570   2.894   2.148
70273W        W35434  31.118  18.533  12.993
70274W        W35435  12.613  27.439   1.796
70275W        W35436   9.768  19.212  14.982
70276W        W35437  13.176  37.580  13.933
70277W        W35438  33.805   4.708   1.799
70278W        W35439   3.186  19.024  14.285
70279W        W35440  34.546  27.673   1.651
70280W        W35441  35.417  21.298  14.008
70281W        W35442  33.841  32.152  12.354
70282W        W35443   2.578  19.847  11.634
70283W        W35444  35.015  17.690  13.912
70284W        W35445  31.866  44.526   4.943
70285W        W35446  18.857  14.279  12.141
70286W        W35447  30.130   9.880   0.364
70287W        W35448  39.953   3.913  14.321
70288W        W35449  16.609  39.534   2.775
70289W        W35450   9.774  30.652  10.658
70290W        W35451  28.951   4.813  11.239
70291W        W35452  14.130  11.382  14.600
70292W        W35453  36.306  41.964  12.061
70293W        W35454  42.902  11.666   4.148
70294W        W35455  27.217  22.001   1.592
70295W        W35456  25.017  37.243  11.608
70296W        W35457  31.578   9.241   0.049
70297W        W35458  15.521  12.933   1.554
70298W        W35459  14.867  41.342   2.797
70299W        W35460  18.305  19.013  14.570
70300W        W35461  19.125  11.335  11.483
70301W        W35462  40.948   5.847  14.745
70302W        W35463  10.690  42.943  14.751
70303W        W35464   2.818  19.143  13.520
70304W        W35465  34.470   3.056  14.934
70305W        W35466  28.594  30.980   0.548
70306W        W35467   3.979  15.499   1.890
70307W        W35468  34.684   1.989   2.712
70308W        W35469  15.825  36.372   0.838
70309W        W35470  32.860  43.018  14.286
70310W        W35471   9.910   1.825  11.385
70311W        W35472  25.205  12.294   2.840
70312W        W35473  23.615  16.036  14.838
70313W        W35474   0.111  38.264   5.125
70314W        W35475   7.131  35.049   1.866
70315W        W35476   7.185  19.130  11.984
70316W        W35477  32.807  41.040  13.026
70317W        W35478   9.200  12.289   4.117
70318W        W35479  33.165   8.500   3.314
70319W        W35480   5.785  27.365   0.424
70320W        W35481  29.034  37.405  11.460
70321W        W35482  21.481  41.307   3.374
70322W        W35483   3.970  26.628  13.047
70323W        W35484   9.270  13.048  13.137
70324W        W35485   8.203  36.015   1.470
70325W        W35486  32.174  12.455   0.885
70326W        W35487  12.650  30.816  11.058
70327W        W35488  20.109  12.663  11.114
70328W        W35489  43.179  33.047   1.284
70329W        W35490  18.160  22.569   2.655
70330W        W35491  44.806  31.567   0.044
70331W        W35492   9.885  20.596  11.974
70332W        W35493  12.407  19.214  12.888
70333W        W35494  40.724  38.628  11.680
70334W        W35495  34.015  36.582   3.239
70335W        W35496   1.504  16.312   1.402
70336W        W35497  18.259  34.196  12.585
70337W        W35498  15.509  22.245  14.263
70338W        W35499   5.236  21.714   3.431
70339W        W35500  40.297   2.218   1.846
70340W        W35501   0.036  40.919   1.970
70341W        W35502  30.754  31.699   2.743
70342W        W35503   9.911  28.671  13.321
70343W        W35504  23.120  11.433   4.999
70344W        W35505   2.700   4.143   0.022
70345W        W35506  32.396  39.574  11.937
70346W        W35507  14.263  27.492   0.349
70347W        W35508  38.999  35.163   0.886
70348W        W35509  31.482  36.655   4.226
70349W        W35510  34.873   4.965  12.580
70350W        W35511  38.022   3.516   1.424
70351W        W35512  32.487  21.075  14.878
70352W        W35513  18.573   4.488  13.505
70353W        W35514   8.674  18.213  14.800
70354W        W35515  38.872  21.690   3.839
70355W        W35516  40.845  18.991   1.347
70356W        W35517   2.694  23.803  13.844
70357W        W35518  21.135  32.800  10.564
70358W        W35519  27.035  17.580   0.056
70359W        W35520  43.926  41.373   0.470
70360W        W35521  39.908  15.443   4.122
70361W        W35522   3.507  38.084   4.563
70362W        W35523  41.225   2.405   0.421
70363W        W35524  16.468  12.226  13.121
70364W        W35525  35.451  17.125  14.459
70365W        W35526  14.514  18.101   0.539
70366W        W35527   3.634   2.318  12.871
70367W        W35528  14.650  29.950  10.638
70368W        W35529   6.784  15.873   2.732
70369W        W35530  32.674  38.412   1.258
70370W        W35531  28.058  37.526   0.948
70371W        W35532  22.219  12.798  14.025
70372W        W35533  36.013  29.234   3.325
70373W        W35534  40.513  13.095   3.693
70374W        W35535  39.052   4.386   4.674
70375W        W35536  20.544  15.508  12.097
70376W        W35537  14.302  29.429  11.646
70377W        W35538  11.020  15.611  12.963
70378W        W35539  27.996   9.885   1.948
70379W        W35540  24.000  38.752   1.490
70380W        W35541  16.587   1.805   4.667
70381W        W35542  37.405  34.870  12.854
70382W        W35543  40.779   7.948  10.666
70383W        W35544  27.492   2.839   2.249
70384W        W35545  42.596  16.741  14.718
70385W        W35546   5.001  16.274  10.762
70386W        W35547   4.174  33.902  11.596
70387W        W35548  27.849  32.684   2.094
70388W        W35549  11.141  13.561   1.414
70389W        W35550   2.530  34.368   3.598
70390W        W35551  37.900  22.652   2.354
70391W        W35552   3.024   7.358   2.203
70392W        W35553  41.054  44.667  11.538
70393W        W35554  26.100  43.414   4.199
70394W        W35555  38.833  28.927  12.809
70395W        W35556  28.645  23.423  14.183
70396W        W35557  16.814  28.038  12.460
70397W        W35558  18.833  43.482  10.624
70398W        W35559   9.420   9.173  11.589
70399W        W35560   6.058   5.530  12.067
70400W        W35561  32.932  29.957  12.999
70401W        W35562  23.752  36.051  12.447
70402W        W35563  19.018   6.862  10.559
70403W        W35564  33.174  27.262  11.533
70404W        W35565   0.844  25.958   0.326
70405W        W35566  19.734  18.732  14.724
70406W        W35567  38.517   6.770   4.847
70407W        W35568  23.934  16.077  13.074
70408W        W35569   0.884  27.220   0.876
70409W        W35570   6.322  35.528  14.293
70410W        W35571  33.453  43.545   4.434
70411W        W35572   6.940  15.906  14.254
70412W        W35573  16.257  10.919   1.231
70413W        W35574   7.262  37.067  14.845
70414W        W35575  27.180  10.700   0.441
70415W        W35576   9.846  13.826  12.848
70416W        W35577  24.416  39.333  12.939
70417W        W35578  25.486  13.915  14.872
70418W        W35579   5.390  33.748  11.875
70419W        W35580  18.365  18.130  12.014
70420W        W35581   9.611  29.134  13.378
70421W        W35582  10.788  41.816  14.087
70422W        W35583  18.602  40.984  13.445
70423W        W35584   5.747  18.726  11.028
70424W        W35585   2.955  26.545   3.569
70425W        W35586  33.412  44.904   3.243
70426W        W35587  41.451  23.616   0.273
70427W        W35588  44.406   6.151   1.359
70428W        W35589  27.569   9.295   3.434
70429W        W35590  40.420  13.360  11.160
70430W        W35591  20.885  21.342   3.901
70431W        W35592  19.058   7.246   0.841
70432W        W35593  29.553  13.762   2.281
70433W        W35594  22.546  20.234  11.593
70434W        W35595   8.377  35.488  11.161
70435W        W35596  28.384   5.800   2.818
70436W        W35597  20.729  11.904   4.705
70437W        W35598  36.589  14.321  11.512
70438W        W35599  34.432  38.275   1.863
70439W        W35600  22.309   8.026   0.104
70440W        W35601  39.506   3.205  11.773
70441W        W35602  44.495  32.804   3.695
70442W        W35603  16.659  16.041   4.768
70443W        W35604  25.931  23.973  12.562
70444W        W35605  27.063  16.040   4.158
70445W        W35606  26.246  16.204   3.882
70446W        W35607  38.984  37.797   0.426
70447W        W35608  25.695  39.541  13.473
70448W        W35609  38.838  29.589  14.897
70449W        W35610  34.942  36.514   3.247
70450W        W35611  44.810  28.150  12.998
70451W        W35612   1.769  12.828   3.147
70452W        W35613  43.423  12.619   3.091
70453W        W35614  31.666   6.439  14.488
70454W        W35615  26.573  22.814   2.082
70455W        W35616   1.807  29.222  11.540
70456W        W35617  12.882  20.203  13.672
70457W        W35618  34.523  11.252  14.052
70458W        W35619  35.093  37.472   1.944
70459W        W35620  39.889  23.811  12.981
70460W        W35621  37.732  37.634  11.829
70461W        W35622  10.477   1.846   4.142
70462W        W35623   2.504  12.319  12.097
70463W        W35624  39.483  43.496   1.340
70464W        W35625   8.313   6.381   4.663
70465W        W35626  32.511  19.251   2.242
70466W        W35627   8.766   7.623  11.128
70467W        W35628  36.374  13.156   1.553
70468W        W35629   1.303  10.456   3.406
70469W        W35630  14.792   2.594  10.786
70470W        W35631  21.352   5.328   0.033
70471W        W35632  19.531  32.431   0.793
70472W        W35633   4.131  33.433   2.327
70473W        W35634  29.506  22.990   1.176
70474W        W35635   7.254   7.215   0.873
70475W        W35636  21.735  17.727  13.912
70476W        W35637   1.690   4.589   2.329
70477W        W35638   1.412  41.986   4.692
70478W        W35639  11.791  34.061   3.762
70479W        W35640  16.658  28.531  14.402
70480W        W35641  28.664  44.235   2.397
70481W        W35642  23.517   9.725  14.450
70482W        W35643  22.646   0.758   4.027
70483W        W35644   9.759  40.265   4.154
70484W        W35645  33.301  10.475   3.147
70485W        W35646  40.031  37.311  14.138
70486W        W35647  41.374  25.951  12.988
70487W        W35648  38.838  34.657  14.621
70488W        W35649  30.071  44.806   4.081
70489W        W35650  16.569   9.679   0.276
70490W        W35651  42.263  26.575   3.641
70491W        W35652  31.512  18.503   1.850
70492W        W35653  19.969   9.234   4.697
70493W        W35654  27.281   9.356  12.011
70494W        W35655  34.444  11.754  13.001
70495W        W35656  23.514  20.657   4.194
70496W        W35657  21.043  24.268  12.558
70497W        W35658  43.383  42.101   0.403
70498W        W35659  22.649  14.381   0.666
70499W        W35660  28.103  20.263  11.109
70500W        W35661   7.064  34.993   0.296
70501W        W35662   5.893   8.611  14.438
70502W        W35663  10.680   9.434  14.908
70503W        W35664  10.636  23.622   2.303
70504W        W35665  21.718  24.777  11.665
70505W        W35666   9.072  15.584   1.267
70506W        W35667   9.780  27.174   2.856
70507W        W35668  43.537  31.042   2.112
70508W        W35669   6.934   3.236   3.221
70509W        W35670  24.938  13.283   2.101
70510W        W35671  20.772  44.994   0.029
70511W        W35672  10.770  27.418   4.149
70512W        W35673  12.361  15.589  10.694
70513W        W35674  10.334  25.212  14.885
70514W        W35675   8.010  35.152   0.825
70515W        W35676   7.899  28.453  14.880
70516W        W35677   5.191  32.912   2.775
70517W        W35678  24.174  28.722   2.296
70518W        W35679  20.062  32.455   0.721
70519W        W35680  15.674  18.314   4.210
70520W        W35681  37.606   5.398   3.766
70521W        W35682  28.078  38.133  12.988
70522W        W35683  35.650  32.134  12.059
70523W        W35684  14.074  33.626  11.494
70524W        W35685  25.492  41.120   2.734
70525W        W35686  14.843  14.070   1.003
70526W        W35687  12.584  30.589   1.974
70527W        W35688  36.021  25.557   2.627
70528W        W35689  12.551  36.355  11.578
70529W        W35690  27.190  16.685   0.537
70530W        W35691  23.069  10.462  13.515
70531W        W35692  28.327   7.818  11.179
70532W        W35693  13.004  19.635   2.712
70533W        W35694  42.473   6.171  14.768
70534W        W35695   8.637   2.214   0.850
70535W        W35696  26.209  29.624   0.280
70536W        W35697  26.692  38.008  13.249
70537W        W35698   6.455  43.426  14.932
70538W        W35699   0.838  31.653   0.958
70539W        W35700  21.794   1.773  14.456
70540W        W35701  24.650  13.200  13.969
70541W        W35702  43.936  34.796   1.257
70542W        W35703  37.012  20.215  13.558
70543W        W35704  14.904  34.826   2.572
70544W        W35705  36.579   2.528  14.861
70545W        W35706  27.532  40.890   0.896
70546W        W35707  24.020  29.963   4.903
70547W        W35708  39.447  10.777  12.006
70548W        W35709  15.381  42.175  13.296
70549W        W35710  35.916  16.098   2.441
70550W        W35711  43.303   1.274   4.436
70551W        W35712  40.919  39.632  12.010
70552W        W35713  12.693  24.207  14.860
70553W        W35714   1.812  28.178   1.685
70554W        W35715   8.761  44.382   4.631
70555W        W35716  41.952   7.427   1.504
70556W        W35717   7.950  10.629  13.626
70557W        W35718  15.032  43.508  13.033
70558W        W35719  42.406  22.289   4.653
70559W        W35720  30.939  37.095   4.654
70560W        W35721  36.319  40.470   3.673
70561W        W35722   7.903  29.916  12.024
70562W        W35723  15.464  21.433   2.354
70563W        W35724  13.530  16.231   2.038
70564W        W35725  40.194  44.371  10.051
70565W        W35726  41.375   3.214  11.302
70566W        W35727  36.357  13.229  14.582
70567W        W35728  42.324   2.796   0.398
70568W        W35729  41.556   6.945   3.548
70569W        W35730  13.616   2.395  10.730
70570W        W35731  13.538  20.785   4.160
70571W        W35732  28.428   3.627   0.239
70572W        W35733  34.513  33.985  14.461
70573W        W35734   8.285  10.262  13.047
70574W        W35735   6.739  18.100   4.072
70575W        W35736   1.776  19.194   2.620
70576W        W35737  43.023  13.568   3.212
70577W        W35738  39.917   0.019   0.379
70578W        W35739   3.221  19.768  12.068
70579W        W35740   5.267  26.749  14.455
70580W        W35741  20.219  24.600   3.662
70581W        W35742  42.104  26.185  13.466
70582W        W35743   1.397  37.383  11.628
70583W        W35744  17.478  32.632  13.658
70584W        W35745  14.710  38.052  14.781
70585W        W35746  43.994  11.033  14.957
70586W        W35747  39.242   6.842  13.149
70587W        W35748  10.215  12.536   0.980
70588W        W35749   8.664  25.175   3.136
70589W        W35750   6.358  15.197  13.632
70590W        W35751  15.440  37.063   1.691
70591W        W35752  18.645  40.206   0.930
70592W        W35753  24.235  18.677   3.716
70593W        W35754   4.589   0.630  10.968
70594W        W35755   8.012  44.600   2.780
70595W        W35756  37.181  33.548   4.116
70596W        W35757   9.850  30.228  11.371
70597W        W35758  35.893  31.696   4.810
70598W        W35759   0.431  14.768  10.843
70599W        W35760  13.820  12.670   4.138
70600W        W35761   2.330  16.406   3.639
70601W        W35762  38.309  14.528  12.958
70602W        W35763  31.999  38.588  11.891
70603W        W35764  34.135  23.121  13.949
70604W        W35765   1.935   7.278   1.332
70605W        W35766  10.411  33.948   4.175
70606W        W35767  11.540  41.387  11.024
70607W        W35768  17.037  26.048   3.726
70608W        W35769  10.782  36.952  11.852
70609W        W35770  25.048  24.132  13.024
70610W        W35771  20.908   5.210  13.735
70611W        W35772   2.754  15.034   0.853
70612W        W35773  20.241  30.066  10.911
70613W        W35774  35.647  37.317   4.129
70614W        W35775  38.026  20.234  11.631
70615W        W35776  35.237  31.915  10.050
70616W        W35777  33.134  18.804  11.592
70617W        W35778   3.350  41.557  11.563
70618W        W35779   5.615  33.838  14.783
70619W        W35780  31.931  21.197   2.758
70620W        W35781  44.322  30.717  10.353
70621W        W35782  41.986  11.325  14.815
70622W        W35783  37.112  13.702  14.918
70623W        W35784   3.434  11.164  12.462
70624W        W35785  27.420  38.686   2.717
70625W        W35786   0.182  13.779  13.837
70626W        W35787  22.483  39.538  11.758
70627W        W35788   9.467   5.863   2.776
70628W        W35789  10.088   1.154   0.361
70629W        W35790  20.105  18.575   2.288
70630W        W35791  42.403   5.163  14.734
70631W        W35792   7.625  37.473  13.865
70632W        W35793  41.332  14.902   4.496
70633W        W35794  34.721  18.655  11.014
70634W        W35795  24.084  33.374   4.644
70635W        W35796   5.310   4.971  14.894
70636W        W35797  37.903  41.962   3.252
70637W        W35798  24.138   1.387   2.871
70638W        W35799  22.731  37.410  11.201
70639W        W35800   1.285  23.495   1.373
70640W        W35801  21.620  25.710   2.723
70641W        W35802  17.172   7.424   4.504
70642W        W35803   8.652  31.877  11.426
70643W        W35804   8.614   5.845  12.688
70644W        W35805   2.940  32.435   4.957
70645W        W35806  26.447  35.939   4.568
70646W        W35807  33.465  35.403   2.180
70647W        W35808  39.394  14.481  14.455
70648W        W35809  34.841  30.537  12.577
70649W        W35810  37.769  13.623   4.777
70650W        W35811  10.708  14.623  14.835
70651W        W35812   9.362   3.318   1.899
70652W        W35813  32.578  37.090   0.775
70653W        W35814  20.111  31.414   1.317
70654W        W35815  36.928  12.435   3.572
70655W        W35816  21.494  20.054  14.504
70656W        W35817  27.482  24.426   1.899
70657W        W35818  34.495  14.153   1.609
70658W        W35819  31.169  19.056  12.807
70659W        W35820  19.340  44.318   3.676
70660W        W35821  34.934  16.632  10.970
70661W        W35822  23.136  44.015   2.171
70662W        W35823  29.880  10.887   1.218
70663W        W35824  30.009  37.132   2.086
70664W        W35825  38.131  36.937   0.592
70665W        W35826  33.600  18.738  12.929
70666W        W35827  42.977  41.861   2.954
70667W        W35828  33.961  39.296   3.261
70668W        W35829  26.971   7.843   2.232
70669W        W35830  34.859   6.236   3.351
70670W        W35831  24.038  13.512  12.899
70671W        W35832  10.888   7.119   0.688
70672W        W35833  18.436   0.875  11.558
70673W        W35834   0.769   3.013   4.724
70674W        W35835  43.353  44.213   1.404
70675W        W35836  14.701  30.401  10.907
70676W        W35837  23.678  40.946   9.509
70677W        W35838  44.059  22.366   0.483
70678W        W35839  18.212   1.153   0.359
70679W        W35840  23.499  18.748   0.267
70680W        W35841  20.052   4.674   3.658
70681W        W35842  26.853   4.475   3.682
70682W        W35843  43.041  28.878   2.261
70683W        W35844  36.533  30.503   0.311
70684W        W35845  12.431  18.345   4.728
70685W        W35846  13.174  29.418  12.085
70686W        W35847  22.134  36.093  11.095
70687W        W35848  44.885  38.375  14.312
70688W        W35849  23.281  12.625   3.724
70689W        W35850  13.800   5.184   0.889
70690W        W35851  20.844  25.578  12.324
70691W        W35852  43.330   3.901  13.815
70692W        W35853  22.854  23.084  13.481
70693W        W35854  27.248  28.094  14.271
70694W        W35855  16.589  21.084   0.021
70695W        W35856  23.121  40.862  11.962
70696W        W35857  29.601   4.866   3.282
70697W        W35858  16.720   5.897   3.277
70698W        W35859  35.638  41.518   0.830
70699W        W35860  40.328  38.956   1.851
70700W        W35861  37.841   7.819  14.306
70701W        W35862  37.122  29.002   1.188
70702W        W35863  42.470  43.344   3.678
70703W        W35864  29.616  44.494  13.280
70704W        W35865   3.747   0.916   4.386
70705W        W35866  14.562   0.483  13.788
70706W        W35867  34.612   3.851  10.674
70707W        W35868  26.544  40.060   4.487
70708W        W35869   5.206  33.590  13.995
70709W        W35870  13.765  21.516   0.554
70710W        W35871  10.986  11.792   0.847
70711W        W35872  19.595  36.927  10.569
70712W        W35873  21.631  31.054  12.437
70713W        W35874  34.409  17.787  11.238
70714W        W35875   4.712  28.398   4.295
70715W        W35876  13.252  32.117  12.999
70716W        W35877  10.966  23.204   2.288
70717W        W35878  43.939  11.460   0.213
70718W        W35879   9.306  11.786  14.214
70719W        W35880   8.447  30.549   3.210
70720W        W35881   3.737  38.184   4.111
70721W        W35882  39.304  25.559   4.617
70722W        W35883   9.424  33.187   3.189
70723W        W35884   9.886   0.576  10.650
70724W        W35885  29.523  22.169   1.170
70725W        W35886   1.911   7.190  13.814
70726W        W35887  14.621  23.235   3.769
70727W        W35888  26.622  30.653   4.634
70728W        W35889  41.751  19.754   3.996
70729W        W35890  16.726   6.464  11.212
70730W        W35891   0.277  39.722   0.144
70731W        W35892  15.657  13.869   2.734
70732W        W35893  26.886  24.840  14.267
70733W        W35894   0.330  11.373   3.297
70734W        W35895  44.443  16.543  11.146
70735W        W35896   3.376   3.387   2.461
70736W        W35897  15.639  11.367  13.380
70737W        W35898  39.575  36.432  13.874
70738W        W35899  20.603  16.750   1.857
70739W        W35900   1.096   5.359  12.443
70740W        W35901  24.452  15.666  14.813
70741W        W35902  43.460   5.648   1.872
70742W        W35903  34.029  18.225  14.429
70743W        W35904   1.045  28.729  14.056
70744W        W35905  26.981   6.942  13.014
70745W        W35906  20.936  32.590  11.389
70746W        W35907  21.644  22.040   1.304
70747W        W35908  29.609   0.349  13.522
70748W        W35909   9.614  32.303  13.021
70749W        W35910   8.006  29.847  13.963
70750W        W35911  38.407  42.939  10.543
70751W        W35912   3.945  14.503   1.984
70752W        W35913  28.225  27.015  13.593
70753W        W35914  38.802  12.651   1.193
70754W        W35915   9.526  18.074   4.514
70755W        W35916  29.253  26.475  12.840
70756W        W35917  19.661  36.972   1.827
70757W        W35918  44.230  40.919  11.767
70758W        W35919   9.450   7.445  14.508
70759W        W35920  13.202   7.157  12.566
70760W        W35921  43.883  22.953  13.670
70761W        W35922   5.744   1.620   4.613
70762W        W35923  19.286  15.224  14.360
70763W        W35924  39.557   7.346  13.620
70764W        W35925  12.247  33.112   0.174
70765W        W35926  41.747  29.617   1.211
70766W        W35927  22.248  39.889   0.469
70767W        W35928  19.049   8.492  14.556
70768W        W35929  20.506  28.246   2.635
70769W        W35930  22.695  36.409   2.704
70770W        W35931   3.756  44.709   4.572
70771W        W35932  34.301  25.494  10.289
70772W        W35933  42.332   7.217   4.476
70773W        W35934  10.586  24.662  11.451
70774W        W35935  24.249  15.755   1.265
70775W        W35936  14.161  24.482   2.885
70776W        W35937  13.713   7.478   0.182
70777W        W35938  43.802  24.795   0.910
70778W        W35939  27.127  30.478  11.395
70779W        W35940  37.117  42.389  13.397
70780W        W35941  30.955   3.985  13.947
70781W        W35942   2.388  30.815   3.641
70782W        W35943  15.020   1.180   3.039
70783W        W35944   3.791  37.090   2.469
70784W        W35945  10.772  30.398   4.300
70785W        W35946  31.955  40.504  12.918
70786W        W35947  35.915   4.490   2.279
70787W        W35948  10.284   2.782  11.230
70788W        W35949  43.747  20.273   3.861
70789W        W35950  35.971  44.411  12.970
70790W        W35951  29.107  19.092  14.837
70791W        W35952   3.722  13.786   3.409
70792W        W35953   2.336  32.169   3.027
70793W        W35954  40.452  37.665   2.366
70794W        W35955  31.645  44.296  14.933
70795W        W35956  18.074  27.908   4.261
70796W        W35957  42.041  19.751   5.014
70797W        W35958  20.671   9.705   1.220
70798W        W35959  10.863  24.730  14.475
70799W        W35960  31.093  12.802  14.256
70800W        W35961  29.719  12.773   2.258
70801W        W35962  18.053   8.726  11.253
70802W        W35963  26.096  25.007  13.930
70803W        W35964  40.469  20.726   3.736
70804W        W35965   1.464  14.830  14.816
70805W        W35966   8.619  27.540   2.072
70806W        W35967   3.207  31.413  14.326
70807W        W35968   7.301  34.850  14.441
70808W        W35969  25.718  22.581   2.855
70809W        W35970   9.458  26.163  12.562
70810W        W35971  33.352  16.764  12.943
70811W        W35972  17.282  37.916   2.404
70812W        W35973   9.669  44.906   3.815
70813W        W35974   9.939  26.744  14.014
70814W        W35975  32.389   2.569  13.790
70815W        W35976  32.703  36.997   3.090
70816W        W35977   3.783  19.714  10.542
70817W        W35978  28.980  38.739   2.382
70818W        W35979  29.584  33.861  11.321
70819W        W35980   7.285  24.228   0.978
70820W        W35981  32.543  20.168  14.459
70821W        W35982   6.013  38.246   2.296
70822W        W35983   5.539  19.754   3.337
70823W        W35984  16.312  36.885   3.268
70824W        W35985  24.676  16.223  11.132
70825W        W35986  33.418  12.291   2.657
70826W        W35987   9.377  12.647   2.842
70827W        W35988  30.430  38.301   3.130
70828W        W35989  44.558  36.399   2.397
70829W        W35990  36.948  39.104   0.464
70830W        W35991   0.814  41.552   3.655
70831W        W35992  27.913  26.453  10.761
70832W        W35993  24.626   4.705  10.621
70833W        W35994  31.390  41.228   4.556
70834W        W35995  24.198  25.066  12.782
70835W        W35996  12.531  24.056   3.349
70836W        W35997  17.525  42.982   1.294
70837W        W35998  11.157   7.231   1.116
70838W        W35999  21.032  40.649  12.362
70839W        W36000  40.097   7.794  11.793
70840W        W36001  23.293  21.233   9.768
70841W        W36002   1.538  34.486  13.023
70842W        W36003   8.886  21.838   1.758
70843W        W36004   8.872  44.487   0.235
70844W        W36005   4.881  15.090   4.618
70845W        W36006  22.704  21.326   4.049
70846W        W36007  41.554  30.656  11.186
70847W        W36008  10.537  33.482  12.133
70848W        W36009  25.474  39.861  11.529
70849W        W36010   6.235  29.110   1.265
70850W        W36011  29.226  42.335  12.258
70851W        W36012   6.317  18.084  11.244
70852W        W36013  36.920  23.175   2.927
70853W        W36014  33.017  41.422  13.343
70854W        W36015  15.881   8.883  11.988
70855W        W36016  24.547  14.076  12.033
70856W        W36017  18.718  23.002  10.458
70857W        W36018  13.637  22.702   3.361
70858W        W36019  22.832  16.340   0.549
70859W        W36020  34.451  16.677   2.333
70860W        W36021  41.496  23.064  10.783
70861W        W36022  19.528  35.534  11.925
70862W        W36023  34.923  26.188   3.894
70863W        W36024  44.408   1.775   0.368
70864W        W36025  15.749  37.092   4.188
70865W        W36026  16.686   4.047  13.023
70866W        W36027  25.994  18.286  11.554
70867W        W36028   6.871   0.926   0.948
70868W        W36029  29.507   3.568  10.917
70869W        W36030  39.778  38.025  12.540
70870W        W36031  40.812  27.459   2.278
70871W        W36032  19.551  20.760   2.762
70872W        W36033  40.789   2.404   4.524
70873W        W36034   4.954  14.857  11.553
70874W        W36035   1.224  26.444   3.333
70875W        W36036   8.124  37.491  13.984
70876W        W36037  10.435   3.360  13.801
70877W        W36038  12.720  36.948   3.629
70878W        W36039  11.728   8.409   4.852
70879W        W36040  35.839  35.479  11.738
70880W        W36041   4.448  42.774  13.495
70881W        W36042   8.937  11.413  11.719
70882W        W36043   5.261  40.110  14.313
70883W        W36044  43.401  34.653   4.085
70884W        W36045  32.052  17.163  11.400
70885W        W36046  37.227  27.661   2.196
70886W        W36047  11.093  16.584  14.762
70887W        W36048  20.317  31.009  13.738
70888W        W36049  16.027  32.907  10.554
70889W        W36050  22.341  33.475   3.772
70890W        W36051  30.212  19.539   0.864
70891W        W36052   8.047  22.697   2.165
70892W        W36053   6.014  37.115  12.706
70893W        W36054  37.851  36.872  10.685
70894W        W36055  38.809  23.256  12.475
70895W        W36056  20.095  10.460   2.718
70896W        W36057  14.802  12.285  13.760
70897W        W36058  16.079  11.614  13.498
70898W        W36059  29.903  13.292  10.452
70899W        W36060  16.272  28.097  11.040
70900W        W36061   6.582  14.408   2.770
70901W        W36062  42.795   2.355  11.644
70902W        W36063  25.720   1.737   4.022
70903W        W36064  27.581  22.678  12.332
70904W        W36065  29.703  30.153   1.348
70905W        W36066  26.113  36.361   2.804
70906W        W36067  10.321  21.084  12.565
70907W        W36068   6.577  42.384  12.023
70908W        W36069  35.681  40.491   4.189
70909W        W36070   6.210  44.428   3.785
70910W        W36071  16.567  41.835  11.995
70911W        W36072   3.529  20.290   4.242
70912W        W36073   6.046  18.445   0.395
70913W        W36074  13.232  39.884  12.913
70914W        W36075   6.165   7.306   1.241
70915W        W36076  41.459  38.355  12.845
70916W        W36077  16.859   9.252  11.687
70917W        W36078   9.260   7.823  12.078
70918W        W36079  16.559   1.330  13.347
70919W        W36080  34.147   3.076   4.592
70920W        W36081  30.876   1.306   2.362
70921W        W36082  25.982  30.572   4.000
70922W        W36083  12.337  21.827  11.080
70923W        W36084   6.805  13.097  11.637
70924W        W36085   3.160  11.871   0.068
70925W        W36086  22.986  43.023  14.729
70926W        W36087   0.860  36.675   2.147
70927W        W36088  38.545   8.886   0.223
70928W        W36089  44.947   9.362   4.841
70929W        W36090   1.402  20.351   4.175
70930W        W36091  36.335  16.390  12.871
70931W        W36092  21.026  40.857  14.393
70932W        W36093   9.884   3.809   0.809
70933W        W36094  27.617  26.738   3.014
70934W        W36095  39.333  41.943   4.642
70935W        W36096  42.574   7.753   3.163
70936W        W36097  26.332  33.496   1.811
70937W        W36098  35.289  30.663   2.242
70938W        W36099  19.079  31.340  11.200
70939W        W36100  23.812  33.217  14.726
70940W        W36101   1.900  40.422  13.963
70941W        W36102   3.689  16.523   3.826
70942W        W36103   4.254  16.291   2.270
70943W        W36104  31.937  43.965   1.491
70944W        W36105  22.422  35.995   0.864
70945W        W36106  14.187  36.390  14.806
70946W        W36107   9.327  26.737   3.659
70947W        W36108  42.448  27.443   0.408
70948W        W36109  17.725   4.268  12.083
70949W        W36110  29.438   6.688  10.720
70950W        W36111  30.444  21.112  12.910
70951W        W36112  38.515  23.674   2.579
70952W        W36113   8.872  33.966   0.361
70953W        W36114   0.688  29.649  13.353
70954W        W36115  17.892  42.624   5.442
70955W        W36116   1.320   4.330  13.576
70956W        W36117   1.505  29.101   3.062
70957W        W36118  33.087  13.240   0.204
70958W        W36119  36.036  40.793  14.934
70959W        W36120  19.453   4.607   3.348
70960W        W36121  27.488   8.693   4.078
70961W        W36122   2.005  39.428  14.272
70962W        W36123  19.601  18.021  12.845
70963W        W36124  19.087  30.499   2.827
70964W        W36125  19.824  20.094  13.473
70965W        W36126  19.979   5.453  10.691
70966W        W36127  11.253  42.417   3.902
70967W        W36128  16.356  22.458  13.995
70968W        W36129  12.199   4.178   4.339
70969W        W36130   5.193  33.579  12.330
70970W        W36131  43.914  43.269  13.005
70971W        W36132  32.311  44.953   0.255
70972W        W36133  38.611  26.177   0.429
70973W        W36134  30.652   6.087   1.410
70974W        W36135   6.194   0.226   4.226
70975W        W36136   2.598   4.794  10.747
70976W        W36137  37.320  27.465   3.643
70977W        W36138  41.346  36.915  11.036
70978W        W36139  20.753  44.762   4.144
70979W        W36140  40.751  18.719   2.749
70980W        W36141  19.726  42.943  12.513
70981W        W36142  33.884  41.212  10.523
70982W        W36143   0.374  18.604   4.541
70983W        W36144   4.428  30.275  11.111
70984W        W36145   3.410  42.934   1.105
70985W        W36146   8.900  44.798  12.432
70986W        W36147   9.712  30.832   4.280
70987W        W36148   2.670  28.166   4.351
70988W        W36149  43.459  25.355   0.581
70989W        W36150  18.574   1.864   2.505
70990W        W36151  35.600   5.753  14.964
70991W        W36152  37.378  22.573   2.365
70992W        W36153  15.601  31.537   0.342
70993W        W36154  32.112  40.470   1.958
70994W        W36155   7.383  16.133  12.084
70995W        W36156  26.179   2.494   3.737
70996W        W36157  28.976  35.979  11.998
70997W        W36158  31.788  17.638   3.164
70998W        W36159  24.215  28.764   1.432
70999W        W36160  40.539  37.338   0.038
71000W        W36161  31.200  29.591   2.769
71001W        W36162  33.526   3.472   0.776
71002W        W36163  21.667   7.135  11.960
71003W        W36164  44.483   8.723  13.557
71004W        W36165  26.633  29.594  11.106
71005W        W36166  29.201  22.579   1.157
71006W        W36167   8.228  28.205  11.597
71007W        W36168  18.039  14.843   0.282
71008W        W36169   4.278  23.096   4.268
71009W        W36170  26.674  36.767  11.241
71010W        W36171  27.128  19.651  14.530
71011W        W36172  32.021   4.450   3.731
71012W        W36173  28.269  32.239   4.232
71013W        W36174  29.138  15.809   0.171
71014W        W36175  23.582   1.799   1.351
71015W        W36176  15.993  39.752  12.559
71016W        W36177  12.722  20.550  14.458
71017W        W36178  41.337  16.150  11.561
71018W        W36179   2.597   5.308  11.540
71019W        W36180  43.012  23.107   4.877
71020W        W36181  21.393   4.776   2.698
71021W        W36182  35.757  14.231   0.402
71022W        W36183  13.731   5.400   0.402
71023W        W36184  38.713  27.021  10.214
71024W        W36185  25.883  29.052  12.974
71025W        W36186  23.954   4.924  13.474
71026W        W36187  16.190  22.984   4.071
71027W        W36188  23.529  34.361   1.711
71028W        W36189  22.950  22.248   1.303
71029W        W36190  15.721   8.593   4.026
71030W        W36191  19.355   9.399  12.631
71031W        W36192  27.333   7.604  11.039
71032W        W36193  38.919  17.107   0.962
71033W        W36194  39.453  37.166  11.545
71034W        W36195  12.096  16.120  12.494
71035W        W36196  19.039   3.679   3.224
71036W        W36197   3.768  38.449  11.681
71037W        W36198  39.558  19.231  11.092
71038W        W36199  27.863  39.645  14.791
71039W        W36200  33.378  31.598  13.826
71040W        W36201  44.926  33.934   0.286
71041W        W36202  33.484  35.971  12.893
71042W        W36203   1.268   7.353   3.669
71043W        W36204  22.991  39.802   0.539
71044W        W36205  37.482  14.726  12.072
71045W        W36206  38.555  29.021   0.086
71046W        W36207  39.995  31.492   4.893
71047W        W36208  28.088   7.283   0.446
71048W        W36209  27.543  31.294   4.681
71049W        W36210  35.045   4.667  10.215
71050W        W36211  20.867  25.769  10.388
71051W        W36212  27.145  23.799   2.742
71052W        W36213  39.873  39.873  12.471
71053W        W36214   0.919   9.937   0.507
71054W        W36215  22.545  35.744   4.480
71055W        W36216  12.830  41.521  10.822
71056W        W36217  42.240  41.334  11.445
71057W        W36218  28.140  10.666  14.980
71058W        W36219  11.174  33.212   3.614
71059W        W36220  18.174  23.012  14.561
71060W        W36221  26.415   4.671  12.011
71061W        W36222  44.434  25.666  12.424
71062W        W36223   5.423  24.917   4.561
71063W        W36224  28.084   2.514   4.470
71064W        W36225  36.071  20.730  13.086
71065W        W36226   4.950  30.444  13.186
71066W        W36227  26.609  20.024   2.317
71067W        W36228  37.696  15.591   0.141
71068W        W36229  41.293   4.352   0.234
71069W        W36230  38.794  31.595   0.794
71070W        W36231  31.011   4.168  14.922
71071W        W36232  27.206  31.819   1.282
71072W        W36233  17.557  18.563   3.332
71073W        W36234  31.111   2.292   0.965
71074W        W36235  30.559   4.999   4.460
71075W        W36236   0.526   2.453  13.906
71076W        W36237  27.533  23.484  12.847
71077W        W36238  30.973  15.812   1.168
71078W        W36239  33.136  20.250   2.312
71079W        W36240  33.145   6.832  14.909
71080W        W36241  14.214  43.548  12.941
71081W        W36242  27.281  14.911   5.741
71082W        W36243  42.426  19.558  12.912
71083W        W36244  16.319  44.851  14.888
71084W        W36245  20.806  40.347  11.962
71085W        W36246  25.866  40.607   5.579
71086W        W36247   9.094  39.897   0.392
71087W        W36248  24.690  16.880  11.657
71088W        W36249  35.376  41.431   3.853
71089W        W36250  20.119  44.364   3.226
71090W        W36251   1.504   0.259  12.382
71091W        W36252   1.540  11.682  13.941
71092W        W36253   7.260  37.319   0.318
71093W        W36254   1.916  16.743  12.998
71094W        W36255  12.712  27.130  10.674
71095W        W36256  19.111  34.653   0.747
71096W        W36257  26.095  26.874  12.648
71097W        W36258  22.245  42.844  14.324
71098W        W36259  14.399  33.587   2.120
71099W        W36260  23.471  40.060  13.326
71100W        W36261  39.847  41.992  10.647
71101W        W36262  13.356  20.990  14.409
71102W        W36263   2.900  30.940  14.953
71103W        W36264  41.450  36.911   0.746
71104W        W36265  10.381  21.544   2.356
71105W        W36266  37.965  15.185   0.663
71106W        W36267  33.071  17.278  14.458
71107W        W36268  31.570  18.744  11.106
71108W        W36269  26.602   4.299  14.622
71109W        W36270  14.795  15.666  14.757
71110W        W36271  38.559  42.472  10.343
71111W        W36272  40.811  43.267   4.175
71112W        W36273  22.505  30.587   4.691
71113W        W36274   0.971   8.935   1.704
71114W        W36275  19.260  44.771  13.446
71115W        W36276  12.576  40.964   0.736
71116W        W36277   6.174   1.267  13.325
71117W        W36278  34.673  23.527  11.133
71118W        W36279  14.143  36.613   1.186
71119W        W36280  20.786  40.365  14.313
71120W        W36281  42.052  17.117   2.919
71121W        W36282   9.382  40.342  13.361
71122W        W36283  30.516  25.460   0.470
71123W        W36284  10.350   1.287   2.794
71124W        W36285  22.076  39.889  13.333
71125W        W36286  27.980  17.052   2.364
71126W        W36287  35.570  32.137   2.440
71127W        W36288  26.683  10.124  10.232
71128W        W36289  27.727  34.116  11.683
71129W        W36290   8.785   3.903  12.025
71130W        W36291   7.310   9.427   2.337
71131W        W36292  12.704  13.518   1.876
71132W        W36293  15.445  37.945   5.165
71133W        W36294   0.808   3.469  12.640
71134W        W36295  12.268  17.578  12.106
71135W        W36296   1.226  31.322   3.242
71136W        W36297  33.338   7.374   0.433
71137W        W36298  27.695   2.281  11.144
71138W        W36299  44.551  18.081  12.511
71139W        W36300  20.129  41.302   2.812
71140W        W36301  18.558  43.209   2.204
71141W        W36302  35.709  37.732   4.465
71142W        W36303  23.715  32.500   0.221
71143W        W36304  26.586  33.617   0.465
71144W        W36305   8.747  11.460  14.729
71145W        W36306  18.634  37.990  13.341
71146W        W36307  38.893  11.589  11.244
71147W        W36308  32.122  38.521   1.334
71148W        W36309   1.405   3.908   0.869
71149W        W36310   0.910  10.799   2.682
71150W        W36311  16.646   2.684   4.553
71151W        W36312  16.660  40.793  12.030
71152W        W36313  38.376  10.919  11.013
71153W        W36314  26.656  44.214   1.765
71154W        W36315  36.006  18.867   0.490
71155W        W36316   9.381   3.883   0.655
71156W        W36317  27.604  16.729   2.404
71157W        W36318  40.794  15.334   3.764
71158W        W36319  42.370   4.717  12.898
71159W        W36320  40.243  26.288   1.692
71160W        W36321  39.306   5.597   4.260
71161W        W36322   5.267  27.994   0.285
71162W        W36323  19.232   5.943  14.999
71163W        W36324   4.303   2.523   3.697
71164W        W36325  38.495  35.452  12.861
71165W        W36326  41.704  20.633  11.586
71166W        W36327  32.177  32.160   2.207
71167W        W36328   5.705  42.031  11.049
71168W        W36329  17.934  42.913   0.990
71169W        W36330  29.059  13.331  11.189
71170W        W36331  31.522  21.035   3.495
71171W        W36332  43.005   3.658   0.868
71172W        W36333   4.763  18.335  11.584
71173W        W36334  27.401  27.647  13.448
71174W        W36335  16.046  38.989   2.275
71175W        W36336  44.458  34.582  14.247
71176W        W36337   9.599  32.762  13.925
71177W        W36338  17.328   2.245   2.606
71178W        W36339  25.862   8.034  11.106
71179W        W36340   0.059  34.072   5.072
71180W        W36341  44.174  15.580  10.673
71181W        W36342  33.417   6.248   1.876
71182W        W36343  34.034  43.500   3.849
71183W        W36344   9.762  31.381   1.686
71184W        W36345  11.914  32.690   2.449
71185W        W36346  13.404  20.116   4.154
71186W        W36347  35.500  16.221  13.188
71187W        W36348  28.916   0.862   2.561
71188W        W36349   0.827  36.582  13.944
71189W        W36350  43.843   6.710  11.950
71190W        W36351  38.048  36.113   3.655
71191W        W36352  13.124  12.248   0.121
71192W        W36353   6.000  16.566   0.335
71193W        W36354  34.174   8.769   4.532
71194W        W36355  14.977  18.765  14.907
71195W        W36356  25.433  31.674   4.118
71196W        W36357  27.704  28.097  13.340
71197W        W36358  10.121  23.691  13.672
71198W        W36359  15.798  32.539   4.775
71199W        W36360   1.212  26.073   0.902
71200W        W36361  21.027  15.152  11.498
71201W        W36362  34.996  28.506  11.892
71202W        W36363  37.939  33.546  11.983
71203W        W36364  34.285  15.104  10.993
71204W        W36365  42.631  35.869   2.903
71205W        W36366  38.261  33.628  14.113
71206W        W36367  17.104  18.604  14.262
71207W        W36368  26.819  24.642  10.190
71208W        W36369   2.201   1.396  12.385
71209W        W36370  15.286  22.018  11.457
71210W        W36371  11.159  18.866  12.522
71211W        W36372  36.165  43.989   3.656
71212W        W36373  28.275  31.456  11.556
71213W        W36374  22.099  32.552   2.148
71214W        W36375  12.214   7.446  11.138
71215W        W36376   0.620  33.304   4.198
71216W        W36377  23.467  38.806   1.941
71217W        W36378   0.410  35.144  11.062
71218W        W36379  31.926   4.959  11.992
71219W        W36380   4.263  21.309   0.437
71220W        W36381  16.850  38.062  13.922
71221W        W36382  38.756  29.966   3.189
71222W        W36383  26.032  44.350  14.017
71223W        W36384  16.732  23.763   2.208
71224W        W36385  20.535  41.593  12.536
71225W        W36386   1.803  33.778   2.852
71226W        W36387   9.800   8.376  11.538
71227W        W36388   1.487  14.254  14.872
71228W        W36389  12.448  32.502  13.481
71229W        W36390  44.466  31.929  14.461
71230W        W36391  31.062  27.225   4.099
71231W        W36392  20.809   0.732  11.826
71232W        W36393  41.463   5.911  10.523
71233W        W36394  28.986  30.766  14.776
71234W        W36395  25.483  20.603  14.833
71235W        W36396  35.152  18.540   3.400
71236W        W36397  14.943   3.009  11.085
71237W        W36398  31.088  36.847  12.007
71238W        W36399   9.838  32.604  10.908
71239W        W36400  32.025  11.394   2.760
71240W        W36401  28.368   2.813  13.873
71241W        W36402  25.584   0.799   0.835
71242W        W36403  23.993   4.928   4.437
71243W        W36404  44.173  17.689  14.877
71244W        W36405  41.211  35.099  11.069
71245W        W36406  37.439  19.889  13.500
71246W        W36407  42.829  23.717   0.233
71247W        W36408   9.450  44.722  12.566
71248W        W36409  42.788  25.650  13.472
71249W        W36410  25.671   4.724  13.382
71250W        W36411   4.274  28.648  13.479
71251W        W36412  32.295  10.218   3.144
71252W        W36413  19.631  13.336   1.152
71253W        W36414  43.767  38.980  13.889
71254W        W36415  37.186  36.306   5.084
71255W        W36416  22.994  13.617   2.392
71256W        W36417  18.525  27.608   2.213
71257W        W36418  22.057  18.069  11.595
71258W        W36419  29.536   3.848   0.371
71259W        W36420   7.132  24.807  12.463
71260W        W36421  36.902   6.260  12.442
71261W        W36422  25.680  13.376  11.686
71262W        W36423  12.839  11.401  12.502
71263W        W36424   1.066   7.061  13.840
71264W        W36425   7.975  39.538  11.111
71265W        W36426  40.297  23.614  10.513
71266W        W36427   2.323  16.125  13.448
71267W        W36428  30.864   1.478  14.004
71268W        W36429  30.915  34.303  11.116
71269W        W36430  19.122   5.189  13.322
71270W        W36431  41.485  38.571  11.322
71271W        W36432  29.878  32.897   1.920
71272W        W36433   2.362  14.771   3.191
71273W        W36434  23.108  42.319  13.004
71274W        W36435   8.294  31.975  12.546
71275W        W36436  34.549   0.338   4.471
71276W        W36437  28.237   1.506   4.395
71277W        W36438  10.455  30.602   1.968
71278W        W36439  38.030  39.185   4.617
71279W        W36440  36.807   4.748   2.716
71280W        W36441   9.937  11.696   1.235
71281W        W36442   2.737  19.545   0.079
71282W        W36443  16.395  37.758  10.254
71283W        W36444  21.997  30.490   4.612
71284W        W36445  31.885  15.290   0.408
71285W        W36446  15.359   3.186   0.533
71286W        W36447   9.443  22.310   1.608
71287W        W36448  10.882  23.062   3.160
71288W        W36449   2.703  30.001  12.964
71289W        W36450  35.449  21.830   3.850
71290W        W36451  22.982   2.944   0.919
71291W        W36452   8.063   9.659   2.107
71292W        W36453  31.083   1.855   3.697
71293W        W36454  15.840   3.250  11.645
71294W        W36455  44.797  15.668   0.836
71295W        W36456  16.653   8.959  11.301
71296W        W36457  27.955  43.644  13.393
71297W        W36458  37.564  43.814   4.539
71298W        W36459  33.576   0.314   1.743
71299W        W36460   9.829  21.908   2.831
71300W        W36461  16.303  23.875  11.146
71301W        W36462   5.778  19.790   0.891
71302W        W36463  19.553  17.487  14.512
71303W        W36464   8.850  41.785  14.313
71304W        W36465  17.918  32.010   4.441
71305W        W36466  44.238  25.189  12.582
71306W        W36467   6.307  40.844   3.646
71307W        W36468  21.476  17.116   3.340
71308W        W36469  29.542  12.032  12.899
71309W        W36470  21.963  24.276   3.944
71310W        W36471  26.704   2.386  12.049
71311W        W36472  19.047   7.984  14.718
71312W        W36473   4.748  41.876   2.493
71313W        W36474  17.257   6.451   2.875
71314W        W36475  27.225  26.216   3.743
71315W        W36476  15.123  41.198  12.576
71316W        W36477   2.379  18.254   1.943
71317W        W36478  24.762  26.186  14.885
71318W        W36479  39.088  28.224  10.999
71319W        W36480  30.929  15.073   2.181
71320W        W36481  38.368  28.956  12.000
71321W        W36482   0.767  27.043   2.919
71322W        W36483  31.412   8.808   4.746
71323W        W36484  17.805   0.015  13.654
71324W        W36485  33.538  33.098  13.485
71325W        W36486  32.330  24.968  13.972
71326W        W36487   5.346  17.673   2.516
71327W        W36488  39.876   7.294   2.779
71328W        W36489  28.870  34.937   2.202
71329W        W36490  22.264  17.702   3.495
71330W        W36491   0.933  10.887   4.209
71331W        W36492  40.179  28.067   4.470
71332W        W36493  17.711  44.452  13.773
71333W        W36494  15.658  27.680  13.515
71334W        W36495  42.212   3.150  14.453
71335W        W36496  33.405   0.425   3.073
71336W        W36497  15.046  29.942  14.274
71337W        W36498  15.349  34.886   0.052
71338W        W36499  16.148   5.351  10.652
71339W        W36500  35.479  44.284  14.838
71340W        W36501   1.378  19.235  12.545
71341W        W36502  41.790   4.905   2.079
71342W        W36503  39.408  41.330  13.354
71343W        W36504  36.889  31.842  14.336
71344W        W36505  17.124  30.544  14.788
71345W        W36506  42.930  43.625  12.152
71346W        W36507   6.782  11.986   4.223
71347W        W36508  21.039  38.274  13.288
71348W        W36509  42.831  25.081  10.805
71349W        W36510  23.535  40.886  11.085
71350W        W36511   6.796  38.041   3.816
71351W        W36512  37.588  34.444  11.632
71352W        W36513  24.502  32.513  10.593
71353W        W36514  19.255  17.969  13.602
71354W        W36515  13.070  17.668   4.152
71355W        W36516   2.332  35.499   3.069
71356W        W36517  27.034  23.588   3.204
71357W        W36518  10.298   7.099   4.549
71358W        W36519  36.379  12.196  10.601
71359W        W36520  28.123  25.085  14.896
71360W        W36521  31.178  28.009   0.809
71361W        W36522  37.912   7.312   1.382
71362W        W36523   6.871   5.764   4.385
71363W        W36524  19.357  21.254   2.652
71364W        W36525  27.680  33.670  13.373
71365W        W36526  10.895  20.468   2.319
71366W        W36527  29.570  34.002   4.768
71367W        W36528  18.172   7.690  14.299
71368W        W36529  33.905  38.022  14.962
71369W        W36530  30.795  36.386  11.243
71370W        W36531   1.677  38.363  14.328
71371W        W36532  26.583  43.321   5.054
71372W        W36533   7.987  18.660   1.759
71373W        W36534   8.179  24.048  11.001
71374W        W36535  34.537  30.456   1.170
71375W        W36536   9.728  14.965  14.824
71376W        W36537  44.915  36.340   0.824
71377W        W36538  29.723  18.140   3.796
71378W        W36539  24.587  20.572   3.125
71379W        W36540   1.200  22.723  12.544
71380W        W36541  32.686  14.781   4.413
71381W        W36542   4.610   1.112  13.427
71382W        W36543  34.456  17.101  14.996
71383W        W36544   4.377  32.342   1.270
71384W        W36545  11.599  36.305   0.978
71385W        W36546   8.584  32.778   4.056
71386W        W36547  10.867  26.285   5.094
71387W        W36548  38.034   6.692  12.446
71388W        W36549  23.207   9.247   2.327
71389W        W36550  28.001  15.815  11.101
71390W        W36551  28.051  33.825   1.388
71391W        W36552   1.541  43.348   2.753
71392W        W36553  22.235  10.657   0.345
71393W        W36554   3.359   5.988  12.544
71394W        W36555   1.997  31.370   1.439
71395W        W36556  23.781  31.391   3.225
71396W        W36557  16.071  25.697   3.901
71397W        W36558  36.090  16.551   1.214
71398W        W36559  42.233  43.736  13.344
71399W        W36560  39.844   6.857  11.238
71400W        W36561  39.004  32.012   3.682
71401W        W36562   3.398  10.751  14.269
71402W        W36563  19.385  10.188  12.040
71403W        W36564  24.985  11.014   1.664
71404W        W36565  23.082  33.952   3.289
71405W        W36566   1.085   8.926  10.689
71406W        W36567  18.169   2.736   4.017
71407W        W36568  10.102  39.036  13.110
71408W        W36569  32.348   5.955  11.976
71409W        W36570  26.730  43.353  11.590
71410W        W36571  40.804   3.284   5.160
71411W        W36572  44.432  39.913   0.479
71412W        W36573  31.098  14.329   5.092
71413W        W36574  34.575  20.273   3.181
71414W        W36575  41.977  19.261   1.388
71415W        W36576  42.470  15.822   1.725
71416W        W36577   9.160  17.514  12.540
71417W        W36578  40.973   1.991   0.674
71418W        W36579  37.859  19.526  13.457
71419W        W36580  43.762  22.270   1.046
71420W        W36581   0.996  39.944  13.579
71421W        W36582  29.822  16.553   0.818
71422W        W36583  30.611  19.770   1.890
71423W        W36584  34.506  24.498  13.352
71424W        W36585  25.500  33.451  11.694
71425W        W36586  33.519  28.532  14.007
71426W        W36587  32.371   3.755  11.110
71427W        W36588   5.941  27.666  14.928
71428W        W36589   0.338  43.592  10.741
71429W        W36590  33.380  29.150  14.851
71430W        W36591  32.630  38.959   0.278
71431W        W36592  43.864  10.821  14.517
71432W        W36593  32.679  18.536  11.577
71433W        W36594  39.294  13.360  11.101
71434W        W36595  37.052  12.367   4.655
71435W        W36596  23.315  27.157   2.600
71436W        W36597  37.070  17.970  11.163
71437W        W36598   8.462  24.003  13.482
71438W        W36599   3.211  41.004   3.211
71439W        W36600  12.970   2.172  13.491
71440W        W36601  34.489  12.151   0.023
71441W        W36602  19.326  43.905   2.753
71442W        W36603   3.961  39.606   2.263
71443W        W36604   9.873  22.147  14.937
71444W        W36605  17.559  35.436   1.234
71445W        W36606   3.962  30.024   1.866
71446W        W36607   5.343  23.922  14.063
71447W        W36608  25.929  27.968  11.469
71448W        W36609   5.819  33.729   1.257
71449W        W36610   8.269  18.590   2.707
71450W        W36611  28.382  22.936  14.109
71451W        W36612  35.021  10.831   4.232
71452W        W36613  32.990  29.233  12.456
71453W        W36614  24.132   7.403   2.105
71454W        W36615  21.627  12.549  14.266
71455W        W36616  11.098  33.437   1.421
71456W        W36617   7.012   9.501  14.050
71457W        W36618  13.070   8.279  11.508
71458W        W36619   1.449  43.965   3.566
71459W        W36620  13.714  43.754  14.783
71460W        W36621   5.282   5.651   1.469
71461W        W36622   5.361   1.938  10.528
71462W        W36623  15.615  26.947  11.008
71463W        W36624  23.289  14.761   3.249
71464W        W36625  28.112  34.956  14.343
71465W        W36626  43.279   5.211  11.778
71466W        W36627  28.607   5.039  12.165
71467W        W36628   8.837  25.982   4.393
71468W        W36629  26.298  18.086  14.241
71469W        W36630   9.376  16.262   4.102
71470W        W36631  37.184  27.707  11.163
71471W        W36632  14.343  16.504   1.718
71472W        W36633  29.190  30.970   2.215
71473W        W36634  11.174   0.307   2.298
71474W        W36635   7.680  42.060  14.959
71475W        W36636  18.734  13.858   0.909
71476W        W36637   6.715  21.874   2.123
71477W        W36638  42.693  12.098   5.042
71478W        W36639  41.741  22.321   4.986
71479W        W36640  22.548  17.067   0.969
71480W        W36641  35.049  38.448   2.680
71481W        W36642  44.825  14.631  11.519
71482W        W36643  43.184  11.094   1.820
71483W        W36644   7.925  35.483   4.529
71484W        W36645  27.248  42.530   1.233
71485W        W36646  26.752  14.212  14.412
71486W        W36647  15.520  42.429   3.784
71487W        W36648  29.116   2.972   3.618
71488W        W36649   8.252  36.339  13.026
71489W        W36650  44.288  33.075   1.849
71490W        W36651   8.439   6.802   4.316
71491W        W36652  20.128  19.383   4.126
71492W        W36653  28.093  34.707   3.681
71493W        W36654  28.263  34.900  11.486
71494W        W36655   6.856  21.486  10.535
71495W        W36656  17.270  13.676   1.565
71496W        W36657  31.101  21.659  14.717
71497W        W36658  37.522  23.149   0.713
71498W        W36659  34.069  38.340  12.098
71499W        W36660  44.505  17.687   4.918
71500W        W36661  40.568  10.441   0.131
71501W        W36662   5.624  19.668   4.305
71502W        W36663   6.479  37.324  12.662
71503W        W36664  23.516  23.267   1.448
71504W        W36665  28.209  30.691   3.655
71505W        W36666  38.614  40.239  11.917
71506W        W36667  18.942  32.450   0.088
71507W        W36668  30.992  19.943   0.271
71508W        W36669  31.221  27.698  14.979
71509W        W36670  38.446  24.492   4.882
71510W        W36671  32.109  20.207   3.339
71511W        W36672  34.777  21.014   4.394
71512W        W36673  11.583   2.862  11.612
71513W        W36674  43.058   2.437   4.138
71514W        W36675  34.290  20.500   0.461
71515W        W36676  13.624  24.147  10.727
71516W        W36677   2.350  16.385   4.531
71517W        W36678  38.604  19.261   4.890
71518W        W36679  16.038  13.694  14.973
71519W        W36680  17.186  24.691  14.978
71520W        W36681   9.144  35.544  13.342
71521W        W36682  12.380   8.178   2.821
71522W        W36683   0.912  38.519  14.835
71523W        W36684  12.630  29.411  14.444
71524W        W36685  18.029  21.523  11.123
71525W        W36686  29.708  18.527  11.100
71526W        W36687  12.762  13.816   4.027
71527W        W36688  11.794  28.546  13.118
71528W        W36689  36.620  30.422   3.570
71529W        W36690  22.475  39.738   4.557
71530W        W36691  29.151  12.782  10.282
71531W        W36692  12.385   2.998   3.577
71532W        W36693  41.240  26.503  12.167
71533W        W36694  37.812  13.714   2.476
71534W        W36695   1.696  32.097  11.433
71535W        W36696  31.602  25.410   1.241
71536W        W36697   6.894  21.267  13.018
71537W        W36698  40.931   3.833   4.458
71538W        W36699   7.386  13.637   3.597
71539W        W36700  23.945  25.906   0.770
71540W        W36701  14.464   3.711  14.429
71541W        W36702   5.305   1.520   1.902
71542W        W36703  36.345   6.819  14.736
71543W        W36704  32.050  44.095   4.731
71544W        W36705  11.609  36.548   4.077
71545W        W36706   5.251  15.166  14.266
71546W        W36707   5.893  24.456  11.551
71547W        W36708   0.091   0.748  14.631
71548W        W36709  26.422  43.819  14.208
71549W        W36710   3.442  36.580   2.674
71550W        W36711  22.646   4.548   0.576
71551W        W36712  24.477   3.297  12.531
71552W        W36713   5.428  29.613  13.031
71553W        W36714  29.378  17.813   4.076
71554W        W36715  18.493   5.761  12.020
71555W        W36716  37.215  19.538  10.303
71556W        W36717  25.172  40.312   4.071
71557W        W36718  35.114  41.133  11.860
71558W        W36719  36.902  35.267   4.137
71559W        W36720   9.798   2.688   0.763
71560W        W36721   9.882  43.509  13.023
71561W        W36722  35.577  20.588  11.098
71562W        W36723  42.170  24.567  12.081
71563W        W36724  15.541  28.640  13.288
71564W        W36725  22.711   6.910  13.017
71565W        W36726   0.399  40.360  11.516
71566W        W36727  42.471  28.514  11.859
71567W        W36728  17.633  15.686  13.007
71568W        W36729  26.678   1.093   1.185
71569W        W36730  38.354  31.904   1.686
71570W        W36731  10.599  38.744  14.024
71571W        W36732  25.784  33.731   4.182
71572W        W36733   6.318  28.012   1.257
71573W        W36734  42.780   9.576  11.607
71574W        W36735   6.292  34.406   0.190
71575W        W36736  25.517  39.859  14.120
71576W        W36737   9.570  30.052   4.774
71577W        W36738   5.513  26.165   3.549
71578W        W36739   3.805  17.310  13.392
71579W        W36740  42.012  38.163   0.869
71580W        W36741  14.059   4.620   3.379
71581W        W36742  39.016  31.990  12.094
71582W        W36743  26.620   3.425   0.693
71583W        W36744  10.650  27.439   2.849
71584W        W36745  27.900   1.501   1.610
71585W        W36746   2.931  14.185   1.188
71586W        W36747  36.295   5.902  14.453
71587W        W36748   7.845  40.555  14.772
71588W        W36749  35.884  19.008  12.397
71589W        W36750  22.735  21.908  11.526
71590W        W36751  22.828  18.954  12.076
71591W        W36752   0.992  18.320   2.827
71592W        W36753  32.526   8.483   3.733
71593W        W36754  34.121  10.054   3.425
71594W        W36755  38.511   0.196   2.010
71595W        W36756  33.071  16.360   3.209
71596W        W36757   8.359  13.263   5.034
71597W        W36758  44.016  43.863   1.240
71598W        W36759   7.362  29.274   0.797
71599W        W36760  33.746  41.558  13.582
71600W        W36761  44.276   2.911  11.107
71601W        W36762  13.357  16.726   0.780
71602W        W36763   2.474  14.268  13.811
71603W        W36764  25.435   9.785   1.355
71604W        W36765   5.207  20.116  11.522
71605W        W36766  30.722  41.267  13.531
71606W        W36767  28.408   7.624   1.415
71607W        W36768  28.836  24.312   0.352
71608W        W36769  11.248  15.473  12.441
71609W        W36770  13.193  31.550   2.121
71610W        W36771  13.589  19.642   4.102
71611W        W36772  15.150  30.519  14.906
71612W        W36773  20.272  17.412  10.660
71613W        W36774  13.255  15.578   4.156
71614W        W36775  11.316   5.037  10.536
71615W        W36776  30.717  26.817   4.192
71616W        W36777   2.719  41.264  14.316
71617W        W36778  36.316  14.789  11.565
71618W        W36779  27.771  37.859   5.268
71619W        W36780   5.381  32.370  13.569
71620W        W36781  16.972   1.337  12.352
71621W        W36782  13.042  16.040   1.940
71622W        W36783  12.941   0.348   2.860
71623W        W36784  29.459  33.441   0.752
71624W        W36785  24.562  22.063   0.377
71625W        W36786  12.962  16.333   3.745
71626W        W36787  16.324   8.830  13.000
71627W        W36788  24.583  12.293   2.393
71628W        W36789  18.981  12.732   4.152
71629W        W36790  31.316  43.287   2.266
71630W        W36791  17.752   8.193  14.782
71631W        W36792  31.941  34.749   3.189
71632W        W36793  15.747   8.812  10.958
71633W        W36794  41.397  33.418   2.887
71634W        W36795  41.897  19.715  12.976
71635W        W36796  36.449   5.822  13.944
71636W        W36797  13.485   8.605  11.479
71637W        W36798  34.475   6.680   2.014
71638W        W36799   8.825   5.422  12.165
71639W        W36800   1.226  21.300  14.066
71640W        W36801  35.095  12.661   1.005
71641W        W36802  38.317  28.298  12.640
71642W        W36803   5.946  25.494  14.442
71643W        W36804  25.009  18.314  13.879
71644W        W36805  20.367  15.186  11.142
71645W        W36806  12.852  10.056   1.878
71646W        W36807   3.518   9.701   0.594
71647W        W36808  26.610  23.223  11.136
71648W        W36809   6.429  24.718  11.429
71649W        W36810  11.402  41.554   3.139
71650W        W36811   7.636  12.787  13.910
71651W        W36812  39.120  43.253  12.609
71652W        W36813   4.881  41.755  12.110
71653W        W36814  38.965   4.406   1.563
71654W        W36815   4.703  23.771  12.878
71655W        W36816  32.431  20.852   0.364
71656W        W36817  36.684  23.588   2.633
71657W        W36818   3.921  43.945  10.669
71658W        W36819  36.344   4.382  13.318
71659W        W36820  31.131  33.465  13.402
71660W        W36821  21.974  18.386  12.873
71661W        W36822   9.144  10.939  14.792
71662W        W36823  22.384  42.573   3.159
71663W        W36824  13.084  11.754   1.973
71664W        W36825  33.108  30.116  12.434
71665W        W36826  21.669  30.728   1.319
71666W        W36827  12.853  43.343   2.706
71667W        W36828  22.758  38.117   4.596
71668W        W36829  31.569  12.152  10.225
71669W        W36830  34.420  43.264   1.355
71670W        W36831   4.742  18.240  12.496
71671W        W36832  23.073   9.375   0.376
71672W        W36833  14.763  19.097  14.557
71673W        W36834  32.842  36.045   3.569
71674W        W36835  41.235  37.075  11.546
71675W        W36836  13.385   8.350   3.256
71676W        W36837  44.892   3.890   3.694
71677W        W36838  39.381  44.307   3.202
71678W        W36839  25.240  12.387   1.677
71679W        W36840  15.593  21.974   3.650
71680W        W36841   3.737   5.185   2.355
71681W        W36842  36.388  15.824  12.179
71682W        W36843  15.999  17.234  10.472
71683W        W36844  28.181  33.998  11.979
71684W        W36845   5.502  28.001  14.258
71685W        W36846   8.365  20.283   3.283
71686W        W36847  23.202  42.991   3.217
71687W        W36848  27.104  10.750   2.368
71688W        W36849  37.333  12.407   3.244
71689W        W36850  14.585  22.026  14.768
71690W        W36851  32.070   1.194  11.666
71691W        W36852  18.718  29.981  10.670
71692W        W36853  22.737  24.006  12.991
71693W        W36854  31.160  34.908  13.470
71694W        W36855  11.671  34.128   1.458
71695W        W36856  29.978  11.549  11.848
71696W        W36857  32.881  35.908  12.192
71697W        W36858   2.920  38.644  12.998
71698W        W36859   0.912  11.419  10.226
71699W        W36860  29.995  41.879   4.861
71700W        W36861  12.950  37.299  10.172
71701W        W36862  26.212  14.320  11.967
71702W        W36863   6.695  21.657   4.368
71703W        W36864   0.488  31.022   2.164
71704W        W36865  21.347   2.056  14.597
71705W        W36866   3.644   2.274   4.132
71706W        W36867  38.688  10.741  12.402
71707W        W36868  19.709   2.158   0.799
71708W        W36869  31.167  19.121   2.330
71709W        W36870  32.964   9.731  11.367
71710W        W36871  11.538  38.288  14.578
71711W        W36872  39.519   8.851   3.305
71712W        W36873  43.694   7.399  14.383
71713W        W36874  14.681  29.870  13.694
71714W        W36875   7.356  21.807   3.115
71715W        W36876   3.661   8.855  10.776
71716W        W36877  19.007  26.924   0.049
71717W        W36878  27.517   7.111  11.643
71718W        W36879   1.266   5.352   2.138
71719W        W36880   1.890  16.792  14.545
71720W        W36881  25.746  22.913  11.610
71721W        W36882  16.808  41.942  14.025
71722W        W36883   5.357   4.302  12.055
71723W        W36884  16.311  11.315   3.911
71724W        W36885  10.106  39.872  10.447
71725W        W36886  40.518  21.713   1.696
71726W        W36887   5.998  21.759  12.553
71727W        W36888  27.060  11.336  12.943
71728W        W36889   4.416  25.813   1.729
71729W        W36890   3.476  44.260  11.949
71730W        W36891  21.838  25.176   1.736
71731W        W36892  24.720  31.109   1.144
71732W        W36893  16.877  22.497  12.946
71733W        W36894  15.374  26.146  14.935
71734W        W36895  21.990  26.703  11.541
71735W        W36896  11.851  41.466   0.894
71736W        W36897  44.408  37.092   2.735
71737W        W36898  15.078  33.369  14.368
71738W        W36899  27.633  24.434   0.944
71739W        W36900  15.898   6.700  11.128
71740W        W36901   5.095  16.109   1.160
71741W        W36902  36.287  31.561   1.019
71742W        W36903  28.403  44.751  11.498
71743W        W36904  40.329  33.663  10.942
71744W        W36905   6.837  29.146  13.819
71745W        W36906  27.217  21.537   2.810
71746W        W36907   5.953   5.577  12.953
71747W        W36908  33.923  21.618  10.450
71748W        W36909  36.435  38.527  13.690
71749W        W36910  15.111  37.752   3.716
71750W        W36911  31.109  34.048   2.108
71751W        W36912  39.933  28.216   4.053
71752W        W36913  15.991  41.970   0.274
71753W        W36914  14.392   7.891   0.087
71754W        W36915  41.200  39.251  12.471
71755W        W36916  40.824  37.615   9.487
71756W        W36917  30.476   5.370  10.652
71757W        W36918  36.434  38.846  10.695
71758W        W36919  37.088  43.368   0.491
71759W        W36920  13.102  23.558   4.826
71760W        W36921   1.308  27.778  14.670
71761W        W36922   8.801   3.881   4.193
71762W        W36923   9.327  36.978   0.207
71763W        W36924   9.421  25.375   1.722
71764W        W36925  16.222   4.140  11.413
71765W        W36926  27.703  43.013   1.731
71766W        W36927  23.043  18.108  10.710
71767W        W36928  37.161   6.439   1.310
71768W        W36929  41.393   3.891  10.610
71769W        W36930   8.929  13.883   4.071
71770W        W36931  21.013  11.820   0.928
71771W        W36932   9.931  12.632   2.980
71772W        W36933  16.114   7.926  12.867
71773W        W36934  18.634  13.021  12.159
71774W        W36935  36.645  17.729  11.610
71775W        W36936  27.167  29.402  11.549
71776W        W36937  25.164  31.960  11.902
71777W        W36938  27.372  36.331   0.239
71778W        W36939  37.182  33.107  13.475
71779W        W36940  37.416  18.762   0.359
71780W        W36941  37.370  42.634  14.978
71781W        W36942   8.790  14.714  11.375
71782W        W36943  27.122  42.006  14.448
71783W        W36944  27.053   6.080   4.576
71784W        W36945  40.276   7.853  13.115
71785W        W36946   0.822  17.971  12.511
71786W        W36947  28.502   7.853   0.970
71787W        W36948  33.417  13.846   2.279
71788W        W36949  29.006   9.843   4.071
71789W        W36950  40.223   3.284   9.953
71790W        W36951  26.219  31.576   2.374
71791W        W36952   9.082  12.044  10.470
71792W        W36953   1.507  27.612   2.787
71793W        W36954   5.405  22.111  14.544
71794W        W36955  34.545   9.234   3.660
71795W        W36956   6.865  18.365   4.492
71796W        W36957  21.171  23.371  10.768
71797W        W36958  37.906  40.954   3.727
71798W        W36959  16.492  12.764  13.037
71799W        W36960  36.920  12.088  12.088
71800W        W36961   6.162   5.866  13.317
71801W        W36962   1.535  37.862   2.315
71802W        W36963  42.957   0.469   1.241
71803W        W36964   5.633  25.495   2.202
71804W        W36965  22.107  31.946  14.839
71805W        W36966  28.662  30.403  10.620
71806W        W36967  20.261  14.680  11.329
71807W        W36968  32.378  10.847  12.528
71808W        W36969  19.632  30.394   4.840
71809W        W36970   0.521  18.453   3.237
71810W        W36971   2.480  18.280   5.311
71811W        W36972   3.900  30.070   4.393
71812W        W36973  42.706  40.363   1.634
71813W        W36974   8.086  27.406  13.839
71814W        W36975  39.073  28.703   1.407
71815W        W36976  41.237  42.770   0.941
71816W        W36977  40.312  27.060  13.107
71817W        W36978  35.611  28.143  14.202
71818W        W36979  38.712  14.792   2.958
71819W        W36980  25.475  35.498  12.515
71820W        W36981  38.910  18.374  13.398
71821W        W36982  21.491  25.604  10.639
71822W        W36983   4.092  32.063   5.121
71823W        W36984  14.138   8.802  12.025
71824W        W36985  26.535  30.720  13.071
71825W        W36986  31.714  24.466   0.398
71826W        W36987  21.215  44.346   1.669
71827W        W36988   8.792  35.261   0.478
71828W        W36989   7.954  29.173   0.993
71829W        W36990  17.382   7.822   0.264
71830W        W36991  23.608  41.120   3.290
71831W        W36992   3.387  14.342   2.765
71832W        W36993   3.363  27.188   4.353
71833W        W36994  13.092  34.000  12.130
71834W        W36995  30.746  19.211  12.522
71835W        W36996  10.183  12.205  10.559
71836W        W36997  32.553   3.030  14.020
71837W        W36998  20.630  12.246  14.405
71838W        W36999  23.623  14.843   2.223
71839W        W37000   8.469  23.694   4.494
71840W        W37001  17.114  44.898   1.455
71841W        W37002  28.145   0.330  13.433
71842W        W37003   8.807  43.038   3.355
71843W        W37004  25.719  23.105   3.167
71844W        W37005  33.038  33.583   4.196
71845W        W37006  11.793   0.976  14.856
71846W        W37007  35.773  31.647  13.796
71847W        W37008   0.425  33.137  12.583
71848W        W37009  30.540  30.087  10.977
71849W        W37010  35.875  26.917  13.691
71850W        W37011   0.909  10.226  14.144
71851W        W37012  29.607  30.597   0.487
71852W        W37013  16.110  28.614  13.302
71853W        W37014  29.248  23.163   1.759
71854W        W37015  37.940   1.754   1.015
71855W        W37016  32.915  17.555   4.417
71856W        W37017  33.984   9.614  13.267
71857W        W37018  33.092  22.713  11.223
71858W        W37019  33.332   9.810   1.828
71859W        W37020   3.399  23.984   1.665
71860W        W37021  35.009  32.943   3.640
71861W        W37022  16.925  39.861   4.902
71862W        W37023  24.310  42.476   1.250
71863W        W37024  21.129  13.015   2.616
71864W        W37025  17.580   4.318  11.599
71865W        W37026  32.156  41.762   1.634
71866W        W37027   4.003  29.480  12.815
71867W        W37028   8.713   2.040   2.905
71868W        W37029  44.343  41.740   1.882
71869W        W37030  33.605   7.433   3.651
71870W        W37031  19.611  24.412   1.350
71871W        W37032  36.677  13.925   1.281
71872W        W37033  14.077  40.351   2.767
71873W        W37034  17.606  23.914   3.689
71874W        W37035  21.028   1.043   1.700
71875W        W37036   8.122  15.614  12.399
71876W        W37037  13.362  25.056  11.261
71877W        W37038  22.451  26.450   0.295
71878W        W37039  11.382  33.960   0.298
71879W        W37040  14.579  43.901   4.303
71880W        W37041  33.130  41.736  12.371
71881W        W37042  13.508  18.619  14.569
71882W        W37043  27.438   5.204  11.467
71883W        W37044  35.941  38.693  13.916
71884W        W37045  40.425  39.790   2.424
71885W        W37046  14.684   7.354   0.930
71886W        W37047   4.240  43.337  14.536
71887W        W37048  24.100   6.868  11.149
71888W        W37049   7.222  42.345   3.210
71889W        W37050  10.342   8.366   4.259
71890W        W37051  23.720  26.416  14.271
71891W        W37052  40.396  26.684   4.615
71892W        W37053   6.999  30.031  12.518
71893W        W37054  34.379  10.394  14.417
71894W        W37055  37.159  13.647   1.855
71895W        W37056   1.657  10.162   1.167
71896W        W37057   6.870  13.096   2.350
71897W        W37058  19.152  26.726  11.148
71898W        W37059  36.383  39.601   0.064
71899W        W37060   0.349  34.814  13.953
71900W        W37061  36.579  26.223  14.318
71901W        W37062  39.865  11.851  12.359
71902W        W37063  29.678  11.685   0.934
71903W        W37064  27.137  28.894  11.660
71904W        W37065  11.028  26.011  13.422
71905W        W37066  22.166   5.792   2.449
71906W        W37067  30.456  41.867   4.551
71907W        W37068   0.358  43.382  14.149
71908W        W37069   5.410  35.308   4.925
71909W        W37070  25.548  10.551   4.502
71910W        W37071  26.759  19.576   4.922
71911W        W37072  29.313  35.585  12.014
71912W        W37073  29.443  20.643  12.720
71913W        W37074   0.419  23.971   0.281
71914W        W37075  18.074   0.049  11.137
71915W        W37076  30.746  34.044  12.639
71916W        W37077  38.462  35.273  11.023
71917W        W37078  13.848  40.453  12.476
71918W        W37079  34.485  17.789  10.736
71919W        W37080   9.291  43.236  14.727
71920W        W37081  12.391   6.965  13.703
71921W        W37082  33.288  22.160  12.418
71922W        W37083  39.841  37.496  13.337
71923W        W37084  11.157   3.364  12.598
71924W        W37085  15.644   3.216   1.855
71925W        W37086  20.604  10.795   1.053
71926W        W37087  19.571  10.644  10.590
71927W        W37088  31.493  28.708   1.253
71928W        W37089  19.510  13.760   4.609
71929W        W37090  29.921  35.609  11.185
71930W        W37091  30.521   0.731   0.334
71931W        W37092   5.665  43.927  11.175
71932W        W37093  37.450  28.018  13.303
71933W        W37094  20.986  32.832   2.299
71934W        W37095  35.078  14.543  12.044
71935W        W37096  34.955   7.829   0.390
71936W        W37097  36.096   0.373  13.109
71937W        W37098   6.065  41.531   4.796
71938W        W37099  15.827  36.528  12.929
71939W        W37100   9.642  38.290  12.684
71940W        W37101  27.601  35.237   1.876
71941W        W37102  15.646  14.122  13.031
71942W        W37103  41.778  11.174   4.713
71943W        W37104  31.535  13.192   4.219
71944W        W37105  39.832  20.178  12.474
71945W        W37106   9.818  22.102  11.985
71946W        W37107   2.901  18.985   0.946
71947W        W37108  28.017  18.148   2.841
71948W        W37109  14.242   3.282  12.977
71949W        W37110  43.509   6.683  11.091
71950W        W37111  25.699  11.583  12.494
71951W        W37112  44.857  33.657   3.621
71952W        W37113  42.249   3.476  12.497
71953W        W37114   3.961  36.057  12.950
71954W        W37115  42.109   3.913  12.752
71955W        W37116  11.805  13.291   1.969
71956W        W37117  33.811  38.985   2.880
71957W        W37118  25.157  15.571  11.022
71958W        W37119  20.653   0.583  13.356
71959W        W37120  13.711  35.503  14.967
71960W        W37121  44.268   0.882   1.948
71961W        W37122  39.571  19.612  10.713
71962W        W37123  40.143  25.919   4.892
71963W        W37124  12.587  37.511  12.132
71964W        W37125  44.744  38.570   4.934
71965W        W37126  27.474  30.110  13.893
71966W        W37127  17.772  23.793  14.223
71967W        W37128  36.513   1.204  11.876
71968W        W37129  39.268   7.139  12.515
71969W        W37130  40.442   5.645   2.714
71970W        W37131   0.711   1.630  14.456
71971W        W37132  42.345  34.551  13.336
71972W        W37133   6.326  33.708   1.883
71973W        W37134   0.566  18.964   3.238
71974W        W37135  42.975  23.119  13.819
71975W        W37136   4.359  23.694   3.092
71976W        W37137  19.698   3.560   4.836
71977W        W37138  37.641  13.648   3.331
71978W        W37139   8.426   3.236  14.924
71979W        W37140   3.010  21.296   2.259
71980W        W37141  18.772  24.513   2.343
71981W        W37142  30.541   3.478   3.651
71982W        W37143   1.785  10.726   1.462
71983W        W37144  24.506  43.952  11.263
71984W        W37145  34.022   7.184  13.517
71985W        W37146  26.438  28.650  13.505
71986W        W37147  40.044   5.945  10.887
71987W        W37148   6.279   3.800  14.117
71988W        W37149  42.936  19.227  11.692
71989W        W37150  31.984  15.041   0.859
71990W        W37151   9.120   7.932  10.888
71991W        W37152  25.619  38.759  13.970
71992W        W37153   0.045   4.232   1.772
71993W        W37154  13.794  42.838  12.073
71994W        W37155  37.964  18.356   2.201
71995W        W37156   1.798  11.351   4.127
71996W        W37157  12.066  25.267  13.157
71997W        W37158  34.011  21.580   4.600
71998W        W37159  37.134   1.846  14.367
71999W        W37160  28.261   3.262  12.176
72000W        W37161   2.074  36.245  14.290
72001W        W37162   9.238  23.118  11.496
72002W        W37163  22.703  40.912   2.103
72003W        W37164  13.514  22.138   1.720
72004W        W37165  17.857  31.054   3.203
72005W        W37166  40.909  14.557  14.952
72006W        W37167  16.995  40.057  14.917
72007W        W37168   7.332  14.068   0.913
72008W        W37169  18.204  31.554   1.761
72009W        W37170  37.988  39.526  12.141
72010W        W37171  40.357   9.633   3.070
72011W        W37172   8.735  31.871  14.629
72012W        W37173  13.753  24.243  11.419
72013W        W37174   4.482  11.257   1.645
72014W        W37175  26.526  33.571   2.737
72015W        W37176  33.594  36.137   4.712
72016W        W37177  36.894   6.888   0.995
72017W        W37178  28.480  14.617   4.121
72018W        W37179  40.906  30.626  13.114
72019W        W37180  22.431  37.922   1.651
72020W        W37181  34.832  19.118  12.559
72021W        W37182  15.699  32.915   3.291
72022W        W37183   1.638  44.115   2.606
72023W        W37184  32.405  32.779  13.349
72024W        W37185  33.449   1.031  11.612
72025W        W37186  34.571   0.572  13.382
72026W        W37187  21.294  12.602   3.813
72027W        W37188  34.374  28.224  12.152
72028W        W37189  10.499  17.094  10.240
72029W        W37190  40.976  28.105  12.225
72030W        W37191  29.264  10.993   3.157
72031W        W37192  22.567   4.590   4.583
72032W        W37193  44.866  29.591   4.714
72033W        W37194  21.063   6.789   0.237
72034W        W37195  10.170  21.190   0.719
72035W        W37196   7.252  43.707   4.634
72036W        W37197  18.643  19.075   1.328
72037W        W37198  38.824  16.120  10.814
72038W        W37199   8.426  24.082   2.347
72039W        W37200   0.681  31.066   3.242
72040W        W37201  24.258  14.638   2.988
72041W        W37202   9.643  14.671   1.283
72042W        W37203  21.205  43.517  13.395
72043W        W37204  12.152  41.919  11.916
72044W        W37205  37.290  31.518  11.583
72045W        W37206  41.782   2.323  13.483
72046W        W37207   2.985  42.839  13.403
72047W        W37208   8.666  40.611  12.219
72048W        W37209  22.989  29.582  14.228
72049W        W37210  21.467  18.623  13.833
72050W        W37211  42.543  21.467   4.078
72051W        W37212  18.158  42.492   2.172
72052W        W37213  41.899  14.709   1.756
72053W        W37214  28.584  32.141   1.401
72054W        W37215  25.073  44.180  11.602
72055W        W37216  37.878   6.704  13.877
72056W        W37217  33.795   5.700   1.283
72057W        W37218  37.918  38.798   2.764
72058W        W37219  40.545  42.340   1.313
72059W        W37220  25.773  42.334  13.951
72060W        W37221  43.941  26.378  13.360
72061W        W37222  31.405   3.427   2.944
72062W        W37223  23.025  21.144   4.961
72063W        W37224  32.476  12.515   3.574
72064W        W37225  36.098  29.692   0.706
72065W        W37226  28.699  40.107  12.455
72066W        W37227  31.172  39.071   2.677
72067W        W37228   2.244  21.711  11.099
72068W        W37229  39.533  12.260  12.485
72069W        W37230  36.550  16.764  13.528
72070W        W37231  19.253  16.022  13.331
72071W        W37232   4.965   5.398  14.761
72072W        W37233   6.438  39.224  10.945
72073W        W37234  14.643  17.242  12.513
72074W        W37235  20.288  11.098  13.331
72075W        W37236   8.033  36.428   0.252
72076W        W37237  13.781  24.098  11.894
72077W        W37238   9.171   5.870   3.251
72078W        W37239  41.493  36.878  10.134
72079W        W37240  34.978  13.654  11.054
72080W        W37241  23.704  40.603  11.499
72081W        W37242  38.517  11.364   3.276
72082W        W37243   8.791   3.199  14.527
72083W        W37244  14.350  35.672  11.626
72084W        W37245  25.595  18.663  14.442
72085W        W37246  19.182   2.448  11.683
72086W        W37247   7.415  18.928   0.338
72087W        W37248  38.872   0.448  14.847
72088W        W37249  29.950  44.496   0.422
72089W        W37250  41.022  28.997  12.941
72090W        W37251  34.176  21.065  12.413
72091W        W37252  22.719  23.982   2.211
72092W        W37253  33.894  29.082   1.040
72093W        W37254  16.873   0.939   4.929
72094W        W37255  19.340  11.960  10.718
72095W        W37256  21.043  28.870   0.274
72096W        W37257  16.588   7.668   2.753
72097W        W37258   1.129  41.537   4.625
72098W        W37259  15.040  26.020  10.503
72099W        W37260  22.766  33.330  13.092
72100W        W37261  12.742   2.644  13.395
72101W        W37262  42.925  17.094   2.773
72102W        W37263  28.617   9.495  11.939
72103W        W37264   5.322  33.107  14.879
72104W        W37265  11.235  20.613   2.678
72105W        W37266  28.944  30.513   2.176
72106W        W37267  27.542   9.303  11.038
72107W        W37268   8.572  29.616  10.831
72108W        W37269  43.374   8.251   3.448
72109W        W37270  28.620  11.524  13.823
72110W        W37271  29.144   6.653  13.584
72111W        W37272  16.054  24.292   0.847
72112W        W37273  28.512  18.230   2.124
72113W        W37274   9.819  11.295  11.405
72114W        W37275   3.255  24.083  12.997
72115W        W37276  10.341   1.587   3.641
72116W        W37277  32.710  11.027   2.334
72117W        W37278  33.063  25.420  14.863
72118W        W37279   6.234  31.802   0.310
72119W        W37280  12.886  12.139   1.144
72120W        W37281   9.739   1.976   3.741
72121W        W37282  23.288  29.409   3.700
72122W        W37283  17.766  28.212  12.465
72123W        W37284  15.812  21.716  10.728
72124W        W37285   7.423  11.840   2.800
72125W        W37286  34.637  36.131   0.872
72126W        W37287   6.597   9.957   4.971
72127W        W37288  24.152  32.342   0.457
72128W        W37289  29.970  28.438   1.255
72129W        W37290   7.007  31.594   2.836
72130W        W37291  32.576  15.306  13.782
72131W        W37292  36.715   6.664   2.430
72132W        W37293  14.802  17.829   1.316
72133W        W37294  13.631  16.281  12.487
72134W        W37295  36.462  25.448  11.363
72135W        W37296  13.436  28.537   4.590
72136W        W37297  22.435  40.099   2.689
72137W        W37298  36.568  19.765  12.443
72138W        W37299   8.040  24.210  14.362
72139W        W37300  37.697  19.194   0.312
72140W        W37301   8.192  33.603  13.978
72141W        W37302  27.913   3.203  11.705
72142W        W37303   4.737  29.809  12.534
72143W        W37304   7.779   3.917   2.079
72144W        W37305  19.277  21.239  14.114
72145W        W37306   6.331  42.956  13.907
72146W        W37307  11.160  25.744  12.950
72147W        W37308  30.167  43.222   2.591
72148W        W37309  37.764  18.212   2.653
72149W        W37310  28.971  44.364   1.979
72150W        W37311  34.767  22.964   1.874
72151W        W37312  11.102  21.812   1.979
72152W        W37313  38.033  23.064   0.416
72153W        W37314  21.078  35.975  13.967
72154W        W37315  25.977  35.265   2.383
72155W        W37316  34.973  41.226   1.980
72156W        W37317   5.326  12.899  14.689
72157W        W37318  29.373   1.463   3.595
72158W        W37319  15.601  22.546  11.101
72159W        W37320  38.906  14.457  14.240
72160W        W37321  32.593  24.188  13.385
72161W        W37322  13.097  32.572   1.399
72162W        W37323  43.480  38.508   0.100
72163W        W37324  22.818  26.536   0.696
72164W        W37325  33.391  12.687  13.076
72165W        W37326   1.454  17.104  14.364
72166W        W37327  25.655   6.999   3.202
72167W        W37328  44.931  29.952   3.650
72168W        W37329  24.121  11.252   1.915
72169W        W37330  11.536   8.486  10.201
72170W        W37331  12.660   3.246   3.176
72171W        W37332   7.349  41.377  11.257
72172W        W37333   7.424  31.697   0.809
72173W        W37334  16.637  29.014   4.092
72174W        W37335  28.270  39.546   1.671
72175W        W37336  12.341  42.943   0.883
72176W        W37337   8.024  43.229   4.268
72177W        W37338  37.584   7.641   2.786
72178W        W37339  39.769   3.769   3.083
72179W        W37340  35.402   3.779   0.337
72180W        W37341  40.570  34.583   2.743
72181W        W37342  13.363  34.800  11.573
72182W        W37343  23.995   4.744   1.343
72183W        W37344  10.494   4.860   1.368
72184W        W37345  22.244   4.987   2.774
72185W        W37346  13.299  12.300   2.925
72186W        W37347  33.188  41.946   3.243
72187W        W37348  24.014  43.547  12.480
72188W        W37349  27.564  20.981  11.754
72189W        W37350  16.191  15.165   4.164
72190W        W37351  17.100  43.897   1.925
72191W        W37352  37.049  39.767  12.509
72192W        W37353  16.150  23.658  14.429
72193W        W37354  41.730   4.838   2.611
72194W        W37355  29.545  32.617   4.591
72195W        W37356   1.424  39.739  13.809
72196W        W37357  38.139  22.106   2.661
72197W        W37358   3.280  24.804   1.397
72198W        W37359  38.543  39.766   4.130
72199W        W37360  30.451   0.456  10.580
72200W        W37361   9.037  35.419   4.274
72201W        W37362  10.119  16.964   0.329
72202W        W37363  32.105  33.898   0.790
72203W        W37364  27.943  32.611   4.422
72204W        W37365  37.734  25.469  13.111
72205W        W37366  32.569  17.188   3.124
72206W        W37367  31.408   1.353   2.369
72207W        W37368  22.142  23.473   3.136
72208W        W37369   9.861  31.897   0.275
72209W        W37370  35.113  16.159   4.525
72210W        W37371  19.102  19.996   3.766
72211W        W37372  40.893   4.996  12.439
72212W        W37373  32.524  17.620  10.677
72213W        W37374  31.528  21.415  13.012
72214W        W37375  38.067  35.429  14.057
72215W        W37376  28.784  36.506  11.918
72216W        W37377   7.097  27.905  14.020
72217W        W37378  12.822   1.765  11.379
72218W        W37379  23.647  24.990  10.708
72219W        W37380  32.408  39.387   0.496
72220W        W37381  16.620  11.933   3.022
72221W        W37382  37.647  23.295  12.028
72222W        W37383  23.441  42.511   2.273
72223W        W37384  32.120   0.793   5.227
72224W        W37385  43.787   6.719   4.741
72225W        W37386  32.643  23.642  14.457
72226W        W37387  42.344  16.788   1.289
72227W        W37388  29.979  39.416   0.761
72228W        W37389   0.729  27.219  11.137
72229W        W37390  13.086  11.676   4.121
72230W        W37391  36.093  37.444  14.010
72231W        W37392  26.622   9.123   1.911
72232W        W37393  26.087  33.317  12.376
72233W        W37394  40.343  12.109   1.807
72234W        W37395  33.959  25.712  14.466
72235W        W37396  24.740  13.237  13.469
72236W        W37397  17.148  14.048  12.027
72237W        W37398  24.563  32.386   2.841
72238W        W37399   4.162  28.070   3.222
72239W        W37400  27.590  31.959   0.322
72240W        W37401  36.060  37.047  10.609
72241W        W37402   4.030  27.398   1.309
72242W        W37403  21.255  30.071  13.446
72243W        W37404   5.111  22.637  11.853
72244W        W37405  10.650   1.508  10.806
72245W        W37406   8.885  27.756   1.696
72246W        W37407  25.194   2.565   2.304
72247W        W37408  30.710  27.761  14.097
72248W        W37409  35.593   5.568   1.433
72249W        W37410  31.000  42.482  13.839
72250W        W37411  12.740  36.147  13.574
72251W        W37412  28.890   4.841   0.475
72252W        W37413  18.101  15.247  12.529
72253W        W37414   4.962  32.025   3.261
72254W        W37415  17.601   7.966   3.584
72255W        W37416  21.043  37.396   3.368
72256W        W37417   3.971  31.519   1.649
72257W        W37418  21.646   9.674   3.769
72258W        W37419  20.543   5.338   2.712
72259W        W37420   8.154   6.473   2.575
72260W        W37421  22.136  19.113   2.195
72261W        W37422  30.572  40.778  11.086
72262W        W37423   6.447  26.262  14.901
72263W        W37424  27.148  35.386   1.640
72264W        W37425  11.212  11.091  13.761
72265W        W37426  34.595  11.218  12.091
72266W        W37427   1.957  43.851   3.475
72267W        W37428   4.917   9.487   4.280
72268W        W37429  37.448   6.393   3.319
72269W        W37430  37.896  28.325   0.065
72270W        W37431   1.832   9.730   2.318
72271W        W37432  27.981  26.032  14.547
72272W        W37433  13.841  17.398  10.620
72273W        W37434  42.012  36.886  10.088
72274W        W37435  35.260  43.287   2.728
72275W        W37436   6.246  39.607   4.532
72276W        W37437  28.073  31.454   0.477
72277W        W37438   1.055   3.716   3.165
72278W        W37439  33.220  33.768   2.700
72279W        W37440  14.282   5.758   2.027
72280W        W37441  40.792  22.949  11.966
72281W        W37442  39.096  18.627  14.759
72282W        W37443  16.740  29.206  14.659
72283W        W37444  41.134  42.779  11.022
72284W        W37445  43.885  17.042  10.519
72285W        W37446  36.388   2.429  11.985
72286W        W37447  26.477   3.297  11.693
72287W        W37448  23.223  42.990   2.372
72288W        W37449  16.796  41.548  10.173
72289W        W37450   1.381  26.279  13.036
72290W        W37451  22.449  31.302   4.246
72291W        W37452   3.447  34.928  14.332
72292W        W37453  28.326  44.990   1.987
72293W        W37454  41.599  44.750  11.646
72294W        W37455  43.719  27.996  12.151
72295W        W37456   5.945  26.501   2.710
72296W        W37457  18.008  40.558   1.945
72297W        W37458  29.534   8.063   4.967
72298W        W37459  40.815  25.388  13.334
72299W        W37460   0.461  21.066   0.390
72300W        W37461  35.877  15.080   4.390
72301W        W37462  31.131   6.171  11.611
72302W        W37463  22.841   6.927  13.830
72303W        W37464  43.005  27.908  14.853
72304W        W37465  36.923  42.446  11.475
72305W        W37466  15.892  41.025   2.019
72306W        W37467  38.578  21.228  11.045
72307W        W37468  41.922   4.445   1.335
72308W        W37469  15.248  29.473  13.033
72309W        W37470  38.547  27.286  13.536
72310W        W37471  43.988  19.613  14.153
72311W        W37472  33.463  29.593   2.223
72312W        W37473  23.381  37.648  10.286
72313W        W37474  42.574  43.877   3.708
72314W        W37475  22.525  27.927  10.798
72315W        W37476  11.352  25.037   0.654
72316W        W37477  27.508  25.135   1.766
72317W        W37478  29.930  29.461  13.046
72318W        W37479   9.424  28.521  14.943
72319W        W37480  11.563  33.033  12.892
72320W        W37481  29.417  20.310   0.303
72321W        W37482  23.141  16.796   3.246
72322W        W37483  16.093   8.950   0.491
72323W        W37484  27.547  11.068  12.973
72324W        W37485  11.675  11.011   2.224
72325W        W37486  42.560  28.537   4.190
72326W        W37487  44.347  29.323   9.879
72327W        W37488  31.899  30.220   3.006
72328W        W37489  42.972  19.079   0.059
72329W        W37490  25.053   6.461   3.682
72330W        W37491  19.561  42.255   4.004
72331W        W37492  29.233  29.168   3.833
72332W        W37493  22.173   5.991   4.533
72333W        W37494   6.815   8.285  14.344
72334W        W37495  42.839   6.543  13.864
72335W        W37496  25.057  18.655   2.271
72336W        W37497   4.571  38.353  10.899
72337W        W37498  18.530  28.661   4.579
72338W        W37499  18.828  22.586  10.758
72339W        W37500   3.530  35.506  10.724
72340W        W37501  31.017  35.388  13.437
72341W        W37502  17.200  37.112  14.570
72342W        W37503  32.061  30.280   2.519
72343W        W37504   7.917  27.525   0.743
72344W        W37505  34.481  17.021   1.758
72345W        W37506  39.599  12.580  14.860
72346W        W37507  36.060  13.365   2.789
72347W        W37508  26.466   1.780  10.246
72348W        W37509  17.684  16.087  13.364
72349W        W37510  16.260  35.029   3.324
72350W        W37511  15.859  16.861   0.227
72351W        W37512  13.614  40.472   1.479
72352W        W37513  27.311   8.305   3.708
72353W        W37514  19.954  44.439   0.313
72354W        W37515  23.217   3.683  11.538
72355W        W37516   5.922   9.400  13.445
72356W        W37517  26.056  11.854  10.338
72357W        W37518  25.870  14.215   0.470
72358W        W37519  22.292  41.967   0.757
72359W        W37520  38.039  32.593   0.772
72360W        W37521  12.306   1.012  13.978
72361W        W37522  13.279  38.299  14.789
72362W        W37523   8.262  32.433  10.283
72363W        W37524  43.002  39.396   0.080
72364W        W37525  33.982  35.641   1.232
72365W        W37526  20.621  37.956  14.444
72366W        W37527  35.326   9.775   3.426
72367W        W37528  23.907  28.150  13.405
72368W        W37529  12.308  17.758   3.694
72369W        W37530  12.145   9.902   1.240
72370W        W37531  11.206  27.578  13.936
72371W        W37532  24.992  31.081   2.376
72372W        W37533  38.081  42.570  13.297
72373W        W37534  13.341  22.825  12.033
72374W        W37535  29.725  38.170  10.112
72375W        W37536  24.488  12.712   0.753
72376W        W37537  29.675   8.449  12.124
72377W        W37538  22.189  30.123  12.155
72378W        W37539  38.143  11.689   3.357
72379W        W37540  22.050  36.432  10.699
72380W        W37541  16.611  17.475  14.555
72381W        W37542  25.559  14.739  14.388
72382W        W37543  14.250  30.482   2.318
72383W        W37544   3.996  20.290  11.710
72384W        W37545  39.354  10.250  11.964
72385W        W37546  29.765   2.900   4.828
72386W        W37547  27.086  31.573  12.887
72387W        W37548  24.732   2.335   2.787
72388W        W37549  32.438  16.689   0.045
72389W        W37550  21.439  17.379   0.724
72390W        W37551  38.701  35.064  12.338
72391W        W37552  10.340  31.397   4.688
72392W        W37553  22.617   6.524   4.593
72393W        W37554  43.447  23.708  11.575
72394W        W37555  26.140  39.220   1.420
72395W        W37556  28.976  26.652  11.910
72396W        W37557  22.960  38.830   3.656
72397W        W37558  19.599  32.036  11.297
72398W        W37559  37.947   5.504  10.575
72399W        W37560  10.079  26.024  14.347
72400W        W37561   6.642  35.362  12.577
72401W        W37562   0.403   9.775   0.329
72402W        W37563  42.022   6.824   3.791
72403W        W37564   3.446  36.664   0.258
72404W        W37565   9.377  28.908  13.998
72405W        W37566  30.900  32.186  11.836
72406W        W37567  20.279  43.892  12.488
72407W        W37568  11.753  11.166   0.961
72408W        W37569   8.963  12.892  13.520
72409W        W37570  19.680  35.251  12.760
72410W        W37571  11.650  39.574  13.360
72411W        W37572  22.302   4.924   0.670
72412W        W37573  27.130   2.944   3.723
72413W        W37574  40.870  32.764  14.588
72414W        W37575  43.909  36.514  12.120
72415W        W37576  35.019  24.204  12.080
72416W        W37577  24.938  29.597   4.620
72417W        W37578  14.625  26.094  12.948
72418W        W37579  11.938   8.125  13.378
72419W        W37580   1.843  44.208   1.229
72420W        W37581  13.476  37.211  11.692
72421W        W37582  33.934  44.819  11.000
72422W        W37583  31.362   6.260   4.494
72423W        W37584  35.839  24.180   4.944
72424W        W37585  38.506  35.109  14.037
72425W        W37586  40.611  40.404  14.808
72426W        W37587  39.647  33.904  14.272
72427W        W37588   0.241   8.225   0.415
72428W        W37589  40.393  14.252  12.436
72429W        W37590  25.486  24.585  12.438
72430W        W37591  24.642  27.188  13.980
72431W        W37592  31.602   0.209  14.510
72432W        W37593  22.843   1.918  12.615
72433W        W37594  24.716  22.295  11.685
72434W        W37595  21.191  29.058  10.977
72435W        W37596   9.311   3.916  12.638
72436W        W37597  14.496  32.479  12.232
72437W        W37598  25.780  40.478   5.082
72438W        W37599   1.895  33.486  14.571
72439W        W37600  29.391  38.378   0.715
72440W        W37601   9.822  17.626   0.439
72441W        W37602  16.273  33.044   0.720
72442W        W37603  13.979  30.386   3.672
72443W        W37604  37.433   1.526   0.592
72444W        W37605   0.702  34.499  10.952
72445W        W37606  17.535   6.929   0.475
72446W        W37607   6.266  31.428   1.531
72447W        W37608  30.688  29.679  14.247
72448W        W37609  10.110  13.154  11.533
72449W        W37610   1.392  15.452   4.611
72450W        W37611  25.310  30.390  13.312
72451W        W37612  40.882   0.461  10.715
72452W        W37613  17.115  31.878   0.398
72453W        W37614  39.015  20.832   3.629
72454W        W37615   0.543  37.120  13.209
72455W        W37616   4.689  23.272  12.993
72456W        W37617  22.444   3.384   0.209
72457W        W37618   0.485  34.433   1.815
72458W        W37619  12.781  21.547  11.078
72459W        W37620  39.417  34.460  13.929
72460W        W37621  19.228  19.053   2.146
72461W        W37622   9.302  12.263   0.076
72462W        W37623  25.864   1.716  13.148
72463W        W37624  43.535  13.576   3.205
72464W        W37625  36.705   2.221  13.422
72465W        W37626  15.630  42.075  12.840
72466W        W37627  27.128  24.732  11.973
72467W        W37628  24.690   4.601  10.052
72468W        W37629  35.581  30.253  12.430
72469W        W37630  27.145   5.850  14.835
72470W        W37631  42.197  11.314   2.917
72471W        W37632  16.031   6.471  12.842
72472W        W37633  41.460  25.067   3.196
72473W        W37634  18.602  25.612   1.400
72474W        W37635  29.919  44.921  13.529
72475W        W37636  42.787  12.790   1.272
72476W        W37637   8.855  30.538   4.618
72477W        W37638  20.499  11.945   0.809
72478W        W37639   8.072  25.702  12.483
72479W        W37640   9.875  39.500  12.990
72480W        W37641  29.006  34.400  13.804
72481W        W37642  27.900  22.508  14.911
72482W        W37643  15.418  16.509  11.439
72483W        W37644   9.024  11.735  11.300
72484W        W37645  44.942  21.687   0.486
72485W        W37646  22.821  25.106   0.415
72486W        W37647  18.719  37.806  10.907
72487W        W37648  28.024  19.478  11.548
72488W        W37649  17.184  24.303  10.191
72489W        W37650   4.476  25.010   4.470
72490W        W37651  27.224  43.234   1.728
72491W        W37652  16.167  16.812  10.224
72492W        W37653  39.436  33.203  10.891
72493W        W37654  37.019  37.008  10.940
72494W        W37655  37.746   8.572   2.736
72495W        W37656  11.444  20.298   0.399
72496W        W37657  36.701  44.403  14.156
72497W        W37658  43.597  43.856  11.558
72498W        W37659  25.285  44.635  12.514
72499W        W37660   8.639  35.818   2.799
72500W        W37661   8.056   5.409  11.189
72501W        W37662  38.980  42.751   4.128
72502W        W37663  31.525  36.405  10.765
72503W        W37664   6.420  28.500   3.810
72504W        W37665  14.876  34.684  13.914
72505W        W37666  28.654  29.554   0.267
72506W        W37667  31.737  21.300  13.497
72507W        W37668  37.976  29.579   1.149
72508W        W37669  33.630   5.555  13.922
72509W        W37670  18.107  31.783   4.861
72510W        W37671   8.900   5.950  11.775
72511W        W37672  19.964  31.555   1.909
72512W        W37673  30.433   8.126  11.727
72513W        W37674  25.108  10.002   5.465
72514W        W37675  38.141  22.731   1.844
72515W        W37676  32.442  29.147   4.081
72516W        W37677  39.752  37.858   2.792
72517W        W37678  39.368  39.892  14.638
72518W        W37679  32.838  40.826   3.047
72519W        W37680   8.753  25.688  13.538
72520W        W37681  14.220  43.677   3.581
72521W        W37682  13.587   6.892   2.543
72522W        W37683   5.118  33.147   1.712
72523W        W37684   2.455  44.638   5.126
72524W        W37685  21.657  13.814   2.449
72525W        W37686   3.206  39.355   1.766
72526W        W37687  43.360  32.228  13.294
72527W        W37688  37.855  34.504  10.274
72528W        W37689  22.303  21.793   0.674
72529W        W37690  42.523   4.832  12.395
72530W        W37691  22.543  34.610   3.291
72531W        W37692   2.197   6.694   3.103
72532W        W37693  42.067  11.966   0.883
72533W        W37694   3.629  37.519  10.556
72534W        W37695  22.120   2.717   3.404
72535W        W37696  19.316  16.318   3.141
72536W        W37697  13.181  33.154   3.230
72537W        W37698  37.030  19.453  14.580
72538W        W37699  37.453   4.827  11.576
72539W        W37700  17.853  37.010   3.736
72540W        W37701  42.892  30.061   3.055
72541W        W37702   9.777  29.866   1.403
72542W        W37703  32.165  36.908  14.367
72543W        W37704  13.040  17.888  13.372
72544W        W37705   5.765  37.537  12.199
72545W        W37706  21.512  31.925  13.153
72546W        W37707  20.014  25.468   3.603
72547W        W37708   9.859  39.467   0.298
72548W        W37709  18.954  26.875  14.237
72549W        W37710  26.065  35.857  12.843
72550W        W37711  17.369  44.333   1.805
72551W        W37712  24.442  29.673   3.578
72552W        W37713  19.152  21.397  11.194
72553W        W37714  28.841   5.266  13.842
72554W        W37715  31.001  29.966   3.403
72555W        W37716   6.961   4.388   0.470
72556W        W37717  12.620  40.802  13.919
72557W        W37718  42.587   4.168   4.545
72558W        W37719   9.159   7.297   2.857
72559W        W37720  44.565  26.487   1.153
72560W        W37721  24.727  42.417  12.545
72561W        W37722  28.174  31.940   0.248
72562W        W37723  34.112  44.779  14.929
72563W        W37724   3.329  43.226   3.177
72564W        W37725  15.078  43.492   1.081
72565W        W37726   5.385   4.379   4.209
72566W        W37727  29.692  10.412   3.231
72567W        W37728  24.283  32.399   1.824
72568W        W37729  30.191   5.183   4.018
72569W        W37730  30.960  13.621   0.825
72570W        W37731  19.592   6.675   1.465
72571W        W37732  33.599  34.056  11.873
72572W        W37733  18.185   8.470  13.885
72573W        W37734  40.460  21.283   2.559
72574W        W37735   9.395  44.877   2.160
72575W        W37736  32.900  26.236  11.472
72576W        W37737  37.654   4.633  11.103
72577W        W37738  43.791  39.117   2.106
72578W        W37739  10.266   9.440   0.828
72579W        W37740  41.837  27.431   3.770
72580W        W37741  24.926  34.846  13.042
72581W        W37742   8.882  17.014  10.954
72582W        W37743  14.834  15.264   0.464
72583W        W37744  44.965  16.869  12.641
72584W        W37745  20.153  28.880   4.200
72585W        W37746   0.047  25.289  11.084
72586W        W37747  36.770  34.619  13.940
72587W        W37748  26.255  37.644   2.039
72588W        W37749  31.723  36.843  12.489
72589W        W37750  26.201  44.157   2.002
72590W        W37751  43.299  13.649   1.841
72591W        W37752  17.544  12.167  13.294
72592W        W37753   4.211  10.136   4.890
72593W        W37754  31.531  12.674  14.027
72594W        W37755  16.161  38.641  13.463
72595W        W37756   6.761  37.804  13.381
72596W        W37757   6.358  20.758   1.675
72597W        W37758   5.001  39.293  14.452
72598W        W37759  22.554  12.581  13.491
72599W        W37760  27.017  23.006  12.965
72600W        W37761  29.556  20.001  13.854
72601W        W37762  38.624  23.865  12.960
72602W        W37763  36.662   4.189   0.311
72603W        W37764  30.980  21.535   4.966
72604W        W37765  38.920  41.522  13.461
72605W        W37766  25.158  37.318  13.278
72606W        W37767  27.940   7.420  13.042
72607W        W37768   5.755  44.495  12.933
72608W        W37769   6.595  39.374  11.398
72609W        W37770  22.227  26.156   1.778
72610W        W37771  26.826  37.695  10.735
72611W        W37772  20.020  35.821   3.739
72612W        W37773  37.607  24.100  13.035
72613W        W37774   8.951  13.311  12.803
72614W        W37775  43.248  33.923   0.441
72615W        W37776  23.237  30.918  14.877
72616W        W37777  26.053  13.190  14.856
72617W        W37778  11.382  35.399  12.747
72618W        W37779  30.086  25.164   4.680
72619W        W37780  23.713  25.246  12.138
72620W        W37781   2.593  44.274   4.283
72621W        W37782  34.203  10.897   4.564
72622W        W37783  13.305  15.212  13.847
72623W        W37784   5.363  31.129  10.102
72624W        W37785  34.985  27.086  11.835
72625W        W37786  10.663  14.188  12.581
72626W        W37787  18.092   6.019  10.804
72627W        W37788  30.866  44.017   2.586
72628W        W37789  31.847   7.293  12.230
72629W        W37790  38.903  29.166   2.188
72630W        W37791   1.753  26.116   0.848
72631W        W37792  30.114  44.263   2.162
72632W        W37793  24.975  38.033   2.272
72633W        W37794   6.651   1.351  12.002
72634W        W37795  37.362  39.265  13.901
72635W        W37796  42.516  44.929   4.568
72636W        W37797  30.189  43.845   1.255
72637W        W37798  35.617  30.046   4.209
72638W        W37799  43.790  25.154   2.407
72639W        W37800  35.072  42.215   0.953
72640W        W37801  44.533  17.265  14.868
72641W        W37802  16.641  14.224  12.855
72642W        W37803   5.753  38.078  14.344
72643W        W37804  35.830  24.217   2.164
72644W        W37805  40.499   3.317  11.978
72645W        W37806  44.795  18.502   3.814
72646W        W37807  32.418   0.393  11.196
72647W        W37808  23.585  39.358   1.830
72648W        W37809  42.933  10.084   2.464
72649W        W37810  27.781  12.723   4.207
72650W        W37811   9.179  40.532  12.381
72651W        W37812  23.536  34.375   0.666
72652W        W37813   6.879  34.556   1.780
72653W        W37814  37.295   0.779  11.064
72654W        W37815  17.827  11.203  11.153
72655W        W37816  14.030  10.020   2.204
72656W        W37817  41.263  44.945   2.699
72657W        W37818  43.654  20.163  12.085
72658W        W37819  24.997   7.343   1.968
72659W        W37820  21.416   6.838   1.434
72660W        W37821  24.252  12.054   1.178
72661W        W37822  11.216  10.575   3.424
72662W        W37823  24.202   4.681  10.299
72663W        W37824   0.271   0.904   3.785
72664W        W37825  40.306  19.942  14.306
72665W        W37826  33.354  32.870  13.062
72666W        W37827   9.274  25.501   1.224
72667W        W37828   9.868  39.291   1.297
72668W        W37829   3.417  39.694  14.171
72669W        W37830  12.456  35.517  14.237
72670W        W37831  16.608   7.867  12.716
72671W        W37832   7.987  29.599   9.982
72672W        W37833  32.951  27.832   2.659
72673W        W37834   1.725  26.994  12.571
72674W        W37835   0.873  29.064  12.429
72675W        W37836   7.860  25.628   1.015
72676W        W37837  37.533  35.469  12.383
72677W        W37838  39.834  41.425   3.143
72678W        W37839  11.416  40.537  11.943
72679W        W37840  12.308  17.480   4.851
72680W        W37841  11.120  18.997   1.695
72681W        W37842   2.735  28.018   1.665
72682W        W37843  34.664  15.109   2.278
72683W        W37844  11.175  37.398   2.330
72684W        W37845   1.802  43.002   1.880
72685W        W37846  36.476  35.545   3.900
72686W        W37847   7.932  39.994  13.561
72687W        W37848   8.928  33.441   3.164
72688W        W37849  29.471  36.766   0.927
72689W        W37850   1.562  29.801  14.942
72690W        W37851  30.113  43.986   3.393
72691W        W37852  30.404  33.386   2.389
72692W        W37853  43.865   3.588   4.011
72693W        W37854  17.122   9.716   1.501
72694W        W37855  38.293  25.989   4.462
72695W        W37856  40.384  11.468  13.983
72696W        W37857  14.305   2.572   4.521
72697W        W37858  15.595   4.475  10.276
72698W        W37859  14.332  32.185  12.678
72699W        W37860  16.668  13.353   2.290
72700W        W37861  38.826  13.501  10.782
72701W        W37862  32.997  44.236   4.175
72702W        W37863  37.124  39.247  14.386
72703W        W37864  26.087  23.730  12.122
72704W        W37865  34.359  34.336   1.154
72705W        W37866  13.112  27.693  14.478
72706W        W37867   2.712   5.797  13.287
72707W        W37868   3.486  42.826  13.544
72708W        W37869  19.707  29.964   4.551
72709W        W37870  44.713  30.130   3.161
72710W        W37871   4.237  42.152   3.971
72711W        W37872  37.261  11.887  12.418
72712W        W37873  33.533  17.773   3.137
72713W        W37874  16.040  19.025  13.872
72714W        W37875   9.928  22.730   3.398
72715W        W37876  44.030   0.328  11.632
72716W        W37877  23.082  43.377  14.363
72717W        W37878  18.023  26.887  13.859
72718W        W37879  14.562  16.161   0.476
72719W        W37880  24.528   3.839  14.587
72720W        W37881  16.394  30.392  14.371
72721W        W37882  31.444  15.958  14.411
72722W        W37883  39.075  14.136  12.937
72723W        W37884  27.605  36.337  14.764
72724W        W37885   5.686  35.980   1.279
72725W        W37886   5.835  43.565  11.494
72726W        W37887  41.515  11.644   1.277
72727W        W37888   7.438   2.581  14.275
72728W        W37889  34.176  28.405   1.741
72729W        W37890  40.098   4.224  13.295
72730W        W37891  19.973  34.129   2.223
72731W        W37892  32.328  31.957  10.704
72732W        W37893  12.751   8.061   4.225
72733W        W37894  20.104  25.222  13.180
72734W        W37895  14.964  41.185  10.280
72735W        W37896  13.866  26.078  14.943
72736W        W37897  35.940  30.193  13.979
72737W        W37898   4.796  33.600  11.058
72738W        W37899   5.420  20.689  14.812
72739W        W37900  21.497  18.636   1.725
72740W        W37901  11.863   7.928  12.569
72741W        W37902  24.009  24.618   2.417
72742W        W37903  32.414  25.451   3.622
72743W        W37904  24.050  31.194   2.409
72744W        W37905  31.935  22.026   4.828
72745W        W37906  35.905  38.030   4.094
72746W        W37907  26.995   3.488   4.567
72747W        W37908  23.416  29.183   1.483
72748W        W37909  10.888  41.390   3.018
72749W        W37910  27.878  29.560   1.327
72750W        W37911  23.056  16.249   4.076
72751W        W37912  43.086  33.458   1.760
72752W        W37913  43.310  13.091  11.190
72753W        W37914  36.509  44.030   3.285
72754W        W37915  33.064  40.351  12.317
72755W        W37916   6.273  18.330   4.207
72756W        W37917   1.330  40.809  11.448
72757W        W37918   4.897  19.715   3.704
72758W        W37919   0.979  21.997  10.176
72759W        W37920  34.146  29.418  13.084
72760W        W37921   4.764  18.340  13.470
72761W        W37922  41.575  43.969  14.550
72762W        W37923  11.852  12.752  14.058
72763W        W37924  30.386  15.459   2.870
72764W        W37925  40.384   0.983  13.812
72765W        W37926   1.175  25.169  12.205
72766W        W37927   0.026  38.417  13.256
72767W        W37928  42.014   4.841  12.493
72768W        W37929  10.868  34.444   0.164
72769W        W37930  34.022   8.790  12.722
72770W        W37931  12.291  24.192  13.375
72771W        W37932  38.526   7.517   2.631
72772W        W37933  19.798  38.863   4.248
72773W        W37934  25.685  36.804   0.541
72774W        W37935   6.928  23.481  11.508
72775W        W37936  15.316  18.989   3.848
72776W        W37937   5.216  20.953  11.409
72777W        W37938  40.057   1.701   2.486
72778W        W37939  22.157  12.799   0.046
72779W        W37940  25.934  38.543  12.020
72780W        W37941  30.014  30.479   3.133
72781W        W37942  36.620  36.648  11.167
72782W        W37943   6.780  33.859  12.538
72783W        W37944  19.814  16.712  13.308
72784W        W37945   7.863  34.404   4.775
72785W        W37946  33.890  34.404  12.330
72786W        W37947  15.820  18.377   1.750
72787W        W37948  22.095   5.192   0.255
72788W        W37949  23.132  36.010  11.167
72789W        W37950  25.915   7.009   0.481
72790W        W37951   9.615   2.887   1.697
72791W        W37952  33.444  43.780  10.940
72792W        W37953   7.878   1.580  11.263
72793W        W37954  41.387  19.379   2.424
72794W        W37955  30.085  34.509  11.510
72795W        W37956   6.851  14.409  13.501
72796W        W37957  36.540  36.146  13.351
72797W        W37958   6.976  12.148  12.437
72798W        W37959  17.335   4.323   2.711
72799W        W37960  21.348  38.676   5.046
72800W        W37961  18.227  16.632  12.317
72801W        W37962  39.535  12.904  11.062
72802W        W37963  41.460  44.304  12.028
72803W        W37964  17.140  39.628   0.821
72804W        W37965  20.607  26.725  12.991
72805W        W37966   3.619   6.699   1.267
72806W        W37967   4.145  40.286   3.107
72807W        W37968  16.696   8.868  14.851
72808W        W37969  35.277  26.673  13.498
72809W        W37970   4.176  15.301  12.917
72810W        W37971  23.241  27.740   2.158
72811W        W37972  12.110   8.455   4.053
72812W        W37973  16.337   7.730   0.010
72813W        W37974  15.761  12.847  10.753
72814W        W37975   5.057  28.504  12.984
72815W        W37976  18.126  27.056  13.374
72816W        W37977  12.664   0.956   2.769
72817W        W37978   4.497  17.725   4.632
72818W        W37979  26.594   2.050   5.087
72819W        W37980  19.989   4.795  11.928
72820W        W37981   2.913  24.081  10.061
72821W        W37982  27.011  41.861  13.792
72822W        W37983  18.796  38.828   2.029
72823W        W37984  10.004  23.414  11.933
72824W        W37985   0.809   7.636  10.757
72825W        W37986  30.655  14.655   3.311
72826W        W37987  18.852  23.682  10.842
72827W        W37988   2.965   0.205   2.156
72828W        W37989  31.584  17.206  11.643
72829W        W37990  44.482  20.505   0.980
72830W        W37991  13.205  11.205   4.895
72831W        W37992  32.277  21.314  13.509
72832W        W37993  34.569  20.344  12.059
72833W        W37994  44.749  23.659   0.543
72834W        W37995  26.747   6.351   3.388
72835W        W37996  26.502  41.405  11.191
72836W        W37997  20.580  23.462   4.661
72837W        W37998  19.582  41.271  12.669
72838W        W37999   8.872  38.328   0.790
72839W        W38000  36.534  44.260   2.832
72840W        W38001  21.001  44.826  10.953
72841W        W38002  25.673  24.099   3.186
72842W        W38003  20.387   4.992  14.863
72843W        W38004  40.219   4.460   0.416
72844W        W38005   5.451  20.762  13.267
72845W        W38006  23.941  21.009  11.194
72846W        W38007  11.782   0.975   4.612
72847W        W38008  19.913  31.636   3.732
72848W        W38009  26.746  20.233  11.179
72849W        W38010  29.286  21.672   2.307
72850W        W38011  21.647  31.982   4.364
72851W        W38012   0.814  34.380  14.204
72852W        W38013  24.767  39.564  14.698
72853W        W38014  41.123  42.384   0.198
72854W        W38015  12.840  35.885  10.425
72855W        W38016  42.203  41.826  11.637
72856W        W38017  14.173  23.549  11.054
72857W        W38018  22.101  26.309  10.281
72858W        W38019  43.977  14.376   3.733
72859W        W38020  36.673  27.585   4.764
72860W        W38021  40.044  14.525   0.151
72861W        W38022  42.796  19.150   3.179
72862W        W38023  38.233  19.603   3.648
72863W        W38024  11.355  33.179   4.619
72864W        W38025  30.087  29.705   0.762
72865W        W38026  44.438  18.841   2.739
72866W        W38027  44.927   6.216   3.565
72867W        W38028  32.136  18.500   4.527
72868W        W38029  20.630   9.755  13.556
72869W        W38030   6.936  22.077   4.126
72870W        W38031  33.785   1.111   2.586
72871W        W38032  41.185   4.279  12.571
72872W        W38033  29.937  35.050   3.579
72873W        W38034  37.965  20.256   3.254
72874W        W38035  17.826   9.364   0.737
72875W        W38036  33.919  15.997   2.567
72876W        W38037   4.409  25.134   3.533
72877W        W38038  38.837   4.502   2.044
72878W        W38039  38.941  12.283   1.522
72879W        W38040  26.619  21.314   2.642
72880W        W38041  32.378  29.438   3.306
72881W        W38042  28.069  25.101   3.850
72882W        W38043  29.679  26.498  12.546
72883W        W38044  12.725  28.269  11.591
72884W        W38045  39.262   9.129   2.930
72885W        W38046  12.871  42.816   4.333
72886W        W38047  35.054   3.498   3.518
72887W        W38048  34.189  14.758  13.192
72888W        W38049  17.617  33.028  11.540
72889W        W38050   4.700  21.119   4.634
72890W        W38051  28.421  31.348   4.251
72891W        W38052   1.446  24.684   3.010
72892W        W38053   6.245  11.211  11.091
72893W        W38054  29.157  37.541  11.922
72894W        W38055  44.273  44.590   2.411
72895W        W38056  12.734  42.500   4.999
72896W        W38057   6.291   3.780  11.592
72897W        W38058   4.653  23.586   4.589
72898W        W38059  10.686   8.969   4.682
72899W        W38060  43.819  20.398  13.420
72900W        W38061  13.242  23.338  12.033
72901W        W38062   2.456  30.287  13.306
72902W        W38063  27.211   2.664  12.531
72903W        W38064  15.026  29.432  11.286
72904W        W38065  33.388   0.940   0.818
72905W        W38066  21.017  19.632   3.279
72906W        W38067   0.011  44.086   4.060
72907W        W38068  27.095  34.575   1.306
72908W        W38069  14.106   0.892  13.922
72909W        W38070  12.344  12.151   2.833
72910W        W38071   7.838  38.796   2.279
72911W        W38072  33.485  38.919   2.346
72912W        W38073  37.296  13.916  11.669
72913W        W38074  37.576  39.277  11.919
72914W        W38075  28.672  13.436  12.615
72915W        W38076  35.507  29.343  11.903
72916W        W38077  38.008  23.337   3.121
72917W        W38078  27.377  33.581  12.515
72918W        W38079  17.420  31.149   1.983
72919W        W38080  23.495  17.960  14.586
72920W        W38081   2.902  37.622  13.065
72921W        W38082  22.230  27.191   3.559
72922W        W38083  41.347  26.686  11.577
72923W        W38084  30.161  24.124   1.900
72924W        W38085   4.258  27.635  12.274
72925W        W38086   8.786   7.732   4.116
72926W        W38087   8.095  29.337   3.594
72927W        W38088  43.273   2.960   0.135
72928W        W38089  32.056  16.834  10.062
72929W        W38090  35.551  14.031   4.096
72930W        W38091   7.300   3.434  11.047
72931W        W38092   7.741  18.598   3.268
72932W        W38093  28.411  43.937   2.726
72933W        W38094  28.571  30.064  14.000
72934W        W38095  12.399   4.158   0.005
72935W        W38096  35.657  15.308  12.053
72936W        W38097  30.479  38.079   1.244
72937W        W38098  27.429  14.956   0.864
72938W        W38099  12.850  25.710   3.264
72939W        W38100  26.493  25.700   2.484
72940W        W38101   7.104  28.057   4.646
72941W        W38102  12.271  37.344   2.110
72942W        W38103  34.069  31.398   0.942
72943W        W38104  33.512  44.016   4.207
72944W        W38105   8.648  18.121   2.722
72945W        W38106  44.371   2.426   5.001
72946W        W38107   4.943  29.303   1.606
72947W        W38108   1.311  19.397  12.063
72948W        W38109  24.234  32.457   3.708
72949W        W38110  33.113  24.159  12.432
72950W        W38111  19.570   1.974   3.767
72951W        W38112  33.364  24.907  14.786
72952W        W38113   7.350  15.428   2.485
72953W        W38114  14.835   1.692  12.920
72954W        W38115  13.836  29.477   3.725
72955W        W38116  32.360  42.039  12.588
72956W        W38117   7.646  11.858  13.831
72957W        W38118  31.688  42.690  14.950
72958W        W38119  31.899  33.046  12.972
72959W        W38120  44.551   9.117   0.937
72960W        W38121  17.626  14.342  10.572
72961W        W38122   1.775  38.091   2.894
72962W        W38123   7.363  44.850  14.833
72963W        W38124  38.750  19.675   3.609
72964W        W38125  24.292   2.480   1.241
72965W        W38126  24.022  14.234   0.304
72966W        W38127  28.206  11.376   2.602
72967W        W38128  15.994  41.513  13.858
72968W        W38129  41.047  39.080   2.475
72969W        W38130   8.161  30.317  13.728
72970W        W38131   3.250  40.125   1.259
72971W        W38132  31.912  17.126   3.140
72972W        W38133   4.219  16.335   2.799
72973W        W38134   7.375  31.782  11.300
72974W        W38135   7.307   2.816  12.039
72975W        W38136  42.972  20.498   2.128
72976W        W38137   8.934  13.659   0.801
72977W        W38138  24.557  41.117   1.349
72978W        W38139  13.202  25.383   2.570
72979W        W38140  12.548  14.909   0.881
72980W        W38141   6.787  27.721  12.495
72981W        W38142  41.761  28.489   3.781
72982W        W38143  17.810  30.502  11.976
72983W        W38144  30.459  42.775   0.532
72984W        W38145  22.486   3.674  12.607
72985W        W38146  38.300  22.215  10.831
72986W        W38147  13.592  33.961  12.188
72987W        W38148  36.891  32.352   3.764
72988W        W38149  15.165   3.758   3.796
72989W        W38150  40.813  44.963  10.596
72990W        W38151  30.997  25.653   1.671
72991W        W38152  35.134  29.316   0.871
72992W        W38153  34.581   4.831   4.385
72993W        W38154   0.566  41.311   2.746
72994W        W38155  15.184  28.273   9.868
72995W        W38156  34.262  30.748  14.361
72996W        W38157  19.124   0.496  14.825
72997W        W38158   7.191  12.889  13.004
72998W        W38159  23.406  39.523   5.121
72999W        W38160  39.350   9.310  13.368
73000W        W38161  24.829   6.643  13.624
73001W        W38162  12.865   1.354  10.645
73002W        W38163   3.303   8.626   3.090
73003W        W38164  31.057   4.439  12.973
73004W        W38165  26.975  32.443  10.787
73005W        W38166  25.706   4.293  12.533
73006W        W38167  25.531  43.002   2.816
73007W        W38168  17.376  23.025   2.189
73008W        W38169  18.680   8.134   2.250
73009W        W38170  17.863  18.252   1.627
73010W        W38171  11.134  16.748   1.219
73011W        W38172  41.803  41.727  14.757
73012W        W38173   7.655  13.749   2.186
73013W        W38174  12.438  27.612   2.291
73014W        W38175  11.872  23.347   0.572
73015W        W38176   7.954   1.255  12.125
73016W        W38177  14.063  17.031   0.490
73017W        W38178   8.520  43.385   4.252
73018W        W38179  31.399  34.506  10.918
73019W        W38180  42.270  39.500  11.026
73020W        W38181  20.116  23.757  12.016
73021W        W38182  38.049  39.663   2.636
73022W        W38183  33.902   0.376   3.834
73023W        W38184   2.355  16.337   0.165
73024W        W38185  43.383  34.608   0.755
73025W        W38186   0.143  43.587   4.037
73026W        W38187  11.593  35.362  10.920
73027W        W38188   0.841  21.453   3.087
73028W        W38189   4.801  17.593  13.076
73029W        W38190  32.913  19.239   2.999
73030W        W38191  38.432  34.051   2.730
73031W        W38192  41.529  39.610  10.238
73032W        W38193  39.295  27.221  12.137
73033W        W38194  27.403  36.582  13.382
73034W        W38195  20.117   8.900   3.401
73035W        W38196  17.644  34.899  12.484
73036W        W38197  30.869  21.672  11.147
73037W        W38198  43.342  27.409   0.382
73038W        W38199  40.449   4.165  14.538
73039W        W38200  14.630  17.656   3.127
73040W        W38201  31.667   9.421  13.412
73041W        W38202  44.630  12.339   2.789
73042W        W38203  31.969  30.980   4.080
73043W        W38204  22.913  37.827  10.960
73044W        W38205  31.922  11.107  13.425
73045W        W38206   9.348  40.855   0.858
73046W        W38207   3.614  42.773   4.588
73047W        W38208  28.928   6.821  10.747
73048W        W38209   3.982  30.264   2.331
73049W        W38210   7.140  17.796   0.841
73050W        W38211  15.110  28.410  13.063
73051W        W38212   0.010   9.345   0.966
73052W        W38213  31.421  21.728   0.121
73053W        W38214  19.582  26.446  13.020
73054W        W38215  27.056   9.353   4.279
73055W        W38216   5.263  30.459  11.570
73056W        W38217  24.804  17.390  11.648
73057W        W38218  23.149  39.611  13.256
73058W        W38219  35.967  26.447  10.630
73059W        W38220  32.015  18.098  12.621
73060W        W38221  17.653  43.819   0.712
73061W        W38222   5.516   0.420  11.944
73062W        W38223  11.940  36.972   2.236
73063W        W38224  24.089  22.583   0.397
73064W        W38225   5.162  26.679  14.986
73065W        W38226  34.820  37.794  13.792
73066W        W38227   3.231  26.114   1.256
73067W        W38228   5.957  34.098   1.917
73068W        W38229  29.703  20.763  10.690
73069W        W38230  11.236   1.390  12.543
73070W        W38231  32.059  27.184  12.678
73071W        W38232  22.544  12.513   2.025
73072W        W38233  31.395   9.472   0.476
73073W        W38234  21.943  27.198  12.818
73074W        W38235   6.430  44.360  14.440
73075W        W38236  31.911   2.787  13.639
73076W        W38237  42.305  23.490   3.596
73077W        W38238  30.075  20.150  12.442
73078W        W38239   6.787  36.326   3.818
73079W        W38240  28.127  40.849   0.337
73080W        W38241  41.542  20.978   3.324
73081W        W38242  30.140  39.023   2.951
73082W        W38243  29.007  35.591   4.531
73083W        W38244  38.050  13.069  10.796
73084W        W38245  12.743   3.966   2.614
73085W        W38246  13.750  27.680   3.145
73086W        W38247   7.697  18.628   4.228
73087W        W38248  41.009  31.559  11.127
73088W        W38249  29.531  36.365   4.204
73089W        W38250  40.084  37.127  13.637
73090W        W38251  27.129   7.958   3.245
73091W        W38252  35.013  27.165  12.793
73092W        W38253  17.581  39.054  11.675
73093W        W38254  35.798  33.628   1.001
73094W        W38255  40.970   6.427  13.710
73095W        W38256   9.186   1.275   1.871
73096W        W38257  40.641  28.441   2.701
73097W        W38258  38.071  35.056   3.525
73098W        W38259   4.184   7.717  12.398
73099W        W38260   0.352  22.697   4.215
73100W        W38261  13.356  40.993  11.741
73101W        W38262  41.139  27.378  14.836
73102W        W38263  21.956  39.694   9.557
73103W        W38264  17.480  15.666   0.793
73104W        W38265  22.244  15.848  14.242
73105W        W38266  10.262  17.512  11.131
73106W        W38267   7.884   6.260   4.401
73107W        W38268  26.728  35.368  11.172
73108W        W38269  33.052   6.987   0.745
73109W        W38270  38.011  31.647  10.528
73110W        W38271  12.606  44.995  10.685
73111W        W38272  17.267   0.541  11.236
73112W        W38273  41.015   2.906   1.295
73113W        W38274  32.276   3.774  14.502
73114W        W38275  40.809  14.510  13.677
73115W        W38276   7.764  15.260   1.697
73116W        W38277   7.312  14.901  11.493
73117W        W38278  25.098  21.642  13.853
73118W        W38279  42.551   7.488   2.693
73119W        W38280  26.642   5.778   3.280
73120W        W38281  41.319   1.357   1.932
73121W        W38282  43.496  36.103  14.879
73122W        W38283  10.595   2.996  12.004
73123W        W38284  10.231  28.853  12.930
73124W        W38285   9.662   8.428   0.721
73125W        W38286  23.094  36.878  11.701
73126W        W38287  14.298  20.502   3.309
73127W        W38288  23.593  10.575   3.282
73128W        W38289  17.589  21.778   0.775
73129W        W38290  34.492  27.147  11.370
73130W        W38291  20.708  16.203  13.844
73131W        W38292  14.473   7.165  14.554
73132W        W38293   2.529  13.531   0.129
73133W        W38294  14.005  37.151   3.970
73134W        W38295  18.525   1.763  13.930
73135W        W38296  28.131  15.044   4.166
73136W        W38297  10.193  28.785  11.075
73137W        W38298   5.273   0.242  13.275
73138W        W38299  14.868  43.241   4.171
73139W        W38300   8.336  33.339  14.417
73140W        W38301  29.812   4.199  12.522
73141W        W38302  12.586  14.193   0.057
73142W        W38303  25.176   4.321   3.169
73143W        W38304  32.977   4.509  14.236
73144W        W38305   8.851  34.884  13.875
73145W        W38306  21.028  31.838   0.497
73146W        W38307  18.328   8.378   0.297
73147W        W38308  10.366  14.155  13.999
73148W        W38309  31.568  32.315  14.760
73149W        W38310  23.027  25.955   1.501
73150W        W38311  23.548  20.215   3.799
73151W        W38312  21.312  19.510   3.725
73152W        W38313  26.114  43.929   0.730
73153W        W38314  31.680  42.508   1.281
73154W        W38315  10.402   7.370  12.679
73155W        W38316   8.179  17.413  11.099
73156W        W38317   6.920  28.604  13.272
73157W        W38318  32.278  36.962   3.395
73158W        W38319  15.087  20.156   3.124
73159W        W38320  13.923  17.191   1.458
73160W        W38321   6.760   0.225  10.427
73161W        W38322  21.649   5.125  13.415
73162W        W38323  27.734  30.397  13.565
73163W        W38324  10.601   8.220  12.875
73164W        W38325  39.995  14.169   0.597
73165W        W38326   6.384  34.908   3.297
73166W        W38327  35.551  28.725  11.303
73167W        W38328  36.460   9.838  10.809
73168W        W38329  21.197  42.000  13.859
73169W        W38330  41.854  27.181   1.263
73170W        W38331  44.883   9.865  13.640
73171W        W38332  41.870  18.607   2.883
73172W        W38333   6.419   3.310  13.868
73173W        W38334  23.723   8.671   2.806
73174W        W38335  30.111   0.504  10.965
73175W        W38336  11.810  27.936  11.854
73176W        W38337  12.729  37.243   1.767
73177W        W38338  42.926  43.549  12.742
73178W        W38339  16.317  19.667   1.864
73179W        W38340  44.035  30.487   2.745
73180W        W38341  23.155   0.686   4.687
73181W        W38342  23.188  33.009   0.712
73182W        W38343  30.939   5.256  10.451
73183W        W38344   0.388   2.332   4.958
73184W        W38345  16.099  31.333  11.619
73185W        W38346  18.764  20.455   2.298
73186W        W38347  20.936   2.470  11.601
73187W        W38348  33.185   4.663   4.612
73188W        W38349  25.494  29.974   0.269
73189W        W38350   1.731  26.762  11.008
73190W        W38351  14.143  34.045   2.258
73191W        W38352  37.751  12.019  12.387
73192W        W38353   4.476  36.981   4.134
73193W        W38354  25.270  23.165   4.102
73194W        W38355  37.939  26.610   0.541
73195W        W38356   4.326   5.072  14.798
73196W        W38357  22.682   2.869   2.329
73197W        W38358  40.047  27.444   0.856
73198W        W38359  13.931  29.454  13.942
73199W        W38360  40.034  38.932  11.130
73200W        W38361  13.097  32.619  12.952
73201W        W38362  24.215  19.078   4.053
73202W        W38363   2.091  25.254  13.137
73203W        W38364  36.285  40.089  12.199
73204W        W38365   0.888   7.708   2.194
73205W        W38366  19.955  24.082  14.865
73206W        W38367   3.749  38.705   1.282
73207W        W38368  13.924   1.144   1.139
73208W        W38369   2.823  33.076  14.372
73209W        W38370  19.008  40.801  12.071
73210W        W38371  11.104  42.516   1.380
73211W        W38372  23.184   1.695   2.652
73212W        W38373  22.153   1.841   3.381
73213W        W38374   9.704   4.252  10.656
73214W        W38375   9.201  14.099  14.979
73215W        W38376  34.860  36.873  14.916
73216W        W38377  42.784  35.894  13.897
73217W        W38378   1.807  10.814  11.997
73218W        W38379  18.645  38.339   1.922
73219W        W38380  16.640  10.769   4.308
73220W        W38381  25.318  43.030  13.385
73221W        W38382  38.829  20.742   0.918
73222W        W38383   4.090  35.849   3.694
73223W        W38384   7.590  39.086  10.295
73224W        W38385  36.858  36.149   0.153
73225W        W38386  27.196  38.112  13.907
73226W        W38387  21.750  28.763   4.906
73227W        W38388  17.325  25.802  10.808
73228W        W38389   9.842  39.069  14.402
73229W        W38390  19.271  23.576   4.593
73230W        W38391  40.061  16.764   4.155
73231W        W38392  43.129  35.522  13.903
73232W        W38393  13.182  38.105  10.586
73233W        W38394   7.266   7.914   3.163
73234W        W38395  36.660   6.477  12.032
73235W        W38396  33.690  34.877   0.520
73236W        W38397  34.082  16.101  13.143
73237W        W38398  42.725  35.323   4.934
73238W        W38399  29.289  33.455   1.267
73239W        W38400  16.564  20.697  13.806
73240W        W38401  16.286  28.675  14.820
73241W        W38402   7.249  31.701  10.427
73242W        W38403  25.084  10.822   3.146
73243W        W38404  16.258  28.645   4.063
73244W        W38405  43.540   9.390   4.304
73245W        W38406   9.900  31.569  14.441
73246W        W38407  39.605  19.608   2.480
73247W        W38408  18.660  31.629  12.958
73248W        W38409  34.580  10.242   2.619
73249W        W38410   8.532  37.387  10.040
73250W        W38411  14.201  29.760  12.615
73251W        W38412  23.533   5.238   4.451
73252W        W38413  29.656  19.007  13.402
73253W        W38414   5.149  20.095   2.748
73254W        W38415   4.924   9.699   0.749
73255W        W38416  31.065  37.341   2.238
73256W        W38417   4.539  21.239   4.150
73257W        W38418   3.491  21.119   2.238
73258W        W38419   5.907  37.892   1.788
73259W        W38420  39.952  13.159  11.173
73260W        W38421  14.587  15.152   4.692
73261W        W38422  39.404  12.860   0.380
73262W        W38423  11.306  30.979  10.731
73263W        W38424  38.503  29.215  14.026
73264W        W38425  24.805   5.764   0.464
73265W        W38426  13.637  33.165   1.397
73266W        W38427  23.357  12.253   2.151
73267W        W38428  20.074  10.433  14.331
73268W        W38429  25.290  10.148  14.495
73269W        W38430  19.696  13.311   1.703
73270W        W38431   8.826  18.493   2.397
73271W        W38432   0.480   9.701  11.505
73272W        W38433  41.388  34.405  13.070
73273W        W38434  26.121  39.945   1.861
73274W        W38435  26.875  13.992   0.473
73275W        W38436   4.187   2.256  10.748
73276W        W38437  17.697  42.742   2.285
73277W        W38438  37.172  32.819   3.044
73278W        W38439   4.630  31.563   3.214
73279W        W38440  13.394  28.957  11.934
73280W        W38441  37.855  34.070   1.384
73281W        W38442  36.220  39.599  12.767
73282W        W38443  12.419  13.768   4.418
73283W        W38444  14.314  27.522   2.366
73284W        W38445  28.583  19.970   1.859
73285W        W38446  28.539   5.449   2.263
73286W        W38447  21.183  35.033   4.390
73287W        W38448  11.636   1.446   0.013
73288W        W38449  41.155  30.553  10.883
73289W        W38450  15.692  36.411  10.688
73290W        W38451   1.843  30.399   4.485
73291W        W38452   5.973  18.124   5.123
73292W        W38453  25.220  43.911  13.914
73293W        W38454  35.813   9.787   3.161
73294W        W38455  25.239  35.375   0.390
73295W        W38456   8.433  21.593   2.609
73296W        W38457   1.287   0.927   3.049
73297W        W38458  10.301  20.952   0.270
73298W        W38459  27.126  20.789   4.610
73299W        W38460   9.781  38.616  13.047
73300W        W38461   2.744  42.057  12.002
73301W        W38462  20.361  44.364   3.733
73302W        W38463  11.644  20.127  12.521
73303W        W38464   2.215  41.000  13.853
73304W        W38465  30.985  19.955  12.627
73305W        W38466  14.861  38.074  13.974
73306W        W38467   4.738  19.745   2.868
73307W        W38468  16.369  34.795  13.012
73308W        W38469  15.727  19.984  14.991
73309W        W38470  33.701  38.987   1.884
73310W        W38471   7.117  10.514  14.822
73311W        W38472   1.277  10.706   1.388
73312W        W38473  36.466  24.544   1.339
73313W        W38474  43.875   0.493  12.562
73314W        W38475  33.290   8.668   0.924
73315W        W38476  31.144  31.523   4.586
73316W        W38477  42.268  40.605   1.869
73317W        W38478  30.050  13.340   3.921
73318W        W38479  39.396  15.674  13.783
73319W        W38480  15.797  30.281  13.389
73320W        W38481  31.954  31.530   3.420
73321W        W38482   5.123  23.011  13.005
73322W        W38483  28.575  31.364  12.097
73323W        W38484  13.285  41.395   0.700
73324W        W38485  28.583  28.855  10.740
73325W        W38486  15.496  37.083  11.351
73326W        W38487  20.314  32.862   4.042
73327W        W38488  10.402  35.449  11.984
73328W        W38489  32.086  18.524  11.086
73329W        W38490   0.474  17.590  10.744
73330W        W38491  17.715  41.041  12.119
73331W        W38492  36.511   0.089   3.166
73332W        W38493  29.751   6.729   3.280
73333W        W38494   2.858  32.968  12.534
73334W        W38495  33.513  31.236   4.125
73335W        W38496  18.258   4.142  13.265
73336W        W38497  42.497   4.412   0.824
73337W        W38498  23.151  15.814  13.374
73338W        W38499  34.015  11.611   2.405
73339W        W38500   6.914  19.740   2.764
73340W        W38501  39.724  18.701   0.758
73341W        W38502  14.152  29.609   0.969
73342W        W38503  10.707   7.206  14.190
73343W        W38504  18.212   4.423  14.218
73344W        W38505  27.212  44.442  12.108
73345W        W38506  10.173  20.758   1.720
73346W        W38507  14.124   4.870  11.129
73347W        W38508  13.296  11.306   1.869
73348W        W38509   9.308  42.806  14.999
73349W        W38510  34.517  33.087   2.273
73350W        W38511  38.820  12.263  13.068
73351W        W38512  11.244  41.360  13.587
73352W        W38513  11.668   8.960   3.752
73353W        W38514  39.213  34.187  13.393
73354W        W38515  33.773  14.828   2.180
73355W        W38516  36.140  20.402  13.473
73356W        W38517  44.282  16.709   3.099
73357W        W38518   7.951  25.497   3.422
73358W        W38519  35.619  39.150   0.472
73359W        W38520  17.402  41.502  12.861
73360W        W38521  44.404  20.727  10.674
73361W        W38522  14.783  44.416   3.605
73362W        W38523  23.981  36.888   1.262
73363W        W38524  22.088   0.555  12.564
73364W        W38525  16.736  42.082  11.550
73365W        W38526   8.287  35.073   1.263
73366W        W38527  23.083  29.981   3.172
73367W        W38528  11.598  22.626  12.167
73368W        W38529  40.875  39.471   9.448
73369W        W38530  42.654  43.303   2.542
73370W        W38531   7.428  40.568   1.802
73371W        W38532  15.699  12.676  14.872
73372W        W38533  44.952  29.170   4.061
73373W        W38534  14.572  11.650  12.446
73374W        W38535   4.897   3.745   2.096
73375W        W38536  41.106   7.899   1.943
73376W        W38537  34.673   6.290   2.523
73377W        W38538   5.221  42.196   0.735
73378W        W38539  34.974  32.165  11.609
73379W        W38540  24.434  10.343   0.766
73380W        W38541  32.780   3.211   4.311
73381W        W38542  28.880  42.568   2.627
73382W        W38543   2.736   0.857  10.627
73383W        W38544  22.770   4.832   4.999
73384W        W38545   4.638  41.339  11.935
73385W        W38546  11.046   0.269  13.164
73386W        W38547  21.634  44.765   4.210
73387W        W38548   1.430  18.085   1.189
73388W        W38549  11.658  12.409  10.548
73389W        W38550  27.161  19.202  12.422
73390W        W38551   6.650  12.906  13.444
73391W        W38552  27.089  22.130   2.621
73392W        W38553  35.586  20.443   3.226
73393W        W38554  11.611  31.219  11.657
73394W        W38555  24.647  43.934  10.758
73395W        W38556  14.599  27.673  12.955
73396W        W38557   5.933  19.591   2.455
73397W        W38558  18.840  21.331   2.774
73398W        W38559  25.734   1.510   1.371
73399W        W38560  17.986  35.432  11.651
73400W        W38561  24.153   0.255  14.959
73401W        W38562  27.482  42.478   2.569
73402W        W38563  33.018  26.736   5.090
73403W        W38564  15.699  28.469   0.807
73404W        W38565  16.644  30.026  13.339
73405W        W38566   8.746  31.655  13.165
73406W        W38567  38.732  16.345   0.929
73407W        W38568  11.073   3.393  11.171
73408W        W38569  44.771  28.403  14.709
73409W        W38570  22.100   6.445   1.138
73410W        W38571  21.237  30.111  12.495
73411W        W38572   1.911  23.774  13.871
73412W        W38573  37.634  16.267  12.403
73413W        W38574  42.188  10.210  11.709
73414W        W38575  39.423  32.200  10.459
73415W        W38576  26.029  21.303   1.623
73416W        W38577   1.368   0.397  14.835
73417W        W38578  11.304  27.655   0.758
73418W        W38579  41.771  23.205   0.259
73419W        W38580  28.514  38.503   0.977
73420W        W38581  31.547   0.838  11.760
73421W        W38582  23.307   0.177   3.224
73422W        W38583  17.406  20.500   3.281
73423W        W38584  28.649  37.646   1.698
73424W        W38585  21.815  21.712   0.864
73425W        W38586  15.625  11.712  11.579
73426W        W38587  22.180  42.450   0.541
73427W        W38588  14.363  29.741   0.512
73428W        W38589   7.740  42.329   3.207
73429W        W38590  32.325   3.987  12.900
73430W        W38591  33.747  40.836  12.833
73431W        W38592  20.338  31.503  14.906
73432W        W38593  38.105  38.098   1.168
73433W        W38594   2.924  20.763  12.486
73434W        W38595   5.876  23.128  12.324
73435W        W38596  26.727  23.226   4.110
73436W        W38597   8.857  25.124   3.644
73437W        W38598  13.338  35.708   3.079
73438W        W38599   0.835  18.747  11.990
73439W        W38600  33.624  13.639  10.913
73440W        W38601   4.978   7.693  13.185
73441W        W38602  26.469  33.804  14.179
73442W        W38603  40.054  23.085  13.798
73443W        W38604  19.289   6.444  10.691
73444W        W38605  32.011  44.947   3.685
73445W        W38606  19.189  12.920   0.324
73446W        W38607   7.163  32.854   0.387
73447W        W38608  23.941  36.023   1.974
73448W        W38609   7.914   4.260   2.446
73449W        W38610  15.773  43.417  13.550
73450W        W38611   4.464   7.661  11.956
73451W        W38612   9.598  26.078  11.559
73452W        W38613  30.880   0.764  12.867
73453W        W38614  43.778  21.583  12.902
73454W        W38615   5.117  39.410  13.063
73455W        W38616   6.854  29.438   4.594
73456W        W38617  35.519   1.139   4.946
73457W        W38618  33.093   0.945   5.108
73458W        W38619   6.494  43.328   1.755
73459W        W38620   6.265   3.737   0.755
73460W        W38621  29.453  15.569   4.167
73461W        W38622  25.800  44.258   0.492
73462W        W38623  25.998  32.226  11.676
73463W        W38624  36.361  44.342  12.641
73464W        W38625  10.133  18.668  11.184
73465W        W38626  29.478  43.436   2.256
73466W        W38627  41.576  43.302   0.346
73467W        W38628   8.976  30.221  11.202
73468W        W38629  37.343  23.065   3.227
73469W        W38630  42.778  14.685   4.542
73470W        W38631  22.861  38.827   5.488
73471W        W38632  41.845  12.240  13.539
73472W        W38633  34.895  12.667   4.721
73473W        W38634  16.147  34.324  11.418
73474W        W38635  39.874  13.828   4.468
73475W        W38636   3.663  26.570  13.445
73476W        W38637   6.480  26.538  13.947
73477W        W38638  43.584  24.979  11.226
73478W        W38639   5.820  27.658   2.699
73479W        W38640  39.828  23.747  13.499
73480W        W38641  23.007  41.231   0.792
73481W        W38642   2.789   2.217  11.592
73482W        W38643  15.644   1.838  12.593
73483W        W38644  43.755  28.561  10.481
73484W        W38645  32.562  18.642   2.018
73485W        W38646  35.048  21.612  12.377
73486W        W38647  18.243  25.195   1.037
73487W        W38648  26.833  28.947   2.898
73488W        W38649  29.792  17.629   2.174
73489W        W38650  43.909  17.375   2.643
73490W        W38651  19.946  12.804   5.114
73491W        W38652  22.637  21.112  11.491
73492W        W38653   1.828  36.578  12.494
73493W        W38654  26.468   8.892   0.438
73494W        W38655  38.129  30.457  14.314
73495W        W38656   3.140  25.085   0.480
73496W        W38657  42.207  42.781   0.907
73497W        W38658  33.167   2.213   1.820
73498W        W38659  14.475   6.232  11.600
73499W        W38660  23.142  29.379   1.057
73500W        W38661  40.030  41.199  14.435
73501W        W38662  11.187  14.263  12.309
73502W        W38663  19.533  13.712  13.382
73503W        W38664  23.703   6.197   2.353
73504W        W38665  42.561   9.197   4.178
73505W        W38666   1.509  14.168   4.562
73506W        W38667  14.956  15.366  12.012
73507W        W38668  14.855  31.469  12.136
73508W        W38669   3.451   6.341   4.083
73509W        W38670   3.157  10.705  11.602
73510W        W38671  14.287  14.376   0.286
73511W        W38672   0.020  37.492  13.765
73512W        W38673  22.496  36.046  14.551
73513W        W38674  39.070   9.077   0.382
73514W        W38675  19.510  16.192   0.248
73515W        W38676  33.781  21.108   4.603
73516W        W38677  18.975   0.313   3.688
73517W        W38678  16.101  21.776   0.837
73518W        W38679  14.811  20.262  14.103
73519W        W38680  24.954  25.613   2.439
73520W        W38681  20.768  28.608   2.381
73521W        W38682  41.028  32.547  10.410
73522W        W38683   4.743  34.371  13.921
73523W        W38684  37.344  17.246  10.795
73524W        W38685  32.669  10.858  12.096
73525W        W38686  25.642  33.207  11.259
73526W        W38687  17.634  37.629   3.134
73527W        W38688  43.358  22.082  11.853
73528W        W38689  24.159  21.530  12.611
73529W        W38690  41.477  23.059  12.519
73530W        W38691   8.609  14.579  13.896
73531W        W38692  22.467  19.030   2.845
73532W        W38693   6.099  22.962  11.269
73533W        W38694  32.969  25.907  13.049
73534W        W38695  22.970  12.590   2.302
73535W        W38696  11.609   8.605   3.368
73536W        W38697  32.025   4.645  13.326
73537W        W38698  33.526  24.431   1.992
73538W        W38699   7.891   7.607   1.423
73539W        W38700  34.170  37.803   9.947
73540W        W38701  35.303  37.614   1.514
73541W        W38702  28.949  17.920   0.719
73542W        W38703   8.153  26.967  14.100
73543W        W38704  14.549  14.745  11.530
73544W        W38705   6.448  13.941  14.946
73545W        W38706  40.821   7.843   0.443
73546W        W38707   9.796  40.577   0.882
73547W        W38708  41.536   4.420  12.935
73548W        W38709   8.693   8.376  13.900
73549W        W38710  19.606  13.272   3.664
73550W        W38711  41.635  42.329   4.835
73551W        W38712   7.367  33.817  14.422
73552W        W38713  33.983  29.907   0.696
73553W        W38714  28.082   9.557   4.187
73554W        W38715   9.827  41.462   1.214
73555W        W38716   6.160  34.973  14.209
73556W        W38717  28.008   8.064  10.814
73557W        W38718   4.963  34.107   0.777
73558W        W38719  18.690  12.524  12.043
73559W        W38720  34.082   7.230   3.713
73560W        W38721  41.538  29.300  11.086
73561W        W38722  17.321  32.133  13.902
73562W        W38723   5.245   2.833  12.620
73563W        W38724   0.442   8.482   0.854
73564W        W38725  26.855   8.346   3.420
73565W        W38726   6.277  15.871   2.878
73566W        W38727  11.141  36.420   1.801
73567W        W38728   1.513  17.681  10.649
73568W        W38729   1.656  22.298   3.306
73569W        W38730  26.638  42.520   4.416
73570W        W38731  26.247  19.503   5.058
73571W        W38732  40.098   0.758  13.387
73572W        W38733   2.377  32.987   2.894
73573W        W38734  11.178  16.677  10.671
73574W        W38735   8.174   2.470   2.787
73575W        W38736  14.932  33.540   2.393
73576W        W38737  42.539  32.842  13.815
73577W        W38738  19.043  25.607   0.320
73578W        W38739  12.203  28.276   0.852
73579W        W38740  24.115  22.124   0.145
73580W        W38741  24.298   6.648  11.575
73581W        W38742  19.160  17.703  14.847
73582W        W38743  25.485   7.857   1.269
73583W        W38744  12.086  30.614   3.829
73584W        W38745  36.049  31.804  11.993
73585W        W38746  14.797  15.620  14.245
73586W        W38747  16.294  21.289  12.462
73587W        W38748  28.756  13.216   3.237
73588W        W38749   0.509   1.869  14.891
73589W        W38750  35.333   7.340  11.024
73590W        W38751   2.357   6.869   3.980
73591W        W38752  19.166  14.509  11.440
73592W        W38753   9.291  21.483  11.703
73593W        W38754  42.011   6.374  10.599
73594W        W38755  44.477  25.199   0.782
73595W        W38756  22.716  29.307  12.309
73596W        W38757  13.567   0.164  13.982
73597W        W38758   2.739  24.208   5.071
73598W        W38759   8.026  30.456   4.155
73599W        W38760   7.890  32.880  11.542
73600W        W38761  41.888  40.941  11.542
73601W        W38762   5.671  42.415  10.702
73602W        W38763  25.775  26.025   2.661
73603W        W38764  23.428   2.332   0.486
73604W        W38765   1.413   1.199  10.640
73605W        W38766  39.951  16.255  14.385
73606W        W38767  41.882  37.513   3.376
73607W        W38768  24.524  36.015   4.584
73608W        W38769  22.117  28.036  13.874
73609W        W38770   5.131  30.982   4.223
73610W        W38771  43.424  21.656  12.155
73611W        W38772  14.807  11.227  12.182
73612W        W38773   0.253  25.180  12.441
73613W        W38774  20.174  29.002   3.212
73614W        W38775  35.639  23.258  11.945
73615W        W38776  29.203  22.618  13.808
73616W        W38777  10.275  29.043   3.541
73617W        W38778  13.794  30.481   2.613
73618W        W38779  43.637  31.095  10.797
73619W        W38780  13.861   0.929  12.963
73620W        W38781  29.515  36.227  12.019
73621W        W38782  31.579   6.756  11.592
73622W        W38783  21.040  26.294   2.394
73623W        W38784  15.040  24.678  11.178
73624W        W38785   8.211  27.554   3.302
73625W        W38786   6.980  20.026   4.091
73626W        W38787  33.553  18.274  14.241
73627W        W38788  27.904  27.290  11.174
73628W        W38789  29.242  16.264   0.438
73629W        W38790   0.345  10.408   3.712
73630W        W38791  26.346  19.652  10.084
73631W        W38792  23.734  26.613  11.584
73632W        W38793  10.266  42.763   3.024
73633W        W38794  34.004  35.520  11.823
73634W        W38795  38.655  33.875   3.720
73635W        W38796  12.676  23.072   4.911
73636W        W38797   3.189  27.579   0.037
73637W        W38798  36.553  37.393   1.982
73638W        W38799  32.687   8.802   3.251
73639W        W38800  39.491  44.487  12.288
73640W        W38801  27.537  38.273   0.947
73641W        W38802  27.054  33.054  13.826
73642W        W38803  14.860  19.573  12.924
73643W        W38804   6.729  24.591   1.330
73644W        W38805   2.218   5.666   0.458
73645W        W38806  22.634  17.627   3.125
73646W        W38807  11.223  43.739   4.225
73647W        W38808  29.433  38.902  11.022
73648W        W38809  36.433  23.158   2.799
73649W        W38810  21.542  43.218   2.167
73650W        W38811  32.019   2.053   1.356
73651W        W38812  43.030  16.097   0.378
73652W        W38813   1.868  31.302  13.815
73653W        W38814  30.466   5.676  12.088
73654W        W38815   6.783  29.635   0.660
73655W        W38816  30.940  23.699   2.620
73656W        W38817  40.496  28.753  13.398
73657W        W38818   8.203  31.727   4.510
73658W        W38819  27.696   4.480  10.776
73659W        W38820  17.075  35.537   1.802
73660W        W38821  24.771  38.110   0.784
73661W        W38822  37.097  30.599  13.419
73662W        W38823  22.340  42.884   0.307
73663W        W38824  44.911  33.093   0.704
73664W        W38825  12.206  28.138   3.613
73665W        W38826  30.572  23.116  13.479
73666W        W38827   8.015  33.900  11.251
73667W        W38828  12.126   0.455  12.627
73668W        W38829  37.007  16.657   4.833
73669W        W38830  34.906   3.187   3.062
73670W        W38831  43.400  14.102   1.508
73671W        W38832   1.888  15.590   3.687
73672W        W38833  25.726   2.230  13.136
73673W        W38834   1.981  18.292   3.992
73674W        W38835  18.321  22.541  14.398
73675W        W38836  19.073  42.539  13.851
73676W        W38837   6.127   2.485   4.518
73677W        W38838  29.938  29.398   0.242
73678W        W38839  44.210  38.999  14.886
73679W        W38840  29.985  24.686  11.250
73680W        W38841  21.105   5.350   4.211
73681W        W38842   8.112  38.580   4.193
73682W        W38843  29.642   7.239  13.007
73683W        W38844  27.458  35.147   0.530
73684W        W38845  12.057  10.172  13.354
73685W        W38846   3.000   9.291  12.508
73686W        W38847  27.644  42.185   5.021
73687W        W38848   8.126   9.696  13.350
73688W        W38849  29.621   0.998   3.137
73689W        W38850  18.234   0.349  12.842
73690W        W38851  40.627  15.326  10.776
73691W        W38852   8.252   7.827   2.452
73692W        W38853  35.491   3.358  13.381
73693W        W38854  28.345   8.318   3.649
73694W        W38855  38.388  19.075   0.043
73695W        W38856  37.905  38.683  12.531
73696W        W38857   5.529  32.492  11.638
73697W        W38858  16.796  27.101  10.816
73698W        W38859   0.520  19.065   1.866
73699W        W38860  35.104  11.241  11.164
73700W        W38861  21.751  11.686   3.832
73701W        W38862  20.335  16.102  14.269
73702W        W38863  40.573  28.874   0.910
73703W        W38864  15.738  38.440   4.581
73704W        W38865  19.220   0.508   1.401
73705W        W38866  17.758  44.973  14.712
73706W        W38867  37.617  26.209   0.375
73707W        W38868  42.418  33.568   1.287
73708W        W38869  17.641  35.353   1.853
73709W        W38870  22.321  44.833   2.319
73710W        W38871  25.535  16.353  11.044
73711W        W38872  34.113  24.931   4.939
73712W        W38873  10.449   9.257   1.306
73713W        W38874  37.810  14.301   5.087
73714W        W38875  26.187  26.073   1.316
73715W        W38876  23.513  42.116  14.970
73716W        W38877  41.026  32.065  11.538
73717W        W38878  33.461  34.749  13.783
73718W        W38879  30.004  41.508   9.987
73719W        W38880  30.488  19.137  10.900
73720W        W38881  41.920  20.178   1.366
73721W        W38882  35.018  38.734  12.094
73722W        W38883  11.091  30.427  13.062
73723W        W38884   6.949  30.020   3.386
73724W        W38885   6.161  26.711  14.794
73725W        W38886  11.461   4.341  14.809
73726W        W38887  24.574  40.525  11.113
73727W        W38888  35.821  35.579   0.492
73728W        W38889   7.926   8.107   1.471
73729W        W38890  44.373  33.548  11.610
73730W        W38891  16.081  17.186  10.987
73731W        W38892  37.392  27.848  14.558
73732W        W38893  17.743  31.621   1.526
73733W        W38894  32.580  24.995  13.489
73734W        W38895  43.336  10.914   2.303
73735W        W38896  16.064  36.818  14.820
73736W        W38897  21.786  15.208   2.240
73737W        W38898  35.153  15.788   4.137
73738W        W38899  33.830   1.860   3.947
73739W        W38900  11.293  42.318   0.933
73740W        W38901  33.111  16.533   1.701
73741W        W38902  23.140  44.892  13.929
73742W        W38903   8.198  17.309   3.717
73743W        W38904  35.537   6.675  12.660
73744W        W38905  41.785  24.604   1.501
73745W        W38906  40.334  12.235   4.083
73746W        W38907   1.771  43.318  14.925
73747W        W38908  27.007   8.732  13.405
73748W        W38909   7.239  31.195  12.620
73749W        W38910  38.595  14.191   4.462
73750W        W38911  37.160  17.244  13.909
73751W        W38912  25.817  40.139  12.934
73752W        W38913  17.527  32.940  11.033
73753W        W38914  19.335  23.698   3.667
73754W        W38915   8.332  39.292  13.942
73755W        W38916  25.683   8.878   3.881
73756W        W38917  22.156  17.443   0.206
73757W        W38918  25.677   6.137   0.434
73758W        W38919  44.515  43.792  11.325
73759W        W38920  32.384  33.861  11.533
73760W        W38921   3.014  13.325  13.093
73761W        W38922  37.358  30.630  12.036
73762W        W38923  29.892   7.599  11.182
73763W        W38924  34.720   6.575  13.964
73764W        W38925  23.153  41.073   4.191
73765W        W38926  31.734   7.310  13.952
73766W        W38927  26.285   2.233   4.153
73767W        W38928  26.800  23.354   5.396
73768W        W38929  40.531  38.308  12.969
73769W        W38930  10.383   9.172  10.725
73770W        W38931  23.181  40.913  12.936
73771W        W38932  41.858   4.421   1.860
73772W        W38933   6.066  27.918   1.761
73773W        W38934  19.961  37.307   2.718
73774W        W38935  39.995  37.151   4.209
73775W        W38936  14.363  43.434   2.837
73776W        W38937   8.862  22.776  12.550
73777W        W38938   1.557  34.475   1.956
73778W        W38939  17.564  38.346  14.013
73779W        W38940   8.817  12.473  12.563
73780W        W38941   0.892  23.337  11.139
73781W        W38942  35.572   7.142  14.887
73782W        W38943  41.902  23.630   0.515
73783W        W38944  31.495   9.314  14.059
73784W        W38945  28.468  16.126   0.915
73785W        W38946  32.513   4.051  10.686
73786W        W38947  25.035  26.599   0.037
73787W        W38948   4.471  38.690  12.153
73788W        W38949  27.475   9.846   1.464
73789W        W38950  18.250  11.555   4.831
73790W        W38951  39.482  10.368   2.268
73791W        W38952  19.834   9.124  12.579
73792W        W38953  34.975  36.412   4.893
73793W        W38954   7.835   5.809   1.609
73794W        W38955  30.517  38.423   9.795
73795W        W38956  36.106  13.273   0.409
73796W        W38957  24.569  34.884  14.849
73797W        W38958   7.164  11.180   1.917
73798W        W38959  39.502   8.569  10.579
73799W        W38960   5.142  35.646   3.489
73800W        W38961  35.802  34.371   2.405
73801W        W38962   6.853  44.709   2.360
73802W        W38963   0.458  31.479  11.564
73803W        W38964  28.017  37.646  11.519
73804W        W38965   2.750  18.622  14.939
73805W        W38966  21.335  24.460   1.290
73806W        W38967  24.144  19.844   1.842
73807W        W38968  34.392  35.288   3.278
73808W        W38969  33.109   8.235   2.045
73809W        W38970   2.980  38.143  13.075
73810W        W38971  24.703  37.662  11.574
73811W        W38972  36.599   1.399  10.857
73812W        W38973  31.164  18.008  13.038
73813W        W38974  16.030  22.687  12.538
73814W        W38975  38.793  15.081   2.242
73815W        W38976  41.231   2.905   2.302
73816W        W38977  22.492  20.238   1.548
73817W        W38978  16.613  24.451   4.518
73818W        W38979   9.128   9.429  11.189
73819W        W38980  16.155  25.111  13.357
73820W        W38981  19.870  29.747  11.800
73821W        W38982  28.654   6.805  13.721
73822W        W38983   6.212  43.396   0.392
73823W        W38984   8.253  10.271  11.584
73824W        W38985  19.278  35.146  13.828
73825W        W38986  43.034  13.608   0.840
73826W        W38987  41.397   9.208  13.152
73827W        W38988  39.819   8.843  14.721
73828W        W38989  11.383  36.601   1.384
73829W        W38990  32.426  13.285   2.818
73830W        W38991  24.173  25.690   0.337
73831W        W38992  29.503  42.841  12.366
73832W        W38993  31.658  15.578   4.918
73833W        W38994  27.603  28.974   0.835
73834W        W38995  17.567   9.959   1.573
73835W        W38996  22.118  38.284  14.002
73836W        W38997   5.668  41.383  14.472
73837W        W38998  28.184  12.760   3.584
73838W        W38999  17.321  17.813   1.224
73839W        W39000  17.321  32.902   3.643
73840W        W39001  40.866  42.855   3.844
73841W        W39002   5.935  41.932   1.735
73842W        W39003  26.095  15.793   3.614
73843W        W39004  40.313  17.500  12.333
73844W        W39005   9.969  27.785  11.965
73845W        W39006  24.061   0.527   2.515
73846W        W39007   3.309  28.149   2.871
73847W        W39008  18.621  22.531   3.306
73848W        W39009  17.181   9.807   2.409
73849W        W39010  19.483  23.253  11.486
73850W        W39011   2.325  24.395  12.664
73851W        W39012  26.113  39.077   0.899
73852W        W39013  24.377  33.475  11.968
73853W        W39014  10.852  15.755   0.781
73854W        W39015  38.077   5.686   2.911
73855W        W39016  21.537  33.280  13.517
73856W        W39017  21.344  16.727   1.289
73857W        W39018  18.169   8.087   1.452
73858W        W39019  25.479   9.462   2.250
73859W        W39020  32.446   0.530   3.285
73860W        W39021  44.117  35.677  12.849
73861W        W39022  31.091   9.716   3.369
73862W        W39023  21.717  38.915  10.704
73863W        W39024   2.464  30.855  11.177
73864W        W39025  39.820  25.969  10.972
73865W        W39026  40.307  10.601   0.855
73866W        W39027  38.886  14.615   4.368
73867W        W39028  32.975  14.100  14.300
73868W        W39029  31.592  33.996  10.902
73869W        W39030  22.300   1.442  10.567
73870W        W39031   7.636  30.049   4.750
73871W        W39032  39.413  26.854  13.388
73872W        W39033   6.682   7.718   2.771
73873W        W39034  38.856   2.388   2.180
73874W        W39035  16.122  17.319   0.393
73875W        W39036  43.872  42.998  10.170
73876W        W39037  23.486  24.100  13.381
73877W        W39038  43.032   4.751   4.081
73878W        W39039  19.784   2.226   2.216
73879W        W39040  40.338   2.761   3.313
73880W        W39041   3.681  21.760  13.474
73881W        W39042   4.059  19.481   3.973
73882W        W39043  18.108  32.892  11.776
73883W        W39044  15.599  13.606   0.782
73884W        W39045  32.086  13.826  11.629
73885W        W39046  38.805  16.790   4.063
73886W        W39047  28.646  15.534   0.859
73887W        W39048  42.133  37.293   1.262
73888W        W39049  17.017  17.753   4.278
73889W        W39050  43.507   4.283  14.772
73890W        W39051   0.766   6.318   2.301
73891W        W39052  37.643  30.275  11.126
73892W        W39053  26.481  19.729  13.312
73893W        W39054  42.896  22.605   4.718
73894W        W39055   3.384  31.372  11.978
73895W        W39056   5.660  22.585  14.556
73896W        W39057  23.043   9.328   3.650
73897W        W39058  25.678  17.934   2.408
73898W        W39059  15.989  30.674   4.768
73899W        W39060   9.194  39.964  10.660
73900W        W39061  38.641  18.067  13.809
73901W        W39062  34.964  44.000   1.961
73902W        W39063  25.993  36.428   4.191
73903W        W39064  16.560   0.047  12.028
73904W        W39065  21.541  32.841   3.176
73905W        W39066  42.539   0.221   4.087
73906W        W39067  13.259  11.198   4.290
73907W        W39068   2.339  30.510   4.636
73908W        W39069  23.921  32.646   4.081
73909W        W39070  16.063  14.778  12.683
73910W        W39071  15.756   2.282  12.969
73911W        W39072  23.976  43.212  11.178
73912W        W39073  28.094  34.016   3.275
73913W        W39074  34.098  37.326   4.078
73914W        W39075  17.968  20.201  11.699
73915W        W39076  40.320   7.191   3.868
73916W        W39077  36.880  42.844  10.674
73917W        W39078   0.156  20.000  13.512
73918W        W39079  43.349  14.281   0.080
73919W        W39080   7.231   5.464   0.255
73920W        W39081  29.725   7.181   3.558
73921W        W39082  42.768  39.665   1.020
73922W        W39083  22.602   9.934  14.857
73923W        W39084  35.847   9.094  14.452
73924W        W39085  10.753   0.132  14.979
73925W        W39086   2.562   5.571   0.056
73926W        W39087   2.551  21.132   3.905
73927W        W39088   1.287  15.084  12.803
73928W        W39089  21.814   5.951   4.109
73929W        W39090  17.046  12.024  12.404
73930W        W39091  43.429  36.488  13.583
73931W        W39092   5.352  41.755  12.316
73932W        W39093  30.235  35.462   0.976
73933W        W39094  42.986  23.585   1.296
73934W        W39095  23.030  24.665   0.225
73935W        W39096  14.662  10.802   1.941
73936W        W39097   9.247   4.900  10.184
73937W        W39098   2.912  39.312  11.007
73938W        W39099  19.216   2.933   2.840
73939W        W39100  12.023  17.444  11.629
73940W        W39101  22.542  29.390   4.639
73941W        W39102   6.336  36.921   1.765
73942W        W39103  12.316  11.213   3.913
73943W        W39104   5.696   3.808  12.877
73944W        W39105  17.742  37.995   2.140
73945W        W39106   8.741  10.428  11.488
73946W        W39107   1.899   8.952  13.001
73947W        W39108   3.899  36.440  11.468
73948W        W39109  30.774   8.876   3.683
73949W        W39110   5.351   1.105  12.392
73950W        W39111  23.172   0.248  12.989
73951W        W39112  35.426  32.029   1.638
73952W        W39113   4.895   3.652  11.835
73953W        W39114   9.184  30.613   3.608
73954W        W39115   9.308  16.516  12.879
73955W        W39116  33.029   0.935   1.353
73956W        W39117   0.576  15.269  14.320
73957W        W39118  16.783  27.137   3.197
73958W        W39119  36.990  41.236  13.554
73959W        W39120  37.695   6.149  14.055
73960W        W39121  35.292  39.585  13.785
73961W        W39122  34.631  31.542   0.719
73962W        W39123  19.657  17.057   1.240
73963W        W39124   2.953  24.730  12.065
73964W        W39125  11.852  22.027  12.770
73965W        W39126  11.074   1.126   4.103
73966W        W39127  32.546  19.254   1.424
73967W        W39128  13.622  13.258  14.437
73968W        W39129   8.922  17.783   1.607
73969W        W39130  34.089  32.950   4.935
73970W        W39131  34.811  34.698   2.312
73971W        W39132  15.006  28.059  12.045
73972W        W39133  11.182  12.210  10.691
73973W        W39134  38.338  12.769   4.442
73974W        W39135  21.775  19.878  10.577
73975W        W39136  19.191  43.403   4.886
73976W        W39137  41.538  24.563   3.282
73977W        W39138  39.421  18.335  13.382
73978W        W39139  22.203  15.567  12.419
73979W        W39140  10.817  40.017  14.959
73980W        W39141  23.447  38.486   2.355
73981W        W39142  39.014  39.734   0.420
73982W        W39143  40.105  26.046   0.287
73983W        W39144  27.240   6.189  11.282
73984W        W39145  17.061  40.323   2.290
73985W        W39146  29.947   1.317   1.905
73986W        W39147  41.609  43.456   2.794
73987W        W39148  26.645  24.172   1.399
73988W        W39149   2.469  22.089   1.681
73989W        W39150  33.438  30.074  12.985
73990W        W39151  32.991  23.270   9.990
73991W        W39152  37.604   3.367   0.737
73992W        W39153   9.474  36.301  12.084
73993W        W39154  36.446  10.434  14.355
73994W        W39155   5.911  38.555  12.299
73995W        W39156  22.049  25.280   0.855
73996W        W39157  23.012  34.259  14.490
73997W        W39158  29.421  11.235   0.891
73998W        W39159  29.338  12.654   5.451
73999W        W39160  29.737  13.723   1.181
74000W        W39161  11.369   8.618  13.051
74001W        W39162   7.227  30.079   1.790
74002W        W39163  37.099   6.904  11.066
74003W        W39164  13.933  19.722   1.422
74004W        W39165  39.077  18.690   2.712
74005W        W39166  26.169  27.133   1.000
74006W        W39167  27.161  34.138   3.131
74007W        W39168  32.963  32.937  14.317
74008W        W39169   3.991  30.082   0.242
74009W        W39170  31.045  14.273   4.103
74010W        W39171   6.272  32.706   1.742
74011W        W39172   3.498  36.560  14.749
74012W        W39173  38.130  14.440  11.637
74013W        W39174   5.600   1.231  10.693
74014W        W39175  26.285  24.061   3.737
74015W        W39176  33.148  11.497  13.974
74016W        W39177   4.460  34.280   0.723
74017W        W39178   1.444  35.543   4.198
74018W        W39179  44.364  22.512   2.846
74019W        W39180  20.763  33.341  12.550
74020W        W39181  12.048  24.803   0.111
74021W        W39182  28.511   4.258   3.710
74022W        W39183  30.919  43.553   0.868
74023W        W39184   0.283   2.006  14.053
74024W        W39185  39.325   1.448   4.551
74025W        W39186  34.953  41.770   1.883
74026W        W39187  33.011  14.319   3.499
74027W        W39188  34.121   8.977   1.353
74028W        W39189  41.716   9.875  12.999
74029W        W39190  28.856   3.733  12.888
74030W        W39191   5.340  41.898  12.804
74031W        W39192   6.230  21.596  14.327
74032W        W39193  29.629  44.629  11.157
74033W        W39194  31.102  41.678  10.773
74034W        W39195  10.434  29.167   2.751
74035W        W39196  15.268  34.886   3.835
74036W        W39197  16.842  16.048   2.299
74037W        W39198  14.375   5.046   3.289
74038W        W39199  21.710  14.474   0.439
74039W        W39200  35.658  19.912   4.909
74040W        W39201   7.437   1.291  14.675
74041W        W39202  35.524  34.371  12.923
74042W        W39203  24.555  25.800   4.125
74043W        W39204   2.287  39.116  13.981
74044W        W39205  25.278   5.150  14.839
74045W        W39206  39.938  16.851   4.754
74046W        W39207  38.937  38.014  11.615
74047W        W39208  37.560  38.435   4.461
74048W        W39209  16.800  26.489  14.494
74049W        W39210  30.021  33.400  12.967
74050W        W39211  24.058  40.058  14.535
74051W        W39212  29.631  28.638  13.416
74052W        W39213  17.677   9.558  14.384
74053W        W39214  44.235  33.639  10.908
74054W        W39215  41.777  10.387   0.028
74055W        W39216  22.643   5.198  12.609
74056W        W39217  38.152   4.396   3.694
74057W        W39218  42.502  24.834   2.148
74058W        W39219  23.649  19.569   1.789
74059W        W39220  15.034  20.079  12.205
74060W        W39221  17.817  32.884  13.974
74061W        W39222  29.117  20.826  13.818
74062W        W39223  15.287  35.070   4.867
74063W        W39224  35.575  30.400  10.687
74064W        W39225  37.993  23.998   0.264
74065W        W39226  22.149  41.434  10.562
74066W        W39227   3.429   6.357  11.170
74067W        W39228  16.023  14.801  10.516
74068W        W39229  18.297  13.742   4.140
74069W        W39230  19.709  40.786  11.109
74070W        W39231  15.673  12.612  12.557
74071W        W39232  14.346  21.295  12.935
74072W        W39233   1.149  36.754   3.515
74073W        W39234  19.030  24.099  14.618
74074W        W39235  16.188  19.239   0.250
74075W        W39236  41.103  44.869   0.743
74076W        W39237  16.291   4.398   1.845
74077W        W39238   9.144  32.568   1.401
74078W        W39239   2.042   0.037   0.497
74079W        W39240   5.863  11.510   3.428
74080W        W39241  15.184  18.974   4.907
74081W        W39242  37.918  20.743  11.555
74082W        W39243  11.130  27.422   2.277
74083W        W39244  14.597  27.490   1.813
74084W        W39245   2.046  35.939   2.954
74085W        W39246  31.082  19.481  11.316
74086W        W39247   4.729  12.674  13.187
74087W        W39248  36.306  16.486   3.670
74088W        W39249  14.770  15.688  10.413
74089W        W39250  13.720  21.529   4.662
74090W        W39251  41.846  17.770   4.907
74091W        W39252  28.513  15.004   3.803
74092W        W39253  38.924  17.752  12.075
74093W        W39254  13.572  16.944   4.253
74094W        W39255  26.474  15.675   1.529
74095W        W39256  35.819   9.765   2.634
74096W        W39257  12.355  23.148  12.054
74097W        W39258  32.111   5.340  12.967
74098W        W39259  44.750  29.055  13.252
74099W        W39260   0.760   6.423   4.133
74100W        W39261  20.095   7.266   1.975
74101W        W39262   6.381  36.908  13.002
74102W        W39263  25.771  23.177   9.988
74103W        W39264  28.504  32.021  14.299
74104W        W39265  24.888  34.998   0.263
74105W        W39266  16.303  18.566  12.940
74106W        W39267  13.288   6.656  13.919
74107W        W39268  13.860   8.259   3.415
74108W        W39269   1.049  18.168  12.954
74109W        W39270  32.655  39.112  12.612
74110W        W39271  15.114  40.022   3.496
74111W        W39272   8.232  37.050   0.884
74112W        W39273  15.398  18.081   3.572
74113W        W39274  18.987  44.326   0.504
74114W        W39275  27.546  25.144   4.564
74115W        W39276  41.342  13.087   2.146
74116W        W39277   8.922  31.627   1.288
74117W        W39278  42.881  13.344  14.278
74118W        W39279  39.012  30.612  13.364
74119W        W39280  23.752  16.263  11.398
74120W        W39281   3.751  17.026   2.695
74121W        W39282   8.487  30.089  11.112
74122W        W39283  31.220  25.840   1.216
74123W        W39284   1.290  10.561  10.170
74124W        W39285  26.122  26.057  12.549
74125W        W39286  25.671  36.138  13.826
74126W        W39287  29.632  29.968  11.650
74127W        W39288  17.372  21.502   0.377
74128W        W39289   0.363   1.033  13.895
74129W        W39290  16.076   6.713  12.380
74130W        W39291   9.204  18.893  10.989
74131W        W39292  11.175  35.370  11.235
74132W        W39293  23.663  37.597   1.167
74133W        W39294  30.414  25.001   0.273
74134W        W39295  20.980   3.884   1.288
74135W        W39296   9.366   6.421  12.773
74136W        W39297   7.971  29.657   3.984
74137W        W39298  40.032  38.826   4.313
74138W        W39299  11.420   9.643  11.049
74139W        W39300  32.347   0.936   0.682
74140W        W39301  43.276  38.030  13.726
74141W        W39302  41.479   8.112  14.916
74142W        W39303  36.467  26.950  13.056
74143W        W39304  38.717  31.940   3.255
74144W        W39305   5.386  30.377  11.082
74145W        W39306  14.801  15.642   1.781
74146W        W39307  36.938  24.689   3.282
74147W        W39308  21.322  28.479   2.861
74148W        W39309  11.192  37.273  11.954
74149W        W39310  25.980  20.743  11.888
74150W        W39311  20.069  12.994   3.121
74151W        W39312  12.844  37.475  12.589
74152W        W39313  39.866  19.819  14.865
74153W        W39314  19.157  41.954   3.792
74154W        W39315  43.595  44.531   1.720
74155W        W39316  12.000   5.865   3.252
74156W        W39317  13.540  16.581   4.602
74157W        W39318  19.281  44.443   5.004
74158W        W39319  43.791  34.612   2.923
74159W        W39320  22.444  12.546   3.121
74160W        W39321  43.394  12.372  13.485
74161W        W39322  27.430  43.327  12.490
74162W        W39323  37.111  33.287   2.803
74163W        W39324   5.978  16.558  14.107
74164W        W39325  34.591   6.075  13.878
74165W        W39326  11.790  36.735   1.805
74166W        W39327  21.726  36.122  12.419
74167W        W39328  24.216  31.418   4.714
74168W        W39329  14.629  33.626   0.190
74169W        W39330  22.482  22.139   0.329
74170W        W39331  30.783   2.514  11.213
74171W        W39332  31.109  37.424  12.135
74172W        W39333  42.487  20.198   2.800
74173W        W39334  24.528  19.832   2.709
74174W        W39335  23.830  20.251  10.751
74175W        W39336  37.606  43.868   1.221
74176W        W39337  25.776  29.899   3.388
74177W        W39338  38.784   1.532   0.973
74178W        W39339  40.330   6.317   2.187
74179W        W39340  22.447  26.557   4.053
74180W        W39341   8.149  41.838   2.313
74181W        W39342   2.834  15.785   1.443
74182W        W39343  11.671  15.294  10.264
74183W        W39344  35.912   5.540   2.308
74184W        W39345   4.421  15.466   2.630
74185W        W39346  40.548  41.955  11.331
74186W        W39347   8.252  33.079   3.664
74187W        W39348  21.199  21.806  14.090
74188W        W39349   6.124   3.753  13.140
74189W        W39350  18.695  14.151   3.559
74190W        W39351   1.405  21.057  14.509
74191W        W39352   6.498  43.087   4.959
74192W        W39353   5.206  42.430  13.281
74193W        W39354  34.335  14.696  13.975
74194W        W39355   5.669  14.994   0.486
74195W        W39356  26.152  17.281   0.791
74196W        W39357  41.905  24.359   5.135
74197W        W39358  28.554  10.715  13.586
74198W        W39359  21.969  16.966  12.545
74199W        W39360  18.447   0.409   0.843
74200W        W39361  27.740  26.376  12.038
74201W        W39362  18.085  38.241  12.537
74202W        W39363  28.540  34.486  10.851
74203W        W39364  42.499  27.621   3.163
74204W        W39365  41.266  19.034  14.369
74205W        W39366  14.665   3.723  12.385
74206W        W39367  32.617  29.085  10.668
74207W        W39368  39.040   3.026  11.610
74208W        W39369  33.154   8.954   0.512
74209W        W39370  11.778  39.242  11.630
74210W        W39371   2.723   5.621   4.327
74211W        W39372  13.134  42.917  10.431
74212W        W39373  34.125  27.946   2.425
74213W        W39374   2.951  13.779   9.944
74214W        W39375  30.548   0.509  12.066
74215W        W39376   4.205  27.234   0.015
74216W        W39377   7.391  25.596   0.761
74217W        W39378  37.082  13.193  13.812
74218W        W39379  15.165  28.655  12.586
74219W        W39380   7.360  35.790  12.894
74220W        W39381  38.904  39.858  12.103
74221W        W39382  42.477   8.458  10.435
74222W        W39383  40.031  11.621   3.372
74223W        W39384   8.440  36.749   1.954
74224W        W39385  30.339  20.744   2.166
74225W        W39386  43.058  42.638   5.286
74226W        W39387   7.136  32.704  13.376
74227W        W39388   2.806  32.446   0.900
74228W        W39389  12.713  16.224   3.281
74229W        W39390  35.036   7.026  14.775
74230W        W39391  25.753  34.943   2.750
74231W        W39392  10.781  34.125   3.853
74232W        W39393   3.837   2.564  14.961
74233W        W39394  20.169  21.318  13.271
74234W        W39395  26.517  28.417  11.066
74235W        W39396  13.783  44.004   3.621
74236W        W39397   8.708  15.705   4.654
74237W        W39398  19.680  25.118  10.614
74238W        W39399  34.838  37.287   2.380
74239W        W39400  39.629   8.669  12.379
74240W        W39401   0.022  23.214  10.444
74241W        W39402  21.553  19.129  12.534
74242W        W39403  22.958  30.159  10.885
74243W        W39404   1.521  38.666   1.691
74244W        W39405  17.362  18.322   1.438
74245W        W39406  25.244   7.201  14.739
74246W        W39407  22.024  40.058   4.616
74247W        W39408  34.124  19.139   0.491
74248W        W39409   5.432  32.630  14.011
74249W        W39410   5.877  21.020  13.087
74250W        W39411  22.055  27.885   3.106
74251W        W39412  43.428  38.284   3.922
74252W        W39413   4.916  20.631  14.895
74253W        W39414  28.598  32.152  12.549
74254W        W39415  38.281   5.734   1.329
74255W        W39416  28.877  28.508   3.679
74256W        W39417  11.719   9.632   1.357
74257W        W39418  27.212  33.105   1.327
74258W        W39419  21.160  23.911   1.804
74259W        W39420  36.776  28.141   0.911
74260W        W39421  35.678  11.668   4.231
74261W        W39422  29.519  28.708  10.811
74262W        W39423  40.073  42.148  11.374
74263W        W39424  34.593  43.062  11.087
74264W        W39425  11.682  39.870   3.670
74265W        W39426  39.573  23.651   1.331
74266W        W39427  34.962  12.716   0.457
74267W        W39428  24.255   8.803   4.437
74268W        W39429   7.390  18.318  12.398
74269W        W39430  25.998   2.301   0.916
74270W        W39431  41.817   5.804   0.217
74271W        W39432  41.499  38.038   0.870
74272W        W39433  30.503  17.119  13.584
74273W        W39434  41.108  21.191  14.798
74274W        W39435   4.677  43.263  13.544
74275W        W39436  44.295   0.056   1.450
74276W        W39437  22.759  42.279  12.478
74277W        W39438  34.353  32.153  13.302
74278W        W39439  25.472  20.320  14.381
74279W        W39440   3.341   0.186  12.841
74280W        W39441   7.899  33.986   1.339
74281W        W39442  15.781   7.142   2.008
74282W        W39443  15.152   1.662   2.303
74283W        W39444  28.754  35.329  14.133
74284W        W39445  34.286   4.279   2.462
74285W        W39446  30.183  35.096   2.643
74286W        W39447  36.847  10.395   3.653
74287W        W39448  27.274  43.886   0.449
74288W        W39449  16.725  43.964   1.172
74289W        W39450  32.558  23.113   2.053
74290W        W39451   5.473  17.810  13.783
74291W        W39452   1.937   1.288  10.662
74292W        W39453  42.463  42.706   0.403
74293W        W39454  11.431  37.730   2.891
74294W        W39455  37.135  38.256   4.730
74295W        W39456  14.266  10.383  14.882
74296W        W39457  42.832  19.991   2.176
74297W        W39458  24.490   1.405  11.159
74298W        W39459  28.553  41.729  11.173
74299W        W39460  41.963  43.722   1.130
74300W        W39461  17.726  24.928   3.696
74301W        W39462   7.403  15.165  11.051
74302W        W39463  21.188  14.761   0.412
74303W        W39464  44.285  28.043   4.492
74304W        W39465  28.678  39.483   1.982
74305W        W39466  38.986  35.062  14.982
74306W        W39467  18.993  29.930   4.115
74307W        W39468  44.916   4.784  11.271
74308W        W39469  42.333  29.694  13.623
74309W        W39470  22.236  21.206  12.851
74310W        W39471  17.581  39.468  12.605
74311W        W39472  18.300  11.240  14.893
74312W        W39473   2.172  32.574  14.893
74313W        W39474  35.569  38.150   1.426
74314W        W39475   3.965   8.274   1.337
74315W        W39476   3.585  14.048  10.189
74316W        W39477  35.158  44.089  14.393
74317W        W39478  16.643  13.700   1.906
74318W        W39479  39.738  18.405   1.242
74319W        W39480  28.686  10.008  12.015
74320W        W39481  39.085  10.326   2.643
74321W        W39482  12.350   4.387  12.949
74322W        W39483  40.962   8.387   4.859
74323W        W39484   2.226  13.188   2.282
74324W        W39485   1.460  20.043   0.866
74325W        W39486  25.181  35.571   2.160
74326W        W39487  25.061  15.317   0.493
74327W        W39488  23.995   5.678   4.087
74328W        W39489   1.991  20.676   2.353
74329W        W39490  20.194  12.858   0.744
74330W        W39491  41.878  42.340   3.981
74331W        W39492  16.552   5.921  11.991
74332W        W39493  38.180  38.523   0.361
74333W        W39494  41.000  13.109   0.381
74334W        W39495  30.134  17.133   0.745
74335W        W39496  22.642  31.128   4.725
74336W        W39497  19.214   1.276   1.864
74337W        W39498  18.705  34.958   1.259
74338W        W39499   4.527  18.037  12.955
74339W        W39500  28.701  18.072   4.534
74340W        W39501   2.666  42.343   0.941
74341W        W39502  37.990   0.430  14.698
74342W        W39503  29.418   6.675   1.843
74343W        W39504  42.081   6.074   5.000
74344W        W39505  12.260  12.751  13.263
74345W        W39506  26.949  13.590   0.826
74346W        W39507  32.682  41.933   3.154
74347W        W39508  36.306   3.437  11.984
74348W        W39509  36.535  30.447  10.351
74349W        W39510  26.022  26.993  12.164
74350W        W39511  18.017  15.809  14.499
74351W        W39512  38.860  24.802   4.981
74352W        W39513  28.094  12.806   2.752
74353W        W39514  17.821   9.631   0.281
74354W        W39515  21.059  30.496  13.994
74355W        W39516  12.916   4.922  14.298
74356W        W39517  37.135  41.051  13.074
74357W        W39518  18.177   4.438  12.836
74358W        W39519  32.875   6.797   3.832
74359W        W39520   3.472  43.329   2.331
74360W        W39521  29.942  31.408   0.330
74361W        W39522   8.326  11.131  11.095
74362W        W39523  17.258  22.768  10.190
74363W        W39524   0.977  14.467   3.675
74364W        W39525  22.938  17.273   5.248
74365W        W39526  28.977  27.625   0.338
74366W        W39527  41.559  14.741  13.297
74367W        W39528  10.286   3.174   4.056
74368W        W39529  28.495  16.704   2.432
74369W        W39530  39.753  12.205  12.020
74370W        W39531  22.260  13.676  10.835
74371W        W39532  31.367  31.034  11.650
74372W        W39533  40.736  28.496  14.725
74373W        W39534  36.533   0.268   0.244
74374W        W39535  36.441  20.634  10.893
74375W        W39536  44.701  42.809   0.394
74376W        W39537  13.204   9.605  11.278
74377W        W39538   9.265   0.686   3.864
74378W        W39539  25.161  35.557   1.385
74379W        W39540  21.100  10.034   4.925
74380W        W39541   6.702  23.532  10.637
74381W        W39542  18.316   1.262  13.929
74382W        W39543  43.034  25.320  10.395
74383W        W39544  29.602   9.803  14.105
74384W        W39545  37.294   8.700   3.636
74385W        W39546   9.167  31.403  12.949
74386W        W39547   3.168  33.349  13.479
74387W        W39548  21.991   8.296  14.766
74388W        W39549  21.053  31.383   1.267
74389W        W39550   7.209  14.864  14.326
74390W        W39551  40.811  28.636   4.110
74391W        W39552  17.235  37.468  12.112
74392W        W39553  21.768  37.163  11.140
74393W        W39554  15.803   6.854   1.118
74394W        W39555  26.826   9.060  10.694
74395W        W39556   9.832  29.584   0.968
74396W        W39557  10.921  42.749   3.663
74397W        W39558  42.818  16.730   1.475
74398W        W39559  13.778  39.910   0.159
74399W        W39560  29.678  16.874  10.498
74400W        W39561  22.509  38.902  11.052
74401W        W39562   3.687  15.346  13.509
74402W        W39563  16.779  43.770  12.040
74403W        W39564   4.912  42.544  10.567
74404W        W39565  41.752  13.054  11.217
74405W        W39566   6.303   2.126  12.432
74406W        W39567   6.641   2.362   2.768
74407W        W39568  25.314   1.445   4.181
74408W        W39569  11.916  16.081  13.952
74409W        W39570  31.553  30.588   4.672
74410W        W39571  16.260  39.288   1.845
74411W        W39572  13.454  39.940   0.987
74412W        W39573  13.730  20.655   0.548
74413W        W39574  15.817  13.022  12.129
74414W        W39575  39.025   8.407  10.731
74415W        W39576   6.276  11.093   1.269
74416W        W39577  14.071   2.484  10.461
74417W        W39578  31.664   7.025   4.287
74418W        W39579  11.172  28.510  11.999
74419W        W39580  10.674   2.079  10.691
74420W        W39581  38.752  15.769  13.337
74421W        W39582  39.501  33.915   2.239
74422W        W39583   0.810  44.258   4.523
74423W        W39584  31.510   1.291  14.464
74424W        W39585  22.170  15.035  12.418
74425W        W39586  10.542  29.804   2.903
74426W        W39587  27.047  40.907   1.062
74427W        W39588  12.421   6.509   0.834
74428W        W39589  21.002   6.617   1.240
74429W        W39590   3.213  17.734   0.018
74430W        W39591   3.399  36.072   2.636
74431W        W39592  12.791  32.208  11.214
74432W        W39593  37.599  14.127  13.784
74433W        W39594  43.764   4.262   0.348
74434W        W39595  38.204   6.964  13.530
74435W        W39596  19.270   7.025   1.262
74436W        W39597  15.360  43.322   1.471
74437W        W39598  10.344   7.789  11.206
74438W        W39599   7.445   8.789  12.748
74439W        W39600  15.560   8.053   1.828
74440W        W39601  43.972  24.706  13.040
74441W        W39602  21.174  15.729   3.307
74442W        W39603  21.618  16.046   3.154
74443W        W39604  22.146  43.933  14.453
74444W        W39605  28.104  41.803  10.961
74445W        W39606   6.938  44.369  12.159
74446W        W39607   0.321  25.375  11.983
74447W        W39608  11.311  33.123  12.408
74448W        W39609  25.516  26.391   1.750
74449W        W39610  42.426  30.938   4.319
74450W        W39611  13.346  37.591  12.635
74451W        W39612  41.598  19.610   1.237
74452W        W39613  14.148  21.002   0.533
74453W        W39614  39.327  19.136   2.981
74454W        W39615  10.688  19.051   1.354
74455W        W39616  22.123  17.147   4.149
74456W        W39617   4.290  19.136   4.293
74457W        W39618  35.536  12.024   1.823
74458W        W39619   1.867  38.831  13.961
74459W        W39620  33.419  21.092   0.481
74460W        W39621  21.480  17.960   0.333
74461W        W39622  34.302  24.639   1.765
74462W        W39623  18.101   1.678   2.657
74463W        W39624  31.971  30.517   0.669
74464W        W39625   3.630  28.855   2.794
74465W        W39626   4.689  42.212   3.677
74466W        W39627  41.510  18.275   3.457
74467W        W39628  35.998  20.688   2.217
74468W        W39629   2.356  33.906   1.304
74469W        W39630  11.190   0.286  14.737
74470W        W39631   8.738  27.434  10.652
74471W        W39632  39.453  41.910   5.191
74472W        W39633   6.690  27.541  12.973
74473W        W39634   3.736  33.430   3.238
74474W        W39635  39.464  31.720   2.341
74475W        W39636  41.250  34.872   0.476
74476W        W39637  40.523  15.126   3.370
74477W        W39638  27.237  11.527   2.223
74478W        W39639  20.247  11.193  13.837
74479W        W39640  35.674   0.399  11.809
74480W        W39641  33.111  18.630  13.798
74481W        W39642  21.366  38.484   2.322
74482W        W39643  36.902  10.979   1.325
74483W        W39644  36.866   1.341   2.231
74484W        W39645   7.572  10.842  12.425
74485W        W39646  42.353  23.667   0.998
74486W        W39647  29.043  10.611  11.474
74487W        W39648  22.086  32.162  13.932
74488W        W39649   3.888  25.984  13.954
74489W        W39650  11.768  12.917  13.155
74490W        W39651   7.674  20.525   1.961
74491W        W39652  44.042   4.230  12.794
74492W        W39653  27.376  25.082  14.326
74493W        W39654  12.654   4.809  14.736
74494W        W39655  14.904  32.946  11.605
74495W        W39656   5.855   2.861   1.440
74496W        W39657  16.185  15.618   1.500
74497W        W39658   4.203  38.047  11.389
74498W        W39659  39.073  28.459   3.739
74499W        W39660  42.904  41.759  11.933
74500W        W39661  31.914  22.530  10.312
74501W        W39662  17.719  31.425   4.867
74502W        W39663   1.970  14.602   0.881
74503W        W39664  44.469   4.580  13.445
74504W        W39665  30.531   0.020  13.306
74505W        W39666  13.715   8.155  12.568
74506W        W39667  15.307  17.018  11.435
74507W        W39668  21.647  26.686   1.329
74508W        W39669  19.381  29.073  10.710
74509W        W39670  43.226  24.980   0.278
74510W        W39671  28.469   6.922   0.427
74511W        W39672  18.777  19.654   2.657
74512W        W39673  27.023  34.744  11.947
74513W        W39674   6.899  27.402   0.846
74514W        W39675  38.647   8.314   1.932
74515W        W39676  32.297  11.224  14.727
74516W        W39677  38.444  25.644   3.208
74517W        W39678  41.190  42.982  13.650
74518W        W39679  27.720   5.786   4.059
74519W        W39680  14.976  27.056   0.482
74520W        W39681  34.913  12.496  12.357
74521W        W39682   8.951  18.149   3.217
74522W        W39683  14.826  22.637  10.718
74523W        W39684   6.645  33.551   2.289
74524W        W39685  19.995  23.441   4.035
74525W        W39686   6.799  25.301  13.361
74526W        W39687  30.957  32.093  12.342
74527W        W39688   6.186   5.168   4.847
74528W        W39689  40.384  22.082   0.326
74529W        W39690  13.727  19.212   1.449
74530W        W39691   9.304  22.000   2.679
74531W        W39692   5.584  25.453  10.451
74532W        W39693  14.686  18.588  12.070
74533W        W39694  36.685  21.272  12.020
74534W        W39695  33.317  18.515  13.318
74535W        W39696  29.898  22.510  14.859
74536W        W39697  43.897   4.091   3.957
74537W        W39698  38.462   1.213   4.199
74538W        W39699  30.098  27.483   3.715
74539W        W39700  24.307  10.278  14.318
74540W        W39701  40.002  28.473   4.767
74541W        W39702   3.946  25.845   1.974
74542W        W39703  21.440  18.159   4.768
74543W        W39704  33.898  11.800  12.125
74544W        W39705   3.752  31.104   1.199
74545W        W39706  34.508   7.204   3.391
74546W        W39707  38.990   8.407  11.658
74547W        W39708  30.054   9.155   0.823
74548W        W39709  18.664  19.511   3.132
74549W        W39710  33.676  31.626  13.401
74550W        W39711  33.178  33.814  11.981
74551W        W39712  18.175  30.687  13.011
74552W        W39713  33.498  21.643   1.720
74553W        W39714  29.609  11.663  12.459
74554W        W39715  12.840  25.957  13.500
74555W        W39716  28.447  34.009   2.296
74556W        W39717  42.437  10.216   1.694
74557W        W39718  19.615  25.951  12.112
74558W        W39719  34.456  13.281   1.638
74559W        W39720  24.628  44.524  14.143
74560W        W39721  44.098  42.763  14.367
74561W        W39722  30.136  18.878   0.179
74562W        W39723   0.982  40.902  13.066
74563W        W39724  21.195   7.731   1.709
74564W        W39725  36.858   9.787   2.803
74565W        W39726  11.294  34.903  11.454
74566W        W39727  43.960  37.797   2.672
74567W        W39728   5.115   6.393  11.668
74568W        W39729   3.170  26.993  10.943
74569W        W39730   0.717  18.236   4.686
74570W        W39731  22.708  41.831  13.513
74571W        W39732  37.038  30.153   1.723
74572W        W39733  44.154  15.909   2.149
74573W        W39734  31.874  31.005  13.919
74574W        W39735  20.696  43.769  12.074
74575W        W39736  40.061  19.513   0.349
74576W        W39737  39.841  30.406  12.118
74577W        W39738   6.897  27.610   1.754
74578W        W39739  12.508   5.892  14.948
74579W        W39740  12.844  18.146   3.414
74580W        W39741  11.225   1.422  14.063
74581W        W39742  10.598  22.188  14.088
74582W        W39743  39.911  39.861   0.350
74583W        W39744  28.865  34.419  14.551
74584W        W39745  15.758  14.619  14.809
74585W        W39746   9.353   8.938   2.921
74586W        W39747  30.216   5.870   2.355
74587W        W39748  32.115  17.524   1.717
74588W        W39749  34.051  42.405   4.691
74589W        W39750   7.610   2.559   1.964
74590W        W39751   3.244  31.731  10.553
74591W        W39752  21.835   2.414   4.698
74592W        W39753   0.249  44.420  14.786
74593W        W39754  41.515  21.291  12.448
74594W        W39755  34.429  24.010  10.879
74595W        W39756   2.282  14.814  12.366
74596W        W39757  39.813  43.899   3.822
74597W        W39758  28.533  20.559   2.670
74598W        W39759  32.930   9.596  12.437
74599W        W39760  14.103   0.956   1.847
74600W        W39761  11.169  38.819   4.308
74601W        W39762  42.493  26.370   3.204
74602W        W39763  17.288  24.236  12.055
74603W        W39764  16.254  36.837   4.163
74604W        W39765   2.221  26.518   1.894
74605W        W39766  24.927  17.104   4.460
74606W        W39767  36.636   6.749  12.498
74607W        W39768  27.525  30.717  11.630
74608W        W39769  26.723  14.276   1.791
74609W        W39770  21.844   6.907   1.702
74610W        W39771  29.308   2.245   0.880
74611W        W39772  20.302  11.889  11.411
74612W        W39773  39.201   7.141   0.989
74613W        W39774  10.308  44.888   1.361
74614W        W39775   5.171  29.780  13.919
74615W        W39776  42.954  16.086  13.328
74616W        W39777   5.017   3.011   1.434
74617W        W39778   5.764  38.066   0.383
74618W        W39779   3.881   7.286   0.414
74619W        W39780  16.239   4.447  14.790
74620W        W39781  23.818   2.477  11.658
74621W        W39782  38.330  10.676   2.389
74622W        W39783  36.935  23.533  14.925
74623W        W39784  16.535  15.994  14.193
74624W        W39785  16.832  41.047   1.897
74625W        W39786  22.740  36.007  10.402
74626W        W39787   4.962  34.875   4.275
74627W        W39788  27.382  37.063  12.196
74628W        W39789  14.492  15.354   0.061
74629W        W39790  35.438   1.343  13.290
74630W        W39791  28.990   1.406   2.384
74631W        W39792  30.401  11.635  10.669
74632W        W39793  17.264  44.012   4.098
74633W        W39794  14.705  27.753  13.878
74634W        W39795  32.603   6.124  14.774
74635W        W39796   7.353  10.072  11.948
74636W        W39797   5.578   0.366  14.886
74637W        W39798  14.209   9.912   2.676
74638W        W39799  41.012  27.521   2.765
74639W        W39800  27.212   8.439  11.230
74640W        W39801  26.506  27.940  13.047
74641W        W39802  28.500  29.153   4.654
74642W        W39803   2.992  24.315   3.113
74643W        W39804  29.015  38.216   2.264
74644W        W39805  42.398  12.272  13.459
74645W        W39806  25.615   7.670  12.099
74646W        W39807   7.346  12.171  13.350
74647W        W39808  43.332   6.356   2.333
74648W        W39809  41.964  37.978  12.938
74649W        W39810  24.580   5.195  14.392
74650W        W39811  40.847   0.696  13.848
74651W        W39812   6.599   2.325  12.072
74652W        W39813  32.941  29.479  10.707
74653W        W39814  34.567  28.054   2.741
74654W        W39815  38.593  18.761  13.528
74655W        W39816  20.289  12.401  11.500
74656W        W39817  39.874  18.508  14.328
74657W        W39818   4.957  17.878  14.005
74658W        W39819  20.688  44.050   1.906
74659W        W39820  16.142  34.719   4.985
74660W        W39821  10.781  23.649   3.999
74661W        W39822  11.029   0.970  14.368
74662W        W39823  15.775  28.333  10.953
74663W        W39824  26.040  21.493  12.565
74664W        W39825   6.974   6.299   2.235
74665W        W39826  30.443  29.011   4.613
74666W        W39827  13.693  26.050  13.014
74667W        W39828  23.688   3.112   2.798
74668W        W39829  44.663  21.291   0.734
74669W        W39830   4.803  32.730   4.069
74670W        W39831  36.111  33.961   1.771
74671W        W39832  15.221   8.486  13.483
74672W        W39833   1.379   6.826   2.887
74673W        W39834  32.436  12.089   2.427
74674W        W39835  16.710  27.984   4.580
74675W        W39836   6.904  36.656   4.223
74676W        W39837  16.165  40.636  12.114
74677W        W39838  31.175  36.709  13.699
74678W        W39839   5.880  42.844   3.286
74679W        W39840   5.864   1.710  14.608
74680W        W39841  10.143  44.096   3.664
74681W        W39842  34.964  21.041   2.878
74682W        W39843  16.145  30.743  14.968
74683W        W39844  34.818   3.151   0.316
74684W        W39845  25.412  33.978  13.304
74685W        W39846  14.091   5.484  12.829
74686W        W39847  22.605  13.902  12.774
74687W        W39848  44.157  10.444  14.335
74688W        W39849   2.246  21.247   4.565
74689W        W39850   9.970  14.772  14.039
74690W        W39851  33.053  33.746   0.852
74691W        W39852  18.295  37.491   3.895
74692W        W39853  25.069  28.920   1.750
74693W        W39854   3.704   1.423  13.388
74694W        W39855  43.695   3.447  11.599
74695W        W39856  36.449   8.366   3.671
74696W        W39857   0.693   6.704  10.521
74697W        W39858   6.766  38.847  10.823
74698W        W39859  15.670  31.090   0.653
74699W        W39860  35.211  25.676   2.216
74700W        W39861   2.919  16.597  12.956
74701W        W39862   4.688   2.861   3.052
74702W        W39863  20.540  19.430  10.084
74703W        W39864  16.335  42.561  11.959
74704W        W39865  13.646   2.939   4.877
74705W        W39866  13.773  31.836  14.827
74706W        W39867  10.227   5.033  14.882
74707W        W39868  24.308  17.236  11.640
74708W        W39869  27.486  38.059   1.438
74709W        W39870  16.650  23.759  10.748
74710W        W39871  20.523   5.334   4.712
74711W        W39872  38.484  25.402  11.598
74712W        W39873  44.006   8.911  12.730
74713W        W39874  20.076  26.803   2.377
74714W        W39875  31.115  25.896  13.020
74715W        W39876  25.594  16.015   0.736
74716W        W39877  31.508  30.384   0.868
74717W        W39878  18.561  40.191   0.022
74718W        W39879  17.521  31.694   4.453
74719W        W39880  35.155  41.935   0.475
74720W        W39881  28.378   1.215   3.779
74721W        W39882  32.077  40.017   2.246
74722W        W39883  18.916  44.618   0.958
74723W        W39884  36.894  35.594  12.894
74724W        W39885  20.950  30.075  12.916
74725W        W39886  36.441  15.672  13.947
74726W        W39887  41.745  34.481   4.397
74727W        W39888  26.875  24.026  12.352
74728W        W39889  13.324  31.299   2.854
74729W        W39890  33.876  17.785   0.757
74730W        W39891  27.535  35.387   2.891
74731W        W39892  13.336  35.761   3.577
74732W        W39893  38.416  38.627   2.769
74733W        W39894   3.894   6.820  11.385
74734W        W39895  17.748  41.251   2.309
74735W        W39896  13.129  13.154  11.940
74736W        W39897  23.978  38.760  14.330
74737W        W39898  25.219  12.633  14.740
74738W        W39899  40.096   0.360  11.091
74739W        W39900  35.780  25.490   0.331
74740W        W39901  24.546   0.571  14.884
74741W        W39902   8.950  30.338   0.844
74742W        W39903  20.715  11.383   0.895
74743W        W39904  11.119   2.766  14.270
74744W        W39905  35.923  22.307   4.767
74745W        W39906  29.496  30.054  12.138
74746W        W39907  38.093   9.678   0.668
74747W        W39908  41.360  34.478   3.575
74748W        W39909   0.486  38.256  14.925
74749W        W39910  39.362  34.323  14.961
74750W        W39911  11.904  19.168  12.946
74751W        W39912  18.770   2.790   1.437
74752W        W39913   6.832  38.637   1.440
74753W        W39914  42.893   0.841  10.990
74754W        W39915  41.324  28.570  12.841
74755W        W39916  11.749  32.010  10.645
74756W        W39917   8.736  15.138  11.661
74757W        W39918   2.465   9.352  13.801
74758W        W39919  18.187  10.430  13.675
74759W        W39920  26.616  16.503   1.706
74760W        W39921   0.323  28.744   2.846
74761W        W39922  41.114   8.445  12.465
74762W        W39923  14.006  23.550   2.350
74763W        W39924  25.405   0.407  12.576
74764W        W39925  11.259  36.866   3.392
74765W        W39926  36.409  18.583   0.320
74766W        W39927   3.284  33.013   3.861
74767W        W39928  18.371  17.056  12.064
74768W        W39929   8.205  22.478  11.949
74769W        W39930  34.131   3.293  14.065
74770W        W39931  23.027   2.446  14.761
74771W        W39932  15.685  38.784   9.899
74772W        W39933  33.822  22.621   1.432
74773W        W39934  27.432   9.421   0.782
74774W        W39935   4.211  36.377  10.645
74775W        W39936   7.862  30.483  14.551
74776W        W39937  20.507  32.503   3.141
74777W        W39938   7.408  17.039   3.240
74778W        W39939  13.352  24.047  12.595
74779W        W39940  11.131  30.496  13.941
74780W        W39941  30.064  28.323  13.599
74781W        W39942  33.288   9.482   2.227
74782W        W39943  34.945  10.278  10.938
74783W        W39944  27.109  28.805   2.191
74784W        W39945  37.024  31.965   1.272
74785W        W39946  11.838  30.016  12.852
74786W        W39947  41.797  23.480   3.629
74787W        W39948  36.277  30.713   3.289
74788W        W39949   1.737  43.743   3.946
74789W        W39950  22.651  36.577  11.707
74790W        W39951   2.173  29.021   3.566
74791W        W39952  22.776  12.114   2.296
74792W        W39953  36.316   9.914   3.175
74793W        W39954   1.928  30.670   0.924
74794W        W39955   0.220  10.092   5.315
74795W        W39956  17.742  42.557  12.164
74796W        W39957  42.855   8.233   2.684
74797W        W39958  14.848  32.073   0.413
74798W        W39959  33.885  30.017  14.825
74799W        W39960  11.138  36.432   0.758
74800W        W39961  17.831  27.390  12.005
74801W        W39962  34.899  37.125  12.935
74802W        W39963   5.963  20.040   4.483
74803W        W39964  37.311  39.005   4.119
74804W        W39965  37.561  37.397  13.799
74805W        W39966  39.004  26.973  13.873
74806W        W39967   7.156  17.059   1.609
74807W        W39968  10.160  13.564   1.899
74808W        W39969  38.559  26.805  12.376
74809W        W39970  14.733   5.781  12.899
74810W        W39971  43.412  41.835  14.952
74811W        W39972  40.009  14.318   2.658
74812W        W39973  15.127  18.783  14.321
74813W        W39974  28.706  19.179  11.571
74814W        W39975  26.991   3.310   1.026
74815W        W39976  12.340  18.845  11.238
74816W        W39977  23.580   9.831  14.962
74817W        W39978  31.983  35.890   4.119
74818W        W39979  20.589  31.825  13.476
74819W        W39980  11.597  43.660  14.099
74820W        W39981   3.714  42.967   4.112
74821W        W39982  20.192  35.354   0.036
74822W        W39983  13.356  15.973   3.712
74823W        W39984   8.337  30.792  13.526
74824W        W39985  42.997   5.458  13.943
74825W        W39986  30.945  13.676  14.790
74826W        W39987  42.887   3.207  14.922
74827W        W39988   9.573  41.568  11.663
74828W        W39989  10.879  37.860  13.910
74829W        W39990  21.937  33.166  13.850
74830W        W39991   4.297  25.302  13.169
74831W        W39992  27.676  34.563  13.358
74832W        W39993  28.041  21.263  14.362
74833W        W39994  30.569   5.840   4.545
74834W        W39995   7.639  37.114   1.433
74835W        W39996   2.412  18.345   4.793
74836W        W39997  34.157   0.193  13.431
74837W        W39998   6.290  38.857   0.376
74838W        W39999  11.755  23.394   1.889
74839W        W40000  13.424  20.063  11.295
74840W        W40001  37.958  16.094  14.354
74841W        W40002  17.582  18.818  11.941
74842W        W40003  38.763  26.284   3.683
74843W        W40004   4.779  42.518  11.065
74844W        W40005  41.259  39.631  11.168
74845W        W40006  35.632  15.261   2.115
74846W        W40007   9.492  30.523   3.164
74847W        W40008  10.810  36.559  12.662
74848W        W40009  30.372  43.177  12.003
74849W        W40010  15.605  20.713   1.854
74850W        W40011  28.945  14.443  11.130
74851W        W40012  11.694   4.884  13.209
74852W        W40013  38.335  44.656   3.148
74853W        W40014  30.420  34.066  13.105
74854W        W40015  34.115  44.671   0.903
74855W        W40016  12.621  12.450   0.795
74856W        W40017  27.317  33.380   5.070
74857W        W40018  40.617  33.465  14.407
74858W        W40019  23.407  23.488   4.941
74859W        W40020  10.168   9.331  14.952
74860W        W40021  15.770  25.007   3.900
74861W        W40022  24.509   1.139   4.445
74862W        W40023  22.413   3.208  10.200
74863W        W40024   5.500  43.466   0.829
74864W        W40025   8.770  38.491  12.350
74865W        W40026  22.610   7.958  11.001
74866W        W40027  36.078   4.494  12.885
74867W        W40028   7.449  31.054   2.151
74868W        W40029  11.132  39.939  14.002
74869W        W40030  30.174  12.122  10.660
74870W        W40031   3.385  24.923   3.586
74871W        W40032  35.840  32.357   0.340
74872W        W40033  28.384  44.292   4.108
74873W        W40034  23.184  21.685   1.062
74874W        W40035  40.877  34.174   1.858
74875W        W40036   0.791  43.351   2.135
74876W        W40037  13.817  39.496  12.430
74877W        W40038   7.356   9.930  12.936
74878W        W40039  16.150  15.133   3.246
74879W        W40040  37.912   5.373  12.040
74880W        W40041  39.440  10.805   0.473
74881W        W40042   3.318  19.148   4.554
74882W        W40043  35.600  10.643   1.429
74883W        W40044  33.451  29.903   1.824
74884W        W40045   0.335  18.825  14.914
74885W        W40046  41.061  31.662  13.811
74886W        W40047  23.763  25.201   5.121
74887W        W40048  36.150  35.689  12.536
74888W        W40049  22.305   4.479   2.719
74889W        W40050  11.438  26.938  13.412
74890W        W40051  14.916   0.181   0.881
74891W        W40052  20.761  38.070   4.466
74892W        W40053  29.978  17.270  10.632
74893W        W40054  32.281   8.898   4.550
74894W        W40055  16.407  43.445  11.551
74895W        W40056   4.755   7.135  10.662
74896W        W40057   5.868  10.867  11.093
74897W        W40058  19.368  34.391   4.599
74898W        W40059  26.059   3.877  11.094
74899W        W40060   8.811  10.341  13.514
74900W        W40061   1.866  15.288  13.134
74901W        W40062  30.022   8.155   4.658
74902W        W40063  20.601  23.146   2.777
74903W        W40064  20.123  23.076   2.393
74904W        W40065  18.018  28.113  13.404
74905W        W40066  30.089  30.698  12.362
74906W        W40067   8.599   4.566  14.275
74907W        W40068  36.094   0.989   4.994
74908W        W40069  13.995   1.340   0.196
74909W        W40070  36.186  19.069   2.196
74910W        W40071  18.991  27.440   4.217
74911W        W40072  29.037  41.937  10.535
74912W        W40073  17.765  23.224   1.769
74913W        W40074   7.681  27.073  13.886
74914W        W40075   1.222  40.271   4.007
74915W        W40076  37.479  43.714  13.878
74916W        W40077  43.805  22.093  13.138
74917W        W40078  34.620  12.807   0.857
74918W        W40079  19.739  32.228   0.326
74919W        W40080  41.438  12.577  14.968
74920W        W40081  10.397  22.633   3.634
74921W        W40082  39.428  12.287   1.726
74922W        W40083  17.757  16.615   0.543
74923W        W40084  40.208  42.290  10.813
74924W        W40085  29.642  24.909   0.861
74925W        W40086  28.514  22.532   0.472
74926W        W40087  14.116  35.624   1.220
74927W        W40088  34.276  17.199   2.285
74928W        W40089  19.547  13.029   3.201
74929W        W40090  28.491  16.509  14.009
74930W        W40091  43.833  16.731   0.708
74931W        W40092  28.130  16.339  14.557
74932W        W40093   3.502  13.450   5.192
74933W        W40094  12.150  28.873  13.977
74934W        W40095  43.984  33.399  12.041
74935W        W40096  23.696   7.803  13.980
74936W        W40097  10.082   5.497   0.101
74937W        W40098  36.529  31.818   1.411
74938W        W40099  23.141  34.924  12.107
74939W        W40100   8.342  34.509  10.685
74940W        W40101  41.889   2.871   1.224
74941W        W40102   9.878  26.093  11.108
74942W        W40103  14.331  29.202   0.616
74943W        W40104  30.744  34.532   0.321
74944W        W40105  24.959  25.458   0.086
74945W        W40106   2.402   2.076   0.005
74946W        W40107  16.797   7.508  12.050
74947W        W40108  24.450  43.465  11.069
74948W        W40109  41.951  38.423  12.612
74949W        W40110  31.053  32.442  14.731
74950W        W40111  37.033  21.623   3.391
74951W        W40112  26.735  23.266  14.452
74952W        W40113  14.091  43.835   2.432
74953W        W40114  20.347  19.234  10.956
74954W        W40115  16.517  32.087   3.698
74955W        W40116   1.818  33.240   2.262
74956W        W40117  38.207  41.448  11.578
74957W        W40118  16.233   8.634  11.063
74958W        W40119  22.676  19.619  14.313
74959W        W40120  15.773   1.333   3.769
74960W        W40121   9.143  40.814  12.861
74961W        W40122  22.721   9.728  13.876
74962W        W40123  19.258   7.469   3.606
74963W        W40124  39.946  22.759  14.442
74964W        W40125   1.241  31.868   3.250
74965W        W40126  26.930  16.733  12.509
74966W        W40127  29.577  21.001   0.950
74967W        W40128  34.634  17.237  13.453
74968W        W40129   8.602  14.198   4.958
74969W        W40130  38.942  18.276   4.605
74970W        W40131  14.613  34.773  12.083
74971W        W40132  35.953  26.903  14.219
74972W        W40133  39.222  27.368   0.044
74973W        W40134  37.694   9.870   0.959
74974W        W40135  10.170   1.453  11.615
74975W        W40136  31.903  39.954  14.326
74976W        W40137  24.562  20.749  11.677
74977W        W40138  16.396  43.324   1.369
74978W        W40139  35.957  25.519   4.637
74979W        W40140  36.561  11.827  14.292
74980W        W40141  43.282  29.387  12.206
74981W        W40142  33.914   0.671  14.759
74982W        W40143  44.039  36.348   3.200
74983W        W40144   0.399  32.102  13.420
74984W        W40145  43.424  14.461   5.322
74985W        W40146  35.440  31.624  11.145
74986W        W40147  24.500   2.538  14.771
74987W        W40148  32.853   6.669  13.930
74988W        W40149  16.010   7.903   0.376
74989W        W40150  36.295  42.653  10.026
74990W        W40151  37.942  22.758   0.848
74991W        W40152  41.401  29.545  14.561
74992W        W40153  33.698  13.697   1.816
74993W        W40154  41.658  15.804   2.123
74994W        W40155   4.447   7.675   1.650
74995W        W40156  14.475   4.773   0.482
74996W        W40157  24.527  28.744   1.887
74997W        W40158  39.130  25.667  12.899
74998W        W40159  25.154  24.517   2.939
74999W        W40160  44.755  17.363  11.010
75000W        W40161   7.037  23.115  10.628
75001W        W40162  37.287  43.801   0.243
75002W        W40163  35.519   1.615  14.141
75003W        W40164  36.957  31.410   4.162
75004W        W40165  31.407  40.908  10.735
75005W        W40166   6.926  36.905   0.317
75006W        W40167  13.703  15.552  12.223
75007W        W40168  39.525  34.333  13.001
75008W        W40169  37.030  36.134   2.725
75009W        W40170  12.192  16.739   2.656
75010W        W40171   9.972   6.395   0.980
75011W        W40172  23.525  36.444   4.107
75012W        W40173  14.021  41.063   4.119
75013W        W40174  12.747  38.621  13.398
75014W        W40175  16.778   9.402   0.737
75015W        W40176  17.530  44.661   9.830
75016W        W40177  37.854  32.072   2.614
75017W        W40178  33.910   5.338   4.785
75018W        W40179  33.976   7.713   1.419
75019W        W40180  25.403  34.157   1.134
75020W        W40181  13.848  40.915  11.629
75021W        W40182  16.422  12.649   0.462
75022W        W40183  38.179  41.831  14.945
75023W        W40184   5.921  35.644   3.774
75024W        W40185   8.892  32.569  14.325
75025W        W40186   9.867  38.501  11.724
75026W        W40187   2.963  39.874  14.011
75027W        W40188  28.186  19.788   3.241
75028W        W40189   7.890  29.040  11.359
75029W        W40190  14.096  40.312  13.967
75030W        W40191   1.729   1.431  12.087
75031W        W40192  16.678  38.474  14.220
75032W        W40193  10.464  21.130  14.323
75033W        W40194  40.531  42.912  10.961
75034W        W40195  24.658  13.299   4.206
75035W        W40196   3.274   1.440   0.723
75036W        W40197  44.972   7.649  13.399
75037W        W40198  40.750   6.411   3.865
75038W        W40199  30.253  37.902   2.273
75039W        W40200  44.037  40.571   3.727
75040W        W40201  18.316  27.651   2.886
75041W        W40202   5.269  32.701  12.037
75042W        W40203  31.335  43.517  12.256
75043W        W40204   3.837  25.702  13.513
75044W        W40205  34.289  43.923  10.531
75045W        W40206  29.389  13.583   0.827
75046W        W40207  12.082   2.274  10.812
75047W        W40208  15.175   4.713   2.479
75048W        W40209  28.666  35.688  14.891
75049W        W40210  21.504  10.899   2.037
75050W        W40211   0.497   3.164   0.315
75051W        W40212  18.538  39.694   0.977
75052W        W40213  34.884  43.014   1.346
75053W        W40214   0.032  21.009  14.382
75054W        W40215   5.849  16.259   4.565
75055W        W40216  12.298  41.223   2.246
75056W        W40217  38.012  29.520   3.454
75057W        W40218   1.996   7.379   3.206
75058W        W40219   8.432  19.735  14.603
75059W        W40220  27.007  38.580  13.894
75060W        W40221  37.877  39.957  11.835
75061W        W40222  28.545  31.424   1.815
75062W        W40223  17.757  32.607  10.721
75063W        W40224  20.147  39.891  10.239
75064W        W40225  15.777  23.240   3.054
75065W        W40226  37.583  17.618  12.672
75066W        W40227  32.942  41.380   1.304
75067W        W40228  33.472  40.331   2.975
75068W        W40229   5.238   0.656   1.408
75069W        W40230   2.344  43.341  11.998
75070W        W40231  26.359   5.602  13.046
75071W        W40232  28.212  15.655   1.906
75072W        W40233  27.999  21.782   0.393
75073W        W40234   7.251  30.260   4.481
75074W        W40235  36.654  12.252  11.056
75075W        W40236   7.120  35.497   3.322
75076W        W40237   6.426  40.916  14.331
75077W        W40238   0.843  14.709   4.704
75078W        W40239  13.878  34.860   3.795
75079W        W40240  41.543  34.645  14.543
75080W        W40241   3.511  14.337   1.784
75081W        W40242  39.093  17.541  11.623
75082W        W40243  44.245  27.423  11.496
75083W        W40244  32.649  31.630  10.462
75084W        W40245  14.121  11.820   4.184
75085W        W40246  25.002  26.034   3.187
75086W        W40247   7.678  22.688   1.783
75087W        W40248  14.902  44.658   0.948
75088W        W40249  13.053  10.457  11.622
75089W        W40250  38.951  26.684   0.413
75090W        W40251   9.664   7.261  11.377
75091W        W40252  23.670  39.586  13.402
75092W        W40253  26.930  26.617   1.875
75093W        W40254  33.464  13.968  12.589
75094W        W40255  43.325  30.633  14.703
75095W        W40256  30.628  15.530  13.085
75096W        W40257   5.297   2.079  13.433
75097W        W40258   4.435  11.249   2.154
75098W        W40259  25.145  20.208  12.583
75099W        W40260   5.168  24.179   5.066
75100W        W40261  10.624  11.258  12.857
75101W        W40262   8.437   8.122  12.086
75102W        W40263  36.778  33.415  14.960
75103W        W40264  43.735  18.283   3.084
75104W        W40265   9.278  18.611  12.488
75105W        W40266  17.814  44.232   2.060
75106W        W40267  36.197  19.787   2.664
75107W        W40268  44.912  33.536   1.487
75108W        W40269   5.626   8.894   1.430
75109W        W40270   5.986  27.141   3.549
75110W        W40271   2.780   1.894  14.678
75111W        W40272   5.265  41.280  10.707
75112W        W40273  31.768  33.588   2.696
75113W        W40274  26.783  39.973   3.535
75114W        W40275  15.143   5.797   4.550
75115W        W40276  30.148  43.391   3.553
75116W        W40277  13.426  35.817   2.547
75117W        W40278  13.556  15.216  10.941
75118W        W40279  25.533   3.264  13.588
75119W        W40280   6.669   1.459  13.357
75120W        W40281  17.017  44.817   2.831
75121W        W40282  10.218  38.131   0.277
75122W        W40283   6.429  31.437   1.029
75123W        W40284   1.735  13.982   1.445
75124W        W40285  35.671  32.066  11.131
75125W        W40286  16.731  27.820   2.453
75126W        W40287  23.155  10.050  12.589
75127W        W40288   1.329  32.396   0.804
75128W        W40289   0.153  27.456  13.151
75129W        W40290  17.396  15.692  12.464
75130W        W40291  32.664  33.553   2.415
75131W        W40292  14.127  40.566   2.307
75132W        W40293   8.783  44.530   0.759
75133W        W40294  10.794   1.295   3.696
75134W        W40295  28.215  37.929   9.627
75135W        W40296  44.161  22.063   3.134
75136W        W40297  33.741  17.202   5.057
75137W        W40298  41.327  17.319  13.933
75138W        W40299  30.563  39.995   1.325
75139W        W40300  32.990   4.395   2.946
75140W        W40301  30.979   8.801  12.578
75141W        W40302  39.846  10.651   4.904
75142W        W40303  12.352  30.221  14.755
75143W        W40304  24.568   1.388  12.183
75144W        W40305   7.713  30.057  14.947
75145W        W40306  20.194  39.687   9.776
75146W        W40307  36.326  37.674  13.408
75147W        W40308  43.325  28.310  10.319
75148W        W40309   9.438  12.185   3.616
75149W        W40310  23.787  16.228  10.907
75150W        W40311  41.605  15.180   4.151
75151W        W40312  26.644  35.430   4.554
75152W        W40313   8.017  27.521  11.157
75153W        W40314  26.223   7.318   0.786
75154W        W40315  27.002   5.551   4.463
75155W        W40316   8.288  31.041  11.249
75156W        W40317  32.367  13.052  11.141
75157W        W40318  25.298   0.906   0.355
75158W        W40319  34.029   1.149  12.626
75159W        W40320  38.535  15.665  14.565
75160W        W40321  38.997   4.333  14.118
75161W        W40322  39.952  21.206   1.394
75162W        W40323  44.415  18.231  14.850
75163W        W40324  38.137  24.261   3.172
75164W        W40325  10.855  44.411   0.199
75165W        W40326  44.987  28.120   3.364
75166W        W40327  25.220  35.472   3.178
75167W        W40328   3.528  25.070  13.871
75168W        W40329  19.717  43.897   4.366
75169W        W40330  13.145   4.975  11.904
75170W        W40331   3.341  44.638  12.832
75171W        W40332   3.224  22.702   1.730
75172W        W40333  39.881  42.375  12.396
75173W        W40334  25.107  41.047   0.032
75174W        W40335  22.325  34.555   3.750
75175W        W40336  30.906   9.241  12.885
75176W        W40337  17.361  27.151   0.475
75177W        W40338  20.815  24.733  12.520
75178W        W40339  35.102  22.223   1.383
75179W        W40340  20.185  27.416  13.133
75180W        W40341  15.609  25.940   4.749
75181W        W40342   5.859  24.414  12.228
75182W        W40343  40.400   3.753  12.215
75183W        W40344  20.828  29.797  12.501
75184W        W40345  28.016  39.872   0.325
75185W        W40346  36.849   8.503  12.121
75186W        W40347  28.564  24.100  13.367
75187W        W40348   8.632  31.826  14.115
75188W        W40349  24.293  39.007   0.311
75189W        W40350  40.473  43.814  10.674
75190W        W40351  30.808  33.512   4.611
75191W        W40352  11.367  20.586   3.584
75192W        W40353  30.452   0.418   1.959
75193W        W40354   6.868   2.284   0.492
75194W        W40355   3.249  18.232  11.676
75195W        W40356   4.307  22.715   4.611
75196W        W40357  44.770  16.639   2.500
75197W        W40358  28.155  22.198   4.981
75198W        W40359  14.224  31.293   2.868
75199W        W40360   8.403  30.414   1.818
75200W        W40361  32.291  26.091  14.957
75201W        W40362   0.689  40.400  10.170
75202W        W40363  26.743  35.060  11.602
75203W        W40364  33.978  18.347  13.922
75204W        W40365  10.675   5.909  10.244
75205W        W40366  35.939  36.433   5.043
75206W        W40367  25.726  43.556  10.700
75207W        W40368  32.889  35.775   0.877
75208W        W40369  41.059  23.696  11.763
75209W        W40370  27.579  12.820   0.641
75210W        W40371  34.372  18.224  13.403
75211W        W40372  24.052  14.802   2.539
75212W        W40373  25.546  34.972  11.901
75213W        W40374  36.464  14.447  13.623
75214W        W40375  12.105  35.170   4.179
75215W        W40376  13.259  41.099  12.225
75216W        W40377   9.368  26.457  11.903
75217W        W40378  22.031  28.639   0.790
75218W        W40379   6.402  24.819   0.059
75219W        W40380  43.994   1.146   2.312
75220W        W40381  40.923  39.114  12.001
75221W        W40382  43.830  41.648   1.726
75222W        W40383  25.981  41.638  10.440
75223W        W40384   9.055  38.412  13.507
75224W        W40385   1.209   4.354   2.551
75225W        W40386   1.227  35.352  12.016
75226W        W40387  10.333  26.595   0.074
75227W        W40388  42.567  32.070  13.995
75228W        W40389  29.708   8.553   4.947
75229W        W40390  15.852   0.747   3.350
75230W        W40391  24.064  33.037  11.946
75231W        W40392  21.030  23.090   3.608
75232W        W40393  26.513  18.106  13.786
75233W        W40394  31.604  25.131   4.077
75234W        W40395  44.396  42.556  12.847
75235W        W40396  17.716  10.615  13.476
75236W        W40397  27.555   6.647  11.900
75237W        W40398   5.789   8.276  10.532
75238W        W40399   0.264  40.599   0.519
75239W        W40400  38.895  36.368  10.496
75240W        W40401  40.998  43.937   4.979
75241W        W40402  32.207  37.062  12.459
75242W        W40403  28.431  22.684  13.347
75243W        W40404  12.363  30.527   4.806
75244W        W40405   2.945  17.385  11.722
75245W        W40406  42.354  24.700   1.377
75246W        W40407  13.348  30.551   2.307
75247W        W40408  37.225   9.770   2.278
75248W        W40409  11.129  10.105  11.846
75249W        W40410   8.734  20.091   1.910
75250W        W40411  18.381  44.429  12.928
75251W        W40412  15.776  40.895   0.969
75252W        W40413  27.438  37.896  14.494
75253W        W40414  19.055  37.962  14.251
75254W        W40415   3.669  11.691   3.838
75255W        W40416  30.563  34.537   4.077
75256W        W40417  34.848  14.491  12.507
75257W        W40418  36.566  12.649   2.197
75258W        W40419  16.882  10.638  14.202
75259W        W40420   9.237   9.876  10.950
75260W        W40421   6.769  37.871  14.402
75261W        W40422  19.749  37.550   4.075
75262W        W40423  29.971  41.349  12.270
75263W        W40424  18.748  23.053   2.141
75264W        W40425   7.377  38.813  14.364
75265W        W40426  43.021   5.707  10.608
75266W        W40427  34.037  17.807   2.256
75267W        W40428  40.816  40.211  11.195
75268W        W40429  42.063  12.119   1.400
75269W        W40430  36.068   4.818  10.390
75270W        W40431   0.658  11.267   0.949
75271W        W40432  33.906  22.262  14.437
75272W        W40433   6.065  25.450  13.462
75273W        W40434  20.135   0.512  13.354
75274W        W40435  21.754  37.497   3.552
75275W        W40436  27.693  29.027  14.285
75276W        W40437  42.077   3.012   2.647
75277W        W40438   6.312  11.255   3.304
75278W        W40439  32.044   8.115   1.226
75279W        W40440   2.946   4.299   0.455
75280W        W40441  41.887  43.371   0.764
75281W        W40442  12.791   5.956  12.019
75282W        W40443  39.792   9.167   1.483
75283W        W40444  16.642   2.341  13.520
75284W        W40445  44.831  22.030  10.494
75285W        W40446   9.498  27.199   1.116
75286W        W40447  36.394  44.253  14.949
75287W        W40448  27.247   1.832   0.991
75288W        W40449   9.633  41.023   4.615
75289W        W40450   3.261  25.745  12.149
75290W        W40451  42.011  24.165  13.957
75291W        W40452  11.824  12.221   4.318
75292W        W40453  43.300  26.877   0.393
75293W        W40454  14.470  44.342  12.426
75294W        W40455  33.603  34.889   2.358
75295W        W40456  43.013  21.098   1.357
75296W        W40457  24.577  26.909  14.422
75297W        W40458   5.272  10.296   3.080
75298W        W40459   6.825  35.098  13.492
75299W        W40460  32.840  43.546   2.874
75300W        W40461  35.580  41.862   4.087
75301W        W40462  27.659  37.424  11.906
75302W        W40463  17.023  10.796  14.659
75303W        W40464  24.198  14.734  11.070
75304W        W40465  32.179  25.450   4.082
75305W        W40466  11.568  29.906   2.043
75306W        W40467  27.616   9.496   2.933
75307W        W40468  42.915  27.153   1.259
75308W        W40469  22.527  13.120  14.810
75309W        W40470  19.165  21.705   0.970
75310W        W40471  36.967  13.596  14.430
75311W        W40472  13.795   4.202   0.664
75312W        W40473  44.636  41.211   1.070
75313W        W40474  15.126  19.556   1.643
75314W        W40475  22.209  13.608  12.610
75315W        W40476  40.980  43.074  12.761
75316W        W40477  31.925  19.449   4.207
75317W        W40478  30.087  32.883  12.960
75318W        W40479  43.442  33.419   0.998
75319W        W40480   7.722  19.950   3.581
75320W        W40481  39.841  25.430   3.165
75321W        W40482  25.914  37.073   3.241
75322W        W40483  15.220  32.540  11.497
75323W        W40484  29.400  44.253   2.877
75324W        W40485  26.977  43.942  11.374
75325W        W40486  22.250  17.045  11.669
75326W        W40487  12.440   2.780   1.247
75327W        W40488  11.426  39.734   2.779
75328W        W40489  10.190   3.499  14.997
75329W        W40490  33.814  18.066   4.447
75330W        W40491  25.142  15.556  10.122
75331W        W40492  18.293  44.943   3.257
75332W        W40493  22.661  17.164   4.854
75333W        W40494   2.747  34.137   4.168
75334W        W40495   6.661   4.883   2.144
75335W        W40496  17.408  38.100   2.886
75336W        W40497   0.002  14.847  13.711
75337W        W40498  10.099  20.180   2.479
75338W        W40499  10.152  42.819  14.714
75339W        W40500  40.307  15.591   4.562
75340W        W40501  33.228  26.514  10.882
75341W        W40502  11.861  18.529  13.507
75342W        W40503  38.392   6.535  11.596
75343W        W40504  42.000  11.152   0.318
75344W        W40505   1.584  34.743   4.478
75345W        W40506  26.526  16.134  10.273
75346W        W40507  11.658  37.019  11.876
75347W        W40508  14.241  12.864   3.916
75348W        W40509  30.592   0.888   4.618
75349W        W40510  22.758  33.446  10.680
75350W        W40511  38.999  37.744   3.801
75351W        W40512  12.132  26.687   3.688
75352W        W40513   8.985  39.983  14.277
75353W        W40514  30.938  18.658   2.539
75354W        W40515  38.867  36.526   1.319
75355W        W40516  25.066  18.777  12.353
75356W        W40517   1.718  32.392   0.462
75357W        W40518  21.070  18.031   2.895
75358W        W40519  29.933  37.896   4.774
75359W        W40520  14.685   7.493  11.712
75360W        W40521  33.063  29.362   3.764
75361W        W40522  15.838  37.902  12.026
75362W        W40523   1.439  17.115  11.959
75363W        W40524  17.156  40.930  12.087
75364W        W40525  32.867  30.542   2.859
75365W        W40526  36.489   4.314   3.100
75366W        W40527  40.998   0.514  12.806
75367W        W40528  35.452  27.211   3.458
75368W        W40529  31.555  23.790  10.621
75369W        W40530  23.600  12.296   2.911
75370W        W40531  27.757   4.077  11.598
75371W        W40532  20.546  26.868  11.180
75372W        W40533  17.583  36.102   4.582
75373W        W40534  17.221  42.846   2.128
75374W        W40535  34.507   8.820   0.085
75375W        W40536   4.369  35.918   4.594
75376W        W40537  43.361  25.112  10.783
75377W        W40538  27.499   7.213   4.429
75378W        W40539  31.115  11.791  14.955
75379W        W40540  39.487   6.733   3.090
75380W        W40541   7.950  29.626  14.806
75381W        W40542  29.937  13.625   0.718
75382W        W40543  22.524  28.314  11.211
75383W        W40544  18.004  36.539   4.000
75384W        W40545  44.695   9.524  13.223
75385W        W40546  27.482   8.957   3.072
75386W        W40547  42.625  36.731   3.790
75387W        W40548  23.947  21.218   3.139
75388W        W40549  34.298  33.483  11.135
75389W        W40550  15.678  38.868   1.865
75390W        W40551  28.478   9.868   0.681
75391W        W40552  24.810  22.207   1.821
75392W        W40553  32.425  37.604   1.864
75393W        W40554  27.929   7.768  10.335
75394W        W40555  40.942  17.306   0.888
75395W        W40556   0.309  19.133   4.402
75396W        W40557  36.095  27.565  10.511
75397W        W40558  42.844  31.371  11.482
75398W        W40559  24.624  22.573  13.445
75399W        W40560   0.312  41.330  10.602
75400W        W40561   3.165   8.110   3.060
75401W        W40562  18.534  29.608   1.299
75402W        W40563   0.902  35.349  14.555
75403W        W40564  10.749  26.785   4.930
75404W        W40565  40.932  41.241  12.469
75405W        W40566  25.778   3.869   0.247
75406W        W40567  29.183  13.946   4.189
75407W        W40568  44.045  15.340   1.406
75408W        W40569  16.435  10.880  14.362
75409W        W40570  43.802  12.289   3.211
75410W        W40571  33.909  17.360  14.529
75411W        W40572  42.247  16.241   0.931
75412W        W40573  16.861   1.582   0.463
75413W        W40574  24.977  30.914  14.414
75414W        W40575   8.409   8.792   2.517
75415W        W40576  33.961  18.157   3.275
75416W        W40577  29.217  18.151  12.381
75417W        W40578   9.183  42.930  11.535
75418W        W40579  11.662  42.250   2.692
75419W        W40580  41.045  11.618  14.835
75420W        W40581   0.871  25.354   5.056
75421W        W40582  17.739  23.547   0.176
75422W        W40583   0.468  10.112  10.222
75423W        W40584  35.391  22.586  12.955
75424W        W40585  28.954  24.308  10.778
75425W        W40586  28.475   0.756  14.891
75426W        W40587  34.858  22.589   3.117
75427W        W40588   3.941  43.738  12.947
75428W        W40589  13.257  41.650  12.917
75429W        W40590  44.029   9.877   0.886
75430W        W40591  24.493  19.322   3.673
75431W        W40592  42.337  44.854   1.831
75432W        W40593  30.004  28.677  10.990
75433W        W40594  11.596  20.695   4.039
75434W        W40595  21.562  21.329   1.944
75435W        W40596  16.003  10.715  13.773
75436W        W40597  38.160   5.237   1.185
75437W        W40598  36.239   0.728   0.491
75438W        W40599  23.666  29.951   2.487
75439W        W40600  24.181  20.281   0.278
75440W        W40601  19.227  38.886   2.360
75441W        W40602  29.232  15.107  14.496
75442W        W40603  21.920  11.211   2.224
75443W        W40604  37.395   1.411  14.471
75444W        W40605  19.608  19.299   2.376
75445W        W40606  12.634  27.658  12.159
75446W        W40607  44.459  43.879   1.899
75447W        W40608  42.135  19.711  11.650
75448W        W40609  39.920  15.228  12.266
75449W        W40610  15.201  30.532   1.193
75450W        W40611   5.004  25.034   2.246
75451W        W40612   7.207   5.687   2.223
75452W        W40613  22.377  17.957   5.192
75453W        W40614   1.063   4.381   0.998
75454W        W40615   9.407   6.155  14.051
75455W        W40616  14.122   6.564  11.834
75456W        W40617  42.326  13.068   4.108
75457W        W40618  42.489  38.950  10.975
75458W        W40619  39.604  14.964  14.496
75459W        W40620  13.616   9.935  14.165
75460W        W40621  34.222  18.121  12.922
75461W        W40622   2.936  35.054  11.924
75462W        W40623  16.052  11.645  14.017
75463W        W40624   1.902  40.458   0.277
75464W        W40625  14.089  38.287  10.623
75465W        W40626  25.242  14.517   3.992
75466W        W40627   1.566  25.564   4.059
75467W        W40628  19.808  12.166  10.691
75468W        W40629   3.410  11.086  11.380
75469W        W40630  26.541   8.645  12.855
75470W        W40631  20.429  11.117   4.431
75471W        W40632  10.686  25.010   1.763
75472W        W40633  25.228  17.509   4.590
75473W        W40634   5.285  15.509   0.726
75474W        W40635   1.303  30.375  13.847
75475W        W40636  39.843   9.379  11.707
75476W        W40637   9.812   4.388   2.777
75477W        W40638  21.657  21.025  12.355
75478W        W40639  18.390  20.909   4.085
75479W        W40640   1.684  26.202   5.161
75480W        W40641  29.093   3.725   3.194
75481W        W40642  26.963  18.088  12.041
75482W        W40643  26.726  22.736  12.632
75483W        W40644  15.210  20.996  10.901
75484W        W40645  24.162  42.975   4.142
75485W        W40646  32.889   7.177   3.465
75486W        W40647  37.522  26.831  12.553
75487W        W40648  31.269  23.215   3.319
75488W        W40649  35.671  17.674   3.551
75489W        W40650  35.572  26.905  11.073
75490W        W40651  44.543  38.817   4.473
75491W        W40652  15.238   5.273  10.464
75492W        W40653  41.039   0.323  14.504
75493W        W40654   6.819  22.487   2.798
75494W        W40655  22.630  12.218   0.866
75495W        W40656  22.875   4.476   4.162
75496W        W40657  23.855   2.824  11.306
75497W        W40658   7.205   6.234   2.685
75498W        W40659   3.006   3.639   1.153
75499W        W40660  29.179  20.165  12.571
75500W        W40661   5.935  37.582   2.638
75501W        W40662  25.861   5.650   0.438
75502W        W40663  10.022  37.695  10.304
75503W        W40664  28.750  32.413  12.976
75504W        W40665  24.705   6.817   1.907
75505W        W40666  28.621  35.053   1.737
75506W        W40667  28.467  41.691   2.369
75507W        W40668  30.016  27.903   1.217
75508W        W40669  35.139   5.730   0.815
75509W        W40670  15.804  31.153  12.986
75510W        W40671   6.841  13.913  13.482
75511W        W40672  23.770  17.282  12.505
75512W        W40673  44.814   8.203  14.432
75513W        W40674   4.241  10.326  11.857
75514W        W40675  22.270   2.785  10.787
75515W        W40676   5.896  26.352   0.684
75516W        W40677  39.975  28.414   1.424
75517W        W40678   5.111  44.613   0.255
75518W        W40679  30.217  36.352   3.731
75519W        W40680  18.638  41.420   3.308
75520W        W40681  29.669   9.153   1.400
75521W        W40682  12.456  11.641  11.198
75522W        W40683  12.356  39.462  12.003
75523W        W40684  39.540  15.209   0.484
75524W        W40685  22.129  34.117   4.031
75525W        W40686  44.728  17.701  12.833
75526W        W40687  25.789  42.391   0.314
75527W        W40688   8.364   7.701  13.745
75528W        W40689  35.936  12.619   2.362
75529W        W40690   2.512  16.592  13.281
75530W        W40691  23.956  23.476   1.710
75531W        W40692  17.487  26.435   4.541
75532W        W40693  19.845  40.950  12.973
75533W        W40694  16.767   2.207   1.864
75534W        W40695  17.399  30.696  10.707
75535W        W40696  38.455  10.520   4.369
75536W        W40697  10.690  27.027   4.478
75537W        W40698  11.182  12.323   3.670
75538W        W40699  12.094  25.552   0.965
75539W        W40700   1.813  10.331   4.582
75540W        W40701  11.766  31.603   4.620
75541W        W40702   7.492   4.416   4.252
75542W        W40703  33.651   3.964   4.185
75543W        W40704  16.196   7.396  10.534
75544W        W40705  38.848   9.349   3.829
75545W        W40706  18.163  25.588  14.943
75546W        W40707  29.029  34.584  13.321
75547W        W40708  19.469  41.324   1.040
75548W        W40709  14.792  14.863  11.971
75549W        W40710  16.463   8.473   1.726
75550W        W40711  37.460   5.309  10.671
75551W        W40712  14.719  16.824   1.164
75552W        W40713  31.514  15.830  11.028
75553W        W40714  16.705  13.239   0.067
75554W        W40715   4.875  23.202  14.390
75555W        W40716  34.072  38.322  13.410
75556W        W40717  22.992  32.606  10.525
75557W        W40718  36.881  33.847   3.297
75558W        W40719  12.207  41.524   1.844
75559W        W40720   5.180  34.570   3.289
75560W        W40721  18.775  34.929  12.040
75561W        W40722  32.028   2.084   3.525
75562W        W40723   3.982  11.175  13.813
75563W        W40724  18.008   7.201  12.831
75564W        W40725   0.784   6.953  11.987
75565W        W40726  19.280  36.405   0.931
75566W        W40727  41.939   2.312   3.766
75567W        W40728  38.961  12.218   0.490
75568W        W40729   9.181  43.082  14.130
75569W        W40730  25.349   1.764  11.123
75570W        W40731  13.117  41.012  13.950
75571W        W40732  34.156  30.956   2.936
75572W        W40733  27.735   8.739  14.980
75573W        W40734  23.999  23.077   1.330
75574W        W40735  17.979  22.567  14.794
75575W        W40736   7.350  17.273   4.291
75576W        W40737  28.421  14.888  13.590
75577W        W40738   6.316  22.887  13.163
75578W        W40739  24.428  31.036  13.310
75579W        W40740  20.836  15.522   0.929
75580W        W40741  30.634  20.177  11.022
75581W        W40742   3.837  35.406   2.931
75582W        W40743   4.248   4.271   1.628
75583W        W40744  12.022   4.996  13.957
75584W        W40745   3.052   1.897   2.396
75585W        W40746  10.379  39.107   3.690
75586W        W40747  35.935  37.875   4.905
75587W        W40748  39.470  18.175   4.627
75588W        W40749  13.471  15.091  12.167
75589W        W40750  13.680  23.935   0.751
75590W        W40751  26.970  36.602  12.606
75591W        W40752  35.387  29.990  12.873
75592W        W40753   0.769  30.640   3.642
75593W        W40754  32.777  26.174  14.998
75594W        W40755  24.971  27.562   3.943
75595W        W40756  30.444  44.719   2.735
75596W        W40757   0.463   7.458   3.247
75597W        W40758  20.785   1.812  12.450
75598W        W40759  11.599  15.539   2.364
75599W        W40760  10.522  14.088  13.491
75600W        W40761   4.909   8.357   1.742
75601W        W40762  26.940  22.738   4.189
75602W        W40763   7.462  15.356   3.394
75603W        W40764  11.613  18.623   1.121
75604W        W40765  42.933  36.518  13.052
75605W        W40766  16.792  25.617  13.379
75606W        W40767  44.764  41.849  13.339
75607W        W40768  32.566   6.902   0.230
75608W        W40769  28.043  29.602  10.466
75609W        W40770  23.774  19.536  13.598
75610W        W40771  28.336  39.429  11.572
75611W        W40772  10.270  20.838  13.011
75612W        W40773  10.150   0.693  14.436
75613W        W40774  24.436  38.699   2.253
75614W        W40775   6.797  21.885  13.951
75615W        W40776  44.726  38.160   0.286
75616W        W40777  37.344  23.022  10.763
75617W        W40778  24.552  31.550   3.933
75618W        W40779   9.392  44.998  14.720
75619W        W40780  39.610  37.929   1.192
75620W        W40781  40.455  16.424   0.123
75621W        W40782  32.697  19.198  14.098
75622W        W40783   4.178  39.855  10.754
75623W        W40784  11.337  34.115  13.430
75624W        W40785  33.563  36.965  14.531
75625W        W40786  14.831   3.450   2.444
75626W        W40787  29.757  24.843  12.643
75627W        W40788  42.009   6.317  13.779
75628W        W40789   7.199   3.772   2.313
75629W        W40790  37.683   6.410   1.285
75630W        W40791  40.921  24.727   0.894
75631W        W40792  10.111  30.458   4.186
75632W        W40793   9.630  40.378  14.830
75633W        W40794  29.199  17.653  11.011
75634W        W40795  21.734   5.108  10.613
75635W        W40796   2.881  40.797   0.001
75636W        W40797  40.420  15.615  14.399
75637W        W40798  25.931  33.702  11.463
75638W        W40799  27.351  36.995   2.832
75639W        W40800  18.113  16.746   2.238
75640W        W40801  20.158  10.970   2.689
75641W        W40802   3.696  15.003   2.841
75642W        W40803   0.896   1.701   4.938
75643W        W40804  37.349  35.435   4.384
75644W        W40805  29.150  43.394   2.729
75645W        W40806  44.799  42.345   4.163
75646W        W40807   5.395  37.802   1.724
75647W        W40808  13.271  27.577   2.726
75648W        W40809   7.456  37.084   3.060
75649W        W40810  31.598   6.875  14.792
75650W        W40811  28.010  30.033  10.763
75651W        W40812  11.546  20.578   3.092
75652W        W40813  20.179  10.103   4.948
75653W        W40814   4.892  16.700  13.179
75654W        W40815   3.471   7.690   2.904
75655W        W40816  27.813  18.199   3.317
75656W        W40817  35.121  15.273   1.215
75657W        W40818  10.069   3.353  12.874
75658W        W40819  42.973  12.148  10.674
75659W        W40820  12.167  29.468   0.267
75660W        W40821   1.968   8.899   4.070
75661W        W40822   3.437  25.907   0.761
75662W        W40823   2.616  17.250   9.687
75663W        W40824   5.055  14.640   2.785
75664W        W40825  21.799  14.836   4.072
75665W        W40826   3.856   1.644  13.877
75666W        W40827   5.784  26.014  14.060
75667W        W40828   9.180  25.215   2.253
75668W        W40829  14.172   8.639  10.621
75669W        W40830  40.623  10.297   4.190
75670W        W40831  27.274  34.087   2.641
75671W        W40832  36.944  16.479  13.955
75672W        W40833  22.157   6.243  13.074
75673W        W40834  11.285  41.042   3.130
75674W        W40835  17.569  15.048   2.753
75675W        W40836   8.697  30.161   2.205
75676W        W40837   1.770  25.307  10.531
75677W        W40838   4.352  15.786  12.947
75678W        W40839  19.797   0.675  12.668
75679W        W40840  10.816  37.924  12.384
75680W        W40841  27.762  33.086  15.000
75681W        W40842  22.728  13.870   0.390
75682W        W40843   3.304  33.067  10.290
75683W        W40844  38.978  23.506  10.729
75684W        W40845  12.720  42.983   0.494
75685W        W40846  21.694  29.999   2.665
75686W        W40847  21.772  37.959  12.639
75687W        W40848  18.060  35.447   0.462
75688W        W40849  34.343  36.273   4.207
75689W        W40850  11.680  44.633   0.710
75690W        W40851   6.214  10.753   3.330
75691W        W40852  12.080  28.068   4.502
75692W        W40853  21.540  39.555   0.332
75693W        W40854  34.799  15.067  12.168
75694W        W40855  34.431  21.387   2.060
75695W        W40856  17.694   9.306   2.201
75696W        W40857  26.406  37.088   1.631
75697W        W40858  38.933  30.436   3.939
75698W        W40859  33.915   6.743   4.288
75699W        W40860  22.844  27.576  13.177
75700W        W40861  22.112  17.077   2.211
75701W        W40862  18.304  13.994  11.160
75702W        W40863  10.605  10.719  11.458
75703W        W40864  14.497  39.029   4.471
75704W        W40865   4.774  23.007   0.767
75705W        W40866   7.679   8.528  11.519
75706W        W40867  11.048   8.745  12.092
75707W        W40868  25.813  41.534   2.726
75708W        W40869  43.143  16.623  12.979
75709W        W40870  21.861  38.564  11.038
75710W        W40871  42.859  43.886   0.409
75711W        W40872  36.442   1.360   4.125
75712W        W40873   4.232  21.214   0.935
75713W        W40874  25.995  22.756  13.789
75714W        W40875  25.931  44.498   4.347
75715W        W40876  21.662  16.785   2.575
75716W        W40877  37.357  37.660  13.366
75717W        W40878  15.802  15.555   0.664
75718W        W40879  33.414  17.316   2.744
75719W        W40880  35.879  16.711  11.936
75720W        W40881   2.365   8.124  10.749
75721W        W40882  42.937  42.941   0.365
75722W        W40883  20.120  44.793  11.479
75723W        W40884  30.518   5.014  14.000
75724W        W40885  34.003  20.513  13.524
75725W        W40886  13.083   4.389   4.423
75726W        W40887  36.392   3.927   3.440
75727W        W40888   2.625  15.636   4.200
75728W        W40889  16.355  24.041   0.381
75729W        W40890  22.683  41.883   2.448
75730W        W40891  43.487   5.273   2.282
75731W        W40892  37.857  29.106   1.938
75732W        W40893   1.944  37.767  12.056
75733W        W40894  39.611   2.957   0.875
75734W        W40895  30.648  20.052  11.895
75735W        W40896  34.357  34.942   2.254
75736W        W40897  20.132  14.402  11.741
75737W        W40898  20.947   2.823  11.217
75738W        W40899  10.219  19.809   1.618
75739W        W40900  32.502  25.761  13.608
75740W        W40901  15.647  20.318  13.054
75741W        W40902  29.688  28.101  13.315
75742W        W40903  41.801  22.767   2.375
75743W        W40904  38.328   7.784   4.173
75744W        W40905  30.393  15.516  14.942
75745W        W40906  25.920  17.449  13.931
75746W        W40907   1.939  16.677   4.468
75747W        W40908  28.458  39.608  12.465
75748W        W40909  19.598  35.010  13.204
75749W        W40910  31.350  10.158  13.894
75750W        W40911  16.488  36.163   2.354
75751W        W40912  12.674  37.123   0.277
75752W        W40913  20.182  39.864   2.366
75753W        W40914   0.367   6.748   4.049
75754W        W40915  33.024  28.403  13.896
75755W        W40916  37.244  25.385   4.990
75756W        W40917  27.176   8.358  12.108
75757W        W40918  25.066  33.981   1.485
75758W        W40919  25.427   9.271  14.354
75759W        W40920  28.254  38.630   4.284
75760W        W40921  41.410  43.204   4.532
75761W        W40922   8.321  41.831   3.327
75762W        W40923  12.841  33.496   4.098
75763W        W40924  41.088  22.251  11.311
75764W        W40925  38.853  26.022  12.654
75765W        W40926  15.385  36.615   3.269
75766W        W40927  13.566  11.657  10.386
75767W        W40928  39.140   1.901   3.642
75768W        W40929  30.934  39.632   0.187
75769W        W40930  34.972  22.037   3.755
75770W        W40931  43.220  10.560  13.023
75771W        W40932  12.932  43.886   4.663
75772W        W40933  43.300  39.536   1.172
75773W        W40934  39.403  23.102  13.099
75774W        W40935  17.513  21.953  11.188
75775W        W40936  43.742  10.939   1.967
75776W        W40937  44.789  44.332   3.646
75777W        W40938  18.334  23.547   2.788
75778W        W40939  37.834   6.797   4.087
75779W        W40940  35.379  28.651  13.132
75780W        W40941   3.511  21.623  14.772
75781W        W40942  12.274   0.721  14.860
75782W        W40943  39.824  27.472   0.383
75783W        W40944  17.917  17.244  12.199
75784W        W40945  33.120  37.116   3.836
75785W        W40946   5.857   3.707   4.050
75786W        W40947  24.096  17.070   0.646
75787W        W40948  25.472  31.560  12.005
75788W        W40949  36.124  25.593  14.912
75789W        W40950  31.679   4.994  14.444
75790W        W40951  28.559  36.889   0.994
75791W        W40952  23.433  43.547   1.409
75792W        W40953   3.941  24.544  11.096
75793W        W40954  41.810  10.391  12.975
75794W        W40955  18.194  20.413   0.631
75795W        W40956   1.382  27.691  11.903
75796W        W40957  36.367   4.742   2.171
75797W        W40958  41.984  26.244  10.517
75798W        W40959  22.222  15.131   0.517
75799W        W40960  15.644  36.737  13.768
75800W        W40961  39.130   4.823  11.610
75801W        W40962   5.759  40.345  12.061
75802W        W40963  16.529  22.098  11.166
75803W        W40964   1.930  39.529   3.208
75804W        W40965  28.898  39.334  12.461
75805W        W40966  29.450  26.055   3.265
75806W        W40967   7.040   2.771  11.134
75807W        W40968  12.745   7.292   2.268
75808W        W40969  44.706   1.525  13.572
75809W        W40970  32.624  40.060  12.129
75810W        W40971   0.840  42.459  13.967
75811W        W40972  21.040  39.569   0.431
75812W        W40973  29.649  30.476   3.669
75813W        W40974   3.296  27.123  14.833
75814W        W40975   2.708  36.145  11.100
75815W        W40976   4.727  18.724   1.878
75816W        W40977  17.888   6.110  14.126
75817W        W40978  18.856   3.872  10.550
75818W        W40979  25.866  22.707  12.443
75819W        W40980  15.574  39.382   3.152
75820W        W40981   8.216   3.211   1.045
75821W        W40982  19.235  39.834   2.870
75822W        W40983  18.031  29.004  11.096
75823W        W40984   5.198  22.083   0.044
75824W        W40985  20.552   2.020   3.210
75825W        W40986  39.795  44.120   2.934
75826W        W40987  34.856  19.866  12.036
75827W        W40988  44.380   0.036  14.108
75828W        W40989   1.964  40.814   2.830
75829W        W40990  20.656  35.886  11.577
75830W        W40991   7.795  38.290   1.387
75831W        W40992  39.414   6.323   1.750
75832W        W40993  27.902  11.284  13.304
75833W        W40994   3.135  25.526  12.593
75834W        W40995  44.555  39.572   2.306
75835W        W40996   2.246  35.065  10.690
75836W        W40997  23.979  17.425   0.291
75837W        W40998  23.965  35.480  14.947
75838W        W40999  14.072  33.102   3.748
75839W        W41000  32.253  37.696  10.715
75840W        W41001  17.688  24.587  14.917
75841W        W41002  18.017  19.494  11.890
75842W        W41003   8.073  27.407  12.425
75843W        W41004  31.379  33.713  11.534
75844W        W41005  11.579  39.019   4.057
75845W        W41006  23.508  40.304   4.472
75846W        W41007  41.446  27.259   1.625
75847W        W41008  41.885  16.379  12.808
75848W        W41009  26.195  41.699   1.239
75849W        W41010  21.056  10.997  12.471
75850W        W41011  32.937  30.064   0.837
75851W        W41012  34.996  20.579   3.196
75852W        W41013   1.844  15.646   4.485
75853W        W41014  36.407  28.687   4.125
75854W        W41015  35.588   4.546   1.252
75855W        W41016  33.060  10.089  12.412
75856W        W41017   2.942  26.390  12.407
75857W        W41018   4.183  24.418   3.754
75858W        W41019  44.428  30.091  13.931
75859W        W41020  30.668  29.358   3.652
75860W        W41021  28.738  19.438  13.187
75861W        W41022  16.764  27.241  12.121
75862W        W41023   4.286  24.943   0.783
75863W        W41024  42.586  42.986  14.485
75864W        W41025  28.579  34.982   3.125
75865W        W41026   4.364  23.196   2.699
75866W        W41027  20.290  10.929  14.297
75867W        W41028  42.286  36.440  13.891
75868W        W41029  20.249  36.060  10.641
75869W        W41030  23.730  31.040   1.287
75870W        W41031   9.523  41.537  13.471
75871W        W41032   4.708  21.045   0.260
75872W        W41033   0.229  10.257  10.655
75873W        W41034  24.366  36.767   0.954
75874W        W41035  44.934  22.713   0.465
75875W        W41036  38.427  36.214   1.351
75876W        W41037  24.858  36.757   0.788
75877W        W41038  43.855   3.226   4.967
75878W        W41039  30.676   7.635   0.256
75879W        W41040  22.156  20.278  12.873
75880W        W41041  29.214  14.533   1.398
75881W        W41042   5.099  15.675  12.459
75882W        W41043  31.137   5.187  13.442
75883W        W41044  38.343  39.949   4.572
75884W        W41045   0.786  44.860   3.124
75885W        W41046  26.056  17.835   4.180
75886W        W41047  28.640  15.988   3.665
75887W        W41048  31.472  29.016   3.021
75888W        W41049   9.334  28.634   3.574
75889W        W41050   1.328  14.797  11.170
75890W        W41051  28.918  24.221   3.086
75891W        W41052  42.444  34.101  10.540
75892W        W41053  39.331  35.936   1.416
75893W        W41054  40.884   0.815   1.899
75894W        W41055  24.119  13.554  13.786
75895W        W41056   6.441  10.288   0.769
75896W        W41057  18.687  41.126  10.584
75897W        W41058  21.504  43.144   0.221
75898W        W41059  33.058  24.442  13.394
75899W        W41060  16.599  11.275   1.384
75900W        W41061  17.553  28.524  14.581
75901W        W41062  35.615  10.665   1.945
75902W        W41063  38.061  15.505   2.729
75903W        W41064   9.143  39.349  13.316
75904W        W41065  34.987  17.183  13.822
75905W        W41066  17.923  41.061   5.416
75906W        W41067  26.305  32.496   2.422
75907W        W41068  41.567   2.687  12.413
75908W        W41069  42.076   3.649   0.886
75909W        W41070  29.659  40.826  11.117
75910W        W41071  34.802  33.280   2.849
75911W        W41072  13.669  37.729  13.890
75912W        W41073  27.623  41.823  12.197
75913W        W41074  43.334   4.342   2.403
75914W        W41075   0.003  25.674  13.106
75915W        W41076   0.825  43.587  11.431
75916W        W41077  28.449  32.169   3.273
75917W        W41078  27.674  14.610  12.946
75918W        W41079  43.597   4.800   0.303
75919W        W41080  17.503   5.540  14.572
75920W        W41081  15.654  11.888  13.342
75921W        W41082  27.012  26.576  10.795
75922W        W41083  29.397   7.515  12.606
75923W        W41084   1.462  10.253  14.856
75924W        W41085  19.693  25.250   2.677
75925W        W41086  28.550  11.346   1.770
75926W        W41087  25.121  18.070   2.730
75927W        W41088  24.085   1.452  14.487
75928W        W41089   4.719  11.117   3.562
75929W        W41090   4.641  17.497   4.191
75930W        W41091  40.753   5.776   5.001
75931W        W41092  40.466  35.460   0.906
75932W        W41093  28.202   2.216  10.723
75933W        W41094   3.969   3.376  10.677
75934W        W41095  14.617  41.906  12.789
75935W        W41096  27.380  27.541  12.947
75936W        W41097  17.120  18.657  10.688
75937W        W41098  15.674  31.897  12.492
75938W        W41099   4.687   8.809   3.755
75939W        W41100  16.578  37.870  11.518
75940W        W41101  26.937  21.227   4.854
75941W        W41102  37.916  10.326  11.994
75942W        W41103  30.950   1.228   3.270
75943W        W41104  19.791  27.642   0.468
75944W        W41105   1.506   2.921   2.712
75945W        W41106  13.950  26.178   1.810
75946W        W41107  33.721  10.297   4.218
75947W        W41108  29.717  14.799  12.026
75948W        W41109  32.049  29.150  14.497
75949W        W41110  16.154  16.065  11.676
75950W        W41111  18.196  34.675  10.617
75951W        W41112  39.005  13.400   4.507
75952W        W41113  33.352  21.376  11.128
75953W        W41114  43.763   8.195   3.789
75954W        W41115   9.110  40.914   4.672
75955W        W41116  44.559   3.289  14.642
75956W        W41117  39.507  38.761  11.958
75957W        W41118   1.289  20.940  13.564
75958W        W41119  11.794  37.776   1.814
75959W        W41120  38.850  42.094   2.017
75960W        W41121  28.954  43.875   2.653
75961W        W41122   5.686  32.627   4.496
75962W        W41123  21.638  29.538  14.503
75963W        W41124  24.024  14.374  13.430
75964W        W41125  39.828  22.893  10.963
75965W        W41126   3.507  41.139   0.238
75966W        W41127  24.752   5.258   4.114
75967W        W41128  29.478  23.257  14.911
75968W        W41129  41.882  20.173  11.708
75969W        W41130  10.117  27.685   2.868
75970W        W41131  12.931   6.297  11.405
75971W        W41132   4.864  40.967   0.786
75972W        W41133  41.289  20.533   3.174
75973W        W41134   6.241   6.702   1.962
75974W        W41135  29.856  28.988  10.075
75975W        W41136  14.694  35.709  11.233
75976W        W41137  28.445  38.821  11.193
75977W        W41138  41.690  36.837  11.869
75978W        W41139  23.602   1.258  14.576
75979W        W41140  34.669  27.838  10.807
75980W        W41141  22.061  20.778   0.802
75981W        W41142  36.937  43.208   3.159
75982W        W41143  15.358  12.632   2.888
75983W        W41144   2.217   3.415  14.939
75984W        W41145  29.787  14.042   1.785
75985W        W41146  22.139  26.025  13.549
75986W        W41147  22.891  19.850  13.822
75987W        W41148  22.680  27.654   3.849
75988W        W41149  24.918  39.407  11.721
75989W        W41150  17.792  26.976   2.101
75990W        W41151  36.854  16.339  12.891
75991W        W41152  12.617  29.436   4.653
75992W        W41153   4.434  35.015   3.407
75993W        W41154  30.375   9.584  11.637
75994W        W41155   2.920  37.362  11.074
75995W        W41156  35.862  25.161  14.885
75996W        W41157  39.042  23.670  14.842
75997W        W41158  37.703  24.053   4.915
75998W        W41159   4.796  28.506  12.075
75999W        W41160  39.100   6.299   0.389
76000W        W41161   7.795  44.454  14.265
76001W        W41162  25.673  13.600   1.791
76002W        W41163   8.346   1.411   3.630
76003W        W41164  14.568  21.672   4.604
76004W        W41165  40.579   1.883   1.554
76005W        W41166  18.591  37.389  11.195
76006W        W41167  10.869   8.022   1.368
76007W        W41168  35.462  31.537   2.762
76008W        W41169  20.855   3.416   3.717
76009W        W41170  21.498  34.890  13.783
76010W        W41171   9.780  18.264   1.238
76011W        W41172  18.103  13.100  13.965
76012W        W41173  29.188  35.872  14.897
76013W        W41174  15.304  12.121   2.905
76014W        W41175  28.686  24.710   0.754
76015W        W41176  29.531  28.227  10.548
76016W        W41177  36.837  13.331   3.183
76017W        W41178  10.422  32.661   0.536
76018W        W41179  13.155  10.963  11.600
76019W        W41180  11.764   0.546  13.003
76020W        W41181  15.854  22.352  13.888
76021W        W41182  17.260  12.078  12.873
76022W        W41183   7.079  13.739  13.008
76023W        W41184  12.434  38.848  11.124
76024W        W41185  39.663   6.580  14.563
76025W        W41186   8.045  26.098   1.233
76026W        W41187   0.653  12.854  14.062
76027W        W41188  24.206  27.621   4.640
76028W        W41189  35.067  42.754   0.947
76029W        W41190  14.227   0.539  12.944
76030W        W41191  14.114  27.371   4.183
76031W        W41192  38.475  20.568  14.383
76032W        W41193  28.610  44.472   0.457
76033W        W41194  22.114  19.213   1.224
76034W        W41195  20.084  39.757   4.645
76035W        W41196  33.394  12.146   4.020
76036W        W41197  40.246   6.757  13.312
76037W        W41198   7.209  18.568  13.904
76038W        W41199  43.726  43.049   2.735
76039W        W41200   6.148  37.443   4.157
76040W        W41201  13.987  34.590   3.374
76041W        W41202  18.231  23.760   4.752
76042W        W41203  14.207  10.735  13.843
76043W        W41204  24.495  26.572  11.954
76044W        W41205  19.144  20.307   0.171
76045W        W41206  17.264  43.757  13.233
76046W        W41207  43.456  18.251   0.863
76047W        W41208  34.102  30.153  12.654
76048W        W41209  23.046  20.725  10.301
76049W        W41210  42.315  37.426   5.014
76050W        W41211   1.876  17.072  11.056
76051W        W41212  26.725   3.301  11.251
76052W        W41213  10.236  14.074   1.944
76053W        W41214  26.580   4.388   4.512
76054W        W41215   0.437  10.265  14.785
76055W        W41216  21.104  38.804  11.467
76056W        W41217   7.688  31.266  11.462
76057W        W41218  29.421  21.959   3.289
76058W        W41219  16.156   3.889   4.514
76059W        W41220   3.379  28.445   1.142
76060W        W41221  14.522   6.265  14.007
76061W        W41222  32.803  15.731   1.944
76062W        W41223  34.913  19.270   1.585
76063W        W41224  24.463  40.000  13.431
76064W        W41225  25.822  14.098  10.772
76065W        W41226  21.151   8.937  14.427
76066W        W41227   7.742  42.524   1.832
76067W        W41228  17.538  19.047   3.143
76068W        W41229  38.959  28.418   0.920
76069W        W41230   5.176  32.433  14.454
76070W        W41231  30.470  10.274   3.587
76071W        W41232  19.847  35.971  12.159
76072W        W41233  20.561  10.841  12.119
76073W        W41234  30.591  39.308  11.475
76074W        W41235  25.663  31.373   2.961
76075W        W41236   6.204  12.429  12.905
76076W        W41237  23.740  35.778  12.896
76077W        W41238  25.598  11.120   2.183
76078W        W41239   7.630  17.325   2.872
76079W        W41240  30.417   2.484  13.904
76080W        W41241   6.847  40.841   1.835
76081W        W41242  20.038  22.657   0.780
76082W        W41243  39.358  23.286   0.070
76083W        W41244  23.791  39.406  13.899
76084W        W41245  11.613  27.886   3.630
76085W        W41246  34.562  40.094  14.321
76086W        W41247  13.319  36.152   1.680
76087W        W41248   1.301  26.458   1.247
76088W        W41249  31.926   0.398   4.618
76089W        W41250  14.301  28.544  12.063
76090W        W41251   9.563  12.804  13.827
76091W        W41252  27.071   2.132   2.384
76092W        W41253  39.430  31.960   3.976
76093W        W41254  21.566  24.237  12.526
76094W        W41255  27.506  31.829  14.487
76095W        W41256   6.373  43.417  11.948
76096W        W41257  39.586  44.402   2.208
76097W        W41258  41.008  32.745   0.467
76098W        W41259  27.057  42.863  11.673
76099W        W41260  14.992  36.614   1.335
76100W        W41261   7.074  29.526  12.363
76101W        W41262  10.557   0.845   0.260
76102W        W41263  22.693   9.662  13.350
76103W        W41264  21.681  12.526  11.900
76104W        W41265   5.464  25.504   3.244
76105W        W41266  13.628  44.646   1.988
76106W        W41267   9.153  28.204  13.386
76107W        W41268  18.694  32.878   3.391
76108W        W41269   1.198  26.442  14.805
76109W        W41270  11.980   6.099   0.028
76110W        W41271  18.603  21.901   0.833
76111W        W41272  43.678  14.135  10.273
76112W        W41273  10.352  26.111  12.024
76113W        W41274  19.057  17.074  13.798
76114W        W41275  27.854  30.945   2.670
76115W        W41276  33.498  28.639  13.094
76116W        W41277  16.633   1.808  14.570
76117W        W41278   6.278   1.899  10.144
76118W        W41279   7.412   5.179  14.847
76119W        W41280  10.196   3.872   3.423
76120W        W41281  33.800   5.787  12.957
76121W        W41282  28.473  18.177   1.281
76122W        W41283  39.536  17.782   2.663
76123W        W41284  40.355  21.635   3.204
76124W        W41285  21.855  31.141  12.905
76125W        W41286   2.264  11.175  11.404
76126W        W41287  35.923  23.293   1.257
76127W        W41288  24.505  30.054  12.715
76128W        W41289  31.445  18.730  13.606
76129W        W41290  25.168  28.543  14.832
76130W        W41291  44.407  26.493   2.863
76131W        W41292   4.510  29.367   1.915
76132W        W41293   4.493   2.681  14.810
76133W        W41294  15.235   1.575  11.629
76134W        W41295   2.054  38.304  12.063
76135W        W41296  18.208   8.711   5.042
76136W        W41297  32.460  24.813   0.183
76137W        W41298  24.591  19.750  14.436
76138W        W41299  22.454  36.366  14.967
76139W        W41300  26.586  24.168  10.184
76140W        W41301  10.417  41.441  11.980
76141W        W41302   0.351  15.225   1.881
76142W        W41303   5.867  41.641   2.780
76143W        W41304  17.777  26.065  11.157
76144W        W41305  21.159  20.705   3.273
76145W        W41306  11.705   1.240  14.124
76146W        W41307  16.934   6.615  10.770
76147W        W41308  29.417  42.986   4.145
76148W        W41309  15.612  21.400  14.733
76149W        W41310  34.976  39.392   3.139
76150W        W41311  10.558  34.935   3.256
76151W        W41312  31.625  11.146  12.216
76152W        W41313  40.294  37.041   0.392
76153W        W41314  40.914  13.723   1.951
76154W        W41315   1.656  36.096  12.446
76155W        W41316  32.289  41.766  14.444
76156W        W41317  43.231  18.830  14.257
76157W        W41318  32.504  42.806  13.642
76158W        W41319  35.890  36.404  12.190
76159W        W41320   2.512   5.704   2.305
76160W        W41321  21.290   7.430  14.412
76161W        W41322  36.056  28.046  10.747
76162W        W41323  41.938  36.527  14.776
76163W        W41324   1.780  44.346   1.802
76164W        W41325   1.281  35.200  14.221
76165W        W41326  34.188  13.281   4.769
76166W        W41327  12.180  30.546   1.276
76167W        W41328   9.662  33.438  14.471
76168W        W41329   0.430  16.662   3.207
76169W        W41330  39.778   2.292  14.861
76170W        W41331  27.180  29.094  13.340
76171W        W41332  28.656  36.431   1.886
76172W        W41333   3.928  14.828   3.298
76173W        W41334  25.983  30.040   0.490
76174W        W41335  31.193  20.094  14.838
76175W        W41336  29.454  15.943   2.816
76176W        W41337  11.080  31.095   2.748
76177W        W41338  34.509  18.571   2.626
76178W        W41339  37.232  21.190  12.025
76179W        W41340   0.380   5.440   3.658
76180W        W41341  15.486   9.762  12.661
76181W        W41342  43.302  36.576   0.788
76182W        W41343   6.197  42.427   3.297
76183W        W41344  33.821   6.808  13.796
76184W        W41345   3.887   6.812  11.895
76185W        W41346  25.099  33.039   1.377
76186W        W41347  40.263   6.080  11.605
76187W        W41348  35.662  24.623  12.776
76188W        W41349  20.957   4.858   4.005
76189W        W41350  16.332  27.965  10.509
76190W        W41351  34.144  41.828   0.704
76191W        W41352  41.309   6.645  14.921
76192W        W41353  33.451  27.513   4.588
76193W        W41354  27.031  43.346   0.407
76194W        W41355  27.400  12.128  12.127
76195W        W41356  19.691  37.510   1.162
76196W        W41357   8.835   6.299  14.998
76197W        W41358  35.519   3.322   3.292
76198W        W41359  28.859   3.256   3.259
76199W        W41360  43.502  43.779  10.656
76200W        W41361  33.110   1.728   1.643
76201W        W41362  15.496  32.177   4.546
76202W        W41363   8.588  36.946  12.477
76203W        W41364   6.612   6.439  14.932
76204W        W41365  33.929  28.127  10.521
76205W        W41366  29.377   6.104  10.271
76206W        W41367   8.139  28.585   3.207
76207W        W41368   9.403   6.949  14.730
76208W        W41369  12.289  20.684   0.729
76209W        W41370  12.289  37.007   3.890
76210W        W41371  15.399  34.475   2.316
76211W        W41372  33.873  17.359   1.405
76212W        W41373  30.949  27.935   3.097
76213W        W41374  35.106  11.090  12.032
76214W        W41375  44.245  15.845  11.537
76215W        W41376  37.494  27.996   1.128
76216W        W41377  33.113  31.875  14.218
76217W        W41378   3.337   0.825   0.054
76218W        W41379   0.331  29.665   3.526
76219W        W41380  29.906  31.905  14.526
76220W        W41381  28.192  39.644  12.917
76221W        W41382  10.093  34.711   1.347
76222W        W41383  32.551  29.391  11.460
76223W        W41384  28.125  11.305   2.101
76224W        W41385  43.697  14.638  12.416
76225W        W41386  20.554  30.679  11.151
76226W        W41387  32.508  35.663  14.918
76227W        W41388  16.070  29.892   1.336
76228W        W41389  19.387  44.248   4.553
76229W        W41390  20.641   0.206  12.966
76230W        W41391  43.343  44.485  11.057
76231W        W41392  19.105  34.901   2.344
76232W        W41393  43.944  42.735  13.085
76233W        W41394   4.865  24.344  13.787
76234W        W41395  17.254  43.813  10.755
76235W        W41396  31.912   6.755  12.948
76236W        W41397  39.780  16.185  14.896
76237W        W41398   7.222  19.940   0.407
76238W        W41399  28.668  20.279  11.673
76239W        W41400  32.035   8.258   0.706
76240W        W41401   9.677  39.406  11.909
76241W        W41402   5.178  39.913  11.142
76242W        W41403  18.991   2.926  10.961
76243W        W41404  28.224  12.334   2.578
76244W        W41405  25.463  36.771  10.199
76245W        W41406   1.633  35.129  13.857
76246W        W41407  38.469  25.771  12.436
76247W        W41408   0.353   0.871  12.318
76248W        W41409  23.637  23.923   4.561
76249W        W41410  44.371   3.202  13.796
76250W        W41411  20.278  20.497   3.347
76251W        W41412  37.839  29.056   3.287
76252W        W41413  16.917  41.156   3.318
76253W        W41414  40.724   3.480  11.118
76254W        W41415  43.435  11.560  13.047
76255W        W41416  12.280  40.012  11.963
76256W        W41417  18.807  44.123   4.986
76257W        W41418  18.309  28.115  12.482
76258W        W41419   6.130  32.318  14.493
76259W        W41420  37.722  10.672   1.313
76260W        W41421  43.632  40.254   9.885
76261W        W41422  15.763  44.529   4.087
76262W        W41423  36.125  13.518  11.048
76263W        W41424  18.758   4.341  10.807
76264W        W41425  32.585  20.899  12.116
76265W        W41426  20.674  42.389   5.060
76266W        W41427   8.913  13.604   3.640
76267W        W41428  34.943  11.206  14.869
76268W        W41429   0.462  11.664  13.154
76269W        W41430  37.930  25.111   4.586
76270W        W41431  14.526  37.851  10.665
76271W        W41432   4.201  12.220  11.145
76272W        W41433   4.878  29.226  12.517
76273W        W41434  17.814   1.756  12.421
76274W        W41435  43.229   7.768  10.488
76275W        W41436   8.427   0.252  12.580
76276W        W41437  35.416  40.067  14.880
76277W        W41438  36.676  23.167   0.961
76278W        W41439  24.953   3.778   0.694
76279W        W41440   2.709  20.537  11.118
76280W        W41441  30.260   1.678   1.695
76281W        W41442   4.011  35.505  11.619
76282W        W41443   6.690  11.341   2.828
76283W        W41444  19.279  10.878  11.618
76284W        W41445  13.678  28.141   4.259
76285W        W41446  29.675   0.847  11.699
76286W        W41447  18.001   9.223  11.090
76287W        W41448  23.126  27.493  11.182
76288W        W41449   1.903   2.784   1.073
76289W        W41450  14.098  28.891   3.216
76290W        W41451   4.439   2.750  13.775
76291W        W41452  20.568   1.162   0.981
76292W        W41453  42.085  12.643   4.277
76293W        W41454  25.260  21.815   3.106
76294W        W41455  26.806  38.395   2.210
76295W        W41456  38.191   0.923  11.058
76296W        W41457  10.306   1.813   1.761
76297W        W41458   7.187  34.624   2.270
76298W        W41459  28.691  27.726   3.706
76299W        W41460   2.263  35.157  14.821
76300W        W41461   1.825  22.211   3.999
76301W        W41462  26.434   5.593   0.318
76302W        W41463  32.489   1.318   3.753
76303W        W41464  14.914  13.361  11.942
76304W        W41465  34.206  42.049   3.371
76305W        W41466  18.983  19.261  11.583
76306W        W41467  14.576   6.187  13.495
76307W        W41468  42.360  12.488   1.139
76308W        W41469   3.457  16.503  13.696
76309W        W41470  17.179  30.449  10.289
76310W        W41471   3.733  39.303   3.232
76311W        W41472  14.786  38.441  12.545
76312W        W41473  40.280  32.488  12.482
76313W        W41474  35.764  16.188  13.631
76314W        W41475  22.661   1.857  10.675
76315W        W41476  43.874  36.554  12.626
76316W        W41477  16.757  37.618   3.290
76317W        W41478   2.330  23.206  14.495
76318W        W41479  44.980  23.008   4.067
76319W        W41480   7.720   4.685  12.155
76320W        W41481  11.780   3.406   4.773
76321W        W41482   6.025  16.064  12.116
76322W        W41483  39.833  33.009   1.697
76323W        W41484   5.163  41.932  13.950
76324W        W41485  30.117  44.519  11.040
76325W        W41486  36.587  35.247  11.936
76326W        W41487   2.967   3.832  13.825
76327W        W41488   9.692  17.134  11.358
76328W        W41489  18.231  18.000   3.653
76329W        W41490   8.749  25.316  14.446
76330W        W41491  19.565  31.422  14.510
76331W        W41492  22.591   6.334   2.813
76332W        W41493   2.297  27.612  14.487
76333W        W41494  16.766  40.603   0.692
76334W        W41495  19.735   5.296   2.609
76335W        W41496  10.650  35.425  13.017
76336W        W41497  31.161  22.260  12.986
76337W        W41498  40.549  39.507  10.730
76338W        W41499  14.075  32.568  10.675
76339W        W41500   9.766  35.072   1.196
76340W        W41501   6.744  33.367  12.407
76341W        W41502  28.092  16.573   1.668
76342W        W41503  21.992  39.558  14.516
76343W        W41504   6.158  34.831   0.441
76344W        W41505   6.824  14.501  14.330
76345W        W41506  28.734  18.552   4.320
76346W        W41507  27.048  32.966  12.798
76347W        W41508   2.257  26.757  11.864
76348W        W41509  43.091  43.713  13.204
76349W        W41510  13.494  30.925   0.907
76350W        W41511  43.358  25.169   3.261
76351W        W41512  13.187   6.200   3.016
76352W        W41513  44.347  11.503   1.363
76353W        W41514  31.888  14.765  12.469
76354W        W41515   0.540  30.152   3.677
76355W        W41516  32.042  26.205  10.861
76356W        W41517  33.633  17.188   0.989
76357W        W41518  34.735  19.469   4.121
76358W        W41519   8.959  20.233  13.092
76359W        W41520  40.334  27.598   0.411
76360W        W41521  13.859  30.531  14.515
76361W        W41522  41.597  39.370  13.931
76362W        W41523  15.114  16.614  12.802
76363W        W41524  23.540  11.089   3.255
76364W        W41525  31.369  33.521  12.422
76365W        W41526  33.808  36.289   4.221
76366W        W41527  28.985  38.566  12.914
76367W        W41528  31.728  16.676  10.568
76368W        W41529   4.103  37.600   0.312
76369W        W41530  27.223  43.772  12.707
76370W        W41531  43.531  44.876  14.443
76371W        W41532  29.725   8.881   3.654
76372W        W41533  19.337  11.667  11.140
76373W        W41534  22.692  36.056   1.281
76374W        W41535  16.191  17.263   3.160
76375W        W41536  19.682  22.050  13.013
76376W        W41537  12.294  26.730  14.713
76377W        W41538  35.643  36.300   4.087
76378W        W41539   7.774  30.919   4.262
76379W        W41540  42.878  34.379   3.892
76380W        W41541   5.121   1.485  11.164
76381W        W41542  32.424  19.298  11.251
76382W        W41543  13.196  29.743   2.730
76383W        W41544   0.246  21.974  14.937
76384W        W41545  11.379  25.647   1.901
76385W        W41546  12.259  27.603  11.190
76386W        W41547  31.652  13.520   3.682
76387W        W41548   1.399  42.958  14.840
76388W        W41549   6.052  34.033  14.956
76389W        W41550  24.383  11.697   0.314
76390W        W41551  21.728  21.273  10.728
76391W        W41552  19.322  44.975   3.370
76392W        W41553  36.314  18.257  14.919
76393W        W41554  23.520  38.071   3.100
76394W        W41555   0.736  33.995  12.556
76395W        W41556   0.202  33.111   5.012
76396W        W41557  34.572  31.507  10.626
76397W        W41558  26.400  33.429   1.311
76398W        W41559  36.116   4.027   2.474
76399W        W41560  29.449   7.141   0.318
76400W        W41561  13.888   3.378   3.641
76401W        W41562   6.981   7.780   1.303
76402W        W41563  42.362  40.001   0.996
76403W        W41564   5.294  14.832  13.441
76404W        W41565  35.593   1.320  10.356
76405W        W41566  26.129  26.710  11.359
76406W        W41567   2.284  29.087   2.182
76407W        W41568  11.736  20.540  12.836
76408W        W41569  22.644  32.181   3.218
76409W        W41570  25.805  43.984  10.006
76410W        W41571  25.008  40.990  11.945
76411W        W41572   1.335  37.844   0.335
76412W        W41573   9.270  26.005   1.131
76413W        W41574  44.879  11.508   3.100
76414W        W41575  22.557  31.196  14.801
76415W        W41576   2.451  17.508   0.997
76416W        W41577  29.019   0.536   3.340
76417W        W41578  35.977  24.575   3.615
76418W        W41579  36.797   2.607   1.971
76419W        W41580   3.400   4.802  11.135
76420W        W41581   0.176  27.916   3.852
76421W        W41582  39.866  32.548   3.440
76422W        W41583  32.674  26.641   0.684
76423W        W41584  28.101  43.023  12.641
76424W        W41585   4.828  17.571  14.416
76425W        W41586  36.380  12.240   1.261
76426W        W41587   7.074  19.636   1.710
76427W        W41588  41.035  43.999   2.345
76428W        W41589  15.810  26.945   0.274
76429W        W41590  36.728  23.465  11.127
76430W        W41591  23.448  36.077   2.867
76431W        W41592  23.673  33.961   2.933
76432W        W41593  29.977  17.101  13.500
76433W        W41594  26.254  34.045  13.758
76434W        W41595  25.396  38.717   1.303
76435W        W41596  20.068  41.869   1.024
76436W        W41597  37.426  32.145  12.599
76437W        W41598  43.652  22.999  12.551
76438W        W41599  36.141  30.037   4.303
76439W        W41600   3.381  12.206   4.667
76440W        W41601   9.059   2.469   2.571
76441W        W41602  28.382  15.047   1.000
76442W        W41603  35.828  14.696   3.596
76443W        W41604   4.148  19.022  13.911
76444W        W41605  30.886  26.407  14.535
76445W        W41606  27.505   3.957  13.222
76446W        W41607   7.172  16.526  11.163
76447W        W41608  42.790  30.496   0.395
76448W        W41609  38.133   7.316   0.920
76449W        W41610   5.803  30.599   0.398
76450W        W41611  31.171   5.414   4.011
76451W        W41612  43.788  40.616  11.226
76452W        W41613  21.065  41.061   1.651
76453W        W41614  10.332  32.202  13.530
76454W        W41615  16.681  39.838   4.446
76455W        W41616   3.996   8.389  12.408
76456W        W41617   4.192  44.350  13.048
76457W        W41618  13.192   6.439  14.399
76458W        W41619  17.938  25.134  13.382
76459W        W41620  17.872   2.749   1.232
76460W        W41621   7.619  11.056   2.745
76461W        W41622   6.129  25.526   2.384
76462W        W41623  22.229   6.324   2.441
76463W        W41624  18.455  14.764  10.804
76464W        W41625  32.197   5.416  14.392
76465W        W41626   4.715   2.244  11.618
76466W        W41627   1.252   2.217   0.573
76467W        W41628  13.321  41.421   0.193
76468W        W41629  23.791   0.402   1.240
76469W        W41630   5.350  19.134  11.529
76470W        W41631   5.236   6.867  14.865
76471W        W41632   8.529  14.278   2.553
76472W        W41633   2.447   9.768   3.517
76473W        W41634   1.827  15.714  10.134
76474W        W41635  26.924  30.092  12.621
76475W        W41636  18.856  17.721  12.473
76476W        W41637  29.085  16.432  14.428
76477W        W41638  44.880  40.984   4.651
76478W        W41639  12.078  15.162   2.254
76479W        W41640   2.855  19.915  14.248
76480W        W41641  41.617  35.800   3.751
76481W        W41642  11.304  25.991   3.226
76482W        W41643  27.532   1.662  13.756
76483W        W41644  43.831  17.341  10.951
76484W        W41645  37.816   2.673  10.698
76485W        W41646  29.487  31.455  11.990
76486W        W41647   9.933   9.218   1.318
76487W        W41648  31.938  20.831  13.351
76488W        W41649  17.725  20.947   2.302
76489W        W41650  26.255   1.635   0.362
76490W        W41651   8.721   5.621  14.427
76491W        W41652  26.429  39.564   3.047
76492W        W41653  35.021  21.084  14.276
76493W        W41654  24.192  29.101  12.366
76494W        W41655  20.167   5.624   3.531
76495W        W41656  19.436  31.785   3.806
76496W        W41657   4.208   8.208   0.845
76497W        W41658  37.667  19.708  14.995
76498W        W41659  31.607  16.150   3.190
76499W        W41660   7.789  36.053   2.425
76500W        W41661   9.402   4.318  11.270
76501W        W41662  22.919  36.335   5.004
76502W        W41663   2.759   0.604  11.509
76503W        W41664   6.700  13.433  13.469
76504W        W41665   1.474  29.163   0.833
76505W        W41666   0.740  37.966  11.448
76506W        W41667  28.084  15.321  11.422
76507W        W41668  12.984  41.011   2.780
76508W        W41669   3.361   5.906   0.878
76509W        W41670   9.283  39.182  11.513
76510W        W41671  14.737  25.426  12.441
76511W        W41672  19.102  21.671   2.478
76512W        W41673  44.226  24.899   0.445
76513W        W41674   3.466  41.871   4.555
76514W        W41675  16.788  44.776  11.204
76515W        W41676   9.333  10.787  14.334
76516W        W41677  30.121  32.408  13.169
76517W        W41678  30.667  16.751   2.551
76518W        W41679  18.050  43.189   0.262
76519W        W41680  44.547   0.044  13.125
76520W        W41681  14.646  37.993  13.115
76521W        W41682  39.908  29.656   3.813
76522W        W41683  41.337  18.502  14.512
76523W        W41684  12.775   2.014   4.453
76524W        W41685   4.772   2.709   4.623
76525W        W41686  22.734  36.158  13.804
76526W        W41687  13.685  38.881  13.160
76527W        W41688  20.564  29.990  11.734
76528W        W41689  33.421  32.198  14.485
76529W        W41690   6.886  35.342   4.575
76530W        W41691  20.960   8.607   0.268
76531W        W41692  43.374   4.303  12.044
76532W        W41693  25.587  19.490   0.753
76533W        W41694  39.600  12.810   1.812
76534W        W41695   9.008   2.624  14.904
76535W        W41696  29.164  40.847  12.693
76536W        W41697  20.323   1.874  10.691
76537W        W41698  20.200   3.479   0.952
76538W        W41699  29.983  26.924   1.395
76539W        W41700   3.889  36.137   4.586
76540W        W41701  32.819  10.255   3.136
76541W        W41702  29.506  32.027  11.239
76542W        W41703  15.678  24.730   4.805
76543W        W41704  31.142  12.823  13.738
76544W        W41705  16.855  39.872   1.456
76545W        W41706  28.083  12.326   3.078
76546W        W41707   1.532  21.568   2.288
76547W        W41708  14.081  22.272  11.942
76548W        W41709  33.093  10.258   1.671
76549W        W41710  36.497  44.028  14.487
76550W        W41711  44.897  35.298   0.106
76551W        W41712  22.677  15.358   3.663
76552W        W41713  23.567  30.081   2.982
76553W        W41714  37.313  36.505   0.245
76554W        W41715   1.910   8.685   0.831
76555W        W41716  16.735  23.241  10.912
76556W        W41717  14.569   5.341  12.627
76557W        W41718  13.666  39.463   0.903
76558W        W41719  18.085  26.113  13.361
76559W        W41720  32.036  34.989  13.816
76560W        W41721  25.999  22.500   4.184
76561W        W41722  11.184  32.938   1.217
76562W        W41723  22.600  21.544   2.401
76563W        W41724  39.771   3.907   1.016
76564W        W41725  21.372  12.712   1.388
76565W        W41726  22.349  38.493  10.234
76566W        W41727  43.136   1.524   3.400
76567W        W41728  35.146  23.265   4.259
76568W        W41729  14.114   4.111   3.527
76569W        W41730  36.073  35.859   2.873
76570W        W41731  38.421  13.318  11.022
76571W        W41732  15.196   2.233  11.991
76572W        W41733  16.799   8.767  13.899
76573W        W41734   5.535   1.448  14.909
76574W        W41735   0.258  21.025  11.574
76575W        W41736  20.109  44.378  12.438
76576W        W41737  37.323   1.687  11.448
76577W        W41738  25.775  43.279   3.717
76578W        W41739  22.597  34.386  14.211
76579W        W41740  22.300  34.076  12.947
76580W        W41741  18.834  39.794  12.834
76581W        W41742  39.488  24.793   1.054
76582W        W41743  26.242  14.244  13.928
76583W        W41744   8.456  25.990  10.627
76584W        W41745  13.511   9.837  14.976
76585W        W41746  14.731  33.140  13.604
76586W        W41747  33.587  10.634   0.684
76587W        W41748  29.607  34.525   0.003
76588W        W41749  16.081  20.131   2.167
76589W        W41750   2.410  12.291  12.972
76590W        W41751  27.541  31.128  14.083
76591W        W41752  15.626  30.155   3.155
76592W        W41753  41.413  29.054  10.650
76593W        W41754  17.600   7.178   4.344
76594W        W41755   0.429  18.828   1.409
76595W        W41756  19.802  13.837  13.820
76596W        W41757  40.646   8.154  12.039
76597W        W41758  32.714  41.553   0.311
76598W        W41759  20.515  25.465  14.834
76599W        W41760  38.495  12.833  13.994
76600W        W41761  38.328  27.000  14.834
76601W        W41762   9.807  33.167   9.931
76602W        W41763  26.294  29.655  11.547
76603W        W41764  13.235  36.039  14.465
76604W        W41765   8.931  25.140   1.230
76605W        W41766  26.527  39.237   2.626
76606W        W41767  38.034  24.273   4.607
76607W        W41768  34.722  17.134   4.171
76608W        W41769   0.973  22.988  12.930
76609W        W41770   7.009  14.868  12.235
76610W        W41771  22.994  41.229   3.307
76611W        W41772  42.560   3.073  10.707
76612W        W41773  10.778   5.881  11.898
76613W        W41774  28.857  16.026  12.853
76614W        W41775  26.013   9.776  11.581
76615W        W41776  25.866  21.156  11.156
76616W        W41777  20.011  42.383   2.254
76617W        W41778  16.577  31.584   1.116
76618W        W41779   2.379  43.519   3.319
76619W        W41780  41.015  40.551   1.290
76620W        W41781  27.179  37.028  12.822
76621W        W41782  30.689  44.972  11.412
76622W        W41783  39.426  24.158   1.405
76623W        W41784  43.942  20.912  13.257
76624W        W41785   4.732   0.821   3.178
76625W        W41786   4.360  18.524  12.735
76626W        W41787   3.324  17.310   2.712
76627W        W41788  42.985  41.331   5.032
76628W        W41789  11.497  21.155   1.211
76629W        W41790  20.733  12.655  11.604
76630W        W41791  16.146  22.051  13.040
76631W        W41792  28.690   5.519   4.058
76632W        W41793   9.070  32.548   2.852
76633W        W41794  44.427  35.721   1.194
76634W        W41795  23.441   4.617  13.052
76635W        W41796  29.404  29.673   3.196
76636W        W41797  30.400  31.087  14.650
76637W        W41798  18.460  33.219  11.570
76638W        W41799  43.523  43.191   2.269
76639W        W41800  41.938  29.621  12.156
76640W        W41801   5.398  42.971   2.351
76641W        W41802  27.964  35.368  14.770
76642W        W41803  41.366  39.831  13.849
76643W        W41804  34.855  14.866   2.722
76644W        W41805  11.502  42.346  13.012
76645W        W41806  29.043   9.326  14.945
76646W        W41807  14.086  35.022   2.223
76647W        W41808  16.189  32.795   0.219
76648W        W41809  18.239  24.146   4.408
76649W        W41810  23.235  33.450   0.354
76650W        W41811  29.833  16.927   1.699
76651W        W41812   5.550  23.298  10.643
76652W        W41813  38.397  16.089   3.172
76653W        W41814  13.341  17.602   3.659
76654W        W41815  17.092  34.132   1.255
76655W        W41816   9.910  42.769   1.772
76656W        W41817  30.754  43.937   1.212
76657W        W41818  34.988  39.685  10.203
76658W        W41819  31.884  32.043  13.050
76659W        W41820  42.258  42.565  14.468
76660W        W41821  11.333  25.043  10.920
76661W        W41822  32.339  42.286  14.450
76662W        W41823  25.535  28.908   4.525
76663W        W41824  43.601  33.298   5.041
76664W        W41825  28.833  32.171   0.934
76665W        W41826  28.192  33.450   3.339
76666W        W41827  39.756  38.365   0.890
76667W        W41828  44.309  12.501   1.338
76668W        W41829  16.162  29.688   4.573
76669W        W41830   1.846   0.939  12.056
76670W        W41831  36.971  17.119   3.501
76671W        W41832  24.729   7.316  11.941
76672W        W41833  39.020  20.576  11.929
76673W        W41834  18.079  12.238   2.002
76674W        W41835  23.744   5.822  10.712
76675W        W41836  20.062  37.798   2.824
76676W        W41837  30.204  27.828  14.441
76677W        W41838  21.865  23.942  12.865
76678W        W41839  16.204   4.905  14.554
76679W        W41840   9.340  42.750   4.966
76680W        W41841  43.295  19.212   3.315
76681W        W41842  13.292  33.544  13.355
76682W        W41843  37.799  23.916  12.588
76683W        W41844  40.609  39.896  12.839
76684W        W41845  21.017   2.458   3.564
76685W        W41846  29.484  28.709  11.314
76686W        W41847  34.875  42.440   2.707
76687W        W41848   8.732  21.214  13.047
76688W        W41849   9.821  37.159   4.127
76689W        W41850  17.022  22.855  14.914
76690W        W41851  16.806  44.095   4.919
76691W        W41852   6.846  24.202   2.248
76692W        W41853  29.130  15.883   4.629
76693W        W41854  42.287  13.197  13.379
76694W        W41855  22.800  14.029   4.157
76695W        W41856  20.924  16.581   2.227
76696W        W41857  27.275  37.316  10.102
76697W        W41858   7.245  10.774   3.637
76698W        W41859  27.477  19.539   2.756
76699W        W41860  29.519  15.984  12.622
76700W        W41861  11.416   5.128  12.371
76701W        W41862  38.581  33.584   4.268
76702W        W41863  26.767  13.873  10.254
76703W        W41864   0.458  15.293   0.847
76704W        W41865  30.171  38.472  13.446
76705W        W41866  21.737  24.922   2.180
76706W        W41867  21.785   0.708  11.963
76707W        W41868  16.661   8.215  14.049
76708W        W41869  30.451  27.914   3.256
76709W        W41870  17.116  36.874   4.248
76710W        W41871   0.212  29.206   4.762
76711W        W41872   4.929  20.657   4.560
76712W        W41873  17.087  38.013  14.773
76713W        W41874  11.090  43.445   1.993
76714W        W41875  19.302  25.724  14.301
76715W        W41876  10.373  38.383   3.284
76716W        W41877   9.944  31.551  11.234
76717W        W41878   3.763  44.702   0.820
76718W        W41879  14.865  27.103   2.942
76719W        W41880  40.537  35.352   2.284
76720W        W41881  35.657  21.053  14.981
76721W        W41882   4.445  15.342  11.165
76722W        W41883  37.130  12.025   5.051
76723W        W41884  10.088  19.138   1.265
76724W        W41885  28.126  44.528   2.407
76725W        W41886   9.791  39.150   3.272
76726W        W41887   9.903  10.383   4.201
76727W        W41888  11.309  43.526   1.186
76728W        W41889  26.608  44.834  12.625
76729W        W41890  28.714  15.109  14.463
76730W        W41891   5.232  40.063   4.021
76731W        W41892  29.208  33.948  12.584
76732W        W41893  36.780  13.147  14.239
76733W        W41894  44.783  32.406   3.462
76734W        W41895  28.419  14.352   4.595
76735W        W41896  30.447  21.889  13.349
76736W        W41897  19.624  41.819   1.714
76737W        W41898  20.792  20.710  13.528
76738W        W41899  34.268  14.227  12.039
76739W        W41900  17.304  33.888  11.205
76740W        W41901  17.113  31.098   0.906
76741W        W41902   4.079  42.952   4.453
76742W        W41903  34.330   8.416   2.795
76743W        W41904   2.747  22.723  13.067
76744W        W41905  42.753  13.112   3.225
76745W        W41906   0.791   9.749   2.274
76746W        W41907  38.103   2.237  10.571
76747W        W41908  31.459  28.136  14.419
76748W        W41909  42.569  19.777  12.478
76749W        W41910  37.550  14.259   1.171
76750W        W41911  19.191   5.253  12.329
76751W        W41912  27.014  33.078  11.466
76752W        W41913   5.414  34.070   3.279
76753W        W41914   8.821  15.723  13.142
76754W        W41915  25.230  34.580  10.246
76755W        W41916  38.239  13.821  13.370
76756W        W41917  17.664  20.905   5.023
76757W        W41918  42.989  15.844   1.699
76758W        W41919  21.603  37.292   0.734
76759W        W41920   9.245  25.456   0.232
76760W        W41921  10.158  33.959  12.956
76761W        W41922   8.458  29.664   1.215
76762W        W41923  16.593  30.007  12.829
76763W        W41924   8.034   8.742   2.871
76764W        W41925  27.641  22.061  13.492
76765W        W41926  37.199  33.866   3.706
76766W        W41927  12.503  30.555  12.054
76767W        W41928   8.246   2.848  11.910
76768W        W41929  14.659  24.158  13.951
76769W        W41930  37.378  14.142  14.243
76770W        W41931  11.595  13.522   0.224
76771W        W41932  12.641  29.459   0.438
76772W        W41933  29.183   0.577  14.821
76773W        W41934  39.506  35.646  11.668
76774W        W41935   0.422   4.878   3.628
76775W        W41936  17.577  44.307   5.381
76776W        W41937  40.334   6.091   5.141
76777W        W41938  31.359  27.392   9.854
76778W        W41939  25.951  15.384  11.773
76779W        W41940  35.153  30.953  12.756
76780W        W41941  17.658  35.650   4.312
76781W        W41942  25.111  42.953  12.051
76782W        W41943  26.130  15.308   3.421
76783W        W41944   3.515  22.258   1.754
76784W        W41945  32.240  13.123  12.541
76785W        W41946  24.517  21.141   4.919
76786W        W41947   6.931  35.995   1.716
76787W        W41948  25.447  44.843   2.174
76788W        W41949  42.058  27.181  12.955
76789W        W41950  37.418  20.918  11.611
76790W        W41951  14.019  13.022  12.816
76791W        W41952  22.013   7.360  12.797
76792W        W41953   5.590   2.465   1.842
76793W        W41954  34.468  43.787   2.234
76794W        W41955  22.362  28.588   3.611
76795W        W41956  43.276  13.799   4.632
76796W        W41957   7.811  42.349   0.488
76797W        W41958  27.622  20.674   0.781
76798W        W41959  15.836  16.659  12.367
76799W        W41960  25.226  34.247  12.051
76800W        W41961   5.320  22.169  11.615
76801W        W41962  26.251  19.572  14.610
76802W        W41963  16.693  37.518  10.606
76803W        W41964  12.126  21.754   1.954
76804W        W41965  19.265  12.581   3.157
76805W        W41966   6.510  38.145   2.175
76806W        W41967  30.635  42.036  11.539
76807W        W41968  43.527   4.668  14.385
76808W        W41969  41.293  31.337   4.223
76809W        W41970  19.065  19.549   2.189
76810W        W41971   3.846  25.198   2.673
76811W        W41972  34.125   7.962   1.864
76812W        W41973  27.163   7.932  11.380
76813W        W41974  38.436  15.188  11.209
76814W        W41975  30.403   4.611  13.653
76815W        W41976  36.818  41.790   1.441
76816W        W41977  33.059  34.154  11.089
76817W        W41978   1.101   3.262   4.036
76818W        W41979  40.314   8.129  14.417
76819W        W41980  31.691  12.148  14.494
76820W        W41981  25.181  23.605  12.876
76821W        W41982   0.505  41.039   4.111
76822W        W41983  25.687  22.146   4.457
76823W        W41984   0.248  25.642  10.567
76824W        W41985  34.084  17.791   1.248
76825W        W41986  17.160  15.589  14.916
76826W        W41987   9.678  16.235   3.397
76827W        W41988  10.360  18.640  11.675
76828W        W41989  28.114  20.535  13.924
76829W        W41990  22.191  31.651   2.195
76830W        W41991  41.806  36.518   3.196
76831W        W41992  33.185   6.198   3.104
76832W        W41993  35.488  28.239   3.719
76833W        W41994  44.652  20.582  12.980
76834W        W41995  33.458  23.903   4.659
76835W        W41996  14.528  41.617  14.994
76836W        W41997  25.895  25.724   3.768
76837W        W41998  26.789  40.218   0.374
76838W        W41999  35.304  10.283  10.570
76839W        W42000  21.231  18.330  13.459
76840W        W42001  23.474  37.292   4.580
76841W        W42002  34.217   0.439   3.148
76842W        W42003  22.811  15.069   3.229
76843W        W42004  18.025  42.570  14.192
76844W        W42005  27.535  31.468   0.487
76845W        W42006  21.518  39.910   1.228
76846W        W42007  14.439   2.365  11.381
76847W        W42008  18.565  15.049  11.204
76848W        W42009  11.783   7.563   0.459
76849W        W42010  26.416  17.073   4.164
76850W        W42011  34.837  16.161  11.184
76851W        W42012  35.865  39.997   5.494
76852W        W42013   5.459  18.058   2.854
76853W        W42014   9.724  16.686  11.595
76854W        W42015  25.020   6.219  12.884
76855W        W42016  16.209   8.401  10.608
76856W        W42017  12.340  26.446   4.100
76857W        W42018  12.174   4.401   0.937
76858W        W42019  15.238  31.505  10.762
76859W        W42020  29.362  29.160   1.421
76860W        W42021  35.310  25.767  13.750
76861W        W42022  44.809  11.731  14.862
76862W        W42023  39.787  18.484   0.282
76863W        W42024  42.154  37.016  13.308
76864W        W42025  20.723   4.179   0.729
76865W        W42026  43.325  26.813  12.331
76866W        W42027   9.155   2.040   1.330
76867W        W42028  38.409  41.394   4.038
76868W        W42029   1.894  29.562  14.273
76869W        W42030  29.905  20.958  11.138
76870W        W42031  16.129   9.453  10.711
76871W        W42032  27.410  17.196  14.287
76872W        W42033  31.071  16.805  14.084
76873W        W42034  14.609  33.599   0.692
76874W        W42035  11.323   1.243   3.668
76875W        W42036  27.052   9.874   1.830
76876W        W42037   2.333   9.270  11.947
76877W        W42038  23.001  21.526   1.916
76878W        W42039  33.325  10.125  13.771
76879W        W42040  32.568  11.508   3.718
76880W        W42041   5.703  16.321  13.086
76881W        W42042   2.297   4.553   4.522
76882W        W42043  22.393  17.566   3.985
76883W        W42044   9.884  40.978  10.100
76884W        W42045  37.319  24.071   4.575
76885W        W42046   7.689  36.878   2.367
76886W        W42047  30.745  40.324   3.298
76887W        W42048   3.466  39.514   0.400
76888W        W42049  10.712   2.493  12.005
76889W        W42050  39.976  25.017  10.719
76890W        W42051  41.353  36.581  13.472
76891W        W42052  40.612  16.510   0.618
76892W        W42053  19.532   1.054   3.676
76893W        W42054   1.411   2.782  11.693
76894W        W42055  28.464  37.917   2.590
76895W        W42056  39.072  22.981   3.216
76896W        W42057  44.059  36.057  14.457
76897W        W42058  38.093  18.737  14.771
76898W        W42059  19.219  29.163   2.975
76899W        W42060   7.442  26.618  13.796
76900W        W42061  21.370   4.149  13.826
76901W        W42062  13.400   7.668  13.791
76902W        W42063  37.620  24.390  12.590
76903W        W42064   0.533  15.706   1.706
76904W        W42065  37.491  11.828  14.152
76905W        W42066  34.345   0.876  13.732
76906W        W42067  37.565  43.686   3.568
76907W        W42068  16.040  11.945  12.982
76908W        W42069  40.528   8.239   0.206
76909W        W42070   7.314   6.459  11.522
76910W        W42071  19.220  30.987   2.951
76911W        W42072  29.961  18.755  11.564
76912W        W42073  17.065  19.917   1.195
76913W        W42074  24.909   6.379  11.293
76914W        W42075  15.358   4.368   2.916
76915W        W42076  12.262  42.233   3.145
76916W        W42077   0.419  40.068  10.914
76917W        W42078  44.260  13.828   4.865
76918W        W42079  16.047  44.731   2.523
76919W        W42080   5.381  15.203   4.579
76920W        W42081  40.333   8.146   0.672
76921W        W42082  32.191  34.062  13.381
76922W        W42083  25.280  21.625  10.730
76923W        W42084  23.572  44.835  14.872
76924W        W42085   4.852  29.018  12.061
76925W        W42086  34.090  10.132   0.260
76926W        W42087  12.532   9.697  11.541
76927W        W42088  18.694  18.606   2.648
76928W        W42089  40.868  12.694  12.874
76929W        W42090  10.223  30.331  13.952
76930W        W42091   0.516   2.765  12.530
76931W        W42092   0.621   6.279  12.458
76932W        W42093  38.862  28.184  10.455
76933W        W42094  44.871  41.945   0.095
76934W        W42095   7.908  11.152   1.373
76935W        W42096  33.358  12.924   1.440
76936W        W42097  35.398  13.109  10.864
76937W        W42098  13.368  31.215   1.343
76938W        W42099   3.496  12.735   4.088
76939W        W42100  32.242  20.582   0.760
76940W        W42101  12.148   8.876   3.101
76941W        W42102  16.644  11.613   3.641
76942W        W42103  43.704  13.205  13.349
76943W        W42104  19.678  39.867   3.170
76944W        W42105   9.929   8.674   1.347
76945W        W42106   1.339  30.581  11.070
76946W        W42107  13.347  42.808   4.583
76947W        W42108  16.648   5.679  13.202
76948W        W42109  41.620  40.813  13.135
76949W        W42110  43.121  29.271   0.845
76950W        W42111   0.187   3.589   4.014
76951W        W42112  21.082  10.103  11.216
76952W        W42113  40.337  18.827  13.537
76953W        W42114   7.800  19.753  12.154
76954W        W42115  27.689  39.986  10.317
76955W        W42116  14.066  19.586  13.336
76956W        W42117  44.724   0.286   1.270
76957W        W42118   8.359   5.433   3.161
76958W        W42119  35.885   1.823  10.843
76959W        W42120   7.741  42.853  10.215
76960W        W42121   5.259  18.224  11.553
76961W        W42122  10.366  40.325   5.296
76962W        W42123  23.194  11.424  12.485
76963W        W42124  42.601   1.246  11.166
76964W        W42125  21.981   4.198   3.137
76965W        W42126   1.795  11.284  12.710
76966W        W42127  35.908   5.896   2.705
76967W        W42128  19.086  23.718   4.127
76968W        W42129  41.054  44.991  11.069
76969W        W42130  31.810  37.517   4.440
76970W        W42131  16.749  16.008   3.305
76971W        W42132  40.083  29.940  13.784
76972W        W42133  34.483  13.865  14.266
76973W        W42134  14.279  32.905   1.910
76974W        W42135  37.099  35.396  11.990
76975W        W42136  29.146   0.847  11.662
76976W        W42137  27.158  24.025   4.977
76977W        W42138  27.074  21.474  12.578
76978W        W42139  22.553  12.663  12.710
76979W        W42140  19.808  11.258  14.870
76980W        W42141  18.843   8.252   3.660
76981W        W42142  34.688  26.590   4.140
76982W        W42143  33.448  13.344   0.624
76983W        W42144   2.924   9.233  13.501
76984W        W42145  20.499  30.533  14.037
76985W        W42146  31.901   2.493  11.999
76986W        W42147  25.011  14.021  13.431
76987W        W42148  16.531  11.747   1.068
76988W        W42149  20.587  43.570  10.712
76989W        W42150   7.608  23.600  14.957
76990W        W42151  11.280  11.937   2.323
76991W        W42152  23.352  19.316  10.971
76992W        W42153  17.270  10.073   5.199
76993W        W42154  32.699  39.533  14.782
76994W        W42155  18.244  27.645  12.168
76995W        W42156  30.268   9.855  12.430
76996W        W42157  19.841  28.379  12.959
76997W        W42158  38.435   5.327  12.014
76998W        W42159  16.318  39.936   0.238
76999W        W42160  32.567  14.737  11.972
77000W        W42161  34.183  35.560   4.760
77001W        W42162  33.395  21.475  14.507
77002W        W42163   3.852   3.735   4.254
77003W        W42164  41.878  39.307   2.677
77004W        W42165  19.702   5.066  13.634
77005W        W42166   7.716  14.072   3.768
77006W        W42167  12.597  21.720  13.821
77007W        W42168  12.857  13.200   1.004
77008W        W42169  34.950  16.665   3.341
77009W        W42170  17.083  13.804  12.485
77010W        W42171  44.764  23.654  10.302
77011W        W42172  34.560  24.273   5.424
77012W        W42173  42.840  20.997  11.991
77013W        W42174  13.651  12.795  13.732
77014W        W42175  33.295  26.077  11.178
77015W        W42176  26.031  25.764  14.488
77016W        W42177   4.072  31.140  11.143
77017W        W42178  37.832   2.317  11.082
77018W        W42179  22.122  21.095  11.440
77019W        W42180   0.441   3.696  14.392
77020W        W42181  10.724  16.329   4.768
77021W        W42182  24.079  17.310  11.197
77022W        W42183   0.917  24.759   1.678
77023W        W42184   3.828  13.241  12.583
77024W        W42185  18.734  36.826   0.492
77025W        W42186  27.139  25.583  13.451
77026W        W42187   3.948  25.741   1.459
77027W        W42188  17.283  29.666  12.206
77028W        W42189  29.426  12.358  12.003
77029W        W42190   9.744  41.503   1.729
77030W        W42191   9.762  33.926   1.414
77031W        W42192  26.140  18.903   1.762
77032W        W42193   6.113  30.986   0.236
77033W        W42194   8.726  40.432  11.423
77034W        W42195  38.027   9.226   0.391
77035W        W42196  18.106  10.663  13.125
77036W        W42197  31.047  33.081   4.955
77037W        W42198   1.411  40.733  10.958
77038W        W42199  11.541  20.164  12.005
77039W        W42200   6.901  23.488  12.886
77040W        W42201  35.054  24.549  14.221
77041W        W42202  30.496  17.629   4.128
77042W        W42203  13.718   0.293   1.453
77043W        W42204   4.567  20.702   3.595
77044W        W42205  35.075   4.139   1.766
77045W        W42206  42.011  39.295   0.472
77046W        W42207  34.401   7.859   2.503
77047W        W42208  23.261  34.011  13.126
77048W        W42209   2.246  26.216   0.500
77049W        W42210  22.001  17.019   5.465
77050W        W42211  32.840  14.542   2.815
77051W        W42212  19.192   2.420   4.548
77052W        W42213  15.270  18.215  13.447
77053W        W42214  10.630   3.258  14.894
77054W        W42215   5.645  38.106  11.465
77055W        W42216  32.135  39.456   2.742
77056W        W42217  34.847   9.203   1.339
77057W        W42218  12.142  43.561  13.335
77058W        W42219  26.588  15.132  13.513
77059W        W42220  19.118  21.966  14.468
77060W        W42221  21.156  32.656  14.195
77061W        W42222  36.922   4.925  11.573
77062W        W42223   0.677  28.602   0.919
77063W        W42224  18.227   7.943   2.423
77064W        W42225  40.277  29.698   2.232
77065W        W42226   6.036  20.369   4.069
77066W        W42227  37.947  41.650   4.061
77067W        W42228  33.581  41.364   0.505
77068W        W42229  27.201  29.043  14.449
77069W        W42230  17.227  35.826   3.225
77070W        W42231  19.626  16.651   1.916
77071W        W42232  17.584  44.520   3.237
77072W        W42233  22.148  42.352   3.619
77073W        W42234  40.831  36.667  13.339
77074W        W42235  41.711  17.357   3.239
77075W        W42236  25.583  39.130   4.810
77076W        W42237  18.667  24.625  11.545
77077W        W42238  19.217  14.904  10.670
77078W        W42239  30.006  29.913  13.369
77079W        W42240  30.632  35.997  13.568
77080W        W42241  41.840  22.949   3.231
77081W        W42242   7.352   5.747   1.735
77082W        W42243  19.179  15.160   5.369
77083W        W42244  32.581  40.048  12.636
77084W        W42245  30.331  27.011   3.612
77085W        W42246  21.128  32.040  12.435
77086W        W42247  13.353   2.340   0.261
77087W        W42248  14.374   3.876  11.977
77088W        W42249  32.658  32.039  11.090
77089W        W42250   3.405  39.140  12.614
77090W        W42251   9.682  27.289  14.264
77091W        W42252  21.741  43.448  13.388
77092W        W42253  44.246  18.644  12.406
77093W        W42254  43.277  33.984  11.102
77094W        W42255  26.201   5.999  13.323
77095W        W42256   8.214  42.731  11.149
77096W        W42257  19.727   3.755  13.387
77097W        W42258  11.712  42.360   3.680
77098W        W42259  39.494  13.608  14.750
77099W        W42260   0.836  30.143   2.419
77100W        W42261  23.616  37.106   2.709
77101W        W42262  19.953  19.661   2.390
77102W        W42263  35.381   1.132   0.415
77103W        W42264   0.431  14.237   1.837
77104W        W42265   6.410  16.449   0.650
77105W        W42266  23.959  40.090  13.556
77106W        W42267  25.652  31.149  14.263
77107W        W42268  36.085   4.112   4.545
77108W        W42269  44.795   9.458  14.520
77109W        W42270  33.728  32.912   1.919
77110W        W42271  19.295   1.968  13.473
77111W        W42272  25.909  27.593   1.874
77112W        W42273  29.506  25.588  12.338
77113W        W42274  40.204  38.110   3.635
77114W        W42275  12.590  32.661   3.698
77115W        W42276   2.725  42.696   4.257
77116W        W42277  41.460   8.670   0.767
77117W        W42278  21.955  34.853  10.331
77118W        W42279  31.827  29.974  14.995
77119W        W42280  40.152  42.337   3.428
77120W        W42281  12.422  30.129  13.422
77121W        W42282  18.765   4.142   4.915
77122W        W42283  25.984  34.813  11.042
77123W        W42284  29.215  34.087  11.044
77124W        W42285   2.950  26.364   1.630
77125W        W42286  38.893  35.069  12.884
77126W        W42287  44.171  11.368  14.562
77127W        W42288  31.043  14.121   0.099
77128W        W42289  30.113  19.186   3.741
77129W        W42290  33.133  14.041   4.259
77130W        W42291  31.060  25.463   0.847
77131W        W42292  30.257  24.698   3.079
77132W        W42293  40.283  21.926   4.067
77133W        W42294  13.901   8.759   0.348
77134W        W42295  19.645  15.280  11.643
77135W        W42296  11.214  39.183  14.709
77136W        W42297  44.305  18.945   4.596
77137W        W42298  35.525  32.232  12.587
77138W        W42299  33.013  44.701  11.441
77139W        W42300  22.162  14.263   4.579
77140W        W42301  35.664  24.114  10.641
77141W        W42302   6.907  26.517  11.861
77142W        W42303  41.018  38.662   4.062
77143W        W42304   0.224  35.387   3.409
77144W        W42305  44.067   5.289   3.710
77145W        W42306  21.760  33.843   1.187
77146W        W42307   4.489  19.391  14.728
77147W        W42308  36.380  23.157   1.689
77148W        W42309  32.167  36.161   2.153
77149W        W42310  29.351   1.839  12.504
77150W        W42311  30.582  38.077   4.878
77151W        W42312  32.148  33.621   1.755
77152W        W42313   0.768   0.760   2.957
77153W        W42314  18.177  41.571   3.470
77154W        W42315  22.991  44.529   4.166
77155W        W42316  36.314  28.955  14.851
77156W        W42317   4.380  40.509   4.135
77157W        W42318  10.326  25.454  10.785
77158W        W42319  18.260  25.198   2.439
77159W        W42320  13.228  30.208   3.634
77160W        W42321  27.789  43.269  14.217
77161W        W42322  27.072  39.013   1.386
77162W        W42323  37.437  33.456  13.853
77163W        W42324   1.679  44.799   4.160
77164W        W42325  29.986  42.019   1.202
77165W        W42326  13.117  14.034   1.172
77166W        W42327  39.538  17.806  13.868
77167W        W42328  35.114  33.538  10.711
77168W        W42329  42.872  24.929   3.342
77169W        W42330  38.605  23.662  13.896
77170W        W42331  41.045  29.105   0.850
77171W        W42332  25.960  12.574  13.445
77172W        W42333   2.293  24.749   1.442
77173W        W42334  39.476  19.213  13.024
77174W        W42335   3.436   9.798  11.168
77175W        W42336  21.218  12.760  13.022
77176W        W42337  30.989  14.230  10.674
77177W        W42338  37.903  13.534  10.619
77178W        W42339  12.169  34.821  12.055
77179W        W42340   2.304  10.887   0.804
77180W        W42341  15.181  23.143  10.641
77181W        W42342  32.975  40.938  10.712
77182W        W42343  33.246  36.772  11.642
77183W        W42344   0.629   6.848   2.251
77184W        W42345  43.364  17.522  11.148
77185W        W42346   3.562  27.188   3.041
77186W        W42347  44.653  23.556  13.859
77187W        W42348   9.929  16.986  13.828
77188W        W42349  19.709  29.985   2.389
77189W        W42350  21.252  32.879  13.660
77190W        W42351  17.641  34.509   4.007
77191W        W42352  18.268  42.516  11.011
77192W        W42353  18.004   6.839   0.723
77193W        W42354  16.108   5.684   2.406
77194W        W42355  38.495  38.259  11.917
77195W        W42356   7.852  33.518   4.773
77196W        W42357   2.465  44.766  10.561
77197W        W42358  24.544  28.329  11.900
77198W        W42359  37.483  21.601   2.265
77199W        W42360  29.219  31.514  12.445
77200W        W42361  38.899  34.098   3.291
77201W        W42362  32.589  15.667  11.086
77202W        W42363  20.281   6.668   0.977
77203W        W42364  26.217  23.314   4.094
77204W        W42365  34.062  41.895   2.354
77205W        W42366  41.232  41.834  14.458
77206W        W42367   3.109  19.753   2.197
77207W        W42368   4.877  44.349   3.989
77208W        W42369  14.643   6.975  11.043
77209W        W42370  15.656  31.894   3.342
77210W        W42371  24.065  17.775  13.925
77211W        W42372   4.353  43.610  13.734
77212W        W42373  17.849  23.034  13.774
77213W        W42374  37.541  39.804   0.449
77214W        W42375  34.601  42.341  12.418
77215W        W42376  37.026  37.482   0.213
77216W        W42377  13.001  17.223   3.656
77217W        W42378   6.827  43.949  12.459
77218W        W42379  38.402  22.586   0.649
77219W        W42380   4.294  32.500   0.740
77220W        W42381  30.389  44.230   0.309
77221W        W42382  14.559  15.655   4.830
77222W        W42383  18.156  31.393  11.168
77223W        W42384  15.124   6.585  12.042
77224W        W42385   9.110   1.036   2.324
77225W        W42386  28.961  34.676   2.671
77226W        W42387   4.615  40.324  13.542
77227W        W42388  21.753  10.974   3.361
77228W        W42389  26.128   5.237   1.630
77229W        W42390  16.587  27.500  11.086
77230W        W42391  19.626  24.093  10.681
77231W        W42392   1.489  36.220  13.360
77232W        W42393  26.906  22.466  13.920
77233W        W42394   7.646  15.719   3.047
77234W        W42395  40.040  30.944   4.470
77235W        W42396   4.442   9.162  13.373
77236W        W42397  24.128  20.684  10.824
77237W        W42398  35.453  13.255  12.036
77238W        W42399  44.012  10.446   5.222
77239W        W42400  40.465  16.858  13.880
77240W        W42401  29.215  31.213   0.823
77241W        W42402   5.452  34.286   1.034
77242W        W42403  15.040  37.480   0.340
77243W        W42404  43.757  44.501  14.763
77244W        W42405  15.455  29.018  10.138
77245W        W42406  21.631  20.190  12.085
77246W        W42407  10.357  27.701  13.365
77247W        W42408  14.535  42.764  13.038
77248W        W42409   3.660  23.741  12.378
77249W        W42410  44.685  27.013   2.756
77250W        W42411  20.555  23.128   1.193
77251W        W42412   5.820   3.448  11.071
77252W        W42413  39.076  29.574  12.061
77253W        W42414   9.646  37.025  14.737
77254W        W42415  13.273  35.532  12.668
77255W        W42416  37.962  16.070   0.264
77256W        W42417  41.826  21.328   3.643
77257W        W42418  28.515  15.643  13.873
77258W        W42419  20.496  39.925  12.012
77259W        W42420  24.305  26.437   4.944
77260W        W42421  43.536  42.951  11.363
77261W        W42422  34.633  34.070   3.654
77262W        W42423  29.457   2.513  12.950
77263W        W42424  18.826  36.609   1.823
77264W        W42425   6.374  24.801  13.818
77265W        W42426  38.020   3.765   2.400
77266W        W42427  19.805  14.472  11.176
77267W        W42428  22.641  20.562  13.103
77268W        W42429  12.398  10.761  12.097
77269W        W42430   1.509   3.487  10.380
77270W        W42431   5.881  35.179   2.393
77271W        W42432  36.897  28.662  11.626
77272W        W42433  15.129  24.175   1.657
77273W        W42434   6.416  27.630  13.486
77274W        W42435   6.671   6.685  10.465
77275W        W42436  32.858  28.787   2.499
77276W        W42437  31.466   5.191   0.763
77277W        W42438  21.905  44.923   1.974
77278W        W42439  11.827  23.850   2.705
77279W        W42440  37.369  13.255  14.777
77280W        W42441  15.835   6.887  13.078
77281W        W42442   1.109  24.093   4.643
77282W        W42443   0.634   2.734  11.584
77283W        W42444  25.003  21.712   4.024
77284W        W42445  40.070  29.889  12.985
77285W        W42446  42.274   0.759  12.929
77286W        W42447  37.615  39.053   0.803
77287W        W42448  15.067  41.441   2.310
77288W        W42449  17.565  18.570   0.269
77289W        W42450  35.382  22.664   3.232
77290W        W42451  23.241  34.424  11.981
77291W        W42452  20.097   7.531   3.078
77292W        W42453  39.816  25.404  11.756
77293W        W42454  34.295   2.267   3.984
77294W        W42455  37.352   7.348   1.463
77295W        W42456   0.392  20.538  11.693
77296W        W42457   5.713  44.428  10.449
77297W        W42458  20.018  11.429   2.834
77298W        W42459  30.412  32.638  14.241
77299W        W42460   4.908  16.246  13.453
77300W        W42461  29.009  25.656   2.064
77301W        W42462  22.581   0.058  12.141
77302W        W42463  22.940  32.924  14.554
77303W        W42464  13.259  27.406   0.967
77304W        W42465  19.348  25.545  13.403
77305W        W42466  28.062  10.392  13.003
77306W        W42467  10.699  24.189   4.221
77307W        W42468  31.801   7.895   4.668
77308W        W42469   8.747  42.282   4.886
77309W        W42470  37.280  42.070  14.756
77310W        W42471  23.769  17.189   1.032
77311W        W42472  43.273  38.309  12.844
77312W        W42473  10.329  36.933  14.088
77313W        W42474  14.109  17.084   2.801
77314W        W42475   5.000  12.347   4.949
77315W        W42476  17.109  22.948  11.131
77316W        W42477   2.989   1.846  10.379
77317W        W42478  33.730  13.402   4.532
77318W        W42479   0.809  11.181  14.447
77319W        W42480  30.531  28.075  10.644
77320W        W42481  38.816   7.131   0.107
77321W        W42482  38.982  34.365   4.588
77322W        W42483   5.449  18.481  13.514
77323W        W42484  20.239  34.480  10.686
77324W        W42485  21.449  34.423  14.411
77325W        W42486  35.865  25.536  14.484
77326W        W42487  11.381  22.934  13.755
77327W        W42488   3.364   0.489  10.846
77328W        W42489  28.714  40.197  14.249
77329W        W42490  23.077  36.503   1.759
77330W        W42491  27.967  32.692  14.253
77331W        W42492  27.523  35.440   3.405
77332W        W42493  31.037  44.984  14.414
77333W        W42494  36.001   0.956  14.433
77334W        W42495  24.343  26.108   2.532
77335W        W42496   3.349  34.849  12.583
77336W        W42497  16.684  34.770   0.405
77337W        W42498  38.894   1.180   0.582
77338W        W42499   1.772  13.729  12.030
77339W        W42500   5.481  24.098   1.470
77340W        W42501   0.798  43.867   2.288
77341W        W42502  44.345   2.557   4.337
77342W        W42503  22.568  42.747  14.848
77343W        W42504  33.258  32.542  13.585
77344W        W42505  22.020  40.328   0.639
77345W        W42506  18.150  32.392  10.980
77346W        W42507  10.376  20.015  12.472
77347W        W42508   0.477  43.822   1.772
77348W        W42509  30.029   2.299   3.122
77349W        W42510  12.684  28.646  13.068
77350W        W42511  29.396  25.123   3.102
77351W        W42512  19.076  17.715   2.300
77352W        W42513  26.128  42.338   2.338
77353W        W42514  12.145  18.185  14.412
77354W        W42515  25.036  42.033  13.404
77355W        W42516   3.328  35.000   4.983
77356W        W42517  34.490  27.659  12.047
77357W        W42518  23.045   0.436   2.300
77358W        W42519  18.174  18.601  11.900
77359W        W42520   3.152  16.772  14.611
77360W        W42521   9.523  14.161  14.594
77361W        W42522  44.842  32.361   0.298
77362W        W42523  35.351  41.338  14.404
77363W        W42524  29.626  33.128  13.869
77364W        W42525   7.570  37.058  11.457
77365W        W42526  43.059  38.675  14.687
77366W        W42527  25.256   3.301  12.092
77367W        W42528  41.709   2.884  14.686
77368W        W42529   5.351  10.457  12.385
77369W        W42530   5.806  11.647   4.601
77370W        W42531  34.894  42.732  10.813
77371W        W42532   4.908  37.537   2.625
77372W        W42533  43.116   6.067   4.907
77373W        W42534  25.143  32.438   0.686
77374W        W42535  32.435   8.233  13.492
77375W        W42536  39.559   0.355  12.098
77376W        W42537  20.769  40.988  13.928
77377W        W42538   2.324  38.478   1.311
77378W        W42539   5.198  28.191  12.058
77379W        W42540  21.023  23.590  12.911
77380W        W42541   6.466   2.912  12.029
77381W        W42542  15.078  44.931   1.365
77382W        W42543  39.822   6.197   4.115
77383W        W42544  34.154  24.539  12.938
77384W        W42545  31.455  10.619   2.752
77385W        W42546  42.192   0.327   1.803
77386W        W42547  33.145  43.207   4.162
77387W        W42548  36.938  10.225  14.443
77388W        W42549  10.598  14.775   3.593
77389W        W42550  12.902  38.919   1.777
77390W        W42551  28.878  31.885  12.938
77391W        W42552  14.194   7.720   3.454
77392W        W42553   5.353  10.966  12.505
77393W        W42554  18.855  28.525  11.140
77394W        W42555  10.752   2.227  11.571
77395W        W42556   9.649   7.383   4.242
77396W        W42557  35.405   8.216  12.471
77397W        W42558  31.324  10.181  13.071
77398W        W42559  43.386  16.704   4.123
77399W        W42560   9.347  15.733   0.856
77400W        W42561  42.378  20.945  13.453
77401W        W42562  28.166  13.896  12.042
77402W        W42563  28.560  41.935   3.256
77403W        W42564  40.355  27.839  14.415
77404W        W42565  11.407   6.274   3.723
77405W        W42566   5.292  35.649  14.241
77406W        W42567   9.317  15.931   3.694
77407W        W42568  18.837   3.921   3.668
77408W        W42569  27.244  37.341  11.601
77409W        W42570  10.207   8.917  11.866
77410W        W42571   2.279  40.540  12.415
77411W        W42572  33.866   5.267  10.930
77412W        W42573  25.713  40.220   0.476
77413W        W42574  38.520  26.583  10.437
77414W        W42575  27.213  20.494  12.462
77415W        W42576  39.246  20.287  13.534
77416W        W42577  20.362  43.592  10.237
77417W        W42578  29.651  38.843  10.547
77418W        W42579  34.911  13.561   2.291
77419W        W42580  30.567  12.926   1.706
77420W        W42581   0.472  22.770  13.886
77421W        W42582   4.622   1.440   2.625
77422W        W42583   5.968  43.258   1.721
77423W        W42584  31.845  11.594  10.988
77424W        W42585  11.144   6.092  13.436
77425W        W42586   9.066  38.413   3.936
77426W        W42587   8.562  32.881  11.145
77427W        W42588  19.170  21.233   1.215
77428W        W42589   2.478  31.622  12.410
77429W        W42590  30.041  37.116  14.299
77430W        W42591  20.116  33.519   3.307
77431W        W42592  44.450  34.105   0.769
77432W        W42593  33.545  37.614   0.829
77433W        W42594   5.498  44.924  11.585
77434W        W42595  37.609   4.208   9.969
77435W        W42596  14.951  28.154   2.211
77436W        W42597  24.126  43.214  14.023
77437W        W42598  26.448  25.624   1.274
77438W        W42599   0.743  28.268  12.047
77439W        W42600  35.834  17.635   0.774
77440W        W42601  36.410  32.193  13.534
77441W        W42602  21.988  32.660  13.960
77442W        W42603  35.459  18.550  14.353
77443W        W42604  16.485  38.082   9.834
77444W        W42605  17.569  11.488  14.361
77445W        W42606   9.576   4.566   1.441
77446W        W42607  39.354  16.694   3.891
77447W        W42608  34.000  30.963   2.402
77448W        W42609   1.858  13.517   1.243
77449W        W42610   5.618  26.691   3.614
77450W        W42611  37.071  36.182  12.484
77451W        W42612   8.431  22.111   1.774
77452W        W42613  25.898  39.618  12.986
77453W        W42614  19.585  36.964   4.939
77454W        W42615  17.758  29.946  12.842
77455W        W42616  20.280   2.880  13.249
77456W        W42617  43.268   3.368   3.221
77457W        W42618  23.850  18.841   4.879
77458W        W42619  20.567  20.026  14.474
77459W        W42620   3.430  31.910  11.172
77460W        W42621   5.948  22.212   4.449
77461W        W42622   9.425   7.930   1.455
77462W        W42623  39.565   9.808  14.811
77463W        W42624  41.487  11.753   3.744
77464W        W42625  34.007  40.834  13.268
77465W        W42626   7.644  30.477   5.047
77466W        W42627   7.596  27.168   4.500
77467W        W42628  32.018  20.966  11.595
77468W        W42629   0.843  26.253  13.338
77469W        W42630  15.513   3.791   0.643
77470W        W42631   5.696  35.390  12.408
77471W        W42632  39.019  23.741   2.624
77472W        W42633  16.519   8.090   0.365
77473W        W42634  29.931  40.212   1.884
77474W        W42635   2.484   4.952  13.411
77475W        W42636  12.175  13.088  11.008
77476W        W42637  39.451   3.237  14.725
77477W        W42638  16.366  38.019   2.208
77478W        W42639   8.614  30.456  14.495
77479W        W42640  12.770  24.044   2.900
77480W        W42641  14.669  21.814   0.237
77481W        W42642  27.966  16.062  12.927
77482W        W42643  26.011  11.407   2.282
77483W        W42644  20.784  34.430   0.737
77484W        W42645  44.909   4.782   3.315
77485W        W42646  32.183  37.888   3.267
77486W        W42647  41.333  18.040  14.967
77487W        W42648  19.999  42.507   4.120
77488W        W42649  31.603  19.111  11.932
77489W        W42650   3.938  33.114  14.441
77490W        W42651  21.200   0.043   4.089
77491W        W42652  29.409  27.439  11.959
77492W        W42653   2.490  16.836  10.449
77493W        W42654   1.486  18.600   1.285
77494W        W42655  35.141  32.549  14.455
77495W        W42656  39.909   9.277   3.626
77496W        W42657  44.436  34.108   0.238
77497W        W42658  33.161  14.706  11.618
77498W        W42659  39.554  24.949   1.994
77499W        W42660  16.738  37.927   1.825
77500W        W42661  25.237  31.567   3.153
77501W        W42662  36.436  10.858  12.207
77502W        W42663  38.403   5.769  10.607
77503W        W42664  39.850  14.302  11.831
77504W        W42665  29.921  22.361   5.008
77505W        W42666  32.492  30.222  12.955
77506W        W42667   6.212  43.458  14.458
77507W        W42668  11.723  21.931   0.018
77508W        W42669  16.038  36.528   1.297
77509W        W42670  24.191  42.249  13.777
77510W        W42671   7.215  17.842  10.705
77511W        W42672   3.137  26.906  13.970
77512W        W42673  23.929  14.309  11.153
77513W        W42674  40.261  35.069   3.210
77514W        W42675  41.052  17.124  12.619
77515W        W42676  37.816   2.982  14.536
77516W        W42677  22.120  39.280   3.146
77517W        W42678   5.249   7.594   2.632
77518W        W42679  44.721  39.509   3.620
77519W        W42680  37.953  34.626  14.456
77520W        W42681  31.226  39.386  14.838
77521W        W42682  33.588  25.653  13.785
77522W        W42683  39.424  11.050  11.566
77523W        W42684  30.338  26.601  11.538
77524W        W42685  15.755  11.195  13.849
77525W        W42686   1.962  29.491   3.689
77526W        W42687   9.638  25.150  10.595
77527W        W42688  23.265  20.717   9.843
77528W        W42689  27.976  34.898  11.046
77529W        W42690   9.296  40.361   3.912
77530W        W42691  34.119  38.333   1.216
77531W        W42692   3.760   1.549   2.993
77532W        W42693  19.255  44.333  10.486
77533W        W42694  32.687  21.862   3.741
77534W        W42695  30.716  19.430   0.953
77535W        W42696  27.170  28.532   0.021
77536W        W42697  34.066   0.611   2.495
77537W        W42698  35.378  16.365  13.928
77538W        W42699  31.153  35.831   4.145
77539W        W42700  35.549  11.333  12.053
77540W        W42701  34.630  30.392  14.208
77541W        W42702  25.165  39.538   0.019
77542W        W42703  13.367  37.848   3.637
77543W        W42704  19.683  37.965   4.483
77544W        W42705   4.991  43.914  10.644
77545W        W42706  17.906  14.813  10.678
77546W        W42707  23.684  18.828  11.105
77547W        W42708  37.651  23.017   1.196
77548W        W42709  17.539  11.741  13.845
77549W        W42710  31.058  38.442  11.635
77550W        W42711  13.631  23.457  12.582
77551W        W42712  19.742  23.714  13.465
77552W        W42713  39.459  28.100  13.920
77553W        W42714   4.779  12.034  12.364
77554W        W42715  13.184  35.416   0.133
77555W        W42716  15.181  24.462  12.426
77556W        W42717   7.404   5.750  13.967
77557W        W42718  32.330   9.172   0.195
77558W        W42719  38.109  31.625   2.500
77559W        W42720  40.866  25.733   4.532
77560W        W42721  36.588   4.360   0.817
77561W        W42722  40.333  13.512  12.042
77562W        W42723  10.102  37.590   4.205
77563W        W42724   8.257  15.346  14.944
77564W        W42725  23.514  30.073   0.062
77565W        W42726  27.140  23.466  13.158
77566W        W42727  25.820  10.327   1.863
77567W        W42728  41.291   2.567  14.538
77568W        W42729  21.564  13.133   3.191
77569W        W42730   3.737  34.601   0.515
77570W        W42731   7.414  44.719   0.894
77571W        W42732  19.758  31.330  13.420
77572W        W42733  35.059  21.902   4.231
77573W        W42734  15.834   1.747   1.722
77574W        W42735   3.576  33.046  14.866
77575W        W42736  21.054  41.604  12.585
77576W        W42737  29.616  40.892  12.907
77577W        W42738  13.752  36.690  10.886
77578W        W42739  37.963  26.548   4.482
77579W        W42740   0.241  31.602  11.130
77580W        W42741  34.634  19.583  12.409
77581W        W42742  33.031  14.479   5.140
77582W        W42743  38.125   4.835  14.340
77583W        W42744  11.158   3.224  14.516
77584W        W42745   8.196   6.863   0.682
77585W        W42746  36.888  37.587  10.218
77586W        W42747  27.409  27.417  11.254
77587W        W42748  26.505  26.989  10.506
77588W        W42749  19.569  39.063   2.708
77589W        W42750  30.420  33.913   2.251
77590W        W42751  32.316  31.691   2.825
77591W        W42752   9.618  44.443   0.842
77592W        W42753  40.949  34.105  12.135
77593W        W42754   6.193   0.232  13.389
77594W        W42755   4.871  41.672  14.832
77595W        W42756   1.966  33.718   0.048
77596W        W42757  21.416  17.295  14.389
77597W        W42758   0.516   1.539  13.976
77598W        W42759  40.302  26.708  14.970
77599W        W42760  25.604   5.662  13.846
77600W        W42761  35.145   6.798  11.250
77601W        W42762  15.113  11.940   4.298
77602W        W42763  31.224   2.363   3.799
77603W        W42764  26.493  17.790   2.726
77604W        W42765   9.374  20.618  13.076
77605W        W42766  41.215  20.036  11.150
77606W        W42767  30.994  26.247   1.507
77607W        W42768  34.848  36.532   1.690
77608W        W42769  23.712   6.240   4.662
77609W        W42770   4.796  32.950  10.712
77610W        W42771  36.487  10.212  13.840
77611W        W42772  35.427  43.408   3.618
77612W        W42773   0.532   2.016  10.800
77613W        W42774  42.937  12.860  12.929
77614W        W42775  41.957  43.863  12.116
77615W        W42776   6.441  36.873  12.389
77616W        W42777  36.884  26.743   4.617
77617W        W42778  18.164   3.463  10.445
77618W        W42779  42.793   7.956  13.563
77619W        W42780  27.994   0.938  14.480
77620W        W42781  44.477   8.168   0.729
77621W        W42782  28.842   7.896  11.176
77622W        W42783  30.271   6.100  12.425
77623W        W42784  40.886  22.766   2.429
77624W        W42785  42.936   0.626   4.066
77625W        W42786  10.792  15.480  11.234
77626W        W42787  20.773  44.731  13.536
77627W        W42788  12.321  22.016  12.989
77628W        W42789  30.223  33.968  14.067
77629W        W42790   0.901  40.303  14.385
77630W        W42791  21.536  35.559   1.303
77631W        W42792   7.747  34.195  14.454
77632W        W42793  22.129   6.517   2.944
77633W        W42794  28.006   1.378   0.743
77634W        W42795  40.153  37.371   0.812
77635W        W42796  17.492  15.705  10.774
77636W        W42797  36.185  17.833   3.636
77637W        W42798  11.194  42.843   0.251
77638W        W42799  25.824  12.443  11.331
77639W        W42800  37.477   9.390   0.840
77640W        W42801  35.949   0.773   3.681
77641W        W42802   4.522   9.933  13.542
77642W        W42803  22.995  44.451   1.237
77643W        W42804  19.233  27.757  11.183
77644W        W42805  29.663   8.051  11.271
77645W        W42806  15.793   0.406   0.350
77646W        W42807   7.662   4.477  11.536
77647W        W42808   6.801  22.643  10.697
77648W        W42809   8.740  21.166   2.742
77649W        W42810   0.794  21.593   4.452
77650W        W42811  20.715  28.676  13.058
77651W        W42812  43.812  33.839   4.185
77652W        W42813  43.725  21.215  12.141
77653W        W42814   8.832  19.566   0.903
77654W        W42815  19.891  29.470   3.368
77655W        W42816  17.154   2.271  12.799
77656W        W42817  10.928  28.357   2.705
77657W        W42818  23.260  33.985   0.164
77658W        W42819  35.406  34.925   4.500
77659W        W42820  13.435  15.004   0.293
77660W        W42821   8.147  29.111   2.290
77661W        W42822  40.420  20.966   1.202
77662W        W42823  22.628   9.663  11.959
77663W        W42824  25.474  44.267   2.139
77664W        W42825  25.964  21.575  11.504
77665W        W42826   7.363  11.244   1.422
77666W        W42827  32.040  33.927  14.815
77667W        W42828  12.252  20.662  11.071
77668W        W42829  41.007   8.473   2.421
77669W        W42830  13.830  26.572   0.188
77670W        W42831  32.005  17.209  10.470
77671W        W42832  36.934  34.379   4.395
77672W        W42833  24.975  13.624   0.788
77673W        W42834  40.818  20.617   0.981
77674W        W42835  33.570   3.859  13.456
77675W        W42836  34.602  44.345   2.144
77676W        W42837  24.102  10.271   3.125
77677W        W42838  34.251  41.951   4.435
77678W        W42839  16.243  32.020  13.918
77679W        W42840   9.334  31.199  11.146
77680W        W42841  10.575  14.742   0.835
77681W        W42842   5.988   3.355   1.360
77682W        W42843  16.034  27.939  12.103
77683W        W42844  41.782   2.564  10.653
77684W        W42845  35.510   8.447   3.226
77685W        W42846  27.433   3.008   1.741
77686W        W42847  18.518  10.396  10.790
77687W        W42848  15.842  44.988   1.744
77688W        W42849   5.204  32.288   4.569
77689W        W42850  18.038  27.648  14.851
77690W        W42851  29.645  11.553  14.190
77691W        W42852   5.336   7.082   0.372
77692W        W42853   9.303  25.981  11.043
77693W        W42854  14.423  19.300  13.041
77694W        W42855  10.298  24.949  13.936
77695W        W42856  44.926  11.106  12.476
77696W        W42857  23.741  13.750   4.361
77697W        W42858  20.818  29.581  11.557
77698W        W42859  15.671  11.352   4.537
77699W        W42860  18.352  17.412   1.446
77700W        W42861  29.221  15.124   3.074
77701W        W42862  15.259  16.322   4.018
77702W        W42863  24.483  36.816  12.531
77703W        W42864   6.678  29.683  10.283
77704W        W42865  21.090   7.776  10.752
77705W        W42866   0.723  41.334  12.960
77706W        W42867  12.151  36.339   1.738
77707W        W42868  24.811  44.375  10.451
77708W        W42869   9.611  32.150   0.665
77709W        W42870  11.719   7.073   0.287
77710W        W42871   1.015  28.202  13.343
77711W        W42872  23.187   0.947  11.848
77712W        W42873  15.250  29.996   1.969
77713W        W42874  13.161  24.434  10.766
77714W        W42875  17.721  43.385   4.430
77715W        W42876  25.766  42.080   4.170
77716W        W42877   1.848   6.051   0.429
77717W        W42878  27.119  13.153   2.779
77718W        W42879  37.033  34.359   3.878
77719W        W42880   3.462  12.257  10.559
77720W        W42881   7.990  17.572  13.962
77721W        W42882  26.165  35.920  11.571
77722W        W42883  33.832  39.987  13.050
77723W        W42884  16.736  38.608  11.431
77724W        W42885  38.114  32.423   1.649
77725W        W42886   5.121  40.026   0.171
77726W        W42887  30.044  22.474  11.194
77727W        W42888   1.779  42.395   3.906
77728W        W42889   3.418  36.873   1.273
77729W        W42890  36.351  15.702   3.539
77730W        W42891   9.746   3.934   3.689
77731W        W42892   5.572  26.846  12.554
77732W        W42893  16.539  22.537  11.983
77733W        W42894  29.840  20.724   2.289
77734W        W42895  20.715   1.009  14.852
77735W        W42896  38.086  26.373  10.259
77736W        W42897  37.312  26.908  14.819
77737W        W42898  21.046  36.871  13.960
77738W        W42899   5.924  26.422   0.170
77739W        W42900  44.114  22.744   4.829
77740W        W42901   3.638  40.134   3.104
77741W        W42902   4.931  41.406   1.233
77742W        W42903   5.387   9.204  11.458
77743W        W42904   5.916  38.381  13.327
77744W        W42905  16.048   4.411   4.589
77745W        W42906  41.511  17.796  10.562
77746W        W42907  30.450  42.734  13.137
77747W        W42908  26.215  23.067   1.679
77748W        W42909   2.909  29.064  11.662
77749W        W42910  26.640  15.228   5.079
77750W        W42911   0.652  22.652   4.831
77751W        W42912  30.360  28.213  11.113
77752W        W42913  15.257  37.651  14.904
77753W        W42914  26.820  16.157   9.852
77754W        W42915  10.504  23.490  10.122
77755W        W42916  38.106  44.029  10.591
77756W        W42917  35.797  27.135   1.317
77757W        W42918  12.329  38.500  13.145
77758W        W42919   0.955  11.154   5.036
77759W        W42920  39.134  24.447   1.745
77760W        W42921   5.083   2.479  11.306
77761W        W42922  39.960  15.789  14.590
77762W        W42923  15.941  34.363   0.923
77763W        W42924  39.740  28.530  11.693
77764W        W42925  34.682  32.426  10.676
77765W        W42926   4.736  24.120  11.436
77766W        W42927  44.180  22.976   2.541
77767W        W42928  34.691  39.356  12.800
77768W        W42929  41.510  31.926  12.477
77769W        W42930  38.594   2.823   2.186
77770W        W42931  18.368  33.875   3.444
77771W        W42932   1.760  20.747  10.830
77772W        W42933   5.825  11.758   2.381
77773W        W42934  44.236  44.397  11.900
77774W        W42935  17.570  24.704   0.425
77775W        W42936   4.340  36.822   1.149
77776W        W42937  13.730   5.929   4.765
77777W        W42938  35.869   2.914  13.894
77778W        W42939  26.639  13.802   0.049
77779W        W42940  16.307   3.748   1.186
77780W        W42941  13.746  13.830  12.667
77781W        W42942  37.592  15.115  13.442
77782W        W42943  42.842  17.437   4.287
77783W        W42944   0.043  12.858   1.724
77784W        W42945  35.852  24.596   4.139
77785W        W42946   3.013  11.260   2.285
77786W        W42947   1.331  14.824   2.918
77787W        W42948  17.459  25.717   2.542
77788W        W42949  39.440  22.657  11.857
77789W        W42950  43.697  28.844  10.988
77790W        W42951   2.488   8.461  14.546
77791W        W42952   6.434   7.724   2.313
77792W        W42953   3.049  14.108   1.677
77793W        W42954  23.478  36.623   3.103
77794W        W42955   9.721  10.802  11.555
77795W        W42956   1.338  10.665   2.917
77796W        W42957   7.720  17.670   2.120
77797W        W42958  30.939   6.335   3.537
77798W        W42959   9.649   2.207   0.662
77799W        W42960  15.104  30.408  14.032
77800W        W42961   5.882   4.276  13.001
77801W        W42962  32.961   1.345   2.236
77802W        W42963  37.744   9.678  11.094
77803W        W42964   0.362  30.226  11.200
77804W        W42965  14.381  31.443  11.075
77805W        W42966  13.239  16.103   4.189
77806W        W42967  24.050   1.393   0.899
77807W        W42968   5.465  20.323  14.451
77808W        W42969  35.476  38.792   4.017
77809W        W42970  40.143  19.465   2.899
77810W        W42971  38.543   1.506  12.056
77811W        W42972  31.378  37.706  12.531
77812W        W42973  12.598  33.603  11.698
77813W        W42974  16.793  27.463   4.623
77814W        W42975  27.218   2.419  12.026
77815W        W42976  10.276   1.956  14.980
77816W        W42977  13.885  31.689  12.153
77817W        W42978  32.512  17.835   1.650
77818W        W42979   2.207  29.616   0.413
77819W        W42980   7.477  25.653  14.321
77820W        W42981   6.367  44.216   1.807
77821W        W42982  34.132  21.788   4.132
77822W        W42983  25.141  10.327   0.373
77823W        W42984  28.034  16.073   3.300
77824W        W42985  34.621   9.391   2.708
77825W        W42986  23.320  43.046   0.115
77826W        W42987   8.745  32.446   3.281
77827W        W42988   2.628  38.505   3.427
77828W        W42989  31.102  30.708   0.744
77829W        W42990  22.017  19.323  14.777
77830W        W42991   6.897   2.803   0.566
77831W        W42992   0.552  16.701  14.024
77832W        W42993  12.882   1.310  11.618
77833W        W42994  25.675  33.058   2.729
77834W        W42995   1.828   5.196   2.822
77835W        W42996  32.777  42.585  14.574
77836W        W42997  30.110  13.642  12.645
77837W        W42998  36.915  27.089  10.342
77838W        W42999   0.599  21.628  14.771
77839W        W43000  22.750  42.698  10.669
77840W        W43001  23.489   2.012  14.818
77841W        W43002  34.724  25.728   2.368
77842W        W43003  37.595  15.579   2.932
77843W        W43004  42.819   7.352  14.294
77844W        W43005  43.703  35.427   1.031
77845W        W43006  15.082  25.240  12.092
77846W        W43007  11.680   9.169   1.694
77847W        W43008   4.679  30.287   3.706
77848W        W43009  32.128  15.408   5.062
77849W        W43010  38.983   1.079   4.618
77850W        W43011  29.353  24.123  10.290
77851W        W43012  20.153  29.129   4.685
77852W        W43013   0.281  30.200  13.845
77853W        W43014  18.382  26.032  14.735
77854W        W43015  20.464  11.210   1.316
77855W        W43016  42.379  20.169  13.751
77856W        W43017   3.843   4.321   0.480
77857W        W43018  39.469  10.434  14.042
77858W        W43019  25.190   9.790  11.153
77859W        W43020  13.312  29.144  11.466
77860W        W43021  21.535  16.944  10.198
77861W        W43022  35.343  31.115   3.876
77862W        W43023  44.585  29.205  14.004
77863W        W43024  39.857  13.365   2.847
77864W        W43025  26.374  15.354   0.787
77865W        W43026  10.104   4.618   2.303
77866W        W43027  33.414  44.471  12.443
77867W        W43028  23.479   3.017   1.031
77868W        W43029  35.663   0.068   1.889
77869W        W43030  32.254  22.666  13.805
77870W        W43031   1.168   3.947   4.760
77871W        W43032  32.431  35.072  12.367
77872W        W43033  20.550  35.336  10.713
77873W        W43034   6.741   8.107   4.243
77874W        W43035  12.319   4.365  11.119
77875W        W43036   2.305  13.116  12.462
77876W        W43037  16.366  28.061   4.172
77877W        W43038  42.093  39.383  14.968
77878W        W43039   2.702  10.349   0.365
77879W        W43040  39.824  44.503   1.751
77880W        W43041  13.772  30.003  12.401
77881W        W43042  38.231   0.532   1.697
77882W        W43043  29.903   3.539   1.371
77883W        W43044  23.631  24.885  13.938
77884W        W43045  40.663   5.752   0.530
77885W        W43046   6.779  20.638   2.916
77886W        W43047  41.155  10.905   3.517
77887W        W43048  25.504   0.365   2.187
77888W        W43049  20.173  28.675  10.427
77889W        W43050  41.808  44.209  12.468
77890W        W43051  32.876  14.232  14.791
77891W        W43052  27.135   0.100   0.986
77892W        W43053  33.456  44.481  13.659
77893W        W43054  22.690  28.173  14.010
77894W        W43055   6.478  31.562  12.955
77895W        W43056   4.729  33.351  13.814
77896W        W43057  16.751   4.637   1.971
77897W        W43058   7.486  22.938   2.186
77898W        W43059  27.609  12.396  12.623
77899W        W43060  22.865   8.285   4.145
77900W        W43061  26.351  15.146  13.975
77901W        W43062  17.857  25.752  12.467
77902W        W43063  14.107  39.241  10.682
77903W        W43064  37.919  25.180  11.921
77904W        W43065   7.977  19.262  13.393
77905W        W43066  20.762  20.298   0.781
77906W        W43067  13.356  18.125   3.297
77907W        W43068  29.976  21.696  13.513
77908W        W43069   6.864  21.971  11.831
77909W        W43070  12.827  34.046   2.765
77910W        W43071  18.909  38.414  14.485
77911W        W43072  36.794  18.557  14.120
77912W        W43073  41.591  27.041  11.842
77913W        W43074  41.607  18.575   1.807
77914W        W43075  36.846   0.663   1.962
77915W        W43076  15.635  15.194  10.232
77916W        W43077  38.564  24.192  11.227
77917W        W43078   0.844   7.116  10.802
77918W        W43079  13.343  15.552   1.740
77919W        W43080  15.794  28.222  12.477
77920W        W43081  21.095  33.649  14.873
77921W        W43082  25.669  19.953   4.010
77922W        W43083   4.989  42.415  10.034
77923W        W43084  33.345  41.459   2.345
77924W        W43085  18.599   5.470   0.649
77925W        W43086  19.926  13.681   3.709
77926W        W43087  39.151  37.409  13.811
77927W        W43088   0.321  14.474   4.908
77928W        W43089  43.376  41.605  12.088
77929W        W43090   5.756  44.939  11.141
77930W        W43091  28.315  22.974   4.001
77931W        W43092  20.452   4.699   3.985
77932W        W43093  24.993  40.552   1.905
77933W        W43094  25.259  26.498   4.739
77934W        W43095   1.407  35.601  13.838
77935W        W43096  16.187   3.400  13.064
77936W        W43097   0.005  41.022  14.052
77937W        W43098  43.975  32.636   1.758
77938W        W43099  39.031  32.226   4.197
77939W        W43100  24.890   6.664  13.118
77940W        W43101  40.264  41.015   1.659
77941W        W43102  43.574  33.431  12.360
77942W        W43103  14.868  24.564  10.713
77943W        W43104  10.703  21.173  13.063
77944W        W43105  37.830   1.487   2.189
77945W        W43106  11.447  28.098  12.222
77946W        W43107  31.650  38.817   0.981
77947W        W43108  44.442  12.720  14.251
77948W        W43109  44.258  34.379  12.042
77949W        W43110  13.843  11.865  13.947
77950W        W43111  31.501  37.631  14.781
77951W        W43112   9.338   1.211  10.885
77952W        W43113   6.281   9.888  14.820
77953W        W43114  27.166  44.429  10.707
77954W        W43115  17.767  36.717   1.830
77955W        W43116  34.899  18.336   2.072
77956W        W43117   3.848  29.657  11.511
77957W        W43118  32.742  17.191  13.589
77958W        W43119  25.978  21.179   4.744
77959W        W43120   7.354  15.575   1.232
77960W        W43121  18.089  41.461   1.968
77961W        W43122  11.321  10.607  13.540
77962W        W43123  31.838   5.922  11.858
77963W        W43124  34.887   8.185   4.587
77964W        W43125   7.167   6.621  12.901
77965W        W43126  25.606  43.312   2.298
77966W        W43127   9.132  20.454  13.526
77967W        W43128  29.551  22.816   2.347
77968W        W43129  39.562  33.190   2.245
77969W        W43130  44.460  32.513   1.887
77970W        W43131  17.344   1.288  14.800
77971W        W43132  19.085  42.465   3.893
77972W        W43133  40.770  10.810   2.123
77973W        W43134  32.619  16.651   2.896
77974W        W43135   0.001  21.218   1.378
77975W        W43136  29.392   3.749  11.371
77976W        W43137  16.724  33.429   4.140
77977W        W43138  16.323  37.488   2.183
77978W        W43139  30.857  44.933   2.924
77979W        W43140   4.832  27.673  14.767
77980W        W43141  31.569  19.159   3.501
77981W        W43142  25.075  16.096  11.720
77982W        W43143  37.063   4.432  11.583
77983W        W43144  16.665  11.352  11.678
77984W        W43145  34.599  23.012   0.247
77985W        W43146  44.334  22.651  11.598
77986W        W43147  42.781  37.152  12.448
77987W        W43148  26.187  19.089   3.164
77988W        W43149  30.487  18.279  11.005
77989W        W43150   8.723  29.550  12.500
77990W        W43151  39.594  30.555  10.734
77991W        W43152  10.357  10.190   1.144
77992W        W43153  33.577  11.688   4.162
77993W        W43154  24.702   5.143   2.323
77994W        W43155  18.920   9.079  11.116
77995W        W43156  29.991  38.345   2.449
77996W        W43157  41.833  44.003  11.187
77997W        W43158  38.939  28.501  13.774
77998W        W43159  44.951  15.702  13.741
77999W        W43160  25.277  27.657  10.675
78000W        W43161   1.585  21.730   0.006
78001W        W43162  27.996  29.936  12.492
78002W        W43163   9.155   5.117  11.923
78003W        W43164  39.702  35.085  14.983
78004W        W43165  19.903  26.779  10.387
78005W        W43166  13.974  21.141   4.987
78006W        W43167  36.867  28.948   2.880
78007W        W43168  21.548  43.264  12.495
78008W        W43169  32.223  17.824   2.429
78009W        W43170  12.371  22.708   1.006
78010W        W43171  43.818  18.667  10.783
78011W        W43172  16.677  28.353   2.755
78012W        W43173  23.340  25.791   2.843
78013W        W43174  41.558  26.499  10.653
78014W        W43175  26.515  18.687   0.303
78015W        W43176  14.228  34.829  12.920
78016W        W43177  33.069  19.531  14.240
78017W        W43178   3.722  31.935  11.605
78018W        W43179  34.116  40.797   2.310
78019W        W43180  29.079   0.210  10.835
78020W        W43181  11.274  35.259   1.870
78021W        W43182  22.228  15.767   1.252
78022W        W43183  41.387  20.611   3.668
78023W        W43184  24.515   7.535   3.243
78024W        W43185  27.820  10.692   3.113
78025W        W43186  13.244  30.775  12.605
78026W        W43187   8.682  32.871   2.718
78027W        W43188  32.480   3.109  11.916
78028W        W43189  24.154  27.977  14.936
78029W        W43190  30.497   2.240  12.588
78030W        W43191   4.702  26.531   3.633
78031W        W43192  17.818   8.620   4.159
78032W        W43193  24.006  33.497  10.709
78033W        W43194   9.603   4.831  10.582
78034W        W43195  26.489  30.286   0.375
78035W        W43196  26.465  31.258   1.234
78036W        W43197  15.139  17.952  13.962
78037W        W43198   0.224  22.173  10.813
78038W        W43199  35.197  10.829   2.894
78039W        W43200   5.888  35.609  11.098
78040W        W43201  11.331   6.615  11.437
78041W        W43202  18.006  20.327   1.133
78042W        W43203  21.375  15.772  12.653
78043W        W43204  35.602   6.595  11.289
78044W        W43205   6.374  37.782   3.590
78045W        W43206  26.082  39.933   2.901
78046W        W43207  29.521  22.054   1.798
78047W        W43208  32.635   4.924   0.738
78048W        W43209  38.865  29.224  13.249
78049W        W43210  20.572  22.048  14.625
78050W        W43211  28.256  23.715  11.554
78051W        W43212  11.617  14.765   3.700
78052W        W43213  39.047  31.058  13.125
78053W        W43214  38.937  44.559  14.424
78054W        W43215   9.397   4.327  14.466
78055W        W43216  18.043  25.935  14.317
78056W        W43217   8.049  22.999  13.404
78057W        W43218  41.542   2.440  14.041
78058W        W43219  28.448  18.991  12.855
78059W        W43220  30.434  40.257   1.770
78060W        W43221  23.540   2.069   0.912
78061W        W43222  22.852   1.298  11.636
78062W        W43223   6.679  43.195  11.158
78063W        W43224   4.709  39.720  11.231
78064W        W43225  15.811  40.243  14.342
78065W        W43226  25.925  12.140  13.147
78066W        W43227  19.476  32.035   2.802
78067W        W43228  10.879  35.567   0.759
78068W        W43229  42.449  19.785  14.085
78069W        W43230  22.185  19.522   3.133
78070W        W43231  41.901   9.948  14.788
78071W        W43232  37.410  44.558   3.167
78072W        W43233  26.581  29.974  13.497
78073W        W43234  26.587   5.860  10.516
78074W        W43235   3.327   2.730  14.529
78075W        W43236   2.025  23.414  12.070
78076W        W43237  44.030  30.882  13.465
78077W        W43238  19.140   4.981   2.784
78078W        W43239   1.754  37.797   1.044
78079W        W43240  40.523   1.089  11.525
78080W        W43241  11.761  26.214   3.274
78081W        W43242  44.254  32.961  14.853
78082W        W43243  23.455  31.670   2.962
78083W        W43244  32.494  43.201  11.636
78084W        W43245  21.372  11.352   2.221
78085W        W43246   8.142  24.071  13.006
78086W        W43247  22.600  19.480   3.737
78087W        W43248  17.812  40.032   1.391
78088W        W43249  30.666   9.857  11.126
78089W        W43250  40.802   5.743  13.789
78090W        W43251  44.686  35.391  10.716
78091W        W43252  37.257  29.475   4.667
78092W        W43253  34.955  41.988  14.046
78093W        W43254  31.485  19.767  11.215
78094W        W43255  34.144  27.152   3.340
78095W        W43256   7.584   3.513  12.401
78096W        W43257  10.183  30.515   3.677
78097W        W43258  13.319  11.218  14.832
78098W        W43259  13.290  18.631   2.432
78099W        W43260  32.979   6.191  13.766
78100W        W43261  44.774   2.835   3.863
78101W        W43262  32.376  41.600  11.253
78102W        W43263  25.909  40.912  11.567
78103W        W43264   4.682  40.294   3.311
78104W        W43265  44.878  17.273  11.916
78105W        W43266  26.416  19.679   1.294
78106W        W43267  26.162  13.580  11.581
78107W        W43268  17.042  20.568  13.921
78108W        W43269  38.735  30.442  10.201
78109W        W43270  23.444   5.421  13.939
78110W        W43271  12.261  12.419  12.889
78111W        W43272  12.377  44.035  14.268
78112W        W43273  38.744  32.093   1.970
78113W        W43274  13.573   2.715  11.116
78114W        W43275  10.696   8.831  11.676
78115W        W43276  35.544  35.720   1.718
78116W        W43277  17.014  35.418   1.252
78117W        W43278  19.456  41.425  14.107
78118W        W43279  14.177  25.467   1.399
78119W        W43280  21.651  19.668  13.368
78120W        W43281  11.270   0.283  10.617
78121W        W43282  10.060  11.676   2.692
78122W        W43283   6.272  37.274   4.642
78123W        W43284  32.914   1.609   0.756
78124W        W43285  38.959  43.353  12.108
78125W        W43286  14.799   2.646  12.963
78126W        W43287   2.735  31.977  13.432
78127W        W43288  18.489  34.263  13.546
78128W        W43289  20.150  38.356   0.229
78129W        W43290   9.175  19.194   0.737
78130W        W43291  38.883  34.105  11.992
78131W        W43292  32.589  19.596  14.687
78132W        W43293   8.583  29.022  12.473
78133W        W43294  29.077   2.835  13.955
78134W        W43295  22.583  33.842  11.031
78135W        W43296  36.336   4.502  14.245
78136W        W43297  25.365   7.294   3.507
78137W        W43298  28.816   5.709  14.477
78138W        W43299  16.716   6.149   1.718
78139W        W43300   7.657  12.627   0.430
78140W        W43301  15.406  33.917   2.904
78141W        W43302   2.386  23.490  13.088
78142W        W43303  12.847  14.359   2.391
78143W        W43304   3.652  11.699   0.795
78144W        W43305  19.779  11.388  13.951
78145W        W43306  20.124  42.898   0.056
78146W        W43307   8.826  22.734  13.464
78147W        W43308   2.028  35.547   4.590
78148W        W43309   7.900   7.339   0.466
78149W        W43310  20.478  27.548   1.748
78150W        W43311  38.407  41.751  13.402
78151W        W43312  32.418  24.967   4.478
78152W        W43313  41.934  18.564   3.397
78153W        W43314  23.107  39.837  14.144
78154W        W43315  28.378  33.593  10.427
78155W        W43316  12.798  35.471   3.096
78156W        W43317   7.822  16.857   0.955
78157W        W43318  31.108   2.186   3.302
78158W        W43319  21.527  30.983   2.072
78159W        W43320  34.239  19.570   1.763
78160W        W43321  14.364   1.046  11.440
78161W        W43322   3.943  17.893  14.627
78162W        W43323  13.870  10.790   2.232
78163W        W43324  11.258  20.608  10.616
78164W        W43325  18.886   6.245   0.214
78165W        W43326   3.235  15.179   0.983
78166W        W43327  29.072  38.271   3.807
78167W        W43328   1.475  44.213   3.093
78168W        W43329  31.375  23.140  11.960
78169W        W43330  26.604  36.182   2.803
78170W        W43331  37.868  14.231  12.044
78171W        W43332  44.298  20.272   2.156
78172W        W43333   0.351  34.092   2.346
78173W        W43334  39.769  10.797   0.075
78174W        W43335   1.885  22.533  13.443
78175W        W43336  15.239  22.536  11.463
78176W        W43337  42.835  10.643  13.822
78177W        W43338  21.128  39.363   4.020
78178W        W43339  11.657  29.172  12.457
78179W        W43340  21.636  19.673   1.684
78180W        W43341   2.201  44.511  11.983
78181W        W43342  34.357  26.254   3.148
78182W        W43343   3.948  14.766   2.417
78183W        W43344  11.330  44.904  14.367
78184W        W43345  12.680  26.699   3.184
78185W        W43346  40.829   5.026  11.091
78186W        W43347   2.529   5.368   3.713
78187W        W43348  44.770  15.243  13.959
78188W        W43349  23.407  16.522  11.118
78189W        W43350  14.074  18.041   0.900
78190W        W43351  25.034  24.435   0.475
78191W        W43352  20.249  22.115   4.217
78192W        W43353  18.040  42.528   2.686
78193W        W43354   0.763  30.564  11.118
78194W        W43355  17.706  13.819  10.512
78195W        W43356  15.189  13.758  12.161
78196W        W43357  29.624  44.998  13.087
78197W        W43358  21.475  37.641  12.382
78198W        W43359  12.686  10.644   1.321
78199W        W43360  44.469   5.016  11.698
78200W        W43361  42.100  43.753   2.407
78201W        W43362   3.900  16.532  13.350
78202W        W43363  16.353  42.770  13.880
78203W        W43364  24.251  26.962   0.842
78204W        W43365  32.519  36.811  13.813
78205W        W43366  40.755  30.638   1.708
78206W        W43367   5.157  32.603   2.302
78207W        W43368  11.308  10.928   3.831
78208W        W43369  14.674  21.938   1.145
78209W        W43370  32.013  32.719  12.425
78210W        W43371  36.796   5.987  14.286
78211W        W43372  35.257  27.520  12.528
78212W        W43373  28.989  33.358  11.740
78213W        W43374  20.579  13.677  10.617
78214W        W43375   3.844  12.860  11.653
78215W        W43376  27.492  21.653  10.583
78216W        W43377  30.972  23.053  13.796
78217W        W43378  15.831  31.402  12.522
78218W        W43379  19.680  21.153  13.358
78219W        W43380  41.025  24.188   4.718
78220W        W43381  23.461  34.348  11.126
78221W        W43382  18.134  33.283   1.282
78222W        W43383  27.152  28.022  11.966
78223W        W43384  29.777  10.939   3.222
78224W        W43385  19.489  10.141  10.665
78225W        W43386  25.643  38.861  10.315
78226W        W43387  41.983  38.999  10.619
78227W        W43388  12.829  23.174  13.834
78228W        W43389  37.900  28.942  12.920
78229W        W43390  32.145  22.573   9.843
78230W        W43391   7.913  34.166   4.003
78231W        W43392  16.773  41.326  12.048
78232W        W43393   7.851   5.005  13.888
78233W        W43394  10.734  35.654  14.017
78234W        W43395  44.377   5.187   4.102
78235W        W43396   9.820   9.251   4.155
78236W        W43397  40.065   5.379  13.517
78237W        W43398  32.677  12.112  14.393
78238W        W43399  31.649  19.241  12.906
78239W        W43400  40.885  20.227  11.623
78240W        W43401  27.805  44.203  13.414
78241W        W43402  32.302  19.769   3.144
78242W        W43403  17.127  15.066  14.945
78243W        W43404   4.413  16.745   0.478
78244W        W43405  36.566  39.359  10.728
78245W        W43406  19.434  40.479  13.071
78246W        W43407  43.355  19.095   2.329
78247W        W43408  43.868  28.853   3.680
78248W        W43409  28.855  21.607   3.445
78249W        W43410  13.760   9.636   2.791
78250W        W43411  16.793  26.042   3.265
78251W        W43412  38.837  41.140   3.232
78252W        W43413   8.184  25.604   4.473
78253W        W43414   8.277  15.097  12.435
78254W        W43415  39.328  38.091   0.786
78255W        W43416   5.872  24.077  13.705
78256W        W43417  15.571  36.009  12.674
78257W        W43418  13.622   0.009   2.339
78258W        W43419  43.756  35.095   5.511
78259W        W43420  28.054  37.819   3.698
78260W        W43421   6.699  12.238   4.662
78261W        W43422  44.929  26.088  12.371
78262W        W43423   1.144  11.632   4.938
78263W        W43424  15.178  12.114   0.057
78264W        W43425  13.192  27.065   2.806
78265W        W43426  24.301  15.294   4.140
78266W        W43427  40.604  13.771  12.496
78267W        W43428  27.948  27.805  11.120
78268W        W43429   2.011  41.976   3.343
78269W        W43430  29.664  18.808   0.397
78270W        W43431   6.380  12.591  10.304
78271W        W43432   3.749  21.001  10.465
78272W        W43433   6.487  12.279  13.324
78273W        W43434   1.913  20.074  11.991
78274W        W43435  39.974  20.967   1.909
78275W        W43436  18.500  14.557   3.317
78276W        W43437  32.553   4.136  14.855
78277W        W43438  42.429   8.056  11.749
78278W        W43439  39.318  29.631   0.143
78279W        W43440   0.726  43.380  14.851
78280W        W43441  25.902  43.898  14.258
78281W        W43442   0.513  21.437  13.544
78282W        W43443  14.301  41.520  11.915
78283W        W43444  23.479  29.681  13.816
78284W        W43445  26.263  19.081  14.428
78285W        W43446   9.621  41.474  14.830
78286W        W43447   3.137  28.334   0.656
78287W        W43448  44.263   5.892  12.222
78288W        W43449  39.577   5.650   2.959
78289W        W43450  15.791  15.108  14.446
78290W        W43451   6.504  30.243  14.485
78291W        W43452  23.522   3.441   2.190
78292W        W43453  17.221  41.090   1.089
78293W        W43454  29.934  32.691  14.080
78294W        W43455  19.237  27.984   4.727
78295W        W43456  35.587  33.547   2.618
78296W        W43457  16.627  28.531   0.965
78297W        W43458   0.134  36.290  12.960
78298W        W43459  39.660  19.729   3.668
78299W        W43460  13.092  40.752   3.553
78300W        W43461  34.586   8.770   1.424
78301W        W43462  35.874  44.406  13.906
78302W        W43463   6.348   0.950   4.584
78303W        W43464  11.092  18.684  14.027
78304W        W43465  31.177  31.674   4.106
78305W        W43466  25.128  44.422   3.274
78306W        W43467  13.679  17.148   0.980
78307W        W43468  41.559   6.740  13.092
78308W        W43469  26.720  28.745  10.698
78309W        W43470  32.114  29.176   3.671
78310W        W43471   4.035  23.612  14.697
78311W        W43472  12.345  21.673  14.440
78312W        W43473  22.425  16.644   2.241
78313W        W43474  24.007  21.156   4.985
78314W        W43475  38.262  34.072   0.386
78315W        W43476  21.428   9.630  10.619
78316W        W43477  39.284  26.876   4.820
78317W        W43478  15.103  22.050   0.481
78318W        W43479   4.396  27.172  13.482
78319W        W43480  31.486  37.122   0.777
78320W        W43481  34.597  14.216  11.653
78321W        W43482  37.758  18.692   0.769
78322W        W43483  17.621  27.556   3.278
78323W        W43484  10.788  31.143   1.533
78324W        W43485  21.704  40.871   1.634
78325W        W43486   5.807  30.102  11.246
78326W        W43487   9.563  40.914   2.949
78327W        W43488  29.955  40.315   3.724
78328W        W43489   8.204   3.815  13.315
78329W        W43490  15.563   7.099   0.239
78330W        W43491  36.745  10.790   3.988
78331W        W43492  20.840   7.754  12.093
78332W        W43493  25.434   4.259   0.306
78333W        W43494  21.437   8.386   3.238
78334W        W43495  19.079  30.706  10.324
78335W        W43496   4.410   8.709   4.381
78336W        W43497  42.854  35.095   4.464
78337W        W43498  10.325  35.968   4.651
78338W        W43499   5.911  41.290  14.968
78339W        W43500  21.838   7.802  14.977
78340W        W43501   3.677  44.424  13.817
78341W        W43502   6.088  23.267   0.586
78342W        W43503  39.048  32.605  14.936
78343W        W43504  29.422  42.945   1.266
78344W        W43505  21.422  12.432  13.442
78345W        W43506  40.387  10.368  13.097
78346W        W43507   9.938  13.793  14.048
78347W        W43508  28.967  15.964   3.264
78348W        W43509  14.841  16.259  13.039
78349W        W43510   0.945  42.449   4.088
78350W        W43511   7.367  14.864   0.963
78351W        W43512  20.035  34.435   3.295
78352W        W43513   1.872  20.150  10.694
78353W        W43514  33.872  29.817  11.608
78354W        W43515  17.623  19.602   2.388
78355W        W43516  33.675  30.164  11.062
78356W        W43517  10.224  44.544  11.186
78357W        W43518  15.017  43.740  12.070
78358W        W43519  24.574   5.864  10.642
78359W        W43520  43.932  42.128  11.060
78360W        W43521  14.660   4.786   2.314
78361W        W43522  26.913   9.051   0.243
78362W        W43523  28.987  10.743   0.968
78363W        W43524  41.866  10.896   2.824
78364W        W43525  16.233   5.474   1.420
78365W        W43526   5.144  13.793  11.662
78366W        W43527  38.074  37.964  12.008
78367W        W43528  32.410   3.784   5.095
78368W        W43529  40.878   3.477   3.806
78369W        W43530  38.657  19.928   2.233
78370W        W43531  18.362   5.649   4.109
78371W        W43532  13.599   8.767   2.610
78372W        W43533   6.629   9.306  14.376
78373W        W43534  10.344  31.295  12.067
78374W        W43535  41.817  21.193   2.898
78375W        W43536   6.771  38.579  13.909
78376W        W43537   7.389  32.867   3.694
78377W        W43538  24.457   4.066   0.592
78378W        W43539   0.280  17.261  12.508
78379W        W43540  28.355  44.559  14.500
78380W        W43541   2.775   6.779  11.578
78381W        W43542  33.939   5.730   0.254
78382W        W43543  42.546   5.489  10.567
78383W        W43544  33.977  34.620  13.885
78384W        W43545  36.111  40.539   1.372
78385W        W43546  36.955  44.249  14.573
78386W        W43547  16.152  16.299  10.775
78387W        W43548  31.974  36.462   4.124
78388W        W43549  22.703  29.163  13.898
78389W        W43550  32.983  21.737  13.830
78390W        W43551   9.289  19.233  12.787
78391W        W43552   9.620   3.720   1.643
78392W        W43553  23.074  11.197   4.547
78393W        W43554  10.901  10.860   0.832
78394W        W43555   9.774  33.037  11.201
78395W        W43556  15.898  37.885  10.262
78396W        W43557  37.517  29.625  14.460
78397W        W43558  24.484  41.257  13.557
78398W        W43559  33.105   6.877  12.504
78399W        W43560  34.551  29.884  14.455
78400W        W43561  39.315  22.573  12.355
78401W        W43562  19.169  26.497   4.511
78402W        W43563  23.932  34.882   4.586
78403W        W43564   3.884   9.219   2.799
78404W        W43565   6.364  10.518  13.261
78405W        W43566  31.459  30.768  13.542
78406W        W43567  39.754  41.127   4.344
78407W        W43568   0.978  11.908   2.721
78408W        W43569   6.693   7.116   3.389
78409W        W43570  15.785  40.647   0.504
78410W        W43571   5.490  15.310  10.371
78411W        W43572  17.301  34.984   1.374
78412W        W43573  36.146   7.837  14.930
78413W        W43574  22.648  16.619  14.457
78414W        W43575   5.000  22.172   4.662
78415W        W43576   9.913  27.990  14.301
78416W        W43577  34.086  28.399  11.517
78417W        W43578  33.000   8.315  10.699
78418W        W43579  17.510  14.409   4.450
78419W        W43580  10.005  33.637  13.332
78420W        W43581  34.388   6.309  14.771
78421W        W43582  36.151  38.823   3.257
78422W        W43583   1.798   8.484   1.760
78423W        W43584  19.844   1.047  14.359
78424W        W43585  30.435   7.036  10.930
78425W        W43586   8.296  22.244   4.360
78426W        W43587   8.583  17.186  13.512
78427W        W43588  13.710  44.742  13.288
78428W        W43589  39.302  31.933  14.527
78429W        W43590  21.376  28.686  13.597
78430W        W43591  16.106  12.698   0.884
78431W        W43592   9.494  26.723   2.807
78432W        W43593  11.018  41.532   3.788
78433W        W43594  18.097  15.350   0.731
78434W        W43595   0.880  31.820   0.403
78435W        W43596  10.633  26.483   1.090
78436W        W43597  40.047   1.253  12.074
78437W        W43598  13.902   7.865  14.907
78438W        W43599  23.051  22.725   3.723
78439W        W43600  44.984  21.496  12.513
78440W        W43601  17.550   5.218  11.119
78441W        W43602  35.602  38.997  14.561
78442W        W43603  42.896  42.580  13.940
78443W        W43604   5.026  30.543  13.675
78444W        W43605  28.440   8.645   4.576
78445W        W43606  37.667  20.953   2.375
78446W        W43607  14.906  32.992  14.983
78447W        W43608   6.455  31.904  13.355
78448W        W43609  26.283  36.268   2.252
78449W        W43610  15.361  39.380   0.721
78450W        W43611  37.546  28.431  13.591
78451W        W43612  22.098  20.850   2.791
78452W        W43613  17.303  31.619   3.683
78453W        W43614  43.989  28.455  14.059
78454W        W43615  20.199  22.040  12.961
78455W        W43616  24.313  34.468  12.514
78456W        W43617  30.947   1.316  10.531
78457W        W43618  16.663  38.963  10.304
78458W        W43619  26.948   8.336   2.920
78459W        W43620   0.921  33.878   4.701
78460W        W43621   8.385  11.293   4.871
78461W        W43622   8.792  40.429   5.203
78462W        W43623  23.093  36.347  14.466
78463W        W43624  37.090  10.083   1.395
78464W        W43625  25.270  32.402  12.138
78465W        W43626  15.069  28.420  11.607
78466W        W43627  37.063  36.696  12.444
78467W        W43628   2.838  39.984  11.958
78468W        W43629  36.797  10.074   2.319
78469W        W43630  43.534   2.548  14.195
78470W        W43631  26.493   9.915   3.764
78471W        W43632   3.137  41.589  14.377
78472W        W43633  25.320   3.082  14.143
78473W        W43634  40.313   7.577  10.827
78474W        W43635  34.425   1.919  12.252
78475W        W43636  30.735  20.701  12.879
78476W        W43637  18.513  32.092   2.597
78477W        W43638  32.792   9.869   1.842
78478W        W43639  35.658  29.518   3.068
78479W        W43640   4.205   9.850  14.003
78480W        W43641   9.692  35.353  14.933
78481W        W43642   4.796   7.370   2.828
78482W        W43643  16.201  22.945   3.163
78483W        W43644   8.218  31.138  12.934
78484W        W43645  37.527  41.186  13.850
78485W        W43646  18.347  19.910   0.687
78486W        W43647   0.268  16.355   3.821
78487W        W43648  30.870  22.032   5.128
78488W        W43649  37.006  36.900   3.816
78489W        W43650   2.910  42.191   3.393
78490W        W43651  39.140   8.288   1.753
78491W        W43652  12.517  13.703  14.894
78492W        W43653  10.901   0.538  10.876
78493W        W43654   6.928  28.959  11.947
78494W        W43655  15.945  26.468  12.999
78495W        W43656  27.971  44.868   4.699
78496W        W43657  15.363  42.661  11.078
78497W        W43658  24.221   5.864   3.629
78498W        W43659   8.861  13.773  13.595
78499W        W43660  19.553   6.908  10.618
78500W        W43661  38.503   9.408  11.237
78501W        W43662   1.425  33.822  12.026
78502W        W43663   0.690  24.239  11.015
78503W        W43664  17.961   4.505  11.326
78504W        W43665  41.544  13.662  12.883
78505W        W43666  10.853   2.396   2.805
78506W        W43667  10.805  19.681   0.906
78507W        W43668  40.533  43.505   2.015
78508W        W43669  31.060  20.809  11.265
78509W        W43670   9.251  24.008  13.907
78510W        W43671  29.172   3.223   4.084
78511W        W43672  28.697   9.968  12.755
78512W        W43673  34.367  15.673   4.573
78513W        W43674  30.504  33.185  13.050
78514W        W43675  23.144  39.736   1.027
78515W        W43676  43.750  26.769  13.087
78516W        W43677   1.283  33.540   1.389
78517W        W43678  35.905  39.208  13.942
78518W        W43679  29.223  28.221   5.099
78519W        W43680  33.286  33.669  10.965
78520W        W43681   1.413  10.053   0.323
78521W        W43682  30.914  35.591  12.979
78522W        W43683  24.121  27.168  14.506
78523W        W43684  17.561  25.349   3.967
78524W        W43685  14.629  15.165  14.047
78525W        W43686  33.147  22.809   9.782
78526W        W43687  36.531  35.212  11.147
78527W        W43688  13.492  25.252   0.301
78528W        W43689  25.921  39.219  11.581
78529W        W43690  40.024  20.521  10.865
78530W        W43691  21.698  39.037   0.349
78531W        W43692   6.884  21.474  12.486
78532W        W43693   3.289  35.947   4.038
78533W        W43694  15.786   4.149   4.206
78534W        W43695  30.861  30.448   4.119
78535W        W43696  25.688  29.101  11.154
78536W        W43697  21.428  22.368  14.112
78537W        W43698  43.230  23.269   2.484
78538W        W43699  44.111   5.660   3.339
78539W        W43700  16.277  25.479   0.410
78540W        W43701  37.113  13.744  11.127
78541W        W43702  28.257  18.219  14.347
78542W        W43703  44.209  22.598   1.239
78543W        W43704  29.018  37.503   4.505
78544W        W43705  21.474  40.171  13.017
78545W        W43706  42.271  43.456  11.606
78546W        W43707  33.300  19.900  12.630
78547W        W43708  15.118  25.697  14.996
78548W        W43709  17.613  10.953   3.159
78549W        W43710  25.221   2.074  10.725
78550W        W43711  26.631  31.731   0.972
78551W        W43712   8.873   1.252  12.433
78552W        W43713  22.721  11.332   2.636
78553W        W43714   5.033  21.026   1.473
78554W        W43715  39.952   9.293   3.087
78555W        W43716  37.563   3.297   3.351
78556W        W43717  39.539   0.306  11.109
78557W        W43718  43.482  22.719   2.766
78558W        W43719  22.050  43.857  13.395
78559W        W43720  26.845  20.530  14.012
78560W        W43721  39.821  42.902  14.842
78561W        W43722  16.670   8.677   3.075
78562W        W43723   9.513  20.103   0.363
78563W        W43724  11.399   5.155   2.276
78564W        W43725  42.497  30.990  10.436
78565W        W43726   6.731  41.924  14.945
78566W        W43727  10.205   7.936  14.356
78567W        W43728  19.020  43.473   2.247
78568W        W43729  13.883   2.335   0.133
78569W        W43730  38.928  31.620  10.256
78570W        W43731  29.046  26.551  10.221
78571W        W43732  19.204  42.991   5.199
78572W        W43733   7.636   3.506   2.347
78573W        W43734  13.796  35.952   1.490
78574W        W43735  17.670  17.725  11.432
78575W        W43736  32.009  22.660   3.271
78576W        W43737   1.293  40.937   1.423
78577W        W43738  20.975  43.577   5.057
78578W        W43739   3.717  35.927  11.610
78579W        W43740  30.425   7.826   1.918
78580W        W43741  10.842  30.948   2.016
78581W        W43742  13.755  15.669  11.733
78582W        W43743  42.380   8.754   1.735
78583W        W43744  21.095   3.013  13.449
78584W        W43745  21.310   4.500  14.987
78585W        W43746  44.977  30.898   0.347
78586W        W43747   7.524   2.998  11.234
78587W        W43748  18.951  21.610   2.006
78588W        W43749   4.666  24.951   0.410
78589W        W43750  43.261  18.806   4.670
78590W        W43751  33.851  26.078   0.818
78591W        W43752  16.906  32.330  10.669
78592W        W43753  42.355  11.475   1.979
78593W        W43754  10.314  16.652  13.395
78594W        W43755  44.361  28.149  13.859
78595W        W43756  27.570  16.838  13.336
78596W        W43757  15.054  15.160  13.782
78597W        W43758   1.517  32.959  12.364
78598W        W43759   4.267  13.722   4.539
78599W        W43760   5.478   4.408  13.842
78600W        W43761  25.674  26.200   3.667
78601W        W43762  10.356   3.820  13.563
78602W        W43763  11.831  22.964   4.326
78603W        W43764   5.659   3.934  11.040
78604W        W43765  38.816  14.303  14.723
78605W        W43766  35.775   8.422  12.922
78606W        W43767  42.317  21.682   1.662
78607W        W43768  32.799  44.902   1.882
78608W        W43769  37.548  15.531  13.113
78609W        W43770  13.874  13.588   3.354
78610W        W43771   4.022   5.850   1.352
78611W        W43772  41.171  29.231   1.712
78612W        W43773  29.415   3.116   0.881
78613W        W43774   3.229  30.601  10.500
78614W        W43775   8.810  24.303  11.150
78615W        W43776  43.972  24.474   3.356
78616W        W43777   9.632  15.704  13.627
78617W        W43778   6.967   1.775   4.649
78618W        W43779  34.046  24.683  14.345
78619W        W43780  38.462   2.006  13.863
78620W        W43781  23.140  31.928   3.423
78621W        W43782  37.494  27.336  12.386
78622W        W43783  41.505  37.323   0.457
78623W        W43784  35.803   4.392  11.513
78624W        W43785  12.392  16.514   4.533
78625W        W43786  15.749  32.393   3.315
78626W        W43787  34.624  31.571   3.817
78627W        W43788  39.511  25.386  13.471
78628W        W43789  36.577  37.013  14.252
78629W        W43790  18.623  16.826  12.636
78630W        W43791  30.137  24.463  12.583
78631W        W43792   3.422  20.948  11.590
78632W        W43793  33.022  33.346   0.133
78633W        W43794  31.209  27.300  10.768
78634W        W43795  26.959  42.457  10.815
78635W        W43796  43.309  22.164  11.354
78636W        W43797  35.241  21.474   3.288
78637W        W43798  41.333  33.617   1.069
78638W        W43799  32.662  26.604  14.727
78639W        W43800  33.607   8.862  14.518
78640W        W43801   2.373   8.634   9.646
78641W        W43802  22.132  12.876  13.517
78642W        W43803  16.657  35.110  13.298
78643W        W43804  20.826   2.786  12.563
78644W        W43805  10.652  37.256   2.357
78645W        W43806   3.829  39.592  13.421
78646W        W43807   9.306  35.106  13.835
78647W        W43808  17.545   8.253  12.105
78648W        W43809  24.396   0.407  13.114
78649W        W43810   2.268   1.836  13.432
78650W        W43811   9.750  42.696   3.163
78651W        W43812  16.321   6.035  14.609
78652W        W43813  21.280  28.240  14.387
78653W        W43814  28.593  31.518  14.291
78654W        W43815  26.269  40.381  14.625
78655W        W43816  25.481  10.183   3.159
78656W        W43817  38.447  30.351  14.967
78657W        W43818   6.678  43.369  10.665
78658W        W43819  34.486  16.315  11.641
78659W        W43820  31.634  35.118   1.000
78660W        W43821  25.542  16.654  11.489
78661W        W43822  18.713  24.491  13.372
78662W        W43823   7.949  11.450   2.172
78663W        W43824  19.970   8.412  14.466
78664W        W43825   7.339  37.109  13.570
78665W        W43826  29.039   1.439  12.451
78666W        W43827  37.314  11.101  10.218
78667W        W43828  31.117  30.536  13.933
78668W        W43829  42.895  21.227   0.026
78669W        W43830  22.499   4.032  11.026
78670W        W43831   9.170  40.003   4.272
78671W        W43832  36.829   2.728  12.410
78672W        W43833   8.327   6.337   4.147
78673W        W43834  16.456  44.066  10.649
78674W        W43835   7.285  17.005  13.204
78675W        W43836   2.390  44.277   2.829
78676W        W43837  23.730  38.950   9.916
78677W        W43838  10.262  25.269  12.045
78678W        W43839  10.716   9.166  12.075
78679W        W43840  31.521  10.258   4.827
78680W        W43841  14.268   6.430  12.345
78681W        W43842   0.603  27.016   3.408
78682W        W43843  24.023  20.682   4.096
78683W        W43844  27.748  40.049   1.365
78684W        W43845  44.783  32.880  12.432
78685W        W43846  18.803  30.754  14.260
78686W        W43847  26.161  21.713  13.991
78687W        W43848   8.354  30.175  11.948
78688W        W43849  38.379  29.939  13.299
78689W        W43850  42.464  40.954  12.027
78690W        W43851   2.881  37.133   2.303
78691W        W43852   3.039  21.405  14.797
78692W        W43853   2.780  44.155   2.149
78693W        W43854  23.626  11.260   2.055
78694W        W43855   8.801  36.706  14.395
78695W        W43856   7.144  12.523  12.103
78696W        W43857  27.557   5.227   3.700
78697W        W43858  19.554  37.653  14.301
78698W        W43859   8.078  34.850  10.412
78699W        W43860  16.632  28.257   2.204
78700W        W43861   7.368   6.681  11.994
78701W        W43862  42.983  34.037   2.420
78702W        W43863  12.305   8.790   4.363
78703W        W43864  12.995  29.515  11.270
78704W        W43865  42.020   9.697  10.674
78705W        W43866  31.762  40.620   3.183
78706W        W43867   0.933   0.147  14.471
78707W        W43868   7.171  25.120   5.109
78708W        W43869  37.841  20.762  12.991
78709W        W43870  29.970  13.385  14.399
78710W        W43871  14.647  16.431   3.815
78711W        W43872   7.161  40.955   3.366
78712W        W43873  42.238  41.992  13.340
78713W        W43874  17.683  31.450  13.919
78714W        W43875   6.713   5.754   2.364
78715W        W43876  42.213  21.418   1.222
78716W        W43877   2.770  10.067   3.221
78717W        W43878  13.689  11.616   0.363
78718W        W43879  15.418   7.988  13.506
78719W        W43880   6.778  11.272  12.430
78720W        W43881   8.595  36.871   1.451
78721W        W43882  10.666  37.361  14.063
78722W        W43883   6.736  31.303  11.067
78723W        W43884  38.011  20.532   2.803
78724W        W43885  40.917   1.014   1.391
78725W        W43886  23.983  33.703   5.154
78726W        W43887  41.324   4.759   2.285
78727W        W43888   3.502  38.388  12.100
78728W        W43889  24.240  28.590  11.597
78729W        W43890   6.352  37.012   0.851
78730W        W43891  23.455  36.413   3.580
78731W        W43892  17.075  23.026   0.434
78732W        W43893  43.382  42.261   2.640
78733W        W43894   5.814  35.722  12.790
78734W        W43895  23.017  28.043  12.928
78735W        W43896   5.692  27.846   0.547
78736W        W43897  34.977  44.528  13.945
78737W        W43898  13.811  35.347   4.729
78738W        W43899  32.841  32.566   4.818
78739W        W43900   7.284  35.983  14.807
78740W        W43901  43.423   2.330   2.268
78741W        W43902  20.016   2.385   1.784
78742W        W43903  19.701  33.126  12.906
78743W        W43904   2.376   1.009   2.250
78744W        W43905  14.592  29.516  13.290
78745W        W43906  11.290  18.280   4.193
78746W        W43907  18.895   1.098   0.948
78747W        W43908  10.190  25.436  12.725
78748W        W43909  19.231  22.783  12.772
78749W        W43910  42.859   9.214  10.697
78750W        W43911  33.053  30.467   2.343
78751W        W43912   2.527  19.102  14.864
78752W        W43913   9.455  20.520   4.861
78753W        W43914  11.296  32.095  10.914
78754W        W43915  37.758  34.101   0.478
78755W        W43916  24.339  36.567   3.508
78756W        W43917  42.668  35.054  11.316
78757W        W43918  42.710  18.744   3.791
78758W        W43919  27.187  24.707  13.444
78759W        W43920  32.196  25.696  12.215
78760W        W43921  40.242  16.686  14.369
78761W        W43922  25.085  20.916   1.088
78762W        W43923  11.414  28.696  12.408
78763W        W43924  25.905  34.343   1.272
78764W        W43925   3.351  31.375   1.347
78765W        W43926  44.029  16.408   3.565
78766W        W43927   2.292  28.160  13.054
78767W        W43928   9.255  41.380  10.790
78768W        W43929  15.488  38.928  13.930
78769W        W43930  35.408  10.463   0.397
78770W        W43931  30.964  41.665  12.129
78771W        W43932   7.545  23.223   1.752
78772W        W43933  33.372  33.616   0.438
78773W        W43934  43.708  20.823   3.791
78774W        W43935  40.590  32.119  10.042
78775W        W43936  14.791  27.900  13.377
78776W        W43937  41.363  38.891  13.937
78777W        W43938   2.887  18.003   0.346
78778W        W43939  27.258  35.412  11.201
78779W        W43940  26.148  12.704   4.650
78780W        W43941  28.246   2.766  12.490
78781W        W43942  17.984  37.010  13.729
78782W        W43943  18.722  28.212   1.250
78783W        W43944  32.423  14.681  14.012
78784W        W43945  12.994  17.954   1.909
78785W        W43946  19.483  21.275   3.576
78786W        W43947  40.929  34.620  12.872
78787W        W43948  28.943  29.473  11.451
78788W        W43949  10.593  26.969  14.579
78789W        W43950  31.985  20.485  11.459
78790W        W43951  43.769   6.816   0.295
78791W        W43952  10.915  36.468   0.274
78792W        W43953   3.431  20.017  13.051
78793W        W43954  30.997  41.057  10.994
78794W        W43955   1.971  19.319  13.978
78795W        W43956  40.185  41.780  10.992
78796W        W43957  42.363   4.765   3.311
78797W        W43958  22.077  16.205   0.837
78798W        W43959  17.183  35.273  10.196
78799W        W43960   9.263  17.189   4.557
78800W        W43961  44.061  40.850   4.179
78801W        W43962  20.223  24.677  13.156
78802W        W43963  23.547   0.287   2.768
78803W        W43964  43.522  28.769  10.065
78804W        W43965   9.717  25.411  13.517
78805W        W43966   3.646  10.320  14.397
78806W        W43967  37.608  18.473   3.295
78807W        W43968  12.551  16.574  11.663
78808W        W43969   7.540  44.667   2.965
78809W        W43970  38.881   4.901   3.880
78810W        W43971   2.543  32.932  14.805
78811W        W43972  12.484  44.069   0.775
78812W        W43973  17.107  14.467  13.244
78813W        W43974   4.197  29.044   3.952
78814W        W43975  13.317  36.941  10.967
78815W        W43976  31.130  17.746  14.475
78816W        W43977  11.613   2.340  11.664
78817W        W43978  31.429  42.258   0.856
78818W        W43979   2.651  35.897  11.544
78819W        W43980  28.875  27.106  11.092
78820W        W43981  12.303  36.059  11.243
78821W        W43982  23.162  22.972  14.384
78822W        W43983  15.150  15.230  11.028
78823W        W43984  25.680  11.221  11.279
78824W        W43985  10.122   7.609  13.491
78825W        W43986  43.225  28.179   1.722
78826W        W43987  40.836  15.444  11.243
78827W        W43988  41.819  21.544  14.958
78828W        W43989  18.369   3.427   4.308
78829W        W43990  32.590  38.859  13.997
78830W        W43991   1.750  15.073   0.913
78831W        W43992  38.074  42.515   1.914
78832W        W43993   0.569  32.963  11.183
78833W        W43994  36.888   3.876   4.963
78834W        W43995  19.552  15.605  13.541
78835W        W43996   6.715  26.245   2.179
78836W        W43997  33.211  11.009   2.401
78837W        W43998  19.472  30.112   4.088
78838W        W43999  19.100  25.517   1.251
78839W        W44000  16.358  15.802  12.440
78840W        W44001   1.025  28.445  14.955
78841W        W44002  12.264  20.198  11.286
78842W        W44003  31.459  12.143  14.036
78843W        W44004   2.751   6.098   4.554
78844W        W44005   3.950  32.558  13.312
78845W        W44006   3.428  21.639   2.228
78846W        W44007  10.337  44.234  10.808
78847W        W44008  35.588  38.453  10.877
78848W        W44009  13.068  21.448   2.198
78849W        W44010  44.191   9.806   5.156
78850W        W44011  11.110  37.946  13.083
78851W        W44012  15.384  21.259   1.191
78852W        W44013  28.096  19.697  10.229
78853W        W44014   7.630  34.422   1.215
78854W        W44015  39.343  18.706   1.454
78855W        W44016  39.328  30.987  11.644
78856W        W44017  39.581  30.555   2.407
78857W        W44018  36.321  24.008   2.449
78858W        W44019   2.597  10.844  10.658
78859W        W44020  37.590  38.636  10.514
78860W        W44021  44.492   8.618   1.070
78861W        W44022  19.181  35.515  13.460
78862W        W44023   3.588  35.975   3.622
78863W        W44024  39.429  40.631  12.384
78864W        W44025  11.751  30.700  12.564
78865W        W44026  12.815  36.817   2.049
78866W        W44027   8.171   5.507   3.762
78867W        W44028  38.279   6.353   2.504
78868W        W44029  24.731  41.929  14.425
78869W        W44030  18.104  27.295   2.381
78870W        W44031   0.983  11.147   2.291
78871W        W44032  12.695  16.226  14.692
78872W        W44033  17.221  27.999   0.494
78873W        W44034  27.652  32.096  11.401
78874W        W44035  14.129  43.960  11.632
78875W        W44036  34.874   0.755   3.629
78876W        W44037  31.404  32.141  12.630
78877W        W44038  33.117   2.909   2.419
78878W        W44039  23.106  30.065  13.766
78879W        W44040   4.359  24.119   9.965
78880W        W44041   9.287  27.050   4.077
78881W        W44042  33.894   2.395  14.017
78882W        W44043  40.457  29.120   3.152
78883W        W44044  10.292   7.614   4.691
78884W        W44045  26.270  11.573   3.232
78885W        W44046  28.994  30.733  12.005
78886W        W44047   6.431  39.047  11.819
78887W        W44048  21.645   7.369  14.793
78888W        W44049  20.115  24.996   0.969
78889W        W44050  25.261  25.662   0.431
78890W        W44051  12.544  21.261   4.880
78891W        W44052   5.745   3.860  14.328
78892W        W44053  21.023  21.857   1.270
78893W        W44054   7.895  22.631   4.557
78894W        W44055  29.066  41.336  11.818
78895W        W44056  13.326  18.626  11.386
78896W        W44057   4.486  19.680   2.425
78897W        W44058  10.709  13.904  13.016
78898W        W44059  24.469   8.548  10.792
78899W        W44060  36.624   9.289   3.658
78900W        W44061  36.102  12.536  11.695
78901W        W44062  21.069   1.788  11.981
78902W        W44063   9.247   8.771   1.488
78903W        W44064  29.861  35.366   0.607
78904W        W44065  37.718  33.631  11.132
78905W        W44066  25.978  11.191   1.725
78906W        W44067  31.038  27.991  12.365
78907W        W44068  43.818  10.093  12.461
78908W        W44069  41.337  38.438  11.810
78909W        W44070   7.853  19.713  10.688
78910W        W44071  27.514  21.771  13.926
78911W        W44072  14.693  27.441   3.308
78912W        W44073  36.602  18.106   1.982
78913W        W44074   4.844  42.066  10.746
78914W        W44075  29.432  37.789  13.076
78915W        W44076  27.604   7.192  11.140
78916W        W44077  35.083   8.911  11.972
78917W        W44078  37.081  44.137  10.649
78918W        W44079  21.993  40.009   1.440
78919W        W44080  40.762  24.630  12.094
78920W        W44081  16.352  28.619  10.917
78921W        W44082   3.207  24.462  14.344
78922W        W44083  13.785   7.430   1.214
78923W        W44084  15.628  38.362   1.981
78924W        W44085   0.223  33.668   4.251
78925W        W44086  27.486  38.685   1.765
78926W        W44087  38.046   9.622   2.114
78927W        W44088   4.773   8.664   3.250
78928W        W44089  20.736  44.297   2.871
78929W        W44090  22.175   0.109   2.743
78930W        W44091  34.344  41.023   1.881
78931W        W44092   6.676  42.716  11.423
78932W        W44093  37.522  39.566  10.950
78933W        W44094   0.745  11.195   3.529
78934W        W44095  12.567   6.381   1.679
78935W        W44096  24.611  40.783   3.554
78936W        W44097   9.598  26.981  12.844
78937W        W44098   6.688  31.187   5.093
78938W        W44099   1.261  16.351   9.777
78939W        W44100   2.907  37.841   2.849
78940W        W44101  42.742  16.885   2.323
78941W        W44102  36.352  26.796  11.579
78942W        W44103  26.389  13.642   2.031
78943W        W44104  15.149  42.310   0.738
78944W        W44105  32.813   5.614   1.891
78945W        W44106   9.161   8.257   0.794
78946W        W44107  26.587  20.257   5.079
78947W        W44108  25.196  32.601  12.925
78948W        W44109  15.065  22.967   0.447
78949W        W44110  44.349  28.730   0.667
78950W        W44111  19.951  26.745   4.994
78951W        W44112   4.686  44.486  11.583
78952W        W44113  19.107  25.135   0.862
78953W        W44114   3.312   2.488  14.974
78954W        W44115  14.663  38.569   4.622
78955W        W44116  10.389  33.571  14.798
78956W        W44117  13.187  24.663   1.858
78957W        W44118  32.741  33.589   2.933
78958W        W44119  18.617  23.766   0.280
78959W        W44120  27.412  18.896   3.767
78960W        W44121  39.810  34.911  10.446
78961W        W44122  26.106  12.133  11.028
78962W        W44123  26.194   6.680  12.730
78963W        W44124  19.612  29.071  14.110
78964W        W44125   0.988  34.176  13.418
78965W        W44126   6.199  18.919  11.157
78966W        W44127  41.799  32.070  14.340
78967W        W44128  36.970   3.023  14.073
78968W        W44129  23.227   8.904  11.657
78969W        W44130   6.919  37.583  12.749
78970W        W44131  30.103  26.307  11.904
78971W        W44132  35.399  13.743   1.254
78972W        W44133  44.848  42.058  14.592
78973W        W44134  36.184   1.280   4.560
78974W        W44135  38.740  38.542   5.006
78975W        W44136   3.928  29.094   1.985
78976W        W44137  12.425  37.416   2.637
78977W        W44138  29.215  18.258   1.957
78978W        W44139  35.050  33.173  13.468
78979W        W44140  30.909  39.435  13.774
78980W        W44141  34.105  11.260   0.300
78981W        W44142  20.523  11.908   0.014
78982W        W44143  12.219   8.487  11.209
78983W        W44144  23.741   3.567   3.791
78984W        W44145  15.634   2.477  11.969
78985W        W44146   1.172  20.310   1.876
78986W        W44147  28.975  21.187  14.250
78987W        W44148  19.802  11.078  13.531
78988W        W44149  20.809  16.615  14.565
78989W        W44150   5.371  26.656   1.951
78990W        W44151  11.314  15.180  12.876
78991W        W44152  18.668   5.067  10.259
78992W        W44153  16.112   7.864  11.988
78993W        W44154  15.001   0.324  10.830
78994W        W44155   9.788   4.192   1.796
78995W        W44156   3.754  30.134  11.643
78996W        W44157   9.306  19.650   0.502
78997W        W44158   0.488  39.134   9.772
78998W        W44159  34.978  21.347  10.842
78999W        W44160  32.467  31.179   4.128
79000W        W44161  27.059  15.522   4.165
79001W        W44162   9.267  14.615  13.287
79002W        W44163  37.841  26.110  10.651
79003W        W44164  37.033  26.256   3.236
79004W        W44165  16.698  21.966  13.774
79005W        W44166  40.558   8.360  13.850
79006W        W44167  35.999  12.842   0.129
79007W        W44168  35.111  31.483  11.855
79008W        W44169  15.747  17.934  13.470
79009W        W44170  13.626   0.411   0.540
79010W        W44171  20.107  14.311   2.717
79011W        W44172   5.775   1.516   2.163
79012W        W44173   5.320  22.985  11.013
79013W        W44174  36.382  43.210  11.629
79014W        W44175  20.291  20.526  12.508
79015W        W44176  17.801  17.039   0.861
79016W        W44177  25.275  14.205  10.781
79017W        W44178  33.622  16.477  12.436
79018W        W44179  14.573   5.831  12.346
79019W        W44180  12.189  22.642  13.819
79020W        W44181   8.804  39.186   1.362
79021W        W44182  37.263  41.150  12.583
79022W        W44183  35.273  32.562  14.968
79023W        W44184  24.982   7.713   3.230
79024W        W44185  29.301  23.505  13.144
79025W        W44186  28.989  31.931   3.743
79026W        W44187  44.512  25.255  13.582
79027W        W44188  29.748  20.644  13.148
79028W        W44189  19.762  14.180  13.388
79029W        W44190  33.244  42.381   0.488
79030W        W44191  11.638  14.533  10.957
79031W        W44192  41.533  13.732  12.352
79032W        W44193  30.809  18.265   4.185
79033W        W44194  33.553  11.767   3.655
79034W        W44195  18.653  32.577  13.015
79035W        W44196  38.516   3.736  12.391
79036W        W44197  33.073  35.946  10.177
79037W        W44198  41.754  22.758  11.150
79038W        W44199  42.024   8.459  10.155
79039W        W44200  22.005  41.465   1.765
79040W        W44201   2.240  41.250   2.928
79041W        W44202  18.231  21.735   3.684
79042W        W44203  24.329  11.744  14.389
79043W        W44204  22.957  25.701   2.501
79044W        W44205  11.222   1.938  14.952
79045W        W44206   6.136  37.985   1.322
79046W        W44207  14.438  43.778  10.787
79047W        W44208  40.455   3.317   3.342
79048W        W44209  16.645  19.521  10.795
79049W        W44210  39.912  39.330   0.459
79050W        W44211  26.140  33.583  12.926
79051W        W44212  20.536  21.400   4.314
79052W        W44213  19.045  17.358   2.654
79053W        W44214   4.035  41.920  11.533
79054W        W44215  22.800  42.948  11.134
79055W        W44216  39.593  36.782   3.576
79056W        W44217  26.459  38.840  14.951
79057W        W44218  19.834  13.828   2.444
79058W        W44219  24.656  25.686  12.112
79059W        W44220   6.007  43.510  12.311
79060W        W44221  13.590   0.333  10.398
79061W        W44222   6.392  30.504  13.307
79062W        W44223  10.874  44.844  11.077
79063W        W44224  37.995  18.319   3.660
79064W        W44225  19.145  34.681   4.179
79065W        W44226   8.937  40.498  14.177
79066W        W44227  15.294  18.435   0.210
79067W        W44228  18.672  38.272  12.005
79068W        W44229  27.900  31.323   2.330
79069W        W44230  37.410   9.806  12.019
79070W        W44231   5.754   4.192   3.903
79071W        W44232  11.924  27.565   2.402
79072W        W44233  22.651  12.628  12.203
79073W        W44234  13.634  34.497  14.653
79074W        W44235  29.166  44.708   1.636
79075W        W44236  13.301  41.511  11.874
79076W        W44237  22.561   6.816   1.157
79077W        W44238  17.128  27.046  12.502
79078W        W44239  12.179  16.822  14.016
79079W        W44240   0.908  10.614   5.029
79080W        W44241  22.465  38.477   0.361
79081W        W44242   0.900   1.244  11.226
79082W        W44243   6.698   1.914  14.108
79083W        W44244  12.114  38.893   1.263
79084W        W44245  30.718  23.276   1.798
79085W        W44246   7.141   0.387  14.642
79086W        W44247   4.088  34.250   1.110
79087W        W44248  39.257  31.410   1.929
79088W        W44249  42.953  16.971   4.131
79089W        W44250   9.428   4.796  13.352
79090W        W44251  17.121   9.137  14.757
79091W        W44252  22.140  29.388   1.864
79092W        W44253  38.349  38.578   4.682
79093W        W44254  11.342   2.363  14.053
79094W        W44255  36.041  34.789   2.674
79095W        W44256  28.469  18.194   3.139
79096W        W44257  10.828   7.324   1.807
79097W        W44258  10.675  42.825  11.598
79098W        W44259   0.848  28.643   0.426
79099W        W44260  40.872  32.051  10.476
79100W        W44261  32.602  11.713  12.039
79101W        W44262  42.884  29.213  14.298
79102W        W44263  40.796   9.282  13.573
79103W        W44264  25.638  22.542  14.879
79104W        W44265  35.308  14.315  14.058
79105W        W44266  44.101   4.470   3.713
79106W        W44267  28.404   1.712   3.951
79107W        W44268  10.201  25.434  13.249
79108W        W44269  30.963  31.861  12.833
79109W        W44270   2.612   3.403   9.916
79110W        W44271  23.366  16.737  14.886
79111W        W44272   6.478  18.964  10.307
79112W        W44273  41.310  38.799   2.118
79113W        W44274  16.221  31.893   4.115
79114W        W44275  37.302   5.385   4.171
79115W        W44276  34.014  39.485  13.009
79116W        W44277  13.021  18.659  12.951
79117W        W44278  29.102  11.553  11.090
79118W        W44279  34.797  44.900   4.175
79119W        W44280   0.734  19.329  13.001
79120W        W44281  29.480  36.982  14.662
79121W        W44282   3.460  17.253   0.291
79122W        W44283  35.310  15.945  11.346
79123W        W44284  34.667  32.008  12.021
79124W        W44285  42.539   3.897   0.880
79125W        W44286  34.460  39.645  10.210
79126W        W44287   3.306  23.479  13.098
79127W        W44288   3.340  32.686   0.915
79128W        W44289   1.788  25.516  14.389
79129W        W44290  30.138  23.426  14.356
79130W        W44291  34.165  27.446   1.348
79131W        W44292  43.838  22.525  11.803
79132W        W44293  11.842   3.253  11.415
79133W        W44294  39.351  12.235  10.730
79134W        W44295  35.116  39.310  11.994
79135W        W44296  44.296  29.054  14.396
79136W        W44297   9.370   5.910   9.688
79137W        W44298  21.873   9.801  10.852
79138W        W44299   3.980  14.516  14.019
79139W        W44300  19.352  39.407   4.068
79140W        W44301  42.451   0.959   3.242
79141W        W44302   3.265  22.462  10.811
79142W        W44303  10.694  15.250   0.779
79143W        W44304   4.841  34.312  12.399
79144W        W44305  21.155   3.334   2.911
79145W        W44306  38.463  26.684   4.471
79146W        W44307  35.967  28.073   4.617
79147W        W44308   5.686  27.298  12.968
79148W        W44309  29.856  23.250  11.866
79149W        W44310   6.687   6.844   4.852
79150W        W44311  17.293  26.550  13.420
79151W        W44312  24.586  25.119  10.994
79152W        W44313  26.838  34.702  14.322
79153W        W44314  11.552  12.620   0.802
79154W        W44315  25.477  11.666  14.006
79155W        W44316  17.371  43.471   1.463
79156W        W44317  11.582  24.114   3.641
79157W        W44318  38.717  13.105  14.665
79158W        W44319  44.489  36.819   0.410
79159W        W44320   5.451  25.825  12.424
79160W        W44321  35.016  41.980  10.248
79161W        W44322  10.563  33.553  10.389
79162W        W44323  17.582  26.012   0.266
79163W        W44324  17.315  33.552  12.990
79164W        W44325  26.296  43.495   3.726
79165W        W44326  10.240  12.229  14.347
79166W        W44327  26.515  24.666   2.276
79167W        W44328  28.568  20.811  11.600
79168W        W44329  39.235  25.258  11.213
79169W        W44330   7.578  28.170  13.919
79170W        W44331  41.172  16.834  12.211
79171W        W44332  14.038  15.314  11.077
79172W        W44333  22.017   9.797   0.892
79173W        W44334  16.204  36.367  10.718
79174W        W44335   4.440  15.380   2.090
79175W        W44336  13.683   9.745  12.151
79176W        W44337  26.006  15.864  11.966
79177W        W44338  38.370  20.209  13.563
79178W        W44339   0.590  22.093  12.824
79179W        W44340  36.444  11.732  11.176
79180W        W44341  37.791  40.047   0.861
79181W        W44342  20.404  42.588  10.192
79182W        W44343  26.397  27.813  13.570
79183W        W44344  37.712   3.816   3.402
79184W        W44345   5.916  25.508   1.602
79185W        W44346  29.948  32.504   3.827
79186W        W44347  35.133   0.791   2.250
79187W        W44348   3.486  29.226  12.087
79188W        W44349  24.308   2.943  12.194
79189W        W44350  13.080  28.666  10.092
79190W        W44351  38.806  44.816  13.939
79191W        W44352  38.562  14.703  12.501
79192W        W44353  10.749  43.759  11.569
79193W        W44354  34.540  18.064   4.106
79194W        W44355   7.718  24.990  11.616
79195W        W44356  40.466  33.267   3.988
79196W        W44357  38.098  19.155   3.913
79197W        W44358  43.310  23.608   3.680
79198W        W44359  33.491  14.355  10.092
79199W        W44360  28.381  30.084   2.638
79200W        W44361  22.168  19.734   3.622
79201W        W44362  15.130  21.004   0.219
79202W        W44363  38.972  35.493  13.220
79203W        W44364  33.071   8.461  12.826
79204W        W44365  17.549  27.476  12.487
79205W        W44366  12.070   5.186   2.679
79206W        W44367  36.914  20.827  14.835
79207W        W44368   6.259  13.854  12.489
79208W        W44369  17.080  19.112   2.155
79209W        W44370  29.527  36.543   3.052
79210W        W44371  40.046   4.472   4.058
79211W        W44372  18.757  31.824   3.271
79212W        W44373  38.552  24.107   2.883
79213W        W44374  23.103  15.103  11.593
79214W        W44375  44.453   8.176  12.374
79215W        W44376   2.560  17.506  14.278
79216W        W44377  12.583  20.083  14.651
79217W        W44378  39.949  35.491   3.309
79218W        W44379   6.500  21.966   3.123
79219W        W44380  11.126   3.298  13.108
79220W        W44381  29.738  26.338  14.243
79221W        W44382  34.300  37.750   2.725
79222W        W44383  37.158  23.274  11.816
79223W        W44384  32.554  11.132   4.399
79224W        W44385  16.205   1.468   2.753
79225W        W44386   3.658   9.221  12.881
79226W        W44387  36.527  27.678   0.889
79227W        W44388  14.865  19.040  13.016
79228W        W44389  28.909  40.547  13.046
79229W        W44390  20.141  36.547   2.222
79230W        W44391  37.778  30.062   1.148
79231W        W44392  15.253   2.453  12.847
79232W        W44393  43.146  29.973  13.391
79233W        W44394  13.937  16.110  10.904
79234W        W44395  19.180   4.846   0.919
79235W        W44396  37.592  31.367   1.255
79236W        W44397   7.833  11.656   0.621
79237W        W44398  40.423  40.774  14.518
79238W        W44399  10.768  21.442  11.985
79239W        W44400  20.472  41.456  13.898
79240W        W44401  18.530  24.231   2.774
79241W        W44402   8.980  18.351   1.872
79242W        W44403  43.188  20.054   0.782
79243W        W44404   6.922  44.786   1.425
79244W        W44405  31.816  11.699   3.114
79245W        W44406  12.764  41.527   4.539
79246W        W44407   4.179  35.617   0.481
79247W        W44408  43.700  30.001   3.293
79248W        W44409  22.139  27.133  13.308
79249W        W44410  25.082  25.026  11.288
79250W        W44411  42.578  27.237  12.935
79251W        W44412   1.417  22.701   0.016
79252W        W44413   5.274   7.477  14.373
79253W        W44414  30.365  31.998  10.678
79254W        W44415  30.057  16.374  11.623
79255W        W44416  37.304  38.312  10.188
79256W        W44417  20.018  41.489   3.987
79257W        W44418  13.720  19.786  10.746
79258W        W44419  22.778   0.866   5.038
79259W        W44420  44.520  22.169  11.932
79260W        W44421  31.757  27.663   0.093
79261W        W44422  33.976  44.711  11.490
79262W        W44423  40.582  39.887  14.308
79263W        W44424   1.788  35.135  10.966
79264W        W44425  30.074  22.392   3.611
79265W        W44426  40.797  22.831   4.828
79266W        W44427  13.724  31.839   0.858
79267W        W44428   2.032  27.995   0.277
79268W        W44429  42.277  22.331   0.383
79269W        W44430   4.296  27.278   2.572
79270W        W44431  38.561   0.429  13.025
79271W        W44432  33.463  23.004  13.435
79272W        W44433  28.868  33.020  12.618
79273W        W44434  19.810  19.499   3.749
79274W        W44435  23.920  33.762  11.861
79275W        W44436   0.928  32.121   5.302
79276W        W44437  16.233  17.524  14.916
79277W        W44438   3.076  29.235   5.059
79278W        W44439  22.614  22.821  12.523
79279W        W44440  12.581   5.218  13.022
79280W        W44441  42.435  22.176  12.871
79281W        W44442   3.459  30.122   1.792
79282W        W44443  26.639  24.119   3.238
79283W        W44444   5.608  13.133   4.648
79284W        W44445  20.734  41.958   1.934
79285W        W44446  21.952   7.374   1.518
79286W        W44447  21.601  42.943   0.690
79287W        W44448  11.439   0.214   1.818
79288W        W44449   0.421  28.437  12.894
79289W        W44450  20.759   4.367  11.623
79290W        W44451   7.286  23.057  11.130
79291W        W44452  29.186   3.253   2.313
79292W        W44453  22.624  34.110  11.501
79293W        W44454   4.501  28.997   0.723
79294W        W44455  36.985  33.219  13.935
79295W        W44456  39.001  11.320  11.667
79296W        W44457  41.439  38.370   2.360
79297W        W44458  19.088  23.976   0.101
79298W        W44459  32.646  21.638   4.264
79299W        W44460  21.490  36.318   2.653
79300W        W44461  22.119   9.448   1.254
79301W        W44462  34.083  25.903   1.260
79302W        W44463  13.725   9.427  11.576
79303W        W44464  11.506  27.046   1.760
79304W        W44465  25.692   9.610   4.977
79305W        W44466  42.046   2.450  13.875
79306W        W44467  44.987  35.845   0.680
79307W        W44468  43.938  39.596   4.667
79308W        W44469  24.724  30.321  14.988
79309W        W44470  18.161  40.251  12.423
79310W        W44471   9.058   6.171  11.006
79311W        W44472  29.094  27.422  11.547
79312W        W44473  25.540  27.623  11.127
79313W        W44474  11.855  20.327  14.460
79314W        W44475  40.889  39.023   3.297
79315W        W44476   6.748   9.947   2.782
79316W        W44477  32.682  13.884  12.067
79317W        W44478   2.766   2.943   3.325
79318W        W44479  41.760   0.867   0.832
79319W        W44480  29.125   0.354  13.358
79320W        W44481  41.785  13.919   0.878
79321W        W44482   5.796  30.410  12.560
79322W        W44483  44.961  35.123  13.787
79323W        W44484   8.110  28.052   4.545
79324W        W44485   4.458  41.940  12.320
79325W        W44486  15.986  37.905  12.849
79326W        W44487  30.305  11.905   0.322
79327W        W44488  32.446  10.357  13.984
79328W        W44489  38.236  25.487  13.245
79329W        W44490   0.745  38.904  14.513
79330W        W44491  11.673   8.957   4.718
79331W        W44492  22.561   8.960  10.056
79332W        W44493  14.118   6.420   3.188
79333W        W44494  43.874  22.589  14.495
79334W        W44495   6.411  24.493   2.915
79335W        W44496   3.182  10.384   2.300
79336W        W44497  44.361   9.564  14.093
79337W        W44498  22.853  34.724   3.688
79338W        W44499   2.759  27.218  13.797
79339W        W44500  25.327   5.191   1.144
79340W        W44501  35.211  44.877   1.300
79341W        W44502  10.483  28.634   2.708
79342W        W44503  11.352  22.754   4.442
79343W        W44504  21.459  40.111   5.535
79344W        W44505  13.329  24.467   4.394
79345W        W44506  28.852  43.333  13.438
79346W        W44507  18.197  35.935   0.262
79347W        W44508  30.970  13.572  12.855
79348W        W44509  19.336  40.013   3.860
79349W        W44510  15.978  32.109   3.720
79350W        W44511  14.624  42.404   3.228
79351W        W44512  30.276  23.197   3.093
79352W        W44513  16.602  16.612  12.127
79353W        W44514  30.287  32.493  11.207
79354W        W44515  18.061   7.292   1.244
79355W        W44516  39.089  14.143   0.601
79356W        W44517  34.005  33.883  14.466
79357W        W44518  33.376  41.262   1.014
79358W        W44519  20.292  35.206  11.139
79359W        W44520   3.386   4.932  12.393
79360W        W44521  25.147  44.314   4.848
79361W        W44522  18.797   8.474  13.413
79362W        W44523  35.940   2.630  12.137
79363W        W44524  19.166   5.185  14.312
79364W        W44525  20.320  43.180   1.950
79365W        W44526   7.317  14.925   2.375
79366W        W44527  24.576  26.379  14.430
79367W        W44528  16.794  41.452   0.299
79368W        W44529  22.440  31.568   3.809
79369W        W44530   4.319  37.400   1.717
79370W        W44531  26.485  19.192   0.388
79371W        W44532   3.806  19.186  10.673
79372W        W44533  22.240  40.904  12.593
79373W        W44534  27.049   2.199   0.596
79374W        W44535  21.570   2.000   3.752
79375W        W44536   6.260  10.844  12.861
79376W        W44537  29.179   4.954   4.113
79377W        W44538  24.127   1.918   9.972
79378W        W44539   5.743   2.701  12.472
79379W        W44540  25.191  32.444  11.245
79380W        W44541  18.851  39.903   1.325
79381W        W44542  43.778   8.728  14.068
79382W        W44543  36.896  31.574  13.897
79383W        W44544   7.254  28.171   3.372
79384W        W44545  40.879  31.547   3.379
79385W        W44546  44.316  34.025  12.876
79386W        W44547  20.772  10.141  10.804
79387W        W44548  16.108  19.808  11.029
79388W        W44549  23.502  39.092  10.373
79389W        W44550   2.240  27.880   1.707
79390W        W44551  18.523  27.493   0.767
79391W        W44552  33.739  42.573  12.609
79392W        W44553  32.634  28.560   0.949
79393W        W44554  20.215   1.431   2.000
79394W        W44555  19.397   4.784  14.570
79395W        W44556   6.402  38.089   0.832
79396W        W44557   0.558  25.036  11.645
79397W        W44558  35.532  42.313   3.843
79398W        W44559  43.862   3.063   4.110
79399W        W44560   0.129   5.757  11.605
79400W        W44561   8.491  15.739  13.548
79401W        W44562   2.300  32.050  14.910
79402W        W44563  28.912   3.997  13.469
79403W        W44564  37.974  31.002   0.123
79404W        W44565  14.035  22.580  12.523
79405W        W44566  20.509  21.803   0.449
79406W        W44567  27.745  33.601   3.129
79407W        W44568   8.224  37.117  13.182
79408W        W44569  24.195  23.280  14.117
79409W        W44570  33.850  30.555  14.108
79410W        W44571  15.197  11.634  13.374
79411W        W44572   8.801  11.078  12.104
79412W        W44573  38.339  13.798  10.659
79413W        W44574  43.495  32.567  10.487
79414W        W44575  28.629  20.006  11.131
79415W        W44576  21.158  25.092  11.687
79416W        W44577  22.752  40.627   0.097
79417W        W44578  44.011  39.663   3.190
79418W        W44579  37.983  44.519   1.828
79419W        W44580   9.853  43.930   3.252
79420W        W44581  37.854  14.225  13.344
79421W        W44582  15.706  13.126  12.696
79422W        W44583  25.453  11.734  13.486
79423W        W44584  42.516   4.205  12.912
79424W        W44585   3.447  19.682   2.559
79425W        W44586   8.538  27.111   1.257
79426W        W44587  10.082  10.617   3.272
79427W        W44588   0.986  44.388   0.792
79428W        W44589   3.484  10.271  14.901
79429W        W44590  31.627  25.487   2.736
79430W        W44591   0.861  42.443   2.445
79431W        W44592   7.163   1.050   2.182
79432W        W44593   6.381   4.370  13.928
79433W        W44594  23.269  22.060  12.386
79434W        W44595  21.857   9.464   4.212
79435W        W44596  16.184  37.127   4.601
79436W        W44597  20.978  42.220   5.480
79437W        W44598  30.415  32.536   0.290
79438W        W44599  14.525  36.782   1.487
79439W        W44600  33.441  41.788   2.842
79440W        W44601  32.028   0.850   2.085
79441W        W44602   2.324  10.778  12.109
79442W        W44603  33.464  13.581   4.113
79443W        W44604  44.246  32.405   3.449
79444W        W44605  22.190  13.705  14.533
79445W        W44606   4.755  23.588  12.019
79446W        W44607   6.001   8.294  12.312
79447W        W44608   9.334  19.635   1.022
79448W        W44609  28.782  33.593  13.483
79449W        W44610  41.580   1.874   4.382
79450W        W44611   8.963  29.672   3.715
79451W        W44612   5.941  10.469   3.748
79452W        W44613  12.273  22.942   4.031
79453W        W44614   8.886  39.714   2.243
79454W        W44615  39.407   1.015  13.776
79455W        W44616  37.160  34.031   4.698
79456W        W44617   7.272  37.764  14.421
79457W        W44618  24.503  43.370  12.422
79458W        W44619   7.925  33.855   1.840
79459W        W44620  11.409  19.239   2.365
79460W        W44621   3.848  39.835  14.422
79461W        W44622   0.906  14.390   1.083
79462W        W44623  32.779  43.775   2.429
79463W        W44624   9.353  14.576  14.865
79464W        W44625   3.808   3.380   0.194
79465W        W44626  37.443  24.631  11.642
79466W        W44627  38.984  36.927   3.148
79467W        W44628   2.231  28.569   0.451
79468W        W44629  42.249   9.669   0.965
79469W        W44630   8.128  23.858   4.151
79470W        W44631  33.311   9.698  10.699
79471W        W44632  16.918  27.578   2.879
79472W        W44633  31.362   8.550  14.456
79473W        W44634   5.844  36.600   1.393
79474W        W44635  39.214  31.935  12.792
79475W        W44636  24.745  31.120  11.954
79476W        W44637  22.131  27.649  12.957
79477W        W44638  18.048  41.003   0.246
79478W        W44639  40.266  42.744  10.563
79479W        W44640  16.798  13.258  13.512
79480W        W44641  40.373  23.353   1.747
79481W        W44642  18.970  16.963   0.316
79482W        W44643   5.134  28.837  10.999
79483W        W44644  29.445  11.634   0.467
79484W        W44645  11.189  35.922  14.581
79485W        W44646  44.395  12.080  13.636
79486W        W44647  24.913  21.290   0.756
79487W        W44648  18.572  34.940  12.510
79488W        W44649  17.006  18.982  12.660
79489W        W44650  12.514   5.701  13.539
79490W        W44651  31.453   1.486   0.940
79491W        W44652  16.547  40.767  11.181
79492W        W44653  35.932  10.997  12.159
79493W        W44654   1.724  31.165   1.820
79494W        W44655  39.880  33.305  14.846
79495W        W44656  24.399  10.270   2.222
79496W        W44657   4.794  15.757   4.140
79497W        W44658  25.637  32.679   1.864
79498W        W44659  17.723  12.878   3.178
79499W        W44660  28.507  21.520   3.060
79500W        W44661  26.814  28.832  14.744
79501W        W44662  33.838  29.026  12.916
79502W        W44663  31.156   6.233  12.417
79503W        W44664   2.961   6.725   2.829
79504W        W44665  27.416  22.251  14.815
79505W        W44666  34.612  26.638   0.919
79506W        W44667   7.281  28.169  10.589
79507W        W44668  30.980   8.185   2.623
79508W        W44669  19.701  39.296  11.898
79509W        W44670  27.768  15.871   2.236
79510W        W44671  11.139   4.694  14.082
79511W        W44672  33.895  33.145   2.822
79512W        W44673  20.591  36.491   3.477
79513W        W44674  41.924  25.031   1.178
79514W        W44675  35.590  19.706  14.378
79515W        W44676  42.471  26.908   0.415
79516W        W44677  27.369  17.019   1.520
79517W        W44678  43.946  23.644  11.693
79518W        W44679  22.197   7.766   4.315
79519W        W44680  38.548  39.473   4.562
79520W        W44681   8.906  28.467   0.763
79521W        W44682  24.606   8.385  14.299
79522W        W44683  35.032  17.177   2.781
79523W        W44684  12.651  11.081  13.809
79524W        W44685  19.236   2.216   0.479
79525W        W44686   2.239  15.337  12.470
79526W        W44687  40.001  43.585  10.716
79527W        W44688  41.032   6.103  14.090
79528W        W44689  13.790  10.775  14.298
79529W        W44690  28.405   6.576  14.114
79530W        W44691  10.159  14.166   4.139
79531W        W44692   2.502  19.188   3.188
79532W        W44693  29.440  10.908  11.357
79533W        W44694   2.228  24.228   0.080
79534W        W44695  44.773  41.684  14.195
79535W        W44696  32.899  41.076   1.758
79536W        W44697  17.804  16.063   0.187
79537W        W44698  34.986  17.750   4.750
79538W        W44699  44.500   9.800   3.333
79539W        W44700   6.211  27.644   0.384
79540W        W44701  32.073  10.889  12.961
79541W        W44702  26.702  10.584  13.081
79542W        W44703  36.448  39.932  13.107
79543W        W44704  37.192   8.264   4.981
79544W        W44705   2.830  26.606  11.126
79545W        W44706  10.233  40.335  10.614
79546W        W44707   8.402  44.746  12.634
79547W        W44708  10.492  21.566  13.328
79548W        W44709   5.543   6.987   1.213
79549W        W44710  10.844  12.752  14.269
79550W        W44711  25.449  29.987   0.836
79551W        W44712  23.981  38.833   1.994
79552W        W44713  10.124  36.976   0.110
79553W        W44714  42.906   9.310   3.801
79554W        W44715  42.830  40.074   2.456
79555W        W44716  26.912  30.342   3.258
79556W        W44717  14.164  43.969  10.348
79557W        W44718   6.161  30.081  13.659
79558W        W44719  36.150  20.921  13.611
79559W        W44720  32.823   6.440  12.404
79560W        W44721  21.006  16.007   0.351
79561W        W44722  41.017  18.507   1.192
79562W        W44723  20.678  15.613   4.106
79563W        W44724  35.984  34.441  11.257
79564W        W44725  18.296  18.160  14.292
79565W        W44726  25.081  13.342   1.216
79566W        W44727  20.328   5.871   0.371
79567W        W44728  16.997  10.082  10.596
79568W        W44729  23.003  20.133   1.585
79569W        W44730  29.544  39.185  13.088
79570W        W44731   4.393  27.966  11.670
79571W        W44732  11.289  14.159  14.997
79572W        W44733  20.785   0.456  10.272
79573W        W44734  24.142   7.664   5.084
79574W        W44735  40.328  15.014  12.008
79575W        W44736  38.246  39.361  13.472
79576W        W44737  39.294   0.273   0.857
79577W        W44738  16.567  14.559   0.485
79578W        W44739   2.202  29.862  10.887
79579W        W44740   5.372  15.668   2.537
79580W        W44741  33.207  18.383   0.014
79581W        W44742  21.731  37.390  13.973
79582W        W44743  32.991  15.400   2.285
79583W        W44744   2.452   1.154   4.202
79584W        W44745   5.341  14.409   3.251
79585W        W44746  21.907   0.049  11.516
79586W        W44747  36.618   7.660  14.819
79587W        W44748  31.472  13.693   4.141
79588W        W44749  24.943  31.089  11.475
79589W        W44750  42.068  37.935   0.298
79590W        W44751  26.919  14.398   3.627
79591W        W44752  29.021  29.587  12.308
79592W        W44753  23.193   1.812  13.958
79593W        W44754  35.084  24.359   4.994
79594W        W44755   3.789  31.939  12.500
79595W        W44756  32.884   0.188   2.306
79596W        W44757  39.983  15.090   0.193
79597W        W44758   7.691  10.691  13.193
79598W        W44759  41.822   9.269  13.640
79599W        W44760  16.344  40.851   1.693
79600W        W44761  14.774   0.775  11.602
79601W        W44762  30.688   7.215   2.717
79602W        W44763  37.416   0.539  10.178
79603W        W44764  20.941  40.292  10.545
79604W        W44765   0.245  23.970   3.683
79605W        W44766  11.223   7.772   3.360
79606W        W44767  44.287  29.153   2.796
79607W        W44768  30.569  39.945  13.811
79608W        W44769  38.868   6.625  14.943
79609W        W44770  34.632  38.946   0.761
79610W        W44771  17.098   7.053   4.137
79611W        W44772   4.803  12.536   0.369
79612W        W44773  16.032  44.016  14.404
79613W        W44774  16.730  13.304  14.531
79614W        W44775  37.543  30.787   4.604
79615W        W44776  42.208  35.547  10.179
79616W        W44777  18.197  18.793   1.388
79617W        W44778  40.455   7.222   1.752
79618W        W44779   2.914   4.340   1.439
79619W        W44780   2.518  41.409  11.355
79620W        W44781  23.026  31.581   2.693
79621W        W44782   1.937   8.190  10.446
79622W        W44783  44.368  22.528   3.386
79623W        W44784   8.072  35.184   4.937
79624W        W44785  28.468  30.519  13.158
79625W        W44786  28.443   2.448   3.204
79626W        W44787   5.544  39.559  11.725
79627W        W44788   6.368  17.642  10.918
79628W        W44789  10.754  29.585   1.988
79629W        W44790  43.376   0.674   1.502
79630W        W44791  27.004  16.314   4.588
79631W        W44792  22.262  15.330   2.416
79632W        W44793  29.056  24.543  13.974
79633W        W44794  19.806  21.010  11.596
79634W        W44795  41.416  26.499   0.781
79635W        W44796  26.562  12.207  11.867
79636W        W44797  43.004   7.728   4.005
79637W        W44798  25.682  24.411  13.420
79638W        W44799  11.228  32.623  11.074
79639W        W44800  13.581  40.405  13.810
79640W        W44801  38.064  22.119   3.772
79641W        W44802  21.460   2.801  11.189
79642W        W44803  44.858  40.472   3.987
79643W        W44804  24.961  42.437   0.694
79644W        W44805  15.667  16.782   1.250
79645W        W44806  37.324   0.264  13.079
79646W        W44807  34.352  36.502   1.897
79647W        W44808  15.353  19.492  12.993
79648W        W44809  31.742  28.161   3.645
79649W        W44810  30.939  24.883  13.074
79650W        W44811  11.137  16.145  11.388
79651W        W44812  40.492  18.606   1.187
79652W        W44813  39.915  10.787  10.774
79653W        W44814  36.016  10.624  12.544
79654W        W44815  29.364   3.856  12.606
79655W        W44816   0.765  42.090   3.735
79656W        W44817  40.293  44.936  11.348
79657W        W44818  17.208  43.516  14.336
79658W        W44819   0.763   9.945  11.947
79659W        W44820   2.218   1.476   1.272
79660W        W44821  19.141  35.110  14.334
79661W        W44822  20.866  28.519  13.545
79662W        W44823  32.919  33.305  11.115
79663W        W44824   2.061  35.054   2.420
79664W        W44825   5.400   9.866  11.877
79665W        W44826   1.425  44.734  13.342
79666W        W44827  44.870  28.752  11.179
79667W        W44828   2.568  18.786  13.174
79668W        W44829  21.114  13.074   4.041
79669W        W44830   5.439  34.292  13.492
79670W        W44831  17.218  41.715   2.161
79671W        W44832   6.513  39.559   1.609
79672W        W44833  12.023  10.838   3.543
79673W        W44834  33.389  37.489  14.443
79674W        W44835  11.257  33.750   2.300
79675W        W44836  27.885  33.459  13.834
79676W        W44837   1.341  13.510   4.257
79677W        W44838   1.293  11.177   3.700
79678W        W44839  10.811  25.643   0.490
79679W        W44840   4.234  44.906  11.860
79680W        W44841   2.016  22.039   3.560
79681W        W44842  44.907   0.583  11.526
79682W        W44843  25.338  44.382  12.042
79683W        W44844  34.975   9.745  13.435
79684W        W44845  36.250  34.221  10.346
79685W        W44846  34.990   1.640   2.482
79686W        W44847   9.827   7.814   4.605
79687W        W44848  24.329  28.511  13.009
79688W        W44849  39.242  21.671  12.577
79689W        W44850  41.829   7.656  14.412
79690W        W44851  36.332  11.793  14.760
79691W        W44852  40.967  19.059   4.070
79692W        W44853  18.762  23.424   1.166
79693W        W44854  31.675  23.231  14.773
79694W        W44855   1.255   0.063   2.685
79695W        W44856  39.529  23.085   2.275
79696W        W44857  29.970  13.980  11.375
79697W        W44858   6.001  15.665  14.313
79698W        W44859   3.648   4.278  13.977
79699W        W44860  26.665  42.200  12.972
79700W        W44861  10.803  20.040   3.199
79701W        W44862  22.043  40.447   1.135
79702W        W44863  19.550  38.292   3.244
79703W        W44864  14.338  37.119  13.517
79704W        W44865  43.447   9.675   2.882
79705W        W44866  16.238  26.535  13.501
79706W        W44867   9.234  19.964  12.069
79707W        W44868   3.192  23.710   4.145
79708W        W44869  39.458   1.799   3.231
79709W        W44870  35.063  27.651   1.409
79710W        W44871   3.054  36.942  12.417
79711W        W44872  16.757   3.464  11.811
79712W        W44873  42.859  23.633   0.774
79713W        W44874  33.530  15.276   1.419
79714W        W44875  10.449  27.206  12.408
79715W        W44876  11.650  26.482   3.714
79716W        W44877  38.327  33.314  12.322
79717W        W44878   8.944  24.418   3.401
79718W        W44879  17.732  24.102   4.305
79719W        W44880  29.461  38.084   2.695
79720W        W44881   0.448  16.148   2.356
79721W        W44882   1.888  40.038   1.869
79722W        W44883  43.771  42.209  12.022
79723W        W44884   9.567  31.779  13.059
79724W        W44885  30.954  33.992  11.545
79725W        W44886  41.487  25.089  11.208
79726W        W44887  44.037  20.499  13.868
79727W        W44888   4.698  37.017  10.936
79728W        W44889  34.540  15.752  10.768
79729W        W44890  27.122  44.750   1.411
79730W        W44891  39.527   9.669  11.361
79731W        W44892   8.424  14.640   4.696
79732W        W44893  18.104  31.593  10.659
79733W        W44894  16.512   3.252  13.499
79734W        W44895  20.188   4.886  10.660
79735W        W44896  29.069  36.660  14.595
79736W        W44897  39.295   2.622  13.159
79737W        W44898  14.704  38.284  13.525
79738W        W44899  18.904   5.414   2.959
79739W        W44900  42.166  23.663   1.882
79740W        W44901  14.223  38.096   1.864
79741W        W44902  37.009  42.995  14.153
79742W        W44903   0.793  14.333   5.070
79743W        W44904   5.250  23.494  13.768
79744W        W44905  26.703  27.792   4.466
79745W        W44906  26.004  17.298   3.270
79746W        W44907  24.732   9.463   1.704
79747W        W44908  13.109  13.089   2.294
79748W        W44909  35.145  14.587  12.955
79749W        W44910  21.165   8.440   0.713
79750W        W44911   5.023  26.501  11.870
79751W        W44912  19.733  43.390   0.009
79752W        W44913  37.628  44.400   0.350
79753W        W44914  40.901  41.060   2.314
79754W        W44915  24.008  17.758  12.504
79755W        W44916  37.045  37.635   2.081
79756W        W44917  19.719  41.322  14.550
79757W        W44918  30.631  25.084  11.621
79758W        W44919  21.919  10.734  13.503
79759W        W44920   3.352   1.353   1.702
79760W        W44921   3.354  21.969  10.691
79761W        W44922  17.316   2.619  11.569
79762W        W44923  37.518  30.138  12.132
79763W        W44924  13.165   4.187   2.303
79764W        W44925  37.418  11.321   0.878
79765W        W44926  38.864  43.911   3.756
79766W        W44927   7.292  37.516   0.895
79767W        W44928   4.976  35.669  13.805
79768W        W44929  39.921  10.461  11.161
79769W        W44930  20.698  38.331   0.000
79770W        W44931  20.003   4.138  13.197
79771W        W44932  37.913   0.428  10.376
79772W        W44933  28.540  43.241   0.226
79773W        W44934  39.244  11.472  14.486
79774W        W44935  41.869  21.739  13.919
79775W        W44936  16.232  38.528   1.376
79776W        W44937  12.215   3.337  14.380
79777W        W44938  19.537  38.782  13.873
79778W        W44939  35.011   4.519   2.588
79779W        W44940  25.264  37.891   4.100
79780W        W44941  27.976  27.269   0.344
79781W        W44942  26.180  29.283  11.225
79782W        W44943  43.564  33.563   1.984
79783W        W44944  19.813  17.127  12.966
79784W        W44945  43.921  11.194   1.178
79785W        W44946  17.689  30.063  14.287
79786W        W44947  24.369   7.679  14.898
79787W        W44948  39.929  25.089  13.777
79788W        W44949   5.426  37.914  12.929
79789W        W44950   9.492  19.947  12.501
79790W        W44951   2.273  12.605   2.351
79791W        W44952  32.756  26.694  13.461
79792W        W44953  11.367  43.935   2.174
79793W        W44954  25.146  14.730   3.243
79794W        W44955   0.454  30.753  12.075
79795W        W44956  19.548  30.687   0.290
79796W        W44957  29.909  31.172  14.859
79797W        W44958   3.419   7.604   4.777
79798W        W44959  18.145  31.870  12.039
79799W        W44960   2.592  32.905  12.071
79800W        W44961  35.219   7.885  13.914
79801W        W44962  18.734   3.881  11.046
79802W        W44963   5.393  25.145   4.120
79803W        W44964  19.942  26.803  14.842
79804W        W44965  22.641  41.858   4.034
79805W        W44966   6.766  29.435  11.940
79806W        W44967  42.985  22.820   1.859
79807W        W44968   4.950  34.632  13.497
79808W        W44969  42.596  17.564  14.440
79809W        W44970  40.035   7.387   0.972
79810W        W44971  13.797  44.897  14.782
79811W        W44972  26.038  37.107   1.242
79812W        W44973  20.683  28.121   4.684
79813W        W44974   1.718  32.876   2.656
79814W        W44975  30.136  31.630   3.321
79815W        W44976  13.173  36.836   3.852
79816W        W44977  31.063  27.038  13.879
79817W        W44978  32.536  19.116   0.913
79818W        W44979  10.946  25.613   3.243
79819W        W44980  23.547  43.650  14.509
79820W        W44981   7.741  33.328  14.879
79821W        W44982  13.814  25.192   3.255
79822W        W44983  15.147  29.874   2.965
79823W        W44984  25.014  31.086  10.586
79824W        W44985   5.392  12.228  10.190
79825W        W44986  14.303  30.996   2.275
79826W        W44987   3.507  39.491  14.636
79827W        W44988  21.689  33.501   2.472
79828W        W44989  11.649   9.973  10.379
79829W        W44990   7.589  26.095   0.267
79830W        W44991   2.453  24.028  10.297
79831W        W44992  11.874  15.599   4.160
79832W        W44993   6.964  31.197   2.330
79833W        W44994  14.744   0.709  12.929
79834W        W44995  38.976   8.145  13.005
79835W        W44996   6.253  33.856  12.515
79836W        W44997  11.851  42.593  13.299
79837W        W44998   6.610  10.833   2.995
79838W        W44999  20.733  13.792  11.136
79839W        W45000  43.977  44.060  14.930
79840W        W45001   1.877  28.632   1.948
79841W        W45002  37.011  38.091  12.527
79842W        W45003  39.618  37.804  14.552
79843W        W45004  15.777   7.479  10.856
79844W        W45005  29.726  36.358   1.764
79845W        W45006  35.432   8.665   2.212
79846W        W45007  14.404  26.656  12.071
79847W        W45008  16.921  27.830   1.300
79848W        W45009   5.792  26.833   4.476
79849W        W45010   9.192  40.071   2.415
79850W        W45011  21.554  26.532   3.583
79851W        W45012  19.669  20.452  14.106
79852W        W45013  27.495  39.427   3.223
79853W        W45014  43.991  10.994   4.108
79854W        W45015  24.181  15.335  12.132
79855W        W45016   7.348  22.176  14.503
79856W        W45017   9.829  22.020   1.387
79857W        W45018  36.462  34.564   1.179
79858W        W45019  14.685   2.726  12.457
79859W        W45020  43.813  32.123   1.719
79860W        W45021  25.002  24.218   1.822
79861W        W45022  31.173   4.059   2.318
79862W        W45023  42.722  24.177  11.879
79863W        W45024  42.546  16.682  14.210
79864W        W45025  15.586   1.338   2.096
79865W        W45026  37.381  24.146  12.190
79866W        W45027   4.092  38.377  14.799
79867W        W45028   5.717  13.301   2.557
79868W        W45029   1.181  28.014   2.690
79869W        W45030  44.942  42.939  12.154
79870W        W45031  41.341   2.353  11.827
79871W        W45032  19.746   6.834   0.973
79872W        W45033  32.217   3.450  14.056
79873W        W45034  10.365  30.222  13.107
79874W        W45035  10.766   4.600   0.500
79875W        W45036  26.015  33.078  14.278
79876W        W45037   9.448  20.594  11.704
79877W        W45038   4.820   8.879   2.728
79878W        W45039  40.633  30.119   1.724
79879W        W45040   2.305  20.800   4.235
79880W        W45041  32.398  17.561  12.430
79881W        W45042  36.368   8.235   1.268
79882W        W45043  38.308  25.475  12.069
79883W        W45044   0.766  29.983   4.171
79884W        W45045  25.845  36.422  10.237
79885W        W45046   9.418  37.543   2.656
79886W        W45047   8.739   6.624  13.055
79887W        W45048  33.949  23.966  14.830
79888W        W45049   8.656  14.862   1.353
79889W        W45050  37.779  20.007  12.504
79890W        W45051  21.826  32.452   4.013
79891W        W45052  15.662   3.659   3.182
79892W        W45053  43.456   6.130  11.691
79893W        W45054  38.044  17.791   1.353
79894W        W45055  20.069  10.713  11.898
79895W        W45056  18.683  17.075   1.226
79896W        W45057   3.297   5.301  11.004
79897W        W45058  37.101   0.154   3.674
79898W        W45059  10.554  21.584  10.719
79899W        W45060  21.246  37.828   4.591
79900W        W45061  44.806  32.784  13.603
79901W        W45062  38.255   7.282  10.786
79902W        W45063  19.712  17.019   2.750
79903W        W45064  19.885  12.851   4.179
79904W        W45065  28.787  18.116   1.706
79905W        W45066  41.394  42.888  12.532
79906W        W45067   5.693  28.358  11.984
79907W        W45068   8.952  27.055  10.293
79908W        W45069  41.737  15.654  10.349
79909W        W45070   0.901  42.947  14.619
79910W        W45071   2.506  27.266   3.349
79911W        W45072  29.863  22.422   1.971
79912W        W45073   5.956   1.411   4.095
79913W        W45074  19.727  13.238  13.514
79914W        W45075   6.297  16.244   1.791
79915W        W45076   8.709  29.950  14.977
79916W        W45077  11.699   2.741   4.225
79917W        W45078  35.054  43.779   2.870
79918W        W45079  11.376   6.276  10.659
79919W        W45080  31.942  36.044   3.634
79920W        W45081   2.451  23.563  14.991
79921W        W45082  34.636   2.841   4.555
79922W        W45083  17.033   0.446   1.362
79923W        W45084   1.008   7.255  11.637
79924W        W45085   5.866  40.791  12.925
79925W        W45086  30.697  25.636  13.321
79926W        W45087   6.941  11.270   2.372
79927W        W45088   0.052   2.629  11.951
79928W        W45089  16.389  30.445   0.478
79929W        W45090  15.427  32.812  12.627
79930W        W45091  38.929   5.053   2.895
79931W        W45092   7.280  31.115   4.436
79932W        W45093  23.544  12.676   4.163
79933W        W45094  30.985   0.258  12.780
79934W        W45095  16.835  32.285   4.078
79935W        W45096  40.183  33.739   3.350
79936W        W45097  22.654  12.104   4.316
79937W        W45098  15.572  21.438   4.798
79938W        W45099  17.306   0.889  10.424
79939W        W45100   7.128   4.942  14.450
79940W        W45101  31.542  15.263  11.157
79941W        W45102  23.512  31.551  13.957
79942W        W45103  21.668  28.028   1.955
79943W        W45104  24.267  34.151  12.054
79944W        W45105  13.606  17.544  13.929
79945W        W45106  28.880  11.365   3.212
79946W        W45107  24.466  11.200  13.982
79947W        W45108  10.130  18.760  13.118
79948W        W45109  32.466   1.510   2.338
79949W        W45110  14.274   6.725   3.839
79950W        W45111  35.074  19.752   3.674
79951W        W45112  13.174  19.306  13.352
79952W        W45113  42.000  42.462   4.465
79953W        W45114   8.840  31.066   1.337
79954W        W45115  43.548  32.381  14.305
79955W        W45116  16.252  42.905  14.896
79956W        W45117  18.180  41.765   2.955
79957W        W45118  36.595  31.521   2.018
79958W        W45119   1.826  34.972  14.991
79959W        W45120  12.355  11.134  10.756
79960W        W45121   1.341   9.922   0.827
79961W        W45122  40.028  26.445  11.086
79962W        W45123  30.203   7.250   4.411
79963W        W45124   2.419  30.817  13.320
79964W        W45125  33.601   9.917  12.061
79965W        W45126  21.294  36.459  12.899
79966W        W45127  16.699  37.015  10.516
79967W        W45128  18.238  14.190   2.299
79968W        W45129   9.863  26.707   0.338
79969W        W45130  29.899  33.938   2.343
79970W        W45131  11.371   3.366  11.595
79971W        W45132  26.726  23.498  11.570
79972W        W45133  35.640   7.476  13.054
79973W        W45134  44.392   0.375   0.337
79974W        W45135  32.416  18.734   0.007
79975W        W45136  19.140  39.371   2.622
79976W        W45137  28.180  15.373  13.578
79977W        W45138  29.379   8.157  13.895
79978W        W45139  42.872  35.655  14.356
79979W        W45140  42.301  43.691   0.701
79980W        W45141   6.818  24.493  11.669
79981W        W45142   6.375  14.853  10.631
79982W        W45143  15.086   4.607  12.609
79983W        W45144  30.022  25.033  13.404
79984W        W45145  20.857  38.828   5.146
79985W        W45146  36.882  12.851   1.829
79986W        W45147  31.704  18.749   2.750
79987W        W45148  31.414   4.238   3.194
79988W        W45149  40.823   9.905  11.270
79989W        W45150  12.179   8.149   2.359
79990W        W45151  39.422  13.983  11.951
79991W        W45152   7.967  40.390   0.785
79992W        W45153  41.975   0.366   1.332
79993W        W45154  33.337  41.968  10.646
79994W        W45155   2.949  35.429   0.730
79995W        W45156  27.728  13.544  11.390
79996W        W45157  23.651   3.332   4.268
79997W        W45158  16.494  11.744  12.863
79998W        W45159   3.748  33.056   3.631
79999W        W45160   3.169  13.916   0.822
80000W        W45161  11.779   2.142  13.848
80001W        W45162  36.350  44.334   5.015
80002W        W45163  41.387  18.009  14.386
80003W        W45164  41.986  13.218   3.743
80004W        W45165  11.268  19.653  11.173
80005W        W45166  14.628  36.537  14.549
80006W        W45167  17.674  36.005  14.469
80007W        W45168  29.937  17.177  11.962
80008W        W45169  39.167   6.515   2.763
80009W        W45170  38.336   5.283   1.670
80010W        W45171  22.793   8.090  12.530
80011W        W45172   1.744  28.819   0.506
80012W        W45173  19.249  19.095   3.118
80013W        W45174  43.795  42.801   0.167
80014W        W45175  40.720  17.296   4.749
80015W        W45176  44.213   0.945   0.020
80016W        W45177  25.637  40.954   5.278
80017W        W45178  43.930  27.760   2.675
80018W        W45179   9.218  36.248   2.524
80019W        W45180  39.678  37.402  11.965
80020W        W45181  23.456   6.356   1.778
80021W        W45182  20.574   5.303  14.516
80022W        W45183  28.582  23.745   0.181
80023W        W45184  38.007  13.750  11.089
80024W        W45185   1.862  13.730   0.732
80025W        W45186  36.941  42.008  13.884
80026W        W45187  42.176  32.054   4.607
80027W        W45188  14.514  43.933  12.023
80028W        W45189  13.031   1.939  14.880
80029W        W45190   9.924  12.432  13.956
80030W        W45191  29.192  42.951  13.475
80031W        W45192   4.791  37.479  13.104
80032W        W45193  15.817  39.650   0.356
80033W        W45194  19.858  34.383   0.957
80034W        W45195  28.855  22.255  14.024
80035W        W45196  35.330   2.217  10.939
80036W        W45197   1.765  13.075  14.945
80037W        W45198  17.064  21.738   0.786
80038W        W45199  29.479  23.407   0.848
80039W        W45200  28.756   2.288   4.023
80040W        W45201  32.874  14.358   4.660
80041W        W45202  40.306  40.529  12.895
80042W        W45203   0.135  43.991  14.478
80043W        W45204  29.179  34.321   3.020
80044W        W45205  12.749  26.939  11.140
80045W        W45206  12.911  10.783  12.024
80046W        W45207  16.273   3.378   4.432
80047W        W45208   4.952  19.551  12.119
80048W        W45209  17.607  44.718   4.623
80049W        W45210  34.295  14.254  13.101
80050W        W45211  14.870  34.412   2.294
80051W        W45212  31.481   0.041   2.113
80052W        W45213  41.328   1.682  14.739
80053W        W45214  42.770  16.265  13.965
80054W        W45215   1.744  40.117   4.103
80055W        W45216   8.363  22.699  12.443
80056W        W45217  44.812  29.833   2.360
80057W        W45218  19.326   1.357  12.601
80058W        W45219  40.556   8.433  10.582
80059W        W45220  18.806  43.106   2.707
80060W        W45221  13.834  31.010  14.256
80061W        W45222  16.609  44.576  10.765
80062W        W45223  36.009  10.844   4.577
80063W        W45224   3.555   7.705   0.313
80064W        W45225  23.907  17.260  14.288
80065W        W45226  22.782  38.693   2.732
80066W        W45227   1.198  11.675  13.064
80067W        W45228  30.376  23.052   3.599
80068W        W45229  14.176  11.142  10.825
80069W        W45230  33.344   6.673  11.666
80070W        W45231  40.101  36.412  13.860
80071W        W45232  14.715  13.118  11.533
80072W        W45233  27.704  10.010  12.021
80073W        W45234  41.873   9.054   3.342
80074W        W45235  20.541  14.983  13.961
80075W        W45236  15.936  34.919  12.122
80076W        W45237  42.396  21.980  11.022
80077W        W45238  14.250   3.981  12.540
80078W        W45239  25.378  37.165   9.873
80079W        W45240  34.602   3.160  13.332
80080W        W45241   2.705   0.325   4.159
80081W        W45242  42.492  16.715   1.878
80082W        W45243  40.743  33.934  11.151
80083W        W45244  11.684  37.550   0.507
80084W        W45245  23.714  43.070  10.740
80085W        W45246   5.520   2.003   3.367
80086W        W45247   5.259  36.353   0.337
80087W        W45248  16.294   0.403   9.615
80088W        W45249  16.322  24.341  13.793
80089W        W45250  34.338  20.119  14.641
80090W        W45251  41.778  22.448   3.101
80091W        W45252  17.771  44.949   4.173
80092W        W45253   5.903  18.495   4.766
80093W        W45254   3.174   4.377   4.824
80094W        W45255   8.222  28.020   0.009
80095W        W45256  17.015  26.921   0.916
80096W        W45257  29.994  32.102  11.346
80097W        W45258   8.560  30.606  11.114
80098W        W45259   2.129  28.141   4.534
80099W        W45260  38.815  39.021  10.362
80100W        W45261  25.088  12.217  12.577
80101W        W45262  21.223  37.546   1.346
80102W        W45263  22.792  16.314   4.510
80103W        W45264   9.262  15.086  13.028
80104W        W45265  23.025  25.863  11.678
80105W        W45266  28.379   2.528   2.307
80106W        W45267  25.125   8.377  12.899
80107W        W45268   7.628  21.957   1.301
80108W        W45269  31.307  23.111   0.708
80109W        W45270   6.553  40.475   0.887
80110W        W45271   4.007  41.366  13.872
80111W        W45272  26.137  36.335  11.207
80112W        W45273  15.822  29.508   2.721
80113W        W45274  17.615   9.080   1.393
80114W        W45275  39.977  22.979  12.510
80115W        W45276  25.055  42.742  11.566
80116W        W45277  20.017  18.384  12.158
80117W        W45278  34.780  30.484   1.910
80118W        W45279  31.600   4.435  10.361
80119W        W45280  26.468  34.947   1.657
80120W        W45281  29.143  32.233   4.128
80121W        W45282   9.231  17.767  10.995
80122W        W45283   8.680  27.466   4.035
80123W        W45284  38.819  11.020  10.007
80124W        W45285  35.034  36.554  11.723
80125W        W45286  20.323  27.539   0.462
80126W        W45287  36.827  28.544  10.724
80127W        W45288  28.018   8.729   2.356
80128W        W45289  31.383  30.014   3.051
80129W        W45290  35.804  31.436   4.360
80130W        W45291  22.786  30.156   4.796
80131W        W45292   2.808  17.522   4.088
80132W        W45293  35.040  23.012   3.399
80133W        W45294  43.789   5.322   1.300
80134W        W45295  32.754  22.738   4.706
80135W        W45296  26.667  28.589  13.029
80136W        W45297  37.822  40.153   1.811
80137W        W45298  43.786  18.137   4.753
80138W        W45299  26.106  21.717  11.019
80139W        W45300  35.841  43.940  10.713
80140W        W45301  35.443  44.559   0.969
80141W        W45302   4.438  11.950  12.755
80142W        W45303   8.663  31.348  12.768
80143W        W45304  37.863  23.941   2.089
80144W        W45305  43.018  17.549  14.143
80145W        W45306   6.943  27.664   4.931
80146W        W45307  26.656  11.371  13.423
80147W        W45308  38.979   5.661  12.687
80148W        W45309  30.162  11.704   0.793
80149W        W45310  24.722  16.666  12.903
80150W        W45311  26.964  44.621  12.951
80151W        W45312  13.573  42.845   2.914
80152W        W45313  15.276  39.862   2.605
80153W        W45314   7.865  26.986   3.659
80154W        W45315  18.118  31.270   1.322
80155W        W45316  28.890   6.291  13.315
80156W        W45317  13.761  18.169  12.897
80157W        W45318  38.549  22.240   3.576
80158W        W45319   0.294   6.242   1.437
80159W        W45320  26.888   3.262   1.531
80160W        W45321  23.913  43.450   4.174
80161W        W45322  41.527  11.062   4.247
80162W        W45323  44.887   8.429   1.368
80163W        W45324  18.762  26.114   2.209
80164W        W45325   9.112  12.126  10.967
80165W        W45326  41.710  22.813   5.139
80166W        W45327  21.785  44.436   4.587
80167W        W45328   6.353  15.602  12.964
80168W        W45329   0.861   5.266   4.804
80169W        W45330  30.224  31.575  12.504
80170W        W45331  18.106  23.216  13.357
80171W        W45332   1.811  42.480   4.415
80172W        W45333  22.242  22.500   3.377
80173W        W45334  18.036  18.974   0.910
80174W        W45335  32.394  10.664   1.281
80175W        W45336  22.055   8.441  12.167
80176W        W45337  39.863  29.143   2.552
80177W        W45338  28.918  32.009   2.758
80178W        W45339  16.503   8.769   2.173
80179W        W45340  24.923  18.872   0.546
80180W        W45341  30.101  26.427   1.267
80181W        W45342  38.121  40.649  13.360
80182W        W45343  25.469  31.110   2.121
80183W        W45344  29.698  36.425   3.717
80184W        W45345  16.347  44.980  14.377
80185W        W45346  35.768  35.974  12.998
80186W        W45347   1.458  40.437   3.151
80187W        W45348  23.189  18.037  14.995
80188W        W45349  43.240  43.989  10.160
80189W        W45350  16.319  43.830   0.879
80190W        W45351   7.929  28.706   3.760
80191W        W45352  32.011  26.404   4.418
80192W        W45353  33.110   0.084  11.787
80193W        W45354   1.333  16.651   2.818
80194W        W45355  23.174  24.472   5.005
80195W        W45356   1.408   2.444  12.109
80196W        W45357  35.460  40.964   4.093
80197W        W45358  26.928   2.810   4.194
80198W        W45359  14.196  30.883  11.589
80199W        W45360  27.003  32.918   3.151
80200W        W45361  14.858  21.583   1.485
80201W        W45362  19.318  16.355   2.264
80202W        W45363  43.439   3.680   2.742
80203W        W45364  22.566  23.943   1.704
80204W        W45365  18.258  42.074   3.382
80205W        W45366  29.414   4.315   1.609
80206W        W45367  10.862  39.523   1.273
80207W        W45368  18.567  23.289  14.765
80208W        W45369  16.588  26.872   3.604
80209W        W45370  20.786   6.000   0.194
80210W        W45371  42.862   6.984   1.323
80211W        W45372  41.309  24.715   3.722
80212W        W45373   6.992  40.855  14.824
80213W        W45374  31.061  37.371  14.882
80214W        W45375  20.272  16.835  13.500
80215W        W45376  26.136  14.770   1.656
80216W        W45377  19.281  32.924  13.656
80217W        W45378   6.906  13.731   2.803
80218W        W45379  38.271  15.439   1.309
80219W        W45380  20.251  43.749   1.864
80220W        W45381  31.684  13.874   0.338
80221W        W45382   1.112  33.511   4.060
80222W        W45383  37.929  33.375   1.601
80223W        W45384  18.722  20.572   0.679
80224W        W45385  10.242  19.533   0.251
80225W        W45386  37.880  25.014   1.371
80226W        W45387  14.561   9.169  11.198
80227W        W45388  18.759  19.728  11.626
80228W        W45389  18.297  38.950   2.197
80229W        W45390  21.232  11.806  12.843
80230W        W45391  43.810   2.959  10.431
80231W        W45392  35.497   6.385  14.393
80232W        W45393  28.217  10.692   5.462
80233W        W45394   3.259  32.929   2.794
80234W        W45395   1.013  34.771  14.557
80235W        W45396  31.793   0.848  13.325
80236W        W45397  40.566  25.302   1.908
80237W        W45398   6.899   6.637   3.603
80238W        W45399   7.955  38.297  12.489
80239W        W45400  13.058  33.374   1.979
80240W        W45401  26.548  40.430   2.287
80241W        W45402  15.749  44.416  13.032
80242W        W45403   8.192  44.516  12.229
80243W        W45404  37.351  36.305  13.069
80244W        W45405   3.043  22.429   5.023
80245W        W45406   6.324  36.248  14.898
80246W        W45407  21.428   4.196  11.060
80247W        W45408  40.302  27.573   2.296
80248W        W45409   2.341  19.980  14.369
80249W        W45410  42.089  13.372  13.965
80250W        W45411  18.227   2.405   1.849
80251W        W45412   4.664   5.228  10.636
80252W        W45413  42.494  31.604   3.679
80253W        W45414  18.727   9.138   1.911
80254W        W45415  29.977  10.174   3.797
80255W        W45416  16.688  37.840   0.058
80256W        W45417   3.743  34.832  14.772
80257W        W45418  33.154   3.920   1.549
80258W        W45419  28.199  30.660   4.522
80259W        W45420  39.075  33.059  12.072
80260W        W45421  21.561  43.827  11.559
80261W        W45422   3.492  33.172  11.986
80262W        W45423  22.755  30.399  13.000
80263W        W45424  11.754   5.102   1.432
80264W        W45425   8.662  42.879   2.476
80265W        W45426  40.034   9.706  11.370
80266W        W45427  28.447  12.865   0.499
80267W        W45428   5.039  38.782  14.485
80268W        W45429  27.860   3.452  10.673
80269W        W45430   3.391  12.654  11.820
80270W        W45431   8.013  10.698   2.751
80271W        W45432  20.325  41.470   1.252
80272W        W45433  33.922  23.991  11.064
80273W        W45434  15.296  37.061   4.541
80274W        W45435  26.015  20.663  13.716
80275W        W45436  14.068  21.752  14.059
80276W        W45437  21.701   6.944  12.836
80277W        W45438   9.103  42.866   2.198
80278W        W45439  21.098  12.459  12.587
80279W        W45440  19.177   0.580  13.857
80280W        W45441  25.715  44.291  14.555
80281W        W45442   2.945  24.904   1.800
80282W        W45443  26.108   9.508   2.711
80283W        W45444   5.851  20.470  13.136
80284W        W45445  10.353  34.395   0.775
80285W        W45446  21.237  39.470  12.812
80286W        W45447  16.297  43.367   2.859
80287W        W45448   7.449  19.408  11.574
80288W        W45449  17.360  12.274   2.667
80289W        W45450  25.190  39.768  11.953
80290W        W45451  39.736  26.416  14.400
80291W        W45452  14.505  32.997   1.375
80292W        W45453  41.778  39.106   4.132
80293W        W45454  30.064  34.662   1.830
80294W        W45455  17.636  13.073   3.652
80295W        W45456   5.660  42.141   1.329
80296W        W45457  31.563  13.886  11.523
80297W        W45458  28.705  15.330  13.512
80298W        W45459   0.788  34.315   4.061
80299W        W45460   6.000  22.157   3.173
80300W        W45461  23.165  36.462  13.882
80301W        W45462  33.090  24.004  10.120
80302W        W45463  35.660  34.797   2.176
80303W        W45464  39.584  42.897  11.117
80304W        W45465  34.471  20.923  13.460
80305W        W45466  23.108  14.803  13.463
80306W        W45467   5.203  14.152   3.694
80307W        W45468  38.607  24.726   0.310
80308W        W45469   9.689  34.976   0.304
80309W        W45470  19.514   1.822   4.839
80310W        W45471   7.669  17.158  13.730
80311W        W45472  41.163   8.205  11.982
80312W        W45473  41.119  37.669   0.816
80313W        W45474  27.514  25.971  12.267
80314W        W45475  44.962  15.126   1.545
80315W        W45476  24.370  20.397  13.421
80316W        W45477  10.788  21.653   1.317
80317W        W45478  18.866  32.027  10.722
80318W        W45479   3.214  32.124  14.958
80319W        W45480  21.051  27.093   1.783
80320W        W45481  42.214  43.293   4.152
80321W        W45482  40.431  20.936   2.159
80322W        W45483  12.166  31.891  12.096
80323W        W45484   3.874  36.368   0.067
80324W        W45485   7.223  17.104  14.709
80325W        W45486  41.340  39.427   1.055
80326W        W45487   2.725  32.045  11.664
80327W        W45488  26.998  12.378   3.209
80328W        W45489   5.739  22.633   4.230
80329W        W45490   1.252  37.225  11.140
80330W        W45491  27.675  20.976  13.082
80331W        W45492  22.571   3.478   1.490
80332W        W45493  33.591  25.367  14.730
80333W        W45494  30.360  10.240   1.700
80334W        W45495  39.546  39.903  12.873
80335W        W45496  41.579  32.961   2.196
80336W        W45497  42.807  43.539   1.723
80337W        W45498   8.946  21.759  13.482
80338W        W45499  22.543  13.895   2.320
80339W        W45500  37.328  22.103  13.829
80340W        W45501  22.058  40.042   4.061
80341W        W45502  13.206  44.285   0.741
80342W        W45503  12.725  43.339   3.632
80343W        W45504  21.890   1.485  11.577
80344W        W45505  41.264  26.981   0.713
80345W        W45506  27.406  26.319  12.661
80346W        W45507  43.869  35.796   3.287
80347W        W45508  39.053  13.196  11.585
80348W        W45509   4.574   9.646   3.076
80349W        W45510   8.712  21.043  11.361
80350W        W45511  11.341  14.284   3.767
80351W        W45512  22.994  19.151   3.695
80352W        W45513  28.860  16.053  14.143
80353W        W45514  27.001  37.712   5.262
80354W        W45515   9.259  15.433  13.946
80355W        W45516  11.044   9.313  10.930
80356W        W45517  10.429  27.828  11.567
80357W        W45518  29.675  41.554  10.638
80358W        W45519  43.933  16.825  11.005
80359W        W45520  25.094  10.275   4.485
80360W        W45521   3.142  27.916   1.972
80361W        W45522  44.470  26.381   5.038
80362W        W45523  19.692  11.221   0.768
80363W        W45524  27.657  34.890  14.058
80364W        W45525  23.650  23.440   0.808
80365W        W45526   4.864  24.959   5.212
80366W        W45527  14.994  39.239  10.954
80367W        W45528  35.586   5.760   4.386
80368W        W45529  17.374   8.069   4.040
80369W        W45530  30.404  33.434  11.437
80370W        W45531  14.161  24.032   4.909
80371W        W45532  38.505  19.540  14.814
80372W        W45533  26.568   3.776  11.077
80373W        W45534   0.831  33.702   1.146
80374W        W45535  38.177   8.208  10.721
80375W        W45536  20.122  23.953  14.391
80376W        W45537  39.239   8.682   3.712
80377W        W45538  43.342  44.291  11.772
80378W        W45539  28.983   4.719   1.892
80379W        W45540   7.168  33.369   0.382
80380W        W45541   9.763  12.872  13.027
80381W        W45542  30.167  27.703  12.705
80382W        W45543   3.263  17.255  14.817
80383W        W45544   6.343  12.804  11.629
80384W        W45545  21.354  14.576   4.133
80385W        W45546  27.528  29.117   2.208
80386W        W45547  22.795  28.540   1.288
80387W        W45548   0.338   7.760  11.466
80388W        W45549  13.348  20.870  13.522
80389W        W45550  26.668  31.207   3.292
80390W        W45551  42.736  18.556   0.151
80391W        W45552  15.654  24.795   0.039
80392W        W45553  12.685   0.159   2.403
80393W        W45554  41.588  40.305  13.034
80394W        W45555  23.286  37.462  14.859
80395W        W45556  25.171  44.929  14.000
80396W        W45557  22.561   7.453   5.225
80397W        W45558  38.403   6.310   3.929
80398W        W45559   2.237  26.276   4.951
80399W        W45560  31.999  15.248  13.580
80400W        W45561  43.024  33.466  10.274
80401W        W45562  27.387  10.405  11.954
80402W        W45563  15.791  38.142   4.156
80403W        W45564  10.448   4.168  13.924
80404W        W45565  30.731  28.372  11.480
80405W        W45566  16.116  44.454  10.722
80406W        W45567  25.112  31.715  13.164
80407W        W45568  39.985  34.276   4.725
80408W        W45569  10.805  43.026   3.204
80409W        W45570  39.122  25.864  10.450
80410W        W45571  43.535  11.810  12.619
80411W        W45572  21.966   9.240  13.833
80412W        W45573  15.353   5.869   3.603
80413W        W45574  12.380   6.545  13.367
80414W        W45575  42.023   6.835  11.367
80415W        W45576  38.060  32.610   3.414
80416W        W45577  21.451  28.630   1.643
80417W        W45578  29.573  19.512  13.579
80418W        W45579  13.968   3.328   2.766
80419W        W45580  13.323  32.027   1.669
80420W        W45581  17.265  28.989  14.026
80421W        W45582  29.190  33.248   4.135
80422W        W45583  15.997   1.285  13.381
80423W        W45584   6.917   3.916  10.561
80424W        W45585  19.487   2.256  11.274
80425W        W45586  29.928  17.679  12.653
80426W        W45587  44.409  23.172   4.574
80427W        W45588   1.473  14.303  12.784
80428W        W45589  37.412  38.037   2.600
80429W        W45590  17.041  13.601  13.851
80430W        W45591  26.428   0.418  14.915
80431W        W45592  14.185  28.506  12.974
80432W        W45593  16.720  44.973   0.191
80433W        W45594  25.367  13.649   3.382
80434W        W45595  11.585   4.795  13.704
80435W        W45596   3.621   5.800   4.272
80436W        W45597  11.125  39.441   1.746
80437W        W45598  32.055  43.214  11.931
80438W        W45599   5.752   7.722   1.910
80439W        W45600  12.639  32.132   3.663
80440W        W45601   3.031  32.403  13.249
80441W        W45602  29.064  29.443  10.594
80442W        W45603  12.758  32.589  13.917
80443W        W45604   6.921   1.278  12.438
80444W        W45605  39.331  12.255  12.962
80445W        W45606   2.744  40.329   1.152
80446W        W45607  25.023  33.612  13.412
80447W        W45608  35.088  44.747   3.751
80448W        W45609   3.279  29.578  12.431
80449W        W45610   6.961  38.442   3.258
80450W        W45611  25.444  22.794  14.468
80451W        W45612  19.530   7.211   1.843
80452W        W45613  40.406  15.335   0.378
80453W        W45614  22.485  44.023  12.067
80454W        W45615   8.990  25.977   2.726
80455W        W45616  31.794  31.723  12.627
80456W        W45617  12.826  19.954  11.915
80457W        W45618  35.838   4.735   2.720
80458W        W45619  39.655  28.171   4.517
80459W        W45620   7.203  14.470   1.274
80460W        W45621  26.423  25.071  14.382
80461W        W45622   2.809  20.193   1.624
80462W        W45623  37.894  18.547  12.078
80463W        W45624  23.569  15.573   1.663
80464W        W45625  39.204  42.760  12.826
80465W        W45626  42.797   2.763   3.820
80466W        W45627  38.224  21.660  14.033
80467W        W45628  31.912  41.481   1.271
80468W        W45629  44.904  25.918   4.991
80469W        W45630  40.296  40.650  12.404
80470W        W45631  14.344  19.993   0.553
80471W        W45632  29.640  35.393  13.690
80472W        W45633  13.040  33.525  11.415
80473W        W45634  15.842  15.965  10.208
80474W        W45635   6.866   2.666  11.799
80475W        W45636  41.899  42.247  11.556
80476W        W45637  30.948  30.201   0.924
80477W        W45638  33.128  35.633  11.436
80478W        W45639  10.824  14.294   3.688
80479W        W45640  12.106   7.360   0.048
80480W        W45641  33.756  11.788  11.250
80481W        W45642  42.806  44.957   3.283
80482W        W45643   9.434  43.497  14.282
80483W        W45644   4.734  31.971  11.563
80484W        W45645  14.954  41.493  13.937
80485W        W45646  37.459   5.324   0.077
80486W        W45647  12.733   6.414   3.203
80487W        W45648   5.927  29.952   3.187
80488W        W45649  22.870  28.566   3.786
80489W        W45650  20.557   9.703  11.657
80490W        W45651  39.674  16.716  11.496
80491W        W45652  21.035   8.416  14.380
80492W        W45653  18.836   7.220   3.728
80493W        W45654  17.553  39.830  13.042
80494W        W45655  35.466   0.263   0.475
80495W        W45656  15.465  13.014   3.732
80496W        W45657  16.810   6.745  11.628
80497W        W45658  20.091  17.044  13.926
80498W        W45659  13.809  15.752  11.236
80499W        W45660  13.469  16.461   3.844
80500W        W45661  34.999  36.952   0.420
80501W        W45662  11.609  38.349  12.448
80502W        W45663  31.197  25.053   1.277
80503W        W45664   0.375   0.861  13.388
80504W        W45665   8.312  25.722   0.772
80505W        W45666   5.424   0.553   2.784
80506W        W45667  13.078  15.221  10.801
80507W        W45668  27.495  15.378   3.166
80508W        W45669  25.638  42.465  11.330
80509W        W45670  27.004  11.415   1.243
80510W        W45671  36.101  44.454  13.462
80511W        W45672  27.877  26.540   2.205
80512W        W45673  24.584  17.692   2.282
80513W        W45674  28.465   8.620   4.070
80514W        W45675  19.591  34.791   2.173
80515W        W45676  23.107   1.586   0.247
80516W        W45677  29.749  32.950   0.912
80517W        W45678  42.644   0.438   0.646
80518W        W45679  23.116  42.133   5.107
80519W        W45680   7.708  39.931   0.829
80520W        W45681  18.355   7.461   0.289
80521W        W45682  24.031   1.248  14.991
80522W        W45683  43.396  12.626  13.015
80523W        W45684  25.920   8.516   3.592
80524W        W45685  43.358   0.406  10.807
80525W        W45686  12.363  25.982   3.216
80526W        W45687  11.645  18.985  13.361
80527W        W45688  38.502  18.282   0.819
80528W        W45689  43.899   7.602   0.723
80529W        W45690  43.897  17.965  14.518
80530W        W45691   7.983  26.024   3.286
80531W        W45692  28.218  11.864   2.843
80532W        W45693   6.077   2.378  11.254
80533W        W45694   5.885   2.149  14.881
80534W        W45695  37.480  40.259  11.607
80535W        W45696  32.455  26.126  11.180
80536W        W45697  43.345  32.893  12.172
80537W        W45698  17.126  22.433   1.831
80538W        W45699   6.789  28.197   0.035
80539W        W45700  42.784  23.774  11.045
80540W        W45701  13.934  43.877  10.796
80541W        W45702  14.547  39.301  11.192
80542W        W45703  29.232  24.751   5.124
80543W        W45704  42.552   4.931   4.190
80544W        W45705  27.592  20.084   2.477
80545W        W45706   7.920  12.782  11.157
80546W        W45707  21.226  34.930  11.152
80547W        W45708  26.158  40.066  13.855
80548W        W45709  44.810  40.808  13.036
80549W        W45710  37.454  13.254   4.580
80550W        W45711  22.689  20.023   1.124
80551W        W45712  38.840  38.094  13.427
80552W        W45713  16.290   4.260   4.154
80553W        W45714   2.546  42.827  11.542
80554W        W45715  19.744   9.388  13.001
80555W        W45716  44.347  29.124  13.563
80556W        W45717   2.012  26.431   2.823
80557W        W45718  43.500  13.633  14.382
80558W        W45719  33.464  32.081  10.298
80559W        W45720  19.707   2.481   3.654
80560W        W45721  35.495  35.135  14.391
80561W        W45722  26.747  19.538   4.399
80562W        W45723  14.592  43.602  13.931
80563W        W45724   2.237   0.875  10.750
80564W        W45725  22.112  28.022  12.031
80565W        W45726  12.896  42.081  11.549
80566W        W45727  14.776  30.706  10.501
80567W        W45728  10.768   5.464  14.277
80568W        W45729  20.968  12.550   3.353
80569W        W45730   9.292  22.589   1.095
80570W        W45731  28.656  26.823  14.369
80571W        W45732  23.394  32.404   2.687
80572W        W45733  12.555  13.175   3.357
80573W        W45734  17.084  35.257  11.573
80574W        W45735  12.188   6.926  14.187
80575W        W45736   6.382  12.783   4.101
80576W        W45737  17.756   6.652   4.556
80577W        W45738   0.800  11.339   4.027
80578W        W45739  10.757  11.626  11.162
80579W        W45740   3.295  33.638  12.962
80580W        W45741  19.796  15.228  14.379
80581W        W45742  41.282  18.691   2.658
80582W        W45743  34.126  28.566   4.625
80583W        W45744   4.598   0.682  12.716
80584W        W45745  27.616  26.425   9.693
80585W        W45746   2.224   4.867   4.111
80586W        W45747  23.598   9.387   3.645
80587W        W45748  15.040  36.089  11.268
80588W        W45749  14.447  41.822  10.603
80589W        W45750  40.724   8.172   3.374
80590W        W45751   3.647   2.406  14.285
80591W        W45752  36.465  33.696  11.961
80592W        W45753   7.777  19.296   4.744
80593W        W45754  28.597   4.473   0.731
80594W        W45755  40.771  31.241  12.928
80595W        W45756   0.802  16.362  13.385
80596W        W45757  42.068   8.628  12.467
80597W        W45758  26.982   2.526   4.651
80598W        W45759  42.911   6.421  12.856
80599W        W45760  21.416  38.361   1.627
80600W        W45761  15.468  41.008  11.693
80601W        W45762  14.707  17.566  12.896
80602W        W45763  13.324   6.447  11.063
80603W        W45764   3.483  16.072  11.829
80604W        W45765   5.571   6.455  13.453
80605W        W45766  17.264  35.855   1.410
80606W        W45767  11.311  33.912   1.812
80607W        W45768  19.154  14.405  10.747
80608W        W45769  36.380  22.514   2.218
80609W        W45770  27.536   1.620   3.694
80610W        W45771  21.125  44.681  10.457
80611W        W45772  36.382   5.353  13.459
80612W        W45773   6.167  35.292   0.202
80613W        W45774  34.855  20.632  11.624
80614W        W45775  41.413  36.483   0.483
80615W        W45776  20.695  29.879   1.873
80616W        W45777  35.545  20.552  14.854
80617W        W45778  15.323  26.238   3.974
80618W        W45779  28.808   3.954   4.627
80619W        W45780  24.646  40.611   1.349
80620W        W45781  17.164  30.983  11.413
80621W        W45782  19.201  36.888   4.568
80622W        W45783  26.953  35.544   1.170
80623W        W45784  29.178  16.390  11.637
80624W        W45785   3.002  14.380   2.109
80625W        W45786  26.676   6.782  13.410
80626W        W45787  43.980  10.571   2.946
80627W        W45788   5.077  11.667   9.716
80628W        W45789   7.132   9.752  11.583
80629W        W45790  38.772  36.277   4.772
80630W        W45791  25.209   8.191   1.925
80631W        W45792  43.503  14.190   3.778
80632W        W45793  18.148  34.685  12.648
80633W        W45794   8.127  36.291   3.746
80634W        W45795  16.353   9.832  12.963
80635W        W45796   9.658  14.155  12.425
80636W        W45797  35.315  31.253  12.343
80637W        W45798  44.694  22.982   2.655
80638W        W45799   2.704  17.328   1.412
80639W        W45800  29.015  28.921   3.416
80640W        W45801  36.375  36.858   0.265
80641W        W45802  44.369  44.874   1.961
80642W        W45803  22.591  35.546  10.576
80643W        W45804   4.919  34.011  10.589
80644W        W45805   7.139  37.084   4.027
80645W        W45806  35.173  11.222   0.351
80646W        W45807  15.112   7.600   2.647
80647W        W45808  42.690  35.584  12.414
80648W        W45809  41.849  25.118   0.153
80649W        W45810  32.570  39.988   3.200
80650W        W45811   2.973  19.729   1.401
80651W        W45812  38.454   3.776  11.409
80652W        W45813  42.333  27.936   0.307
80653W        W45814  24.035   1.820   3.148
80654W        W45815  16.661  18.180  11.252
80655W        W45816  41.412  17.095  12.997
80656W        W45817  36.089  32.474   1.835
80657W        W45818  43.848   8.213  13.918
80658W        W45819  17.849  28.633  13.092
80659W        W45820  19.008  44.268  10.043
80660W        W45821  38.028  34.033  10.424
80661W        W45822  12.643  16.937   1.896
80662W        W45823  11.689  31.514   1.718
80663W        W45824  16.311  10.052   4.258
80664W        W45825  43.003   6.467  11.019
80665W        W45826  12.800  11.594   2.374
80666W        W45827  15.688  27.495   0.965
80667W        W45828  16.346  25.236   0.873
80668W        W45829  19.134  21.702  10.694
80669W        W45830  29.031  27.406  13.037
80670W        W45831  23.471  35.565  12.425
80671W        W45832  27.270  40.811   3.344
80672W        W45833  25.571  10.595  11.631
80673W        W45834  22.573  18.875   1.849
80674W        W45835   6.332  39.728  12.791
80675W        W45836  34.496  21.215  12.990
80676W        W45837  35.823  40.816   1.719
80677W        W45838  41.250  31.922  14.349
80678W        W45839  25.087  32.045   3.780
80679W        W45840  14.452  40.382   5.254
80680W        W45841   4.173  32.631  14.278
80681W        W45842  22.280   2.812  11.562
80682W        W45843  35.640   1.736   2.737
80683W        W45844  18.535  42.934  11.138
80684W        W45845  41.440  37.639   3.075
80685W        W45846  38.584  31.617   3.678
80686W        W45847  36.643  35.872   1.968
80687W        W45848  41.328  32.988   3.158
80688W        W45849  21.241  11.719   3.838
80689W        W45850   8.348  26.477   0.009
80690W        W45851  25.682   5.973   1.393
80691W        W45852  14.724  38.611   3.656
80692W        W45853  25.489   3.238  10.205
80693W        W45854   1.511  12.285   0.964
80694W        W45855  32.102   0.169  12.607
80695W        W45856  11.203  13.141   4.064
80696W        W45857  36.316  42.994   0.331
80697W        W45858  20.306  30.019   2.834
80698W        W45859  14.199  33.352   0.223
80699W        W45860  13.593   6.583   3.012
80700W        W45861  29.044  10.760  14.362
80701W        W45862  27.969  39.900   2.306
80702W        W45863   7.606  17.616   3.287
80703W        W45864  43.014   4.271   4.840
80704W        W45865  15.236  39.807  13.985
80705W        W45866  24.072  25.211   4.613
80706W        W45867  12.560  14.144  12.035
80707W        W45868  19.717  10.191  13.489
80708W        W45869  25.222  24.611  13.302
80709W        W45870   2.957  21.883  14.914
80710W        W45871   0.801  16.252   5.444
80711W        W45872  16.800  44.062   2.367
80712W        W45873  16.053   5.256  14.907
80713W        W45874  14.301  35.044   3.593
80714W        W45875  14.713  10.332  10.727
80715W        W45876  37.995  28.880  10.272
80716W        W45877  16.248  10.152  11.293
80717W        W45878  40.303  41.748  10.496
80718W        W45879  31.935  27.852  13.971
80719W        W45880  21.224  28.588  13.109
80720W        W45881  30.942  44.458  14.377
80721W        W45882  20.096  29.873   0.352
80722W        W45883  18.745   5.497   1.286
80723W        W45884  25.931  29.265  12.493
80724W        W45885  44.239  20.978   0.841
80725W        W45886  44.082  37.140  13.785
80726W        W45887   2.250  18.379  13.055
80727W        W45888  34.319  24.331  14.791
80728W        W45889  19.512  23.225  14.895
80729W        W45890  15.114  24.267  13.735
80730W        W45891   9.675  23.027  11.778
80731W        W45892  30.131   6.295  14.297
80732W        W45893  38.427   4.946   2.842
80733W        W45894  26.406  39.428  11.610
80734W        W45895   9.345   5.828   0.767
80735W        W45896  25.532  14.842  11.578
80736W        W45897  13.300   9.143   3.419
80737W        W45898   3.988  40.993   1.159
80738W        W45899   4.174  36.384  14.223
80739W        W45900  15.667  29.424  14.996
80740W        W45901  42.697  19.064  12.920
80741W        W45902  43.145   0.202  11.960
80742W        W45903  31.369   8.143   1.772
80743W        W45904   3.897  14.345  13.440
80744W        W45905  26.956  20.529   0.385
80745W        W45906  14.177  30.708  13.461
80746W        W45907  23.772   3.197  13.803
80747W        W45908  20.057  36.060  13.984
80748W        W45909   9.946  38.050   4.056
80749W        W45910  18.204  35.875  11.568
80750W        W45911  37.966  11.894   2.636
80751W        W45912   4.157   2.367  13.485
80752W        W45913  40.373  12.910  10.470
80753W        W45914  13.643   9.199   1.255
80754W        W45915   2.858   2.962   1.689
80755W        W45916  29.745  12.501  14.432
80756W        W45917   9.925   2.380   4.746
80757W        W45918  18.585  24.618   4.887
80758W        W45919   2.368  40.834  13.386
80759W        W45920  13.285  25.616   3.009
80760W        W45921   1.578  33.695   2.382
80761W        W45922  21.169  27.581   2.683
80762W        W45923  31.988  12.629   3.434
80763W        W45924   1.341   2.525  10.847
80764W        W45925   8.676   7.459   0.860
80765W        W45926  19.272  20.829  13.443
80766W        W45927  30.969  44.508  13.836
80767W        W45928  30.050  43.106  12.641
80768W        W45929  27.107  33.862   4.707
80769W        W45930  11.813  11.085   3.136
80770W        W45931  33.854  16.030   3.544
80771W        W45932  20.735  32.071  10.630
80772W        W45933  11.393  25.486  10.673
80773W        W45934  25.035  24.677   3.888
80774W        W45935  26.509  41.320   2.182
80775W        W45936  39.355   4.525  10.791
80776W        W45937   6.700  31.592  12.210
80777W        W45938  18.791   2.334   1.178
80778W        W45939  15.599  38.655   2.395
80779W        W45940  17.001   7.887  12.395
80780W        W45941  10.118  18.671   2.359
80781W        W45942  38.431  35.690  13.821
80782W        W45943  42.037  30.513   3.328
80783W        W45944  32.601   1.428   5.040
80784W        W45945  43.378  44.548   0.437
80785W        W45946  35.176   7.370  12.887
80786W        W45947  38.547  10.286   2.677
80787W        W45948  31.965  32.894   0.791
80788W        W45949  29.050  27.374   3.950
80789W        W45950  37.796   8.774   3.756
80790W        W45951   6.384  22.698  11.632
80791W        W45952  35.151   1.903  14.891
80792W        W45953  35.596  12.671   1.108
80793W        W45954   8.350   3.736   3.948
80794W        W45955  11.240  30.217   4.557
80795W        W45956   9.263  12.554  12.893
80796W        W45957  40.625  42.351   4.785
80797W        W45958  20.826  41.891   2.440
80798W        W45959  11.375  16.687   0.210
80799W        W45960  44.414  19.981   4.636
80800W        W45961   1.495  26.995   4.084
80801W        W45962  38.258   7.909  11.202
80802W        W45963  22.738  44.767   2.766
80803W        W45964  37.291   2.979  14.471
80804W        W45965  44.829  43.565   1.765
80805W        W45966  20.191   4.674   3.174
80806W        W45967  36.539  21.624   3.573
80807W        W45968  27.621  36.847  13.019
80808W        W45969  19.337  31.482  14.994
80809W        W45970   0.722  18.211   3.736
80810W        W45971   1.995  20.741  14.046
80811W        W45972  25.402  37.452   3.857
80812W        W45973  20.065  34.558   1.409
80813W        W45974  15.387   4.735  11.123
80814W        W45975   8.580  31.572   4.869
80815W        W45976  28.998   5.205   2.280
80816W        W45977  18.582  44.381  12.364
80817W        W45978  20.982  41.525  13.885
80818W        W45979  20.735  20.471   3.121
80819W        W45980  32.512  38.082   0.451
80820W        W45981  38.767  17.862  13.364
80821W        W45982  38.461  38.512  11.024
80822W        W45983  34.540  35.303   0.285
80823W        W45984  16.896   5.019   0.930
80824W        W45985  10.747  27.101  11.977
80825W        W45986  31.646  39.910  13.888
80826W        W45987  19.519   6.432  13.480
80827W        W45988  34.164  34.607  10.622
80828W        W45989  17.089   1.751   3.595
80829W        W45990   9.127   1.376  13.970
80830W        W45991   0.830  30.402  14.765
80831W        W45992  15.740   8.153  12.143
80832W        W45993  25.619  26.042  12.439
80833W        W45994   5.208  23.310  11.964
80834W        W45995  32.112  11.196  14.258
80835W        W45996  23.697  20.185  11.721
80836W        W45997  30.383  40.111   0.329
80837W        W45998   5.654  16.756   0.703
80838W        W45999   4.893  20.731   1.900
80839W        W46000  11.864  40.415   2.419
80840W        W46001  31.581   2.782   0.432
80841W        W46002  30.613  42.100  13.786
80842W        W46003  37.598  10.178   1.378
80843W        W46004  12.713  18.061  14.896
80844W        W46005  21.766   5.346  11.961
80845W        W46006   0.010  22.190   1.315
80846W        W46007  32.790  44.845   0.455
80847W        W46008  32.417  22.050  14.043
80848W        W46009  25.504  42.613  10.431
80849W        W46010  19.069  41.750  13.442
80850W        W46011   1.697  20.486   0.347
80851W        W46012  23.789  28.113  10.691
80852W        W46013  23.625  19.666   0.945
80853W        W46014  28.125  26.980   2.247
80854W        W46015  22.711  41.298   9.688
80855W        W46016  29.450  43.352   0.027
80856W        W46017  27.970   7.456   9.885
80857W        W46018  32.432   4.426   4.630
80858W        W46019  19.009  15.788   4.094
80859W        W46020  19.893  21.287  10.169
80860W        W46021  35.085  16.654   1.160
80861W        W46022  26.107  34.497  13.943
80862W        W46023  31.602  32.998   1.267
80863W        W46024  20.227   9.622  13.277
80864W        W46025  42.053  29.467   3.674
80865W        W46026  28.024  33.905   4.687
80866W        W46027   4.003  16.931   0.713
80867W        W46028  27.674   8.431  12.043
80868W        W46029  22.979  43.828   2.777
80869W        W46030  14.370  35.424   2.392
80870W        W46031  28.420  37.729   3.076
80871W        W46032   5.413  16.834  12.992
80872W        W46033  27.298  12.316  13.082
80873W        W46034   4.825   1.762  13.512
80874W        W46035  30.563  16.889   3.970
80875W        W46036  38.556  43.391   1.307
80876W        W46037  35.461  31.377   0.461
80877W        W46038   8.541  23.159  13.367
80878W        W46039  32.630  41.593  12.501
80879W        W46040   1.879   2.014  11.196
80880W        W46041  17.277  32.424   3.804
80881W        W46042   9.157  11.402   1.906
80882W        W46043  12.696  11.835  12.064
80883W        W46044   9.435  13.781   0.848
80884W        W46045   6.178  14.315  13.811
80885W        W46046  10.207  28.211   4.758
80886W        W46047   6.121  30.860  14.737
80887W        W46048  19.973  26.462  11.638
80888W        W46049  44.859  41.937   4.605
80889W        W46050  35.975  14.721   5.207
80890W        W46051  41.961  26.480  12.588
80891W        W46052   6.228   8.376   4.161
80892W        W46053  33.581  35.625  10.576
80893W        W46054  17.062  22.730  12.046
80894W        W46055  44.271  38.342   2.220
80895W        W46056  36.300   3.587  13.059
80896W        W46057   3.477  43.954  13.636
80897W        W46058  11.853   9.603  13.508
80898W        W46059  27.051  42.024  13.311
80899W        W46060  20.169  17.226  12.553
80900W        W46061  31.953   1.333   2.299
80901W        W46062  27.939  24.758   4.807
80902W        W46063  24.091  18.302  14.015
80903W        W46064   4.939   6.860   2.805
80904W        W46065  21.725   7.766   1.752
80905W        W46066  32.467  38.756   3.388
80906W        W46067  17.313   7.195   3.666
80907W        W46068  31.924   4.934   4.239
80908W        W46069  43.723  44.397  11.447
80909W        W46070  27.445   6.783  10.894
80910W        W46071  23.191   2.536  13.022
80911W        W46072  22.817  20.599  14.492
80912W        W46073  12.666  14.281   1.390
80913W        W46074  34.325   7.684  11.582
80914W        W46075   9.262  33.464   2.354
80915W        W46076   6.974  22.991   2.822
80916W        W46077  34.599  34.195  11.978
80917W        W46078  40.073  39.811   0.878
80918W        W46079   8.903  13.018  14.803
80919W        W46080  21.629  13.986  14.480
80920W        W46081  43.622  30.186   2.477
80921W        W46082  15.608  27.566  14.043
80922W        W46083   7.840  42.535   3.725
80923W        W46084   7.401   7.842  11.334
80924W        W46085   3.434  38.308   0.938
80925W        W46086  14.291  33.393   4.103
80926W        W46087  11.862   2.421   1.911
80927W        W46088  17.805   3.063   2.158
80928W        W46089  37.306  15.449   0.456
80929W        W46090  22.116  25.902  11.210
80930W        W46091  25.025  30.364   0.758
80931W        W46092  42.420  15.365   1.976
80932W        W46093  19.808  19.657  12.184
80933W        W46094  33.905  19.101   2.782
80934W        W46095   9.069  22.286   3.056
80935W        W46096  26.661   7.873   3.602
80936W        W46097  30.642  28.720   0.416
80937W        W46098  18.854  20.164   2.799
80938W        W46099  38.384  26.441  14.217
80939W        W46100  26.310  20.190   2.710
80940W        W46101  21.725  37.983   3.715
80941W        W46102  30.088  11.540   4.535
80942W        W46103  21.543  27.969   2.902
80943W        W46104   2.773   4.279   1.970
80944W        W46105  24.434   3.953  11.124
80945W        W46106  23.350  30.797  12.450
80946W        W46107  20.610  21.166   1.137
80947W        W46108  18.306  29.971  10.362
80948W        W46109  13.221  39.902  14.484
80949W        W46110  40.044   9.262   0.024
80950W        W46111  10.897   3.084   0.281
80951W        W46112  14.593  44.281  10.738
80952W        W46113  15.684  36.643  11.528
80953W        W46114  38.912  10.732   1.327
80954W        W46115   5.461  12.754   0.659
80955W        W46116   9.346  30.412  10.448
80956W        W46117   5.973  37.900   4.916
80957W        W46118  18.748  44.047  10.467
80958W        W46119  15.834  43.316  14.348
80959W        W46120  41.356  28.047  12.685
80960W        W46121  40.372  44.465   3.604
80961W        W46122  14.675  32.560  12.728
80962W        W46123  27.102  18.858  10.761
80963W        W46124   1.486  30.670   2.772
80964W        W46125  18.644   5.184   4.416
80965W        W46126  41.851  32.149   0.735
80966W        W46127  41.801  24.984  13.373
80967W        W46128  38.868  13.594   3.387
80968W        W46129   5.918   3.493   2.245
80969W        W46130  21.141  18.498   3.820
80970W        W46131  12.579  41.687  11.701
80971W        W46132  13.375  43.283   2.735
80972W        W46133  43.944  20.164  12.545
80973W        W46134  18.129  28.493  10.654
80974W        W46135  19.111  11.809  12.630
80975W        W46136  38.607   0.475   2.981
80976W        W46137  29.144  43.869   3.159
80977W        W46138  12.823  34.703   4.862
80978W        W46139  10.277  20.533  14.315
80979W        W46140  24.604  14.793  11.388
80980W        W46141  35.512  38.617  13.595
80981W        W46142  29.539  18.806   1.243
80982W        W46143  14.773  28.738   4.200
80983W        W46144  21.995  12.803   3.292
80984W        W46145   3.575   9.677   3.850
80985W        W46146  44.855  44.291   2.384
80986W        W46147  24.582  26.197   1.700
80987W        W46148  34.583  36.341   5.234
80988W        W46149  23.825   3.037   1.983
80989W        W46150   5.929  22.122   0.460
80990W        W46151  30.536   0.519  13.576
80991W        W46152  29.150  36.275  11.597
80992W        W46153  38.348  22.591  11.178
80993W        W46154  22.218  21.158   4.066
80994W        W46155  21.763  41.904  12.826
80995W        W46156  33.246  10.212   4.059
80996W        W46157  30.583  17.433  11.180
80997W        W46158   9.280  16.790  11.349
80998W        W46159  25.282  38.906  13.083
80999W        W46160  18.751  42.079   1.271
81000W        W46161  26.715  33.538   2.194
81001W        W46162  22.559  20.074   4.625
81002W        W46163   9.597   2.223  11.196
81003W        W46164   3.197  20.697   4.280
81004W        W46165  11.841  29.454   2.827
81005W        W46166  16.336   9.253  11.587
81006W        W46167  30.871   4.789  14.326
81007W        W46168   9.872   9.147   2.219
81008W        W46169  19.929  27.368   3.973
81009W        W46170  27.895  20.940   2.134
81010W        W46171  37.527  17.017  13.487
81011W        W46172  25.601   8.809   4.904
81012W        W46173  20.708   2.154  11.962
81013W        W46174  10.829  30.465  14.413
81014W        W46175  28.409   3.109   4.983
81015W        W46176  43.040  26.106   0.772
81016W        W46177  41.380   4.478   2.744
81017W        W46178  19.551  14.479   3.303
81018W        W46179  38.506  38.766  12.031
81019W        W46180  21.481  25.687   0.833
81020W        W46181   3.439  18.268   3.622
81021W        W46182   5.139  41.303  12.131
81022W        W46183  22.665   6.382  11.917
81023W        W46184  38.534  20.786   0.274
81024W        W46185  20.714  44.884   0.551
81025W        W46186  20.499   6.625   2.352
81026W        W46187  19.635  44.899   0.487
81027W        W46188  35.892  16.989  12.389
81028W        W46189  33.980   1.738  13.490
81029W        W46190   2.178  36.511  10.721
81030W        W46191   7.529   5.777   2.598
81031W        W46192  40.921   1.947   1.182
81032W        W46193  11.146  25.594  14.896
81033W        W46194  42.379  14.745  14.906
81034W        W46195  21.745  18.521  11.242
81035W        W46196  15.564  23.037   0.343
81036W        W46197  23.616  25.197  13.507
81037W        W46198  43.193  27.590   1.277
81038W        W46199  44.804  18.546  13.501
81039W        W46200  18.664  10.552   1.291
81040W        W46201  17.833  12.086   4.350
81041W        W46202   2.722  25.081  10.905
81042W        W46203  35.404  31.392  12.865
81043W        W46204  22.184  28.866   3.132
81044W        W46205  21.080  28.577  14.030
81045W        W46206   5.456  13.355  11.689
81046W        W46207  42.047  14.549  13.292
81047W        W46208  24.391  35.992  13.604
81048W        W46209  28.014  32.596   0.739
81049W        W46210   4.809  22.534  13.035
81050W        W46211   2.923  22.029   0.418
81051W        W46212  18.276  26.249  12.001
81052W        W46213  28.936  36.324   2.312
81053W        W46214  14.829  19.049   3.684
81054W        W46215   0.465  42.341   0.619
81055W        W46216  10.646  29.123  13.395
81056W        W46217   7.261  33.611  14.897
81057W        W46218  12.748  43.835   2.775
81058W        W46219  21.572  27.912  13.101
81059W        W46220  31.189  36.391   0.679
81060W        W46221  35.754  16.354   3.724
81061W        W46222  42.059  18.201   0.698
81062W        W46223  25.441   5.813   1.864
81063W        W46224  35.855  17.044   2.362
81064W        W46225  41.551  26.282  11.818
81065W        W46226  32.241  18.106   2.858
81066W        W46227   8.198   3.463   2.942
81067W        W46228  39.958  14.698   4.257
81068W        W46229  36.472  16.213  10.777
81069W        W46230   6.017  38.767   4.796
81070W        W46231  22.657  35.479   4.058
81071W        W46232  27.029  42.060   1.105
81072W        W46233  29.609   3.954   1.274
81073W        W46234  22.199  17.230   4.649
81074W        W46235  39.232  20.074   3.571
81075W        W46236  18.959  22.312  14.843
81076W        W46237  24.546  44.782   1.626
81077W        W46238  12.787   3.889   3.805
81078W        W46239  36.123  15.166   1.218
81079W        W46240  23.519  25.716   1.818
81080W        W46241  29.906  41.428   1.900
81081W        W46242  20.993   9.891   0.774
81082W        W46243  34.576  26.645   1.443
81083W        W46244  20.286  42.289   4.516
81084W        W46245  19.850   7.965  11.974
81085W        W46246  41.759  28.162  14.467
81086W        W46247  28.747   2.246  12.109
81087W        W46248  44.409  38.343  13.882
81088W        W46249  26.885  20.149  13.341
81089W        W46250  29.878  29.511   3.258
81090W        W46251  40.634  24.714   3.108
81091W        W46252  11.375   6.855   0.843
81092W        W46253   1.128  24.605   4.488
81093W        W46254  26.705  28.117   3.769
81094W        W46255  13.674  34.508  13.627
81095W        W46256  41.828  44.380  10.451
81096W        W46257  13.167   3.324  13.727
81097W        W46258  11.764  37.820  13.848
81098W        W46259   9.466   1.813  12.549
81099W        W46260  34.585  25.435  12.853
81100W        W46261   0.389  38.532   0.817
81101W        W46262  16.730  44.264  11.149
81102W        W46263  32.852  36.346   5.510
81103W        W46264  35.441  28.223   1.891
81104W        W46265  14.831  23.246   2.385
81105W        W46266  10.529  16.179   0.963
81106W        W46267  27.900   8.375  12.876
81107W        W46268  13.885  10.045   0.871
81108W        W46269  10.321   3.823  12.609
81109W        W46270  31.065   0.867   9.804
81110W        W46271  34.932  36.500  11.219
81111W        W46272   6.265  20.932  12.435
81112W        W46273   0.263  18.389   3.670
81113W        W46274  33.998  24.581   4.558
81114W        W46275  39.989  30.412   2.767
81115W        W46276  25.808  37.838  13.904
81116W        W46277  32.630   5.895  10.730
81117W        W46278   9.077  18.766  12.973
81118W        W46279  35.043  28.510   3.238
81119W        W46280   2.355  17.314   1.904
81120W        W46281   5.665  41.099  12.575
81121W        W46282   5.889  33.136   3.246
81122W        W46283  18.911  14.717  11.048
81123W        W46284  37.599  15.063   0.275
81124W        W46285  15.388  43.311  14.603
81125W        W46286  43.913  21.625  12.398
81126W        W46287  11.186  39.794   3.762
81127W        W46288  32.565  10.861  13.876
81128W        W46289  35.183  26.074   4.737
81129W        W46290  20.802   0.731   0.815
81130W        W46291  28.066  22.313  14.387
81131W        W46292   8.221  39.808  13.943
81132W        W46293   6.172  29.264   4.060
81133W        W46294  16.799  24.263   2.378
81134W        W46295  16.925   1.794  12.104
81135W        W46296  26.191  33.142  10.646
81136W        W46297   2.189  29.477   3.223
81137W        W46298  14.267  22.142   2.283
81138W        W46299   6.541  11.819   0.263
81139W        W46300  37.406   7.986  12.448
81140W        W46301  43.626  32.933   4.520
81141W        W46302   4.016   4.190  12.675
81142W        W46303  27.034  29.884   1.184
81143W        W46304  13.368  30.007   2.299
81144W        W46305  43.596  10.249  11.513
81145W        W46306  36.573  31.362   3.827
81146W        W46307  28.160  33.909  11.457
81147W        W46308   3.811  25.461  13.057
81148W        W46309   1.580   8.163   4.433
81149W        W46310  20.964  14.200  12.868
81150W        W46311  27.977  25.045  11.418
81151W        W46312  40.780   7.908   4.773
81152W        W46313  44.576  31.681   4.559
81153W        W46314  13.198  30.550   3.246
81154W        W46315  27.228  44.278  12.604
81155W        W46316   3.848  38.591  10.389
81156W        W46317  37.462   8.847   4.175
81157W        W46318  39.370  23.655  11.459
81158W        W46319  39.236  24.525  10.666
81159W        W46320  16.026  15.031  10.987
81160W        W46321  10.198  19.762  14.793
81161W        W46322   4.200  22.066  11.878
81162W        W46323  16.124   8.431   0.409
81163W        W46324  36.287  14.855   3.391
81164W        W46325  13.386  19.580  11.158
81165W        W46326   0.698   3.925   4.584
81166W        W46327  37.905  15.779  12.378
81167W        W46328  42.949  40.381   4.539
81168W        W46329  14.146  29.928  11.542
81169W        W46330  42.739  36.308  12.627
81170W        W46331  29.053  26.896  13.109
81171W        W46332  29.103  11.799  13.051
81172W        W46333  11.863  35.400  10.478
81173W        W46334  23.612  10.628  14.615
81174W        W46335  12.698  14.870   0.055
81175W        W46336  27.540  10.956   0.738
81176W        W46337   2.468  14.186   2.841
81177W        W46338  36.845  25.394  12.996
81178W        W46339  18.187  40.481   0.929
81179W        W46340  36.477  30.603   0.995
81180W        W46341   7.976   9.530   3.438
81181W        W46342  44.983  41.401   0.715
81182W        W46343  19.612  42.968   1.737
81183W        W46344  17.585  10.271   3.869
81184W        W46345  18.243  14.702  12.527
81185W        W46346  17.148  35.082  14.521
81186W        W46347  44.436  42.886  11.394
81187W        W46348  44.823  37.951   5.459
81188W        W46349  29.541   1.399   4.606
81189W        W46350   1.737   6.251  13.257
81190W        W46351  34.009  11.737   1.903
81191W        W46352  29.400  20.304  10.797
81192W        W46353  18.637   9.664   1.805
81193W        W46354  28.772   8.757  12.444
81194W        W46355  43.252  44.335   4.786
81195W        W46356   9.645  10.661   3.612
81196W        W46357  12.071  12.130   0.056
81197W        W46358  38.768   8.188  13.906
81198W        W46359  36.235   8.909  12.864
81199W        W46360   5.244  14.150   2.820
81200W        W46361  37.690  40.408  12.095
81201W        W46362   6.448  34.481  10.371
81202W        W46363  22.515   8.369  14.761
81203W        W46364  17.010  38.531  10.992
81204W        W46365  21.732   4.538   2.073
81205W        W46366  38.243   3.376  10.674
81206W        W46367  43.391  10.802  10.679
81207W        W46368  44.818  10.596  12.425
81208W        W46369  27.995  35.235   5.077
81209W        W46370  26.628  38.325  14.996
81210W        W46371  20.909  33.903  14.027
81211W        W46372   4.229  15.582  12.472
81212W        W46373  34.138  21.490  14.679
81213W        W46374  42.990  40.248   2.905
81214W        W46375  44.814  34.002  12.983
81215W        W46376  43.743  28.913  12.449
81216W        W46377  16.399  34.327   2.212
81217W        W46378   0.748  18.493  12.424
81218W        W46379  26.341  19.392  10.920
81219W        W46380  17.344  42.733  14.179
81220W        W46381  40.577  26.518  14.176
81221W        W46382  15.376  37.954  13.908
81222W        W46383  19.268  14.801  12.892
81223W        W46384   2.909  38.001   5.064
81224W        W46385   5.128  30.407   4.498
81225W        W46386  30.966  31.535  13.239
81226W        W46387  20.379  25.663  10.254
81227W        W46388  15.938  24.483   3.268
81228W        W46389  20.403   7.031  12.373
81229W        W46390  27.127  27.545   0.723
81230W        W46391  21.577  28.360  11.018
81231W        W46392  10.690  29.068   3.196
81232W        W46393  41.546   6.859   4.071
81233W        W46394  16.339  17.021  11.546
81234W        W46395   9.342  25.006  11.006
81235W        W46396  21.225  39.976   0.174
81236W        W46397  23.138  26.504   4.222
81237W        W46398  19.473  31.013   0.800
81238W        W46399  15.271   4.349  14.408
81239W        W46400  29.647   1.511   1.533
81240W        W46401  37.591   9.553   1.930
81241W        W46402  19.677  22.939  13.836
81242W        W46403  17.646  20.993   0.444
81243W        W46404  42.843  29.146  10.773
81244W        W46405  23.785   6.712  11.523
81245W        W46406  14.573  19.209  10.847
81246W        W46407  17.722  15.565  11.236
81247W        W46408  10.428  25.302   5.030
81248W        W46409  26.066  33.233  11.545
81249W        W46410   4.455  10.767  12.021
81250W        W46411   9.804  34.634   2.149
81251W        W46412  26.643  11.310   2.672
81252W        W46413  15.782  14.704  13.948
81253W        W46414  13.640  16.587  14.719
81254W        W46415  15.615  14.362   1.391
81255W        W46416  19.818  15.099  12.587
81256W        W46417  34.368   5.498   3.285
81257W        W46418  26.166  42.046   4.549
81258W        W46419   5.341  16.168  14.307
81259W        W46420  37.922  43.651  11.871
81260W        W46421  41.682   4.139  12.540
81261W        W46422  30.572  15.386   2.396
81262W        W46423  11.409  24.194  11.283
81263W        W46424  27.213   7.560   4.705
81264W        W46425   3.459  42.914  12.494
81265W        W46426  33.476  23.436   3.722
81266W        W46427   1.995  30.511  12.169
81267W        W46428   3.788  16.038   2.782
81268W        W46429  10.320   8.606  13.090
81269W        W46430  16.320  14.365  12.426
81270W        W46431  23.323   8.740  11.196
81271W        W46432  34.914  12.183  14.733
81272W        W46433  38.320   0.130  10.639
81273W        W46434   2.460  13.287   2.734
81274W        W46435  42.764  12.384   4.582
81275W        W46436  27.437  42.876   4.781
81276W        W46437   2.755  36.978   1.098
81277W        W46438   3.961  40.229   4.869
81278W        W46439  21.876  26.317   4.369
81279W        W46440  29.600   1.978   1.306
81280W        W46441   9.468   8.866   3.482
81281W        W46442   4.892  38.308  11.287
81282W        W46443   2.071  11.347  13.142
81283W        W46444  22.150  18.886   0.022
81284W        W46445  21.741  16.752   5.103
81285W        W46446  41.918  40.538   1.173
81286W        W46447  17.861  19.452  13.630
81287W        W46448   6.801  12.654  14.398
81288W        W46449  28.932   3.657   4.221
81289W        W46450   8.382  33.991   4.158
81290W        W46451  33.881  27.474  12.567
81291W        W46452   7.713  32.495   3.964
81292W        W46453  23.709  26.634   3.166
81293W        W46454  42.446   1.545  12.337
81294W        W46455  31.599  15.326   1.847
81295W        W46456  34.445  33.916   2.137
81296W        W46457  13.127   4.437  10.757
81297W        W46458  31.160  42.905  13.437
81298W        W46459  32.612   8.296  11.648
81299W        W46460  42.080  32.615  12.988
81300W        W46461  36.060  38.222  14.044
81301W        W46462  28.503  42.492  10.452
81302W        W46463  38.128  29.564  13.893
81303W        W46464  16.639   4.302  13.487
81304W        W46465   9.079   1.563   2.307
81305W        W46466  36.868   7.535   2.236
81306W        W46467  12.670  26.147   2.325
81307W        W46468   4.748  36.858  14.980
81308W        W46469  24.786  34.687  10.594
81309W        W46470  36.263  14.675   3.853
81310W        W46471   6.190  36.133   2.168
81311W        W46472  29.704  38.465  10.945
81312W        W46473  34.129  12.364   4.478
81313W        W46474  36.679   5.419   2.837
81314W        W46475  37.692  22.162   2.385
81315W        W46476  26.602   7.615   2.600
81316W        W46477  18.104  21.770   3.193
81317W        W46478  11.725  24.434  14.090
81318W        W46479  22.173  14.829  13.073
81319W        W46480  42.823  30.041  11.068
81320W        W46481  44.050  42.099   1.615
81321W        W46482   5.125  38.112   0.551
81322W        W46483   6.683  20.012  11.682
81323W        W46484  19.815  38.320  12.100
81324W        W46485  26.254  42.196   0.417
81325W        W46486  28.717  30.698  12.720
81326W        W46487   0.221  28.847  13.138
81327W        W46488  13.701  25.359  13.572
81328W        W46489  30.429  11.330  13.544
81329W        W46490  23.796  36.001   4.142
81330W        W46491   3.260   3.240   5.161
81331W        W46492  23.976  42.823   2.812
81332W        W46493  20.141  27.697  11.072
81333W        W46494   5.552  17.403  11.191
81334W        W46495  42.518   9.258   2.482
81335W        W46496  23.784  16.317   3.672
81336W        W46497  35.896  12.849   3.787
81337W        W46498  17.308   6.781   1.272
81338W        W46499   0.334  42.236  12.091
81339W        W46500  14.841  22.700  12.199
81340W        W46501  29.566  10.344   4.550
81341W        W46502  31.878  10.227   3.449
81342W        W46503  25.119  27.771   3.153
81343W        W46504  38.018  15.221  12.045
81344W        W46505   3.724  16.041   3.670
81345W        W46506   4.703  33.347   1.949
81346W        W46507  20.741  11.313  12.081
81347W        W46508  14.145  23.897  11.428
81348W        W46509  13.289  31.737   2.589
81349W        W46510  43.294  20.265   0.317
81350W        W46511   1.259  14.623   4.408
81351W        W46512  25.625   7.141  13.257
81352W        W46513  39.327  44.856   2.354
81353W        W46514  16.632   6.930   3.480
81354W        W46515  35.377   7.460   3.303
81355W        W46516  16.730   0.077   3.228
81356W        W46517  28.258  32.020  10.337
81357W        W46518  11.866  13.296   2.490
81358W        W46519  43.948   4.930   2.191
81359W        W46520   4.473  31.290  11.412
81360W        W46521  27.043   5.422   3.687
81361W        W46522  43.734  36.536   2.808
81362W        W46523   0.648  11.502   1.502
81363W        W46524   5.081  38.683  13.386
81364W        W46525  34.374  15.720   2.679
81365W        W46526  36.375  41.944   1.253
81366W        W46527  21.547  16.225  14.966
81367W        W46528  36.027  39.303   3.118
81368W        W46529  19.759  24.626  13.373
81369W        W46530  27.183   9.824   4.092
81370W        W46531   1.870   6.768   2.701
81371W        W46532  24.596  32.911   4.043
81372W        W46533  26.597  12.078   1.883
81373W        W46534   1.059  11.655  10.702
81374W        W46535  44.441  10.374  11.014
81375W        W46536  22.709  24.677   9.852
81376W        W46537  12.830  15.236  14.047
81377W        W46538   4.559  44.365   2.230
81378W        W46539  43.949  17.399  11.838
81379W        W46540  15.763  44.907  11.398
81380W        W46541  26.221  11.167   1.236
81381W        W46542  43.559  26.475   1.347
81382W        W46543   6.520   8.023  11.210
81383W        W46544   1.941   9.233  13.821
81384W        W46545  22.820  28.555   2.328
81385W        W46546  19.540   6.884  11.544
81386W        W46547  13.248  15.245   0.873
81387W        W46548   0.208  26.061   1.970
81388W        W46549  29.244  37.628   4.951
81389W        W46550   7.842  42.031   3.646
81390W        W46551   9.097  24.666   1.122
81391W        W46552  20.308  11.751   3.092
81392W        W46553  19.890  10.232  11.987
81393W        W46554  40.690   2.952   2.141
81394W        W46555  32.212  24.561   1.017
81395W        W46556  11.832  30.219  14.955
81396W        W46557  20.187  32.987  11.659
81397W        W46558  10.744  44.835  13.132
81398W        W46559   9.091  11.296   4.641
81399W        W46560  30.425   6.863   0.894
81400W        W46561   8.210  15.192  11.912
81401W        W46562  39.764  17.993  14.422
81402W        W46563   1.948  18.946   0.362
81403W        W46564  33.484  37.456   5.006
81404W        W46565  11.166  16.083  14.483
81405W        W46566   0.924  20.059  14.789
81406W        W46567  35.594  12.820  11.583
81407W        W46568  20.102   6.012  14.881
81408W        W46569   3.417  23.144  12.410
81409W        W46570  35.114   7.949  14.882
81410W        W46571   4.167  43.557   2.857
81411W        W46572  42.729   5.937  10.983
81412W        W46573  32.883   6.846   2.819
81413W        W46574  12.647  44.051  12.972
81414W        W46575  16.735  40.394   3.693
81415W        W46576  38.272   5.222  12.873
81416W        W46577  20.562  41.617   0.124
81417W        W46578  20.571  32.367  13.452
81418W        W46579  32.080   7.169  12.671
81419W        W46580  27.430  28.900   0.354
81420W        W46581  18.963  20.416   1.130
81421W        W46582  17.289  35.158   0.881
81422W        W46583  12.262  35.039  14.291
81423W        W46584  30.619  15.564   3.331
81424W        W46585  31.796  13.839  14.402
81425W        W46586  17.349  24.061  14.359
81426W        W46587  21.145  24.616  11.508
81427W        W46588  18.727  28.292  11.645
81428W        W46589  12.241  28.491   2.283
81429W        W46590  16.089  31.382  14.269
81430W        W46591   0.000  16.169  13.982
81431W        W46592  34.289  19.556   0.814
81432W        W46593  20.549  18.185  13.924
81433W        W46594  34.152  34.516   3.608
81434W        W46595  14.712  42.402  14.063
81435W        W46596   9.309  29.177  14.451
81436W        W46597  42.300  10.630  11.987
81437W        W46598  17.120  16.766  12.159
81438W        W46599   8.384  27.600  14.247
81439W        W46600  42.750  11.747  12.399
81440W        W46601  10.827  44.927   1.317
81441W        W46602   6.809  26.417   1.657
81442W        W46603  35.481  10.307  11.052
81443W        W46604   5.428  29.139   2.955
81444W        W46605   1.838  36.910  10.683
81445W        W46606  23.817  38.603   3.659
81446W        W46607   5.298  43.838  14.289
81447W        W46608  41.874   8.129   0.339
81448W        W46609  25.777  29.044   2.779
81449W        W46610  35.144  44.986   3.289
81450W        W46611  41.386  31.900   0.607
81451W        W46612   6.275   2.425  10.792
81452W        W46613   5.218   0.014   1.830
81453W        W46614  31.547  20.583  10.704
81454W        W46615  41.423  40.441   3.638
81455W        W46616  18.537   3.960  14.291
81456W        W46617  44.420   6.885  14.458
81457W        W46618   9.337  12.087  13.425
81458W        W46619  39.458  32.938  14.782
81459W        W46620   2.203  18.197  10.447
81460W        W46621  25.501  24.878  11.627
81461W        W46622  43.251  36.385  14.499
81462W        W46623  20.771  37.754   2.622
81463W        W46624   1.358  38.409  11.736
81464W        W46625   6.132  33.586  11.161
81465W        W46626   1.824  42.559  12.035
81466W        W46627   7.718  14.639  14.426
81467W        W46628   2.770  37.252  12.084
81468W        W46629  39.097  21.050   1.782
81469W        W46630  12.379   6.142   2.767
81470W        W46631  38.408  15.863  14.093
81471W        W46632   8.615  10.622   3.639
81472W        W46633  40.804  12.817   1.430
81473W        W46634  28.680  32.589  13.914
81474W        W46635  14.580  24.653   2.119
81475W        W46636  26.419   8.452  12.399
81476W        W46637  30.013  26.879   0.352
81477W        W46638  28.779  18.388   2.754
81478W        W46639  27.027  24.525  12.481
81479W        W46640   9.747  34.182   2.383
81480W        W46641  11.451  35.447  14.582
81481W        W46642  23.978  24.016   1.741
81482W        W46643  11.302  39.971  11.818
81483W        W46644  10.662   8.968   2.832
81484W        W46645   5.943  41.094   1.377
81485W        W46646  20.440   2.020   1.876
81486W        W46647  19.016  32.070   3.720
81487W        W46648  14.245  38.388   3.653
81488W        W46649  33.429  16.787   2.942
81489W        W46650  13.569  16.654  12.943
81490W        W46651  29.610  41.316  11.117
81491W        W46652  28.357  21.649   2.144
81492W        W46653  23.560  29.199  13.598
81493W        W46654  25.011   7.767  12.113
81494W        W46655  35.605   0.011   4.509
81495W        W46656  21.655   5.858   4.590
81496W        W46657  26.800  35.918  13.856
81497W        W46658  34.812   8.637   0.933
81498W        W46659  28.456  24.139  14.834
81499W        W46660  27.447  30.123  11.123
81500W        W46661  34.550  36.894   2.148
81501W        W46662  16.184  20.652  14.456
81502W        W46663  14.610  17.133  14.029
81503W        W46664  35.790  38.402  11.854
81504W        W46665  27.164  17.049  12.097
81505W        W46666   0.612  16.654  11.916
81506W        W46667  37.848   1.791  10.652
81507W        W46668  17.724  10.907   2.652
81508W        W46669   0.242  10.776  11.094
81509W        W46670  22.528  40.441   1.366
81510W        W46671  17.708  22.191  10.795
81511W        W46672  29.623   0.939   1.779
81512W        W46673  30.100  11.025   4.472
81513W        W46674  43.965  23.217   0.036
81514W        W46675  20.285  37.583   2.410
81515W        W46676  38.352  32.565   0.350
81516W        W46677  23.136  15.666  10.711
81517W        W46678  11.637   7.234   3.840
81518W        W46679  15.523  20.666  11.174
81519W        W46680  32.933   6.356   2.626
81520W        W46681  22.025  33.505  12.085
81521W        W46682  38.865  16.863  13.349
81522W        W46683  36.346  27.073  13.532
81523W        W46684   3.290  22.406   2.715
81524W        W46685  12.791  28.904   2.642
81525W        W46686  31.154   7.133   0.812
81526W        W46687  27.436   1.568  10.666
81527W        W46688  21.227  25.770   3.251
81528W        W46689  43.333  15.129   4.582
81529W        W46690  30.878  23.438  12.633
81530W        W46691  19.194   7.204  13.152
81531W        W46692  11.121  44.517   1.293
81532W        W46693  26.992  39.368  14.375
81533W        W46694  15.514  16.242   9.902
81534W        W46695   9.364  41.247   0.488
81535W        W46696   6.236  27.036   1.545
81536W        W46697  17.037  31.398   1.323
81537W        W46698  44.951  30.667   0.812
81538W        W46699  41.030  33.786  14.273
81539W        W46700  36.101  16.520  13.439
81540W        W46701  43.768  25.151   2.925
81541W        W46702  14.968  42.724   2.718
81542W        W46703  35.023  22.079   3.261
81543W        W46704  25.768  24.141   2.332
81544W        W46705   7.470  28.711  11.275
81545W        W46706  13.742  16.553  13.822
81546W        W46707  34.393  30.690   2.178
81547W        W46708   4.619  31.578   0.356
81548W        W46709  32.081  42.908  10.204
81549W        W46710  32.114  26.092  13.575
81550W        W46711   5.703  28.384   2.366
81551W        W46712  31.456  25.551   2.234
81552W        W46713   2.688  14.602   3.621
81553W        W46714  15.840  43.426   5.093
81554W        W46715  35.226  15.778  13.100
81555W        W46716   9.176  43.678   0.137
81556W        W46717  32.442   0.854  14.232
81557W        W46718   4.881   0.762   3.686
81558W        W46719  44.868  35.796  14.995
81559W        W46720   0.274  25.266   3.269
81560W        W46721  21.632  26.983   2.773
81561W        W46722  13.251  38.947  12.888
81562W        W46723  19.347  14.881   9.843
81563W        W46724  29.458  27.051   3.113
81564W        W46725   2.759  43.401   1.760
81565W        W46726  37.339  40.068   4.760
81566W        W46727  43.361  23.002  11.156
81567W        W46728  15.328  14.695   0.686
81568W        W46729  43.365  16.220  10.599
81569W        W46730   8.952  32.023   2.106
81570W        W46731   8.355   1.548  12.062
81571W        W46732  35.126   6.964  12.558
81572W        W46733  37.370  32.912   0.469
81573W        W46734  10.655  31.458  12.522
81574W        W46735   3.613   8.194   2.824
81575W        W46736  38.859  26.253   2.812
81576W        W46737  43.280  38.055  14.729
81577W        W46738   4.145   5.928  14.810
81578W        W46739  36.445  35.722   3.355
81579W        W46740  38.164   1.649   2.814
81580W        W46741  13.499  32.858   0.685
81581W        W46742  44.469  27.845  11.698
81582W        W46743  15.112  22.920   1.836
81583W        W46744  18.147  26.434  10.730
81584W        W46745  17.791   8.781  14.025
81585W        W46746  38.094  13.296  13.177
81586W        W46747   3.778  31.704   2.516
81587W        W46748  42.016  14.854   3.222
81588W        W46749   1.397   3.882   3.879
81589W        W46750   3.800  37.343   9.724
81590W        W46751  25.235  34.037  13.851
81591W        W46752   0.301  15.700   3.148
81592W        W46753  21.457   3.348   4.471
81593W        W46754   0.263   9.943  11.936
81594W        W46755  38.011  18.760   3.153
81595W        W46756  21.712   8.849  14.790
81596W        W46757  39.272  40.134  13.794
81597W        W46758  17.533   0.507   3.191
81598W        W46759  23.192  17.255  13.402
81599W        W46760  23.603  20.744   2.040
81600W        W46761   7.375  31.468  14.941
81601W        W46762  36.729  22.752   2.681
81602W        W46763  19.732   3.989  10.760
81603W        W46764  14.563   9.396   0.582
81604W        W46765  25.668  44.950  12.662
81605W        W46766  15.389  24.107  12.724
81606W        W46767  28.893  26.352  14.443
81607W        W46768  37.004  27.621  12.525
81608W        W46769  31.181  23.658   1.276
81609W        W46770   6.357   4.720  12.030
81610W        W46771  19.145  33.908   4.577
81611W        W46772  39.004  27.557   3.257
81612W        W46773  17.987  15.757  11.665
81613W        W46774  28.687  23.589  13.326
81614W        W46775   4.226  23.545   0.552
81615W        W46776  27.603   1.149  13.788
81616W        W46777  20.763  38.058  11.645
81617W        W46778  24.930  37.391   3.655
81618W        W46779  34.398  17.329   0.506
81619W        W46780  13.190  33.299   0.655
81620W        W46781  13.230  36.482   4.224
81621W        W46782  24.691   8.802  10.397
81622W        W46783  18.819  41.692  14.796
81623W        W46784  40.306  41.934   4.636
81624W        W46785  21.210   7.936   0.806
81625W        W46786  12.798  40.450   5.146
81626W        W46787  11.766  41.527  14.206
81627W        W46788  14.558  26.460  13.886
81628W        W46789   8.758  28.877   4.242
81629W        W46790  35.178  44.304   0.247
81630W        W46791  14.880  32.899   0.806
81631W        W46792  44.992  32.016   3.765
81632W        W46793  30.413  15.070  13.058
81633W        W46794  33.727  36.015  13.941
81634W        W46795  28.508  28.839   1.319
81635W        W46796  35.417   2.644  14.020
81636W        W46797  26.225  27.657   1.035
81637W        W46798  28.153  21.154   2.946
81638W        W46799  24.114  36.366  13.932
81639W        W46800  27.910  13.139   1.382
81640W        W46801  37.385  20.242   1.719
81641W        W46802  43.712  36.273   1.347
81642W        W46803  19.103  43.225   3.115
81643W        W46804   2.934  10.941   3.585
81644W        W46805  26.218  31.049  12.018
81645W        W46806   1.409   9.751  11.470
81646W        W46807  36.234   3.659  14.076
81647W        W46808  30.862  22.605  10.304
81648W        W46809  13.997  13.183   2.158
81649W        W46810  16.138  12.834  12.635
81650W        W46811  35.688   7.655  11.229
81651W        W46812  38.133  18.724  12.511
81652W        W46813   4.264  18.004  12.483
81653W        W46814  43.077  15.811   3.111
81654W        W46815  23.519  19.761  12.630
81655W        W46816  25.574  11.945   0.909
81656W        W46817  20.307  17.188  11.615
81657W        W46818  21.095   7.948  13.550
81658W        W46819  25.406   9.226   0.674
81659W        W46820  30.039  20.925  11.953
81660W        W46821  42.876  39.199   2.857
81661W        W46822  15.553  29.165   1.289
81662W        W46823   4.199  18.768  14.963
81663W        W46824   3.300  11.453  13.684
81664W        W46825   5.720  26.013  12.969
81665W        W46826  33.511  44.367  10.294
81666W        W46827  25.364  13.132   3.266
81667W        W46828  12.817  17.695   3.701
81668W        W46829  23.667  36.021  10.394
81669W        W46830   9.464  44.809  10.765
81670W        W46831  38.464  31.156  11.988
81671W        W46832  41.789  12.840  10.747
81672W        W46833  36.020  29.978  13.482
81673W        W46834   4.776  36.576   1.363
81674W        W46835  41.052  21.124   4.255
81675W        W46836  29.279  14.139   1.723
81676W        W46837  27.219  13.624   3.618
81677W        W46838  17.594  29.563  13.419
81678W        W46839  43.445  20.955   4.205
81679W        W46840  40.104  25.365   1.609
81680W        W46841  24.186  33.729  10.269
81681W        W46842  29.904  15.211   4.220
81682W        W46843  27.331  22.922  11.600
81683W        W46844  32.875  17.546   0.859
81684W        W46845  35.579  33.364  10.576
81685W        W46846  39.646  34.302   0.386
81686W        W46847  12.798  27.219   2.261
81687W        W46848  30.313  13.927  11.003
81688W        W46849  40.809  44.800   1.895
81689W        W46850  17.110   8.733  12.499
81690W        W46851  27.348  19.209   0.485
81691W        W46852   3.352  20.792   0.482
81692W        W46853  30.411  35.671  12.076
81693W        W46854  20.668  18.470  14.361
81694W        W46855  25.574   1.725  10.640
81695W        W46856  39.562  14.241  12.842
81696W        W46857  10.387  27.407  13.778
81697W        W46858  15.369  39.086  13.425
81698W        W46859  35.111  38.407   1.321
81699W        W46860  32.639  23.331  12.816
81700W        W46861  37.968   6.030  13.406
81701W        W46862  34.213  17.231   4.115
81702W        W46863   3.271  39.006   0.419
81703W        W46864  10.408  43.086  14.348
81704W        W46865   4.334   3.942  13.006
81705W        W46866  18.370   3.489   2.564
81706W        W46867  33.665  18.637   2.053
81707W        W46868  37.006  41.313   0.298
81708W        W46869  24.040  24.750  10.965
81709W        W46870  31.092  25.049   2.862
81710W        W46871   1.383  41.905   2.483
81711W        W46872  14.432  21.413  11.413
81712W        W46873  38.279   3.382   5.069
81713W        W46874   3.324   3.154   2.933
81714W        W46875  11.916  41.578  12.864
81715W        W46876   0.223  42.776   2.680
81716W        W46877   4.312  34.658  13.976
81717W        W46878  16.591  21.025  14.500
81718W        W46879  11.592   4.731   0.252
81719W        W46880  24.686  33.436   2.163
81720W        W46881  26.184  42.831   2.561
81721W        W46882  41.499  10.865  12.478
81722W        W46883  18.774  30.056   1.390
81723W        W46884  23.432  37.803   1.710
81724W        W46885  34.651  38.778   1.858
81725W        W46886   1.531   8.590   0.483
81726W        W46887  23.184  13.844  14.779
81727W        W46888  13.165   0.387   0.277
81728W        W46889  37.360   9.165   4.691
81729W        W46890  20.343  27.764   2.237
81730W        W46891  36.109  30.428   3.701
81731W        W46892  35.604  19.144   0.907
81732W        W46893   0.753  33.055  11.660
81733W        W46894   8.372  15.553   0.802
81734W        W46895  14.535  19.349  14.958
81735W        W46896   5.281  34.430   1.904
81736W        W46897  19.470  28.358   0.891
81737W        W46898   5.919   5.000  12.080
81738W        W46899   2.514  15.246   3.329
81739W        W46900  21.466  23.255   0.768
81740W        W46901   1.855   1.024  14.382
81741W        W46902  11.001  34.307   1.652
81742W        W46903  16.848  12.238   2.682
81743W        W46904  39.983   1.143  11.567
81744W        W46905   8.725  29.087  13.877
81745W        W46906  26.054  23.162  10.818
81746W        W46907  13.668  36.878   2.097
81747W        W46908  31.415  20.024   0.913
81748W        W46909   8.193  15.795   4.584
81749W        W46910  27.469   5.690   2.815
81750W        W46911  17.225  44.716  11.539
81751W        W46912  27.956   4.058  14.340
81752W        W46913  10.730  36.118   4.920
81753W        W46914  17.681   7.588   1.090
81754W        W46915   6.221  32.180   1.798
81755W        W46916  15.434  41.011  10.487
81756W        W46917   9.979  10.314   2.865
81757W        W46918   6.216  41.010  13.842
81758W        W46919   2.657  22.487  13.879
81759W        W46920  44.026  16.966   2.148
81760W        W46921  34.463   5.240  10.598
81761W        W46922  24.957  33.977   0.915
81762W        W46923  38.142  23.039  14.454
81763W        W46924  39.931  27.975  12.116
81764W        W46925  39.697  14.807  13.334
81765W        W46926  15.147  41.814   0.859
81766W        W46927  38.079  30.373   4.044
81767W        W46928  44.799  12.807  12.062
81768W        W46929   6.139  11.282  10.585
81769W        W46930  26.970  32.569   0.618
81770W        W46931  17.004  42.854   0.408
81771W        W46932  37.603   7.313   3.214
81772W        W46933   0.311   9.285  12.411
81773W        W46934  38.248  43.235   1.964
81774W        W46935  14.186  29.949   3.918
81775W        W46936  43.146   2.640  13.396
81776W        W46937  32.484  17.263  11.993
81777W        W46938  44.505  19.567  13.975
81778W        W46939  24.242   3.363   0.802
81779W        W46940  19.850  17.910   5.405
81780W        W46941   3.838  36.300  11.969
81781W        W46942  33.154   5.969  13.324
81782W        W46943  43.892   1.807   0.404
81783W        W46944   6.399   6.192   4.842
81784W        W46945  42.846  35.621   4.532
81785W        W46946   0.883  14.749   0.385
81786W        W46947   4.327  44.827  12.919
81787W        W46948   7.129   1.137  13.296
81788W        W46949  35.365   7.729  11.625
81789W        W46950  41.414  28.071   3.591
81790W        W46951  32.530  23.544   1.728
81791W        W46952  19.451   4.788  13.298
81792W        W46953  35.096  43.093   2.220
81793W        W46954   7.773  43.075  14.748
81794W        W46955  42.477  11.105  11.152
81795W        W46956   3.717  17.318  13.934
81796W        W46957   5.393  36.397   3.767
81797W        W46958   7.204  39.569  13.259
81798W        W46959  21.170  31.872  14.986
81799W        W46960  43.497   4.227   4.612
81800W        W46961   5.195  38.179  10.743
81801W        W46962   1.829  23.087   0.212
81802W        W46963  40.340  16.876   0.323
81803W        W46964  19.468  10.661  13.493
81804W        W46965  24.657  26.008  12.506
81805W        W46966  41.479  33.243  14.955
81806W        W46967  36.469  28.966   3.363
81807W        W46968   4.944  32.072   2.366
81808W        W46969  38.813  18.529  13.946
81809W        W46970  28.581   5.274  14.311
81810W        W46971  36.850  31.938   3.031
81811W        W46972  32.407   9.879  14.201
81812W        W46973  11.281  22.762   1.649
81813W        W46974  18.269  22.020  12.617
81814W        W46975  37.622  33.027   2.356
81815W        W46976   7.447   3.171   3.268
81816W        W46977  35.099  34.411  11.838
81817W        W46978  35.405  23.057  14.375
81818W        W46979  43.930  20.842   2.285
81819W        W46980  30.095  39.868  13.995
81820W        W46981  10.082  43.853  13.886
81821W        W46982  19.185  18.205   3.212
81822W        W46983  18.648  27.506   3.777
81823W        W46984  25.105   1.374   3.682
81824W        W46985   4.388  39.500   1.465
81825W        W46986  34.488  39.805  11.542
81826W        W46987  41.369   2.189   1.217
81827W        W46988  22.640  20.404  10.380
81828W        W46989  11.320   8.999   4.341
81829W        W46990  44.923  33.406   0.300
81830W        W46991  15.090  25.900   1.312
81831W        W46992   6.259  19.503  10.341
81832W        W46993  23.204  32.486   0.977
81833W        W46994   2.309  42.222   1.627
81834W        W46995  34.498  12.334   1.784
81835W        W46996  15.604  16.588  14.842
81836W        W46997  34.553  39.495  14.567
81837W        W46998  34.355  24.954   3.304
81838W        W46999  29.113  37.905   4.204
81839W        W47000   3.030   0.395   3.186
81840W        W47001  36.856  40.389  10.606
81841W        W47002   7.452  26.137  12.094
81842W        W47003  38.548  35.887   2.862
81843W        W47004  24.170  17.776   3.797
81844W        W47005  42.763  19.626   3.953
81845W        W47006  35.831  13.299   0.848
81846W        W47007  10.708   3.029  11.096
81847W        W47008  37.511  26.012   1.242
81848W        W47009  23.092  35.534   4.349
81849W        W47010   8.451  34.398  12.973
81850W        W47011  21.694  23.047   3.264
81851W        W47012   2.883  31.096   0.490
81852W        W47013  25.726  39.487  11.159
81853W        W47014  35.892  13.736   0.558
81854W        W47015  35.052  44.372   4.103
81855W        W47016   9.359  15.328  10.675
81856W        W47017  31.815  31.951  10.850
81857W        W47018  38.757  25.619   4.574
81858W        W47019  33.734  36.088  10.747
81859W        W47020  14.279  34.563  12.452
81860W        W47021  28.623   8.318   1.914
81861W        W47022  35.125  24.115   4.098
81862W        W47023  43.261  30.640   1.214
81863W        W47024  40.222  29.477  14.971
81864W        W47025  32.183   2.265  12.395
81865W        W47026   8.709  41.763   2.918
81866W        W47027   7.684  14.059  11.544
81867W        W47028  36.906  19.794   2.239
81868W        W47029  26.647  30.910   3.763
81869W        W47030   8.301  29.713   4.870
81870W        W47031   5.461  33.465   1.508
81871W        W47032  38.469  13.455   3.061
81872W        W47033  44.001  41.015  10.730
81873W        W47034   5.661   7.381  13.350
81874W        W47035  31.562   3.259   4.861
81875W        W47036   2.546  15.596   1.861
81876W        W47037  12.695  21.475  12.002
81877W        W47038  30.015  44.320   1.260
81878W        W47039  35.659  25.023  12.461
81879W        W47040  35.083  14.296  13.383
81880W        W47041  40.532  39.494   4.517
81881W        W47042  21.218  27.005   4.644
81882W        W47043  41.749   5.955  11.259
81883W        W47044  33.593  24.900   4.576
81884W        W47045  15.352  24.715  10.560
81885W        W47046  17.064  30.547  13.884
81886W        W47047  38.488   4.302   1.423
81887W        W47048  41.964  26.203  11.051
81888W        W47049  39.569  25.671  12.104
81889W        W47050   5.340  30.481  12.836
81890W        W47051  13.457  10.276  11.939
81891W        W47052  42.597  42.888  13.072
81892W        W47053  22.200  11.304  12.452
81893W        W47054  40.234  32.982   0.790
81894W        W47055  37.346   0.473  13.579
81895W        W47056  32.187   5.340   2.444
81896W        W47057  32.086   5.404   3.151
81897W        W47058  11.178  22.574  13.420
81898W        W47059   9.343  43.529   1.198
81899W        W47060  11.589   9.815  12.453
81900W        W47061   7.351  42.044   1.890
81901W        W47062   7.737  12.035  11.720
81902W        W47063   5.828  23.153  14.433
81903W        W47064   1.951  16.873  11.544
81904W        W47065  32.366  15.131   4.693
81905W        W47066  33.330  11.798   3.184
81906W        W47067   4.954  27.172  14.348
81907W        W47068   0.445  15.824   3.717
81908W        W47069  44.414  25.355  12.025
81909W        W47070  37.084  30.374  14.762
81910W        W47071  34.020  18.755  14.375
81911W        W47072   8.148  32.574   1.314
81912W        W47073  33.329  12.789   0.064
81913W        W47074  42.818   0.510  13.813
81914W        W47075  34.856  44.077  11.935
81915W        W47076  36.135  27.284  13.933
81916W        W47077  24.751   9.323  10.401
81917W        W47078   1.148  38.985   1.562
81918W        W47079   0.477   9.269   2.777
81919W        W47080  29.554  25.014  14.495
81920W        W47081  44.123  13.675   4.258
81921W        W47082  37.635  30.481  11.625
81922W        W47083  15.329  34.450  13.804
81923W        W47084  29.637   8.306   0.016
81924W        W47085  36.380   2.277   4.143
81925W        W47086   3.800  28.086   1.779
81926W        W47087  40.289  26.054  12.435
81927W        W47088  40.246   2.795   4.027
81928W        W47089  24.008  32.866   4.543
81929W        W47090   1.272  15.234  10.578
81930W        W47091  12.251  35.399   2.848
81931W        W47092   5.398  32.598  14.900
81932W        W47093  42.456  28.667  14.813
81933W        W47094  35.920   4.979  12.894
81934W        W47095  42.715  43.176   4.162
81935W        W47096  23.423  11.830  11.206
81936W        W47097   1.296  44.205  14.573
81937W        W47098   1.837  44.018  14.446
81938W        W47099  27.773  12.139   2.680
81939W        W47100   9.741  40.745  12.884
81940W        W47101   7.273  24.566   3.711
81941W        W47102  34.133  22.468   0.002
81942W        W47103  42.645   2.139   1.045
81943W        W47104  31.492  20.765  13.599
81944W        W47105  39.075  23.189   3.788
81945W        W47106   0.724   3.940   0.287
81946W        W47107  42.208  36.778   1.330
81947W        W47108  31.686   5.074  11.125
81948W        W47109  24.165  25.960   2.075
81949W        W47110  19.371  40.302   3.074
81950W        W47111  33.680  20.745  14.825
81951W        W47112  41.734  12.997   2.495
81952W        W47113  18.894   4.851  13.013
81953W        W47114   3.642  17.321   5.150
81954W        W47115  32.417  43.114   1.885
81955W        W47116  34.412  36.847   2.632
81956W        W47117   9.346  22.511   0.574
81957W        W47118   7.500  40.792  12.007
81958W        W47119  14.297  28.914  11.678
81959W        W47120  42.830   0.072   1.590
81960W        W47121  28.957  27.315   4.862
81961W        W47122   2.711  26.116   1.248
81962W        W47123  38.576  11.915  10.999
81963W        W47124  18.257  17.266  14.955
81964W        W47125  38.330  20.749  13.171
81965W        W47126  29.534  29.141  11.586
81966W        W47127  38.847  24.638  12.884
81967W        W47128  39.014  24.373   4.172
81968W        W47129  27.195  28.201  12.453
81969W        W47130  40.140  27.826   3.224
81970W        W47131  13.182  29.186  10.932
81971W        W47132   0.894   4.864   0.429
81972W        W47133  29.952   3.511  11.681
81973W        W47134  34.631  22.299  11.972
81974W        W47135  24.900   1.658  11.351
81975W        W47136  31.456  42.987   4.779
81976W        W47137   2.823  23.607  11.378
81977W        W47138  42.522  15.290   0.618
81978W        W47139  27.753  40.488   0.332
81979W        W47140   7.153  42.423  13.026
81980W        W47141  10.074  32.163  14.856
81981W        W47142   7.286  36.851  12.202
81982W        W47143  12.774  35.635  12.766
81983W        W47144  31.724   7.266  13.054
81984W        W47145  43.822  17.623  11.386
81985W        W47146  11.892  24.868  10.001
81986W        W47147  28.258  38.272   3.908
81987W        W47148   8.995  28.464  12.085
81988W        W47149  17.543  20.232  13.056
81989W        W47150  28.295   3.966   4.676
81990W        W47151  35.732  14.811   1.813
81991W        W47152  38.965  22.217  14.837
81992W        W47153  16.339  33.964  11.087
81993W        W47154   0.564   8.037   0.049
81994W        W47155  39.148  37.057   2.245
81995W        W47156  24.054   1.694   1.533
81996W        W47157   2.818  29.767  14.044
81997W        W47158  17.225  42.005   4.512
81998W        W47159  33.468  18.714   1.027
81999W        W47160   6.767  13.240  12.998
82000W        W47161  32.810  31.218  13.740
82001W        W47162  36.269  25.108   4.720
82002W        W47163  26.057  19.284  14.990
82003W        W47164   6.512  31.679   2.950
82004W        W47165  35.823  36.886  14.776
82005W        W47166  34.824  34.266   4.139
82006W        W47167  39.931   4.038  12.421
82007W        W47168  23.034   9.308   1.291
82008W        W47169  33.391   2.152   1.370
82009W        W47170  19.813  23.774   1.872
82010W        W47171  42.912  21.448   3.100
82011W        W47172   7.595   1.864  12.605
82012W        W47173  35.425  18.634   1.960
82013W        W47174  10.601  40.310  11.578
82014W        W47175  26.969  44.749   4.622
82015W        W47176  19.292  21.608  11.783
82016W        W47177   8.904  15.208   0.356
82017W        W47178  42.543  21.878  11.918
82018W        W47179  43.301  12.681  10.885
82019W        W47180  21.731  17.056   1.098
82020W        W47181  17.292  35.429   2.299
82021W        W47182  37.123  18.122   3.908
82022W        W47183   0.735  11.233   4.590
82023W        W47184  42.808   6.740   3.290
82024W        W47185  20.102  27.793  12.768
82025W        W47186  18.344   9.317   3.934
82026W        W47187  41.004  36.979   3.322
82027W        W47188  25.387  37.190  11.990
82028W        W47189  31.639   7.977  11.713
82029W        W47190  23.469   0.255  12.372
82030W        W47191   9.059  10.236   4.742
82031W        W47192  28.693   5.444  10.985
82032W        W47193   6.154  15.593   4.691
82033W        W47194   2.128  19.830  13.929
82034W        W47195  17.723  38.211  11.984
82035W        W47196  30.554  40.516   1.321
82036W        W47197  40.981   2.414  14.944
82037W        W47198  29.927  14.299   0.410
82038W        W47199  14.090  21.376   3.233
82039W        W47200   9.615   1.328   4.139
82040W        W47201  44.061   0.777  14.540
82041W        W47202  42.348  13.849   3.661
82042W        W47203   0.566   0.841  14.817
82043W        W47204   4.907  16.238   3.604
82044W        W47205  40.284  30.252   0.402
82045W        W47206  24.845  37.216  10.687
82046W        W47207  42.567  38.294  12.144
82047W        W47208   3.927   9.884   0.897
82048W        W47209  10.268  31.096  12.826
82049W        W47210  31.566  38.297  14.245
82050W        W47211  39.467  17.191  10.707
82051W        W47212  23.185  22.474  14.466
82052W        W47213  23.076   8.433  13.464
82053W        W47214   9.156  29.932   2.241
82054W        W47215  19.071   3.791   0.914
82055W        W47216  14.410  18.877   1.741
82056W        W47217   1.503  34.166   3.679
82057W        W47218  43.991   6.672  13.134
82058W        W47219  32.936  22.600   4.095
82059W        W47220  22.026   3.437  14.900
82060W        W47221  18.255  40.643  12.716
82061W        W47222   6.858  28.017   2.145
82062W        W47223  19.687  11.742   0.792
82063W        W47224  20.834  14.960  11.996
82064W        W47225   3.803  13.075  14.003
82065W        W47226  44.566   9.801   3.863
82066W        W47227   6.355  28.579   1.351
82067W        W47228  25.616   2.911  11.902
82068W        W47229  22.502  21.056  14.472
82069W        W47230  25.725   2.209  10.734
82070W        W47231  35.281  22.683  11.323
82071W        W47232   7.281  39.330   1.909
82072W        W47233  38.440  38.316   4.245
82073W        W47234   9.654  19.155  14.472
82074W        W47235  30.736  25.046  14.863
82075W        W47236  25.190  38.340   1.560
82076W        W47237  42.480  19.178   4.138
82077W        W47238  15.268  25.429   1.398
82078W        W47239  30.912   3.364   4.233
82079W        W47240   9.959  10.649   1.920
82080W        W47241  40.810   7.334   4.599
82081W        W47242  40.259  23.197  13.017
82082W        W47243  30.122  22.114   0.128
82083W        W47244  44.887  38.338   0.790
82084W        W47245  26.087  10.670  14.395
82085W        W47246  15.232   1.350  10.645
82086W        W47247  43.716  25.905  13.295
82087W        W47248  42.782  21.009   4.612
82088W        W47249  34.950   0.349   1.472
82089W        W47250  25.859  22.644   4.657
82090W        W47251  39.118  29.825   1.826
82091W        W47252  37.878  37.813   2.481
82092W        W47253   0.474  39.499  12.923
82093W        W47254  30.182  20.506  10.214
82094W        W47255  27.079  23.906   1.222
82095W        W47256  15.639  12.667   2.366
82096W        W47257  14.587  26.201  10.715
82097W        W47258  13.299  43.039  13.469
82098W        W47259  35.544  42.012   0.817
82099W        W47260  26.383  21.500  12.199
82100W        W47261  44.299   8.183  12.858
82101W        W47262  11.371  32.465  14.081
82102W        W47263   5.379  10.287  14.521
82103W        W47264  32.659  17.034   0.856
82104W        W47265  11.384   3.333   2.770
82105W        W47266   3.878  30.326  13.455
82106W        W47267  15.070  37.717  13.075
82107W        W47268   1.787  11.763   2.348
82108W        W47269  29.702  40.378   3.276
82109W        W47270  14.982   8.739  12.629
82110W        W47271  24.167  38.802   2.715
82111W        W47272  32.109  35.364  14.785
82112W        W47273  42.419  14.662   1.771
82113W        W47274   1.998  11.415  13.916
82114W        W47275  12.695  36.095   2.415
82115W        W47276  21.538  18.664  12.886
82116W        W47277  15.226  14.260   3.407
82117W        W47278  23.440  40.368  11.117
82118W        W47279   4.467   5.290   4.517
82119W        W47280  28.675  18.172  12.472
82120W        W47281  15.356  19.660  11.365
82121W        W47282  26.995  22.504  11.546
82122W        W47283  20.809  30.743  11.595
82123W        W47284   8.645   0.968   3.621
82124W        W47285  18.032  34.497  13.451
82125W        W47286   5.180   4.763   3.899
82126W        W47287  24.905  15.699   9.679
82127W        W47288  14.524  37.097   3.877
82128W        W47289  17.634  43.193  14.372
82129W        W47290  36.351  33.891   0.284
82130W        W47291   2.810  23.921  12.491
82131W        W47292  23.862  30.440   4.925
82132W        W47293  27.563  21.397  11.016
82133W        W47294  30.393   3.303   1.404
82134W        W47295  22.666  41.719  14.914
82135W        W47296  18.510  16.668   2.561
82136W        W47297  41.955  42.405   3.052
82137W        W47298  14.223  28.454  13.899
82138W        W47299  34.534  41.796   2.540
82139W        W47300   9.781   2.814   2.190
82140W        W47301  34.288  22.576  13.159
82141W        W47302  34.938  40.940   3.794
82142W        W47303   8.158  25.212  11.670
82143W        W47304   4.467  27.234   1.649
82144W        W47305  41.396  30.547  14.378
82145W        W47306  18.716   2.373   1.713
82146W        W47307   5.943  20.060   3.190
82147W        W47308  22.713  42.169  10.665
82148W        W47309  19.111  12.648   4.676
82149W        W47310  44.894  34.518   0.023
82150W        W47311  15.611  10.308  10.650
82151W        W47312  29.321  26.189  11.005
82152W        W47313  17.111  43.388  12.388
82153W        W47314  33.502  20.475   4.149
82154W        W47315  21.011  42.202   3.235
82155W        W47316   4.907  15.111   1.307
82156W        W47317  11.282   9.355   1.400
82157W        W47318  18.798   4.228  11.506
82158W        W47319  37.984  12.661  13.994
82159W        W47320  35.623   2.469   3.691
82160W        W47321  18.122   0.505  13.340
82161W        W47322   7.249  17.065   2.130
82162W        W47323  24.061  10.963   4.350
82163W        W47324  27.656   7.456   3.433
82164W        W47325  22.573   8.251   2.636
82165W        W47326  13.168  32.701   2.868
82166W        W47327  12.574   9.623   1.301
82167W        W47328  16.662  32.138   2.719
82168W        W47329   3.529   7.806  13.853
82169W        W47330  44.163  25.968  13.576
82170W        W47331   2.188  39.526   4.978
82171W        W47332  27.007  38.812   1.883
82172W        W47333  40.291   5.221  13.993
82173W        W47334  17.638  34.133  11.982
82174W        W47335  38.589   2.206   0.837
82175W        W47336  25.667   3.172   3.833
82176W        W47337  38.265  19.162  13.504
82177W        W47338  15.842  28.562  13.778
82178W        W47339   9.344  44.911   1.182
82179W        W47340  19.456   4.913  11.879
82180W        W47341  27.592  42.569   4.044
82181W        W47342  11.942  27.142   3.196
82182W        W47343   7.708   7.318  10.360
82183W        W47344   7.710  43.885  14.228
82184W        W47345  28.113  30.144  14.825
82185W        W47346  35.291  16.660  13.034
82186W        W47347   9.864  44.857   1.068
82187W        W47348  11.231  18.307  14.354
82188W        W47349  16.348  20.608   3.253
82189W        W47350   4.397  28.894   2.165
82190W        W47351  37.672   2.503   0.699
82191W        W47352  19.126  28.614  11.569
82192W        W47353  13.141  16.079  12.469
82193W        W47354  15.136  10.319   3.305
82194W        W47355  44.649  40.892   9.700
82195W        W47356   2.112  42.957  12.897
82196W        W47357  35.591  18.806   4.160
82197W        W47358  27.014  30.357  10.380
82198W        W47359  24.765  16.540  12.057
82199W        W47360  39.874  14.949  14.035
82200W        W47361  31.562  39.405   5.411
82201W        W47362  23.889  24.060   2.610
82202W        W47363   6.913  25.029  13.793
82203W        W47364   7.247  14.078  11.106
82204W        W47365  26.763  39.675  11.256
82205W        W47366  39.156  16.654   1.002
82206W        W47367   2.437  24.218  12.180
82207W        W47368  42.894  34.546  14.114
82208W        W47369   8.278   0.368   1.654
82209W        W47370   5.949   6.958   0.916
82210W        W47371  43.237  31.033  14.033
82211W        W47372  42.312  12.786  10.770
82212W        W47373   9.419   2.719  11.040
82213W        W47374   9.112  43.676   4.614
82214W        W47375  17.594  43.251   2.244
82215W        W47376  30.984  35.602   4.569
82216W        W47377  25.789  41.550  12.122
82217W        W47378   2.743  36.187   0.832
82218W        W47379   1.834  28.112   3.743
82219W        W47380   8.214  12.302   1.685
82220W        W47381  14.280  21.047  11.084
82221W        W47382   5.948  42.691  14.552
82222W        W47383  21.387  14.066   4.179
82223W        W47384  43.842  25.706   4.615
82224W        W47385  23.329   2.800  12.487
82225W        W47386  27.654  42.513  13.832
82226W        W47387   7.229  17.548   1.938
82227W        W47388  35.054  12.616   2.023
82228W        W47389  11.328  26.505   4.338
82229W        W47390  22.106  44.781   0.523
82230W        W47391   4.264  22.643  14.241
82231W        W47392  15.833  26.737  12.490
82232W        W47393  39.511  11.317  13.433
82233W        W47394  18.196   6.923  14.794
82234W        W47395  31.638   6.494   4.112
82235W        W47396   7.304  34.143  14.895
82236W        W47397   3.820  22.762  13.659
82237W        W47398  15.590  34.169  14.565
82238W        W47399  10.600  15.136  14.897
82239W        W47400   6.671  31.012  11.569
82240W        W47401  38.796  31.224  11.607
82241W        W47402  19.231   2.220   4.076
82242W        W47403   9.081  15.668  10.977
82243W        W47404  34.523  19.535  10.479
82244W        W47405  44.256  25.537  11.581
82245W        W47406  22.770  17.883   1.774
82246W        W47407  22.592  12.064  13.530
82247W        W47408  11.501  18.808   2.621
82248W        W47409  34.944  10.272  13.911
82249W        W47410   6.543  25.757   2.782
82250W        W47411  25.669  38.298   1.105
82251W        W47412   0.496   1.515  10.939
82252W        W47413  34.638  10.084   4.596
82253W        W47414  35.430  40.752  12.916
82254W        W47415  23.476  29.178  10.727
82255W        W47416  25.641   9.750  14.404
82256W        W47417  35.842  25.250   1.387
82257W        W47418  18.981   4.630  11.822
82258W        W47419  26.078  19.019  13.069
82259W        W47420   9.573  20.575   0.508
82260W        W47421  25.550  21.343   1.438
82261W        W47422  34.970  23.478  13.115
82262W        W47423  18.358  30.026   0.973
82263W        W47424  37.782  12.853   0.468
82264W        W47425   7.950  32.436   1.807
82265W        W47426  19.751  31.485   0.873
82266W        W47427   3.957  30.388  14.805
82267W        W47428   5.442  19.174   3.658
82268W        W47429  42.708  39.575  12.533
82269W        W47430  27.714   1.399  11.071
82270W        W47431  41.295  17.573  12.870
82271W        W47432   2.982  35.341  13.942
82272W        W47433  40.595   8.652  11.424
82273W        W47434   2.002  30.019  13.416
82274W        W47435  35.070  35.953   4.621
82275W        W47436   4.250  34.394  11.255
82276W        W47437  43.572  19.605   3.077
82277W        W47438  43.861  11.115  13.357
82278W        W47439  23.308  20.989   4.540
82279W        W47440   2.842  40.985  11.579
82280W        W47441   9.792   9.919  11.659
82281W        W47442  27.415  25.972   0.673
82282W        W47443   2.048  44.370   3.357
82283W        W47444  37.627   2.434  12.466
82284W        W47445  28.675  17.103   2.167
82285W        W47446  30.729  10.649   3.869
82286W        W47447  35.911   8.090  12.475
82287W        W47448  21.193  42.480   1.357
82288W        W47449   3.771  36.012  14.062
82289W        W47450  10.340  41.933  14.769
82290W        W47451  34.921   4.864   5.207
82291W        W47452  44.197  19.123   0.864
82292W        W47453  37.389  11.374   3.895
82293W        W47454  10.250  28.744   4.051
82294W        W47455   6.974  28.570  12.760
82295W        W47456  18.266  34.330   2.397
82296W        W47457  14.297  16.222  12.060
82297W        W47458  28.211  12.845  12.848
82298W        W47459  39.428  39.876   0.144
82299W        W47460  30.829   5.364   2.699
82300W        W47461  13.619  11.386  13.975
82301W        W47462  42.066   6.372  11.109
82302W        W47463  21.021   2.879   3.220
82303W        W47464  39.838  41.590   4.136
82304W        W47465  36.673   6.994  12.018
82305W        W47466  43.817  12.576  10.751
82306W        W47467   7.720  29.373   3.154
82307W        W47468   4.385   3.625  12.544
82308W        W47469  25.486   3.468   4.238
82309W        W47470  31.098   9.200   4.594
82310W        W47471   3.338   6.756  13.005
82311W        W47472  19.476   1.727   2.004
82312W        W47473  24.021  44.783   1.698
82313W        W47474  25.570  43.002  14.260
82314W        W47475  26.970  24.635   9.694
82315W        W47476  44.758   8.210   1.858
82316W        W47477  20.099  37.256   3.744
82317W        W47478  27.077  20.246   1.541
82318W        W47479  21.603  23.734  13.293
82319W        W47480  25.739  38.247  11.091
82320W        W47481  31.248  38.906   4.577
82321W        W47482  37.810  19.038  11.255
82322W        W47483  35.944  28.634   0.772
82323W        W47484  30.535  19.276  14.519
82324W        W47485  32.531  30.081  14.424
82325W        W47486  42.776   2.876   1.277
82326W        W47487  16.331  22.300   4.681
82327W        W47488  33.863  14.555   3.829
82328W        W47489  31.641  21.618  10.535
82329W        W47490   2.983  10.607   0.717
82330W        W47491  33.360  32.530  11.853
82331W        W47492  10.440  14.272  12.095
82332W        W47493   4.889  34.448   2.872
82333W        W47494  27.083  21.819   0.239
82334W        W47495  36.093   5.390  12.571
82335W        W47496  13.910   4.249  12.852
82336W        W47497   3.835  38.073   2.146
82337W        W47498  32.748  21.043  13.357
82338W        W47499  35.147   5.974   4.553
82339W        W47500  30.474   4.699   1.488
82340W        W47501  32.035  21.240  14.603
82341W        W47502  44.924  22.083   4.179
82342W        W47503  11.900  31.203  12.520
82343W        W47504  27.225  40.152   2.800
82344W        W47505  23.784  42.567  11.648
82345W        W47506   0.544   6.457   2.762
82346W        W47507  30.160  28.430   2.667
82347W        W47508  18.102  24.211   0.957
82348W        W47509  10.206   2.443  14.954
82349W        W47510   8.256  22.193  12.366
82350W        W47511   9.539  28.903   1.026
82351W        W47512  35.215  19.715   5.144
82352W        W47513  32.949  13.745   3.297
82353W        W47514  10.646  31.494  11.478
82354W        W47515  15.134  36.468  14.332
82355W        W47516  13.035  44.050   1.510
82356W        W47517  29.236  39.560  12.135
82357W        W47518  13.618  12.322  11.249
82358W        W47519  30.630  11.852   1.917
82359W        W47520   3.840   3.451  13.630
82360W        W47521  26.151  10.904  11.550
82361W        W47522  17.125  32.926  11.351
82362W        W47523  24.181  21.417  14.020
82363W        W47524  42.022  10.763  10.780
82364W        W47525  14.459  42.617   5.809
82365W        W47526  16.862   6.075   3.804
82366W        W47527   4.000  43.011  10.888
82367W        W47528   1.810  39.890  14.107
82368W        W47529  19.132  18.835  10.376
82369W        W47530  27.568  11.354  14.521
82370W        W47531  17.082  31.826   2.748
82371W        W47532  42.465  15.603  14.872
82372W        W47533   2.359  27.482   1.356
82373W        W47534  10.690  12.151  10.514
82374W        W47535  29.144  37.552  14.504
82375W        W47536  23.201  10.435   4.067
82376W        W47537  27.113  29.250   4.243
82377W        W47538  41.909  21.248  12.068
82378W        W47539  26.727  24.947  12.296
82379W        W47540  25.586  23.594  14.184
82380W        W47541  30.439  10.602  10.733
82381W        W47542  31.082  42.024  14.963
82382W        W47543  37.424  25.248   1.659
82383W        W47544  30.335  16.642   0.877
82384W        W47545  40.808  10.313  10.973
82385W        W47546  13.765  14.093   4.252
82386W        W47547  29.543   1.050  10.716
82387W        W47548  20.119   4.355  10.789
82388W        W47549   9.004   7.921  11.452
82389W        W47550  37.039  38.154   2.268
82390W        W47551   3.841  13.221  10.020
82391W        W47552  32.621  37.945   0.999
82392W        W47553  21.656  14.332   1.893
82393W        W47554  35.112   1.833  13.930
82394W        W47555   1.277   7.074  10.544
82395W        W47556  37.372  31.941  13.506
82396W        W47557  36.521  26.611  10.701
82397W        W47558  19.718   0.402   1.254
82398W        W47559  18.113  15.793  13.398
82399W        W47560  29.943  11.278  10.603
82400W        W47561  22.779  30.094   0.859
82401W        W47562   0.869  37.637   3.120
82402W        W47563  13.188  16.766   3.535
82403W        W47564  12.396  23.778  13.076
82404W        W47565  24.673  29.512  13.414
82405W        W47566   8.232  26.704  11.605
82406W        W47567  23.897  40.158  11.684
82407W        W47568  39.227  44.030  14.735
82408W        W47569  32.559  40.963  11.860
82409W        W47570  12.495  34.566  11.737
82410W        W47571   6.493  11.122   4.213
82411W        W47572  27.325   9.819  12.940
82412W        W47573  10.420  36.525   0.023
82413W        W47574  33.069  39.489   1.721
82414W        W47575  29.600  28.170   0.009
82415W        W47576  18.727  41.575   1.177
82416W        W47577  19.507  34.037   3.766
82417W        W47578   5.684   5.858   4.178
82418W        W47579  15.676  13.416   1.709
82419W        W47580  35.903   3.532   3.584
82420W        W47581  32.844   2.468   2.384
82421W        W47582   0.940  43.572  11.935
82422W        W47583  16.128   9.320  12.957
82423W        W47584  39.655   7.110   0.771
82424W        W47585  28.412   0.193   1.528
82425W        W47586  30.822   4.968  12.985
82426W        W47587  33.854   3.467   0.325
82427W        W47588  15.550  20.116  12.090
82428W        W47589  13.791  22.532  12.974
82429W        W47590  20.113  37.828   1.918
82430W        W47591  13.833  10.834  10.582
82431W        W47592   8.131  44.573   1.805
82432W        W47593   8.153  19.053  13.872
82433W        W47594  42.412  31.881  12.063
82434W        W47595  41.006  37.299  11.124
82435W        W47596  30.422  36.731  12.643
82436W        W47597  14.662  38.046   2.587
82437W        W47598  42.745  29.168   1.951
82438W        W47599  14.687  30.694  14.072
82439W        W47600  39.998  40.787  11.564
82440W        W47601  16.221   9.924   3.764
82441W        W47602  22.734   4.949   3.660
82442W        W47603  31.385  26.029   2.396
82443W        W47604  25.223  34.097  11.527
82444W        W47605  23.728  10.909   2.417
82445W        W47606  17.128  21.489  11.528
82446W        W47607  25.022  43.402   0.472
82447W        W47608  10.303  16.606   4.054
82448W        W47609  15.172   2.490   1.812
82449W        W47610  40.075  32.676  13.392
82450W        W47611  16.076  32.984   4.126
82451W        W47612  27.672  40.500  14.008
82452W        W47613  18.603  40.358  14.125
82453W        W47614  19.754  41.870  11.441
82454W        W47615  20.038  44.514   1.598
82455W        W47616  38.142  34.468  10.712
82456W        W47617   1.838   5.395   3.291
82457W        W47618  31.590  33.705   0.789
82458W        W47619  38.219   4.661  12.109
82459W        W47620  35.361   1.695   3.250
82460W        W47621  31.460  21.084   4.002
82461W        W47622   3.665  26.149   1.635
82462W        W47623   3.190  12.284   1.495
82463W        W47624  39.783  26.232  14.926
82464W        W47625  11.665  41.883  11.163
82465W        W47626  16.052  25.720  12.401
82466W        W47627   9.421  39.460  14.899
82467W        W47628  21.718  34.763  12.081
82468W        W47629  15.358  41.528  10.467
82469W        W47630  21.120   4.180  12.453
82470W        W47631  42.420   1.423   0.363
82471W        W47632   1.419  22.786   1.944
82472W        W47633  43.330   4.908  13.118
82473W        W47634   1.250  41.120  13.461
82474W        W47635   0.917  20.279   2.332
82475W        W47636  43.886  22.899  11.006
82476W        W47637  38.498  36.267   4.092
82477W        W47638  12.139  34.930  14.949
82478W        W47639  16.786  13.766  13.346
82479W        W47640   8.857  16.642  11.606
82480W        W47641  27.148  13.128  14.303
82481W        W47642  27.503  22.138   0.738
82482W        W47643  25.175  25.127  12.631
82483W        W47644  20.412  41.301  12.131
82484W        W47645  11.084  23.633   0.828
82485W        W47646  19.788  36.543  11.369
82486W        W47647   2.397   6.587  14.437
82487W        W47648  33.979  43.953  13.093
82488W        W47649   5.636   1.438  11.152
82489W        W47650  29.710  35.915  12.405
82490W        W47651   5.593  13.887  12.897
82491W        W47652  16.626  36.028  14.503
82492W        W47653  16.802  39.322  13.624
82493W        W47654  14.184   2.387   0.946
82494W        W47655   7.417  26.506  12.922
82495W        W47656  17.140  31.360   0.436
82496W        W47657  43.534  38.477  14.573
82497W        W47658   2.727  36.667   1.537
82498W        W47659  16.789  25.416   0.359
82499W        W47660  17.298  40.555  12.453
82500W        W47661  18.090  27.975  10.545
82501W        W47662  10.234   6.794  14.105
82502W        W47663  26.503  38.025  14.564
82503W        W47664   3.782  43.483   3.250
82504W        W47665  28.897  18.210  10.386
82505W        W47666  28.111   3.936   3.675
82506W        W47667  30.924  30.382   0.361
82507W        W47668  28.387   3.449   3.315
82508W        W47669  39.477   0.925   4.583
82509W        W47670   7.945  17.710   1.281
82510W        W47671  43.483  28.899  12.009
82511W        W47672  23.644  26.237   3.513
82512W        W47673  38.990  19.207   0.979
82513W        W47674  37.373  25.551   4.466
82514W        W47675   3.848  30.006  13.859
82515W        W47676  31.988  34.789   0.776
82516W        W47677  37.221  11.652  11.580
82517W        W47678  27.708  20.042  13.528
82518W        W47679  14.592  29.257  10.344
82519W        W47680  37.308  28.700  11.979
82520W        W47681  19.338  43.873  12.646
82521W        W47682  34.009  18.645   1.213
82522W        W47683  31.015  38.189   2.512
82523W        W47684  21.541  32.374   0.652
82524W        W47685  17.184  26.784   9.961
82525W        W47686  11.640  31.239   3.247
82526W        W47687   4.453  12.689  11.169
82527W        W47688  18.626   1.190  14.357
82528W        W47689  15.391  43.340   4.153
82529W        W47690  29.161  30.482  10.543
82530W        W47691  22.647  43.006  12.153
82531W        W47692   6.916   4.956  13.954
82532W        W47693   1.973  38.439   1.759
82533W        W47694  28.897  24.644   1.795
82534W        W47695  15.933   3.217   4.066
82535W        W47696  40.939  21.493   0.707
82536W        W47697  19.284  18.175   3.735
82537W        W47698  31.409  23.532   1.716
82538W        W47699   9.418  41.888  13.136
82539W        W47700  39.892  34.851   1.194
82540W        W47701   8.830  31.382   1.746
82541W        W47702  28.930  25.839  11.514
82542W        W47703  19.730   0.477  10.240
82543W        W47704  42.306  12.603  14.559
82544W        W47705  24.775  33.474  12.892
82545W        W47706  40.345   8.015   1.203
82546W        W47707  13.854  44.463  11.133
82547W        W47708  26.202   9.976   1.917
82548W        W47709  38.119   0.966   2.218
82549W        W47710  27.504   0.702   3.657
82550W        W47711  28.013  13.219   0.484
82551W        W47712  37.078  20.650   4.188
82552W        W47713  32.026  19.264   3.742
82553W        W47714  34.024  21.973   2.784
82554W        W47715  35.334   4.711  12.502
82555W        W47716  22.272  38.014  14.434
82556W        W47717  35.637   5.133  12.491
82557W        W47718  23.763  13.115  14.861
82558W        W47719   1.309   3.919  10.683
82559W        W47720  23.978  14.779  10.584
82560W        W47721   8.292  32.712   3.150
82561W        W47722  21.668  26.594  10.200
82562W        W47723  44.480  42.412  13.338
82563W        W47724  44.816  12.782   1.246
82564W        W47725  31.692  42.538  12.910
82565W        W47726  11.859  17.882   1.765
82566W        W47727  15.184  24.919  11.661
82567W        W47728  34.939  30.864   0.368
82568W        W47729   2.281  21.500  12.532
82569W        W47730  44.802  31.791   2.271
82570W        W47731   7.883  25.634   2.024
82571W        W47732  26.889  39.694   0.324
82572W        W47733  22.507  13.143   1.294
82573W        W47734   8.347   2.438   1.873
82574W        W47735  38.546  13.395   2.255
82575W        W47736  39.944   1.868   1.968
82576W        W47737  31.145  19.211   3.795
82577W        W47738  30.161   0.239  12.264
82578W        W47739   9.580  24.214  10.697
82579W        W47740  30.886  33.708  11.966
82580W        W47741  22.644  11.720   1.367
82581W        W47742  25.976  12.752  12.094
82582W        W47743  39.509  40.669   2.694
82583W        W47744  38.875  17.277   2.285
82584W        W47745  19.853  16.509  13.808
82585W        W47746   2.413  13.678   0.605
82586W        W47747  32.966  14.508   0.217
82587W        W47748  26.030   8.596  14.657
82588W        W47749  35.345   7.621   2.207
82589W        W47750   7.184  14.925   3.355
82590W        W47751  42.165  43.179  11.200
82591W        W47752  33.217  19.429   1.970
82592W        W47753  20.965  30.878   0.327
82593W        W47754   0.285  14.274   2.358
82594W        W47755  22.199   5.794  11.004
82595W        W47756  39.064  31.711   2.912
82596W        W47757  32.690   4.655  12.105
82597W        W47758   5.493  13.585  13.946
82598W        W47759  28.172  18.537  12.898
82599W        W47760   0.865  16.777   3.523
82600W        W47761  20.600  37.788   3.677
82601W        W47762  15.536   2.825   0.227
82602W        W47763  20.038   5.964   2.056
82603W        W47764  33.347   8.154   0.874
82604W        W47765  18.618  31.100  12.906
82605W        W47766   8.214  39.750  12.570
82606W        W47767  31.732  18.203   2.760
82607W        W47768  16.771  22.606   4.169
82608W        W47769   7.185   3.249   0.645
82609W        W47770  29.147  37.072  14.252
82610W        W47771   7.097  21.267  14.486
82611W        W47772  12.176  32.367   3.607
82612W        W47773  31.068   1.235  11.595
82613W        W47774  19.901   6.221  10.265
82614W        W47775  11.194  40.429   3.203
82615W        W47776  38.157  15.718  11.943
82616W        W47777  43.292  26.663  13.669
82617W        W47778  40.004  34.233   0.744
82618W        W47779   1.410  39.369  13.448
82619W        W47780  11.153  17.744  12.850
82620W        W47781  29.039  31.439  10.622
82621W        W47782  25.025   6.956   2.300
82622W        W47783  25.723  25.860   1.200
82623W        W47784  10.958  42.363  11.657
82624W        W47785  39.576   0.787  14.537
82625W        W47786   4.783  25.483   0.455
82626W        W47787  17.933   8.713   0.334
82627W        W47788  12.743   8.129   1.516
82628W        W47789  15.284  31.137   0.305
82629W        W47790  12.655  29.439   3.568
82630W        W47791  24.639  20.875  13.496
82631W        W47792  27.446  37.122   3.886
82632W        W47793  36.868   0.508  14.915
82633W        W47794  26.146  35.655  12.017
82634W        W47795  16.630  35.804   4.576
82635W        W47796   0.538  44.913   3.571
82636W        W47797  21.110   3.611   0.407
82637W        W47798  30.492  20.738  13.743
82638W        W47799  16.336   9.946  14.265
82639W        W47800  22.657  28.777  11.036
82640W        W47801  42.056  15.835   4.090
82641W        W47802  10.836  13.161  13.492
82642W        W47803  11.603  39.980   2.214
82643W        W47804  19.233  36.192  10.760
82644W        W47805   3.237  12.287  11.470
82645W        W47806   8.360   4.204  12.009
82646W        W47807  12.624  28.600   0.893
82647W        W47808   9.480  12.166  13.920
82648W        W47809  18.823  12.646   1.759
82649W        W47810  10.896   9.217  14.420
82650W        W47811   9.280  16.040  13.122
82651W        W47812   3.964  35.567   0.942
82652W        W47813  30.358  37.432   1.718
82653W        W47814  29.416   3.352   0.348
82654W        W47815  11.335  32.112  11.421
82655W        W47816  12.891   4.896   2.720
82656W        W47817  13.648  17.270   1.897
82657W        W47818   7.115  37.967  12.446
82658W        W47819  32.649  33.637  10.310
82659W        W47820  40.349  41.085  12.644
82660W        W47821  33.091  17.781  14.620
82661W        W47822  34.147  23.712  14.309
82662W        W47823  13.760  43.024   0.498
82663W        W47824   4.516  30.495  13.497
82664W        W47825  37.049  28.643  14.921
82665W        W47826  38.331  12.192  13.207
82666W        W47827   9.469  35.902   1.187
82667W        W47828  11.959   6.754  13.556
82668W        W47829   6.773  29.877   2.902
82669W        W47830  24.340  40.709  10.681
82670W        W47831  40.874  41.905  13.976
82671W        W47832  23.723  24.368  11.670
82672W        W47833  26.476  28.096   3.269
82673W        W47834  12.677  31.988   0.808
82674W        W47835  14.235  14.673   3.617
82675W        W47836   1.863  41.779   2.354
82676W        W47837  29.631  37.461  11.727
82677W        W47838  15.058  26.585  13.777
82678W        W47839  44.515  36.480   4.714
82679W        W47840   7.985  20.128   4.549
82680W        W47841  18.664  34.842   2.583
82681W        W47842  34.565  33.644  10.700
82682W        W47843  18.152  13.870   0.434
82683W        W47844  43.850  37.986  12.896
82684W        W47845  14.569   4.264   4.867
82685W        W47846  15.719  35.825  14.932
82686W        W47847   5.319  37.897  14.608
82687W        W47848  33.488  28.336   5.212
82688W        W47849  16.295   7.095   0.580
82689W        W47850  23.197  15.646   1.318
82690W        W47851  11.765   6.761  11.246
82691W        W47852  10.730  11.217  11.454
82692W        W47853  16.819  18.290   0.833
82693W        W47854   1.305  35.594   2.374
82694W        W47855  25.649  27.780   3.181
82695W        W47856  18.600   7.010  12.553
82696W        W47857  11.078  10.635  14.054
82697W        W47858  41.819  12.428  12.087
82698W        W47859  35.572   2.763  13.512
82699W        W47860  34.880  18.861  12.129
82700W        W47861  31.591  17.964   4.429
82701W        W47862  16.506  28.124   1.276
82702W        W47863  26.670  37.095   3.712
82703W        W47864   3.134   4.448  13.300
82704W        W47865  11.864  28.930   2.791
82705W        W47866   0.570  43.704  14.489
82706W        W47867  26.061   8.516   5.070
82707W        W47868  35.019   3.380   4.976
82708W        W47869  23.914  39.383  12.885
82709W        W47870  19.267   3.478  14.568
82710W        W47871  42.469  25.073   5.006
82711W        W47872   6.835  10.061   3.657
82712W        W47873  37.994   4.673  10.059
82713W        W47874  14.780   1.002  11.140
82714W        W47875  32.979   1.855   3.781
82715W        W47876   2.937  39.771   3.729
82716W        W47877  14.186  44.253   2.727
82717W        W47878   6.532  35.329   2.686
82718W        W47879  20.411  27.582   4.045
82719W        W47880  29.250  20.657  13.290
82720W        W47881   1.647  35.320  12.980
82721W        W47882  25.908  40.776  10.727
82722W        W47883  33.814  26.167   3.138
82723W        W47884  35.813  32.559   2.260
82724W        W47885  35.599  16.487  10.618
82725W        W47886  38.343  26.092   0.896
82726W        W47887  28.267  35.916   1.259
82727W        W47888  38.641  33.373   3.781
82728W        W47889  32.438  40.938  10.579
82729W        W47890   2.746  40.412   1.640
82730W        W47891   5.748  16.613   2.327
82731W        W47892   1.272  35.949   1.202
82732W        W47893  36.477  40.313   2.195
82733W        W47894  31.783   3.411  11.180
82734W        W47895  35.085  10.797  14.554
82735W        W47896   8.083  25.656   3.908
82736W        W47897  42.088  14.039  13.327
82737W        W47898  40.000  19.582   4.644
82738W        W47899  16.241  11.255  14.914
82739W        W47900  29.495   8.938  13.708
82740W        W47901  35.792   6.919   1.520
82741W        W47902  18.002  38.852   0.766
82742W        W47903  17.202   1.360  10.635
82743W        W47904  30.461  27.562  13.183
82744W        W47905  35.221  42.458  14.974
82745W        W47906  31.645   9.787  13.034
82746W        W47907   8.404   4.729   2.181
82747W        W47908  30.086  25.773  13.044
82748W        W47909  14.573   1.773  14.918
82749W        W47910  33.372  44.973   4.216
82750W        W47911   0.933  42.310   0.341
82751W        W47912  28.632   9.641  13.303
82752W        W47913   8.739   4.930   1.414
82753W        W47914  38.679  15.550   0.451
82754W        W47915  19.032  26.441  11.573
82755W        W47916   4.313  43.957   3.788
82756W        W47917  13.621  15.808  12.666
82757W        W47918  18.069  34.758   4.731
82758W        W47919  42.440  30.076  12.203
82759W        W47920   2.279   4.022   4.382
82760W        W47921   2.834  10.606   1.669
82761W        W47922  31.270  30.000   2.194
82762W        W47923   7.885  13.411  12.867
82763W        W47924  16.504   2.377   1.386
82764W        W47925   1.786  29.923   1.396
82765W        W47926  10.037  13.955  13.564
82766W        W47927  39.344  15.561   4.235
82767W        W47928  17.539  41.057  12.598
82768W        W47929  33.177  27.635  14.281
82769W        W47930   0.175   0.829   0.136
82770W        W47931  29.439  28.612  14.747
82771W        W47932  20.577  18.628  12.091
82772W        W47933  43.651  30.241   1.963
82773W        W47934  34.111  42.993  11.837
82774W        W47935  28.648  35.940   4.324
82775W        W47936   0.408  20.045   2.355
82776W        W47937  27.981  16.455  14.080
82777W        W47938  37.643  13.310   2.797
82778W        W47939   9.703  14.813  13.072
82779W        W47940   0.984  24.720  12.430
82780W        W47941   7.617  31.056   3.415
82781W        W47942  38.929  12.693   2.437
82782W        W47943  43.652  24.212  12.627
82783W        W47944  31.543  28.100  10.431
82784W        W47945  12.148  20.697   4.029
82785W        W47946  24.306  17.763  11.557
82786W        W47947  28.441  17.839  13.569
82787W        W47948  38.631  26.097  11.556
82788W        W47949  19.952  41.319   4.490
82789W        W47950  12.773   1.229  13.996
82790W        W47951  35.776  43.119   2.699
82791W        W47952  24.797  36.940   5.461
82792W        W47953  35.667  30.012   0.683
82793W        W47954  15.673  15.189   3.062
82794W        W47955  38.130  28.670   2.689
82795W        W47956  37.463  15.967   0.393
82796W        W47957  44.771   3.806  13.801
82797W        W47958  43.596  19.782   5.130
82798W        W47959  40.892  38.944  14.485
82799W        W47960  18.815   7.918  13.586
82800W        W47961  18.659  18.216  12.435
82801W        W47962   9.835   2.706   1.275
82802W        W47963   2.405   8.634   3.172
82803W        W47964  31.225  36.404   2.466
82804W        W47965  24.365   0.886   0.245
82805W        W47966  31.715  12.336  13.290
82806W        W47967   6.170  19.155   2.671
82807W        W47968   1.232  11.330   4.551
82808W        W47969  32.990  21.607  12.814
82809W        W47970  30.558  20.169  12.881
82810W        W47971  27.447  33.561  10.883
82811W        W47972   8.147  18.809   0.851
82812W        W47973   6.381  25.103  12.056
82813W        W47974  29.981  21.456  13.962
82814W        W47975  23.690   8.136   1.168
82815W        W47976  22.973   3.986   0.821
82816W        W47977  37.467  19.982   4.662
82817W        W47978  29.432   3.375  11.703
82818W        W47979  25.563   1.991  11.985
82819W        W47980   1.612  42.471  14.792
82820W        W47981  37.201   6.731   0.392
82821W        W47982  36.971  16.243   4.515
82822W        W47983  36.775   9.866  11.228
82823W        W47984  18.637  14.073   3.063
82824W        W47985  22.825  14.337   4.598
82825W        W47986   1.533  39.534   0.421
82826W        W47987  23.837  20.926   4.535
82827W        W47988  40.855   8.301   4.319
82828W        W47989   8.976  33.657  13.328
82829W        W47990  41.974  35.902  13.454
82830W        W47991   6.304   0.982  14.300
82831W        W47992  33.903  25.475  11.152
82832W        W47993  30.926  14.679   3.817
82833W        W47994  39.745   2.057  11.172
82834W        W47995  22.314  39.995   1.873
82835W        W47996  30.876   7.758  11.199
82836W        W47997  15.523  21.089   4.069
82837W        W47998  33.099  26.381  12.788
82838W        W47999  42.506  39.734  11.625
82839W        W48000   5.280  31.590  13.841
82840W        W48001   5.538  37.994  12.002
82841W        W48002   8.328   0.189   4.067
82842W        W48003  32.529  15.744   0.755
82843W        W48004  12.907  37.936   3.870
82844W        W48005  25.495   2.191   0.818
82845W        W48006  22.277  10.448   2.656
82846W        W48007   1.387   0.804  14.261
82847W        W48008  23.986  19.331   0.638
82848W        W48009   6.422  44.955   1.430
82849W        W48010  38.708  23.580  12.079
82850W        W48011   5.842  32.685  11.182
82851W        W48012  12.226  42.249   2.274
82852W        W48013  26.128  30.531   0.689
82853W        W48014  23.044  11.696  11.515
82854W        W48015  43.674  17.825  12.525
82855W        W48016  15.738  12.574  11.184
82856W        W48017  14.820   8.760  11.369
82857W        W48018   7.556  36.484  10.737
82858W        W48019  41.927  15.374   2.390
82859W        W48020   5.907  21.082   4.665
82860W        W48021   2.829  27.710   2.340
82861W        W48022  32.999  35.614   3.818
82862W        W48023  35.544  28.946   2.479
82863W        W48024  40.985  24.799  13.956
82864W        W48025   0.349  25.865  12.142
82865W        W48026   8.997  21.821   3.249
82866W        W48027  20.743  38.204   2.894
82867W        W48028  36.113  33.455   4.249
82868W        W48029  26.179  34.572   0.875
82869W        W48030  43.804  14.595  13.397
82870W        W48031  32.258  26.583  13.390
82871W        W48032  42.299  33.544   3.368
82872W        W48033  24.617   8.510   4.712
82873W        W48034  15.224  27.425  12.758
82874W        W48035  16.819  32.895  13.032
82875W        W48036  32.467   5.737   3.810
82876W        W48037  12.323  35.835  13.519
82877W        W48038  11.727  39.479   2.427
82878W        W48039  34.787  23.604   4.522
82879W        W48040  15.706  21.665   0.481
82880W        W48041  11.684  25.986  12.815
82881W        W48042  10.231  26.577  14.465
82882W        W48043  27.008  19.972   4.196
82883W        W48044  32.369  35.675   4.365
82884W        W48045   7.902  39.791   2.259
82885W        W48046   6.152  20.062   2.712
82886W        W48047  13.126  14.321  12.540
82887W        W48048  39.570  21.492   0.579
82888W        W48049  12.903  37.345  14.370
82889W        W48050   8.086  33.042  11.104
82890W        W48051  44.715  39.409  12.422
82891W        W48052  40.304   3.323   1.910
82892W        W48053  29.442  19.315   1.214
82893W        W48054  35.883  18.910   4.788
82894W        W48055  39.981   4.647   3.193
82895W        W48056  23.496  37.598  11.631
82896W        W48057  29.175  21.931  12.025
82897W        W48058  41.215  11.287  13.038
82898W        W48059  17.764  31.024   4.519
82899W        W48060  14.756  14.373   0.040
82900W        W48061  43.275  26.218  11.558
82901W        W48062  42.359  18.018   0.314
82902W        W48063  31.881  20.261   0.907
82903W        W48064  34.380  33.861  11.572
82904W        W48065   5.167  27.042  13.860
82905W        W48066  21.061  38.325  11.318
82906W        W48067  38.212  35.856  13.021
82907W        W48068  27.486  37.321  10.911
82908W        W48069  28.095  14.669  12.638
82909W        W48070  26.571  25.955  10.369
82910W        W48071   3.647  22.623   3.094
82911W        W48072  23.944  13.000   3.255
82912W        W48073  37.494  36.645  11.610
82913W        W48074  39.413  11.634  11.585
82914W        W48075  18.843   4.690  11.241
82915W        W48076  38.343  36.913  12.871
82916W        W48077  14.288  27.621   3.725
82917W        W48078  10.113  25.500   4.169
82918W        W48079   5.454  43.361   1.820
82919W        W48080  31.722  38.714   4.596
82920W        W48081  41.523  33.524  11.148
82921W        W48082  29.256  42.927  14.254
82922W        W48083   8.353  22.786   0.791
82923W        W48084  37.967  11.891  14.432
82924W        W48085   5.481  24.903  13.819
82925W        W48086   7.742  38.616  10.445
82926W        W48087  11.089  38.015  14.605
82927W        W48088  42.809  31.650   3.274
82928W        W48089   4.473   3.220  10.696
82929W        W48090  36.933  30.984   3.881
82930W        W48091   4.002  14.758  11.491
82931W        W48092  23.081  38.244  10.686
82932W        W48093  21.653   0.525  11.475
82933W        W48094  18.618  22.397  10.347
82934W        W48095   2.659  29.000  11.219
82935W        W48096   5.937  29.614  13.008
82936W        W48097  13.342  39.039   0.902
82937W        W48098  28.321  28.076  12.451
82938W        W48099  39.445  41.042  14.194
82939W        W48100  13.651  11.702  12.048
82940W        W48101  21.882  28.213  14.780
82941W        W48102  16.674   4.495  11.189
82942W        W48103  12.658   1.710  13.808
82943W        W48104  30.360   5.506  14.154
82944W        W48105  19.613  11.649  12.485
82945W        W48106  32.184   3.229  13.608
82946W        W48107   5.782   3.995  11.953
82947W        W48108  27.359  38.899   3.189
82948W        W48109  44.613  35.363   1.529
82949W        W48110  42.973   4.198   2.767
82950W        W48111   5.577  14.558  10.704
82951W        W48112  21.456  21.024   2.349
82952W        W48113   7.842   0.594   0.067
82953W        W48114  37.390  14.880  10.758
82954W        W48115  27.084  26.141   2.200
82955W        W48116  21.998   7.920  13.614
82956W        W48117  41.307  41.035   1.770
82957W        W48118  43.643   5.490  14.717
82958W        W48119  36.925  27.636  14.436
82959W        W48120   0.944  40.385  13.872
82960W        W48121  31.751  33.648  13.534
82961W        W48122   7.349  20.295   4.258
82962W        W48123  24.657   5.667   2.261
82963W        W48124   5.395  33.765  13.544
82964W        W48125   3.672  40.557  12.017
82965W        W48126  33.384  39.007   1.433
82966W        W48127   9.341  19.939  14.475
82967W        W48128  15.855  27.360   4.520
82968W        W48129   1.973  19.403   1.769
82969W        W48130  34.975   8.347  14.052
82970W        W48131  19.660   0.090  10.625
82971W        W48132   2.278  28.451   4.171
82972W        W48133  31.392  36.417   4.667
82973W        W48134  27.178  18.705  14.042
82974W        W48135  39.106   3.550  14.365
82975W        W48136  20.692  20.008   2.572
82976W        W48137  11.807  41.335   2.390
82977W        W48138  42.588  16.323   2.954
82978W        W48139  44.314  22.098  11.475
82979W        W48140  16.891  42.143   4.112
82980W        W48141  17.863  25.201  10.425
82981W        W48142   1.057  43.462   2.550
82982W        W48143  11.310  13.274  10.627
82983W        W48144   4.797   6.716  11.439
82984W        W48145  43.400  16.165  12.997
82985W        W48146  28.085  24.224  12.910
82986W        W48147  24.020  17.154   4.530
82987W        W48148  20.368  15.207  13.509
82988W        W48149  38.057  31.514  11.967
82989W        W48150  40.110  41.769   2.609
82990W        W48151  31.254  39.890  11.487
82991W        W48152   7.275  14.135  13.293
82992W        W48153  14.105   1.044   4.033
82993W        W48154  11.349   2.480  12.529
82994W        W48155   5.726  12.609   4.686
82995W        W48156  18.738  21.909   0.027
82996W        W48157  35.526  39.748   1.148
82997W        W48158  30.027  19.523  11.109
82998W        W48159  29.640  24.802   3.423
82999W        W48160  35.567  23.626   1.501
83000W        W48161  30.012   0.835  10.595
83001W        W48162  17.047  31.596   3.213
83002W        W48163   8.912   4.830  13.460
83003W        W48164  13.225  32.389  11.019
83004W        W48165  37.783  39.414  14.975
83005W        W48166  13.093  36.323   3.746
83006W        W48167   6.282  32.043   0.772
83007W        W48168  19.198  23.165  13.988
83008W        W48169  16.337  33.092  12.972
83009W        W48170  33.064   1.733   3.278
83010W        W48171  37.571   0.954  13.544
83011W        W48172  27.165  35.670   4.122
83012W        W48173  42.964   1.937   4.145
83013W        W48174  21.350  41.001  11.110
83014W        W48175  23.561  10.880   0.950
83015W        W48176   4.701  15.374  12.483
83016W        W48177  22.077  38.882  13.051
83017W        W48178  35.070   1.347  14.145
83018W        W48179  10.887   8.491  10.847
83019W        W48180  10.267  35.018  13.895
83020W        W48181  42.845  18.470   4.647
83021W        W48182  23.220  40.213  14.518
83022W        W48183  36.837  24.225   3.734
83023W        W48184   4.786  25.612  13.995
83024W        W48185  26.635   6.785   4.168
83025W        W48186  23.352   9.219   3.219
83026W        W48187  28.866  29.327   1.370
83027W        W48188   4.220  20.204  14.863
83028W        W48189   1.916  22.766  12.975
83029W        W48190   5.960  26.179  14.728
83030W        W48191   6.620   9.848  11.530
83031W        W48192  16.557  38.261   4.888
83032W        W48193   9.706  19.632  14.686
83033W        W48194  43.976  26.613  10.644
83034W        W48195  26.701  25.354   3.672
83035W        W48196  41.638  41.091  10.780
83036W        W48197  28.943  13.600  14.546
83037W        W48198  44.924  37.441   5.501
83038W        W48199   6.191  34.035   1.460
83039W        W48200  20.752  37.428  12.923
83040W        W48201   0.205  37.354   1.792
83041W        W48202   1.817  31.678   1.859
83042W        W48203  27.474  22.638   3.324
83043W        W48204  13.619  42.564   0.970
83044W        W48205  20.513  41.105   0.264
83045W        W48206  43.983   2.949   2.757
83046W        W48207  37.853  41.805  10.531
83047W        W48208  44.427  28.683  14.969
83048W        W48209  12.584  34.535   3.380
83049W        W48210  17.583  40.308   0.014
83050W        W48211  10.761  19.046  13.862
83051W        W48212  24.807   4.949  11.066
83052W        W48213  38.265  10.276   4.796
83053W        W48214  40.534  42.933  12.393
83054W        W48215   4.881  15.058  11.079
83055W        W48216  25.370  12.374  11.085
83056W        W48217  35.872  12.161   1.308
83057W        W48218  36.964  37.743  11.133
83058W        W48219  20.529  42.912  14.735
83059W        W48220  42.920  11.094   4.071
83060W        W48221  17.090   4.231  13.771
83061W        W48222   8.156  11.774   4.602
83062W        W48223  13.773  26.189   3.549
83063W        W48224  35.621  27.854  13.277
83064W        W48225  40.814   6.709   3.411
83065W        W48226   1.873   7.898   3.137
83066W        W48227  24.137  36.656  10.874
83067W        W48228  17.360  11.211   1.222
83068W        W48229  39.587  23.170   3.918
83069W        W48230  23.365  16.322  12.465
83070W        W48231  20.670  10.246  13.480
83071W        W48232  20.105  10.804   4.160
83072W        W48233  39.310  42.242   1.861
83073W        W48234  16.537  25.444  12.053
83074W        W48235   2.094   7.517  13.002
83075W        W48236  35.659  32.570  14.630
83076W        W48237  34.409  36.508   9.897
83077W        W48238  24.701  16.974  12.462
83078W        W48239  38.139  36.434   0.716
83079W        W48240  18.466  25.181   0.029
83080W        W48241  14.296  41.050   2.382
83081W        W48242  26.168  35.438   2.848
83082W        W48243  21.437  27.401  10.417
83083W        W48244  26.451   3.473   2.136
83084W        W48245  28.174  39.536   5.276
83085W        W48246  22.540  15.207  13.087
83086W        W48247   2.147   2.946   2.163
83087W        W48248   5.668   1.739  13.269
83088W        W48249  39.774   6.284  14.965
83089W        W48250  12.771  33.397  12.146
83090W        W48251  43.285  19.208   0.459
83091W        W48252  19.216  22.087   3.881
83092W        W48253   8.953  22.075  14.885
83093W        W48254  21.002  36.400  14.825
83094W        W48255  27.560  24.172   1.445
83095W        W48256  15.560  34.804  12.465
83096W        W48257  34.181   7.411  11.977
83097W        W48258  38.436  15.800  12.618
83098W        W48259  41.454  37.970   2.680
83099W        W48260  32.862  20.394  11.605
83100W        W48261  17.696   8.117  11.178
83101W        W48262  28.677  10.077  11.055
83102W        W48263  39.063  22.613  13.506
83103W        W48264  10.621  19.329  11.747
83104W        W48265  25.643  10.679  12.636
83105W        W48266  44.046  35.025   0.815
83106W        W48267  42.819  29.067  13.498
83107W        W48268  41.487   0.625  14.330
83108W        W48269  40.810  43.677   3.656
83109W        W48270  35.357  43.770  13.737
83110W        W48271  22.942  31.388   4.157
83111W        W48272  21.750  40.029  11.127
83112W        W48273  40.094  44.959   0.877
83113W        W48274  33.063  32.327   1.803
83114W        W48275  40.928  43.996   1.321
83115W        W48276   7.551  27.311  12.508
83116W        W48277  39.364  17.625  14.313
83117W        W48278   9.946  13.660  12.387
83118W        W48279  32.494  35.382   3.916
83119W        W48280  19.105  29.330  11.086
83120W        W48281  20.613  35.516   3.850
83121W        W48282   8.652  12.300  10.765
83122W        W48283   6.843  38.931   4.641
83123W        W48284  18.850  33.446   0.087
83124W        W48285  20.038  41.954   4.213
83125W        W48286   7.382  44.990   1.352
83126W        W48287   5.700  17.277  13.885
83127W        W48288   0.933   7.050   5.003
83128W        W48289  12.606   4.364  10.668
83129W        W48290  20.782  41.812   3.497
83130W        W48291  41.665  14.161  13.055
83131W        W48292   3.350   0.527   3.709
83132W        W48293  40.410  36.111  11.601
83133W        W48294  39.509  16.347   1.281
83134W        W48295   2.234  29.583  13.279
83135W        W48296   0.015   2.848  12.425
83136W        W48297  43.989   9.633  12.436
83137W        W48298  19.027  24.129   5.044
83138W        W48299  33.480  29.221   4.075
83139W        W48300  15.932  23.230  11.450
83140W        W48301  21.525  26.865   0.529
83141W        W48302  16.691  31.582   0.267
83142W        W48303   1.221  27.139  13.969
83143W        W48304  12.928   3.176   3.624
83144W        W48305  15.566   9.809  11.709
83145W        W48306  23.627   9.324  14.786
83146W        W48307  37.298  40.300  13.737
83147W        W48308  16.110   4.851   0.528
83148W        W48309  19.704  41.326   1.835
83149W        W48310  11.351  34.023  11.890
83150W        W48311  21.714  40.115  12.044
83151W        W48312  44.739  38.517  12.862
83152W        W48313  27.000  26.860  12.932
83153W        W48314  28.214  18.087   1.727
83154W        W48315  42.340   0.525  13.645
83155W        W48316   2.616  25.906   1.954
83156W        W48317  39.804   6.335  12.994
83157W        W48318  12.765  17.002  11.959
83158W        W48319  34.134   3.340  13.540
83159W        W48320  13.911  32.893  13.039
83160W        W48321  16.698  36.105  10.657
83161W        W48322  39.451  15.782  14.784
83162W        W48323  37.937  44.016  12.571
83163W        W48324  43.721   0.995  14.913
83164W        W48325  41.322  10.752  12.938
83165W        W48326   4.522  10.683   0.785
83166W        W48327  41.269   9.668   4.257
83167W        W48328   3.051  11.877  10.526
83168W        W48329   9.844   5.144   3.161
83169W        W48330  37.590   3.460  11.617
83170W        W48331  32.489  29.520   2.407
83171W        W48332   0.144  23.080  14.258
83172W        W48333  42.128  31.888   0.325
83173W        W48334  27.112  22.472  12.435
83174W        W48335  38.097  28.672   1.669
83175W        W48336  34.894   5.928  11.537
83176W        W48337   5.047  43.535  13.932
83177W        W48338  25.217   8.609   1.256
83178W        W48339  32.318   9.467  13.864
83179W        W48340  37.524  41.577   0.157
83180W        W48341   1.377  20.386  11.773
83181W        W48342  16.620  15.143  14.790
83182W        W48343   1.918  27.169  10.742
83183W        W48344  36.806  42.450  10.974
83184W        W48345  16.717  10.441  12.576
83185W        W48346   9.336  39.459  10.573
83186W        W48347   8.227  14.032   3.341
83187W        W48348   4.521  41.479  12.896
83188W        W48349  10.643  20.758  14.607
83189W        W48350  33.540  38.512  10.314
83190W        W48351  22.665  37.439   0.796
83191W        W48352  21.989   3.454  12.620
83192W        W48353  24.189   2.303  14.450
83193W        W48354   7.360  33.108  13.653
83194W        W48355  37.197   0.354  11.331
83195W        W48356  39.563  30.001  12.876
83196W        W48357   7.052  13.642   4.034
83197W        W48358  23.046  25.009   4.142
83198W        W48359  36.042  41.700   4.270
83199W        W48360   0.930  27.994   3.184
83200W        W48361   4.147  18.191  14.264
83201W        W48362   5.055  35.085  11.196
83202W        W48363  37.086  42.139  10.162
83203W        W48364  28.627   3.180   3.717
83204W        W48365  43.556   9.782  13.485
83205W        W48366  33.274  29.688  10.127
83206W        W48367  29.491  37.737   9.878
83207W        W48368   3.934  32.183   0.389
83208W        W48369  15.560   4.471  12.422
83209W        W48370   4.823   8.120   0.023
83210W        W48371  27.496  38.338   0.026
83211W        W48372  23.085  37.308   1.083
83212W        W48373  41.453  24.785   0.857
83213W        W48374  20.559   3.673   4.066
83214W        W48375   9.476   7.726  11.620
83215W        W48376  27.675  31.877  13.572
83216W        W48377   9.439  21.997  11.075
83217W        W48378  38.240  12.255  12.290
83218W        W48379  36.359  24.190  12.452
83219W        W48380   6.053  38.412   4.152
83220W        W48381  34.359  16.545   0.926
83221W        W48382  17.250   0.906  14.446
83222W        W48383  35.917  13.673   4.268
83223W        W48384  28.165  14.837  12.165
83224W        W48385  24.923  36.596  10.677
83225W        W48386   0.212  39.408  12.476
83226W        W48387  30.330  42.435  11.499
83227W        W48388  20.769  44.005   4.660
83228W        W48389   8.656  21.256  10.369
83229W        W48390   4.940  34.392   3.736
83230W        W48391   3.244  21.652  11.093
83231W        W48392  43.888   4.648   0.700
83232W        W48393   6.994  39.450   1.479
83233W        W48394  20.176  24.765   2.231
83234W        W48395  19.833  16.291   2.265
83235W        W48396   4.703  41.966   1.975
83236W        W48397  20.793  25.982  11.568
83237W        W48398   9.226   3.168  10.234
83238W        W48399   0.081   7.213   0.487
83239W        W48400  32.090  39.128  11.796
83240W        W48401  25.587  24.844  13.020
83241W        W48402  44.955  31.426   3.126
83242W        W48403   5.013   1.825   0.731
83243W        W48404  40.744  26.436   3.807
83244W        W48405   5.180   4.086   1.291
83245W        W48406  17.109  43.323   0.156
83246W        W48407  20.742   9.543   2.355
83247W        W48408  22.166  22.006  13.821
83248W        W48409  17.717   6.947  13.176
83249W        W48410  30.660   0.452  14.078
83250W        W48411  14.548  11.112  11.185
83251W        W48412  19.692   9.231   4.095
83252W        W48413   5.111  21.618  12.140
83253W        W48414  33.620  28.110  11.698
83254W        W48415   6.469   3.492   1.498
83255W        W48416   1.848  26.546  13.343
83256W        W48417  27.307  31.250  12.455
83257W        W48418  14.887   6.049   2.780
83258W        W48419   8.901   6.745   2.741
83259W        W48420   0.087  14.774   2.631
83260W        W48421  33.146  18.017   0.894
83261W        W48422  24.026  27.031   3.222
83262W        W48423  30.359  38.652   2.649
83263W        W48424  18.798  10.251  14.882
83264W        W48425  20.524  21.929   1.840
83265W        W48426  19.996  15.651   2.407
83266W        W48427  41.556  31.292  12.729
83267W        W48428   7.856   9.705  12.890
83268W        W48429  28.099  20.775  11.116
83269W        W48430  15.695  32.058  13.522
83270W        W48431   8.204  27.344   2.819
83271W        W48432  23.046  40.886   2.932
83272W        W48433  20.096  30.098  14.879
83273W        W48434   7.668  29.503  13.792
83274W        W48435  20.284  15.327  12.536
83275W        W48436  37.973   7.332  14.441
83276W        W48437  33.508  26.125  12.582
83277W        W48438   1.905   7.314  12.537
83278W        W48439  20.197  44.476  14.767
83279W        W48440  37.024  30.223   3.296
83280W        W48441   3.404  29.821   4.553
83281W        W48442   7.288  23.151  13.954
83282W        W48443  19.707  40.280  10.946
83283W        W48444   6.502  19.597   3.622
83284W        W48445  15.608  25.900   3.704
83285W        W48446  44.839  16.686  13.478
83286W        W48447  29.916  32.415   1.721
83287W        W48448  28.439  20.183   1.413
83288W        W48449  37.530  35.769  11.040
83289W        W48450  27.917  24.456   0.506
83290W        W48451  25.640  26.213   4.556
83291W        W48452   3.440  23.277   0.919
83292W        W48453  29.867  26.744  11.685
83293W        W48454  20.238   3.810  10.664
83294W        W48455  27.917   9.021   1.922
83295W        W48456  20.334  37.926   0.435
83296W        W48457  20.972  29.025  13.388
83297W        W48458   0.427  27.145  11.569
83298W        W48459  44.797  25.182   0.372
83299W        W48460  15.132  33.876   0.692
83300W        W48461   9.737   8.866  14.303
83301W        W48462  20.993   2.428  14.641
83302W        W48463  12.687  41.512   4.023
83303W        W48464  13.064  41.977  12.024
83304W        W48465  28.189  23.725   1.210
83305W        W48466  18.272  11.755  14.932
83306W        W48467   4.884  28.006  13.942
83307W        W48468  10.314  40.666  10.191
83308W        W48469   8.164  44.447  11.300
83309W        W48470  17.234  23.025  11.628
83310W        W48471   1.680  17.220   1.366
83311W        W48472  28.020   6.215  10.588
83312W        W48473   4.297   0.887  14.875
83313W        W48474  21.386  23.183  10.313
83314W        W48475  28.213   8.065  13.166
83315W        W48476  43.317  13.428   2.743
83316W        W48477  13.540  29.103  13.860
83317W        W48478  17.211  37.359   3.290
83318W        W48479  24.581  12.094   0.593
83319W        W48480  43.257  10.438  12.370
83320W        W48481  44.964  43.203  13.825
83321W        W48482  22.153  14.219   0.768
83322W        W48483  12.310  26.085  13.929
83323W        W48484  10.471  32.526   2.754
83324W        W48485  33.493  43.875   0.748
83325W        W48486   9.865  37.964  11.153
83326W        W48487  40.548  16.217  12.382
83327W        W48488  18.275  28.002   0.539
83328W        W48489   1.227  11.930   3.205
83329W        W48490   6.264  41.941   4.553
83330W        W48491   8.445  41.797  12.945
83331W        W48492   6.810  15.504   0.792
83332W        W48493  36.629  36.478   2.728
83333W        W48494  36.484  36.534   0.845
83334W        W48495  19.719  41.528   4.923
83335W        W48496   7.304   1.334  13.743
83336W        W48497  26.131  11.312   4.193
83337W        W48498   3.067  38.293  14.779
83338W        W48499  41.410  43.640   4.849
83339W        W48500  25.126  22.350   2.223
83340W        W48501  42.234  13.834   1.608
83341W        W48502  33.682  33.143  14.053
83342W        W48503  32.803  41.842  14.407
83343W        W48504  23.094  32.140   1.831
83344W        W48505  20.195  30.389   1.327
83345W        W48506  26.532   7.745  10.586
83346W        W48507  12.499  11.940   0.861
83347W        W48508  18.235  15.821   0.001
83348W        W48509   2.275  26.069   1.582
83349W        W48510  13.511  25.187  13.102
83350W        W48511  20.004  12.831   2.181
83351W        W48512   1.191   3.267  13.888
83352W        W48513  23.430  30.525  12.010
83353W        W48514   9.398  29.070  10.738
83354W        W48515   1.726  11.297  12.189
83355W        W48516  39.080  12.902  10.068
83356W        W48517  21.654  24.838  14.771
83357W        W48518   4.412  43.977  12.781
83358W        W48519  40.355  40.140  12.454
83359W        W48520  17.565  40.281   2.209
83360W        W48521   7.520  22.977  13.449
83361W        W48522  10.362   1.481  13.559
83362W        W48523  15.236  20.278  13.396
83363W        W48524  33.519  34.766   3.290
83364W        W48525  13.398  15.460   9.894
83365W        W48526  33.663  11.324  13.170
83366W        W48527  20.724  43.571  13.990
83367W        W48528  15.541  27.681   4.254
83368W        W48529  15.786  33.018  12.249
83369W        W48530  34.047  16.617   4.282
83370W        W48531  28.182  13.385   0.971
83371W        W48532  19.064  42.540  12.936
83372W        W48533  37.911  28.416  12.965
83373W        W48534  27.491  35.352  13.887
83374W        W48535  34.321  19.813   3.210
83375W        W48536  42.840  18.152   2.093
83376W        W48537   0.391  15.718   2.635
83377W        W48538  34.574  10.619   1.724
83378W        W48539  32.839  32.139  12.783
83379W        W48540  22.745   7.842   3.414
83380W        W48541  15.081  42.545   4.019
83381W        W48542  10.816  17.103   1.519
83382W        W48543   3.247   0.971  10.656
83383W        W48544  22.047  30.132   3.027
83384W        W48545  44.206  40.531   3.191
83385W        W48546  15.790   5.439   2.787
83386W        W48547   6.765  42.227  12.497
83387W        W48548  30.380  23.939   0.910
83388W        W48549   3.507   4.429   3.313
83389W        W48550  25.375  15.116  13.140
83390W        W48551  18.686  25.054  10.712
83391W        W48552  18.652  33.121   4.412
83392W        W48553  11.587  23.066  10.725
83393W        W48554  28.148  26.489  11.749
83394W        W48555  17.647  27.159  10.509
83395W        W48556   9.014   8.594   3.724
83396W        W48557  14.112   8.327  14.806
83397W        W48558  18.196   4.395   4.520
83398W        W48559  13.965   8.799   1.247
83399W        W48560  20.758  18.846  11.077
83400W        W48561  33.363  32.582   4.766
83401W        W48562  26.112  22.139  11.717
83402W        W48563  30.365  42.389  10.630
83403W        W48564  35.395  24.929  11.119
83404W        W48565  31.080  30.441   3.219
83405W        W48566  29.036  34.829  14.836
83406W        W48567  23.549  31.992   0.995
83407W        W48568  22.450  26.550   2.226
83408W        W48569  28.476  24.197  11.568
83409W        W48570  22.617  18.748  10.688
83410W        W48571  25.138  11.355   2.445
83411W        W48572  11.193  12.267   0.935
83412W        W48573  14.668  13.643  13.591
83413W        W48574  42.794  18.644  10.925
83414W        W48575  30.013  39.452  13.220
83415W        W48576  43.425  12.127  11.445
83416W        W48577  12.849  11.385   3.754
83417W        W48578   5.244  33.586   0.041
83418W        W48579  10.873   2.627   0.506
83419W        W48580   2.412   0.261   4.585
83420W        W48581  22.756   9.860  12.871
83421W        W48582  12.432  26.633   1.348
83422W        W48583   9.165  38.859   4.190
83423W        W48584   3.730  20.793   1.722
83424W        W48585  20.543  40.599  10.562
83425W        W48586  27.655  38.087  13.615
83426W        W48587  28.756   4.960  12.650
83427W        W48588  42.814  27.253   3.942
83428W        W48589   4.822   5.895  10.294
83429W        W48590  44.376  17.366   3.677
83430W        W48591  26.623  43.924   4.245
83431W        W48592  29.054   7.187  13.963
83432W        W48593  43.296  44.359  12.290
83433W        W48594  18.151   2.135  14.512
83434W        W48595  24.866  44.487  12.813
83435W        W48596  11.694  13.554  13.762
83436W        W48597  41.669  39.403   3.697
83437W        W48598  33.973  26.522   4.137
83438W        W48599  25.998  33.587   2.745
83439W        W48600  25.665   7.690   2.694
83440W        W48601  22.784  15.321   2.370
83441W        W48602  14.803   7.381  10.766
83442W        W48603  38.125  33.620  14.623
83443W        W48604  18.524  27.955  13.422
83444W        W48605  37.628  36.575   4.981
83445W        W48606   1.282   6.398  13.057
83446W        W48607   7.308   1.210   0.912
83447W        W48608  39.943  26.020  13.757
83448W        W48609  33.510   3.282  12.136
83449W        W48610  35.388  44.570  11.183
83450W        W48611  11.889  28.410   2.769
83451W        W48612  36.009  32.121  13.875
83452W        W48613  34.652  30.371   0.239
83453W        W48614   9.818   3.333   3.394
83454W        W48615  25.950   3.848  11.909
83455W        W48616   7.168   6.793   0.136
83456W        W48617  38.940  23.453  12.958
83457W        W48618  37.921  18.229  10.691
83458W        W48619   2.270  42.526   4.030
83459W        W48620   3.489  15.234   4.173
83460W        W48621  32.098  19.137   2.770
83461W        W48622  21.869   7.750   4.806
83462W        W48623  38.425   0.167  12.624
83463W        W48624  30.385  37.220  12.441
83464W        W48625  34.122  33.949  14.981
83465W        W48626  41.925   7.861   1.800
83466W        W48627   3.166   5.370  14.491
83467W        W48628  10.581  44.131  14.820
83468W        W48629  28.704   3.210  13.898
83469W        W48630  38.403  17.851  12.590
83470W        W48631   1.765  19.690   4.197
83471W        W48632  26.054   6.254   3.535
83472W        W48633  22.201   8.574  10.160
83473W        W48634   1.395  15.542   3.589
83474W        W48635  41.838  14.611   4.968
83475W        W48636  30.954  43.778  13.058
83476W        W48637   4.947   9.156  13.340
83477W        W48638  15.216  32.344  14.478
83478W        W48639   8.340  23.286  11.603
83479W        W48640  27.526  11.210   0.272
83480W        W48641  12.681   4.323   4.084
83481W        W48642  19.250   5.942  11.179
83482W        W48643  19.338  37.808   1.505
83483W        W48644  13.828   9.381   4.867
83484W        W48645  19.322  41.480  13.088
83485W        W48646  12.293  34.902   2.734
83486W        W48647   3.311  40.012  13.080
83487W        W48648  36.606  32.224   2.223
83488W        W48649  33.934  41.834   5.058
83489W        W48650  31.847  30.832  10.811
83490W        W48651   6.175   9.877   4.125
83491W        W48652   7.660   3.414  14.395
83492W        W48653  24.674  33.342  12.399
83493W        W48654  32.148   0.702  14.776
83494W        W48655  18.350  42.715   9.640
83495W        W48656  29.899  13.739  10.717
83496W        W48657  42.849  12.029  13.269
83497W        W48658  34.425  15.281  12.529
83498W        W48659  16.728  38.044   2.693
83499W        W48660   9.359  32.651   2.447
83500W        W48661  35.920  12.869   4.330
83501W        W48662  16.433  10.602  11.497
83502W        W48663  38.176   8.754   4.723
83503W        W48664  16.612  13.688  11.837
83504W        W48665   4.973  40.001  11.975
83505W        W48666  36.461  20.193  14.368
83506W        W48667  20.083  34.564  14.071
83507W        W48668  38.656  32.622  11.594
83508W        W48669  14.767  32.618  11.244
83509W        W48670  19.152  16.838   1.213
83510W        W48671  41.524  13.604   3.181
83511W        W48672   9.399  43.258   0.292
83512W        W48673  28.632  21.342   0.636
83513W        W48674  37.945  18.540  11.138
83514W        W48675   4.628   3.329   1.242
83515W        W48676  39.095  14.894  13.384
83516W        W48677  44.727  23.920   3.201
83517W        W48678  44.814  11.672   4.102
83518W        W48679  33.040  12.317   1.747
83519W        W48680  15.061  14.676   2.583
83520W        W48681  15.467  16.655   3.510
83521W        W48682  25.666  35.696   2.297
83522W        W48683  40.899  26.612   0.639
83523W        W48684  43.451  26.519   5.005
83524W        W48685  42.350  31.579   1.715
83525W        W48686   3.447  11.898   5.089
83526W        W48687  33.038  32.123  11.891
83527W        W48688  19.793  38.782   1.415
83528W        W48689   3.202  25.476  13.891
83529W        W48690  42.944   0.761   0.297
83530W        W48691  18.031  21.679  13.368
83531W        W48692  26.569   4.968  14.864
83532W        W48693  30.440  26.201   3.324
83533W        W48694  17.892  24.634   3.234
83534W        W48695  15.775  21.033   4.526
83535W        W48696  39.528  39.305   4.896
83536W        W48697  15.251  16.255   4.521
83537W        W48698  29.520  35.545  14.713
83538W        W48699  40.472  26.032   3.138
83539W        W48700   2.152  30.531   1.375
83540W        W48701  19.736   1.331   2.200
83541W        W48702  13.446  35.126  12.409
83542W        W48703  36.939   7.484   4.732
83543W        W48704  12.344   6.665  10.667
83544W        W48705  23.904  31.950   5.152
83545W        W48706  18.043  22.794   1.710
83546W        W48707  19.507  25.634   3.597
83547W        W48708  36.817  43.980   2.402
83548W        W48709  27.149  37.480   2.642
83549W        W48710   0.406  23.082   0.902
83550W        W48711   0.755   0.232   2.721
83551W        W48712  38.587   7.716  13.929
83552W        W48713  29.160  21.103  12.108
83553W        W48714  20.509  44.027   3.251
83554W        W48715   9.608  34.636  13.177
83555W        W48716  31.910  21.370   0.951
83556W        W48717   7.254   9.424  13.577
83557W        W48718  16.833   6.856  12.885
83558W        W48719  41.372  16.976  10.930
83559W        W48720  44.277  12.709   2.226
83560W        W48721   1.817  34.841   1.040
83561W        W48722  15.124  12.586  12.228
83562W        W48723  11.194  35.060   0.504
83563W        W48724  43.581  35.588   5.531
83564W        W48725  23.740  33.493   4.221
83565W        W48726  39.843   9.625  13.206
83566W        W48727  35.860  18.860   2.831
83567W        W48728  35.864   1.252  13.593
83568W        W48729  22.963  29.527  10.242
83569W        W48730  30.161   5.792  10.747
83570W        W48731  33.704   7.177   4.083
83571W        W48732  32.877  22.749   0.061
83572W        W48733  40.447  15.487   1.318
83573W        W48734  21.990  31.396  11.062
83574W        W48735  44.513  44.442  13.003
83575W        W48736  22.126   7.796  11.547
83576W        W48737  18.520  39.368  13.236
83577W        W48738   7.343  22.869   4.129
83578W        W48739  17.532  44.303  11.505
83579W        W48740  42.118  30.733   0.452
83580W        W48741  43.726  44.044  12.497
83581W        W48742  19.684  35.455   0.016
83582W        W48743  17.045   5.316  10.931
83583W        W48744   5.460  40.434   0.242
83584W        W48745   0.427  19.228   3.907
83585W        W48746  16.840  21.695   4.213
83586W        W48747  20.430  37.893  14.922
83587W        W48748  38.600   3.477  14.430
83588W        W48749  10.211  41.560   5.022
83589W        W48750  36.525   0.152  14.737
83590W        W48751   7.267  21.225   1.760
83591W        W48752  27.175   6.376   3.740
83592W        W48753  18.743  44.563  13.298
83593W        W48754  22.814  25.200  12.006
83594W        W48755  40.326  23.465  13.466
83595W        W48756  15.687  35.393   2.229
83596W        W48757  31.879  11.160   4.203
83597W        W48758  28.748  21.119   3.322
83598W        W48759  11.909  32.117  12.524
83599W        W48760  13.856  22.711  10.997
83600W        W48761  11.251  19.700  13.166
83601W        W48762  17.290  31.428  13.615
83602W        W48763  27.301   9.746   3.367
83603W        W48764   0.283  38.878   5.463
83604W        W48765   4.913   4.156   4.666
83605W        W48766   7.729  36.889   0.971
83606W        W48767  41.266  14.406   0.355
83607W        W48768  18.117  19.228  14.028
83608W        W48769   3.905  29.891  13.158
83609W        W48770  12.818  42.058   2.201
83610W        W48771  25.993  32.131   3.079
83611W        W48772  29.574   9.650  13.202
83612W        W48773  22.988  43.507   2.350
83613W        W48774   4.901   7.060  12.955
83614W        W48775  27.785  18.844   4.116
83615W        W48776  18.465  12.816   4.057
83616W        W48777   2.678  41.624  12.751
83617W        W48778  32.615  32.375  10.584
83618W        W48779  18.705   3.538  13.877
83619W        W48780  40.219  24.285   3.835
83620W        W48781   9.316  29.912   1.719
83621W        W48782  28.444  26.140   3.204
83622W        W48783  41.291   1.199   0.992
83623W        W48784   8.734  42.465  13.603
83624W        W48785  33.915  33.488   1.275
83625W        W48786  40.446  16.164  11.854
83626W        W48787  12.379  42.168  11.506
83627W        W48788  37.806   5.845   4.934
83628W        W48789   1.207  23.599   3.774
83629W        W48790  12.716  31.573  12.502
83630W        W48791  38.937  38.252  10.008
83631W        W48792  18.545   0.892   2.766
83632W        W48793  25.627  34.631  13.970
83633W        W48794  31.506  26.436   4.577
83634W        W48795  44.081  42.497  14.848
83635W        W48796  27.188   3.269   4.132
83636W        W48797  38.804  16.019   1.813
83637W        W48798  16.113   1.646  12.510
83638W        W48799   9.459   9.464   0.403
83639W        W48800   4.774   4.805   0.610
83640W        W48801   9.936  36.198  13.113
83641W        W48802  15.742   6.698   3.878
83642W        W48803  38.057  38.498  12.080
83643W        W48804  25.598   1.253  13.258
83644W        W48805  34.363  12.551  10.847
83645W        W48806   9.595  17.257  12.413
83646W        W48807  41.285   2.289  13.597
83647W        W48808  44.405  44.820   2.896
83648W        W48809  38.361   9.242   0.803
83649W        W48810  31.419   3.472  14.402
83650W        W48811  38.784  32.058  13.023
83651W        W48812  38.082  14.773   3.740
83652W        W48813  36.394   3.006   0.817
83653W        W48814  12.045  13.217  14.507
83654W        W48815  28.912  42.223   1.726
83655W        W48816   0.292  22.653  11.044
83656W        W48817  19.734  16.038  12.514
83657W        W48818  32.916   1.454  14.340
83658W        W48819   4.985  24.680  14.165
83659W        W48820   0.220   9.658  12.840
83660W        W48821  43.086  32.586   1.458
83661W        W48822  23.416  10.328   0.006
83662W        W48823  17.133  25.993   2.849
83663W        W48824  21.654  41.229  11.557
83664W        W48825   9.696  11.117   0.329
83665W        W48826  16.944  13.279  12.494
83666W        W48827  32.026  17.779  10.556
83667W        W48828  37.854  19.535  11.149
83668W        W48829  28.314   3.420   1.712
83669W        W48830  10.131  32.398  13.081
83670W        W48831  15.596  23.083  11.110
83671W        W48832  33.100  28.477   4.790
83672W        W48833  24.490  29.795   3.093
83673W        W48834  30.220  10.152   0.817
83674W        W48835  11.810  23.443  12.097
83675W        W48836  35.462  40.881   2.670
83676W        W48837  27.703  35.036  12.485
83677W        W48838   2.457  39.860   2.745
83678W        W48839  35.469  13.889  14.372
83679W        W48840  21.828  18.291  10.711
83680W        W48841  36.312  17.902   2.408
83681W        W48842  17.155  39.168  12.643
83682W        W48843  17.533  14.114   3.661
83683W        W48844  30.557  10.257   1.196
83684W        W48845  13.278  33.923  11.665
83685W        W48846  28.060  27.120   4.488
83686W        W48847  38.902  40.856  11.458
83687W        W48848  17.797  35.568   2.333
83688W        W48849  21.468  44.663  14.439
83689W        W48850  29.273  28.954   2.940
83690W        W48851  16.075  11.936   1.230
83691W        W48852   5.404  18.672   1.177
83692W        W48853   2.829  22.843   3.357
83693W        W48854  19.806  24.609   1.846
83694W        W48855  34.942  19.216   0.245
83695W        W48856  37.408  32.915  13.890
83696W        W48857  12.052  16.613  13.106
83697W        W48858   7.847   4.433   3.340
83698W        W48859  24.372   8.102  11.595
83699W        W48860  12.630   8.586  11.568
83700W        W48861  22.722  24.760   3.822
83701W        W48862  22.772  44.387   4.609
83702W        W48863  20.090  42.411   0.285
83703W        W48864  11.107  37.007  14.868
83704W        W48865  24.811  16.160   3.703
83705W        W48866  26.078  34.152  11.988
83706W        W48867  43.285  38.804  12.949
83707W        W48868   3.419  31.885   1.337
83708W        W48869  11.620  42.733   4.104
83709W        W48870   7.965  43.798  10.880
83710W        W48871  38.384  27.038  10.636
83711W        W48872  15.187   1.899  13.448
83712W        W48873   4.084  24.308  12.973
83713W        W48874  12.117  17.291  14.211
83714W        W48875   7.184  17.372  13.570
83715W        W48876  11.406  24.159   2.602
83716W        W48877   0.549  39.717   1.794
83717W        W48878   3.994  30.487  10.322
83718W        W48879  31.007  24.671  12.065
83719W        W48880   3.926  18.191   1.546
83720W        W48881  36.403  21.487   2.279
83721W        W48882   3.379  30.150   3.211
83722W        W48883  25.852  10.316  13.299
83723W        W48884   6.174   5.169  11.300
83724W        W48885  26.600  33.653  13.143
83725W        W48886   7.899   7.908  13.886
83726W        W48887  14.913  18.036   3.441
83727W        W48888  43.534  14.749  14.861
83728W        W48889   5.756  23.747   0.047
83729W        W48890  29.463  38.160   1.203
83730W        W48891  26.174  19.551  11.691
83731W        W48892  34.619  27.957  14.412
83732W        W48893   8.304  13.634  14.999
83733W        W48894  12.561   4.694  13.348
83734W        W48895  34.003  16.898  14.803
83735W        W48896  16.737  37.878  13.458
83736W        W48897  10.756  14.331  14.330
83737W        W48898  12.807  39.936  10.698
83738W        W48899  36.248   8.240   2.697
83739W        W48900  11.407  12.538   1.827
83740W        W48901   7.217  38.542   4.764
83741W        W48902  32.238   2.665  11.670
83742W        W48903  20.235  32.713  14.378
83743W        W48904  39.111  29.651  12.960
83744W        W48905  29.104  23.919   1.299
83745W        W48906  30.977   3.691  11.188
83746W        W48907  23.057   5.629  11.567
83747W        W48908   8.410  42.234  11.126
83748W        W48909  30.929  36.095  12.914
83749W        W48910  43.921  24.624   1.390
83750W        W48911   4.534   0.506  14.602
83751W        W48912  27.917  27.606  13.161
83752W        W48913   7.949   8.812  10.560
83753W        W48914  37.162  19.622   9.763
83754W        W48915  20.253  43.509   2.801
83755W        W48916  36.548  41.396   0.063
83756W        W48917   3.845   2.272   3.658
83757W        W48918   6.184  13.855  11.588
83758W        W48919  25.871  44.833   4.741
83759W        W48920   3.510  27.349   0.443
83760W        W48921   5.571  28.369  12.891
83761W        W48922  25.668  30.595  12.962
83762W        W48923  26.187  17.842  10.460
83763W        W48924  12.607  32.015   2.715
83764W        W48925  29.120  23.748  13.563
83765W        W48926  30.913   2.877  12.344
83766W        W48927  43.971  34.818  10.192
83767W        W48928  11.626   5.159   0.543
83768W        W48929  26.943  41.536   4.432
83769W        W48930  38.975  26.551  10.208
83770W        W48931  20.826   1.883  14.708
83771W        W48932  16.539  35.728   2.657
83772W        W48933  21.451   7.856   3.887
83773W        W48934  27.152  22.222  13.448
83774W        W48935   1.007  33.381   4.544
83775W        W48936  34.934   1.700   4.553
83776W        W48937  44.071  26.092   2.944
83777W        W48938   4.226  13.124   1.634
83778W        W48939  14.587  40.544   1.099
83779W        W48940  43.995  11.502  12.477
83780W        W48941   3.258  15.626  14.117
83781W        W48942  18.488  14.202  13.074
83782W        W48943  13.851   9.619  14.526
83783W        W48944  30.692  36.363   0.807
83784W        W48945   7.705  28.640   4.230
83785W        W48946  24.938  44.242   0.146
83786W        W48947   1.266  19.846   4.174
83787W        W48948  19.049  33.374  11.033
83788W        W48949  40.563   5.947  13.053
83789W        W48950   2.425  33.511  12.957
83790W        W48951  11.392  36.464   4.546
83791W        W48952   6.419  35.206   1.238
83792W        W48953  42.816  35.123  14.410
83793W        W48954  20.523   1.356  11.245
83794W        W48955  21.339  24.150  14.268
83795W        W48956   9.461  29.509  11.003
83796W        W48957  41.745  41.868  14.263
83797W        W48958  30.998  25.419   5.172
83798W        W48959   6.744  44.695   3.103
83799W        W48960  13.820  15.616  10.728
83800W        W48961  13.520  35.037   1.468
83801W        W48962  32.449  35.507   0.797
83802W        W48963   2.761   7.598  11.251
83803W        W48964  38.571  36.639   4.470
83804W        W48965   6.206  15.402   3.863
83805W        W48966  10.197  40.324   0.712
83806W        W48967   3.274  29.578  13.315
83807W        W48968  16.035  22.244   3.806
83808W        W48969   3.162  15.453   2.334
83809W        W48970  31.873  41.402   2.351
83810W        W48971  27.366  11.686   1.472
83811W        W48972  28.098  27.487   2.159
83812W        W48973  39.577  41.804   1.884
83813W        W48974  20.856  22.238  12.478
83814W        W48975  14.225  27.497   1.401
83815W        W48976  34.175  34.265   1.842
83816W        W48977  44.947  24.975   0.856
83817W        W48978  18.334  23.515  14.342
83818W        W48979  37.379  41.166  11.610
83819W        W48980  37.584  23.061   4.818
83820W        W48981  44.867  29.145  11.538
83821W        W48982   8.552  12.346   0.700
83822W        W48983  34.350  12.692  12.182
83823W        W48984   7.749  27.169  14.395
83824W        W48985  43.362  42.544  11.643
83825W        W48986  40.828  14.168  14.598
83826W        W48987  39.278   1.603   1.973
83827W        W48988  29.108  31.656  13.368
83828W        W48989  34.369   8.249  14.222
83829W        W48990  18.659  26.721   4.440
83830W        W48991  24.306  31.485  14.454
83831W        W48992  35.581  44.346  11.592
83832W        W48993  41.091  22.047   1.945
83833W        W48994  28.984  32.373   3.150
83834W        W48995  34.570  37.745   2.268
83835W        W48996   4.357  19.068  12.851
83836W        W48997  15.079  39.746   1.861
83837W        W48998  43.093   6.892  12.911
83838W        W48999  35.525  25.027   0.432
83839W        W49000  43.042  19.561   0.802
83840W        W49001  11.430  22.999  13.263
83841W        W49002  19.214  21.174   3.137
83842W        W49003  24.998   8.594  10.779
83843W        W49004  34.064  41.991   1.855
83844W        W49005   2.041  12.808   4.011
83845W        W49006   2.301  24.856  11.600
83846W        W49007  30.248  28.194  12.140
83847W        W49008  40.164  16.800  12.068
83848W        W49009  29.010   6.679  14.102
83849W        W49010  13.821  20.071  13.441
83850W        W49011  15.542  27.879  14.961
83851W        W49012   5.592  16.138   2.430
83852W        W49013  39.681  21.491   0.016
83853W        W49014  10.851  13.683  13.449
83854W        W49015   3.013  35.282   2.780
83855W        W49016  21.430  31.593  12.624
83856W        W49017   2.362  33.220   2.377
83857W        W49018  40.514  36.037  13.816
83858W        W49019  23.600  37.536   2.353
83859W        W49020  27.198  29.554   3.808
83860W        W49021   8.365  15.126  13.504
83861W        W49022  12.420  25.444   2.387
83862W        W49023  37.763   8.170  13.931
83863W        W49024   3.943  39.338  14.053
83864W        W49025   9.824  35.707  12.875
83865W        W49026  42.485  28.924   2.349
83866W        W49027  14.141  15.616   1.315
83867W        W49028   5.437  14.363  14.864
83868W        W49029  17.738  19.942   3.345
83869W        W49030  27.523   8.747  13.454
83870W        W49031  37.624   7.015   0.244
83871W        W49032  37.257  20.108  11.301
83872W        W49033  16.998  18.778   0.837
83873W        W49034  16.276  30.889  11.445
83874W        W49035  37.907   7.976  13.429
83875W        W49036   6.424  30.545   1.562
83876W        W49037  11.411   8.737   5.087
83877W        W49038  33.555  42.769   0.493
83878W        W49039   7.329   5.133  10.908
83879W        W49040  44.513  16.016   1.317
83880W        W49041   3.310  43.744   3.243
83881W        W49042  25.627  24.521   1.131
83882W        W49043  21.232  28.431   0.430
83883W        W49044  35.377   4.709   0.046
83884W        W49045   0.199   9.514  13.399
83885W        W49046  36.907  12.420   0.420
83886W        W49047  12.407  29.699  12.504
83887W        W49048  29.414  32.100  14.496
83888W        W49049  43.270  11.679  12.186
83889W        W49050  38.454  11.164   1.130
83890W        W49051  41.678  28.537   2.436
83891W        W49052  38.334  23.178  13.983
83892W        W49053   0.213  28.241   2.663
83893W        W49054  26.915  30.427  14.407
83894W        W49055  15.094  38.752  12.852
83895W        W49056  13.351   6.791   3.813
83896W        W49057   4.899  19.640   1.455
83897W        W49058   2.852  29.737  10.351
83898W        W49059  44.527  21.223   3.109
83899W        W49060  32.905   8.249   4.572
83900W        W49061   7.325   2.275  12.442
83901W        W49062   3.902  27.320  12.036
83902W        W49063  22.382  26.433  12.441
83903W        W49064  10.811  40.512  12.956
83904W        W49065  32.905  19.137  13.627
83905W        W49066  19.736  21.685  14.923
83906W        W49067  39.603  11.211  10.746
83907W        W49068  43.460  28.067  11.173
83908W        W49069  21.086  19.720   4.164
83909W        W49070  33.620  40.790   3.192
83910W        W49071  26.590  22.706   0.254
83911W        W49072  26.027   5.339  12.748
83912W        W49073  25.609  36.370   0.822
83913W        W49074  22.973   2.787   1.898
83914W        W49075  41.347  11.237  13.986
83915W        W49076  34.918   9.742  14.948
83916W        W49077  35.176   2.039  10.316
83917W        W49078  27.274  20.668  13.101
83918W        W49079  15.833   8.834  13.201
83919W        W49080  19.480   0.472   3.694
83920W        W49081  25.414  34.749  14.434
83921W        W49082  39.390  28.108  12.995
83922W        W49083  13.299  29.786   1.300
83923W        W49084  33.334  11.211  12.807
83924W        W49085  21.852  37.626   0.335
83925W        W49086  31.959  34.226   3.321
83926W        W49087   2.076  12.533  13.335
83927W        W49088   8.423  36.364  14.290
83928W        W49089  35.087  22.522   1.835
83929W        W49090  32.142  36.033  12.434
83930W        W49091  44.975  31.400   4.301
83931W        W49092   0.504  10.706  10.639
83932W        W49093  28.469  44.007   1.734
83933W        W49094  43.866  10.610  10.362
83934W        W49095  10.654  20.961   2.408
83935W        W49096  22.381   7.694   4.777
83936W        W49097  43.804  41.827  14.300
83937W        W49098   2.136  18.614  13.521
83938W        W49099  19.016  21.165  12.016
83939W        W49100   9.418   7.465   4.693
83940W        W49101  25.130  13.166  12.504
83941W        W49102  12.201  25.691   2.796
83942W        W49103  44.362  35.642  13.299
83943W        W49104  10.203  21.742   1.909
83944W        W49105  36.566  12.413  12.979
83945W        W49106  15.555  24.015  11.352
83946W        W49107  40.904  19.148   0.615
83947W        W49108  13.790  30.625  11.084
83948W        W49109  14.794  22.219   2.336
83949W        W49110  33.560   8.569  12.697
83950W        W49111  28.504   1.651   3.464
83951W        W49112  37.146  27.031   1.352
83952W        W49113  30.324  26.036  13.407
83953W        W49114  32.992  11.289   4.646
83954W        W49115  18.527  44.251  14.740
83955W        W49116   3.963  34.113  12.603
83956W        W49117  16.086  28.504  11.328
83957W        W49118  13.372  42.329  14.290
83958W        W49119  28.151  19.116   1.770
83959W        W49120  31.643   3.823   0.216
83960W        W49121   7.912  20.955   2.147
83961W        W49122  23.526  18.274  10.681
83962W        W49123  42.725  37.067   0.373
83963W        W49124  30.269  35.533   1.491
83964W        W49125  27.516  37.722   4.832
83965W        W49126  43.413  17.699   2.638
83966W        W49127  34.094  39.619  14.799
83967W        W49128  27.848  38.924   3.015
83968W        W49129  26.004  10.291   2.336
83969W        W49130  15.036  10.098   2.295
83970W        W49131  15.586  41.513  11.806
83971W        W49132  33.406   1.361  12.962
83972W        W49133  36.583   4.829  11.177
83973W        W49134  42.872  20.111   0.067
83974W        W49135  36.469  35.420   0.204
83975W        W49136   4.553   2.891   2.385
83976W        W49137   9.672  36.124   2.226
83977W        W49138  28.766  14.919  11.116
83978W        W49139  30.627  30.013   1.501
83979W        W49140  32.486  31.033   4.663
83980W        W49141  28.580  34.084  11.178
83981W        W49142  36.437  38.543   0.001
83982W        W49143  20.217  12.459  10.577
83983W        W49144  28.980  36.742  11.464
83984W        W49145  18.543   7.366   0.949
83985W        W49146  29.755  20.534   3.526
83986W        W49147  33.830   5.459   4.266
83987W        W49148   9.915  38.867  11.023
83988W        W49149  13.620  30.594  14.031
83989W        W49150  26.473   9.189  10.039
83990W        W49151  40.184  18.141   0.331
83991W        W49152  18.192  34.782   1.169
83992W        W49153  40.230  31.467  10.712
83993W        W49154  13.753  18.796  11.095
83994W        W49155  26.072  42.048   3.686
83995W        W49156  23.974  34.720  11.137
83996W        W49157  19.079  16.113   3.615
83997W        W49158  27.464  19.622  12.334
83998W        W49159  42.551  39.961   4.604
83999W        W49160  34.828  11.766   4.555
84000W        W49161  37.564  29.661  13.064
84001W        W49162  43.502   1.319   2.170
84002W        W49163   4.498   7.350   3.264
84003W        W49164  39.314  37.655  11.658
84004W        W49165   1.312  10.438   0.914
84005W        W49166  26.895  41.632   0.809
84006W        W49167   8.257  19.855   4.185
84007W        W49168  40.450  27.125  10.740
84008W        W49169  35.144  30.727  13.512
84009W        W49170  26.114  13.700  14.685
84010W        W49171   4.489  33.493   4.809
84011W        W49172  14.606  32.948   2.928
84012W        W49173  43.273  35.221  13.040
84013W        W49174  24.791  32.485   2.362
84014W        W49175  26.156  11.280   0.712
84015W        W49176  14.606  43.418  12.080
84016W        W49177  20.202  18.742  14.428
84017W        W49178   3.420  40.395   0.846
84018W        W49179  43.777  22.071  11.573
84019W        W49180  42.528   0.705  14.181
84020W        W49181  31.174  41.278   3.681
84021W        W49182  14.247  14.832  13.853
84022W        W49183  17.027  16.123   1.280
84023W        W49184  28.435  35.952   1.755
84024W        W49185  38.399  10.675  11.461
84025W        W49186  33.053  22.146  10.491
84026W        W49187  17.112  40.794  10.555
84027W        W49188  23.557   0.580  11.559
84028W        W49189   6.308   7.693   0.510
84029W        W49190  17.669  12.425   0.667
84030W        W49191  44.015   1.611   2.091
84031W        W49192   6.218  17.526   2.837
84032W        W49193  23.753   3.918   2.249
84033W        W49194  27.166  33.077   4.627
84034W        W49195  24.963  11.872  13.609
84035W        W49196   3.989   8.085   3.596
84036W        W49197  21.183   8.831   2.384
84037W        W49198  20.285  18.551   0.950
84038W        W49199  42.825  17.773  12.668
84039W        W49200  19.918   9.204  10.652
84040W        W49201  13.447  16.666   1.753
84041W        W49202   0.894  15.050  12.086
84042W        W49203  13.598  34.407   3.677
84043W        W49204   7.997   1.499  12.646
84044W        W49205  14.193   8.376  13.926
84045W        W49206  11.363  12.706   4.344
84046W        W49207  36.151  33.958   0.822
84047W        W49208  42.022  43.346  12.074
84048W        W49209  24.472  16.774  13.349
84049W        W49210  28.434   7.817  13.889
84050W        W49211  16.953   9.412   2.705
84051W        W49212  41.748   1.421   4.209
84052W        W49213  34.880   8.192  12.386
84053W        W49214  16.095   0.770  11.615
84054W        W49215   1.355  16.891  11.086
84055W        W49216  38.115  29.080   3.726
84056W        W49217  14.672  22.155  11.214
84057W        W49218  20.071   3.189  12.892
84058W        W49219  39.993  14.506   3.132
84059W        W49220  13.651   3.142  14.294
84060W        W49221  15.172   5.589  11.087
84061W        W49222  17.595  38.036  11.518
84062W        W49223  29.746  25.085   1.817
84063W        W49224  30.189   4.391  12.869
84064W        W49225   4.309  13.364   3.230
84065W        W49226  22.881  40.740   0.602
84066W        W49227  44.711  14.758   0.782
84067W        W49228  19.781  31.988   0.783
84068W        W49229  28.236  14.507   3.307
84069W        W49230  30.540  20.180   0.296
84070W        W49231  15.609  26.428  11.083
84071W        W49232  33.681  43.084   4.115
84072W        W49233  30.031  11.769   1.359
84073W        W49234  31.180  44.896  13.480
84074W        W49235  34.101  28.926  11.520
84075W        W49236  11.349  22.614  10.591
84076W        W49237   9.467  27.593   0.044
84077W        W49238  34.156  22.946  12.146
84078W        W49239  36.154   0.327  12.045
84079W        W49240   8.852   1.364   4.507
84080W        W49241  37.787  18.817   3.656
84081W        W49242   8.626   0.448  12.158
84082W        W49243  28.607  28.232  11.564
84083W        W49244   2.206   4.265  13.600
84084W        W49245  29.052  38.820   3.533
84085W        W49246  37.800  14.618   2.822
84086W        W49247  38.531   0.270  11.130
84087W        W49248   5.175  30.168  11.987
84088W        W49249  36.275  11.594  12.494
84089W        W49250   6.843   5.268   3.641
84090W        W49251   4.510   3.889   4.258
84091W        W49252   1.396  15.407  10.107
84092W        W49253  42.850  24.321  12.391
84093W        W49254  39.409  20.068   2.655
84094W        W49255  25.755   2.233  14.557
84095W        W49256   2.990  23.269  11.737
84096W        W49257  16.765  16.907  14.636
84097W        W49258   1.788  43.808  14.904
84098W        W49259  18.709   4.860  10.753
84099W        W49260  44.920  14.347   0.515
84100W        W49261  39.555   6.237  12.018
84101W        W49262  22.031  25.019   1.288
84102W        W49263  41.395  17.089  11.417
84103W        W49264  44.908   0.318   4.615
84104W        W49265   8.883  33.909  10.617
84105W        W49266  32.084  10.697   3.373
84106W        W49267  36.594  36.426  12.504
84107W        W49268  28.163   8.842  10.414
84108W        W49269   9.639  32.448  14.776
84109W        W49270  12.575  27.669  10.782
84110W        W49271  16.135  43.935   1.858
84111W        W49272  31.469  28.086   3.068
84112W        W49273   3.896  14.035  13.865
84113W        W49274  10.290  19.816   0.695
84114W        W49275  25.449  27.901   4.755
84115W        W49276  18.198  19.165  11.202
84116W        W49277   0.277  35.620   0.266
84117W        W49278  13.997  35.765  11.993
84118W        W49279  38.490  16.248  12.295
84119W        W49280  16.337  31.632  14.651
84120W        W49281   5.926  24.625   0.930
84121W        W49282  17.313  27.091  10.875
84122W        W49283  43.796  36.652   0.311
84123W        W49284  25.047  40.285   3.184
84124W        W49285  11.700  35.995   4.894
84125W        W49286   1.505   0.496   1.782
84126W        W49287  17.745  27.558   1.217
84127W        W49288  23.226  22.695  13.528
84128W        W49289  26.904  43.377  12.495
84129W        W49290  23.521   3.601   2.688
84130W        W49291  33.074   9.352   2.669
84131W        W49292  34.905  36.787   3.705
84132W        W49293  25.768  44.215   1.712
84133W        W49294  40.414  35.373  12.966
84134W        W49295  19.595  14.749  11.584
84135W        W49296  17.160   9.343  12.941
84136W        W49297  26.183  23.729  12.969
84137W        W49298  44.004  25.696  11.158
84138W        W49299   4.023  41.942   0.089
84139W        W49300  35.177  18.756   0.219
84140W        W49301  24.549  13.566   3.735
84141W        W49302  15.260  37.102  12.399
84142W        W49303  41.646  34.488  10.312
84143W        W49304   4.477   3.485   2.259
84144W        W49305  38.987  19.100  12.823
84145W        W49306   7.678  16.732   4.570
84146W        W49307  30.782  43.603  14.931
84147W        W49308  43.284   5.249   0.021
84148W        W49309  41.884  12.275   3.882
84149W        W49310  32.491  19.167  13.288
84150W        W49311  34.153  30.229  14.408
84151W        W49312  31.879  34.909  12.421
84152W        W49313   2.541   1.756  10.602
84153W        W49314  40.206  36.050   1.678
84154W        W49315  41.166  43.167   1.304
84155W        W49316  26.970  34.486  14.773
84156W        W49317  43.893  38.125   4.014
84157W        W49318  15.844   1.303   0.342
84158W        W49319  23.026  44.766  10.549
84159W        W49320  36.774  18.887   4.985
84160W        W49321  36.833  41.100   4.226
84161W        W49322   4.408  14.281  11.179
84162W        W49323  11.631   7.324   4.353
84163W        W49324  22.135  30.139   3.561
84164W        W49325  14.228  36.679   3.788
84165W        W49326  41.348  37.352   4.061
84166W        W49327  18.151   7.449   2.166
84167W        W49328  34.463  42.556  11.100
84168W        W49329  19.410  12.199  11.556
84169W        W49330   2.240  32.956   0.256
84170W        W49331   4.844  40.014   2.359
84171W        W49332   4.606  12.569  10.337
84172W        W49333  25.812  23.504  13.313
84173W        W49334   6.698  15.793   3.247
84174W        W49335  10.248   4.406   1.081
84175W        W49336  35.958  37.906  11.793
84176W        W49337  36.594  44.885  12.456
84177W        W49338  38.899  39.346   1.651
84178W        W49339  39.977   9.839  14.308
84179W        W49340   1.144  32.958  12.008
84180W        W49341  10.604  35.421  10.598
84181W        W49342  25.178   1.053   2.214
84182W        W49343   6.346   1.502   0.400
84183W        W49344  40.585  37.928   0.731
84184W        W49345  25.650  15.887   1.276
84185W        W49346  14.203   3.841   3.057
84186W        W49347  15.726  43.371   9.841
84187W        W49348  31.978  21.648  12.747
84188W        W49349   5.747  41.040   1.882
84189W        W49350   4.933  11.089   2.186
84190W        W49351  42.821   9.240   1.134
84191W        W49352  41.273  34.531   4.613
84192W        W49353  29.780  17.661   3.156
84193W        W49354  28.987  35.854  10.928
84194W        W49355  33.051   9.771   1.405
84195W        W49356  11.386  11.352   1.280
84196W        W49357  30.703  13.848   3.618
84197W        W49358   0.530  41.592   4.115
84198W        W49359  34.334   3.845   3.169
84199W        W49360  40.831  16.028  11.530
84200W        W49361  26.583   9.226  14.831
84201W        W49362  26.699  11.764  11.567
84202W        W49363  38.614   2.718   0.865
84203W        W49364  31.035  10.411   0.290
84204W        W49365   4.515   2.882   9.923
84205W        W49366   4.832  37.268   4.345
84206W        W49367  37.689  33.186   4.590
84207W        W49368  27.659  23.304  11.549
84208W        W49369  17.966  22.110   0.057
84209W        W49370   6.993  15.198   1.157
84210W        W49371  22.949  10.199  14.006
84211W        W49372  37.539   4.597   4.577
84212W        W49373   1.862   6.845  11.946
84213W        W49374  31.966  38.105   0.281
84214W        W49375   9.938  14.253  14.290
84215W        W49376  27.117  25.276   1.047
84216W        W49377   9.676  25.608  12.601
84217W        W49378  21.616   4.745  13.802
84218W        W49379  19.741  32.206   1.267
84219W        W49380  38.674  32.413   3.603
84220W        W49381  25.846  14.910   3.242
84221W        W49382  31.082  28.671  13.621
84222W        W49383  29.134  32.759  12.991
84223W        W49384  23.550  44.310   2.893
84224W        W49385  30.537  12.311   3.195
84225W        W49386  34.578  40.359   4.838
84226W        W49387  42.350  21.741   3.682
84227W        W49388  21.178  17.192   1.122
84228W        W49389  24.533   3.572   1.951
84229W        W49390   8.903  22.252  12.616
84230W        W49391  43.865  41.328   2.336
84231W        W49392  40.910  15.601   1.508
84232W        W49393   9.838  27.587  13.826
84233W        W49394  14.787   3.540  14.908
84234W        W49395  10.728  41.279   2.011
84235W        W49396   8.203  33.546   3.386
84236W        W49397  41.310  15.287  12.009
84237W        W49398   6.128   9.116  14.415
84238W        W49399  15.259  40.248  12.888
84239W        W49400   4.095   2.391  14.546
84240W        W49401  25.549  20.606   3.120
84241W        W49402  25.229  11.220  13.528
84242W        W49403  30.222  18.238   3.705
84243W        W49404  29.617  39.975   2.808
84244W        W49405   5.655  22.035  13.459
84245W        W49406  29.017  19.177   3.279
84246W        W49407  16.547   0.967   3.897
84247W        W49408  14.644  41.111  14.939
84248W        W49409   3.995   7.948   3.066
84249W        W49410  40.685  25.743  12.950
84250W        W49411  20.610   3.695  12.683
84251W        W49412  37.556  14.919  12.550
84252W        W49413   2.515  15.533  14.329
84253W        W49414  43.762  18.218   2.553
84254W        W49415  41.603  27.396   0.838
84255W        W49416   0.434   9.715   1.726
84256W        W49417   5.045  12.296   1.315
84257W        W49418  20.489  17.545   2.205
84258W        W49419  28.023  30.337   3.309
84259W        W49420  23.063  16.114   0.991
84260W        W49421  27.903  15.264   0.856
84261W        W49422  39.293  25.529  11.684
84262W        W49423  17.863   0.924  13.634
84263W        W49424  18.118   8.243  11.453
84264W        W49425  40.772   0.997   2.361
84265W        W49426  40.960  31.544  13.314
84266W        W49427  36.474  25.027  13.116
84267W        W49428  21.494   3.170   4.965
84268W        W49429  27.228  37.056   1.200
84269W        W49430  24.093  26.115  14.491
84270W        W49431  41.071  42.827   3.356
84271W        W49432  38.097  12.738  12.104
84272W        W49433  22.700  11.225   0.679
84273W        W49434  36.508  43.513  14.336
84274W        W49435  34.580   2.813  10.701
84275W        W49436   2.224  15.829   0.912
84276W        W49437  21.742  31.390   2.330
84277W        W49438  22.843   5.488   1.417
84278W        W49439  29.512  42.523   3.369
84279W        W49440   7.723  11.305  14.231
84280W        W49441   2.448  17.156   4.014
84281W        W49442  20.660  10.090  12.555
84282W        W49443  43.024  19.178   2.719
84283W        W49444  10.703  18.341  14.344
84284W        W49445  44.542  14.247  13.933
84285W        W49446  22.085  33.790  11.621
84286W        W49447  28.612  28.181   3.103
84287W        W49448  35.627  31.536  14.997
84288W        W49449  18.570  43.526  13.408
84289W        W49450  41.984  25.952  14.370
84290W        W49451  21.209  43.432  13.902
84291W        W49452  35.513  13.221  12.552
84292W        W49453  36.403  26.005  14.762
84293W        W49454  28.867  24.755  11.084
84294W        W49455   2.180  19.587   4.551
84295W        W49456  30.664  26.662   3.295
84296W        W49457  24.793  32.872  11.199
84297W        W49458   4.933  12.773  11.298
84298W        W49459  31.492  38.086   2.803
84299W        W49460  27.757  36.641   2.193
84300W        W49461  26.233  16.728  11.940
84301W        W49462  24.398  21.031   2.245
84302W        W49463  12.262  10.418   2.627
84303W        W49464  19.534  39.358  11.331
84304W        W49465  28.310  36.299   3.253
84305W        W49466   3.427  41.463   0.648
84306W        W49467  43.725  31.081   3.398
84307W        W49468  19.131   1.880   4.477
84308W        W49469  11.649  23.738  11.274
84309W        W49470  27.913   1.863   2.755
84310W        W49471  26.811  12.946   2.402
84311W        W49472   2.098  17.271  12.830
84312W        W49473  40.896  34.043   0.941
84313W        W49474  39.275  20.496  14.031
84314W        W49475   3.267  14.632  13.438
84315W        W49476  21.544   5.892   3.653
84316W        W49477  44.891   0.900  13.006
84317W        W49478   7.557  40.511  13.649
84318W        W49479  10.910  32.426  12.356
84319W        W49480   8.707  26.751   0.294
84320W        W49481  23.731  26.099  13.849
84321W        W49482  20.205  35.303   0.879
84322W        W49483  18.270  20.108   4.494
84323W        W49484  22.472  23.321  14.736
84324W        W49485  22.494   9.158   3.691
84325W        W49486  37.333   4.691   2.688
84326W        W49487   4.872  36.857   0.898
84327W        W49488   5.399  39.542   0.210
84328W        W49489  31.653  16.818   3.510
84329W        W49490  25.303  13.090   0.788
84330W        W49491  40.109   5.716   2.294
84331W        W49492  30.139  27.404   2.201
84332W        W49493  33.525   9.115   0.849
84333W        W49494   5.547   6.458  12.538
84334W        W49495  25.763  33.253   3.597
84335W        W49496  42.719  15.838   2.195
84336W        W49497  44.660  29.691  13.244
84337W        W49498   0.909   2.514  12.296
84338W        W49499  39.682  37.546   4.094
84339W        W49500  11.667  19.656  12.341
84340W        W49501   3.472  37.085   1.749
84341W        W49502  28.766   2.005   1.675
84342W        W49503   2.667  15.801  12.069
84343W        W49504   3.288  19.009  13.767
84344W        W49505  27.216   6.176   3.261
84345W        W49506  22.370  31.383   1.042
84346W        W49507   9.608  38.951  10.575
84347W        W49508  21.300  44.386   0.609
84348W        W49509  32.451  12.716   4.430
84349W        W49510  19.796  42.314   1.723
84350W        W49511  32.795  21.373   3.833
84351W        W49512  23.517  34.803   1.987
84352W        W49513   6.871  21.191   4.796
84353W        W49514  19.824  13.061   4.650
84354W        W49515  21.611   6.284   0.796
84355W        W49516  10.200  20.829  13.901
84356W        W49517  23.665  16.665  10.672
84357W        W49518  11.547  15.877   1.689
84358W        W49519  33.461   4.797  14.368
84359W        W49520  16.859  19.954   2.726
84360W        W49521  30.147  15.617  12.116
84361W        W49522  38.290  18.772   3.599
84362W        W49523  25.579  44.699   1.699
84363W        W49524  41.391   5.054   3.605
84364W        W49525   2.017  10.305  10.225
84365W        W49526   1.913  15.598  13.558
84366W        W49527  33.651  38.398   0.268
84367W        W49528  32.874   2.999  14.465
84368W        W49529   2.406  21.582  13.549
84369W        W49530   9.060  20.310  10.641
84370W        W49531  14.583  41.044  11.058
84371W        W49532  13.350  23.465   3.802
84372W        W49533  29.663  22.791  12.058
84373W        W49534  39.391   5.850   1.047
84374W        W49535  27.064  11.731  13.995
84375W        W49536  40.953  20.888   3.766
84376W        W49537   8.856  43.376   2.305
84377W        W49538   1.180  28.584   0.829
84378W        W49539  11.382  22.519   0.640
84379W        W49540  43.897  22.728   0.819
84380W        W49541  40.828   3.863   2.282
84381W        W49542  14.784   3.217  10.648
84382W        W49543  37.999  39.351  11.034
84383W        W49544  39.393  37.417   3.668
84384W        W49545  13.945  13.897  10.340
84385W        W49546  41.899   9.923  11.144
84386W        W49547  40.435  10.103   0.795
84387W        W49548  20.396  37.715   4.618
84388W        W49549  16.702   1.487  10.703
84389W        W49550   2.931   4.350  10.718
84390W        W49551  32.541  30.247  13.914
84391W        W49552  34.086  40.150  11.570
84392W        W49553  27.705  37.060   1.675
84393W        W49554  16.819  44.273  12.051
84394W        W49555  38.567  35.629  10.664
84395W        W49556  12.958  37.871   4.907
84396W        W49557   0.560  29.213   2.841
84397W        W49558  15.129  35.791   0.905
84398W        W49559   0.198   6.920  11.866
84399W        W49560   8.310   5.026  10.407
84400W        W49561  37.635  14.717   4.030
84401W        W49562   3.852   2.296   4.633
84402W        W49563   2.643   8.490  14.046
84403W        W49564   0.689   1.582  13.202
84404W        W49565  27.899  23.951  13.315
84405W        W49566  44.075  25.488  13.426
84406W        W49567  32.607  44.501   2.161
84407W        W49568  21.665  39.445   4.864
84408W        W49569  40.471  32.947  14.295
84409W        W49570  30.644  13.495  13.843
84410W        W49571   1.371  41.566   2.881
84411W        W49572   8.490  29.587   3.873
84412W        W49573  38.329  36.111   4.554
84413W        W49574  33.194   4.772  10.606
84414W        W49575  44.358  18.266   0.776
84415W        W49576   9.270  24.522  11.058
84416W        W49577   7.751  15.641  10.651
84417W        W49578  28.156  12.909   4.963
84418W        W49579  26.569  10.809   2.411
84419W        W49580   9.213  34.253  12.311
84420W        W49581  38.053  10.091  11.114
84421W        W49582   2.590  24.186   4.564
84422W        W49583  41.217  40.758  12.687
84423W        W49584  12.433  10.688   3.829
84424W        W49585   6.709  38.596  13.033
84425W        W49586  26.492  35.402  14.909
84426W        W49587  38.067  21.236   2.232
84427W        W49588  37.391  35.992   4.207
84428W        W49589  20.075  30.452  11.194
84429W        W49590  27.732  40.771  14.881
84430W        W49591   2.846  19.132  10.619
84431W        W49592   8.144  35.527  14.844
84432W        W49593  44.939  25.254   2.630
84433W        W49594  17.052   1.440   3.182
84434W        W49595  43.790  26.618  12.088
84435W        W49596  30.567  38.828  12.596
84436W        W49597  35.146  41.608  11.643
84437W        W49598  26.773   5.271   3.251
84438W        W49599  31.573  23.890  14.528
84439W        W49600  33.605  18.553  11.555
84440W        W49601  20.608  40.776   4.277
84441W        W49602  27.766  36.552  12.079
84442W        W49603   1.016  40.175   0.986
84443W        W49604  23.271  40.699  14.316
84444W        W49605   7.391   2.761   0.744
84445W        W49606  16.057  34.748  12.598
84446W        W49607  18.176  29.491  10.614
84447W        W49608   0.896  27.778  12.066
84448W        W49609   7.811  18.619  11.540
84449W        W49610  22.406  35.991   2.759
84450W        W49611  25.589  12.893  11.161
84451W        W49612   9.819  41.082   0.829
84452W        W49613  25.678   2.685   0.728
84453W        W49614   1.280  38.873   0.272
84454W        W49615  22.691  38.096   1.205
84455W        W49616   1.387  40.415   0.200
84456W        W49617   0.755  21.210   2.114
84457W        W49618  19.581  34.466   3.524
84458W        W49619  44.268  17.474   2.233
84459W        W49620  42.746  16.859  11.617
84460W        W49621   9.773  12.962   2.625
84461W        W49622  42.758  30.971   4.722
84462W        W49623  42.591   8.402  14.387
84463W        W49624   6.476  25.177   2.158
84464W        W49625  37.873  12.395  14.467
84465W        W49626  18.945  15.212   9.757
84466W        W49627  10.795  33.341  13.486
84467W        W49628   1.703  44.343  10.656
84468W        W49629  32.586  32.552   1.810
84469W        W49630  14.558  28.508  11.517
84470W        W49631  31.077   0.519   4.121
84471W        W49632  25.052  21.769   0.920
84472W        W49633  10.679  36.970  12.339
84473W        W49634  19.204  20.334   0.688
84474W        W49635  15.486  32.056   1.540
84475W        W49636  35.572   2.044  11.625
84476W        W49637   6.236  44.452   1.353
84477W        W49638  39.794   2.633   2.235
84478W        W49639   3.433  33.889  14.329
84479W        W49640  12.682   4.268  11.591
84480W        W49641  22.869   7.877   2.424
84481W        W49642   8.315  40.826  11.387
84482W        W49643  15.725  11.834   3.673
84483W        W49644  26.412   0.905  11.049
84484W        W49645   5.419  30.840   3.270
84485W        W49646  18.035  43.484  10.526
84486W        W49647  32.089  32.374   1.755
84487W        W49648  37.995  41.805   4.952
84488W        W49649  39.409  35.377  12.083
84489W        W49650  36.267   7.281  11.900
84490W        W49651   8.866  11.890   4.162
84491W        W49652   8.246  28.372   2.753
84492W        W49653   7.377  32.305  11.240
84493W        W49654  28.012  39.053   0.776
84494W        W49655   4.871   4.528   4.297
84495W        W49656   6.326  18.033   3.766
84496W        W49657  41.823  24.752  10.953
84497W        W49658  36.544  34.511   2.641
84498W        W49659  44.208  36.338   0.378
84499W        W49660   4.549  29.491   1.314
84500W        W49661  15.575  44.279  14.351
84501W        W49662  15.868  20.213   2.638
84502W        W49663  35.710   8.125   4.180
84503W        W49664  11.540  16.387   4.510
84504W        W49665  35.909  27.205   3.186
84505W        W49666   4.263  15.018   1.145
84506W        W49667  29.090  29.991  14.082
84507W        W49668  23.268  40.809  13.806
84508W        W49669   6.310  35.880  11.017
84509W        W49670  12.168  37.434   3.106
84510W        W49671  28.278  36.044  14.859
84511W        W49672  12.062  40.645  11.578
84512W        W49673  12.413  35.498  12.439
84513W        W49674  23.146  19.710   1.865
84514W        W49675  26.430  39.888   0.175
84515W        W49676  18.800  37.314  10.743
84516W        W49677  27.098  33.443   3.769
84517W        W49678  30.221   6.294   1.179
84518W        W49679   5.796  19.180   4.254
84519W        W49680  32.112  34.850  14.800
84520W        W49681  28.271  36.355  11.941
84521W        W49682  26.566   7.248  13.858
84522W        W49683  39.828  36.853  14.023
84523W        W49684   1.341  43.507   0.879
84524W        W49685  32.468  19.799  11.260
84525W        W49686  11.052  30.010  14.515
84526W        W49687  44.641  26.199  13.524
84527W        W49688  30.566   8.692  14.932
84528W        W49689  40.170   4.228   0.882
84529W        W49690  19.189   9.392   1.952
84530W        W49691  34.985  10.886   0.937
84531W        W49692  33.050  11.718  11.753
84532W        W49693  28.498  42.937  11.899
84533W        W49694   2.543  39.551  14.054
84534W        W49695   9.428  11.615  11.584
84535W        W49696  19.625  21.467   4.042
84536W        W49697  16.513  15.514  10.629
84537W        W49698  28.530  39.089   4.124
84538W        W49699  28.043  35.389   4.149
84539W        W49700   4.214  35.896   2.202
84540W        W49701  38.170  28.568   3.743
84541W        W49702  22.915  10.335  14.852
84542W        W49703   8.439   5.730  13.995
84543W        W49704  38.965  41.848   0.031
84544W        W49705   2.974  25.675   1.129
84545W        W49706  21.650   0.290   4.248
84546W        W49707   7.790   5.409   0.093
84547W        W49708  43.347  12.079   1.275
84548W        W49709   9.168   3.680  13.936
84549W        W49710   8.458  12.261   3.639
84550W        W49711  40.888  16.750   2.721
84551W        W49712  13.787  24.652   4.608
84552W        W49713  39.853   0.934  12.839
84553W        W49714  17.361  41.028  13.086
84554W        W49715  12.824   7.909   3.700
84555W        W49716  29.239  11.024   2.470
84556W        W49717   1.523  18.620   3.356
84557W        W49718   4.412   0.562   3.549
84558W        W49719  29.024  39.250   1.699
84559W        W49720  29.078  38.293  11.517
84560W        W49721   9.096  27.689   0.441
84561W        W49722  42.582  26.105  13.364
84562W        W49723  29.143  10.287  14.592
84563W        W49724  29.204  18.679   0.545
84564W        W49725  10.190   4.511  14.848
84565W        W49726  29.541  33.894   9.584
84566W        W49727  13.541  14.546   4.015
84567W        W49728  27.495  30.494   2.472
84568W        W49729  23.121  21.259  13.470
84569W        W49730   3.834  37.945  14.995
84570W        W49731  18.175  23.788   0.655
84571W        W49732  13.887  22.998   4.177
84572W        W49733  14.236   0.546   4.188
84573W        W49734   3.755  33.227   2.689
84574W        W49735  35.372  30.594   3.730
84575W        W49736  30.437  17.552   1.456
84576W        W49737  13.642  12.604   3.213
84577W        W49738  40.483   3.736   0.009
84578W        W49739  32.603   8.889  11.984
84579W        W49740  27.598   1.232  12.458
84580W        W49741  21.984  26.453   3.861
84581W        W49742  28.643  16.137  12.366
84582W        W49743  33.399  16.253  11.170
84583W        W49744  10.714   3.966   4.143
84584W        W49745  20.947   8.162   1.546
84585W        W49746  43.283  42.766   2.743
84586W        W49747  10.862  35.673   4.456
84587W        W49748  43.741  31.372   1.120
84588W        W49749  15.255  28.528   2.419
84589W        W49750  44.297  41.576   0.128
84590W        W49751   7.296  24.979  11.161
84591W        W49752   0.346  24.841  13.096
84592W        W49753  40.547  41.453  11.176
84593W        W49754   7.388  27.442   4.104
84594W        W49755   4.244  38.333   1.650
84595W        W49756  31.948  40.860   2.754
84596W        W49757  41.270  24.019   3.343
84597W        W49758  39.987  22.531  11.691
84598W        W49759  15.750   9.279   0.755
84599W        W49760   6.248  27.528   2.436
84600W        W49761  24.025   7.441   3.153
84601W        W49762  14.705  12.128  11.612
84602W        W49763  44.694  11.816  11.997
84603W        W49764  28.217   6.270  12.928
84604W        W49765   6.985   2.486   0.979
84605W        W49766  32.212  11.531   4.458
84606W        W49767  12.266   3.032  11.159
84607W        W49768  29.671  40.862   4.549
84608W        W49769  42.511   3.829   3.178
84609W        W49770  10.656   2.732  14.971
84610W        W49771  20.322  26.575   1.978
84611W        W49772  23.089   7.498  11.590
84612W        W49773  39.059  35.060  11.286
84613W        W49774  26.933   9.761  12.506
84614W        W49775   0.189  40.571   1.490
84615W        W49776  29.940  34.449  10.656
84616W        W49777  18.116   1.662  11.147
84617W        W49778  12.607  25.973   0.469
84618W        W49779  38.756  35.979  12.185
84619W        W49780   4.204  41.255  14.358
84620W        W49781  22.998  16.105   1.958
84621W        W49782  21.122  39.121   1.934
84622W        W49783  35.000  26.198  10.744
84623W        W49784  17.021  20.148   5.030
84624W        W49785  10.783  38.342  13.773
84625W        W49786  34.479   4.539   2.906
84626W        W49787  34.280  38.093  12.569
84627W        W49788   6.437   5.342  13.761
84628W        W49789  21.683  32.196   0.101
84629W        W49790  20.093  12.199   0.023
84630W        W49791  31.217  42.867  14.853
84631W        W49792   8.276  29.260   5.153
84632W        W49793   6.352  13.196   4.898
84633W        W49794   1.573  34.039   0.171
84634W        W49795  22.673   8.170   0.796
84635W        W49796  19.197  17.659   0.770
84636W        W49797  27.224  34.921  13.775
84637W        W49798  19.970   0.210   0.840
84638W        W49799  42.957   6.487   0.419
84639W        W49800  38.688  15.341   4.143
84640W        W49801   6.636  22.305  11.041
84641W        W49802  39.780  26.725  14.803
84642W        W49803  10.944  30.919   4.402
84643W        W49804  18.306   3.042   1.377
84644W        W49805  11.364  32.649   4.670
84645W        W49806   3.397   8.659   2.199
84646W        W49807  20.556  27.995   3.263
84647W        W49808  22.077  39.493   0.868
84648W        W49809  21.169  24.218  11.167
84649W        W49810  41.736  16.098  11.982
84650W        W49811  13.491  41.701  14.509
84651W        W49812   9.695  42.995  11.652
84652W        W49813  19.549   4.817   2.511
84653W        W49814   2.254  21.823   1.274
84654W        W49815  12.403  30.018   4.031
84655W        W49816  18.257  41.899   3.871
84656W        W49817  26.347  23.055  11.750
84657W        W49818  16.361  21.509   1.282
84658W        W49819  43.999   3.713   1.118
84659W        W49820  36.903  28.872  11.159
84660W        W49821  33.035  21.698  12.326
84661W        W49822  12.135  13.966  14.039
84662W        W49823  36.164  28.545   4.547
84663W        W49824   7.761   7.282   4.446
84664W        W49825  25.121  18.714  14.773
84665W        W49826  44.171  20.352  12.108
84666W        W49827  40.588  42.573   2.259
84667W        W49828  36.944  29.110   0.693
84668W        W49829  35.805  21.638   1.363
84669W        W49830  16.179   9.349   0.061
84670W        W49831  40.745  26.306  12.528
84671W        W49832   6.370  14.819   3.002
84672W        W49833  29.867  26.880   2.386
84673W        W49834  18.309  20.593  10.929
84674W        W49835  43.146  11.554  11.533
84675W        W49836   6.375  44.755   0.932
84676W        W49837  27.537  34.942   3.251
84677W        W49838   5.723  27.826   5.539
84678W        W49839  26.417   7.121  12.055
84679W        W49840  28.620  43.713  12.356
84680W        W49841  11.389   3.875  11.566
84681W        W49842  26.422   6.392   1.797
84682W        W49843  37.582  27.676   1.784
84683W        W49844  11.228  32.212  11.925
84684W        W49845  13.084  23.000   3.731
84685W        W49846  35.437  23.077   2.898
84686W        W49847  22.440  44.032  13.080
84687W        W49848  17.707  33.478   1.926
84688W        W49849  12.821  21.687  12.454
84689W        W49850  11.822  19.782   5.297
84690W        W49851  37.454  36.487   1.191
84691W        W49852  33.549  40.512  14.482
84692W        W49853  27.330   1.346  13.360
84693W        W49854  41.291   1.842   3.931
84694W        W49855   2.481   7.859  12.995
84695W        W49856  12.571  10.004   0.398
84696W        W49857   2.920  40.974   2.732
84697W        W49858  24.797  13.147   0.810
84698W        W49859  21.629  18.029  11.094
84699W        W49860  31.634  25.941  13.416
84700W        W49861  25.561  19.579  10.561
84701W        W49862  41.124  37.213   2.639
84702W        W49863   8.239  11.128   1.817
84703W        W49864  27.674   1.426  14.740
84704W        W49865  12.658  13.346   4.242
84705W        W49866  42.403  34.625   1.267
84706W        W49867  24.664  19.825   1.798
84707W        W49868   3.223  37.467  11.922
84708W        W49869   1.428  38.450  14.899
84709W        W49870  42.856  28.076  13.544
84710W        W49871   1.170  35.849   0.350
84711W        W49872   2.430  22.533   3.291
84712W        W49873  27.164  38.796   0.365
84713W        W49874  27.986   8.606   4.266
84714W        W49875  43.850  24.736  10.823
84715W        W49876  27.558   9.604   3.823
84716W        W49877  23.547  10.372  10.668
84717W        W49878  18.417  29.482   3.236
84718W        W49879  43.961   4.862   4.024
84719W        W49880  42.982  22.881   2.705
84720W        W49881   6.528  17.477   4.867
84721W        W49882  32.642   5.956  13.453
84722W        W49883  42.548  30.448  11.157
84723W        W49884   4.899   3.211  12.116
84724W        W49885  32.112  39.903   1.375
84725W        W49886  15.598  32.575  13.458
84726W        W49887   0.461  24.703  14.887
84727W        W49888  26.942  29.007  12.892
84728W        W49889  43.551  16.247  12.502
84729W        W49890  13.253   5.060   0.729
84730W        W49891   3.283  42.523   0.295
84731W        W49892   0.648  41.375  10.195
84732W        W49893  39.250   6.009   2.718
84733W        W49894   8.647  30.604   2.727
84734W        W49895   0.059   0.511   0.959
84735W        W49896  13.533   3.811   0.434
84736W        W49897  29.221  21.334  13.808
84737W        W49898  39.032  25.220   3.697
84738W        W49899  11.045  40.868   2.684
84739W        W49900   1.252   9.775  14.835
84740W        W49901  19.398  16.469  13.547
84741W        W49902  12.445   4.501  13.852
84742W        W49903   9.443  18.685  13.872
84743W        W49904  23.154  35.767   0.343
84744W        W49905  18.359  32.017  10.722
84745W        W49906  25.970   5.774   1.856
84746W        W49907   2.539  34.909   2.260
84747W        W49908  33.486  40.160  11.174
84748W        W49909  17.250  44.209  14.943
84749W        W49910  19.389  30.770   4.243
84750W        W49911  22.182   9.719  13.924
84751W        W49912   3.507  37.187  12.327
84752W        W49913  10.140  16.266  12.046
84753W        W49914  43.481  25.445  12.077
84754W        W49915  40.745  25.615   3.689
84755W        W49916  15.581   7.224  14.740
84756W        W49917  38.075  29.669   2.651
84757W        W49918  10.274  12.342   3.894
84758W        W49919   6.155  25.694  13.029
84759W        W49920  41.432  14.232   5.074
84760W        W49921  17.216  10.768   0.826
84761W        W49922  28.214  18.190   3.621
84762W        W49923  31.965  38.960  13.219
84763W        W49924   8.214   3.654   0.213
84764W        W49925  24.331  44.324   4.388
84765W        W49926  31.569   9.867   3.222
84766W        W49927  10.397   0.995  11.594
84767W        W49928   9.614   1.742   2.709
84768W        W49929   6.127  11.733   5.018
84769W        W49930  35.328   0.672  14.041
84770W        W49931   2.222  29.421   4.122
84771W        W49932  11.217  28.560  14.314
84772W        W49933  16.646  31.404  12.916
84773W        W49934   9.868  26.582   4.550
84774W        W49935  24.499  39.507   0.180
84775W        W49936   2.311   5.101  14.344
84776W        W49937  35.341   3.853   3.231
84777W        W49938   2.911  24.687   3.584
84778W        W49939  28.194   4.658   4.117
84779W        W49940  40.375  25.116   2.357
84780W        W49941  20.718  37.299   1.667
84781W        W49942  26.680  36.505  14.493
84782W        W49943  39.309  15.841   1.259
84783W        W49944  43.464   1.700   1.506
84784W        W49945  18.133  11.679  11.218
84785W        W49946  21.540   2.702  12.043
84786W        W49947  44.177  31.015   3.107
84787W        W49948   8.843  44.990  11.934
84788W        W49949  40.210  40.808  10.666
84789W        W49950  40.790  32.610  14.072
84790W        W49951   6.856  40.483   4.597
84791W        W49952  43.907   6.245  12.873
84792W        W49953   0.433  30.189   4.546
84793W        W49954  33.891  26.020  14.027
84794W        W49955   4.223  17.917   3.345
84795W        W49956   0.254   2.394  11.531
84796W        W49957   8.733  20.074  13.540
84797W        W49958  13.187   0.791   3.029
84798W        W49959  10.742  38.814  11.902
84799W        W49960   1.547  15.248   3.186
84800W        W49961   2.385   0.726  10.270
84801W        W49962  30.199  43.755   0.352
84802W        W49963  40.998   9.272  14.129
84803W        W49964  25.997   1.475  13.570
84804W        W49965  28.101   8.674  11.961
84805W        W49966  11.140  37.551   4.174
84806W        W49967  42.087   0.269   4.292
84807W        W49968  18.263  38.004   2.264
84808W        W49969   0.960  35.575   2.762
84809W        W49970  35.957  10.313  13.064
84810W        W49971   1.248   1.543  11.977
84811W        W49972  33.316  35.821  12.431
84812W        W49973  25.989  34.988  13.813
84813W        W49974  23.200  32.012  13.556
84814W        W49975  40.994  16.811  11.244
84815W        W49976  22.083   1.312  13.110
84816W        W49977   9.166   6.946   3.237
84817W        W49978  36.368  31.653   5.008
84818W        W49979   4.294  16.630  14.229
84819W        W49980   5.052  44.944  13.932
84820W        W49981  42.514  39.397  13.844
84821W        W49982   9.611  44.845   2.789
84822W        W49983   1.670   7.781   4.085
84823W        W49984  18.157   0.516  11.953
84824W        W49985  19.807  34.473  14.990
84825W        W49986  34.013  20.753   4.887
84826W        W49987  21.537  15.286   1.701
84827W        W49988  33.283  33.007   3.855
84828W        W49989  41.304  41.607  14.926
84829W        W49990  22.169  39.681   4.973
84830W        W49991  27.064  38.605  14.876
84831W        W49992  28.022   0.275  10.740
84832W        W49993  26.099   2.292   1.942
84833W        W49994  34.286  43.537   1.801
84834W        W49995  29.420  16.196   0.974
84835W        W49996  41.249   5.271   1.279
84836W        W49997  27.859   1.848   4.241
84837W        W49998  42.644  44.957  11.657
84838W        W49999  33.989  26.659   3.172
84839W        W50000  10.134   0.378   1.411
84840W        W50001  34.202  35.817  11.138
84841W        W50002   7.024   3.455   4.551
84842W        W50003   0.520  12.834  13.566
84843W        W50004   7.814  44.207   0.263
84844W        W50005   8.786  26.485   0.849
84845W        W50006   1.727  18.153  11.893
84846W        W50007  20.824  35.937   2.309
84847W        W50008   0.213  17.391   1.351
84848W        W50009  39.225  11.261  13.924
84849W        W50010   9.761   5.860   3.675
84850W        W50011  33.401  31.140   2.390
84851W        W50012   6.193   4.885   1.395
84852W        W50013  17.690  22.074   3.089
84853W        W50014  21.789  17.620   2.848
84854W        W50015  34.530  18.234  14.253
84855W        W50016  33.520  20.808  12.251
84856W        W50017  42.485   9.121   5.016
84857W        W50018   1.780  22.494  12.046
84858W        W50019  11.320  21.299  12.387
84859W        W50020  13.429  44.900   0.543
84860W        W50021  17.970  33.382  11.658
84861W        W50022  33.510   7.158   2.746
84862W        W50023  11.651  17.413  11.182
84863W        W50024   7.044  27.186  14.887
84864W        W50025  30.561   5.288   3.169
84865W        W50026  16.798  43.831  14.270
84866W        W50027  34.911   4.848  13.806
84867W        W50028  10.050  22.462   2.763
84868W        W50029  40.073  23.114   3.760
84869W        W50030  17.642  28.068  11.295
84870W        W50031  14.280  41.788   0.441
84871W        W50032  14.558   4.283   4.343
84872W        W50033  17.656  36.915   1.345
84873W        W50034  20.154  39.543  12.940
84874W        W50035   8.483  34.272   0.224
84875W        W50036  16.476  39.412   2.309
84876W        W50037  36.455  30.208  11.180
84877W        W50038  15.752  36.120   1.759
84878W        W50039   7.877  36.878  11.812
84879W        W50040  41.737  10.740  13.947
84880W        W50041  16.051  32.589   0.660
84881W        W50042  39.567  17.270   2.631
84882W        W50043  17.543  27.593  14.380
84883W        W50044  26.139  19.485  14.093
84884W        W50045  30.540   3.725   1.702
84885W        W50046  19.707   5.054   3.527
84886W        W50047  27.427  24.616   0.407
84887W        W50048  13.359  30.146   0.168
84888W        W50049  36.805   3.605   1.306
84889W        W50050  39.324   7.454  11.631
84890W        W50051  18.607  12.622   4.513
84891W        W50052  20.782  14.258  13.435
84892W        W50053  14.274  42.853   4.743
84893W        W50054   5.674  16.290  11.473
84894W        W50055  39.611  16.561   0.791
84895W        W50056   6.017  18.497  11.391
84896W        W50057  25.230  21.507  12.949
84897W        W50058  44.949  24.442   0.910
84898W        W50059   1.428  17.567   0.304
84899W        W50060  33.611   8.955  13.026
84900W        W50061  36.483  26.433  11.188
84901W        W50062  23.798  28.702  11.405
84902W        W50063  14.156  42.530   1.229
84903W        W50064  11.743  33.319  13.534
84904W        W50065  15.746  12.492   1.755
84905W        W50066  22.748  29.558   2.164
84906W        W50067  39.445  23.897   0.893
84907W        W50068  22.677  31.643   4.695
84908W        W50069  36.565  16.180  14.218
84909W        W50070  25.060  41.342   3.136
84910W        W50071   7.268  11.617   3.266
84911W        W50072  27.090   4.196   2.274
84912W        W50073  27.227  19.350   1.717
84913W        W50074  23.621  40.780  11.988
84914W        W50075   8.753  35.609  12.537
84915W        W50076  28.525  41.984   4.781
84916W        W50077   1.413  27.489   1.264
84917W        W50078  20.302  31.012   3.512
84918W        W50079   9.690  22.740   2.436
84919W        W50080   7.840   2.928  14.336
84920W        W50081  41.677   5.583   1.201
84921W        W50082  22.835  30.761   1.650
84922W        W50083  11.261  42.547   2.340
84923W        W50084   4.854  35.177  13.427
84924W        W50085   2.944  35.666   4.691
84925W        W50086  20.581  20.538  14.540
84926W        W50087   3.260   4.054   3.623
84927W        W50088  44.497  22.500   1.780
84928W        W50089  39.675  11.115  12.991
84929W        W50090  21.096  21.489  13.415
84930W        W50091  32.967  12.949  10.529
84931W        W50092   1.079   4.854   1.444
84932W        W50093  27.580  13.634  11.886
84933W        W50094  44.278  25.394   0.329
84934W        W50095  40.127  24.759  11.133
84935W        W50096  37.000  21.930  13.135
84936W        W50097   7.085  33.297  11.094
84937W        W50098   7.697  36.443   0.669
84938W        W50099  39.765  26.696   2.910
84939W        W50100   6.300  27.542   1.459
84940W        W50101  36.138  30.183   0.877
84941W        W50102  18.772  19.549   0.588
84942W        W50103  19.346  16.458   4.580
84943W        W50104  34.330  25.597   3.810
84944W        W50105  24.116  31.822   3.142
84945W        W50106  32.557  18.493   2.504
84946W        W50107  40.327  42.545   0.464
84947W        W50108  37.952  28.184   1.871
84948W        W50109  42.024  18.355  12.958
84949W        W50110  17.212  12.158  13.753
84950W        W50111   0.981   8.761  12.673
84951W        W50112  40.177  11.618  12.014
84952W        W50113   1.439  14.232   1.815
84953W        W50114   9.826   6.063  14.394
84954W        W50115   7.676   3.021   2.198
84955W        W50116  28.144  38.337  14.362
84956W        W50117  27.812  21.411   4.980
84957W        W50118  37.670  33.380  14.761
84958W        W50119   9.196  34.364   4.380
84959W        W50120  34.434  31.937   0.998
84960W        W50121  22.114  12.401  10.508
84961W        W50122  38.927  20.782   4.620
84962W        W50123  16.852  39.972  14.387
84963W        W50124  29.246  17.908  13.885
84964W        W50125  17.665  16.180   3.330
84965W        W50126  16.019  11.861   2.346
84966W        W50127  19.821   8.602   2.722
84967W        W50128  25.016   2.500  14.834
84968W        W50129  39.345  33.757  11.095
84969W        W50130  38.601  27.115  11.608
84970W        W50131  21.780  32.517  12.504
84971W        W50132   2.690  27.675   4.141
84972W        W50133  25.283   9.141   3.702
84973W        W50134   2.342  32.630   4.791
84974W        W50135   7.125  13.827   2.197
84975W        W50136  35.354   2.027  14.440
84976W        W50137   3.254  33.377   2.490
84977W        W50138  43.204  38.863  12.121
84978W        W50139   5.989  26.834   1.010
84979W        W50140  36.103  14.822  13.567
84980W        W50141   3.799  40.911  14.235
84981W        W50142  12.477  31.144  14.752
84982W        W50143  23.008   4.324   4.658
84983W        W50144   9.377  30.425  11.506
84984W        W50145  25.723  14.642  12.045
84985W        W50146  20.096  17.484   0.791
84986W        W50147  11.840  16.460  14.967
84987W        W50148  20.100  23.206  12.012
84988W        W50149  37.287   9.865  11.197
84989W        W50150  23.540   0.725   2.397
84990W        W50151   2.403  20.885  14.343
84991W        W50152   9.225  42.467   3.213
84992W        W50153  40.710  20.709  11.602
84993W        W50154   3.347  31.150  14.787
84994W        W50155  44.425  32.227   4.533
84995W        W50156  26.506  41.191   1.658
84996W        W50157  42.705   3.670   1.729
84997W        W50158  10.225   1.094   3.717
84998W        W50159  22.186   2.709   2.295
84999W        W50160  40.540   7.785   3.078
85000W        W50161  24.245  40.784  13.887
85001W        W50162  19.251  39.389  10.294
85002W        W50163   3.935  32.169  12.033
85003W        W50164  26.124   8.210  10.684
85004W        W50165   2.874  40.678  12.402
85005W        W50166  34.823  23.251  13.534
85006W        W50167  12.425  44.818   4.462
85007W        W50168  18.308  43.366  10.945
85008W        W50169  19.111  25.125  13.645
85009W        W50170  24.747  42.244  11.712
85010W        W50171  24.148  30.836   2.775
85011W        W50172  36.046   2.152   4.586
85012W        W50173  29.022  37.240  13.405
85013W        W50174   7.146  32.077   1.747
85014W        W50175   2.473  16.930   4.498
85015W        W50176  36.854  42.833  13.492
85016W        W50177  38.602  22.595  10.692
85017W        W50178  43.139  14.872   3.098
85018W        W50179  26.000  41.407  14.250
85019W        W50180  34.031  32.018   4.534
85020W        W50181  42.785  16.759   3.168
85021W        W50182   4.729  23.041   3.493
85022W        W50183  33.372   1.957   0.880
85023W        W50184  30.648  33.022  12.579
85024W        W50185  13.530  11.533  11.556
85025W        W50186  21.981  16.448  12.534
85026W        W50187  27.740  41.466  13.831
85027W        W50188  33.491  28.545   0.428
85028W        W50189  18.849  26.938  13.407
85029W        W50190  29.131  19.667  14.578
85030W        W50191  41.228  22.277  12.073
85031W        W50192  15.633  28.401   4.676
85032W        W50193   9.311  41.771   4.112
85033W        W50194  28.284  36.026  13.881
85034W        W50195  10.057  34.909   3.463
85035W        W50196  18.622  43.549   3.169
85036W        W50197  13.896  39.737   4.332
85037W        W50198  38.900  23.763  12.522
85038W        W50199  24.801  16.374   2.356
85039W        W50200  41.990  40.466  13.367
85040W        W50201  12.361  29.847  11.641
85041W        W50202   8.977  22.489  14.547
85042W        W50203  28.413  10.201   3.716
85043W        W50204   2.136  15.787   4.093
85044W        W50205  17.955  21.651  12.830
85045W        W50206  23.455  23.757   0.279
85046W        W50207  34.711   5.664   4.443
85047W        W50208   8.489  21.092  14.469
85048W        W50209   9.653  42.785   1.304
85049W        W50210  42.135  22.658   4.894
85050W        W50211  35.465  34.384   1.194
85051W        W50212   3.910  29.161  12.396
85052W        W50213   2.083  30.347   3.570
85053W        W50214  20.201  27.982   1.780
85054W        W50215  31.386   1.988   4.129
85055W        W50216  38.878   2.494  14.420
85056W        W50217  37.852  17.037  14.542
85057W        W50218  27.566  10.735  13.349
85058W        W50219  37.215  33.318   3.674
85059W        W50220  27.107  29.993  13.076
85060W        W50221   6.200  20.150  14.994
85061W        W50222  10.914   8.250  12.344
85062W        W50223  23.229  18.373  12.617
85063W        W50224   8.243   2.475  12.761
85064W        W50225   8.171  29.025   1.434
85065W        W50226  39.707  32.132  14.233
85066W        W50227   9.327  25.129   0.877
85067W        W50228  24.146   9.154   2.125
85068W        W50229  38.770   9.596  10.850
85069W        W50230  13.581   6.816  12.715
85070W        W50231  17.027  36.955  11.432
85071W        W50232  37.375  20.632   1.140
85072W        W50233  35.602  29.411   2.089
85073W        W50234  34.953  19.784   2.364
85074W        W50235  28.408   8.580  13.182
85075W        W50236  12.879  39.272   1.329
85076W        W50237  24.521   3.230   4.940
85077W        W50238  17.512   2.645   1.776
85078W        W50239   8.650   0.761  12.558
85079W        W50240  10.483   1.298   4.113
85080W        W50241  25.972  11.092  14.692
85081W        W50242   9.259  26.447  13.481
85082W        W50243  44.236   7.183   1.252
85083W        W50244   5.821  41.131   2.931
85084W        W50245  43.547  31.076  14.540
85085W        W50246  36.352   1.322  14.427
85086W        W50247   1.212  23.577   4.527
85087W        W50248  24.057   9.935  12.874
85088W        W50249  16.608  34.695  14.423
85089W        W50250  41.897  41.047  14.664
85090W        W50251   2.651  42.560  14.816
85091W        W50252  43.029  36.438  11.935
85092W        W50253  26.404  24.758   4.185
85093W        W50254   7.091  16.333  14.507
85094W        W50255  11.642  12.910  10.379
85095W        W50256  42.884  26.263  11.205
85096W        W50257  41.748   0.998   2.741
85097W        W50258   7.321  41.423  12.540
85098W        W50259  41.137  38.392  10.940
85099W        W50260  39.988  15.900   4.882
85100W        W50261   8.944  36.449  14.830
85101W        W50262  24.968  24.205   4.132
85102W        W50263  36.413   0.759   0.011
85103W        W50264  27.654   3.658   1.752
85104W        W50265   9.327   5.309  10.565
85105W        W50266   2.687  36.928  11.153
85106W        W50267  36.393  34.990  10.702
85107W        W50268  41.050  14.655  14.460
85108W        W50269  27.842   5.992  14.452
85109W        W50270  10.989   5.443   4.317
85110W        W50271  35.917  27.449  13.495
85111W        W50272  38.959  33.020   3.576
85112W        W50273   5.753  31.580  14.454
85113W        W50274   7.400  43.877   3.260
85114W        W50275  10.315  32.762   1.459
85115W        W50276  18.514  28.368  14.346
85116W        W50277  21.150  13.822  13.137
85117W        W50278  19.986  33.808   1.812
85118W        W50279  11.308  36.313  14.945
85119W        W50280  12.742   6.619   0.417
85120W        W50281   9.394  13.232   2.409
85121W        W50282  22.317  12.530   3.610
85122W        W50283   4.341  28.411   2.359
85123W        W50284  26.498  24.599  12.590
85124W        W50285  31.099  37.346  13.488
85125W        W50286   9.411  10.274  14.308
85126W        W50287  11.710  29.919   3.722
85127W        W50288   4.858  28.522   2.972
85128W        W50289  43.964  34.857  11.548
85129W        W50290   6.856  16.530   0.901
85130W        W50291  22.595  40.908   1.582
85131W        W50292  32.994  22.265  14.376
85132W        W50293   5.852  26.739  11.174
85133W        W50294   5.489  14.683   1.843
85134W        W50295  15.557  38.064   0.985
85135W        W50296  18.232  40.984  14.760
85136W        W50297  35.651   6.263  12.918
85137W        W50298  43.056  18.466  12.192
85138W        W50299   6.897  39.510  10.968
85139W        W50300  15.409  18.372  10.101
85140W        W50301  29.054  14.518   3.222
85141W        W50302  33.347  27.014  10.002
85142W        W50303  15.636  40.621  12.944
85143W        W50304  29.490  44.217   1.846
85144W        W50305  41.602  24.645   2.578
85145W        W50306  17.571   1.935  13.899
85146W        W50307   5.212  11.053  13.533
85147W        W50308   0.491  12.248  13.432
85148W        W50309  37.540  43.143   1.433
85149W        W50310  33.300  44.393   5.012
85150W        W50311   9.448   2.423   2.238
85151W        W50312  13.237  12.566  11.019
85152W        W50313  41.640  35.805   2.867
85153W        W50314  33.053  35.033  11.155
85154W        W50315  21.589  37.421   4.523
85155W        W50316  44.249   2.725   0.237
85156W        W50317  33.489  16.084  14.883
85157W        W50318  34.134  17.350   0.958
85158W        W50319  23.250  24.656  14.746
85159W        W50320  28.479  36.534  11.480
85160W        W50321  25.981  20.102  12.974
85161W        W50322  19.223  30.114   4.563
85162W        W50323   5.693  12.823   2.740
85163W        W50324  37.463  37.858   4.660
85164W        W50325   7.676  24.034  12.656
85165W        W50326  39.670  25.981  10.483
85166W        W50327  27.555  24.596  12.253
85167W        W50328  14.242   3.961   0.821
85168W        W50329  10.951  22.714  13.930
85169W        W50330   9.684  19.630  12.026
85170W        W50331  23.851  11.787   0.275
85171W        W50332  35.373  42.882   0.492
85172W        W50333  30.812  27.225   1.333
85173W        W50334   4.270  34.310  13.081
85174W        W50335  28.132   5.748   2.329
85175W        W50336  14.049  13.246   3.031
85176W        W50337  26.964  21.576  11.678
85177W        W50338   9.219  33.065   2.726
85178W        W50339  16.536  18.571  11.926
85179W        W50340  29.983  21.979  14.002
85180W        W50341  42.388  34.667   2.117
85181W        W50342   2.245   9.328   3.753
85182W        W50343  20.783   5.930  11.103
85183W        W50344   6.235  25.003   3.614
85184W        W50345  43.186  29.026   0.126
85185W        W50346   7.174  40.772  11.568
85186W        W50347   9.458   1.904  11.588
85187W        W50348   9.834   3.960  13.474
85188W        W50349  38.820  41.967  13.152
85189W        W50350  32.954  41.490   3.194
85190W        W50351   7.156   4.282   0.968
85191W        W50352  16.453  15.046  10.400
85192W        W50353  31.932   2.014  13.678
85193W        W50354  34.102  17.152  11.781
85194W        W50355  35.930  40.624  14.436
85195W        W50356  19.339  44.546   1.289
85196W        W50357  20.547  32.917  11.244
85197W        W50358  32.375   1.057   4.195
85198W        W50359  44.994   2.998   4.888
85199W        W50360  42.592   5.429   0.625
85200W        W50361  31.137  19.058  13.884
85201W        W50362  25.264  25.602   1.980
85202W        W50363   9.847   8.891  11.509
85203W        W50364   8.184  38.046   2.757
85204W        W50365  14.522  26.955   1.813
85205W        W50366  39.377  34.943   1.177
85206W        W50367  37.863  28.415  10.798
85207W        W50368  41.309  40.122   3.243
85208W        W50369  16.723  12.522   1.750
85209W        W50370  38.457   5.714  12.908
85210W        W50371  40.599  23.415  11.991
85211W        W50372  42.587  20.053   4.193
85212W        W50373  21.482   9.701  11.188
85213W        W50374  19.185  43.434  12.405
85214W        W50375   0.769  27.912   4.109
85215W        W50376  27.994  40.166   2.760
85216W        W50377   3.913  30.688  14.381
85217W        W50378  38.915  16.526  12.430
85218W        W50379   2.841  16.966   5.530
85219W        W50380   9.332   4.218   3.235
85220W        W50381  31.438   6.371  11.985
85221W        W50382   9.605  17.567  11.605
85222W        W50383   9.080  30.726  11.200
85223W        W50384  25.554   2.415  11.673
85224W        W50385  29.560  37.401   1.737
85225W        W50386  38.615  10.750  14.265
85226W        W50387  26.979  36.375  14.900
85227W        W50388  30.953   3.185   3.132
85228W        W50389  16.985  33.813  11.720
85229W        W50390  44.751   1.939  11.110
85230W        W50391  30.439  14.930   2.773
85231W        W50392  16.212  44.799   1.421
85232W        W50393  11.105   0.451  13.674
85233W        W50394  38.970  17.262   4.854
85234W        W50395  37.586   0.414  12.127
85235W        W50396  40.259  20.003   4.458
85236W        W50397  26.935   3.684   2.257
85237W        W50398   9.861  37.531  13.308
85238W        W50399   8.245  13.031   3.213
85239W        W50400  43.207  33.998   1.390
85240W        W50401   2.395  22.589   2.291
85241W        W50402  35.517  27.620  14.861
85242W        W50403  31.276  18.416   2.880
85243W        W50404  29.961  17.696   2.673
85244W        W50405  17.045  10.632  12.189
85245W        W50406   2.890  43.895   1.698
85246W        W50407  14.702  12.764   4.104
85247W        W50408  18.768  21.224  12.989
85248W        W50409  10.326  42.999   4.861
85249W        W50410   4.170  39.030   1.327
85250W        W50411  20.776  14.306  11.152
85251W        W50412  44.503  23.233  10.506
85252W        W50413   5.685  33.928   3.721
85253W        W50414  32.482  27.571   0.670
85254W        W50415   1.773  15.331  14.059
85255W        W50416  13.678   5.535   4.283
85256W        W50417  44.588  14.595   2.573
85257W        W50418   4.477  28.770   2.698
85258W        W50419  24.313  20.641   1.398
85259W        W50420  12.824  29.687  11.723
85260W        W50421  32.905  13.916   3.795
85261W        W50422  44.504  37.874   0.660
85262W        W50423   6.142  26.654   3.510
85263W        W50424  32.587  31.207   0.236
85264W        W50425   1.318  35.170  12.505
85265W        W50426   7.796  18.764   1.277
85266W        W50427  44.045  23.934   3.312
85267W        W50428  26.523   8.076   1.317
85268W        W50429  15.833  17.324   1.760
85269W        W50430   7.689  28.495   1.855
85270W        W50431   2.371  10.259  14.965
85271W        W50432   8.865  24.265   0.248
85272W        W50433  10.126  17.624  10.651
85273W        W50434  18.272   9.487  10.732
85274W        W50435  18.658  29.303   9.679
85275W        W50436  39.990   6.388  11.108
85276W        W50437  35.028  12.823   4.243
85277W        W50438  27.901   7.334  14.413
85278W        W50439  24.843  15.866  13.424
85279W        W50440  38.486   6.307   1.658
85280W        W50441  19.553  23.494  13.043
85281W        W50442  42.250  13.871   1.072
85282W        W50443  34.667  24.697  14.927
85283W        W50444  28.953  43.332  14.391
85284W        W50445  11.639  34.981  14.759
85285W        W50446  18.111   8.823  10.211
85286W        W50447  19.135   1.373   4.321
85287W        W50448   5.725  14.094   3.081
85288W        W50449   0.494  23.746  14.795
85289W        W50450  39.140  38.283  13.007
85290W        W50451  41.976  34.989  14.969
85291W        W50452   3.942  12.038  14.499
85292W        W50453  40.397  39.443   0.708
85293W        W50454   1.879  34.549  14.689
85294W        W50455  35.799  14.572  13.918
85295W        W50456  32.051   7.551   3.161
85296W        W50457  34.013   1.817   1.445
85297W        W50458  39.966   0.851   0.964
85298W        W50459  10.457  14.294   0.582
85299W        W50460  36.370  33.674  14.785
85300W        W50461   0.377  32.846   4.154
85301W        W50462  25.214  31.376  14.445
85302W        W50463  30.158  26.183   4.280
85303W        W50464  14.061   0.949   3.131
85304W        W50465  10.121  18.018  12.360
85305W        W50466  22.137  39.824  14.969
85306W        W50467  26.911  43.518  11.092
85307W        W50468  12.887   4.122  12.131
85308W        W50469  28.715  18.712   0.642
85309W        W50470   7.759  34.950  13.198
85310W        W50471  31.650   4.866   4.670
85311W        W50472   8.295  17.967  10.977
85312W        W50473  35.123  26.367  10.263
85313W        W50474  40.080  12.316  12.492
85314W        W50475  27.446   6.350  14.323
85315W        W50476  10.137  41.907   2.593
85316W        W50477  11.638   5.973  10.313
85317W        W50478  31.004  24.151   1.406
85318W        W50479  26.021  40.898   3.970
85319W        W50480   4.669  42.327  12.571
85320W        W50481  16.337  30.871   3.998
85321W        W50482  22.363  32.276  11.774
85322W        W50483  12.358  23.021   1.425
85323W        W50484  26.551  22.547  11.832
85324W        W50485  12.155  10.608   4.773
85325W        W50486   3.892  20.209  13.968
85326W        W50487  42.170   6.365   4.059
85327W        W50488  15.949   2.878  11.983
85328W        W50489  37.500   5.627  14.032
85329W        W50490  40.755  14.949  11.146
85330W        W50491  13.678  12.058  11.685
85331W        W50492  14.313  37.969  13.793
85332W        W50493  43.379  15.172  11.535
85333W        W50494   3.678  43.998   2.347
85334W        W50495  27.675  28.829   1.786
85335W        W50496  42.816  20.177  14.065
85336W        W50497   0.764  21.032  11.516
85337W        W50498  42.432   5.237  12.887
85338W        W50499  16.715  28.220  13.977
85339W        W50500  14.548  16.795   2.899
85340W        W50501   1.972  20.621   3.821
85341W        W50502  31.632  28.535   3.248
85342W        W50503  17.063  21.717  11.998
85343W        W50504  26.705  25.205   1.361
85344W        W50505  13.688   1.843   2.869
85345W        W50506  44.898  15.878  11.134
85346W        W50507  18.446  27.710  10.879
85347W        W50508  26.617  36.344   0.973
85348W        W50509  28.685  13.554  13.450
85349W        W50510  42.305   2.658   3.945
85350W        W50511  21.419   5.229  13.872
85351W        W50512  31.047  37.171  12.984
85352W        W50513   3.663  14.477   4.578
85353W        W50514   8.635  24.002  10.752
85354W        W50515   1.663  43.387  11.564
85355W        W50516  19.261  16.591  12.086
85356W        W50517  42.479  38.911   3.600
85357W        W50518  17.343  43.686  14.865
85358W        W50519  42.760   3.976  14.705
85359W        W50520  17.150  19.282  13.079
85360W        W50521   0.875  18.254  14.042
85361W        W50522  14.690  10.046  13.163
85362W        W50523  24.524  37.970  14.272
85363W        W50524  24.042  30.216  13.414
85364W        W50525  15.059  34.051   4.044
85365W        W50526  39.447  37.129   3.212
85366W        W50527  11.098  44.256   2.983
85367W        W50528  27.309  43.401   4.861
85368W        W50529   9.687  21.440   3.996
85369W        W50530   5.710  42.358   3.892
85370W        W50531  33.679  33.208  10.270
85371W        W50532  34.909  23.476  11.607
85372W        W50533  34.557  29.153  14.093
85373W        W50534  30.361   1.470   2.687
85374W        W50535   8.516  33.971  11.045
85375W        W50536   3.067  19.321   4.145
85376W        W50537   3.205  29.464   4.177
85377W        W50538  23.006  21.095  14.366
85378W        W50539   6.727  31.174  12.502
85379W        W50540  36.905   4.255  12.876
85380W        W50541  24.027  30.929   4.814
85381W        W50542  41.334  16.146   3.300
85382W        W50543  24.686  35.395   1.317
85383W        W50544  26.959  13.084  13.218
85384W        W50545   8.743  43.095   1.885
85385W        W50546  43.785   6.707  10.649
85386W        W50547  19.605  40.604   2.680
85387W        W50548  13.699  34.362   4.595
85388W        W50549  23.192   2.094  14.386
85389W        W50550  21.583  18.105   2.736
85390W        W50551   7.006  30.460  13.451
85391W        W50552  24.475   6.892  14.494
85392W        W50553  19.407  43.118   0.782
85393W        W50554  24.979   5.007   2.865
85394W        W50555   9.288  36.549   0.992
85395W        W50556   9.760  34.504   3.270
85396W        W50557  42.379  41.567   1.714
85397W        W50558   4.358  30.631   1.908
85398W        W50559   2.997   9.359   5.121
85399W        W50560  11.229  32.705   3.773
85400W        W50561  13.153   9.995  14.644
85401W        W50562  16.195  13.873   2.808
85402W        W50563  24.099   3.863   1.854
85403W        W50564  15.238  29.948   3.455
85404W        W50565  38.027  26.093  12.469
85405W        W50566  20.619  22.453  13.853
85406W        W50567   9.312   9.390   4.311
85407W        W50568  39.841  19.061   2.991
85408W        W50569  34.599  32.584  13.420
85409W        W50570  23.484  34.570  11.571
85410W        W50571  10.089  13.763   4.484
85411W        W50572  16.232   9.400   3.273
85412W        W50573  40.441  34.310  12.074
85413W        W50574  25.175  27.080   3.887
85414W        W50575  17.680  11.236  12.615
85415W        W50576  30.746  19.288   2.075
85416W        W50577   7.378  38.947   0.764
85417W        W50578  29.865  15.537  10.838
85418W        W50579  44.584  14.581  11.979
85419W        W50580  37.617  31.567   2.299
85420W        W50581  23.398  33.932   2.495
85421W        W50582  21.100   2.462  12.904
85422W        W50583  39.110  14.924  14.328
85423W        W50584  36.602  18.241  13.454
85424W        W50585  16.766   1.812  13.496
85425W        W50586   9.166   4.150   2.349
85426W        W50587   1.135  13.097   0.742
85427W        W50588   2.216  13.252   4.215
85428W        W50589  40.836  28.453  14.116
85429W        W50590  27.706  43.937   3.286
85430W        W50591   1.795   5.411  12.042
85431W        W50592  14.780   8.509   3.842
85432W        W50593   7.101  44.876   2.790
85433W        W50594  18.247   3.500  12.389
85434W        W50595   3.923   0.397   2.993
85435W        W50596  38.365   8.555  13.803
85436W        W50597   7.686  17.206  14.248
85437W        W50598  11.825   3.404   0.299
85438W        W50599  35.508  27.761   4.091
85439W        W50600  38.939   8.452   4.132
85440W        W50601   5.697  13.759  10.759
85441W        W50602   2.035   2.977  13.762
85442W        W50603   0.404   4.741  11.474
85443W        W50604   1.257  14.580   2.454
85444W        W50605   8.702  43.301  10.941
85445W        W50606  44.248  20.817   2.877
85446W        W50607   6.426  40.547  13.982
85447W        W50608  36.870  31.881   3.552
85448W        W50609  19.221  34.951   1.386
85449W        W50610  40.041   0.357  11.866
85450W        W50611  23.185  24.315  11.122
85451W        W50612  21.616  40.128   2.337
85452W        W50613   0.311  32.155   1.487
85453W        W50614  13.637   3.924   2.306
85454W        W50615  18.968   9.299  13.507
85455W        W50616  30.539  22.518   2.260
85456W        W50617  35.927  36.158   1.504
85457W        W50618  43.819   0.028  14.832
85458W        W50619  13.762  14.781   0.883
85459W        W50620  27.063  12.244  10.693
85460W        W50621  20.785  10.352   0.880
85461W        W50622  14.306  39.229   5.205
85462W        W50623  18.588   2.289   0.699
85463W        W50624  34.109  40.220   4.563
85464W        W50625  34.555  16.482   1.811
85465W        W50626  30.249   6.770   3.203
85466W        W50627   8.598  24.839  13.847
85467W        W50628  43.807  38.234   0.462
85468W        W50629  19.115  13.704  11.189
85469W        W50630   8.589  27.543  12.428
85470W        W50631   1.276  41.964  12.813
85471W        W50632  21.083  41.890  11.980
85472W        W50633  39.526  30.447  14.419
85473W        W50634  29.484   4.394  11.535
85474W        W50635  15.006  10.674   2.889
85475W        W50636   1.791  21.456  11.944
85476W        W50637   1.660  36.875   3.573
85477W        W50638  34.386   2.085   1.182
85478W        W50639  15.806  18.112   2.209
85479W        W50640  13.818   9.897   1.751
85480W        W50641  33.767  38.442  11.163
85481W        W50642   9.143   8.434   4.785
85482W        W50643  36.059  35.871   4.648
85483W        W50644   6.742  14.117   2.385
85484W        W50645  15.246  11.337  11.498
85485W        W50646  37.013  31.057  13.933
85486W        W50647  21.247  32.040  13.617
85487W        W50648  17.991  27.350   4.185
85488W        W50649  40.722   9.825  13.657
85489W        W50650   4.309  41.335  11.546
85490W        W50651  41.595  16.246   2.871
85491W        W50652  44.352  31.540   0.411
85492W        W50653  33.020  40.231  12.801
85493W        W50654   8.411  42.701  13.928
85494W        W50655  15.247  18.311   3.143
85495W        W50656  24.965  35.521  12.499
85496W        W50657  40.878  23.730   0.935
85497W        W50658  39.026   1.758  14.972
85498W        W50659  12.833  27.079   0.872
85499W        W50660  34.485   7.364  13.377
85500W        W50661  26.637   5.721  12.564
85501W        W50662  34.968  24.748   2.822
85502W        W50663  33.804  10.360   3.160
85503W        W50664   7.853  38.498  14.010
85504W        W50665   4.353  41.477   1.847
85505W        W50666   3.300  32.826  11.634
85506W        W50667  42.013  41.406   3.533
85507W        W50668  33.906  37.547   3.647
85508W        W50669  21.273  15.254   2.178
85509W        W50670   4.985   4.216   2.781
85510W        W50671   9.965  27.760   0.144
85511W        W50672  11.603  34.900   4.179
85512W        W50673  26.738  41.134  12.458
85513W        W50674   9.857  11.547  10.974
85514W        W50675   3.128  18.217  11.168
85515W        W50676  20.812  40.453   0.370
85516W        W50677  23.165   4.726  11.531
85517W        W50678  21.420  16.493   2.242
85518W        W50679  40.909   1.034   3.295
85519W        W50680  38.853  36.753   0.467
85520W        W50681  25.249   1.296   1.239
85521W        W50682  18.329  26.538  14.488
85522W        W50683   2.189  24.966   0.992
85523W        W50684  25.558   8.594  11.783
85524W        W50685  18.244   3.655  11.070
85525W        W50686  43.688   0.343  12.056
85526W        W50687  40.603  41.173  12.071
85527W        W50688   4.512  18.727  11.339
85528W        W50689  37.750  43.456  14.393
85529W        W50690  26.662  20.474  14.934
85530W        W50691  29.513  37.472  11.227
85531W        W50692  18.665  40.866  12.543
85532W        W50693  43.216  32.978   4.846
85533W        W50694  32.476   7.776  11.774
85534W        W50695  38.076   5.666  11.441
85535W        W50696  38.510  15.054  12.128
85536W        W50697  42.850  30.462  11.562
85537W        W50698  40.322  28.544   2.307
85538W        W50699  43.892  14.216   1.275
85539W        W50700  36.905  20.791  11.976
85540W        W50701   8.333   3.712   3.418
85541W        W50702  14.187  40.379   0.831
85542W        W50703  37.847  42.960  14.151
85543W        W50704  25.290  17.545  11.648
85544W        W50705  16.124   9.505   2.305
85545W        W50706  33.345  12.405   2.165
85546W        W50707  11.044  42.795  13.778
85547W        W50708  34.558  25.576  14.787
85548W        W50709  15.318   8.646  11.196
85549W        W50710  23.447  18.139   0.442
85550W        W50711   3.693   0.456   4.153
85551W        W50712  30.293   5.382   2.685
85552W        W50713  35.068  23.053  13.941
85553W        W50714  16.747  24.889   3.938
85554W        W50715  28.688   3.965  10.362
85555W        W50716   4.034  21.599  14.715
85556W        W50717  29.118  13.901  14.159
85557W        W50718  13.847   6.500   4.104
85558W        W50719  38.288  41.078   4.633
85559W        W50720  32.377  21.838   0.416
85560W        W50721   7.306  32.217  13.453
85561W        W50722  10.318  37.010  11.098
85562W        W50723  25.569   9.517  14.880
85563W        W50724   8.643  37.384  14.852
85564W        W50725  38.328   5.947   4.797
85565W        W50726  18.033  32.063  13.425
85566W        W50727  16.280  27.025  12.397
85567W        W50728  41.817  15.575  12.113
85568W        W50729  23.763  14.528   3.093
85569W        W50730   5.587   0.795  11.575
85570W        W50731  23.155   2.328  13.851
85571W        W50732  43.878  14.100  14.291
85572W        W50733  31.138  35.916  14.937
85573W        W50734   9.743  31.445   1.187
85574W        W50735  33.611  30.596  11.352
85575W        W50736   3.680  23.434   4.374
85576W        W50737  36.678  41.491  12.864
85577W        W50738  41.929  34.868  13.474
85578W        W50739   0.195   1.007   4.692
85579W        W50740  37.414  31.220   4.813
85580W        W50741   2.377  24.141   4.100
85581W        W50742   4.209  39.251  13.327
85582W        W50743  29.705  44.009  13.458
85583W        W50744  38.076  32.541  14.914
85584W        W50745  27.745  12.751   4.715
85585W        W50746  42.644  11.220  14.049
85586W        W50747   3.976  38.849   1.787
85587W        W50748  22.694  32.692  13.481
85588W        W50749  12.928  31.460  12.013
85589W        W50750  16.396  32.069   1.305
85590W        W50751  17.536  25.868   3.656
85591W        W50752   2.262   7.786   0.191
85592W        W50753   6.785  37.964   4.352
85593W        W50754  32.996   6.445  13.287
85594W        W50755   3.299   5.774  10.799
85595W        W50756  15.161   7.847   3.101
85596W        W50757  24.978  30.880   0.724
85597W        W50758  43.941   7.652   2.422
85598W        W50759  42.910  40.748  11.149
85599W        W50760  27.824   1.814   0.532
85600W        W50761  24.979  35.525  14.955
85601W        W50762  38.902  43.407  13.064
85602W        W50763  26.360  29.525  13.403
85603W        W50764  28.877  23.491  12.853
85604W        W50765  25.735  14.538   2.521
85605W        W50766   3.701   7.883  12.373
85606W        W50767   7.429  27.277   3.598
85607W        W50768  13.772  10.287   0.029
85608W        W50769   8.187  31.007  11.746
85609W        W50770  27.551  22.131  10.416
85610W        W50771  37.564  17.206  12.985
85611W        W50772   0.804   8.411  14.732
85612W        W50773   9.542   2.869  10.540
85613W        W50774  35.365  42.282   2.832
85614W        W50775   2.394  21.523  13.037
85615W        W50776  26.806  41.442  11.588
85616W        W50777  30.123  14.174  14.947
85617W        W50778  35.911   7.613   0.326
85618W        W50779  17.565  32.939  14.907
85619W        W50780  23.460  12.872  11.321
85620W        W50781  10.857  10.450   3.758
85621W        W50782   8.325  44.756   4.405
85622W        W50783  24.610  44.781  11.989
85623W        W50784  34.200  41.805   1.227
85624W        W50785   7.087  29.166   3.622
85625W        W50786  22.677  19.840  12.070
85626W        W50787  41.268  22.192   5.184
85627W        W50788   2.215  10.437   4.251
85628W        W50789  33.175   0.597  11.645
85629W        W50790  40.847  33.073  12.148
85630W        W50791  25.628  35.355   1.893
85631W        W50792  27.768   2.404  14.419
85632W        W50793  26.343  31.531  12.559
85633W        W50794  11.565  15.289  12.055
85634W        W50795  32.909  32.801  11.275
85635W        W50796   0.576  23.273  13.958
85636W        W50797  38.886  18.119   3.774
85637W        W50798  38.154   0.335   2.739
85638W        W50799  28.447   6.586  11.507
85639W        W50800  18.263  25.372  10.737
85640W        W50801  16.218  31.758   0.162
85641W        W50802   3.272  38.023   3.668
85642W        W50803  27.520  40.057   1.823
85643W        W50804  33.593  38.560  13.396
85644W        W50805  37.520  28.049   2.626
85645W        W50806  24.389  21.660  13.180
85646W        W50807  13.833  11.876   3.721
85647W        W50808  17.164  40.513   4.014
85648W        W50809  30.436  43.685   0.835
85649W        W50810   5.206   6.353   2.840
85650W        W50811   2.848  38.584   2.107
85651W        W50812   5.267  21.094  12.481
85652W        W50813   7.715  34.607  13.581
85653W        W50814  37.607  40.359   4.266
85654W        W50815  24.166  10.674   9.925
85655W        W50816  20.019  17.164  11.169
85656W        W50817   1.372  15.666  12.607
85657W        W50818  25.940  27.396  12.531
85658W        W50819  22.395  32.855  11.240
85659W        W50820  28.224  34.477   4.120
85660W        W50821  17.772  25.577   2.974
85661W        W50822  24.582  25.865  14.486
85662W        W50823  37.049  22.172   4.412
85663W        W50824  42.920  31.075  12.201
85664W        W50825  11.589  12.052  12.066
85665W        W50826   0.683  22.062  10.624
85666W        W50827  40.487  43.429   2.849
85667W        W50828   7.658  14.375  12.408
85668W        W50829   5.336  42.810  10.641
85669W        W50830   0.452  40.915  10.856
85670W        W50831  11.271  21.529   1.544
85671W        W50832  24.465   1.689   0.960
85672W        W50833  19.592  16.136   3.547
85673W        W50834  30.497  20.325   1.157
85674W        W50835   2.966  13.589  12.115
85675W        W50836   2.983  20.555   4.905
85676W        W50837  16.886  37.352   3.713
85677W        W50838  23.152  34.476  14.946
85678W        W50839   2.485  29.925   1.876
85679W        W50840  30.506  10.341  11.988
85680W        W50841  13.543  24.209   3.270
85681W        W50842  19.671  43.204  11.669
85682W        W50843  34.089  25.397   1.373
85683W        W50844  10.537   6.424  10.975
85684W        W50845   7.419  18.421   0.270
85685W        W50846  31.422  17.040   0.196
85686W        W50847  17.886   9.332  12.421
85687W        W50848  41.774   4.391  14.949
85688W        W50849   7.362  20.956   1.329
85689W        W50850   2.278  26.763   3.239
85690W        W50851  29.568  27.666   3.818
85691W        W50852   3.225  36.223   0.042
85692W        W50853  15.860   8.949  12.702
85693W        W50854  29.668  26.138   1.435
85694W        W50855  15.107  20.303   1.432
85695W        W50856  12.099  26.555  13.926
85696W        W50857  44.719  16.674  14.356
85697W        W50858  24.040  20.299   2.106
85698W        W50859  28.985   2.433   0.520
85699W        W50860   2.964  12.572  14.334
85700W        W50861  30.161  42.374   0.334
85701W        W50862  35.018  36.379  14.702
85702W        W50863  26.324   9.514  11.933
85703W        W50864   8.374  36.295   4.195
85704W        W50865  14.736  12.815  12.484
85705W        W50866  27.724  13.689   3.667
85706W        W50867  15.674  15.258   3.574
85707W        W50868  32.455  38.417  11.634
85708W        W50869  32.431  42.392   4.107
85709W        W50870  43.438   3.515   1.832
85710W        W50871  11.190   0.464  14.223
85711W        W50872  35.086   4.866  14.278
85712W        W50873  33.069  19.562  12.926
85713W        W50874   3.854  34.295   0.110
85714W        W50875  26.094   4.211   1.378
85715W        W50876  36.007  24.330   1.276
85716W        W50877  12.754  15.751  12.423
85717W        W50878  42.759  13.315   1.352
85718W        W50879  36.954  40.187   2.328
85719W        W50880  44.811  13.337  12.118
85720W        W50881  23.142  40.569   2.105
85721W        W50882   1.307  21.671  11.923
85722W        W50883  14.526  12.665  14.016
85723W        W50884   8.610  24.580   0.984
85724W        W50885  12.864  26.571   1.650
85725W        W50886  22.191  38.759  10.663
85726W        W50887   1.518  36.922   2.291
85727W        W50888   9.628  27.163  14.782
85728W        W50889  26.688  25.580  12.779
85729W        W50890  32.851  36.011  14.017
85730W        W50891  10.220  36.894  12.570
85731W        W50892  33.092  29.172  14.357
85732W        W50893   8.137  24.097   1.922
85733W        W50894  10.752  19.793  13.003
85734W        W50895  43.905  29.877   4.579
85735W        W50896  42.823  13.640  12.078
85736W        W50897  20.498   4.851   1.315
85737W        W50898  33.237  27.451  13.801
85738W        W50899  28.694  21.347  13.843
85739W        W50900   5.757  17.567   0.276
85740W        W50901   7.858  21.552   2.723
85741W        W50902  32.391  14.834   2.574
85742W        W50903  24.618  15.633  10.136
85743W        W50904  33.528  26.559  13.083
85744W        W50905  26.117  41.491   1.747
85745W        W50906  27.266  14.338  14.551
85746W        W50907  33.125   5.676  10.699
85747W        W50908  20.719  15.998   0.784
85748W        W50909  27.210   4.331   3.345
85749W        W50910  24.029   5.318   3.634
85750W        W50911  25.382   3.460  14.909
85751W        W50912  29.997   5.457   4.412
85752W        W50913   6.421  20.657   0.149
85753W        W50914  13.657  14.171  13.375
85754W        W50915   1.819   1.302  11.597
85755W        W50916  20.735  24.499   0.042
85756W        W50917  28.138   5.949   0.873
85757W        W50918  28.414  18.422   0.303
85758W        W50919   4.908   6.870   3.655
85759W        W50920  34.509  31.952   2.031
85760W        W50921   7.214  24.054  12.949
85761W        W50922  27.119  15.316  10.234
85762W        W50923  20.140  40.896  10.265
85763W        W50924   7.094  11.130   0.831
85764W        W50925  20.688  37.643   4.166
85765W        W50926   6.159  42.007  11.279
85766W        W50927  27.179  20.553  14.915
85767W        W50928  25.750  43.413   5.057
85768W        W50929   2.262   5.015  10.375
85769W        W50930  37.649  41.130   2.128
85770W        W50931  31.479  30.196  14.669
85771W        W50932   8.354  20.853  14.029
85772W        W50933  21.292   9.679   3.093
85773W        W50934  11.837  35.558   2.563
85774W        W50935  28.061  42.042   3.223
85775W        W50936  34.516  39.951  14.834
85776W        W50937   5.188  23.755   2.865
85777W        W50938  15.507  38.380  11.235
85778W        W50939   9.241  13.336   4.265
85779W        W50940  26.185  30.886  11.164
85780W        W50941  37.113  14.914  13.579
85781W        W50942  32.115  11.607  13.451
85782W        W50943  23.912  23.055   0.595
85783W        W50944  25.657  40.636  13.008
85784W        W50945  21.771   0.948  12.524
85785W        W50946  43.680  19.911   0.329
85786W        W50947  41.231  31.714  10.682
85787W        W50948  37.957  22.416  12.652
85788W        W50949   1.511  22.544   3.747
85789W        W50950  40.366  44.075  13.190
85790W        W50951  21.480  44.693  11.123
85791W        W50952   8.809  35.799   0.620
85792W        W50953  23.178  36.901  10.687
85793W        W50954  44.474  28.137   1.363
85794W        W50955  18.670  11.363  12.454
85795W        W50956  22.238  28.490  13.280
85796W        W50957  16.583  41.888   1.474
85797W        W50958  37.632  29.231   3.875
85798W        W50959  19.039  36.115   1.789
85799W        W50960  11.617  39.292   0.001
85800W        W50961  15.200  10.358   4.290
85801W        W50962   9.062  14.200  11.682
85802W        W50963  44.908  27.190  12.769
85803W        W50964  21.335  42.445  11.136
85804W        W50965  25.586   1.036  11.722
85805W        W50966  11.680  17.758  12.944
85806W        W50967  19.858  29.626   5.039
85807W        W50968  25.454   7.726  11.168
85808W        W50969  38.188  41.508   1.344
85809W        W50970  37.580   4.257   1.232
85810W        W50971  26.170  21.032  12.370
85811W        W50972   1.697  44.977   2.928
85812W        W50973  24.049   4.703   3.418
85813W        W50974  21.136   6.433   4.122
85814W        W50975  30.108  43.873  11.499
85815W        W50976  21.267   8.695  13.972
85816W        W50977  17.514   2.292  14.734
85817W        W50978  40.527  11.576   5.169
85818W        W50979  34.893   1.128   2.606
85819W        W50980  11.745  37.059   3.146
85820W        W50981  20.528  15.883   1.762
85821W        W50982  24.887  25.500  11.248
85822W        W50983  30.239  35.955  14.810
85823W        W50984  39.376  43.823   2.707
85824W        W50985  13.488  39.283   0.421
85825W        W50986   7.919  12.576   2.784
85826W        W50987  25.531  30.400  14.983
85827W        W50988  30.128  26.589  13.998
85828W        W50989  16.238  41.819  13.081
85829W        W50990  16.188  33.047  11.020
85830W        W50991  19.589  33.990  14.756
85831W        W50992   7.432  29.578   1.867
85832W        W50993  32.373  12.881   3.201
85833W        W50994   2.293  42.818  12.000
85834W        W50995  38.960   5.895   4.047
85835W        W50996  12.830  33.465   1.124
85836W        W50997  28.146  10.941   0.434
85837W        W50998   5.652  27.570  13.926
85838W        W50999  33.147   8.913   4.416
85839W        W51000   7.485  28.307   3.885
85840W        W51001   6.130  41.739   0.837
85841W        W51002  41.121  43.258   3.655
85842W        W51003   2.024  34.943  13.086
85843W        W51004  10.378  22.294  14.968
85844W        W51005  10.116   0.022   1.841
85845W        W51006  43.396  22.017   1.978
85846W        W51007  36.712   0.131   1.871
85847W        W51008   2.831   7.215  13.540
85848W        W51009  21.563   4.422   3.360
85849W        W51010  33.957  14.775  10.734
85850W        W51011   2.037   9.498  12.349
85851W        W51012   6.870  11.443   0.047
85852W        W51013  13.898  34.686  11.196
85853W        W51014  12.152  21.000  11.936
85854W        W51015  33.598   8.186   1.793
85855W        W51016   4.959   3.682   4.480
85856W        W51017  16.923  38.374   1.579
85857W        W51018  33.690  44.325  12.839
85858W        W51019  44.176  31.582  12.135
85859W        W51020  44.027  20.140   4.296
85860W        W51021  38.559  20.045  14.588
85861W        W51022  17.078  25.087   1.409
85862W        W51023  26.610  29.080  13.281
85863W        W51024   9.298  11.860   0.407
85864W        W51025  13.275  34.711  14.365
85865W        W51026  17.329  11.904   4.426
85866W        W51027  27.541   8.711   1.768
85867W        W51028   1.769  14.245   3.269
85868W        W51029  20.339   5.195  12.082
85869W        W51030  27.622   8.002   3.347
85870W        W51031  25.897  27.057  11.674
85871W        W51032  20.136   4.896  10.084
85872W        W51033  13.828   3.320  14.747
85873W        W51034  15.628  44.955  12.371
85874W        W51035  40.122  26.605   1.306
85875W        W51036  18.176   0.733   1.146
85876W        W51037   2.369  27.259  13.441
85877W        W51038  22.646   2.540  13.821
85878W        W51039  17.022  15.939  10.370
85879W        W51040  37.928  33.797   0.077
85880W        W51041  13.312  44.494  11.782
85881W        W51042  17.648  17.601   0.272
85882W        W51043   6.244  35.075  11.561
85883W        W51044  35.958  13.096   3.267
85884W        W51045  33.151  30.440   4.355
85885W        W51046  44.701   0.919  11.171
85886W        W51047  25.951   8.430  10.264
85887W        W51048  35.379  29.604   4.016
85888W        W51049   2.080  32.788   2.225
85889W        W51050  37.438  17.000   4.736
85890W        W51051  43.117  26.174   4.709
85891W        W51052   1.035  36.942  12.498
85892W        W51053  43.845  42.245   3.780
85893W        W51054  13.073  17.574  11.525
85894W        W51055  25.917   0.480  14.943
85895W        W51056  10.826  18.130   5.114
85896W        W51057  24.728  37.248   5.044
85897W        W51058  18.532  30.464   2.825
85898W        W51059  42.351  36.030   3.331
85899W        W51060  39.522  39.025   0.764
85900W        W51061  34.339   3.394   2.365
85901W        W51062  23.097  11.623  12.965
85902W        W51063  13.713  21.640  10.705
85903W        W51064  14.020  40.317  14.926
85904W        W51065   5.940  33.475   3.672
85905W        W51066  37.525   6.850  10.717
85906W        W51067  44.801  28.436   3.739
85907W        W51068  19.276  15.944   4.522
85908W        W51069  10.185  33.134   0.493
85909W        W51070  19.026  37.499   2.350
85910W        W51071  44.966  23.835   2.337
85911W        W51072   1.018  40.447   1.626
85912W        W51073   7.633  15.872   0.805
85913W        W51074   6.891  42.766  14.632
85914W        W51075  12.769   9.637  13.757
85915W        W51076  16.661  42.334  14.782
85916W        W51077  10.199   5.416   1.968
85917W        W51078  28.367  30.072   0.787
85918W        W51079  33.675  25.188  11.587
85919W        W51080  37.024   1.718  10.958
85920W        W51081  17.476  20.738  10.605
85921W        W51082   4.694  40.521   2.265
85922W        W51083  11.357  16.823  13.847
85923W        W51084  23.563   9.148  12.887
85924W        W51085  41.831  38.220   1.350
85925W        W51086   0.892   0.395  12.482
85926W        W51087  42.483  11.681  14.246
85927W        W51088  42.538  12.671  12.048
85928W        W51089  13.349  23.171  13.924
85929W        W51090  11.216  34.272   0.916
85930W        W51091  42.871   2.644  10.778
85931W        W51092  38.887   2.224   2.684
85932W        W51093   1.999  42.728  13.337
85933W        W51094   4.559  22.875   5.059
85934W        W51095  22.904  37.802  10.446
85935W        W51096  10.982  38.031   0.104
85936W        W51097  23.205  23.793  13.084
85937W        W51098   1.228   5.715  14.797
85938W        W51099  15.835  10.150  12.681
85939W        W51100  21.314  26.563   0.928
85940W        W51101  14.270  22.570   5.178
85941W        W51102  35.476  27.851   2.277
85942W        W51103  23.941  30.111  14.381
85943W        W51104  38.205   3.472   4.568
85944W        W51105  43.054   2.596  13.910
85945W        W51106   2.633  20.653  12.053
85946W        W51107   3.279  42.364   4.461
85947W        W51108  39.279  42.147  12.997
85948W        W51109  26.679  27.475   2.341
85949W        W51110  32.677  21.594   0.787
85950W        W51111  18.079  24.490   2.749
85951W        W51112  12.647  16.301   0.998
85952W        W51113  21.966  40.009   5.573
85953W        W51114  16.059  21.074   3.173
85954W        W51115  37.882  21.744  11.495
85955W        W51116  37.696   4.796  12.041
85956W        W51117  13.322  43.541  12.604
85957W        W51118  19.556  40.464  14.076
85958W        W51119   6.984  26.135  14.918
85959W        W51120  15.193  25.187   4.206
85960W        W51121  10.471   6.163   5.022
85961W        W51122  29.111  39.799   0.933
85962W        W51123  13.633   3.302  13.535
85963W        W51124  28.204  12.460   4.006
85964W        W51125  10.329  10.088   2.564
85965W        W51126  32.611  10.371  12.555
85966W        W51127  27.101   0.304   1.463
85967W        W51128  24.910   9.798   4.604
85968W        W51129  10.166  24.527   2.393
85969W        W51130  19.732   2.390   1.313
85970W        W51131  40.853  34.271   4.831
85971W        W51132  13.583  11.568   5.021
85972W        W51133  29.713  22.927   1.869
85973W        W51134  15.222   3.969  13.917
85974W        W51135  17.100  21.061   0.318
85975W        W51136   2.270   8.442  13.676
85976W        W51137  41.440   1.315  12.791
85977W        W51138  27.176  36.343   3.614
85978W        W51139   6.909  22.572   4.255
85979W        W51140  15.222  18.105   5.455
85980W        W51141  39.388  42.397   0.548
85981W        W51142  22.451  43.769   2.787
85982W        W51143  17.892   4.166   1.794
85983W        W51144   8.228  35.725   3.133
85984W        W51145   5.305  11.439  11.570
85985W        W51146  12.743  40.492   0.898
85986W        W51147  29.908   7.721   3.392
85987W        W51148   3.712   3.023   2.628
85988W        W51149   0.307  33.142   1.472
85989W        W51150  18.485  44.798   1.853
85990W        W51151   4.277  21.833  12.392
85991W        W51152  40.523   6.926  14.303
85992W        W51153   2.362   0.963  12.120
85993W        W51154  19.541  18.196   4.192
85994W        W51155  18.692  17.661   2.937
85995W        W51156  17.608   5.794  10.666
85996W        W51157  19.517  36.914  13.890
85997W        W51158  34.951   0.014  14.374
85998W        W51159  15.528   9.264   2.840
85999W        W51160  15.827   2.815   2.359
86000W        W51161  24.198   1.659  13.261
86001W        W51162  16.049  40.457   2.453
86002W        W51163  35.881  10.823   4.092
86003W        W51164  33.724  31.195   2.794
86004W        W51165  38.843  36.964   2.644
86005W        W51166  33.894  18.100  12.123
86006W        W51167  21.658  28.354  12.766
86007W        W51168  23.040  43.071   5.095
86008W        W51169   6.716  36.823   4.702
86009W        W51170  14.896  20.091   4.056
86010W        W51171  41.936  33.407   0.386
86011W        W51172  17.530   0.801   2.757
86012W        W51173  42.438  38.604  12.526
86013W        W51174  35.521  30.858   2.932
86014W        W51175  39.843  21.716  14.482
86015W        W51176  29.122   9.162   4.287
86016W        W51177  12.698  24.142  12.875
86017W        W51178  21.791  23.026   0.441
86018W        W51179  40.449  20.580  11.164
86019W        W51180  11.216   7.303  12.640
86020W        W51181  37.520  37.478   2.270
86021W        W51182  21.765  11.279  14.919
86022W        W51183  44.802   0.059   1.722
86023W        W51184   0.433  21.523   0.663
86024W        W51185   8.315  16.671  10.392
86025W        W51186  38.219  19.611   5.001
86026W        W51187   8.742  34.162  14.383
86027W        W51188  32.184  12.297   2.019
86028W        W51189  29.530  25.343  14.078
86029W        W51190   9.659  43.896   3.733
86030W        W51191   5.497  37.019  12.650
86031W        W51192  29.994  30.897   0.315
86032W        W51193   2.061  13.293  12.894
86033W        W51194  15.516  26.561   0.803
86034W        W51195   3.726  14.291  14.581
86035W        W51196  17.476  18.175  11.597
86036W        W51197  17.477  20.130  10.678
86037W        W51198   7.395  34.605   1.785
86038W        W51199  39.470  34.399   2.414
86039W        W51200  30.080  31.172   2.775
86040W        W51201   6.342  12.319   1.644
86041W        W51202  23.990   4.228  13.873
86042W        W51203  38.043  43.760   3.252
86043W        W51204  34.156  18.214   0.952
86044W        W51205  12.157  19.634  13.057
86045W        W51206  16.267  19.510  10.460
86046W        W51207  17.077  16.783   2.337
86047W        W51208  41.732   2.436   0.312
86048W        W51209  19.715  36.952   4.427
86049W        W51210  22.620  37.099   1.426
86050W        W51211  12.359  16.885  14.806
86051W        W51212  26.495  22.062   0.791
86052W        W51213   1.701  44.505  12.095
86053W        W51214  35.504  40.327  14.397
86054W        W51215  12.686  16.596  10.781
86055W        W51216  20.168  15.378   4.134
86056W        W51217  13.130   7.806  12.798
86057W        W51218  33.543  26.117  10.729
86058W        W51219  40.918  13.371   2.334
86059W        W51220  34.207  27.532  11.626
86060W        W51221  33.313  21.074  11.892
86061W        W51222  15.129  15.095  12.417
86062W        W51223  24.328  26.773   4.552
86063W        W51224  34.467  21.713   2.883
86064W        W51225  10.160  33.974   5.188
86065W        W51226  30.492  10.391   2.992
86066W        W51227  15.545  33.124   1.395
86067W        W51228  13.315  20.560  11.431
86068W        W51229  22.618  42.043   1.165
86069W        W51230   9.797  37.245  14.253
86070W        W51231  42.012  36.961  14.382
86071W        W51232  44.394  26.331  14.301
86072W        W51233  33.385  41.222   1.545
86073W        W51234  27.575  24.510   3.655
86074W        W51235  42.043  13.156   0.301
86075W        W51236  24.011   9.294  13.801
86076W        W51237   0.026  20.146  14.474
86077W        W51238  41.236  40.650  13.997
86078W        W51239  14.091  36.673  11.613
86079W        W51240  16.799  31.417  14.800
86080W        W51241  29.318   5.023  11.494
86081W        W51242  14.644  42.870   0.948
86082W        W51243  43.883  12.109  11.176
86083W        W51244  44.815  18.284   1.956
86084W        W51245  15.210   9.172  14.813
86085W        W51246  41.788   7.900   2.753
86086W        W51247  24.220  22.054  12.499
86087W        W51248   6.667  24.732  14.634
86088W        W51249  22.542   2.045  13.956
86089W        W51250  32.660  43.605   1.210
86090W        W51251  31.619  39.385   2.733
86091W        W51252   7.955  10.509  11.261
86092W        W51253  42.289  28.286   1.768
86093W        W51254   1.661  35.966  11.944
86094W        W51255  25.963  21.078  12.860
86095W        W51256  25.213  41.317  10.672
86096W        W51257  17.882  22.571  12.925
86097W        W51258  31.756   4.354  13.663
86098W        W51259  37.784  29.439  11.540
86099W        W51260  14.353  27.244  14.355
86100W        W51261  17.568   2.553   0.786
86101W        W51262  41.811  39.624   4.149
86102W        W51263  17.676  41.020  13.914
86103W        W51264   7.152  27.215   4.773
86104W        W51265   2.259   8.774   1.312
86105W        W51266  15.929  27.159   2.885
86106W        W51267  38.945   0.124  12.475
86107W        W51268  31.865  44.525  13.891
86108W        W51269  33.046   3.022  12.054
86109W        W51270   7.351  16.144  12.608
86110W        W51271  37.239  31.028  10.841
86111W        W51272  15.027  40.955  13.991
86112W        W51273  19.661  28.664   1.277
86113W        W51274  31.970  30.440   1.718
86114W        W51275   8.834  26.739  13.457
86115W        W51276   7.901  25.455  14.550
86116W        W51277  43.493  37.780   4.076
86117W        W51278  33.984  35.377  10.340
86118W        W51279   7.511   3.033  14.767
86119W        W51280  21.024  21.240   2.090
86120W        W51281  32.762  37.698  12.967
86121W        W51282   5.766  12.935  11.059
86122W        W51283   1.845  42.551  14.312
86123W        W51284  30.407  25.428  12.333
86124W        W51285  34.328  16.239   4.059
86125W        W51286  28.698  14.563   5.013
86126W        W51287  39.901  12.119  14.480
86127W        W51288  26.794  14.197   4.456
86128W        W51289  36.451  36.132  11.251
86129W        W51290  12.733  24.910  13.503
86130W        W51291   0.965  25.934  13.942
86131W        W51292   7.419  18.320  13.273
86132W        W51293   1.261  20.760   1.638
86133W        W51294  13.740  38.749  12.049
86134W        W51295  10.595  33.464   1.581
86135W        W51296  36.624  22.738  14.422
86136W        W51297  18.569  33.380   3.481
86137W        W51298  15.378  41.960  14.528
86138W        W51299  14.901  42.786  14.343
86139W        W51300  29.104   0.801   0.676
86140W        W51301  19.583  26.055  14.552
86141W        W51302  29.555  15.831   1.387
86142W        W51303   8.044  40.809   3.710
86143W        W51304  27.468  23.633  13.978
86144W        W51305  38.008  37.009   0.094
86145W        W51306  12.867  20.942  14.171
86146W        W51307  37.152   4.892  13.421
86147W        W51308  37.058   4.995   3.150
86148W        W51309  33.216  38.359  11.485
86149W        W51310  17.008   2.374   1.263
86150W        W51311  10.918  35.959   1.889
86151W        W51312  31.911   5.530   0.698
86152W        W51313   9.650  35.334   1.805
86153W        W51314  36.602  13.660   1.856
86154W        W51315  35.149  27.160  14.304
86155W        W51316  16.869  20.259  12.619
86156W        W51317   5.010  27.612   1.169
86157W        W51318  15.251   4.877   2.976
86158W        W51319  38.511  26.409  13.361
86159W        W51320  43.863  41.562  13.848
86160W        W51321   5.288  22.611  11.363
86161W        W51322  30.229  13.829   0.326
86162W        W51323  30.578  44.057  13.317
86163W        W51324  29.718   3.981   1.927
86164W        W51325  36.875  44.454   0.861
86165W        W51326  29.658  40.275   4.145
86166W        W51327  43.950  41.718  10.240
86167W        W51328  12.731  36.334   2.939
86168W        W51329   4.606  37.497  10.723
86169W        W51330  15.070  43.646   2.802
86170W        W51331  37.994  33.128   0.735
86171W        W51332  17.879   8.400   3.697
86172W        W51333  18.826  28.666  12.045
86173W        W51334  24.070  25.305   0.660
86174W        W51335  29.666  38.403  14.312
86175W        W51336   6.773  21.721  14.473
86176W        W51337  14.811  11.693  11.953
86177W        W51338   1.822  44.883   0.960
86178W        W51339  14.582  36.580   0.556
86179W        W51340  13.799  30.500   0.964
86180W        W51341   8.680  17.433  11.703
86181W        W51342  34.583  42.429   1.756
86182W        W51343  38.438  29.451  13.479
86183W        W51344  34.466   4.345   4.337
86184W        W51345  12.164   7.667  11.590
86185W        W51346   2.939   2.307   0.948
86186W        W51347  10.294   5.935   1.021
86187W        W51348  12.081   4.751  13.517
86188W        W51349  41.298  29.671   1.449
86189W        W51350  24.677   4.224   2.465
86190W        W51351  22.194  44.768   3.639
86191W        W51352   9.493  36.086   3.109
86192W        W51353  37.378  26.539  11.260
86193W        W51354  21.684  29.293  11.986
86194W        W51355  16.755   1.354  13.831
86195W        W51356  29.529   2.509  13.914
86196W        W51357   7.263  40.938   4.404
86197W        W51358  14.236  13.608  13.919
86198W        W51359  41.927  22.648  13.357
86199W        W51360  28.418  25.183  11.642
86200W        W51361   3.671  19.482   2.120
86201W        W51362   7.782  18.261   1.443
86202W        W51363  28.733  37.820   5.120
86203W        W51364  25.102   3.962   3.548
86204W        W51365  10.236   7.793   2.131
86205W        W51366  16.311  40.802  11.640
86206W        W51367  26.407  22.840   4.153
86207W        W51368  19.090  29.098  11.938
86208W        W51369  32.014  26.518  13.845
86209W        W51370  43.526  27.102  13.916
86210W        W51371   5.130  13.259  11.224
86211W        W51372  19.682   0.221  14.022
86212W        W51373  28.967   3.485  12.444
86213W        W51374  32.603  33.056   0.279
86214W        W51375   6.286  17.824   4.260
86215W        W51376  31.682   3.437   1.237
86216W        W51377  28.068  29.031   3.893
86217W        W51378  32.518  12.621  14.972
86218W        W51379  34.819  28.657  12.846
86219W        W51380  20.915  44.020  14.188
86220W        W51381  30.871  10.206   1.606
86221W        W51382  27.757  43.559   0.629
86222W        W51383  42.913  40.674   2.594
86223W        W51384  35.895  26.242  12.081
86224W        W51385  29.627   6.297  13.090
86225W        W51386  10.319  44.790  10.478
86226W        W51387  22.196  43.795   0.988
86227W        W51388  41.587   1.803   3.194
86228W        W51389  42.467  21.186  12.630
86229W        W51390  18.373   4.740   1.731
86230W        W51391  41.782   2.365  14.511
86231W        W51392  39.762  22.503  12.655
86232W        W51393  14.976  44.950   4.648
86233W        W51394  31.953  39.621  11.664
86234W        W51395  29.434  18.088  11.134
86235W        W51396   2.238  40.847   4.138
86236W        W51397   9.792  10.510  11.136
86237W        W51398  41.886   6.003   4.530
86238W        W51399  44.260  26.447  13.799
86239W        W51400  42.585   5.089   2.457
86240W        W51401  13.353  18.058  12.532
86241W        W51402  20.306  19.726   1.277
86242W        W51403   1.677  26.515   1.983
86243W        W51404  12.782  17.640  11.958
86244W        W51405  17.215  12.767   4.400
86245W        W51406  28.407  29.660   5.060
86246W        W51407   9.520  43.810  13.837
86247W        W51408   5.608  24.163   2.454
86248W        W51409  38.999  26.795  12.068
86249W        W51410   8.865  25.194  12.653
86250W        W51411  34.278  24.654   0.890
86251W        W51412  33.536  22.267  12.865
86252W        W51413  18.793   6.441  13.708
86253W        W51414  35.624   7.940  12.874
86254W        W51415  17.343  22.020   4.526
86255W        W51416   7.376  22.353   4.012
86256W        W51417  36.454   9.436  11.178
86257W        W51418  31.603  34.025   1.193
86258W        W51419  33.104  16.737  11.616
86259W        W51420  32.725  23.696   1.249
86260W        W51421  23.918  44.963  14.421
86261W        W51422  30.162  39.006  13.481
86262W        W51423  35.494   6.774   4.663
86263W        W51424  13.795  36.076   0.411
86264W        W51425   1.887  39.800   1.393
86265W        W51426   7.880  38.815   0.913
86266W        W51427  42.834  34.044  12.414
86267W        W51428  32.041  18.093   4.180
86268W        W51429   4.805   9.158  11.592
86269W        W51430  43.186  40.337   1.837
86270W        W51431   5.642  24.165   3.951
86271W        W51432  38.495  39.283  12.056
86272W        W51433  26.089  17.175  12.125
86273W        W51434  33.840  11.240   1.661
86274W        W51435  15.515  19.810  10.389
86275W        W51436  22.858   0.981   3.109
86276W        W51437  44.263  12.568   3.201
86277W        W51438  30.181  41.450  10.628
86278W        W51439   2.738  42.895   1.854
86279W        W51440   0.245  26.078  14.628
86280W        W51441  24.528  27.971  14.414
86281W        W51442  25.514  28.382   4.472
86282W        W51443  33.494   6.627   0.866
86283W        W51444  25.685  30.575  10.490
86284W        W51445  41.757  25.498  13.424
86285W        W51446  24.184  38.637  12.572
86286W        W51447  14.213  10.222   4.045
86287W        W51448  28.465  39.031  14.747
86288W        W51449  14.413  41.713  14.089
86289W        W51450  10.668  24.949   3.703
86290W        W51451  13.786  28.592  11.138
86291W        W51452   9.813  29.161   0.662
86292W        W51453  37.429  11.874   4.055
86293W        W51454  19.493  27.540  13.789
86294W        W51455   7.735  17.190  11.367
86295W        W51456  12.170  39.817  14.550
86296W        W51457  40.401  15.012  14.342
86297W        W51458   6.384  22.614   4.440
86298W        W51459  24.970  21.866   2.190
86299W        W51460   0.226  21.057  14.876
86300W        W51461  25.134  42.732  12.550
86301W        W51462  35.798   6.453  10.834
86302W        W51463  37.642  21.229  13.099
86303W        W51464   2.026  28.157  13.521
86304W        W51465   4.249  19.978   2.794
86305W        W51466  42.272   6.691  14.951
86306W        W51467  20.193  38.946   2.481
86307W        W51468  26.989   2.435   2.827
86308W        W51469  43.534  44.538   2.711
86309W        W51470  33.523  25.625   1.376
86310W        W51471   7.292   0.744   4.588
86311W        W51472  26.002  42.450  13.079
86312W        W51473   3.945  28.754   2.384
86313W        W51474  19.050  39.082  10.974
86314W        W51475  32.095  20.167   1.378
86315W        W51476  10.738  28.803   3.629
86316W        W51477   9.150  37.389  13.924
86317W        W51478  36.472  19.675   0.252
86318W        W51479  10.895  38.838  13.453
86319W        W51480  23.107  24.213   0.956
86320W        W51481  24.324  44.361  10.644
86321W        W51482  30.526  17.776  10.799
86322W        W51483  38.957  38.170   4.129
86323W        W51484  43.062  24.017   3.461
86324W        W51485  26.222  26.763   0.309
86325W        W51486  18.639  30.593   1.907
86326W        W51487  35.144   7.252  11.579
86327W        W51488   5.037  32.000  14.714
86328W        W51489  25.672  10.398   2.733
86329W        W51490  37.315  42.765  13.722
86330W        W51491  15.134   4.880  11.752
86331W        W51492  18.477  36.922   1.251
86332W        W51493  26.191  26.225   3.768
86333W        W51494   3.760  33.336  13.955
86334W        W51495  44.589  41.021  11.432
86335W        W51496   7.423  42.881  13.969
86336W        W51497  25.412  10.869   2.706
86337W        W51498  35.327  19.044  12.517
86338W        W51499  12.598  29.116  14.013
86339W        W51500  29.424  16.442   2.873
86340W        W51501  27.721  17.158   1.895
86341W        W51502  21.132  19.855   1.774
86342W        W51503  17.339   9.351   4.155
86343W        W51504  31.819  13.067  14.787
86344W        W51505  25.068   0.474   4.521
86345W        W51506  13.633  15.259  12.619
86346W        W51507  15.124  25.370  14.595
86347W        W51508  21.110  11.866  11.541
86348W        W51509  13.686  40.457   1.989
86349W        W51510  18.736  21.725   3.654
86350W        W51511  34.171  41.175  14.938
86351W        W51512   3.226  16.590   3.166
86352W        W51513  18.809   0.759   3.303
86353W        W51514  29.105  40.476  14.496
86354W        W51515  12.624  24.618  13.076
86355W        W51516  42.467  13.467   0.274
86356W        W51517  24.923  35.115   2.322
86357W        W51518  17.916  39.454  13.032
86358W        W51519  33.233  21.705   2.180
86359W        W51520   9.300  13.408   3.364
86360W        W51521  36.561  12.224  13.973
86361W        W51522  44.185  36.121  13.179
86362W        W51523  18.066  36.622  12.121
86363W        W51524  24.051   3.789  14.399
86364W        W51525  23.790  38.131   5.473
86365W        W51526  42.836  20.164  13.527
86366W        W51527  15.202   8.801   1.695
86367W        W51528  25.075  42.459   1.653
86368W        W51529  25.732  32.590  12.035
86369W        W51530   7.778   0.329   1.399
86370W        W51531   0.439  36.862   3.135
86371W        W51532  12.718  16.564   2.830
86372W        W51533  30.604  27.793  12.021
86373W        W51534  37.341  42.848  13.229
86374W        W51535  10.060   6.161   4.049
86375W        W51536  35.311  23.949   3.635
86376W        W51537  18.113  18.686  14.068
86377W        W51538   1.322  32.824  11.059
86378W        W51539   8.866   0.448   4.786
86379W        W51540  14.094  11.182  14.110
86380W        W51541  36.846   0.930  10.833
86381W        W51542  34.881   8.741   4.692
86382W        W51543  44.402   1.058  12.835
86383W        W51544  39.849  36.594  10.840
86384W        W51545  11.458  17.444  12.544
86385W        W51546  17.590  17.005   3.194
86386W        W51547  39.512   2.363  11.879
86387W        W51548  29.884  27.511  11.199
86388W        W51549  29.163  37.043   4.673
86389W        W51550  23.455  44.755   1.681
86390W        W51551  36.765  26.005  11.113
86391W        W51552  11.924  44.242  11.226
86392W        W51553  43.088  12.632  12.468
86393W        W51554  19.706  12.889   2.722
86394W        W51555  32.057   4.100   4.851
86395W        W51556   7.915  44.125  12.912
86396W        W51557  12.136  27.142  12.023
86397W        W51558   7.604  22.746  14.667
86398W        W51559  24.619   7.418  13.512
86399W        W51560   7.646  35.491  12.492
86400W        W51561  33.151  23.146  14.871
86401W        W51562  40.816   9.874   2.990
86402W        W51563  29.020  23.224  13.567
86403W        W51564  31.098  21.749  12.993
86404W        W51565  21.570  27.840  14.572
86405W        W51566   3.655  40.837   3.678
86406W        W51567  26.645   7.710  14.475
86407W        W51568  40.860  23.770  12.251
86408W        W51569  27.409  18.759  13.333
86409W        W51570  42.283  22.166  13.878
86410W        W51571  22.799  12.667   2.778
86411W        W51572  16.481  18.101  11.732
86412W        W51573  40.760   9.606   4.274
86413W        W51574  32.845   7.340   0.322
86414W        W51575  17.105  30.118  13.565
86415W        W51576   8.293  39.456  10.718
86416W        W51577  21.497  11.231   3.724
86417W        W51578  36.964  15.403   0.849
86418W        W51579  22.780  10.627   1.471
86419W        W51580  13.090  25.426   0.646
86420W        W51581  30.523  33.899  14.999
86421W        W51582  38.824  15.042  11.551
86422W        W51583  14.094  37.890  12.025
86423W        W51584  44.227  16.015  13.507
86424W        W51585  27.675  40.955   1.874
86425W        W51586   1.502  40.851   3.450
86426W        W51587  18.515   7.936  12.628
86427W        W51588  37.310  22.164   3.834
86428W        W51589  23.160  20.947   1.848
86429W        W51590  13.250  42.888   2.419
86430W        W51591  29.903  17.353  14.434
86431W        W51592  23.028  25.128   9.949
86432W        W51593  22.660  33.739   0.834
86433W        W51594  40.452  15.112   0.970
86434W        W51595  40.035  31.384  11.990
86435W        W51596   5.701  20.080  11.604
86436W        W51597  13.589  24.596  11.090
86437W        W51598  33.379  39.849   2.785
86438W        W51599   1.426  39.416   1.515
86439W        W51600  41.334   7.204   0.807
86440W        W51601  36.080  37.073   4.234
86441W        W51602  37.451  16.754   1.703
86442W        W51603  13.937  31.535   4.696
86443W        W51604  35.661  39.355  11.894
86444W        W51605   6.952   0.944  11.166
86445W        W51606  43.083  26.382   0.035
86446W        W51607  37.299   2.387  11.174
86447W        W51608  20.486  44.775   1.484
86448W        W51609  14.682  16.627  11.400
86449W        W51610  11.738   0.343   4.187
86450W        W51611  22.142  20.268   3.665
86451W        W51612  28.340  30.336   1.291
86452W        W51613   1.886  20.715  12.616
86453W        W51614  12.254  11.343   1.727
86454W        W51615  31.642   6.256  11.505
86455W        W51616  35.542   0.515  11.338
86456W        W51617  31.526   5.837   1.486
86457W        W51618  14.703  40.138  13.107
86458W        W51619  35.022  18.218   2.553
86459W        W51620   8.160  14.233   0.827
86460W        W51621  30.208  41.468   0.496
86461W        W51622  26.131  38.834  12.396
86462W        W51623   1.879  41.983   1.054
86463W        W51624  16.778  22.643  14.269
86464W        W51625  23.303   1.166   0.475
86465W        W51626  17.149  22.698   5.034
86466W        W51627   8.773  15.711  12.563
86467W        W51628  25.740   0.429   3.237
86468W        W51629  20.437  36.198  12.962
86469W        W51630  28.344  41.041   0.761
86470W        W51631  36.457  34.153   3.227
86471W        W51632  36.353  39.031   2.795
86472W        W51633  20.669  34.627   4.079
86473W        W51634  39.019  29.504   3.930
86474W        W51635  34.266  41.405   2.719
86475W        W51636   6.244  43.049  10.583
86476W        W51637  30.688  30.502   1.321
86477W        W51638  25.651  35.759   3.195
86478W        W51639  39.970  19.928  12.918
86479W        W51640  12.595  35.928  14.503
86480W        W51641  30.070  23.507  12.850
86481W        W51642  27.984  30.027   1.555
86482W        W51643   9.192  24.407  10.179
86483W        W51644  32.533  25.647  11.388
86484W        W51645  14.754  32.879  12.072
86485W        W51646   8.553  32.482   0.349
86486W        W51647  25.753  22.664  13.032
86487W        W51648   4.022  24.308   1.731
86488W        W51649  38.589  18.624  14.856
86489W        W51650  33.310  12.579  12.219
86490W        W51651   9.445   7.207   0.369
86491W        W51652   8.322   4.226   3.300
86492W        W51653  34.352   2.981   3.703
86493W        W51654   5.328  29.207  11.941
86494W        W51655  21.127  43.911   1.405
86495W        W51656  21.211  30.067   2.021
86496W        W51657   7.353  33.905   1.237
86497W        W51658  44.983  44.457   0.971
86498W        W51659  38.767   7.748  11.215
86499W        W51660  32.079  17.651  14.845
86500W        W51661  44.752  12.033   3.211
86501W        W51662   7.849  40.385   4.779
86502W        W51663  40.710   7.752  11.133
86503W        W51664  43.294  13.794   2.345
86504W        W51665  26.208  28.707   2.312
86505W        W51666   0.284  38.793   2.475
86506W        W51667  27.753  15.374   2.333
86507W        W51668  11.619  10.376  12.598
86508W        W51669  26.638  31.411  14.355
86509W        W51670  12.599   1.786  13.303
86510W        W51671  17.063  11.578  14.353
86511W        W51672  33.456  29.011   3.595
86512W        W51673  43.600  37.942   3.593
86513W        W51674   7.356  27.454  11.809
86514W        W51675  13.923  36.347  12.001
86515W        W51676  13.058  34.798  12.474
86516W        W51677   7.666  12.227  10.860
86517W        W51678  33.450  23.523  13.586
86518W        W51679  35.446  31.116  11.136
86519W        W51680  26.721  39.796   1.172
86520W        W51681  14.867   9.821   0.796
86521W        W51682   6.971  20.997  10.728
86522W        W51683  26.600   2.432   0.616
86523W        W51684  20.885  21.739   3.587
86524W        W51685  24.054   4.730   2.380
86525W        W51686   3.339  32.438   0.451
86526W        W51687  36.919   0.916   4.589
86527W        W51688   7.423   6.114   0.782
86528W        W51689  36.046   2.734  11.156
86529W        W51690   7.641  14.876  12.289
86530W        W51691   1.429   5.215  13.908
86531W        W51692   7.225  13.832  12.514
86532W        W51693   5.654  21.157   0.742
86533W        W51694  30.533  20.804  14.753
86534W        W51695  29.607  40.342   0.742
86535W        W51696  30.080  35.893  14.290
86536W        W51697  27.620  12.237  10.824
86537W        W51698  14.737  21.350  13.906
86538W        W51699   7.440  39.424   4.080
86539W        W51700   5.750  31.055   1.950
86540W        W51701  10.594  34.556  11.983
86541W        W51702  11.168  25.160   1.673
86542W        W51703  43.849  20.194  14.900
86543W        W51704  21.292  41.687   0.831
86544W        W51705  27.523  10.747   1.213
86545W        W51706  41.036   9.430   3.832
86546W        W51707   7.423   4.964  13.493
86547W        W51708  33.125  23.147  13.787
86548W        W51709  18.817  19.999   0.864
86549W        W51710  29.211  31.325   2.583
86550W        W51711  17.278  39.032  12.125
86551W        W51712  17.376  13.170   4.100
86552W        W51713  21.161  12.392  11.616
86553W        W51714  40.788   9.636  13.176
86554W        W51715  44.172  39.532  10.988
86555W        W51716  22.804   2.337   4.429
86556W        W51717  43.559  38.995   1.632
86557W        W51718  30.658  29.808  13.695
86558W        W51719  25.651   5.671  12.466
86559W        W51720  31.412  26.506   2.855
86560W        W51721  31.880   1.572   2.761
86561W        W51722  11.979  28.198  12.274
86562W        W51723  41.854  28.162   0.341
86563W        W51724  26.949  25.064   4.972
86564W        W51725  16.103  25.527   1.867
86565W        W51726  42.271  38.397   0.509
86566W        W51727  12.859  21.173  12.550
86567W        W51728  19.286   8.828  11.910
86568W        W51729  34.024   3.415   3.206
86569W        W51730  25.460  37.505   1.800
86570W        W51731  28.228  32.349   2.428
86571W        W51732  24.931  18.386  10.816
86572W        W51733   0.888  21.471   3.605
86573W        W51734  41.933  18.123   1.716
86574W        W51735   1.500  35.804   1.670
86575W        W51736   0.869  30.929   1.754
86576W        W51737  39.409  11.333  12.008
86577W        W51738   5.448   6.786   2.769
86578W        W51739  22.084  10.624  12.478
86579W        W51740  36.502  25.788   2.711
86580W        W51741  27.120  19.860  10.476
86581W        W51742  23.199  34.538   4.630
86582W        W51743   5.774   6.345  14.331
86583W        W51744  37.198  39.162  11.113
86584W        W51745  31.392  14.006   3.725
86585W        W51746  33.391  14.347   4.725
86586W        W51747   2.872  29.173  10.371
86587W        W51748  19.291  42.051  12.485
86588W        W51749  33.076  43.949   4.602
86589W        W51750  15.679   0.858   0.625
86590W        W51751  33.670   0.869   4.334
86591W        W51752  35.672  19.700   4.393
86592W        W51753  38.006  19.284  13.915
86593W        W51754  32.097  33.172   0.311
86594W        W51755  39.254  34.725   3.212
86595W        W51756   9.513   5.821  12.385
86596W        W51757  22.158  41.433   0.818
86597W        W51758   3.740  11.900  13.106
86598W        W51759  16.583   5.322   0.021
86599W        W51760  31.744  15.122   5.255
86600W        W51761  21.428  10.297   0.078
86601W        W51762  24.005  17.235  12.060
86602W        W51763  32.628  23.153   1.363
86603W        W51764  25.014   5.935   0.938
86604W        W51765   1.785   7.284   1.825
86605W        W51766  33.628  23.078  13.924
86606W        W51767  41.063   6.305   0.846
86607W        W51768  24.075  18.727   1.730
86608W        W51769  19.079  27.916  13.408
86609W        W51770  41.943  42.979  13.952
86610W        W51771  19.138  40.375   5.135
86611W        W51772  25.131   3.723  12.867
86612W        W51773  27.454   2.320  14.839
86613W        W51774  13.904  29.171  14.387
86614W        W51775  41.594  29.068  11.560
86615W        W51776   2.940  29.446   2.808
86616W        W51777  22.800  40.574  13.075
86617W        W51778  15.634  42.046   1.922
86618W        W51779  34.926  35.109  13.006
86619W        W51780  32.017  36.497   2.619
86620W        W51781   2.727  28.012  12.003
86621W        W51782  25.521   7.742   0.768
86622W        W51783  33.663  15.391   2.135
86623W        W51784  27.470  10.656  10.647
86624W        W51785  43.038  17.208  11.869
86625W        W51786  39.946  10.881  14.599
86626W        W51787   7.510  39.591   3.564
86627W        W51788   5.552   1.242  13.349
86628W        W51789  17.598  23.070  12.063
86629W        W51790  33.037   4.875   2.748
86630W        W51791  35.008  36.970   1.958
86631W        W51792  25.077  37.201   0.645
86632W        W51793   9.753  12.403  14.878
86633W        W51794  11.048  36.336  14.286
86634W        W51795  31.265   1.651   3.228
86635W        W51796   6.485  33.543  12.871
86636W        W51797  37.578  36.339   3.650
86637W        W51798  14.089  34.894   5.079
86638W        W51799  24.266  35.922   0.900
86639W        W51800   5.708  25.679   3.693
86640W        W51801   5.756  12.988   0.321
86641W        W51802  43.925  28.428  12.394
86642W        W51803   6.166  18.058   2.786
86643W        W51804  44.309  32.700  12.531
86644W        W51805  23.138  14.596  11.507
86645W        W51806  15.117  30.557   4.221
86646W        W51807  22.416   6.835   4.995
86647W        W51808   3.552  26.539  11.662
86648W        W51809  27.065   0.461  10.665
86649W        W51810  19.093   4.575   1.381
86650W        W51811  38.502   8.019   2.776
86651W        W51812  12.618  14.640   1.775
86652W        W51813  21.697   5.473  14.276
86653W        W51814  41.460  10.202   0.901
86654W        W51815   5.373  43.284  12.983
86655W        W51816  41.505  40.514  13.556
86656W        W51817  25.725  16.760  12.106
86657W        W51818  23.999  21.505  14.508
86658W        W51819  24.718  27.150   2.698
86659W        W51820   9.108   8.038   2.536
86660W        W51821  10.490  20.327  13.863
86661W        W51822   0.935  31.558   2.859
86662W        W51823  42.540  28.156  14.874
86663W        W51824  42.854  40.533   0.705
86664W        W51825  36.086   1.187   1.328
86665W        W51826  24.119  33.068  13.539
86666W        W51827  19.013  18.592   2.231
86667W        W51828  11.245  29.567  14.361
86668W        W51829  19.548   7.268  11.191
86669W        W51830  43.973  18.663   0.741
86670W        W51831  36.533  14.922  12.034
86671W        W51832  21.497  16.278  12.641
86672W        W51833  26.094  30.167   2.006
86673W        W51834  12.371  38.864   3.051
86674W        W51835  28.614  20.769  14.887
86675W        W51836  40.939  20.021   2.861
86676W        W51837  26.105  22.747  14.823
86677W        W51838  17.537   0.492   2.348
86678W        W51839  41.267  26.604  11.073
86679W        W51840  43.655  40.261   5.098
86680W        W51841  11.303  33.478   3.174
86681W        W51842  16.331  31.722   0.680
86682W        W51843  32.679   4.796   3.606
86683W        W51844  11.749  14.893  10.601
86684W        W51845   5.403  31.606  14.839
86685W        W51846  16.107   2.963   1.882
86686W        W51847  42.837  32.524   3.899
86687W        W51848  22.294  36.314  14.018
86688W        W51849  44.919  19.782   2.695
86689W        W51850  38.097  19.635   2.745
86690W        W51851  31.852   5.273  14.023
86691W        W51852  39.291  30.162   1.448
86692W        W51853  13.797  40.993   3.228
86693W        W51854  36.371  25.021  14.122
86694W        W51855  33.664  33.440   2.143
86695W        W51856   9.933  40.313  11.898
86696W        W51857   7.696  32.530  12.000
86697W        W51858   3.188  39.379   4.001
86698W        W51859  18.556  10.357   4.226
86699W        W51860  25.602  36.493   1.696
86700W        W51861  33.311   7.215   4.416
86701W        W51862  38.994  34.636   0.963
86702W        W51863  15.205   3.197   3.715
86703W        W51864   6.737  19.759   0.523
86704W        W51865   7.059  37.393   2.178
86705W        W51866  15.081   9.227   1.966
86706W        W51867  12.769   1.828  12.813
86707W        W51868  35.289  24.427   1.866
86708W        W51869   4.901  36.377  11.558
86709W        W51870  33.619  12.230  12.921
86710W        W51871   6.219  19.207   1.242
86711W        W51872  28.650  27.002   2.229
86712W        W51873  42.654  35.349  13.977
86713W        W51874  39.770  15.356  14.807
86714W        W51875  39.923  17.137  14.455
86715W        W51876  27.825  19.577   0.965
86716W        W51877  23.067  20.025  12.826
86717W        W51878  37.598   5.106  14.063
86718W        W51879  10.340  22.428   0.472
86719W        W51880   7.709  44.719   0.250
86720W        W51881  34.360  34.865  11.499
86721W        W51882  39.019  37.287  10.987
86722W        W51883  10.737   3.581   0.309
86723W        W51884  17.987   4.655   4.138
86724W        W51885  32.665  20.550  14.970
86725W        W51886  40.830  14.746   0.427
86726W        W51887  29.957  43.200   2.097
86727W        W51888  25.767  40.000  11.096
86728W        W51889  22.552  29.687   1.710
86729W        W51890   1.780   5.684  11.603
86730W        W51891  16.310  10.294   4.712
86731W        W51892  37.300  26.222   0.812
86732W        W51893  42.471  29.465  13.018
86733W        W51894  32.906  32.827   3.524
86734W        W51895  38.024  10.357   2.674
86735W        W51896  31.000  22.744   3.484
86736W        W51897  31.412   0.151  13.054
86737W        W51898  40.027  38.197  14.049
86738W        W51899  21.762  12.162   2.654
86739W        W51900  37.575  40.767  12.982
86740W        W51901  16.149  31.867   1.708
86741W        W51902   0.476  36.506  12.034
86742W        W51903  26.639  38.208   2.979
86743W        W51904  37.827  25.727   0.233
86744W        W51905   4.634   5.168   1.382
86745W        W51906  21.982   7.058  12.353
86746W        W51907  33.057  23.947  13.256
86747W        W51908  23.839  10.344  11.097
86748W        W51909  44.325  35.529   2.844
86749W        W51910  25.898  21.749   1.390
86750W        W51911  30.894  12.660  12.833
86751W        W51912  19.240  14.917  12.375
86752W        W51913   3.014  41.983  11.566
86753W        W51914  42.512  10.634   1.397
86754W        W51915  17.948  19.857  13.052
86755W        W51916  37.071  41.382   3.606
86756W        W51917  21.486  30.556  12.574
86757W        W51918   7.208  32.752  12.027
86758W        W51919  42.775  16.377  11.482
86759W        W51920  26.986  29.369   1.171
86760W        W51921   5.618  44.250  14.379
86761W        W51922  40.067   1.911   0.098
86762W        W51923  38.109   5.613  12.488
86763W        W51924  11.068  37.601  14.288
86764W        W51925  30.140  38.586  14.333
86765W        W51926  38.513  22.054   1.307
86766W        W51927  13.324  29.614  11.652
86767W        W51928  40.981  35.868  13.991
86768W        W51929   7.434  35.097  14.885
86769W        W51930  18.940  32.432   1.880
86770W        W51931  29.549  36.479  14.533
86771W        W51932  20.356  33.705   3.719
86772W        W51933   0.358  18.157  14.316
86773W        W51934  44.407  23.737  14.293
86774W        W51935  28.420  39.344   2.954
86775W        W51936  12.960  39.981  13.340
86776W        W51937   0.947  15.770  11.693
86777W        W51938  24.008  16.755   2.913
86778W        W51939  17.760  26.059   3.201
86779W        W51940  42.162   1.525  11.182
86780W        W51941  30.625  42.961  14.102
86781W        W51942  13.475  23.731  12.970
86782W        W51943  27.446   2.432   2.577
86783W        W51944  43.823  44.717   0.772
86784W        W51945  25.052  40.342   1.071
86785W        W51946  33.141  12.753   0.998
86786W        W51947  37.358  28.171  11.979
86787W        W51948  29.466  43.907   3.590
86788W        W51949  34.083  30.497  14.858
86789W        W51950   5.844  28.889  13.931
86790W        W51951  37.540  30.592   3.323
86791W        W51952  36.818  23.256   1.932
86792W        W51953  35.415  40.100   0.766
86793W        W51954   9.635  11.334   4.617
86794W        W51955  19.106  36.941  11.524
86795W        W51956  42.544  21.242  11.660
86796W        W51957  10.177   7.119  10.466
86797W        W51958  10.419  11.271  13.325
86798W        W51959  43.819   7.084   0.786
86799W        W51960  37.946  17.259   0.147
86800W        W51961  31.195  18.536  14.021
86801W        W51962   3.705  39.471   4.661
86802W        W51963  13.855  30.897  10.647
86803W        W51964  10.288  16.064   4.109
86804W        W51965  14.814   1.345   4.032
86805W        W51966  33.676  42.966  11.564
86806W        W51967  32.426  30.054  10.635
86807W        W51968  17.152  34.884   2.394
86808W        W51969  19.258  34.680  11.607
86809W        W51970  24.260  42.912  14.441
86810W        W51971   6.925  28.051  12.942
86811W        W51972  44.954  37.870  14.394
86812W        W51973  17.141  44.903  10.101
86813W        W51974  35.392  20.999  10.867
86814W        W51975  23.711  31.810  13.563
86815W        W51976  25.692  28.712   4.079
86816W        W51977  44.256  24.982   1.201
86817W        W51978  14.597  21.972  13.156
86818W        W51979  11.749  11.048  13.538
86819W        W51980  27.580  22.949   9.908
86820W        W51981   6.032   2.083   0.733
86821W        W51982  35.884  20.979  11.852
86822W        W51983  32.635  13.693  13.881
86823W        W51984   9.697  34.280  14.159
86824W        W51985  26.337  15.790  14.665
86825W        W51986   2.978  41.983  12.467
86826W        W51987   6.925  33.477  14.489
86827W        W51988  32.177   6.286   3.140
86828W        W51989  43.696   3.308   1.401
86829W        W51990  14.487   6.897   2.837
86830W        W51991   4.220  30.365  11.567
86831W        W51992   0.536  21.178  12.926
86832W        W51993   9.162  18.527  13.433
86833W        W51994   8.156  21.175   3.416
86834W        W51995  31.876  35.528   3.751
86835W        W51996   4.374  40.779   4.764
86836W        W51997  31.418   9.788  14.222
86837W        W51998  36.139  15.299   0.145
86838W        W51999  15.533  30.704  13.127
86839W        W52000  44.892  39.393   0.944
86840W        W52001  42.368   3.670   1.324
86841W        W52002   7.542  36.263   0.183
86842W        W52003  19.974  27.494   1.672
86843W        W52004  26.214  27.699   2.312
86844W        W52005  16.108  16.554  13.002
86845W        W52006  27.062  22.976   2.160
86846W        W52007  27.354  16.316   5.530
86847W        W52008   8.207  37.805   4.952
86848W        W52009   0.977  34.457  12.861
86849W        W52010  15.807  18.720  13.020
86850W        W52011   6.253  37.402  11.648
86851W        W52012  21.743  14.982   0.359
86852W        W52013  40.373  33.043  12.493
86853W        W52014  16.172  17.730   4.645
86854W        W52015   0.821  31.117  12.418
86855W        W52016  25.657   6.149  14.069
86856W        W52017  20.410  38.999   4.179
86857W        W52018  12.110  24.661   3.708
86858W        W52019  34.149  27.205   1.811
86859W        W52020  44.863  30.085  12.027
86860W        W52021  43.444   9.078  11.201
86861W        W52022  29.705  28.024   1.998
86862W        W52023  42.929  15.610   0.808
86863W        W52024   2.858  25.624   5.028
86864W        W52025  29.665  14.149   4.139
86865W        W52026  13.956  29.215   1.879
86866W        W52027  13.858  36.989  12.452
86867W        W52028   5.191  43.452   4.702
86868W        W52029  35.059  25.480   3.320
86869W        W52030  30.174  22.130   2.347
86870W        W52031  31.671  43.829  12.569
86871W        W52032  10.131  37.333   2.291
86872W        W52033  14.969  15.346  13.293
86873W        W52034  15.765  17.610   1.343
86874W        W52035  17.208   7.150  13.379
86875W        W52036  28.625  10.900  12.590
86876W        W52037  22.685   7.361   4.246
86877W        W52038  42.843  34.522   2.975
86878W        W52039   1.284   7.665  11.620
86879W        W52040  42.321   7.466  14.403
86880W        W52041  26.438  37.072  12.086
86881W        W52042  15.548  28.162  12.935
86882W        W52043  20.489  15.356   1.730
86883W        W52044  27.563  25.574   2.087
86884W        W52045  37.658  17.077  12.067
86885W        W52046  18.787  38.406  13.042
86886W        W52047   4.875  32.491   9.860
86887W        W52048   5.256  16.468   4.848
86888W        W52049  38.215  22.686   2.802
86889W        W52050  13.271  19.078   3.232
86890W        W52051  38.514   0.843   0.786
86891W        W52052  38.443  16.257   0.444
86892W        W52053  29.895  12.132  12.495
86893W        W52054  42.337  24.939   0.368
86894W        W52055   2.518  33.898   0.802
86895W        W52056  19.507  24.772  14.836
86896W        W52057  18.266  17.823   3.168
86897W        W52058  10.276  10.385  10.170
86898W        W52059   9.412  31.936   4.066
86899W        W52060  43.719   9.183  13.683
86900W        W52061  30.665   1.318  13.527
86901W        W52062   9.647  30.614  12.192
86902W        W52063  17.205   9.778   3.434
86903W        W52064   7.714  29.437  11.050
86904W        W52065   9.509  28.033   4.204
86905W        W52066  31.129  18.121  13.683
86906W        W52067  40.981   3.159  12.091
86907W        W52068  32.495   1.720  14.529
86908W        W52069  24.458  30.118  13.719
86909W        W52070  35.001  22.826  12.563
86910W        W52071   1.754   1.954  13.440
86911W        W52072  14.176  17.846  14.090
86912W        W52073  19.380   8.783  11.034
86913W        W52074   4.312  35.121   0.521
86914W        W52075  22.861  13.769   1.928
86915W        W52076  12.167  11.299  13.801
86916W        W52077  28.713   5.479  11.928
86917W        W52078   0.415   0.411   0.277
86918W        W52079  35.818   1.423  14.548
86919W        W52080  42.863  10.813  14.301
86920W        W52081  43.448   6.159   3.308
86921W        W52082  35.911  37.145   1.713
86922W        W52083   8.190  44.541   3.286
86923W        W52084  38.527   9.778   3.716
86924W        W52085   2.263  43.770   4.654
86925W        W52086  18.556   6.360   3.230
86926W        W52087  42.843  42.024   2.476
86927W        W52088  39.212  18.952   4.286
86928W        W52089  26.766  37.397   3.318
86929W        W52090  35.039   6.116  12.036
86930W        W52091  43.109  25.139  13.464
86931W        W52092  13.372  34.418  12.310
86932W        W52093  13.808  26.887  13.439
86933W        W52094  29.232   8.666   3.613
86934W        W52095  26.123   8.841  13.102
86935W        W52096  33.849  31.926   5.283
86936W        W52097  32.776  29.628  14.291
86937W        W52098  36.129  43.608   2.709
86938W        W52099   1.406  33.031   4.090
86939W        W52100   9.246   3.243   2.710
86940W        W52101  21.942  26.895  11.053
86941W        W52102  17.149  43.669   1.030
86942W        W52103   9.652  27.085  11.574
86943W        W52104  12.075  40.533  13.827
86944W        W52105  22.201  35.580  10.921
86945W        W52106  27.451  39.931   2.330
86946W        W52107  40.932  36.499   1.272
86947W        W52108  19.773  40.754   4.416
86948W        W52109  41.485  15.385  11.234
86949W        W52110   8.127   0.819  13.359
86950W        W52111  42.944  14.117  14.799
86951W        W52112   0.011  27.987   1.362
86952W        W52113  10.646  11.887  14.300
86953W        W52114  27.930  28.255  13.913
86954W        W52115  12.914  28.447  12.488
86955W        W52116  13.791  23.501  11.494
86956W        W52117  12.918  42.022   5.239
86957W        W52118  30.332  30.240  13.620
86958W        W52119  30.192  36.098  13.308
86959W        W52120   0.476  39.758   4.922
86960W        W52121  33.938  40.339   3.184
86961W        W52122  37.502  23.942  11.168
86962W        W52123   5.471  21.526   3.861
86963W        W52124  39.864   9.293   0.992
86964W        W52125  44.404  27.657  14.061
86965W        W52126   9.174  43.722   3.707
86966W        W52127  10.900  38.241  11.521
86967W        W52128  23.095  37.968   9.976
86968W        W52129  11.700   6.717   3.766
86969W        W52130  20.577  42.336   1.226
86970W        W52131  18.294  38.503  14.050
86971W        W52132  26.432  21.880  14.808
86972W        W52133  25.787   3.282  14.039
86973W        W52134  20.558  27.994  14.463
86974W        W52135   5.889  34.565  12.076
86975W        W52136  13.001  14.753  12.870
86976W        W52137  33.762  43.440   4.841
86977W        W52138  32.986  25.139   1.957
86978W        W52139  18.245  42.506   1.663
86979W        W52140  18.570  27.519  14.844
86980W        W52141  43.906  16.666   0.178
86981W        W52142  34.515  14.551   3.998
86982W        W52143  39.648  33.505  11.429
86983W        W52144   2.783  32.843  13.921
86984W        W52145  27.974  22.403  12.567
86985W        W52146   8.848   8.888  13.724
86986W        W52147  43.199   3.059  14.066
86987W        W52148   9.193  28.129  14.668
86988W        W52149  33.018  36.019   0.421
86989W        W52150  21.594  14.349   3.744
86990W        W52151  40.394  23.322   2.683
86991W        W52152  26.767   5.474  14.867
86992W        W52153  15.746  32.683   1.974
86993W        W52154  26.615  24.574  13.083
86994W        W52155  10.687  40.870   2.311
86995W        W52156  39.118  28.284   5.031
86996W        W52157  13.781  23.494   1.025
86997W        W52158  14.858  15.863  13.350
86998W        W52159  28.900   6.828   2.874
86999W        W52160  29.775   8.055   0.454
87000W        W52161   8.669  18.665  13.503
87001W        W52162  38.474  37.647   3.101
87002W        W52163  14.901  42.074  12.374
87003W        W52164  16.505  35.897  11.553
87004W        W52165  22.649   3.395  14.230
87005W        W52166  14.445  26.418   4.134
87006W        W52167  27.664   2.931   1.277
87007W        W52168  19.881  44.496  12.938
87008W        W52169  18.111  44.273   4.264
87009W        W52170  17.330   8.836   4.199
87010W        W52171  15.109  12.669   3.811
87011W        W52172  32.459   7.239   1.229
87012W        W52173   8.850   0.055   0.933
87013W        W52174  42.056  20.965   3.291
87014W        W52175  24.692  42.988   4.184
87015W        W52176  43.995  42.410  12.546
87016W        W52177  39.636  25.656  13.003
87017W        W52178   6.765  14.184   0.375
87018W        W52179  23.060  18.505   0.240
87019W        W52180  22.958  10.848  10.594
87020W        W52181  18.572  22.978  13.276
87021W        W52182  13.034  44.503   3.747
87022W        W52183   3.536  16.037  11.318
87023W        W52184  13.207  23.274   1.801
87024W        W52185  25.575  10.068   5.202
87025W        W52186   1.185  30.490   5.080
87026W        W52187   4.250   8.830   1.939
87027W        W52188   4.410  35.180   2.916
87028W        W52189  28.904  32.802  14.352
87029W        W52190   6.734  38.227   2.813
87030W        W52191   6.925  13.896  12.107
87031W        W52192   5.537  16.220  12.039
87032W        W52193  33.799  41.410   1.310
87033W        W52194   7.307  18.060  12.841
87034W        W52195  36.989   3.441   4.081
87035W        W52196   4.179  32.812   2.707
87036W        W52197  24.448  42.526   0.732
87037W        W52198  36.966  17.736  13.803
87038W        W52199  25.186  40.568  14.083
87039W        W52200  13.637   1.702  13.972
87040W        W52201  36.623  37.552   4.836
87041W        W52202   9.494   8.396   1.216
87042W        W52203  32.177   3.074   3.463
87043W        W52204  43.755  30.330   3.685
87044W        W52205  23.461  33.346  11.994
87045W        W52206  16.907  21.822  12.469
87046W        W52207  25.209   5.384   2.142
87047W        W52208  12.845  21.853  14.461
87048W        W52209  13.186  32.637  10.550
87049W        W52210  36.153  27.603   4.749
87050W        W52211  39.455  23.008  12.589
87051W        W52212   8.429  37.904  13.995
87052W        W52213  17.685  29.052   0.851
87053W        W52214  19.240   9.805   4.637
87054W        W52215  35.225  38.348  11.228
87055W        W52216  43.548   8.331  12.089
87056W        W52217   7.882  22.857   5.034
87057W        W52218  31.923  18.959   0.274
87058W        W52219  30.991  38.931   1.708
87059W        W52220  19.202  19.925   1.211
87060W        W52221  17.310  13.881   2.024
87061W        W52222  38.398  18.632  14.368
87062W        W52223   5.848  21.813  13.899
87063W        W52224  25.122  35.798  11.507
87064W        W52225  30.387  27.340  11.135
87065W        W52226  27.384  15.169  13.942
87066W        W52227  14.974  18.004   0.265
87067W        W52228  12.680   4.631   3.143
87068W        W52229  18.947   3.952  12.888
87069W        W52230   5.263  35.689  10.910
87070W        W52231  44.632  32.828   3.193
87071W        W52232  26.909  16.388   0.877
87072W        W52233  35.097  16.598  10.480
87073W        W52234  18.567  43.826   4.637
87074W        W52235   4.164  21.419   2.869
87075W        W52236  32.862  13.918   1.021
87076W        W52237  21.865  39.589  10.067
87077W        W52238  20.683   9.341  11.080
87078W        W52239   3.378  31.998   4.395
87079W        W52240  13.806  20.953  12.093
87080W        W52241  30.426  37.460   0.339
87081W        W52242  30.538  25.515  14.935
87082W        W52243  31.377   6.068   3.329
87083W        W52244  27.658  14.913  12.482
87084W        W52245  21.923  13.756  14.086
87085W        W52246   1.305  19.785   1.303
87086W        W52247  34.091  25.118   2.900
87087W        W52248  26.423   8.177   4.167
87088W        W52249   9.593  11.971   4.054
87089W        W52250   5.579  14.227   4.620
87090W        W52251  37.431  30.772   3.906
87091W        W52252  28.085  30.918   0.394
87092W        W52253  25.117   1.218  13.480
87093W        W52254   6.263  11.307   1.792
87094W        W52255  28.703  10.890   0.568
87095W        W52256  19.771  38.198  14.891
87096W        W52257  17.102   6.154  11.083
87097W        W52258  43.393  25.124   4.326
87098W        W52259   1.834  33.830  11.620
87099W        W52260  33.398   4.288  10.602
87100W        W52261   1.291  37.895  11.646
87101W        W52262   2.975   6.527  10.551
87102W        W52263   7.381  41.411   3.173
87103W        W52264  35.533   9.362   3.145
87104W        W52265  36.956  44.214  11.897
87105W        W52266  20.132  14.800  10.845
87106W        W52267  20.726  29.714   0.308
87107W        W52268  37.289  36.082   0.913
87108W        W52269  14.965  44.259   1.594
87109W        W52270  34.868   0.445  14.067
87110W        W52271   1.205  22.452  14.597
87111W        W52272   0.441  33.150   3.206
87112W        W52273  28.401  16.249   2.720
87113W        W52274  42.408  44.519  13.579
87114W        W52275  14.763  28.024  11.409
87115W        W52276  23.005   0.221   2.810
87116W        W52277  12.494  43.439   1.746
87117W        W52278  10.158   3.526   3.035
87118W        W52279  33.656   2.376   1.866
87119W        W52280  39.981  25.468   4.616
87120W        W52281  34.441   7.636   2.968
87121W        W52282   0.007  31.150  11.173
87122W        W52283  26.007   6.149  14.505
87123W        W52284  12.329  18.396  14.861
87124W        W52285  33.539   4.266   1.668
87125W        W52286  26.015  25.622   1.563
87126W        W52287  42.982   8.861  11.150
87127W        W52288  18.614  16.636   2.050
87128W        W52289  17.974  15.791   3.432
87129W        W52290  24.172   3.281   1.656
87130W        W52291  34.762  19.807   1.471
87131W        W52292  39.887   3.681  10.601
87132W        W52293  24.098  40.281   0.004
87133W        W52294  42.097  25.037   1.682
87134W        W52295  32.788  21.327   2.646
87135W        W52296   7.254   9.356   4.633
87136W        W52297  19.195  43.865  10.680
87137W        W52298   2.816  15.600   5.291
87138W        W52299  42.324  26.736   0.875
87139W        W52300  39.294  39.643  13.322
87140W        W52301  36.833  42.410   0.959
87141W        W52302  35.557   5.851  11.968
87142W        W52303  29.550  12.322  10.221
87143W        W52304  22.444  40.438  12.534
87144W        W52305  41.340  33.206  13.813
87145W        W52306   8.817   9.404  13.496
87146W        W52307  41.505  44.298   0.888
87147W        W52308   1.320  12.700  12.995
87148W        W52309  36.811  38.503  10.185
87149W        W52310  39.479  39.388  12.906
87150W        W52311  42.371  21.815   4.419
87151W        W52312   6.208  14.837   1.176
87152W        W52313  20.067   0.841   2.850
87153W        W52314   8.669  31.927   4.488
87154W        W52315   5.945  39.834  11.960
87155W        W52316  39.894  40.834  12.909
87156W        W52317  24.766   7.630  13.030
87157W        W52318   5.348  28.416   3.115
87158W        W52319  44.020  28.647   0.281
87159W        W52320  44.835  17.080   1.858
87160W        W52321  14.170   4.746   4.292
87161W        W52322  38.210  41.929  10.875
87162W        W52323  29.498  24.824  13.991
87163W        W52324  23.973  12.883  14.342
87164W        W52325  30.253  44.330   4.069
87165W        W52326  16.784  31.315  10.488
87166W        W52327   1.779  39.799  12.530
87167W        W52328  32.166   3.953   3.433
87168W        W52329  18.096  38.805   3.145
87169W        W52330   2.169   5.507  14.694
87170W        W52331  24.169  37.405   1.116
87171W        W52332   1.150   0.867  10.006
87172W        W52333  44.442  41.320   0.591
87173W        W52334   1.493  26.689  12.045
87174W        W52335  33.776  30.638  10.875
87175W        W52336  10.904  39.535  10.697
87176W        W52337  32.420  15.690  12.443
87177W        W52338  31.844  16.597   1.909
87178W        W52339  22.705   3.781  11.550
87179W        W52340  39.270   7.240  14.070
87180W        W52341  19.393  38.970  12.914
87181W        W52342  24.471  37.028   1.399
87182W        W52343  38.040  12.113   2.165
87183W        W52344  23.166  21.655   2.384
87184W        W52345   2.682  25.085   2.738
87185W        W52346   0.430  12.324   0.895
87186W        W52347  27.125  13.752  12.773
87187W        W52348   5.649  33.892   2.844
87188W        W52349  10.667   3.473  12.898
87189W        W52350  36.423  37.741  11.969
87190W        W52351  20.263   0.784   4.647
87191W        W52352  16.580   5.785  14.232
87192W        W52353   6.912   9.972   1.510
87193W        W52354  19.913  39.431  10.996
87194W        W52355  29.148  33.151  12.181
87195W        W52356  28.588  44.186  11.612
87196W        W52357  23.681  32.400   0.720
87197W        W52358  37.274  28.839  13.351
87198W        W52359  21.109  44.798   4.557
87199W        W52360  17.995  12.401  12.432
87200W        W52361  13.784  11.270   1.991
87201W        W52362   2.036  36.443   2.701
87202W        W52363  25.160  36.075  14.016
87203W        W52364  16.771   3.964   3.733
87204W        W52365  38.271  44.384   3.839
87205W        W52366   3.393   1.395  11.386
87206W        W52367   0.597  34.524  13.198
87207W        W52368  17.354  36.204  10.361
87208W        W52369  10.792  10.005   0.903
87209W        W52370  14.941  29.454   3.859
87210W        W52371   0.065  19.686  14.741
87211W        W52372  36.156  13.923   1.989
87212W        W52373   2.234  34.955  11.738
87213W        W52374   6.329   4.161   4.712
87214W        W52375  15.825  26.700   2.659
87215W        W52376   3.180  22.458   3.225
87216W        W52377  30.090  33.015   4.684
87217W        W52378  24.140  21.019  11.664
87218W        W52379  44.627  32.342   1.410
87219W        W52380  35.992   3.179   4.501
87220W        W52381  11.866  43.786   3.920
87221W        W52382  43.123  14.173  10.376
87222W        W52383  23.062  42.077  11.055
87223W        W52384   3.421  26.216  14.904
87224W        W52385  32.841  20.830  14.548
87225W        W52386   0.388  24.698  13.965
87226W        W52387  24.514  10.877   1.807
87227W        W52388  26.645  24.142   4.940
87228W        W52389  24.923   1.928   1.703
87229W        W52390  20.264  14.756  13.238
87230W        W52391  24.027  15.379   1.841
87231W        W52392  11.816  17.341   4.993
87232W        W52393  43.196  41.706  11.479
87233W        W52394  44.279  20.571   0.497
87234W        W52395   3.920  34.135  14.314
87235W        W52396   4.714  28.129   3.278
87236W        W52397  37.197  39.345   2.723
87237W        W52398  38.645  15.184  10.709
87238W        W52399  13.485  34.869  13.915
87239W        W52400   6.332   2.579  11.667
87240W        W52401  30.711  38.891   4.532
87241W        W52402  37.876   0.667   3.725
87242W        W52403  38.790   9.204   4.518
87243W        W52404  27.687  24.680   2.330
87244W        W52405  29.281   2.673  14.812
87245W        W52406  12.940  34.072   0.920
87246W        W52407  12.320   8.381   1.338
87247W        W52408  33.124  26.024   1.292
87248W        W52409  21.245   7.425   0.788
87249W        W52410  29.536  40.109  14.767
87250W        W52411   0.078  35.043  10.656
87251W        W52412  21.368  27.811   4.079
87252W        W52413  29.697  33.908  14.316
87253W        W52414  40.404  20.156  10.763
87254W        W52415  27.285  10.013  13.631
87255W        W52416  26.557  16.763  12.889
87256W        W52417  44.086  28.642   4.119
87257W        W52418  33.325  12.315   0.430
87258W        W52419  33.907   5.784  11.073
87259W        W52420  32.003  12.820  11.471
87260W        W52421   4.427  14.926   3.240
87261W        W52422   3.036  29.150   3.273
87262W        W52423   0.990  24.730  10.903
87263W        W52424  44.988  17.099  14.438
87264W        W52425  18.015  30.762   1.392
87265W        W52426  36.118  30.605   0.591
87266W        W52427  21.833  36.895  12.036
87267W        W52428  42.511  18.057  11.217
87268W        W52429  16.073  39.806   1.828
87269W        W52430  34.517  42.820  11.552
87270W        W52431  25.899   7.721  14.826
87271W        W52432  33.522   2.495  14.917
87272W        W52433  37.276  31.360   2.621
87273W        W52434  20.860  38.450  10.826
87274W        W52435  44.513  25.273   2.348
87275W        W52436  40.782   2.709  10.858
87276W        W52437  17.167  24.499   0.764
87277W        W52438   0.978  39.834   3.783
87278W        W52439  22.158  44.255   0.722
87279W        W52440  37.879  43.563   0.849
87280W        W52441   5.743  28.420   9.757
87281W        W52442  39.558  40.009  10.648
87282W        W52443   0.664  30.638   1.204
87283W        W52444  27.463  18.671   1.731
87284W        W52445  29.357  20.495  14.572
87285W        W52446   0.054  36.441   2.306
87286W        W52447   4.887   8.023  12.818
87287W        W52448  27.174  27.873  10.641
87288W        W52449  14.178  43.626  11.241
87289W        W52450  33.839  25.837  11.921
87290W        W52451  24.255   7.293  13.045
87291W        W52452  10.190   0.934  12.495
87292W        W52453  28.655   0.307  13.566
87293W        W52454  13.074   7.694  10.613
87294W        W52455  16.168  13.874  12.188
87295W        W52456  31.806  44.793   0.244
87296W        W52457  39.484  20.527   2.374
87297W        W52458  15.052  16.743   3.830
87298W        W52459  23.303   5.080  14.710
87299W        W52460  31.507  43.448   3.234
87300W        W52461  42.813   0.575   3.332
87301W        W52462  39.441  11.944   2.177
87302W        W52463  11.190  30.722   3.662
87303W        W52464  32.376  10.701   2.559
87304W        W52465  23.630  27.128   3.561
87305W        W52466  27.746  15.257   1.354
87306W        W52467  15.164  13.967  13.143
87307W        W52468   2.251  19.070   4.532
87308W        W52469  29.229  12.110   4.661
87309W        W52470   8.490  20.153   4.634
87310W        W52471  34.018  40.564   1.841
87311W        W52472  31.852  40.917  12.634
87312W        W52473  33.958  11.826  10.788
87313W        W52474  31.990  12.068  11.033
87314W        W52475  23.535  32.004  14.509
87315W        W52476  17.308  19.706   0.786
87316W        W52477   1.340  38.067  13.094
87317W        W52478  28.305  39.834  11.118
87318W        W52479  13.950  34.414   0.935
87319W        W52480   2.269  10.761   1.309
87320W        W52481  20.571  21.343   4.831
87321W        W52482   3.452   6.844   2.851
87322W        W52483  43.480  44.278  13.843
87323W        W52484  34.167   4.901  10.185
87324W        W52485  13.351  29.039  12.936
87325W        W52486  32.712  23.510   3.135
87326W        W52487  39.080  22.065   2.760
87327W        W52488  28.878  38.355   0.652
87328W        W52489  35.681   1.930   1.258
87329W        W52490  28.146  31.828   1.431
87330W        W52491  28.431  26.533   2.430
87331W        W52492  30.126   9.634  13.261
87332W        W52493  25.146  28.282  13.949
87333W        W52494   7.414   5.363   4.258
87334W        W52495   2.299  23.899  12.550
87335W        W52496   8.129   2.330  14.967
87336W        W52497  22.876  18.695  14.253
87337W        W52498  17.567   5.855  13.332
87338W        W52499  44.522  30.453   4.433
87339W        W52500  29.688   9.956  13.634
87340W        W52501  23.045  29.174  11.908
87341W        W52502  18.724  40.146   5.359
87342W        W52503  42.929  22.228  12.628
87343W        W52504  20.048  17.197  14.433
87344W        W52505  42.062  25.529   4.043
87345W        W52506   7.426   3.784  10.634
87346W        W52507   8.754  43.499  14.910
87347W        W52508  39.886  33.493   1.863
87348W        W52509  38.899  24.563   2.195
87349W        W52510  41.786  14.828   2.753
87350W        W52511   2.938  25.758   9.954
87351W        W52512  20.571  16.045  12.195
87352W        W52513  40.001  12.351  11.597
87353W        W52514  33.226   9.028  10.270
87354W        W52515  34.649   4.727   3.385
87355W        W52516  35.267   5.947  14.572
87356W        W52517   2.027  36.276  12.119
87357W        W52518  34.563  15.283  14.508
87358W        W52519  42.917   6.864   4.419
87359W        W52520  21.867   9.740   9.969
87360W        W52521  16.223  43.866  12.429
87361W        W52522  30.169  35.437  14.947
87362W        W52523   8.757  34.477  12.117
87363W        W52524  34.999  27.710   2.838
87364W        W52525  44.019  16.182   1.370
87365W        W52526  22.234  30.410  13.333
87366W        W52527  26.948  34.997   2.359
87367W        W52528  34.921  23.808  12.464
87368W        W52529  32.431  36.542  12.039
87369W        W52530   7.107  26.107  12.968
87370W        W52531  25.039  36.262  11.818
87371W        W52532  25.578  23.641   4.795
87372W        W52533   7.875  18.937  14.485
87373W        W52534  28.011  17.899   4.403
87374W        W52535  22.080  40.571   4.789
87375W        W52536  24.970  15.999   4.182
87376W        W52537  10.763  14.845  14.395
87377W        W52538  17.703   9.277  10.653
87378W        W52539  38.501  25.964   1.857
87379W        W52540  31.567  38.562  11.581
87380W        W52541  32.028  19.213  11.652
87381W        W52542  36.312  42.447   1.154
87382W        W52543  33.000   3.681   4.809
87383W        W52544  10.218  34.322   2.194
87384W        W52545  33.294  20.222  10.278
87385W        W52546   9.867  22.437  14.482
87386W        W52547  43.984   9.851  10.370
87387W        W52548  36.971  36.559   1.956
87388W        W52549   0.499  26.722   0.775
87389W        W52550  36.085  38.086   1.258
87390W        W52551  33.988   9.281  12.883
87391W        W52552  35.316  24.975  10.219
87392W        W52553  38.799  10.780   0.405
87393W        W52554  28.821  14.360   2.415
87394W        W52555  11.051  24.279   1.228
87395W        W52556  20.069   8.426  13.183
87396W        W52557  30.885   0.017  14.894
87397W        W52558  33.516  15.656   2.554
87398W        W52559   0.360  33.130   0.342
87399W        W52560  10.792  22.541   1.600
87400W        W52561  11.083  39.447  11.180
87401W        W52562  26.954  11.879  12.006
87402W        W52563  44.728  15.602   3.846
87403W        W52564  35.993   5.935  11.694
87404W        W52565  44.021  37.729   0.471
87405W        W52566  44.791  32.500  14.212
87406W        W52567  16.080  38.399   3.265
87407W        W52568  38.811  10.798   2.620
87408W        W52569  30.022  13.645  12.136
87409W        W52570   3.929  23.240   1.771
87410W        W52571  14.027  21.771  12.017
87411W        W52572  23.811   2.114  11.997
87412W        W52573  16.659  12.159   0.501
87413W        W52574   3.659  15.248  13.008
87414W        W52575  32.435  38.094   2.012
87415W        W52576  23.661   0.350   0.247
87416W        W52577  23.384  28.065   2.586
87417W        W52578  23.847  28.111  12.040
87418W        W52579  32.520  16.751   3.925
87419W        W52580   9.660  35.487   4.914
87420W        W52581  40.897  29.401   2.691
87421W        W52582  13.154   1.768  12.464
87422W        W52583  10.352   2.647   1.249
87423W        W52584  22.471  43.545   1.425
87424W        W52585  22.545  19.117  14.222
87425W        W52586  23.139  23.130   3.218
87426W        W52587  37.600  13.225  13.862
87427W        W52588  29.441  36.226   0.810
87428W        W52589  33.813  40.365  13.434
87429W        W52590   3.662  41.786  11.215
87430W        W52591   3.902  37.677   4.184
87431W        W52592  28.655  40.476   3.250
87432W        W52593  22.931  17.986   3.325
87433W        W52594  32.610  15.771   2.411
87434W        W52595  30.918  30.214   1.892
87435W        W52596  17.651  31.449  12.817
87436W        W52597   6.349  18.573   3.729
87437W        W52598  22.263  19.805   1.419
87438W        W52599  41.321  35.055  14.286
87439W        W52600  39.118   1.561   1.472
87440W        W52601  25.443  25.553  12.509
87441W        W52602  15.136  38.086  12.358
87442W        W52603  19.704   3.447   0.347
87443W        W52604  10.712  12.762  12.761
87444W        W52605  20.786  35.112  11.875
87445W        W52606  35.819  29.021   2.889
87446W        W52607  26.822  33.971   0.197
87447W        W52608  20.399  39.293   1.142
87448W        W52609   2.678  10.267   2.355
87449W        W52610  44.544  16.542  13.867
87450W        W52611  29.229  16.590  11.171
87451W        W52612  18.621   4.358   1.450
87452W        W52613  21.675  33.457  11.718
87453W        W52614  35.629  11.148   2.165
87454W        W52615  26.918  24.645   0.569
87455W        W52616  35.556  26.104   2.866
87456W        W52617  26.484  16.656   3.826
87457W        W52618   4.899   0.642  13.354
87458W        W52619   4.080  14.317  12.939
87459W        W52620  32.374  43.065   3.558
87460W        W52621  34.666  26.257   4.904
87461W        W52622  22.452  20.841  12.223
87462W        W52623   0.335  29.678   4.491
87463W        W52624  28.062  26.413  14.916
87464W        W52625   4.906  35.679  12.821
87465W        W52626  23.031  39.716  14.638
87466W        W52627  21.068  33.172  14.382
87467W        W52628  30.916  29.684   0.012
87468W        W52629   1.357  12.773   2.809
87469W        W52630  19.622  22.994   1.722
87470W        W52631  18.625  44.220   4.300
87471W        W52632  10.862  35.034   0.913
87472W        W52633  33.001  35.005   4.477
87473W        W52634  38.077   9.674  13.887
87474W        W52635   6.820  21.234   3.597
87475W        W52636   9.916  11.688  12.578
87476W        W52637   8.618   8.260  14.905
87477W        W52638  20.478  14.174  13.002
87478W        W52639  16.013  13.892  13.579
87479W        W52640  11.225  32.604  11.588
87480W        W52641  12.189   8.885   1.242
87481W        W52642   6.679   3.828   3.028
87482W        W52643   3.435  34.841   3.616
87483W        W52644  22.558  25.631  13.943
87484W        W52645   5.515  27.022   0.172
87485W        W52646  35.344  15.122   0.739
87486W        W52647  23.186  44.427  12.085
87487W        W52648  11.926  41.766   0.458
87488W        W52649  24.446  34.805   3.228
87489W        W52650  26.676   1.740  14.990
87490W        W52651   3.395  20.500  13.256
87491W        W52652   7.259  18.856   2.729
87492W        W52653   9.373  37.942  12.057
87493W        W52654  18.559  42.326   3.812
87494W        W52655  44.993  10.131  10.026
87495W        W52656  22.122  30.279   1.984
87496W        W52657  40.437  10.315   3.282
87497W        W52658   6.606  12.102  13.804
87498W        W52659   9.960  34.437  14.594
87499W        W52660  18.423   2.070  11.972
87500W        W52661  27.624  35.535   3.894
87501W        W52662  44.258  15.757   4.616
87502W        W52663  16.127  13.671   0.882
87503W        W52664  24.462  29.872   4.617
87504W        W52665  20.520  43.246   4.171
87505W        W52666  12.712  37.744  13.006
87506W        W52667   8.170  13.003  12.086
87507W        W52668   8.756  11.147   0.176
87508W        W52669  14.666  40.587  12.887
87509W        W52670  37.904  10.286   1.789
87510W        W52671   9.135  40.866  14.581
87511W        W52672   0.509  32.037  11.830
87512W        W52673  24.559  17.726  14.368
87513W        W52674  23.735  27.104   4.050
87514W        W52675   9.920  36.887   3.706
87515W        W52676  24.490  41.969   2.785
87516W        W52677  14.103  31.846   0.366
87517W        W52678   6.925   0.081  14.993
87518W        W52679   5.792  19.475   3.850
87519W        W52680  11.331  22.789   3.636
87520W        W52681  30.236   4.103  11.026
87521W        W52682  29.728  36.114  14.876
87522W        W52683  23.030  17.837  14.336
87523W        W52684  35.133  25.057   0.763
87524W        W52685  35.470   6.084  10.544
87525W        W52686  21.435  39.316   2.730
87526W        W52687  35.445  38.795  12.634
87527W        W52688  16.163   5.968   1.035
87528W        W52689  23.214  22.022   0.194
87529W        W52690  26.637  25.661   0.359
87530W        W52691  13.772   0.773   4.326
87531W        W52692  32.336  12.824  12.117
87532W        W52693  29.236  32.254  12.889
87533W        W52694  17.257   1.915   1.208
87534W        W52695  19.433  13.754   2.823
87535W        W52696  38.498  17.095   4.953
87536W        W52697  28.427  25.680  11.508
87537W        W52698  39.872  34.084   2.556
87538W        W52699  40.382   8.865  12.941
87539W        W52700  39.434   9.818   4.549
87540W        W52701   1.169   6.712   2.244
87541W        W52702  25.396   0.765  12.150
87542W        W52703  42.512   9.643   3.706
87543W        W52704  33.595  31.104   1.882
87544W        W52705  17.153  30.562   0.953
87545W        W52706  40.992   4.839   4.153
87546W        W52707  44.569   8.706   0.014
87547W        W52708   0.844  36.081  14.027
87548W        W52709  13.359  44.459  11.267
87549W        W52710  38.920  35.523  11.113
87550W        W52711  16.015  25.434  11.971
87551W        W52712  16.838  19.641   1.910
87552W        W52713  35.081  15.231  14.340
87553W        W52714  32.213  44.000   0.632
87554W        W52715  38.782  31.420   3.250
87555W        W52716  38.427  41.929   3.262
87556W        W52717  33.745  37.817  14.068
87557W        W52718  32.460  18.509   0.480
87558W        W52719   2.362  26.984   1.005
87559W        W52720   1.313  28.519  12.525
87560W        W52721  31.262  18.209  12.365
87561W        W52722  28.196  28.401   1.013
87562W        W52723  24.159  41.613   0.243
87563W        W52724  24.322   9.661  13.604
87564W        W52725  31.927   0.472   3.762
87565W        W52726   8.919  32.782  13.487
87566W        W52727  16.508   3.415   2.190
87567W        W52728   0.390  16.867  14.879
87568W        W52729  32.673  32.559   0.429
87569W        W52730  38.396  38.902  10.688
87570W        W52731  25.712  21.042   2.891
87571W        W52732  44.711  17.073  13.978
87572W        W52733  23.291  27.087   0.661
87573W        W52734   6.276  14.590   4.349
87574W        W52735  22.240  31.908   4.817
87575W        W52736  15.287  25.072   4.767
87576W        W52737  34.382  30.045  14.920
87577W        W52738  14.489  22.341  14.361
87578W        W52739   2.684  15.722   3.243
87579W        W52740  25.476  27.673   1.570
87580W        W52741  21.227  31.112   3.580
87581W        W52742  30.999  17.959   0.430
87582W        W52743   6.391  15.787  10.069
87583W        W52744  27.689  44.980  12.844
87584W        W52745  13.328   4.334   1.452
87585W        W52746  31.559  38.249  11.166
87586W        W52747  26.061  27.219   0.497
87587W        W52748   5.374  30.603   2.798
87588W        W52749  37.469  32.239  11.055
87589W        W52750  26.036  40.934  12.063
87590W        W52751  43.791  20.431   0.378
87591W        W52752  10.900  28.885   4.862
87592W        W52753  43.660  35.034  11.171
87593W        W52754  31.942  16.566  12.003
87594W        W52755   6.026  34.433   4.561
87595W        W52756   9.160  36.426  11.282
87596W        W52757   1.963  31.301   3.704
87597W        W52758   8.643  43.779   2.574
87598W        W52759   1.257   7.934  12.620
87599W        W52760  29.958   7.768   0.843
87600W        W52761   3.289  29.891   1.354
87601W        W52762  14.561  38.155  11.233
87602W        W52763   6.219  44.296  10.614
87603W        W52764  42.534  15.091  11.165
87604W        W52765   3.288   6.276  14.817
87605W        W52766  40.872  43.494  10.719
87606W        W52767  26.522  28.595   1.422
87607W        W52768  26.096   6.915   2.909
87608W        W52769  29.913  35.803   0.244
87609W        W52770   9.877   2.507  13.470
87610W        W52771   9.651  13.390  11.184
87611W        W52772  21.766  33.352   0.983
87612W        W52773   1.877  15.092  12.184
87613W        W52774  33.362   2.588   4.190
87614W        W52775  33.027  42.072   2.765
87615W        W52776  22.421  23.203   2.661
87616W        W52777   2.380  35.761   4.269
87617W        W52778  21.690  19.575  12.839
87618W        W52779  20.215  24.143   0.764
87619W        W52780  22.194  12.886   2.822
87620W        W52781   7.720  31.952  10.524
87621W        W52782   7.827  24.223   0.972
87622W        W52783   3.883  24.600   4.269
87623W        W52784  11.722  12.150   0.975
87624W        W52785  23.566  20.645  13.948
87625W        W52786  16.544  29.071   1.665
87626W        W52787  20.959  37.900  14.851
87627W        W52788  24.703  12.345   1.049
87628W        W52789  31.661  30.627   3.808
87629W        W52790   4.640  39.319  10.931
87630W        W52791   2.017  28.984   3.083
87631W        W52792  41.782  33.034  12.597
87632W        W52793   6.348  36.917  10.982
87633W        W52794   9.278   2.147   3.528
87634W        W52795   8.315   4.738  13.800
87635W        W52796  40.717  28.631  10.571
87636W        W52797   9.254  40.932  11.047
87637W        W52798  40.614  36.204  13.334
87638W        W52799  13.186  40.515   0.628
87639W        W52800  44.785  31.252   4.794
87640W        W52801  34.993  34.474  13.709
87641W        W52802  21.042  26.995   0.763
87642W        W52803  24.655  22.058  13.416
87643W        W52804  39.977  28.628   1.905
87644W        W52805  42.134  12.207   0.323
87645W        W52806  41.342   1.388  13.818
87646W        W52807  29.517  42.475   2.865
87647W        W52808  31.798  31.429   4.832
87648W        W52809  39.848  25.773  12.534
87649W        W52810  22.038  35.843  13.988
87650W        W52811  21.981  44.930   3.185
87651W        W52812  29.949  29.091   4.812
87652W        W52813  41.036  36.312   9.663
87653W        W52814   1.341  34.932   1.244
87654W        W52815  39.384  39.815  11.965
87655W        W52816  26.261  15.006   0.393
87656W        W52817  31.558   5.890   2.497
87657W        W52818  32.000   6.820   3.922
87658W        W52819  41.310  23.615   3.685
87659W        W52820  14.809  35.413   3.298
87660W        W52821  23.615  25.977  12.465
87661W        W52822  30.075  15.547   0.649
87662W        W52823   1.427   6.326   4.925
87663W        W52824  20.289   3.968   1.891
87664W        W52825  21.123  40.129  12.328
87665W        W52826   7.271  42.363   1.187
87666W        W52827  44.819   3.238   2.703
87667W        W52828  20.550  22.938  12.011
87668W        W52829  44.699  25.677   0.259
87669W        W52830   7.917   5.691  11.999
87670W        W52831  43.686  35.270   1.532
87671W        W52832  14.722  15.561  13.727
87672W        W52833   0.394  44.511   3.245
87673W        W52834  17.362   7.154  12.022
87674W        W52835  17.049   6.424  13.846
87675W        W52836  39.012   1.814  13.587
87676W        W52837  31.065  33.936  13.620
87677W        W52838  41.302   9.154  14.574
87678W        W52839  23.295  24.661  11.539
87679W        W52840  33.837  15.187   0.782
87680W        W52841  14.721  21.144   2.781
87681W        W52842   1.339  34.448   0.468
87682W        W52843  34.815   6.774   2.841
87683W        W52844   2.443   2.764  11.169
87684W        W52845  33.136  25.191  14.397
87685W        W52846  13.814  33.160  13.483
87686W        W52847  11.455  42.267  10.774
87687W        W52848  38.524  11.163  10.544
87688W        W52849  17.213   5.915   2.854
87689W        W52850   9.715  25.549   0.952
87690W        W52851  32.435  29.726   1.423
87691W        W52852  37.280  18.400  14.999
87692W        W52853  10.349  30.441   0.273
87693W        W52854  43.565  37.121  14.989
87694W        W52855  18.595   6.450   4.092
87695W        W52856  30.525   2.527  14.788
87696W        W52857  33.019   2.950  11.097
87697W        W52858  17.619   0.367  12.024
87698W        W52859   2.978  38.561   0.713
87699W        W52860  32.050   7.328   4.039
87700W        W52861  18.849  10.844   3.363
87701W        W52862  35.041  34.857   2.749
87702W        W52863  28.900   7.249  12.857
87703W        W52864   4.865  27.605  10.981
87704W        W52865  38.977  38.982   0.793
87705W        W52866   1.207  17.664   3.335
87706W        W52867  42.542  44.828   3.701
87707W        W52868   7.319   2.644  11.553
87708W        W52869  41.145  31.016   1.702
87709W        W52870  41.732  35.070   4.552
87710W        W52871  17.482  30.570   4.559
87711W        W52872   2.481  27.993  12.445
87712W        W52873   4.865  30.512  10.723
87713W        W52874   4.340   1.777  10.727
87714W        W52875  32.964   3.581   0.301
87715W        W52876   8.124  41.745  14.871
87716W        W52877  27.777  39.016   3.518
87717W        W52878  20.551  23.245  12.433
87718W        W52879  11.053   6.630   2.324
87719W        W52880  13.355  11.601   3.697
87720W        W52881  41.465  26.689  12.655
87721W        W52882  42.228  41.007   0.819
87722W        W52883  35.685  40.010   0.335
87723W        W52884   0.500  34.077   1.428
87724W        W52885   8.026  15.294   4.670
87725W        W52886  23.419  14.216   1.416
87726W        W52887   3.279  43.205   4.083
87727W        W52888   1.381  39.896  12.803
87728W        W52889   4.240   7.363  13.622
87729W        W52890  42.326  25.663  11.603
87730W        W52891   3.716  37.598  12.032
87731W        W52892  35.536   9.344  13.224
87732W        W52893  29.116  15.715   2.424
87733W        W52894  44.332  28.089   2.802
87734W        W52895  19.128  20.534   3.678
87735W        W52896  37.348  12.807   3.596
87736W        W52897  43.694  21.190  10.766
87737W        W52898  24.022  40.519   4.421
87738W        W52899  17.200  41.351  11.774
87739W        W52900  27.939  20.933  12.641
87740W        W52901  42.899  29.682   0.587
87741W        W52902  10.649   0.388   1.426
87742W        W52903  10.733   5.739   0.809
87743W        W52904  40.062  18.570   1.621
87744W        W52905  17.542  32.036  11.164
87745W        W52906  43.854  38.774   5.036
87746W        W52907  43.354  27.925  14.462
87747W        W52908  30.375  28.916   0.878
87748W        W52909  11.303  25.472   3.871
87749W        W52910  21.239  42.225   4.257
87750W        W52911  11.651   8.451   3.845
87751W        W52912  19.639  15.873  13.041
87752W        W52913   3.923  36.044  10.345
87753W        W52914  26.611  13.283  13.561
87754W        W52915  39.360  26.351  13.376
87755W        W52916  16.640  38.822   1.590
87756W        W52917  37.498  18.528   1.271
87757W        W52918  17.681  39.809   0.038
87758W        W52919  22.182  29.928  14.073
87759W        W52920  42.612  43.885  10.824
87760W        W52921   6.229  13.068  12.060
87761W        W52922   6.190  34.491  14.699
87762W        W52923  15.473  30.914  14.743
87763W        W52924  21.450  17.760   1.342
87764W        W52925   6.512  23.063  10.706
87765W        W52926  37.338  44.498   4.756
87766W        W52927  39.645  29.115   4.567
87767W        W52928  25.112  25.703   4.995
87768W        W52929  42.365   9.890   0.009
87769W        W52930  29.345  32.444  11.505
87770W        W52931   9.399  11.291   3.265
87771W        W52932  17.658  20.529   3.735
87772W        W52933  12.820  17.843   0.745
87773W        W52934  42.311  28.065  12.046
87774W        W52935  16.647   9.894   0.830
87775W        W52936   9.204  30.855   4.126
87776W        W52937  28.575  33.051   0.063
87777W        W52938  13.861   4.665   2.714
87778W        W52939   2.819  15.608   3.728
87779W        W52940  29.111  30.525   3.643
87780W        W52941  39.130   7.211   4.830
87781W        W52942  20.241  12.374  12.883
87782W        W52943  39.859  31.172  13.343
87783W        W52944   4.081  39.932  12.524
87784W        W52945  31.975  43.201   4.265
87785W        W52946  44.715  12.339  13.290
87786W        W52947  29.837  41.902  12.753
87787W        W52948  31.854  43.242   0.942
87788W        W52949  33.987  43.288   1.017
87789W        W52950  17.624  28.096   4.403
87790W        W52951  41.980  41.401  11.884
87791W        W52952   0.314  26.056  10.860
87792W        W52953   2.088  21.130   5.064
87793W        W52954   1.276  30.422   2.321
87794W        W52955   7.941  16.227  11.392
87795W        W52956  18.615  42.291   2.298
87796W        W52957  40.051  30.353   0.933
87797W        W52958  29.984   6.287   3.154
87798W        W52959   2.616  19.881   2.362
87799W        W52960  36.790   7.335  10.990
87800W        W52961  32.648   1.960   3.085
87801W        W52962  29.878  44.805   1.338
87802W        W52963  33.008   6.457  11.063
87803W        W52964  40.574   7.211  12.045
87804W        W52965  16.527  31.637  14.167
87805W        W52966  41.836  41.206  12.905
87806W        W52967   8.234   2.727  10.510
87807W        W52968  22.664  21.507  14.286
87808W        W52969  25.751  19.269   1.824
87809W        W52970   4.177  10.296  12.789
87810W        W52971   5.528   9.729   1.796
87811W        W52972  26.936  15.804  10.283
87812W        W52973  24.733  35.469   0.408
87813W        W52974  23.261  19.335   4.097
87814W        W52975   7.908  39.806  11.761
87815W        W52976  28.024  21.232   4.543
87816W        W52977  42.773   0.774   5.050
87817W        W52978  41.880  36.101  14.471
87818W        W52979  34.991  35.383  11.169
87819W        W52980  13.067   0.856  14.319
87820W        W52981  14.080  23.675  11.906
87821W        W52982  31.560  31.917   0.086
87822W        W52983  43.066   4.875   0.328
87823W        W52984   8.224   3.841   1.792
87824W        W52985  15.194   7.424   3.592
87825W        W52986  39.310  29.238   0.693
87826W        W52987  19.530   5.989  10.648
87827W        W52988  35.390  30.303  11.579
87828W        W52989  41.460  41.300   1.350
87829W        W52990  29.452  20.690  11.138
87830W        W52991  33.457  23.443   1.861
87831W        W52992  40.458  22.611   0.343
87832W        W52993  19.327  38.763   4.414
87833W        W52994  23.789  20.573  10.343
87834W        W52995  32.046  32.112   2.700
87835W        W52996  41.417  34.920   2.625
87836W        W52997  32.667  13.302  10.795
87837W        W52998  41.194  19.596  10.743
87838W        W52999  19.612  27.363   3.533
87839W        W53000  27.708  16.175   1.343
87840W        W53001  40.318  40.776   3.129
87841W        W53002  24.759  18.969   0.060
87842W        W53003   0.902  23.007   0.717
87843W        W53004   2.997  29.493   1.324
87844W        W53005  33.543   4.342  12.148
87845W        W53006  30.003   5.546  13.382
87846W        W53007  14.122   7.865  13.027
87847W        W53008  32.945  36.480  14.933
87848W        W53009   6.874  10.099  12.862
87849W        W53010  24.117  10.653  11.683
87850W        W53011   0.161   6.834  10.448
87851W        W53012  29.471  39.466   1.850
87852W        W53013  36.450  10.088   1.931
87853W        W53014  34.381  22.982  13.514
87854W        W53015  44.993  26.726   0.957
87855W        W53016  20.697  44.335   2.360
87856W        W53017  38.425   4.777  11.356
87857W        W53018  19.461   2.121  13.988
87858W        W53019   6.952  26.629  13.850
87859W        W53020  44.474   9.305   5.116
87860W        W53021  40.591  39.879   0.968
87861W        W53022  18.427  22.536  13.026
87862W        W53023  32.169  17.348   2.240
87863W        W53024  36.079  15.348  13.476
87864W        W53025   8.591  25.621   4.017
87865W        W53026  31.457  25.431   4.512
87866W        W53027  23.104  21.098  12.497
87867W        W53028   7.424  25.370  14.740
87868W        W53029  27.694   4.005  12.143
87869W        W53030   1.960   8.772  11.737
87870W        W53031   8.137  32.951   1.862
87871W        W53032  34.077   4.253  12.916
87872W        W53033  19.049  40.983  10.213
87873W        W53034   2.737  14.570   4.559
87874W        W53035  13.635  40.310  11.165
87875W        W53036  34.661  24.717   5.043
87876W        W53037  20.024  35.853  14.969
87877W        W53038  21.043  31.462  11.223
87878W        W53039   5.388  21.411  11.240
87879W        W53040   1.243  42.473   0.744
87880W        W53041   2.214  23.429   3.683
87881W        W53042  23.296  36.849   0.931
87882W        W53043  31.145   9.231   2.628
87883W        W53044  21.222  35.535  14.622
87884W        W53045  25.139  18.105   1.602
87885W        W53046  32.604  30.491  14.741
87886W        W53047  15.805  22.074   1.740
87887W        W53048  20.893  25.145   3.764
87888W        W53049   5.462  23.659   3.295
87889W        W53050  40.546   7.883  14.833
87890W        W53051   9.500  10.524  14.758
87891W        W53052  10.169  41.947   4.661
87892W        W53053  24.722  20.285   2.613
87893W        W53054  36.427   6.354  11.561
87894W        W53055   3.227  13.786  13.990
87895W        W53056  27.910   5.941   0.390
87896W        W53057  31.988  43.832   3.054
87897W        W53058  17.060  33.976   2.256
87898W        W53059  32.214  19.801  13.358
87899W        W53060   9.339  37.508  14.405
87900W        W53061  22.101  24.703  13.945
87901W        W53062  12.013  16.167   4.497
87902W        W53063   6.878  26.587  12.870
87903W        W53064  44.935   2.033   2.397
87904W        W53065  10.911  11.300   1.496
87905W        W53066  21.618  17.468   0.246
87906W        W53067  21.279  10.714   4.716
87907W        W53068   2.684  19.957  13.443
87908W        W53069  44.420   7.744   3.149
87909W        W53070  13.541  21.520   1.919
87910W        W53071   8.835  18.622   0.548
87911W        W53072  18.828  43.392  11.645
87912W        W53073  23.872  13.644  11.532
87913W        W53074  25.802  20.470   4.065
87914W        W53075  29.505  35.712   0.709
87915W        W53076  15.127  11.831  11.566
87916W        W53077  24.672   9.831  14.525
87917W        W53078   3.715  33.032  10.730
87918W        W53079  41.614  15.336   2.829
87919W        W53080  19.253  12.596  12.690
87920W        W53081  19.170   4.430  13.067
87921W        W53082   5.644  17.997   1.647
87922W        W53083  35.291  30.501   3.226
87923W        W53084  17.999  37.082  12.904
87924W        W53085  37.402  20.375  10.740
87925W        W53086   9.657  31.694   2.154
87926W        W53087  41.401   1.161   3.361
87927W        W53088   4.232  22.417  13.761
87928W        W53089   1.769  24.153   0.344
87929W        W53090  21.536  24.739   1.708
87930W        W53091  30.661  26.652   0.394
87931W        W53092  41.528  44.263  12.931
87932W        W53093  20.641   3.726  14.809
87933W        W53094  18.742   2.011  12.623
87934W        W53095  43.278  18.199   2.848
87935W        W53096  16.764  32.387  13.017
87936W        W53097  15.407  26.621   1.685
87937W        W53098  16.070  32.671   3.026
87938W        W53099  41.119  35.910   3.829
87939W        W53100  33.115  10.289   4.993
87940W        W53101  41.280  22.087   0.327
87941W        W53102  20.701  35.005  14.301
87942W        W53103   7.736  40.760   4.197
87943W        W53104  38.561   9.413  12.035
87944W        W53105  42.462   8.312   2.340
87945W        W53106   6.559  11.276   0.878
87946W        W53107   9.813  38.842  12.364
87947W        W53108  35.037  11.748   0.438
87948W        W53109  40.359  13.545   4.603
87949W        W53110   2.544  39.375  10.229
87950W        W53111  39.392  13.050  13.453
87951W        W53112  34.663  26.612   0.407
87952W        W53113  28.008  24.191   3.113
87953W        W53114  30.134  23.721   3.085
87954W        W53115  11.264  12.082   3.214
87955W        W53116   4.156   5.398   1.132
87956W        W53117  44.891  42.790   1.335
87957W        W53118   2.332  17.164   0.633
87958W        W53119  24.248  33.979  10.721
87959W        W53120  11.242  33.973  12.929
87960W        W53121  31.616   4.739   3.249
87961W        W53122  32.949  17.753   1.348
87962W        W53123  20.215  16.200  12.618
87963W        W53124  29.741  10.257   0.698
87964W        W53125  20.082   9.796   3.069
87965W        W53126  20.708  14.716  12.543
87966W        W53127   8.931   5.849   3.718
87967W        W53128  42.469  40.225   3.704
87968W        W53129   0.320   8.333  12.167
87969W        W53130  25.497  20.554   3.658
87970W        W53131  23.128  35.654   2.850
87971W        W53132  36.315  19.643  12.906
87972W        W53133  15.822  34.035  11.077
87973W        W53134  44.794  17.569   3.479
87974W        W53135   7.265  33.983  12.306
87975W        W53136  17.560   2.453  11.000
87976W        W53137  14.670  39.589  14.858
87977W        W53138  13.325   5.307   3.393
87978W        W53139  23.091  27.889   3.230
87979W        W53140  27.122  42.289   2.872
87980W        W53141   3.178   6.723  13.867
87981W        W53142   5.040  17.976  12.865
87982W        W53143  11.831   1.648  12.418
87983W        W53144  27.510   5.767  13.023
87984W        W53145  11.870  15.433  14.880
87985W        W53146  21.060  35.393   1.455
87986W        W53147  41.384   0.830  12.932
87987W        W53148   5.790  31.532   4.024
87988W        W53149  10.581  13.809   4.690
87989W        W53150  18.160   6.617  11.597
87990W        W53151  40.846  12.253  10.624
87991W        W53152  15.267  41.789  12.094
87992W        W53153  32.149  12.554  11.057
87993W        W53154  15.217   6.443  14.461
87994W        W53155  35.842  14.601   1.310
87995W        W53156  23.637  23.542   2.523
87996W        W53157  16.166  31.708  10.838
87997W        W53158  14.762  18.494   0.277
87998W        W53159  34.178  17.530  13.563
87999W        W53160   4.787   0.333  12.378
88000W        W53161  17.509  34.280   2.965
88001W        W53162   9.864  41.850   3.362
88002W        W53163  38.524  10.435  13.285
88003W        W53164  20.204  33.952   0.368
88004W        W53165  38.979  13.273  13.665
88005W        W53166   1.952   3.018   4.444
88006W        W53167  28.121  12.232  11.617
88007W        W53168  11.681  40.528  13.001
88008W        W53169  13.611   0.753  11.666
88009W        W53170  24.425  17.562   2.780
88010W        W53171  28.177  41.976   4.191
88011W        W53172  41.502  41.499   0.882
88012W        W53173  37.446  17.339  11.674
88013W        W53174  38.459  44.090  13.834
88014W        W53175   9.355   0.918  13.905
88015W        W53176  35.048  32.472   3.366
88016W        W53177  44.880  44.573   4.101
88017W        W53178  36.075   8.624  13.302
88018W        W53179  26.017  18.610  11.949
88019W        W53180  20.823   8.908  13.370
88020W        W53181  33.656  23.528  11.174
88021W        W53182   6.127  28.625  11.675
88022W        W53183  35.543  38.917  12.147
88023W        W53184  20.009   5.614  12.449
88024W        W53185  18.273  15.637   3.044
88025W        W53186  28.564  34.594  13.570
88026W        W53187  19.883   5.692  11.934
88027W        W53188  14.247  22.775  13.000
88028W        W53189  20.943  35.759  11.154
88029W        W53190   9.319  33.057  11.441
88030W        W53191  23.431   8.670  10.696
88031W        W53192  31.529  38.888   2.350
88032W        W53193  20.504  25.176   1.939
88033W        W53194  16.100   7.353  14.720
88034W        W53195  32.074  43.426  11.464
88035W        W53196  13.689  25.267   1.881
88036W        W53197   2.524  11.418  14.869
88037W        W53198   1.978  42.981   3.270
88038W        W53199  15.382  21.447  10.739
88039W        W53200   9.242  33.181   0.627
88040W        W53201   9.355  36.479  14.467
88041W        W53202  11.230   3.031  10.594
88042W        W53203  12.494   0.803   1.375
88043W        W53204  12.800  25.459   3.710
88044W        W53205  30.873  42.756   3.610
88045W        W53206  40.342  16.657  12.518
88046W        W53207   0.452  34.063  14.430
88047W        W53208  21.754  36.771   2.761
88048W        W53209  25.257  23.946   0.536
88049W        W53210  12.721   7.286  12.137
88050W        W53211  24.196  17.275  14.830
88051W        W53212   3.422  28.195   4.576
88052W        W53213   1.278  36.876   1.275
88053W        W53214   3.357  13.598   0.438
88054W        W53215   4.150  39.339   3.550
88055W        W53216  26.204  35.029   3.741
88056W        W53217  33.572  10.170   2.734
88057W        W53218  43.735  30.074   4.130
88058W        W53219   8.125   6.895   2.249
88059W        W53220  13.271  11.619   4.604
88060W        W53221   2.661  36.423   4.118
88061W        W53222  42.484  17.877   2.744
88062W        W53223  32.900   9.993  10.498
88063W        W53224   9.631  40.568   1.758
88064W        W53225  40.799   4.003  11.021
88065W        W53226  24.003   8.521  14.971
88066W        W53227   9.925  31.832  13.903
88067W        W53228  17.621  43.002  11.923
88068W        W53229   9.598  42.272   1.153
88069W        W53230  20.749   8.166  13.993
88070W        W53231   2.077  43.764   1.117
88071W        W53232   0.758  37.395  12.397
88072W        W53233  31.425   9.753   0.029
88073W        W53234  34.437  16.061   0.779
88074W        W53235  39.033   6.357   5.180
88075W        W53236   1.244  20.062  11.417
88076W        W53237  41.274  28.318  13.567
88077W        W53238   4.495  28.187   2.805
88078W        W53239  22.988   6.959   1.429
88079W        W53240  24.899  35.830   1.782
88080W        W53241  30.663   9.124   2.757
88081W        W53242   1.854   4.702  12.939
88082W        W53243  35.578  33.343  12.800
88083W        W53244  22.402  35.040  11.762
88084W        W53245  11.684   5.617   2.301
88085W        W53246  42.261  43.058   4.957
88086W        W53247  26.780   5.138   4.062
88087W        W53248  39.051  41.443  14.004
88088W        W53249  10.937   5.857   3.216
88089W        W53250  30.494  22.175  11.901
88090W        W53251  42.365   5.840  12.211
88091W        W53252   5.246  34.926   0.362
88092W        W53253  23.204  28.056  14.183
88093W        W53254  29.846  11.930  14.474
88094W        W53255   3.418  26.321   0.416
88095W        W53256  34.931   8.858  14.797
88096W        W53257  36.386   6.297  12.498
88097W        W53258  35.154  30.387   0.423
88098W        W53259  40.933  27.667  13.520
88099W        W53260  33.417  38.472   2.593
88100W        W53261  14.723  28.695  12.842
88101W        W53262   6.187  22.044   3.651
88102W        W53263  32.693  44.276   2.632
88103W        W53264   2.665   5.431  14.572
88104W        W53265  19.848  30.076   1.600
88105W        W53266  22.807  26.388  14.401
88106W        W53267  21.701  30.445   2.310
88107W        W53268  10.898  28.617  13.894
88108W        W53269   5.703  24.226  11.071
88109W        W53270  32.652  43.906  12.302
88110W        W53271  36.812  17.158   2.563
88111W        W53272  16.569  41.084  12.454
88112W        W53273   3.652  38.249   0.394
88113W        W53274  29.693  34.592   2.169
88114W        W53275  29.450  34.078   0.289
88115W        W53276  30.569  10.614   0.188
88116W        W53277  28.924  30.613   0.272
88117W        W53278  12.313  20.739   1.787
88118W        W53279  33.818  25.647   3.698
88119W        W53280  13.560  40.887  12.620
88120W        W53281  36.102  17.018   3.242
88121W        W53282  25.508  40.526   2.111
88122W        W53283  12.894  36.090  14.081
88123W        W53284  26.469   0.946  14.381
88124W        W53285   9.196  26.839   1.549
88125W        W53286  39.557  24.227   2.505
88126W        W53287   7.871  42.665   0.076
88127W        W53288  39.391  15.167   4.825
88128W        W53289  39.840   0.123  11.470
88129W        W53290  44.284  20.067  14.094
88130W        W53291   9.141  36.913  14.734
88131W        W53292  29.556  13.792  13.912
88132W        W53293   7.656  37.726   4.280
88133W        W53294   7.956   3.722  10.694
88134W        W53295  12.227  29.169   3.703
88135W        W53296  38.056  18.650   4.076
88136W        W53297  25.261  41.977   4.466
88137W        W53298  21.479   2.642  13.347
88138W        W53299  23.052  36.278   0.394
88139W        W53300  35.405  19.679  13.878
88140W        W53301  31.197  41.487   0.402
88141W        W53302  40.113  38.982   0.133
88142W        W53303  26.365  41.519   0.774
88143W        W53304   6.254  30.639   3.661
88144W        W53305  33.651  43.849  11.416
88145W        W53306  16.383  43.320   2.361
88146W        W53307  16.885  31.585  11.486
88147W        W53308  30.136  10.341  11.173
88148W        W53309   6.867  12.442   1.582
88149W        W53310  34.337   9.330   2.274
88150W        W53311  15.800  25.649  10.729
88151W        W53312  34.722  25.279  10.789
88152W        W53313  25.772  36.933  10.683
88153W        W53314  25.517  19.092  14.011
88154W        W53315   4.393  43.254   2.252
88155W        W53316   8.079  44.867  13.483
88156W        W53317  19.009  25.162   1.737
88157W        W53318  42.111  32.916   0.530
88158W        W53319   7.636  44.276   2.058
88159W        W53320  11.232   9.230   0.863
88160W        W53321  44.287  14.811   3.457
88161W        W53322  42.486  14.177  11.061
88162W        W53323  19.067  31.926   0.032
88163W        W53324  11.123  21.951   3.908
88164W        W53325  27.402  37.658  14.016
88165W        W53326   0.046   1.925   4.082
88166W        W53327  18.422  26.043   3.287
88167W        W53328  23.539  38.020  12.586
88168W        W53329  42.486  27.117   2.328
88169W        W53330   9.064  34.796  11.032
88170W        W53331  12.377  15.287   2.681
88171W        W53332  18.593  23.112  11.432
88172W        W53333   7.244   9.847   0.538
88173W        W53334  42.242   0.062  12.177
88174W        W53335  15.311  15.662  12.417
88175W        W53336  35.216  42.235  10.662
88176W        W53337  37.118  33.240   0.944
88177W        W53338  19.992   1.284  11.379
88178W        W53339  33.271  16.825   4.456
88179W        W53340  16.490  34.723  10.610
88180W        W53341  41.220  23.648  13.320
88181W        W53342  31.616  36.062  13.313
88182W        W53343  40.821  15.791  14.028
88183W        W53344  30.664  20.046   3.834
88184W        W53345  11.252  13.791  13.041
88185W        W53346  20.371  33.949  12.440
88186W        W53347   0.112  16.727   4.127
88187W        W53348  36.446  17.303   4.943
88188W        W53349  20.383  25.086   3.633
88189W        W53350  24.484  20.535   2.237
88190W        W53351  17.225   9.614  13.513
88191W        W53352  24.064  34.604   1.130
88192W        W53353   1.311  33.161   0.279
88193W        W53354  12.638  26.478   3.659
88194W        W53355  12.379   6.406   4.851
88195W        W53356  31.331  42.549   4.100
88196W        W53357  27.013  27.179   3.111
88197W        W53358   6.017  24.414   4.176
88198W        W53359   7.207  23.976  11.161
88199W        W53360  30.603  25.607   9.800
88200W        W53361  40.952  40.880  14.403
88201W        W53362  32.010  14.877   2.924
88202W        W53363  44.345  24.211   4.132
88203W        W53364  21.710  38.108   1.250
88204W        W53365  37.449  31.893  14.886
88205W        W53366  30.103  42.197  11.927
88206W        W53367  17.914  13.711  14.259
88207W        W53368  33.532   6.894   2.182
88208W        W53369   4.391  22.436  14.679
88209W        W53370  11.876   0.761   2.375
88210W        W53371  37.411   0.529   3.474
88211W        W53372   3.074  15.903  10.582
88212W        W53373  43.245   5.639  14.375
88213W        W53374  24.716  15.080  13.197
88214W        W53375  28.929  44.823   2.763
88215W        W53376  40.428  23.054  11.623
88216W        W53377  34.086  25.432   4.713
88217W        W53378  43.304  18.740  10.618
88218W        W53379  31.536  39.639   1.781
88219W        W53380  28.278  30.415  12.696
88220W        W53381  35.233  20.902   4.119
88221W        W53382  36.209   0.367   3.892
88222W        W53383   5.671  36.061   0.338
88223W        W53384  20.161  18.472  14.906
88224W        W53385  21.782  34.026   0.145
88225W        W53386  22.579  18.674   0.223
88226W        W53387   2.206  42.285  11.157
88227W        W53388  25.049   6.456   5.115
88228W        W53389   1.977  14.046  13.531
88229W        W53390  19.063  13.909  10.721
88230W        W53391   5.923  18.761   1.261
88231W        W53392  26.996  33.470  12.876
88232W        W53393   3.968  38.571  12.146
88233W        W53394   5.896  29.984  10.759
88234W        W53395   4.466   1.185  12.759
88235W        W53396   4.892  42.044  13.092
88236W        W53397   0.783  35.022  14.151
88237W        W53398   4.319  10.387   1.840
88238W        W53399  34.885  31.869  10.814
88239W        W53400   6.279  30.215  11.043
88240W        W53401   4.561  38.853  14.743
88241W        W53402   6.725  29.154   2.331
88242W        W53403  15.843  38.746   5.002
88243W        W53404  37.090  24.230  10.249
88244W        W53405  36.130  12.929  12.461
88245W        W53406  38.793  14.119   3.441
88246W        W53407  35.088  22.585  12.038
88247W        W53408  41.416   2.266  11.309
88248W        W53409  41.125  21.912   3.320
88249W        W53410  37.425   5.330  13.600
88250W        W53411  35.598  35.855   1.200
88251W        W53412  10.459  38.644  10.156
88252W        W53413  36.561  16.601   4.565
88253W        W53414  40.383  31.114  11.585
88254W        W53415   5.706  15.281   2.703
88255W        W53416  24.474  26.925   0.335
88256W        W53417   2.110  29.615   1.730
88257W        W53418  34.955   0.887  14.341
88258W        W53419   4.979  42.432  14.017
88259W        W53420  35.068  28.091  14.115
88260W        W53421  31.498  44.671   3.751
88261W        W53422   1.303  23.597   2.872
88262W        W53423  21.886  13.275  12.397
88263W        W53424  17.993  39.360   1.707
88264W        W53425  42.363  33.163   0.147
88265W        W53426   3.919  12.912   0.385
88266W        W53427   9.135  30.352   5.035
88267W        W53428  13.916  26.439  11.313
88268W        W53429  30.610  15.361  12.145
88269W        W53430  26.088  36.286  13.521
88270W        W53431   8.837  37.688  14.219
88271W        W53432   8.763  44.814   3.329
88272W        W53433  10.908  39.913   1.977
88273W        W53434  12.288  17.634   1.946
88274W        W53435  10.889  38.718   4.935
88275W        W53436   7.919  18.736  12.381
88276W        W53437  38.672  40.412   2.280
88277W        W53438  21.214  42.587   0.823
88278W        W53439   5.323   3.776  12.062
88279W        W53440  24.967   3.588   3.200
88280W        W53441  29.101   2.231  10.753
88281W        W53442   0.689  38.957   1.357
88282W        W53443  40.999   7.700  11.951
88283W        W53444  41.575   4.825   0.189
88284W        W53445  29.829  34.583  12.503
88285W        W53446   4.680  16.948  14.082
88286W        W53447  16.708  33.180  11.641
88287W        W53448  30.501  14.279   0.328
88288W        W53449  37.876   1.801   0.502
88289W        W53450   2.386  25.528  14.830
88290W        W53451  37.448  18.211  14.532
88291W        W53452  27.680   6.060   2.261
88292W        W53453   0.865   1.771  11.181
88293W        W53454  17.114  29.928   3.203
88294W        W53455  32.590   6.427  10.661
88295W        W53456  22.727  26.047   0.470
88296W        W53457  23.071   1.960  13.077
88297W        W53458  29.764  20.653  11.560
88298W        W53459   4.255  33.605   1.361
88299W        W53460  32.488  14.483  11.484
88300W        W53461  28.908  22.325   1.991
88301W        W53462  15.403  29.507   1.905
88302W        W53463  11.076  26.924   0.212
88303W        W53464  14.719  31.919  11.909
88304W        W53465  38.004  16.597   3.729
88305W        W53466   5.197  34.102  13.904
88306W        W53467  34.973  41.575   2.358
88307W        W53468   9.051  36.850  12.081
88308W        W53469  34.286  13.837   3.822
88309W        W53470  19.562  13.721  11.484
88310W        W53471  30.961  15.616  10.238
88311W        W53472  41.762  44.908  12.083
88312W        W53473   7.128  26.465   1.237
88313W        W53474  39.713   2.481  12.854
88314W        W53475  16.206   1.267  11.607
88315W        W53476  12.274  35.382   0.261
88316W        W53477  42.884   8.317  13.943
88317W        W53478   6.317  22.400   2.840
88318W        W53479  30.936  44.533   4.561
88319W        W53480  40.784  14.081  13.382
88320W        W53481  22.013  13.192   0.740
88321W        W53482   6.986   9.161   3.671
88322W        W53483  11.964  18.313  12.017
88323W        W53484  39.124  22.089   0.883
88324W        W53485   3.529  31.670   4.031
88325W        W53486  39.782  23.984  13.980
88326W        W53487  13.342  34.915   0.215
88327W        W53488  37.794  15.269   1.191
88328W        W53489  33.729  41.105  11.005
88329W        W53490  42.096   5.234   2.406
88330W        W53491  12.248  17.092  11.910
88331W        W53492  28.011  35.780  11.069
88332W        W53493   8.886  39.590   0.006
88333W        W53494  16.985  14.267   0.808
88334W        W53495  26.814  11.607   1.890
88335W        W53496   6.064  13.831  13.093
88336W        W53497  16.267  33.431   3.858
88337W        W53498  34.007  23.605   3.064
88338W        W53499  24.610   5.134   0.756
88339W        W53500   2.222  21.764  12.074
88340W        W53501  36.531  20.770   4.184
88341W        W53502  23.096  32.038   2.918
88342W        W53503  17.720  14.751  11.538
88343W        W53504  38.481  20.474   4.060
88344W        W53505  37.176  42.371   1.748
88345W        W53506  19.669  30.014  14.586
88346W        W53507   1.526  35.250   4.600
88347W        W53508  22.215  40.131  10.931
88348W        W53509  10.691   4.767  14.831
88349W        W53510  13.932  38.916  12.721
88350W        W53511  20.808  15.976   5.138
88351W        W53512  26.469  24.615  14.057
88352W        W53513  34.197  37.557  14.997
88353W        W53514  26.048  35.474   0.984
88354W        W53515  28.907  25.338  11.621
88355W        W53516   6.352   2.094   3.173
88356W        W53517   8.090   9.344  13.983
88357W        W53518  34.053   3.769  13.882
88358W        W53519   4.834   3.658  14.745
88359W        W53520  35.258  38.084   9.770
88360W        W53521  30.463   1.407  11.719
88361W        W53522  38.425  11.683  11.448
88362W        W53523  23.241  38.886   2.637
88363W        W53524  43.391  25.867   0.454
88364W        W53525  16.286   0.379   0.179
88365W        W53526  41.272  29.455  11.516
88366W        W53527  33.345  34.818  11.540
88367W        W53528  34.808  36.342  13.790
88368W        W53529  12.752  15.666   0.364
88369W        W53530  15.016  44.381  12.458
88370W        W53531  32.978  42.550  10.615
88371W        W53532  26.144  13.353  13.818
88372W        W53533   7.134   3.962  11.028
88373W        W53534  28.403  40.963   2.577
88374W        W53535  16.048  17.295   2.624
88375W        W53536  11.214   5.843   0.589
88376W        W53537   1.463  34.987   3.276
88377W        W53538   4.204   0.361  11.122
88378W        W53539  11.255  30.098  12.669
88379W        W53540  12.731   8.986  12.450
88380W        W53541  38.462   9.674  14.799
88381W        W53542  33.382   6.837  10.364
88382W        W53543  29.154  26.548  13.840
88383W        W53544  16.153  27.858  13.458
88384W        W53545  24.022  43.339   2.281
88385W        W53546  18.163  35.721   3.674
88386W        W53547   3.006  17.698   2.778
88387W        W53548   5.028  30.988  10.607
88388W        W53549  34.389  33.253   1.387
88389W        W53550  19.970  31.064   1.735
88390W        W53551  30.045  16.878  11.569
88391W        W53552   0.382  24.348  12.875
88392W        W53553  43.973  11.663   2.767
88393W        W53554   8.422  28.508  14.944
88394W        W53555  12.140  21.137  10.369
88395W        W53556  27.958   3.842   0.241
88396W        W53557   3.867  36.942   0.968
88397W        W53558  34.652  14.358  14.258
88398W        W53559  18.987  25.540   3.717
88399W        W53560   7.548  28.264  11.012
88400W        W53561   6.780  12.908  12.098
88401W        W53562  42.380  39.260   2.225
88402W        W53563   9.181  43.225   3.639
88403W        W53564  34.054  23.773  10.599
88404W        W53565  35.958   2.034   0.826
88405W        W53566  31.992  37.567  13.942
88406W        W53567  35.970  31.926  14.539
88407W        W53568   9.178   3.037   1.451
88408W        W53569  24.051  33.826  12.934
88409W        W53570  40.542  32.444  10.574
88410W        W53571  19.087  36.750   2.302
88411W        W53572  17.764  42.585  11.667
88412W        W53573  43.496  39.562   0.244
88413W        W53574  24.908  18.899  10.936
88414W        W53575   8.098  40.430  10.613
88415W        W53576  27.578  29.734  10.791
88416W        W53577  40.314   8.707  10.109
88417W        W53578   2.589  14.784   5.013
88418W        W53579  43.731  44.003   1.677
88419W        W53580  20.521  28.077   4.196
88420W        W53581  38.011  26.088   1.755
88421W        W53582  31.418  10.103   3.698
88422W        W53583  39.257   3.533   0.112
88423W        W53584  26.939   8.316  11.668
88424W        W53585  21.672  25.535   3.195
88425W        W53586  29.411   4.809   9.817
88426W        W53587   3.495   0.460   1.678
88427W        W53588   7.312   3.970   1.839
88428W        W53589   0.572  35.003  14.722
88429W        W53590  31.845  28.939  14.932
88430W        W53591  12.696   8.314  11.121
88431W        W53592  26.657  23.471   0.777
88432W        W53593  10.143   3.878  11.168
88433W        W53594  37.596  44.665   2.682
88434W        W53595   2.778  16.458   2.290
88435W        W53596   0.160  18.015   0.541
88436W        W53597  26.208  37.449  11.634
88437W        W53598  11.652  16.305  12.074
88438W        W53599  19.406  43.211   4.434
88439W        W53600  23.712  21.426   0.722
88440W        W53601  34.353  33.374  11.658
88441W        W53602  28.894  33.552  14.388
88442W        W53603  43.580  31.020  12.729
88443W        W53604   4.617   5.806  14.210
88444W        W53605  25.377  12.597  11.543
88445W        W53606  34.358  38.354  14.313
88446W        W53607  36.192  20.232   2.393
88447W        W53608  14.596   9.911   1.330
88448W        W53609  10.717  41.063   4.517
88449W        W53610  30.764   2.266  12.082
88450W        W53611   6.922   0.168  12.951
88451W        W53612  39.635   5.419   3.587
88452W        W53613  13.254  24.063   4.722
88453W        W53614  31.148   4.779  10.424
88454W        W53615  18.357   7.394  11.886
88455W        W53616  36.112  26.438  14.509
88456W        W53617   1.453  19.226  10.925
88457W        W53618  38.570  16.189  11.807
88458W        W53619  21.829  26.723  14.665
88459W        W53620  41.457  44.459   2.778
88460W        W53621  32.969  44.969  13.022
88461W        W53622  24.271  17.143   1.149
88462W        W53623  31.167   4.987  11.134
88463W        W53624  18.666   0.819  12.018
88464W        W53625  10.211  34.501  10.244
88465W        W53626  24.656  42.503   4.092
88466W        W53627  27.017  27.661  11.082
88467W        W53628  32.297   7.605  14.818
88468W        W53629  40.097  24.056  11.702
88469W        W53630   1.404  42.214   4.210
88470W        W53631  32.873  16.863  12.824
88471W        W53632  19.845   6.031   0.346
88472W        W53633  36.114  20.158  13.943
88473W        W53634  23.646  36.795  14.346
88474W        W53635  30.746   1.596  11.333
88475W        W53636  23.026   6.186  13.568
88476W        W53637  34.130  40.671  14.992
88477W        W53638  16.561  25.757  11.169
88478W        W53639  11.219  43.520   2.480
88479W        W53640  39.747   6.811  13.219
88480W        W53641  20.794  29.873  13.350
88481W        W53642  39.600  32.330   1.796
88482W        W53643   2.884  25.004   4.374
88483W        W53644   0.888  32.144   0.813
88484W        W53645  10.154  31.357  13.856
88485W        W53646  33.184  21.789  14.912
88486W        W53647   5.467  26.206  14.930
88487W        W53648  40.637  37.371   2.750
88488W        W53649   7.067   8.793   1.246
88489W        W53650  32.176   1.741   3.157
88490W        W53651   7.419  27.530  14.821
88491W        W53652  25.443  17.156   0.162
88492W        W53653  25.993  13.376   4.093
88493W        W53654  10.844  17.509  12.019
88494W        W53655  13.799  17.028  12.004
88495W        W53656  31.671  41.810   3.750
88496W        W53657  20.214   5.422  11.592
88497W        W53658  41.950  18.116   2.642
88498W        W53659  30.486  40.288  11.186
88499W        W53660   0.577  32.080  14.525
88500W        W53661  37.960  11.603  10.762
88501W        W53662  31.227  16.494  14.502
88502W        W53663  29.777  12.868   4.595
88503W        W53664   2.474   5.679  11.903
88504W        W53665  19.532  42.423  13.112
88505W        W53666  19.653  31.892   3.267
88506W        W53667   7.469  11.356   2.328
88507W        W53668  11.074  28.099  14.025
88508W        W53669   8.848  30.426  11.642
88509W        W53670   9.381  13.749   2.620
88510W        W53671  27.304  39.823   4.585
88511W        W53672  37.224  19.284   4.201
88512W        W53673  15.361  41.865   2.324
88513W        W53674  30.425   1.424  14.813
88514W        W53675  28.480  42.368   3.531
88515W        W53676  37.499  13.226   0.272
88516W        W53677  37.419   2.438  11.995
88517W        W53678  14.317  14.530  12.985
88518W        W53679  43.231   9.440   3.289
88519W        W53680  29.093   1.637   4.562
88520W        W53681  28.066  11.826   2.340
88521W        W53682   9.583  34.784   3.672
88522W        W53683   3.905  15.645  14.918
88523W        W53684  21.087  33.139   3.747
88524W        W53685  39.444  35.645  12.524
88525W        W53686  33.626  12.367  14.979
88526W        W53687  14.570  28.059   4.418
88527W        W53688  22.904   2.786   2.826
88528W        W53689  18.792  20.509  14.231
88529W        W53690  19.982   3.674  11.091
88530W        W53691   2.462  42.473   2.253
88531W        W53692  20.579   4.854   2.390
88532W        W53693  25.933   2.408  11.312
88533W        W53694  36.888   8.945  14.958
88534W        W53695  21.624  20.333   3.393
88535W        W53696  14.756  11.285  14.817
88536W        W53697   1.749  24.232  14.835
88537W        W53698  33.076  28.701  12.494
88538W        W53699   0.813  36.366  11.632
88539W        W53700  27.249  25.334   3.711
88540W        W53701  19.269  43.413  11.901
88541W        W53702  26.749  32.318  12.065
88542W        W53703   1.469  41.347  14.888
88543W        W53704   2.303  40.956  10.657
88544W        W53705   9.272  28.087   9.591
88545W        W53706  35.921   4.717  14.423
88546W        W53707   1.229  11.220  12.288
88547W        W53708   7.365  17.994   1.255
88548W        W53709   5.406   1.401   0.811
88549W        W53710  30.657  35.326  14.791
88550W        W53711  14.206   2.234   3.669
88551W        W53712  33.227  26.915   1.977
88552W        W53713  39.590  33.086  13.366
88553W        W53714  18.118   8.468   1.123
88554W        W53715   7.352   6.676   0.861
88555W        W53716  16.812  42.585   2.352
88556W        W53717  16.766  16.400  10.276
88557W        W53718  41.034  23.478   0.535
88558W        W53719  11.628  23.775   2.225
88559W        W53720   1.519  30.348   1.843
88560W        W53721  13.733   3.152   1.830
88561W        W53722  39.976  44.368   3.902
88562W        W53723  10.808  24.015   1.936
88563W        W53724  24.665  14.615  11.964
88564W        W53725   3.201   8.047   0.194
88565W        W53726  23.997  43.414   3.323
88566W        W53727   1.991  28.657   4.560
88567W        W53728  27.578  30.934   2.202
88568W        W53729  29.433   4.825  13.186
88569W        W53730  24.701   0.247   1.345
88570W        W53731  33.681  30.897  12.124
88571W        W53732  16.154  20.735   1.826
88572W        W53733  44.439  13.846  12.515
88573W        W53734  32.577   6.780  11.080
88574W        W53735  31.544  41.887   2.370
88575W        W53736  40.094  34.771   0.738
88576W        W53737   6.747  34.605  13.355
88577W        W53738  41.379   9.637  14.325
88578W        W53739  38.957  34.130  12.937
88579W        W53740   5.510  44.076   4.422
88580W        W53741   4.269  18.407  11.669
88581W        W53742  27.508  16.072  14.775
88582W        W53743  36.465  36.924  12.411
88583W        W53744  40.539  31.396  11.991
88584W        W53745  26.041  22.679  11.962
88585W        W53746  23.365   2.827   0.565
88586W        W53747  20.750  31.140   4.490
88587W        W53748  38.134   3.893  14.301
88588W        W53749  30.572  41.862  10.670
88589W        W53750  12.648  24.642  13.951
88590W        W53751  11.105  19.910  13.619
88591W        W53752  26.220  27.194   2.376
88592W        W53753  11.650  32.787  14.891
88593W        W53754   9.745  15.741  12.589
88594W        W53755  25.386   7.670  14.893
88595W        W53756  38.785   5.092  13.853
88596W        W53757  41.947  20.274  12.986
88597W        W53758  40.880   0.801  14.354
88598W        W53759  13.436  39.720   4.130
88599W        W53760  31.722  26.801  12.534
88600W        W53761   0.910  32.113   4.690
88601W        W53762  18.090   9.747   0.939
88602W        W53763  20.029  15.676  12.796
88603W        W53764  21.951  16.206  11.303
88604W        W53765  15.904  27.080  10.608
88605W        W53766  39.889  42.070   4.301
88606W        W53767  11.689   3.200  10.933
88607W        W53768   6.171  33.389  13.884
88608W        W53769   2.046   6.779   0.756
88609W        W53770  38.032  33.634   1.148
88610W        W53771  18.319  10.838  11.578
88611W        W53772  11.740  19.814   2.583
88612W        W53773  35.433  26.903  13.066
88613W        W53774  24.748   1.208  12.621
88614W        W53775  27.061  15.352   3.494
88615W        W53776  40.417  42.250   3.857
88616W        W53777  37.460  41.032  14.761
88617W        W53778  28.351  35.533   4.875
88618W        W53779   3.176  35.577  11.086
88619W        W53780  23.595  40.313   2.203
88620W        W53781  31.020  12.172  12.676
88621W        W53782  17.278  29.509  13.934
88622W        W53783  40.744  29.059   4.913
88623W        W53784  17.726  24.666  11.478
88624W        W53785  38.469  17.278   1.785
88625W        W53786   2.931  26.058   3.796
88626W        W53787   0.717   8.710  13.086
88627W        W53788  27.062  27.163   0.162
88628W        W53789   2.964   4.103   0.943
88629W        W53790  23.133  22.452   0.434
88630W        W53791   1.319   3.981  14.562
88631W        W53792   7.677  11.247  10.659
88632W        W53793  38.786  21.234   0.413
88633W        W53794  25.574  37.032   1.979
88634W        W53795  13.898  14.789  12.762
88635W        W53796  18.613  24.417   0.886
88636W        W53797  44.479  23.659  11.542
88637W        W53798  35.080  13.619  14.597
88638W        W53799  32.708   0.256   2.917
88639W        W53800  42.534  11.871   2.305
88640W        W53801   1.794   4.143  14.369
88641W        W53802  13.340  24.911  10.756
88642W        W53803  36.888  15.005  14.044
88643W        W53804  35.944  26.868   0.376
88644W        W53805  42.788  10.569   0.948
88645W        W53806  17.243  24.660  11.671
88646W        W53807  29.003  42.632   4.102
88647W        W53808  25.309  23.233  10.206
88648W        W53809  28.076   6.771  12.652
88649W        W53810  28.220  41.342   1.244
88650W        W53811  30.855  35.325  12.104
88651W        W53812   9.596  38.445  13.546
88652W        W53813   7.192   9.970  14.156
88653W        W53814  24.624  19.651  12.944
88654W        W53815  14.611  16.152  11.619
88655W        W53816  21.722  23.545   2.191
88656W        W53817  40.163   8.379   1.962
88657W        W53818  40.617  27.123  14.976
88658W        W53819  11.229  11.054  11.477
88659W        W53820  13.377  19.084  13.797
88660W        W53821  32.044  28.138   3.236
88661W        W53822  24.999   8.321  13.406
88662W        W53823  24.612  20.292  14.318
88663W        W53824  40.293  35.908  11.152
88664W        W53825  31.845  21.581  11.013
88665W        W53826  40.982  20.666  13.560
88666W        W53827   5.514  13.687   2.831
88667W        W53828   9.935  14.914   1.671
88668W        W53829  36.398  20.270   2.873
88669W        W53830  37.108  44.299   0.411
88670W        W53831  23.601  25.230  14.905
88671W        W53832  17.599  42.952   1.799
88672W        W53833  43.986  37.002  14.313
88673W        W53834  31.266  27.114   0.758
88674W        W53835   5.443   9.696  12.810
88675W        W53836  13.698  16.784  12.463
88676W        W53837  11.252  26.039   2.216
88677W        W53838   5.648  38.114   1.389
88678W        W53839  17.737  32.583  12.261
88679W        W53840  30.313   3.219   0.470
88680W        W53841  16.060  17.340  11.926
88681W        W53842  18.268  44.884  13.308
88682W        W53843   1.594  29.166  10.465
88683W        W53844  32.655  30.899   3.729
88684W        W53845   4.262  37.145  13.847
88685W        W53846  11.315   7.523  11.576
88686W        W53847  19.774  27.185  10.700
88687W        W53848  32.319   6.625  14.007
88688W        W53849  32.976  32.427  10.935
88689W        W53850   2.269  32.105   0.891
88690W        W53851  28.021   5.899  11.661
88691W        W53852   4.655  38.781   4.162
88692W        W53853  39.370  24.951   2.898
88693W        W53854  43.076  19.220  14.583
88694W        W53855  34.465  18.556   3.862
88695W        W53856   2.350  17.723  10.241
88696W        W53857   0.119  16.883   1.269
88697W        W53858   6.790   7.446   0.969
88698W        W53859   1.647   8.966  13.457
88699W        W53860  18.706  39.155   3.313
88700W        W53861  39.455  22.273  11.074
88701W        W53862   9.391  24.716  12.837
88702W        W53863   9.299  30.702   1.364
88703W        W53864  21.095  26.441   2.893
88704W        W53865  32.200  18.630   2.840
88705W        W53866  14.180  16.273   0.809
88706W        W53867  32.373  19.782  10.769
88707W        W53868  19.011  38.776  13.852
88708W        W53869  31.215  32.671   1.858
88709W        W53870  34.518  23.837  14.817
88710W        W53871  34.539   3.184  14.415
88711W        W53872  26.556  30.697   3.309
88712W        W53873   0.721  13.787   0.220
88713W        W53874  44.140  26.518  12.878
88714W        W53875  29.697  34.114  12.630
88715W        W53876   5.300  40.435  12.866
88716W        W53877  16.387  44.070  13.378
88717W        W53878  24.149  27.183   3.724
88718W        W53879  26.160  29.915  12.998
88719W        W53880  38.996   6.889   3.082
88720W        W53881  27.513  20.728   4.191
88721W        W53882  24.148  23.647   4.494
88722W        W53883  41.413  42.298  14.315
88723W        W53884  14.177  26.032   3.853
88724W        W53885  43.326  26.864  14.520
88725W        W53886   5.640  26.384  14.385
88726W        W53887   4.660   5.747   4.640
88727W        W53888   1.846   7.722  14.892
88728W        W53889  17.842   9.887  12.870
88729W        W53890  15.253  21.458   3.802
88730W        W53891  34.627  40.052   1.217
88731W        W53892  39.419  10.780   4.149
88732W        W53893  32.055  36.402  14.873
88733W        W53894   1.804  30.905   1.388
88734W        W53895  25.735  20.615  12.842
88735W        W53896  10.713  15.566  12.535
88736W        W53897  37.923  18.036   1.785
88737W        W53898  30.271  27.223  12.862
88738W        W53899  22.333   8.397  13.774
88739W        W53900  21.002  34.162  13.569
88740W        W53901  43.891  42.285   4.296
88741W        W53902  32.534   6.976  13.653
88742W        W53903   3.234  36.750   3.119
88743W        W53904  18.321  12.135   2.463
88744W        W53905  36.805  26.153  10.597
88745W        W53906  20.008   3.273  14.064
88746W        W53907  23.734  44.912   3.107
88747W        W53908  20.662  22.200  13.391
88748W        W53909  10.396  42.763  10.688
88749W        W53910  18.365  38.255  10.998
88750W        W53911   4.802  40.669  11.486
88751W        W53912  11.404  28.677   2.751
88752W        W53913   4.314  12.872  14.759
88753W        W53914  13.590  32.887   3.802
88754W        W53915  17.601  43.154   3.986
88755W        W53916   0.209  27.851   3.000
88756W        W53917  40.056  27.910  11.094
88757W        W53918  26.795   1.024   5.030
88758W        W53919  16.135  18.531   4.155
88759W        W53920  14.082  34.597  10.709
88760W        W53921  16.162   2.148   0.734
88761W        W53922  36.872   2.963   2.425
88762W        W53923  15.961  25.329  14.926
88763W        W53924  41.923  30.058  13.511
88764W        W53925  37.448   3.307  11.163
88765W        W53926  15.558  43.005   0.412
88766W        W53927  27.122   5.260  13.046
88767W        W53928  38.533   3.932   3.699
88768W        W53929  27.916  42.773  14.178
88769W        W53930  12.826  26.227   4.111
88770W        W53931  19.679  26.458  12.082
88771W        W53932   3.657  22.109   2.266
88772W        W53933  42.528  16.269   0.395
88773W        W53934  24.704  36.032  10.227
88774W        W53935  22.805  30.423   3.052
88775W        W53936   8.864  44.777   1.371
88776W        W53937   6.839  37.257   0.747
88777W        W53938   2.026  17.771  13.035
88778W        W53939  34.447  43.768  13.909
88779W        W53940  36.932  22.583   0.827
88780W        W53941   6.601   0.805   0.522
88781W        W53942   5.010   6.394  12.554
88782W        W53943  18.163  44.707  13.859
88783W        W53944  19.650  33.418  13.373
88784W        W53945  34.354  20.852   2.176
88785W        W53946  17.498  40.624  10.845
88786W        W53947  17.322  41.265   2.621
88787W        W53948   8.817  36.521  13.373
88788W        W53949   4.750  43.032   3.284
88789W        W53950  27.970   4.876  12.961
88790W        W53951  27.506   4.965  10.707
88791W        W53952  40.411  20.260   2.601
88792W        W53953  30.608  41.343   4.868
88793W        W53954  42.917  15.070   0.889
88794W        W53955   6.421  32.609   3.391
88795W        W53956  21.750  32.919   4.250
88796W        W53957  14.106  34.105  14.795
88797W        W53958  39.089  24.150  12.827
88798W        W53959   8.608   5.865   3.219
88799W        W53960  10.374  39.484  12.962
88800W        W53961  22.505  42.476   0.926
88801W        W53962  19.059   8.526  12.948
88802W        W53963  30.818   7.459  12.090
88803W        W53964  31.401  42.821   3.666
88804W        W53965   6.829   1.241   1.820
88805W        W53966  21.129  20.320  11.922
88806W        W53967   7.199  31.104   5.028
88807W        W53968   4.061  44.827   0.403
88808W        W53969  36.835   9.701  14.480
88809W        W53970   4.716  40.727  12.351
88810W        W53971  29.630   2.913   2.908
88811W        W53972  28.056  15.259   3.720
88812W        W53973  11.096  34.801  14.003
88813W        W53974  39.913  38.462  13.619
88814W        W53975  25.557  38.555  13.493
88815W        W53976  42.354  18.359   2.904
88816W        W53977  26.818  42.838  14.941
88817W        W53978   3.351  34.358   3.835
88818W        W53979  44.451  27.356  12.918
88819W        W53980  42.668  29.047   0.957
88820W        W53981  32.698  37.818  14.184
88821W        W53982  20.045  16.169  14.733
88822W        W53983  22.491   4.985  10.119
88823W        W53984   7.989  28.728  14.435
88824W        W53985  17.466  18.267  10.736
88825W        W53986  40.416  19.075   0.458
88826W        W53987   6.676  40.808   3.258
88827W        W53988  32.353  35.342  13.038
88828W        W53989  12.748  17.833  13.938
88829W        W53990  42.467  21.706  13.090
88830W        W53991  38.333  32.920   1.671
88831W        W53992  22.523   3.429   3.671
88832W        W53993  29.538  12.371   5.062
88833W        W53994  42.294  38.049  13.401
88834W        W53995  13.496  17.094   3.767
88835W        W53996   0.047   9.771  12.368
88836W        W53997  39.425  36.167   0.949
88837W        W53998  18.773  30.327  13.265
88838W        W53999   1.828  17.868  10.266
88839W        W54000   8.483  22.179  10.629
88840W        W54001   7.826  13.291   1.938
88841W        W54002  10.389   3.386   1.680
88842W        W54003   4.203  36.411   3.288
88843W        W54004  13.457  40.508  11.610
88844W        W54005   4.637  14.390  14.544
88845W        W54006  10.296  28.520   3.563
88846W        W54007  31.073   6.314   4.028
88847W        W54008   9.381   6.049  13.144
88848W        W54009   3.787  13.617  10.387
88849W        W54010  33.141   0.404  14.209
88850W        W54011  34.568  31.113  11.949
88851W        W54012  43.904  23.896   4.205
88852W        W54013   1.518  14.956   2.215
88853W        W54014  21.607  36.000  13.745
88854W        W54015  20.561  24.004  13.818
88855W        W54016   5.261  35.292  10.591
88856W        W54017  40.543  21.438  12.275
88857W        W54018  16.814   1.681   2.792
88858W        W54019   0.101  10.901   2.198
88859W        W54020  22.700  15.388  10.613
88860W        W54021  16.687   0.542  12.077
88861W        W54022  33.601  35.759   3.144
88862W        W54023  23.469   5.515  11.032
88863W        W54024  25.996  34.147   3.836
88864W        W54025   3.678  10.877   1.794
88865W        W54026  18.057  29.671   2.893
88866W        W54027  12.510   3.822  11.771
88867W        W54028   7.727  31.904   4.616
88868W        W54029   5.203  12.327  12.057
88869W        W54030   2.758  28.746  13.559
88870W        W54031  30.467  13.395  12.025
88871W        W54032  44.436  17.630   1.717
88872W        W54033  30.753  16.302   4.734
88873W        W54034  10.133  21.365  12.993
88874W        W54035  34.295  35.016  14.021
88875W        W54036  23.732  35.474   3.543
88876W        W54037  42.607  39.261  11.374
88877W        W54038  34.541  13.701   1.347
88878W        W54039  12.792   1.304   3.643
88879W        W54040  20.278   9.029  11.062
88880W        W54041  44.252  37.507  13.463
88881W        W54042   5.458  42.879  14.542
88882W        W54043  36.399  12.144  11.507
88883W        W54044  16.078  30.440   1.806
88884W        W54045  14.643  12.283   2.234
88885W        W54046  34.123  18.291   4.832
88886W        W54047  32.284   8.357  14.405
88887W        W54048  15.339  21.006  12.328
88888W        W54049  13.311  32.261   3.219
88889W        W54050  31.437  15.255  11.670
88890W        W54051  16.904   0.361  12.516
88891W        W54052  15.073   5.761  14.279
88892W        W54053   7.322  39.322  12.365
88893W        W54054  11.631  43.495   2.155
88894W        W54055  36.378  22.949   3.276
88895W        W54056  14.782  23.157   1.418
88896W        W54057  37.956  32.012   4.073
88897W        W54058   6.968   0.193   1.743
88898W        W54059  31.321   7.350  12.200
88899W        W54060  44.210   7.354  14.287
88900W        W54061  27.495  38.677  14.044
88901W        W54062  13.715  20.409   3.868
88902W        W54063  10.763  27.148   0.562
88903W        W54064  30.494  40.980   2.298
88904W        W54065  18.500  12.485  12.532
88905W        W54066   1.547  35.775   4.669
88906W        W54067  42.041  35.544   3.090
88907W        W54068   2.966  30.399   3.438
88908W        W54069   1.955   2.960  12.425
88909W        W54070   2.734  18.509   0.858
88910W        W54071  19.608  41.907   3.498
88911W        W54072  16.150  39.084   4.051
88912W        W54073  37.900  31.373  12.931
88913W        W54074  39.486  44.995  12.477
88914W        W54075  30.070  30.567  13.995
88915W        W54076   8.243  10.229   4.340
88916W        W54077  28.279   3.784   1.313
88917W        W54078  18.554  22.938   1.227
88918W        W54079  19.079  42.263  13.397
88919W        W54080  44.544   1.297   1.988
88920W        W54081   1.501   3.559   2.026
88921W        W54082   7.300  20.730   2.878
88922W        W54083  27.623  29.902   1.881
88923W        W54084   6.462  41.089   4.098
88924W        W54085  12.805  39.424   1.831
88925W        W54086  38.354  26.003  11.989
88926W        W54087  41.179  25.475  12.954
88927W        W54088  33.424  25.212  11.144
88928W        W54089  36.352  11.767  10.283
88929W        W54090  26.554  29.352   0.847
88930W        W54091  43.994  11.324   3.181
88931W        W54092  17.284   2.339   4.012
88932W        W54093  37.051  13.200  13.296
88933W        W54094  22.688  36.351   4.547
88934W        W54095   5.742  31.644   4.507
88935W        W54096   4.755  21.616   4.476
88936W        W54097  36.520   8.895  14.191
88937W        W54098  13.147   1.655   9.896
88938W        W54099  22.767  41.304   2.835
88939W        W54100  22.657  32.177   4.681
88940W        W54101  38.954  19.677  14.614
88941W        W54102   4.798  38.530   0.463
88942W        W54103  36.480  33.387  10.615
88943W        W54104  36.096   8.882   4.803
88944W        W54105  39.437   7.249   3.101
88945W        W54106  33.214  41.906   0.955
88946W        W54107  14.645   6.188   3.203
88947W        W54108  40.882  32.321   5.011
88948W        W54109   0.888  15.343  12.576
88949W        W54110  33.654  20.286   2.342
88950W        W54111  19.616  18.989  10.190
88951W        W54112  16.212  44.879  11.663
88952W        W54113  32.122  38.347   2.338
88953W        W54114  37.603  13.662   0.009
88954W        W54115  43.098  16.100   4.781
88955W        W54116  37.640  21.975   1.899
88956W        W54117  30.845   0.807  10.527
88957W        W54118  42.749   5.051  11.929
88958W        W54119  16.274  24.679  12.449
88959W        W54120  43.555  21.211  14.404
88960W        W54121  24.139  33.166   4.153
88961W        W54122   6.891  26.482   0.786
88962W        W54123   7.705  13.065  13.346
88963W        W54124  43.465   7.366   2.449
88964W        W54125  27.502  43.010   2.584
88965W        W54126  13.529  14.734  10.717
88966W        W54127  30.132  32.059   1.394
88967W        W54128   0.405  25.523   1.350
88968W        W54129  33.329  42.681   4.146
88969W        W54130  25.123   5.504  11.623
88970W        W54131  17.143  37.390   4.173
88971W        W54132  44.782   9.848  14.152
88972W        W54133  30.659  11.737   0.900
88973W        W54134  38.230  25.104  11.237
88974W        W54135  11.264   7.268   3.511
88975W        W54136   0.421   9.009   1.034
88976W        W54137  36.198  11.675  11.616
88977W        W54138  18.730  20.605   0.122
88978W        W54139   4.680  26.697  13.714
88979W        W54140  21.092  36.014  14.486
88980W        W54141   6.672  38.596   3.660
88981W        W54142  23.999  41.294  13.040
88982W        W54143   7.290  35.377  14.462
88983W        W54144  20.895  41.418  13.025
88984W        W54145  41.478  39.609   3.243
88985W        W54146  30.612  24.760   2.671
88986W        W54147  24.967  41.452  11.105
88987W        W54148  18.057  25.218  11.997
88988W        W54149  32.395  37.177   2.163
88989W        W54150   3.760  27.149  12.862
88990W        W54151   8.398  19.739  10.467
88991W        W54152  10.829  24.943  13.900
88992W        W54153  16.263  35.830  10.612
88993W        W54154  24.677  28.719  14.825
88994W        W54155   4.386  28.957   1.653
88995W        W54156   0.504  39.283   0.273
88996W        W54157  26.997  28.060   0.742
88997W        W54158  36.616  17.633   1.357
88998W        W54159  37.125  14.266   2.677
88999W        W54160  21.015  41.809   4.581
89000W        W54161  18.822  19.438   4.017
89001W        W54162  11.070  34.852   4.186
89002W        W54163  34.606  38.864  12.626
89003W        W54164  13.221   9.414  10.781
89004W        W54165  29.868   9.683   2.069
89005W        W54166  10.144  40.776  11.899
89006W        W54167   0.459  32.428   0.810
89007W        W54168  14.467   0.106  10.919
89008W        W54169  40.074  14.651  12.417
89009W        W54170  28.066  10.327  13.523
89010W        W54171   4.328  13.944  14.743
89011W        W54172  37.051  44.328  13.795
89012W        W54173  41.453  43.333  13.357
89013W        W54174  40.314  36.336  10.771
89014W        W54175   6.336  44.507  11.080
89015W        W54176  25.453   6.209   0.903
89016W        W54177  25.399  27.126   4.583
89017W        W54178  26.476  11.267  11.808
89018W        W54179  14.633  22.092  12.628
89019W        W54180  19.028  26.991  12.473
89020W        W54181  32.030  33.531  13.111
89021W        W54182  40.924  24.773   1.423
89022W        W54183   8.376   0.775   3.214
89023W        W54184   7.750  38.308  13.537
89024W        W54185  11.837  22.681   1.229
89025W        W54186  22.244   9.938   2.770
89026W        W54187  16.411  17.324  13.852
89027W        W54188  25.090  16.151  12.221
89028W        W54189  37.017  31.802  12.410
89029W        W54190   5.443   3.054  13.404
89030W        W54191  21.324   6.256   2.304
89031W        W54192  23.917  19.591   4.926
89032W        W54193  23.231  18.961  12.894
89033W        W54194  18.192  35.548  12.626
89034W        W54195  42.055  28.621   3.269
89035W        W54196   3.521   9.661  12.618
89036W        W54197   0.803  34.892  12.069
89037W        W54198  33.965  30.054  13.937
89038W        W54199  31.484  12.317  14.944
89039W        W54200  16.979  30.763   3.450
89040W        W54201  10.278  42.442   4.803
89041W        W54202   8.773  24.285  12.527
89042W        W54203  21.985  37.586  14.410
89043W        W54204  21.712  11.355  11.117
89044W        W54205  11.244  34.802   0.042
89045W        W54206   0.285  27.429   1.990
89046W        W54207  39.946   6.572   4.919
89047W        W54208  40.862   4.752   4.672
89048W        W54209   0.411  39.581   3.157
89049W        W54210  42.139  36.012   2.871
89050W        W54211  10.844  28.210   0.215
89051W        W54212  33.474  21.934  13.598
89052W        W54213  41.401  43.750  13.024
89053W        W54214  11.479   5.666   3.203
89054W        W54215  42.504  11.661   0.780
89055W        W54216  25.680  21.967  13.561
89056W        W54217  26.208  44.819  13.928
89057W        W54218  14.065   2.851  11.293
89058W        W54219  18.035  25.097  12.516
89059W        W54220  28.705  35.143   2.653
89060W        W54221  16.802  18.023   0.409
89061W        W54222  42.891  18.905   5.047
89062W        W54223  11.315   2.780  14.763
89063W        W54224  44.882  19.965   4.240
89064W        W54225  31.580  10.256  14.370
89065W        W54226  24.075  37.335   2.507
89066W        W54227  35.694  39.393   2.695
89067W        W54228  44.363  36.347  10.777
89068W        W54229  24.562  29.495  14.373
89069W        W54230  35.002  29.036  13.158
89070W        W54231   0.272   3.918  14.872
89071W        W54232  33.940  26.728  14.847
89072W        W54233  12.391  17.209   1.212
89073W        W54234  23.145  25.094  12.406
89074W        W54235  43.201  39.400  11.139
89075W        W54236  17.839  44.477  11.895
89076W        W54237   7.868  22.262   0.348
89077W        W54238   6.776   2.842   1.926
89078W        W54239  29.966   3.102   0.100
89079W        W54240   9.777  37.029  12.818
89080W        W54241   6.607   4.188  10.905
89081W        W54242  33.092   6.168   0.190
89082W        W54243  37.561   1.445  10.993
89083W        W54244   4.181  43.466   0.492
89084W        W54245  19.882   4.833  14.745
89085W        W54246   5.764  27.330   2.280
89086W        W54247  41.479  41.859   2.657
89087W        W54248  22.295  20.035  10.454
89088W        W54249  37.125  13.743   3.288
89089W        W54250  41.425  44.331  11.437
89090W        W54251  24.203   6.569   3.302
89091W        W54252  17.537  32.760   4.087
89092W        W54253  15.772  11.194  14.705
89093W        W54254  21.122   8.938   0.688
89094W        W54255  40.377   0.842   4.131
89095W        W54256  10.853  13.335   0.847
89096W        W54257   1.435  43.703  14.513
89097W        W54258  35.416  34.038   2.531
89098W        W54259  12.794  33.962   4.326
89099W        W54260   5.099  36.358   1.892
89100W        W54261  21.144  35.587   1.919
89101W        W54262  25.077  26.043   1.782
89102W        W54263  38.757   5.304  13.033
89103W        W54264  43.679  19.151   0.951
89104W        W54265   6.602  21.628   4.918
89105W        W54266   7.257  33.823   4.438
89106W        W54267  21.656  17.645  13.287
89107W        W54268  32.205   6.384  14.496
89108W        W54269   0.417   1.932   1.235
89109W        W54270  42.902  29.146   4.576
89110W        W54271  21.027  36.465  13.340
89111W        W54272  31.092  15.044  11.064
89112W        W54273  35.652  15.215   2.943
89113W        W54274  17.920  28.009   4.803
89114W        W54275  22.228  37.266  14.069
89115W        W54276  22.134  19.793  12.634
89116W        W54277  14.326  18.017   1.404
89117W        W54278   4.370  41.423   0.399
89118W        W54279  35.581  41.998  11.597
89119W        W54280  29.998  20.205  11.513
89120W        W54281  18.653  42.590   0.420
89121W        W54282   7.752  25.423  10.160
89122W        W54283  38.237   7.194   4.965
89123W        W54284  20.907   9.082  13.983
89124W        W54285  14.047  20.766   1.515
89125W        W54286  38.967  36.399  11.974
89126W        W54287  33.522  31.383  12.011
89127W        W54288  26.458  22.379  14.875
89128W        W54289  11.850  11.311   4.125
89129W        W54290  35.928  39.849   0.822
89130W        W54291  44.936  36.987  13.896
89131W        W54292  37.341  25.171  11.618
89132W        W54293  29.095   5.215   3.183
89133W        W54294   0.835  41.173  10.656
89134W        W54295  34.046  10.865   0.903
89135W        W54296  21.046  20.391  13.875
89136W        W54297  18.360  41.442   1.522
89137W        W54298  30.458  26.610  10.665
89138W        W54299  24.697  32.999  10.721
89139W        W54300  11.290  21.596  10.568
89140W        W54301  37.026  14.936   1.669
89141W        W54302   8.460  30.948  12.509
89142W        W54303   1.752  39.581  11.415
89143W        W54304  39.895  40.952   2.906
89144W        W54305  34.134  33.573  12.409
89145W        W54306  26.228  28.592   1.003
89146W        W54307  14.005  15.451   2.194
89147W        W54308  29.843  19.706   1.259
89148W        W54309  24.994  37.009   1.276
89149W        W54310   6.856  26.131   2.643
89150W        W54311  43.252  15.558   3.595
89151W        W54312  22.616   1.449  12.486
89152W        W54313  39.544   1.581  12.947
89153W        W54314  39.921   3.633   2.162
89154W        W54315  18.000  14.080  13.129
89155W        W54316  11.100   3.278   3.197
89156W        W54317  22.828   4.460  10.952
89157W        W54318   5.994  30.158   2.339
89158W        W54319  11.684   8.324   4.347
89159W        W54320   6.826  23.676   3.573
89160W        W54321   9.699  23.215  11.298
89161W        W54322  28.195   4.737   4.954
89162W        W54323  12.092   7.805   1.812
89163W        W54324   2.287  25.731   2.329
89164W        W54325   8.683  41.253   3.805
89165W        W54326  16.254  33.598  12.985
89166W        W54327  37.231  28.490   4.560
89167W        W54328   6.627  36.463   0.273
89168W        W54329  44.705  31.000   2.949
89169W        W54330   6.417  35.401  12.109
89170W        W54331  34.585  18.010  10.286
89171W        W54332  27.968  28.973  12.985
89172W        W54333   8.165  11.896  13.798
89173W        W54334  41.204   8.300   3.252
89174W        W54335  34.567  22.244  14.800
89175W        W54336  23.917  13.366  12.388
89176W        W54337  13.015  22.206   1.769
89177W        W54338   0.934   3.313  13.111
89178W        W54339  13.123  44.956   2.213
89179W        W54340  18.134  34.038  12.114
89180W        W54341   8.870   5.426  13.962
89181W        W54342  24.039  17.938   0.430
89182W        W54343  10.749  14.265   4.876
89183W        W54344  42.841  41.116   2.331
89184W        W54345   6.936   0.440   4.351
89185W        W54346   1.962  33.972   0.983
89186W        W54347  41.728  41.966   0.814
89187W        W54348  32.321  44.787  10.522
89188W        W54349  35.533  10.664   0.916
89189W        W54350  30.897  11.634  10.885
89190W        W54351  30.516  36.579   4.127
89191W        W54352   1.641  19.494  11.679
89192W        W54353  10.346   3.857   4.944
89193W        W54354   0.457  33.933  10.863
89194W        W54355  44.433  12.821   2.747
89195W        W54356  32.995  18.595  12.895
89196W        W54357  22.227   3.217   2.289
89197W        W54358  29.955  36.889  12.469
89198W        W54359  10.619   0.501   3.150
89199W        W54360  27.020  43.549  11.994
89200W        W54361  19.570  28.406   4.729
89201W        W54362   4.690   7.755  12.423
89202W        W54363   5.846  35.864  11.544
89203W        W54364   4.410   2.293   1.207
89204W        W54365  22.268  27.885  12.492
89205W        W54366   4.428  41.990  12.847
89206W        W54367  28.707  42.782  13.525
89207W        W54368  39.406  43.087  12.154
89208W        W54369  30.164  14.176  12.861
89209W        W54370  32.726   7.333  10.912
89210W        W54371   6.120  27.153   0.099
89211W        W54372  41.568  39.531   1.863
89212W        W54373  28.542   4.128  11.776
89213W        W54374  42.050  24.630   4.244
89214W        W54375  29.055  25.075  13.939
89215W        W54376  17.702  35.997   0.470
89216W        W54377  36.174  38.110   4.526
89217W        W54378  21.293  17.830  12.258
89218W        W54379  25.452  10.241  11.288
89219W        W54380  39.452  15.244  14.082
89220W        W54381  20.746  29.552  12.055
89221W        W54382  39.961  22.524  13.980
89222W        W54383  42.360  34.014  11.460
89223W        W54384  29.210  13.797   0.374
89224W        W54385  24.289  43.768   2.200
89225W        W54386   3.426  17.628  13.591
89226W        W54387  25.120  34.210  14.671
89227W        W54388  26.986   8.806   2.208
89228W        W54389   7.448   5.753  11.711
89229W        W54390  36.872   6.843   2.877
89230W        W54391   7.189   1.659  13.326
89231W        W54392  35.922  10.291   0.456
89232W        W54393   0.906  36.271   3.456
89233W        W54394  17.186   9.303   3.187
89234W        W54395  25.623   9.064  13.832
89235W        W54396  29.358  28.373   1.829
89236W        W54397   3.026   7.192   3.088
89237W        W54398  43.592   5.683   3.326
89238W        W54399   9.579  30.356  14.962
89239W        W54400  32.327  25.976  14.059
89240W        W54401  41.277  23.673   1.685
89241W        W54402   5.854  21.585  11.451
89242W        W54403  32.424  11.195  13.315
89243W        W54404  37.454   7.630   4.749
89244W        W54405  33.746  42.026   1.266
89245W        W54406  42.057  28.712   4.222
89246W        W54407  28.695  17.600  10.919
89247W        W54408  19.991  15.139   1.699
89248W        W54409  38.498   8.134   1.473
89249W        W54410   1.746  15.632   4.980
89250W        W54411   4.298  15.063  12.476
89251W        W54412  40.768  41.010   0.851
89252W        W54413  38.995  39.554   4.251
89253W        W54414  27.547  33.053  14.040
89254W        W54415   4.323  32.415  12.969
89255W        W54416  25.928  18.911  12.349
89256W        W54417  30.386  28.574  11.818
89257W        W54418   8.357   1.493  11.112
89258W        W54419  30.309  35.543   0.459
89259W        W54420   0.162  13.365   0.817
89260W        W54421  39.039  36.904   4.205
89261W        W54422  30.852  22.877  10.786
89262W        W54423  43.030   2.361  11.188
89263W        W54424  44.986  38.558   1.731
89264W        W54425   1.833   6.373   3.317
89265W        W54426  21.825   1.405   2.996
89266W        W54427   8.751  41.139  13.419
89267W        W54428   6.173  37.335  13.978
89268W        W54429   9.411  29.043  11.690
89269W        W54430  35.783   6.265  14.833
89270W        W54431  20.522   7.423  13.273
89271W        W54432  38.782  27.638  14.163
89272W        W54433  44.087  19.628  13.645
89273W        W54434  32.926  28.168   3.081
89274W        W54435   9.331  29.668   1.251
89275W        W54436  42.278  36.035   9.976
89276W        W54437  30.392  39.518   3.797
89277W        W54438  25.704  38.753   3.960
89278W        W54439  11.115  16.093   4.534
89279W        W54440  12.647  15.203   3.124
89280W        W54441  19.237  16.666  11.184
89281W        W54442  26.119  43.235   1.276
89282W        W54443  25.572  40.241   5.804
89283W        W54444  31.369  10.921   1.457
89284W        W54445  37.995  35.126   1.755
89285W        W54446  39.552  18.409  14.705
89286W        W54447  44.465   2.951   1.143
89287W        W54448  34.546  13.343  11.100
89288W        W54449  36.915  38.209  10.983
89289W        W54450   7.474   2.289   1.547
89290W        W54451  38.209  13.665   0.880
89291W        W54452  28.026  34.522  12.945
89292W        W54453  31.512   0.186   3.832
89293W        W54454  11.626  40.982  12.306
89294W        W54455  20.106  28.440   9.903
89295W        W54456  23.106   3.618  12.053
89296W        W54457  17.502  10.053   0.240
89297W        W54458  15.165  12.971   4.262
89298W        W54459  36.038  22.503   0.453
89299W        W54460  43.716  10.376  12.029
89300W        W54461  26.625  24.874   3.742
89301W        W54462  37.036  15.604   5.112
89302W        W54463   7.981  30.022  12.587
89303W        W54464  41.006  14.190  11.867
89304W        W54465  22.565  14.388   1.218
89305W        W54466  36.000  37.274  11.636
89306W        W54467   7.894  15.614  14.367
89307W        W54468  14.883  16.175   5.587
89308W        W54469  35.037  26.495  11.980
89309W        W54470  36.119  40.777   0.908
89310W        W54471  40.007  10.667   1.279
89311W        W54472  18.914  39.495  10.672
89312W        W54473  18.243   7.824   2.973
89313W        W54474  44.509  20.336   4.271
89314W        W54475  29.481  14.693  13.798
89315W        W54476   6.911  30.049   1.367
89316W        W54477   5.134  31.570   3.068
89317W        W54478  29.119  32.404  14.787
89318W        W54479  32.600  14.846   1.553
89319W        W54480  40.123  27.422  13.834
89320W        W54481  25.468  34.496   2.718
89321W        W54482  41.300  31.950   5.069
89322W        W54483   9.113  24.909   4.555
89323W        W54484  11.304   7.984   4.258
89324W        W54485  38.616  21.803   2.694
89325W        W54486  26.589  29.145   4.830
89326W        W54487  41.109  22.240  13.489
89327W        W54488   3.091   3.730   0.431
89328W        W54489  37.447  15.151   4.239
89329W        W54490  33.989   9.216  14.511
89330W        W54491  18.343   4.790  13.845
89331W        W54492  12.357  39.822   2.650
89332W        W54493  11.983  39.866   4.097
89333W        W54494   9.000  11.705   4.962
89334W        W54495  33.927  12.109   4.035
89335W        W54496   9.449  17.481  14.977
89336W        W54497  29.404  13.461   5.082
89337W        W54498  32.398  27.042  13.599
89338W        W54499  24.546  11.500  12.690
89339W        W54500  21.651  44.327  12.481
89340W        W54501  30.267  20.682  11.406
89341W        W54502  10.467  18.310   3.193
89342W        W54503  14.299  35.882   2.675
89343W        W54504  18.291  31.501  14.588
89344W        W54505  14.713  25.684  11.975
89345W        W54506  43.287  18.306   4.940
89346W        W54507  15.974   5.915   5.106
89347W        W54508   7.747  33.973   4.455
89348W        W54509  20.781  44.559   1.877
89349W        W54510  10.570  22.109  10.752
89350W        W54511   4.769   8.152   0.880
89351W        W54512  32.362   7.409  12.268
89352W        W54513  15.613  32.103  14.694
89353W        W54514   1.955  13.732  10.416
89354W        W54515  23.287  25.716   4.647
89355W        W54516  31.976   8.352  10.822
89356W        W54517   9.731  23.655  10.543
89357W        W54518  38.908  16.809   3.560
89358W        W54519  22.665   9.997  12.378
89359W        W54520  27.186  15.229  13.470
89360W        W54521  28.021  36.755   0.277
89361W        W54522  44.808  34.991  12.925
89362W        W54523  33.827  19.103   1.914
89363W        W54524  32.316  38.341   0.873
89364W        W54525  26.336  44.829   4.534
89365W        W54526  31.002   3.378  11.620
89366W        W54527   1.003  44.256   1.807
89367W        W54528  37.468  37.875  11.019
89368W        W54529  42.775  40.862   4.780
89369W        W54530  10.628  26.751  11.509
89370W        W54531  40.358  41.352   3.282
89371W        W54532  36.087  11.333   2.397
89372W        W54533  39.325  16.088   4.143
89373W        W54534  15.618  36.378  13.383
89374W        W54535   1.825  19.048   3.609
89375W        W54536  13.150  44.653  10.815
89376W        W54537   3.798  12.717   2.328
89377W        W54538  37.033  11.093  14.157
89378W        W54539   8.667  13.147  11.987
89379W        W54540   2.855  33.675   0.212
89380W        W54541  25.745  20.132  13.974
89381W        W54542   4.220   5.866  11.993
89382W        W54543  31.231   8.782   2.839
89383W        W54544  12.535  38.210   1.533
89384W        W54545   5.488  18.105  10.655
89385W        W54546  12.816  14.660   4.513
89386W        W54547  30.871   1.329  12.068
89387W        W54548  25.721  41.172  14.679
89388W        W54549  10.195  36.011  12.685
89389W        W54550  19.987  28.142   0.470
89390W        W54551   4.973  29.497   2.844
89391W        W54552   0.941  21.467   1.709
89392W        W54553  32.310  25.124  13.076
89393W        W54554  19.210  27.176   0.471
89394W        W54555  44.237   3.548   5.129
89395W        W54556  40.803  32.194  14.386
89396W        W54557   8.683  22.548   3.366
89397W        W54558  21.265  29.692   3.783
89398W        W54559   3.433   9.911   1.912
89399W        W54560  16.030  42.786  11.612
89400W        W54561  42.324  35.960  14.672
89401W        W54562  11.702   6.805  11.749
89402W        W54563  37.906  38.991  10.690
89403W        W54564  30.095   2.814   3.272
89404W        W54565  27.230  12.859   4.696
89405W        W54566   4.332  27.660   2.929
89406W        W54567  19.752  31.610  12.930
89407W        W54568  21.971  43.042   1.930
89408W        W54569  31.971  40.731  14.666
89409W        W54570  37.847  35.622   1.832
89410W        W54571   2.067   3.719   3.390
89411W        W54572  28.898  12.732  14.020
89412W        W54573   5.376  25.076  12.043
89413W        W54574  39.347  12.449   2.215
89414W        W54575   3.899  34.990   0.236
89415W        W54576  35.974  37.523  13.030
89416W        W54577  15.175  20.524  13.850
89417W        W54578  16.909  12.703   0.290
89418W        W54579  29.481   7.976   3.149
89419W        W54580   0.508  38.917  11.229
89420W        W54581  16.284   2.370   3.123
89421W        W54582  30.214  13.683  14.028
89422W        W54583  44.338  19.902  10.032
89423W        W54584  41.265  20.616   1.235
89424W        W54585  35.059  18.190  14.370
89425W        W54586  26.004  23.527   4.533
89426W        W54587   3.164  22.976  13.394
89427W        W54588  37.349   1.749  10.559
89428W        W54589  36.190   4.410  14.994
89429W        W54590  44.191  38.535  11.306
89430W        W54591  32.909  13.189   1.660
89431W        W54592   2.980  38.964  11.879
89432W        W54593   8.205  33.083  14.878
89433W        W54594  15.242  20.631  13.042
89434W        W54595  29.116   2.997  13.464
89435W        W54596   4.376  25.887  13.838
89436W        W54597  21.029  42.127   0.682
89437W        W54598  16.848  39.454   3.221
89438W        W54599  42.029   7.687   4.180
89439W        W54600  26.010  11.118   3.232
89440W        W54601  40.021  32.840  12.048
89441W        W54602   5.335  19.580   0.643
89442W        W54603  34.152  22.118   4.574
89443W        W54604   1.078  17.129  11.434
89444W        W54605  36.905  35.356  11.515
89445W        W54606  37.755  23.600  12.999
89446W        W54607  19.044   5.090   1.415
89447W        W54608  26.582  21.319   1.832
89448W        W54609   2.327  21.603   1.798
89449W        W54610  14.911  29.894  11.083
89450W        W54611  22.220  21.231  10.572
89451W        W54612  14.800  22.646   1.505
89452W        W54613  18.058   3.908   3.216
89453W        W54614  13.739  17.534  12.064
89454W        W54615  38.620  36.998  11.204
89455W        W54616  13.502  39.844   3.315
89456W        W54617  19.043  12.382  10.656
89457W        W54618   0.761  10.874  11.057
89458W        W54619   4.516  22.502  11.854
89459W        W54620  22.893  18.100   5.078
89460W        W54621  38.574  21.795   1.790
89461W        W54622  21.161   4.652  10.188
89462W        W54623  24.003  15.817  12.046
89463W        W54624  11.840  13.082  14.998
89464W        W54625  16.336  24.371  11.066
89465W        W54626  35.579  37.924  10.650
89466W        W54627  30.531   8.426   2.390
89467W        W54628  15.181  31.633   5.021
89468W        W54629  26.477   9.891   5.172
89469W        W54630  19.444  19.163  10.634
89470W        W54631  31.888  29.641   0.389
89471W        W54632  12.919  29.733   2.282
89472W        W54633  30.923   9.182   4.093
89473W        W54634  15.320  25.165   1.862
89474W        W54635  15.971  42.320   3.551
89475W        W54636  42.033  32.463   4.152
89476W        W54637  36.860  12.393   1.307
89477W        W54638  12.327  23.679  13.586
89478W        W54639  18.548  20.973  11.196
89479W        W54640   6.782  10.737  11.040
89480W        W54641   2.649  20.084   3.657
89481W        W54642  12.691  42.572  11.546
89482W        W54643  23.701  27.095  13.781
89483W        W54644  21.177  10.730   0.229
89484W        W54645  36.513  22.727  12.029
89485W        W54646  27.376  33.462  13.750
89486W        W54647  36.069   7.389  11.451
89487W        W54648  33.363  22.093   0.323
89488W        W54649  43.460  25.075   4.823
89489W        W54650  41.823   6.660  14.152
89490W        W54651  35.497  29.607  11.067
89491W        W54652  12.689  22.193  10.969
89492W        W54653  37.969  24.700  12.380
89493W        W54654  32.632   7.444  13.844
89494W        W54655  39.959  42.857   1.752
89495W        W54656  22.794   3.328  13.383
89496W        W54657  33.337   2.961  13.651
89497W        W54658  44.881  28.632  12.773
89498W        W54659  40.709  21.408  10.981
89499W        W54660  13.322  43.606   1.498
89500W        W54661  27.309  14.619  11.337
89501W        W54662  37.422  26.517  11.763
89502W        W54663   8.650  38.695   4.120
89503W        W54664  33.934   0.514  11.921
89504W        W54665  35.329  15.681  14.541
89505W        W54666  33.656  41.924  12.454
89506W        W54667  44.268  13.677   1.786
89507W        W54668  26.564  33.389  14.469
89508W        W54669  15.525  44.468  12.520
89509W        W54670  28.110  23.026   0.802
89510W        W54671  18.596  17.593   2.432
89511W        W54672  10.387  36.409  12.416
89512W        W54673  10.838  37.145   1.790
89513W        W54674  14.326  35.106  14.274
89514W        W54675  25.643  23.001  13.450
89515W        W54676   4.206  33.158   1.877
89516W        W54677  15.654   3.964   2.748
89517W        W54678  14.885  27.215  14.520
89518W        W54679  41.905  28.910  11.199
89519W        W54680   0.779  40.838   1.387
89520W        W54681  41.519  20.749  12.477
89521W        W54682   1.862  33.886   1.498
89522W        W54683  27.107  11.393  14.776
89523W        W54684  18.753  30.430   1.033
89524W        W54685  12.152  10.187   4.462
89525W        W54686  39.802  41.360   2.622
89526W        W54687  31.634   5.637  14.983
89527W        W54688  19.806   6.386  11.575
89528W        W54689  14.200  37.870   0.905
89529W        W54690  18.556  26.118   1.198
89530W        W54691  25.647  35.626   1.289
89531W        W54692  26.509  23.474   4.522
89532W        W54693  13.140  31.957   3.605
89533W        W54694  25.433  43.490  10.274
89534W        W54695  23.052   7.832  10.749
89535W        W54696  38.172  40.730  14.253
89536W        W54697  13.751  39.253  11.958
89537W        W54698  15.657  40.588   2.159
89538W        W54699  37.050  32.703   0.839
89539W        W54700  14.918  17.087  12.925
89540W        W54701  26.651  14.321   3.167
89541W        W54702  10.208  14.103  13.078
89542W        W54703  10.768  20.464   1.476
89543W        W54704  28.583  38.145   1.604
89544W        W54705  32.805  10.239   1.180
89545W        W54706  16.805  35.280   2.447
89546W        W54707  14.539  29.964  12.283
89547W        W54708  30.392  13.677   2.328
89548W        W54709  25.169  12.667  13.818
89549W        W54710  44.990  21.014  11.113
89550W        W54711  37.071  11.786  12.896
89551W        W54712   3.708  12.183   1.435
89552W        W54713  12.588  14.748   2.683
89553W        W54714  33.328  43.332   2.908
89554W        W54715  28.235  26.944   3.525
89555W        W54716  37.378  27.033  10.609
89556W        W54717  22.020   4.156   4.042
89557W        W54718  40.483   1.143  14.290
89558W        W54719  43.330  37.310  13.009
89559W        W54720  15.257  13.348   1.380
89560W        W54721  13.108  10.137   1.417
89561W        W54722  21.175  42.284  11.608
89562W        W54723  41.996  11.330   4.284
89563W        W54724  15.601  14.716   2.830
89564W        W54725   5.654   3.191  12.482
89565W        W54726  30.432  24.284  13.864
89566W        W54727  15.908  29.076  12.611
89567W        W54728  27.420  37.828  11.742
89568W        W54729  33.817  42.130   3.743
89569W        W54730   7.329   9.187  14.949
89570W        W54731  38.947   2.916   1.239
89571W        W54732   3.249  30.371   0.378
89572W        W54733  44.606  26.940   0.388
89573W        W54734  13.274  44.004   0.071
89574W        W54735  22.909  32.846  14.033
89575W        W54736  13.694  31.752   2.287
89576W        W54737  35.035  31.198  11.447
89577W        W54738  39.123  18.568  11.496
89578W        W54739  28.049  16.549   2.187
89579W        W54740   6.748  33.170  11.527
89580W        W54741  10.584  17.754   4.316
89581W        W54742  13.776  35.898   3.819
89582W        W54743  35.438  32.935  13.733
89583W        W54744  10.824  16.745   3.158
89584W        W54745  16.835  41.473   1.221
89585W        W54746   2.745  22.189  13.073
89586W        W54747  15.134  19.245  13.404
89587W        W54748  43.255  15.668   4.492
89588W        W54749   3.276  18.576  14.970
89589W        W54750   4.518  40.468   0.247
89590W        W54751   0.479   6.228   4.525
89591W        W54752  36.498  13.146   0.100
89592W        W54753  38.773  22.072  10.660
89593W        W54754  20.153   5.012  14.348
89594W        W54755  13.134  34.566  14.870
89595W        W54756  11.761   0.794   0.346
89596W        W54757  12.909  30.257   2.307
89597W        W54758  22.135  23.727  14.018
89598W        W54759  21.479  31.504   3.882
89599W        W54760  33.815  31.877   4.067
89600W        W54761   7.183   4.866   4.340
89601W        W54762  19.025  36.885  12.950
89602W        W54763  19.572  15.006  10.301
89603W        W54764  12.020  14.822  14.069
89604W        W54765  31.860  42.007   1.268
89605W        W54766  36.086  30.647   4.666
89606W        W54767   7.704  37.635   0.267
89607W        W54768  10.745  15.808  13.466
89608W        W54769  36.412   5.350   3.277
89609W        W54770  22.235  42.076   2.630
89610W        W54771  37.559  28.826   4.790
89611W        W54772   9.199  37.290   4.143
89612W        W54773   7.825  21.209   0.263
89613W        W54774  31.867  12.379  13.770
89614W        W54775  30.153  10.614   3.363
89615W        W54776   2.475  29.416   3.679
89616W        W54777  20.277  43.215   3.694
89617W        W54778  10.095  32.599   3.117
89618W        W54779  13.276   3.511  12.747
89619W        W54780  20.112  41.828   2.896
89620W        W54781  10.032  33.610  12.309
89621W        W54782  12.667   9.122   0.038
89622W        W54783  43.422   1.953  12.385
89623W        W54784  10.862  37.450  12.538
89624W        W54785  16.796  38.357  13.224
89625W        W54786  18.662  12.321   4.089
89626W        W54787  21.608   0.378  13.790
89627W        W54788   2.743  25.014  11.407
89628W        W54789   0.965   0.166   3.715
89629W        W54790  13.435  14.005  10.247
89630W        W54791   2.909   5.821  13.771
89631W        W54792  40.955  21.195  13.475
89632W        W54793  12.366  23.544  10.755
89633W        W54794   9.631   6.218   4.326
89634W        W54795  38.191  24.227  11.698
89635W        W54796  26.231   9.294  13.311
89636W        W54797   7.229  38.175   2.520
89637W        W54798   3.248   2.325  10.411
89638W        W54799   4.783  37.495  12.563
89639W        W54800   5.903  11.323  14.825
89640W        W54801  19.848  36.403   1.817
89641W        W54802  40.545   1.806   2.060
89642W        W54803  38.364  26.483   1.863
89643W        W54804  15.330  24.968  12.456
89644W        W54805  10.133  18.823   4.486
89645W        W54806   0.881   4.023  12.358
89646W        W54807   7.248  19.128   0.864
89647W        W54808  11.770   1.782   3.246
89648W        W54809  37.551   3.892  14.471
89649W        W54810  11.304  37.344   0.233
89650W        W54811  29.827  42.405  10.376
89651W        W54812  37.462  42.310   4.158
89652W        W54813  35.229   0.407  12.544
89653W        W54814   2.438   5.920   0.907
89654W        W54815  13.711   0.349  11.337
89655W        W54816  24.682   7.630   4.846
89656W        W54817  12.652  41.997  10.705
89657W        W54818  44.899  38.437  13.761
89658W        W54819  15.357  31.858   1.036
89659W        W54820  41.161  43.521  11.463
89660W        W54821  35.885  19.520  12.121
89661W        W54822  15.042  23.839  14.975
89662W        W54823  35.273  30.340   1.841
89663W        W54824  15.846  10.265  13.976
89664W        W54825  38.224  33.031  13.540
89665W        W54826  37.952  38.366  11.118
89666W        W54827  10.254  29.247   1.880
89667W        W54828  10.247  43.614  12.674
89668W        W54829   9.745  31.112  11.447
89669W        W54830  17.539  23.124   2.683
89670W        W54831  40.023   5.718  10.418
89671W        W54832   9.813   3.518   0.362
89672W        W54833  21.216  20.368   1.743
89673W        W54834   8.707   2.278  12.571
89674W        W54835  32.621  35.453  11.323
89675W        W54836  17.509  14.152  14.991
89676W        W54837  30.909  44.256   0.289
89677W        W54838  11.786  39.998  11.085
89678W        W54839  32.322   8.041   2.762
89679W        W54840  11.622   4.166   4.581
89680W        W54841  13.542  43.299   3.205
89681W        W54842  18.024  33.249  12.523
89682W        W54843  40.071  29.046  14.461
89683W        W54844  35.869  31.423   1.275
89684W        W54845  40.574  10.763  11.048
89685W        W54846  43.922  18.140   0.029
89686W        W54847  42.830  34.946   2.125
89687W        W54848  44.629   8.898  12.197
89688W        W54849  20.667   1.278   4.144
89689W        W54850  30.000  41.940  13.421
89690W        W54851   5.386  10.902   0.966
89691W        W54852  23.529  24.619   0.364
89692W        W54853  34.419  44.952   3.186
89693W        W54854  11.196  33.427  14.444
89694W        W54855  24.753   2.185  13.800
89695W        W54856  30.637  12.360   0.334
89696W        W54857  19.512  34.925   2.674
89697W        W54858  20.889   4.202  14.861
89698W        W54859  29.844  33.913   3.707
89699W        W54860  21.437  29.492   0.938
89700W        W54861  23.094   4.829   4.585
89701W        W54862  39.703  25.883  11.647
89702W        W54863  17.972  10.158   1.806
89703W        W54864  18.619  33.487   1.462
89704W        W54865  43.310  39.466   2.811
89705W        W54866   8.983  14.519   2.848
89706W        W54867  44.243  15.655   4.041
89707W        W54868  35.001  36.963  10.999
89708W        W54869  40.370  29.558   1.749
89709W        W54870  43.928  38.799  12.502
89710W        W54871  27.914   6.938  12.188
89711W        W54872  33.200  43.869  11.656
89712W        W54873  21.553  33.078   4.710
89713W        W54874  38.865  13.883   2.959
89714W        W54875  35.640  17.658  14.731
89715W        W54876  26.091   7.761  14.333
89716W        W54877   6.898  21.623   2.828
89717W        W54878  39.159   4.340  11.821
89718W        W54879  35.319  10.258   1.231
89719W        W54880  34.251  37.415  10.264
89720W        W54881  35.548   6.246   4.747
89721W        W54882   5.144   1.184   1.308
89722W        W54883  44.813  20.741   0.649
89723W        W54884  13.352  17.122  11.510
89724W        W54885  10.753  30.968  12.681
89725W        W54886  15.639  10.230   4.024
89726W        W54887  41.385  19.787   2.770
89727W        W54888   3.485  14.663   4.083
89728W        W54889  21.768  27.900  11.132
89729W        W54890   4.276  35.667  11.182
89730W        W54891  36.088  39.023   0.279
89731W        W54892   9.761  14.770   3.133
89732W        W54893  32.088  21.625   1.958
89733W        W54894  18.769  21.611  12.608
89734W        W54895  14.671  25.039  10.522
89735W        W54896  19.998   4.757   1.196
89736W        W54897  39.369   3.744   2.729
89737W        W54898  41.963  34.913   2.311
89738W        W54899  18.293   5.757  14.058
89739W        W54900  33.465  35.307   3.840
89740W        W54901  10.366  14.597   2.796
89741W        W54902  19.717  44.763  14.969
89742W        W54903  41.370  14.813   1.183
89743W        W54904  31.645  29.919  13.244
89744W        W54905  23.066  27.862  12.444
89745W        W54906  19.057  38.950   2.915
89746W        W54907  33.987   1.247   4.560
89747W        W54908   9.722  11.258   1.374
89748W        W54909   6.332  14.236  12.844
89749W        W54910   2.745  17.223  14.805
89750W        W54911  28.862  36.912   2.748
89751W        W54912   1.416  24.203  13.928
89752W        W54913  33.680  41.426  11.717
89753W        W54914  18.124  37.981   3.740
89754W        W54915  27.604  38.995   1.362
89755W        W54916  13.716  18.376  10.613
89756W        W54917   0.074   1.229  10.991
89757W        W54918  19.845   7.957   4.855
89758W        W54919   4.217  16.152   1.362
89759W        W54920  10.162  13.414  11.091
89760W        W54921  27.009  12.185  11.588
89761W        W54922  29.397   5.803  12.900
89762W        W54923  39.577  36.152  12.522
89763W        W54924   7.199  39.469  11.906
89764W        W54925   6.150   2.546  12.191
89765W        W54926  12.564  23.976   1.585
89766W        W54927   6.602   8.199   2.158
89767W        W54928  26.620  40.010  12.048
89768W        W54929  20.613   9.641   4.290
89769W        W54930  43.342  24.664  12.635
89770W        W54931  21.097  25.930   2.778
89771W        W54932  13.681   4.459   2.231
89772W        W54933  12.081  21.092   0.448
89773W        W54934  32.355  44.062   2.290
89774W        W54935   3.963   5.191  12.473
89775W        W54936  32.557  39.654   0.910
89776W        W54937  25.782   0.516   4.179
89777W        W54938  41.100  20.997   1.848
89778W        W54939   1.724  15.734   0.859
89779W        W54940   4.695  29.617  13.606
89780W        W54941  34.080  24.167   4.246
89781W        W54942  41.869   7.414  13.052
89782W        W54943  11.894   3.885   4.922
89783W        W54944   4.111  41.191  12.036
89784W        W54945  35.452  34.581   0.713
89785W        W54946  38.752  34.611  12.068
89786W        W54947  34.612  15.211  11.704
89787W        W54948  29.887  34.412  14.272
89788W        W54949   9.649  37.566  11.388
89789W        W54950  10.215  35.981  12.150
89790W        W54951  44.397   2.596   3.420
89791W        W54952  23.490   4.446   1.379
89792W        W54953  16.030   1.025  11.151
89793W        W54954   3.777   4.822   0.421
89794W        W54955   6.306  15.343   2.926
89795W        W54956  10.972  30.073   0.398
89796W        W54957  30.651  10.064   2.624
89797W        W54958  34.806  33.959  12.409
89798W        W54959  38.284  31.618   3.212
89799W        W54960  32.547  27.088   2.728
89800W        W54961   7.836  17.890  12.122
89801W        W54962  38.620   8.200  10.950
89802W        W54963  12.233   0.054   4.038
89803W        W54964   4.294  21.066  11.660
89804W        W54965  37.614  25.459  14.797
89805W        W54966  43.592  27.116   3.767
89806W        W54967  31.381  15.659  14.840
89807W        W54968   1.819  35.990   1.299
89808W        W54969   5.797   6.183   2.162
89809W        W54970   8.696  33.044   1.856
89810W        W54971  33.199  18.657  14.333
89811W        W54972  32.877  25.627   3.778
89812W        W54973   1.671   1.493   1.017
89813W        W54974  22.312  27.084  11.412
89814W        W54975  36.295  15.818  13.425
89815W        W54976   7.995  19.797  14.901
89816W        W54977  41.134   3.039   3.619
89817W        W54978  27.453  15.535  11.582
89818W        W54979  28.744   0.809   4.093
89819W        W54980  33.309  28.914   4.458
89820W        W54981  12.857  44.085   0.398
89821W        W54982  34.398   9.641  14.728
89822W        W54983  17.020   0.423  14.437
89823W        W54984  29.971   6.278   2.125
89824W        W54985  18.125  24.160  12.582
89825W        W54986  32.095  35.433  13.488
89826W        W54987  41.781  14.871   3.670
89827W        W54988  13.261   5.932  14.242
89828W        W54989   4.900  40.485   3.780
89829W        W54990  33.851  16.789  13.002
89830W        W54991   1.221  30.937  12.926
89831W        W54992  30.488  21.187   1.899
89832W        W54993   0.626  18.794   0.878
89833W        W54994  12.148  21.587  10.658
89834W        W54995  26.134   8.868  12.563
89835W        W54996  12.407  20.155  12.971
89836W        W54997  28.478  28.972  12.066
89837W        W54998   2.227  26.696   2.384
89838W        W54999  41.935  19.027  13.520
89839W        W55000  40.430   5.157  12.667
89840W        W55001   7.399  39.544   2.775
89841W        W55002   3.906   4.608   3.621
89842W        W55003  11.680  12.351  11.060
89843W        W55004  25.076  29.503  14.512
89844W        W55005  26.677  43.756  10.670
89845W        W55006   3.908  40.178  12.957
89846W        W55007  34.396   8.142  14.746
89847W        W55008  32.821  31.888   2.978
89848W        W55009  38.011   7.720  14.801
89849W        W55010  29.014  24.518   4.088
89850W        W55011  12.590   4.956  12.317
89851W        W55012   7.733  20.445   2.888
89852W        W55013  35.906  30.943  14.489
89853W        W55014   1.624  10.356   2.638
89854W        W55015  33.504  24.634   0.204
89855W        W55016  31.223   1.413   0.459
89856W        W55017  41.051  37.599  12.046
89857W        W55018  11.824  20.451  13.335
89858W        W55019  10.077  39.140   2.844
89859W        W55020  29.108  41.496  10.800
89860W        W55021  36.118  27.111  12.701
89861W        W55022  23.352  44.125  14.480
89862W        W55023   2.815  11.974   3.620
89863W        W55024   7.012  33.003   4.089
89864W        W55025  15.192  30.532  12.085
89865W        W55026  14.453   2.990  10.981
89866W        W55027   7.881   0.101  14.907
89867W        W55028  31.531  40.030   2.219
89868W        W55029  21.819  34.627   3.696
89869W        W55030  27.951   2.269  11.607
89870W        W55031  38.063  21.637   0.382
89871W        W55032  14.276   8.145   3.150
89872W        W55033  37.100   7.401   0.885
89873W        W55034   6.751  20.491   1.896
89874W        W55035  16.537  11.144   3.426
89875W        W55036  19.644  22.297   3.663
89876W        W55037   2.012  13.002   1.301
89877W        W55038   9.227  17.030   3.585
89878W        W55039  19.187  19.354   2.657
89879W        W55040  23.202  33.598  12.386
89880W        W55041   7.599  24.015   3.521
89881W        W55042   2.305  23.993  13.554
89882W        W55043  41.666  38.086   4.062
89883W        W55044   6.809   7.163  14.323
89884W        W55045  31.365  25.210  12.671
89885W        W55046   3.201  40.281   2.928
89886W        W55047  40.450   6.274   1.279
89887W        W55048  22.399   8.029   2.152
89888W        W55049  11.586   9.347  12.185
89889W        W55050  17.747  38.471   2.994
89890W        W55051  19.077  18.426  11.687
89891W        W55052  28.010  30.532   5.003
89892W        W55053  26.210  32.038   0.189
89893W        W55054   1.508  33.117  12.876
89894W        W55055  14.456   1.814   2.630
89895W        W55056  39.097  40.684  14.030
89896W        W55057   6.989  25.817  13.379
89897W        W55058   3.355   3.971  14.274
89898W        W55059  29.562  37.560   2.734
89899W        W55060   5.965  28.715  12.912
89900W        W55061  22.610  25.218   2.634
89901W        W55062   9.806  42.379   4.557
89902W        W55063  12.801   6.839  13.375
89903W        W55064  42.351   7.997   2.749
89904W        W55065   4.427  11.631   2.712
89905W        W55066  13.810  14.706  12.214
89906W        W55067  31.141  43.162  14.452
89907W        W55068  40.465  44.539   0.886
89908W        W55069  17.707  43.040  10.413
89909W        W55070   5.649  10.943  14.509
89910W        W55071  15.257  44.807  13.704
89911W        W55072   2.662  30.546  12.906
89912W        W55073  44.288  27.584   9.983
89913W        W55074  31.261  28.834  12.647
89914W        W55075  12.425  30.347  11.174
89915W        W55076  30.492  23.889  11.976
89916W        W55077  36.565  42.732  14.868
89917W        W55078  26.156  20.185   0.925
89918W        W55079  41.211  40.653   3.226
89919W        W55080  39.709  40.392   0.483
89920W        W55081  20.679  33.666   0.317
89921W        W55082  42.172  39.580  12.586
89922W        W55083  29.843  19.430  13.101
89923W        W55084  14.129   1.416  11.069
89924W        W55085  16.070   2.780   2.813
89925W        W55086   8.398  25.607   2.210
89926W        W55087  34.498  32.881   3.586
89927W        W55088  29.137  39.317   2.226
89928W        W55089  23.309  35.470  11.916
89929W        W55090  32.094  42.417   2.809
89930W        W55091  35.980  23.668  10.697
89931W        W55092  20.750  23.768   0.210
89932W        W55093  17.301  42.337   4.898
89933W        W55094   2.172  37.317   4.578
89934W        W55095  26.332  38.521   2.281
89935W        W55096  37.946  14.125  10.709
89936W        W55097  39.007  34.600  13.619
89937W        W55098   9.337  44.323   2.761
89938W        W55099  43.567  42.026   1.456
89939W        W55100   3.702  31.892  10.719
89940W        W55101  19.732  33.149   3.297
89941W        W55102  40.345   3.212  13.384
89942W        W55103  43.090   0.425   1.865
89943W        W55104   3.327  16.551   2.265
89944W        W55105   8.181  22.278   0.777
89945W        W55106  38.841  40.328   3.541
89946W        W55107  18.880  13.086   2.398
89947W        W55108   4.204  38.869   3.272
89948W        W55109  33.558  24.007   9.911
89949W        W55110  12.870   7.702   1.234
89950W        W55111   9.755  36.899   0.468
89951W        W55112  30.380  20.172  10.567
89952W        W55113  29.934   7.515  12.074
89953W        W55114  30.656  25.013  10.749
89954W        W55115  23.147   7.304  10.590
89955W        W55116  41.249   9.700   3.285
89956W        W55117  19.076  24.132  14.122
89957W        W55118  28.571  18.963  14.576
89958W        W55119  36.445  32.671  14.524
89959W        W55120  40.659  33.197   0.586
89960W        W55121  26.728  15.526  12.368
89961W        W55122  39.426  40.346   4.249
89962W        W55123   7.280  12.321   1.274
89963W        W55124  12.754  36.608   4.471
89964W        W55125   9.904  24.695  12.860
89965W        W55126  36.023  23.187   3.598
89966W        W55127  28.913  25.004   4.349
89967W        W55128  37.806  36.142   0.975
89968W        W55129  12.703  28.434   0.402
89969W        W55130  41.844  31.665  13.474
89970W        W55131  44.499   3.830   1.212
89971W        W55132  14.071   8.344   4.609
89972W        W55133   6.075  14.365   2.810
89973W        W55134  22.866   7.551  12.091
89974W        W55135   5.676  44.794   1.771
89975W        W55136   1.295  42.345   2.187
89976W        W55137  18.711  24.389   1.476
89977W        W55138  20.890  38.455   1.473
89978W        W55139  41.504  37.521  11.802
89979W        W55140  19.613  29.634   1.450
89980W        W55141  28.397  24.988   4.553
89981W        W55142   2.884  35.662  12.598
89982W        W55143  18.809  36.321  12.525
89983W        W55144  37.801  27.888  12.024
89984W        W55145   8.395  20.552   1.243
89985W        W55146  12.564   7.188   2.765
89986W        W55147  13.937  24.572  11.956
89987W        W55148  40.881  16.298  14.190
89988W        W55149   0.372  29.650   3.023
89989W        W55150  37.430  19.236  12.014
89990W        W55151  32.645  41.795  13.483
89991W        W55152  24.083  14.094  11.613
89992W        W55153  24.676  36.932   3.677
89993W        W55154  22.550  10.862  12.678
89994W        W55155  36.981  19.108  12.834
89995W        W55156  35.473  16.234   3.288
89996W        W55157  18.006  22.553  11.104
89997W        W55158  27.739  12.134  14.942
89998W        W55159   2.157  24.074   2.822
89999W        W55160   2.298  22.640   2.800
90000W        W55161   1.476  18.285   2.158
90001W        W55162  10.642  17.255   3.864
90002W        W55163  43.411   6.773  12.500
90003W        W55164  24.444   1.950   0.503
90004W        W55165  28.448  20.285  10.731
90005W        W55166  11.691   8.271   2.302
90006W        W55167  20.445   2.353  11.532
90007W        W55168  43.395   0.252   2.293
90008W        W55169  44.795  32.180   0.919
90009W        W55170  32.363  36.358   4.753
90010W        W55171  38.909  38.309  11.205
90011W        W55172   3.857  12.630  14.946
90012W        W55173   4.673  14.035   2.181
90013W        W55174  42.000  29.557   0.771
90014W        W55175  31.075  10.643  13.009
90015W        W55176  23.883  17.132  10.771
90016W        W55177  12.625  23.982  11.946
90017W        W55178  31.823  30.499  12.033
90018W        W55179  11.934  41.055   1.845
90019W        W55180  27.960   1.909  14.227
90020W        W55181  29.328  43.794  11.943
90021W        W55182  11.134  28.198  12.664
90022W        W55183  15.711  24.937   3.376
90023W        W55184   8.837  44.334  10.709
90024W        W55185  28.453   9.707  12.387
90025W        W55186  44.049  41.393   3.597
90026W        W55187  43.756  32.356   0.881
90027W        W55188   1.873   5.868  14.101
90028W        W55189  18.678  26.496  11.203
90029W        W55190   3.767  30.095   1.335
90030W        W55191  16.169   4.401  14.275
90031W        W55192  16.099  24.432   4.715
90032W        W55193  44.944   5.173   1.612
90033W        W55194  25.974  36.825   1.701
90034W        W55195  32.103  20.249  14.768
90035W        W55196  44.622   9.642  12.728
90036W        W55197  17.623  15.629   1.423
90037W        W55198   5.732   9.991   3.913
90038W        W55199  35.418  14.839   4.353
90039W        W55200  25.458   1.703  14.863
90040W        W55201   4.437  32.980  14.558
90041W        W55202  30.045   1.878  13.376
90042W        W55203  43.593  24.690   2.633
90043W        W55204   2.503  30.249  10.030
90044W        W55205  20.282  23.999   0.263
90045W        W55206   3.958  10.513   0.598
90046W        W55207  28.651  33.938  12.172
90047W        W55208  17.722   0.881  12.104
90048W        W55209  23.552   8.141   2.879
90049W        W55210  43.586  27.699  12.656
90050W        W55211  21.196   9.418  14.244
90051W        W55212  25.255   6.845  13.426
90052W        W55213  30.113   5.810   2.928
90053W        W55214   0.627   2.140  14.455
90054W        W55215  10.706  30.537   3.781
90055W        W55216  40.078  33.586   3.822
90056W        W55217  36.075  40.580   3.237
90057W        W55218  21.710  43.560  11.129
90058W        W55219  21.570  41.479  12.585
90059W        W55220  38.012  40.124  13.465
90060W        W55221  21.512  17.238   5.372
90061W        W55222  10.665   8.927  11.129
90062W        W55223  20.860  27.496  13.476
90063W        W55224   7.421   7.930   2.274
90064W        W55225  42.976  15.617  14.867
90065W        W55226  41.593  19.519   3.159
90066W        W55227  31.353  41.375  12.946
90067W        W55228  23.125  43.275  12.158
90068W        W55229  21.800  12.231   1.229
90069W        W55230  10.841   3.295   2.761
90070W        W55231  39.978  24.661   1.195
90071W        W55232  13.668  11.904  12.555
90072W        W55233  21.216  23.669   0.454
90073W        W55234  22.744  39.278  14.834
90074W        W55235  28.257   4.954  12.535
90075W        W55236  31.813  41.171  14.419
90076W        W55237  41.374  27.330  13.530
90077W        W55238  18.525  38.409   4.201
90078W        W55239  28.664  26.642   3.415
90079W        W55240  17.072  31.053  10.890
90080W        W55241  37.027  35.185  12.615
90081W        W55242  33.778   5.469   1.813
90082W        W55243  39.514  29.107  11.128
90083W        W55244  38.423  31.619  12.899
90084W        W55245  44.960  27.194   4.141
90085W        W55246   1.592  35.329   3.642
90086W        W55247  13.733   7.890   2.003
90087W        W55248  27.189  42.975   3.480
90088W        W55249  36.383  26.293   2.722
90089W        W55250  11.810  22.171  12.264
90090W        W55251  31.600  21.913   4.413
90091W        W55252  40.524   9.964   4.618
90092W        W55253   4.257   0.723   0.364
90093W        W55254  41.283  16.298  13.863
90094W        W55255  31.099   1.842   1.717
90095W        W55256  33.419  17.292  12.913
90096W        W55257  23.026  22.042   3.191
90097W        W55258  31.936   7.603   1.327
90098W        W55259  37.298  33.306   4.901
90099W        W55260  33.309  18.424   5.238
90100W        W55261  12.194  19.367  11.148
90101W        W55262  36.141  15.986  12.612
90102W        W55263  15.244  44.273  13.927
90103W        W55264  27.007  10.866   1.435
90104W        W55265  29.985   2.648   0.377
90105W        W55266  40.466  34.529  14.483
90106W        W55267  23.123  38.701   1.482
90107W        W55268   6.851  33.777   3.627
90108W        W55269  14.862  38.559   1.347
90109W        W55270  38.369   1.747   0.753
90110W        W55271  14.699  32.985  13.099
90111W        W55272   2.949  33.276  12.028
90112W        W55273  19.230   2.600  13.954
90113W        W55274  38.470   7.758  10.752
90114W        W55275   4.254  14.066  12.483
90115W        W55276  13.997  22.074   2.740
90116W        W55277  13.985  40.866   2.741
90117W        W55278  14.549   9.849  11.608
90118W        W55279  38.830  33.621   1.146
90119W        W55280  12.738  36.167   0.389
90120W        W55281  29.505   3.139  14.783
90121W        W55282  36.617   8.678   1.318
90122W        W55283  13.555  35.993  12.152
90123W        W55284  35.580   4.866   4.406
90124W        W55285  44.479   6.436   2.743
90125W        W55286   8.268  42.583   4.981
90126W        W55287  11.171  13.635  14.919
90127W        W55288  19.273  43.929   4.937
90128W        W55289  27.688  33.925  12.172
90129W        W55290  31.881  10.178   4.301
90130W        W55291  31.477   5.596   3.602
90131W        W55292  41.103  34.611  10.974
90132W        W55293  20.154  19.098   2.292
90133W        W55294  14.214  12.982  11.531
90134W        W55295  20.303   7.362  10.684
90135W        W55296   8.568  28.153   1.844
90136W        W55297  21.044   1.207  10.475
90137W        W55298  36.527  39.644  12.144
90138W        W55299  12.176  15.188   4.053
90139W        W55300  17.773  38.394  12.914
90140W        W55301  34.893  16.149   1.016
90141W        W55302  10.438   1.543   4.565
90142W        W55303  20.569  17.884  14.342
90143W        W55304  19.314  24.380   0.333
90144W        W55305  25.167   2.245  14.402
90145W        W55306  10.521  15.070  11.118
90146W        W55307   9.135  20.310   0.695
90147W        W55308  14.286   9.764   3.165
90148W        W55309  37.552  20.714  12.529
90149W        W55310  19.619  44.410   4.110
90150W        W55311  40.517   9.056  11.054
90151W        W55312  21.233  28.141   1.667
90152W        W55313  41.683  32.331  13.888
90153W        W55314  24.080  44.046   0.763
90154W        W55315  17.288  19.700  13.884
90155W        W55316   4.618  14.148  12.867
90156W        W55317  39.525   6.298  12.521
90157W        W55318  19.120  44.545  13.920
90158W        W55319  33.769  34.388   1.191
90159W        W55320  37.433   0.727  12.641
90160W        W55321  43.232   5.974  10.987
90161W        W55322  24.445   2.488  13.498
90162W        W55323  32.897  27.917  10.819
90163W        W55324  38.370  24.754   2.100
90164W        W55325   8.694   1.351   0.672
90165W        W55326  31.123  13.210  11.733
90166W        W55327  39.010  14.589   3.342
90167W        W55328  22.778  42.341   4.358
90168W        W55329   6.028  40.255  13.457
90169W        W55330  36.627  27.248  11.689
90170W        W55331   1.266  44.350  11.921
90171W        W55332  18.663  20.999   2.411
90172W        W55333  12.510   5.953   3.248
90173W        W55334  13.606  33.042  12.042
90174W        W55335  15.035  25.167   0.510
90175W        W55336  25.980  31.171   3.333
90176W        W55337  38.885  27.929  12.853
90177W        W55338  24.595  13.065   3.761
90178W        W55339  27.511   8.798   3.571
90179W        W55340  17.681  25.279  14.351
90180W        W55341  28.051  39.329   1.231
90181W        W55342  40.542   4.599   0.797
90182W        W55343  40.749  22.726   0.916
90183W        W55344  40.918  19.146  10.637
90184W        W55345  14.198  20.858  14.657
90185W        W55346   2.197  43.410  10.684
90186W        W55347  41.924  11.510   5.096
90187W        W55348  13.207   9.913  13.837
90188W        W55349  21.746  15.256  14.913
90189W        W55350  25.041  37.227   4.644
90190W        W55351  13.034   0.713  12.464
90191W        W55352   5.254  11.404   0.939
90192W        W55353  20.055  10.255   1.353
90193W        W55354  12.121  29.573  12.902
90194W        W55355  15.424  15.665   0.998
90195W        W55356  40.748   1.268   4.230
90196W        W55357  15.183   5.443   1.747
90197W        W55358  40.377  18.151   1.754
90198W        W55359  31.490  17.083  13.944
90199W        W55360  31.171  13.290   1.436
90200W        W55361  17.802  35.531  14.704
90201W        W55362  31.935  42.014   0.416
90202W        W55363  24.710   2.310  11.579
90203W        W55364  14.679  36.409  12.451
90204W        W55365   9.385  41.253  12.002
90205W        W55366  18.777  23.713   1.934
90206W        W55367  41.331  30.651   1.296
90207W        W55368  35.738  28.225   4.172
90208W        W55369  18.976  17.129  11.137
90209W        W55370  17.562   8.842   3.733
90210W        W55371  33.091  34.203  12.843
90211W        W55372  26.598   2.178   3.684
90212W        W55373  40.081  35.037   2.189
90213W        W55374  22.740  15.392   1.375
90214W        W55375   7.711   4.721   4.653
90215W        W55376  15.763  20.189   4.461
90216W        W55377  41.677  22.488  11.963
90217W        W55378  24.076  25.984   3.288
90218W        W55379  23.680  21.994  14.914
90219W        W55380  41.745  13.595   0.402
90220W        W55381   8.503  17.514  13.945
90221W        W55382  30.157  38.775  10.563
90222W        W55383  34.463  27.137   2.929
90223W        W55384  25.338  36.825   4.548
90224W        W55385  16.193  30.196   4.684
90225W        W55386  32.603  27.103  12.610
90226W        W55387  16.637  33.114  10.640
90227W        W55388  39.915  25.546  11.261
90228W        W55389  42.433  28.954   4.475
90229W        W55390  22.282  38.014   2.847
90230W        W55391  37.153  16.759  10.753
90231W        W55392   9.053  24.831  13.602
90232W        W55393   2.201  42.387   1.142
90233W        W55394   9.879  18.382   0.748
90234W        W55395  26.282  37.254  12.594
90235W        W55396  27.943  13.710   1.921
90236W        W55397  21.608  40.680  13.954
90237W        W55398  30.717  12.283  14.433
90238W        W55399  32.974   2.006  13.422
90239W        W55400   6.422  36.633   1.330
90240W        W55401  31.531   4.370   4.544
90241W        W55402  43.289  16.173  14.026
90242W        W55403  35.602   7.370   3.819
90243W        W55404  34.015  11.620   3.865
90244W        W55405  37.814   4.249  12.905
90245W        W55406   1.666   3.814  12.010
90246W        W55407   0.345  15.835   0.883
90247W        W55408   2.744   9.948  11.450
90248W        W55409  13.887  16.527   4.160
90249W        W55410  19.909  38.348   1.167
90250W        W55411   6.689  32.416   1.862
90251W        W55412   6.935  19.559   0.963
90252W        W55413  35.948  21.672  14.360
90253W        W55414  42.577   7.573  13.876
90254W        W55415  28.105  39.483  12.051
90255W        W55416  25.477   3.899   0.711
90256W        W55417  35.974  33.835  13.574
90257W        W55418  21.326  14.278  11.130
90258W        W55419  35.643  23.260   4.387
90259W        W55420  18.191  25.045  14.224
90260W        W55421  40.940  28.494   1.696
90261W        W55422  20.299  25.416  13.617
90262W        W55423   8.147  39.856   2.712
90263W        W55424  15.135  23.347  11.112
90264W        W55425  19.473  30.011  12.026
90265W        W55426  18.025  32.135   2.708
90266W        W55427   9.794  18.480   3.576
90267W        W55428  34.738  27.800   4.993
90268W        W55429  16.476   2.867  12.565
90269W        W55430  34.038  25.167   3.834
90270W        W55431   4.670  35.887  12.400
90271W        W55432  20.081   4.838   0.223
90272W        W55433  18.034  18.043  14.752
90273W        W55434   9.391  15.539   1.666
90274W        W55435   3.856  40.650   0.776
90275W        W55436  44.449  10.175   0.845
90276W        W55437  42.869  25.107   2.378
90277W        W55438   0.484   7.375   2.257
90278W        W55439   1.595  12.338  13.261
90279W        W55440  11.584  14.581   4.169
90280W        W55441  17.278   3.708   2.744
90281W        W55442  17.220  30.847   0.468
90282W        W55443   9.708  23.559   3.355
90283W        W55444  39.185  43.682   0.967
90284W        W55445   4.487  22.810   3.083
90285W        W55446  39.268  43.301   3.069
90286W        W55447  22.425   3.373  13.782
90287W        W55448   1.392  44.446  13.754
90288W        W55449  25.117  26.900  11.084
90289W        W55450   8.628  14.064   0.730
90290W        W55451  32.022  36.557   1.274
90291W        W55452  37.908  32.112  11.338
90292W        W55453  38.687  38.770  14.331
90293W        W55454   8.895   7.222   1.997
90294W        W55455  16.581  14.583  10.624
90295W        W55456  19.047   0.717  14.358
90296W        W55457  34.370   0.335  12.969
90297W        W55458  35.903  20.832   3.354
90298W        W55459  32.928  18.112   5.073
90299W        W55460  26.873  23.719  10.240
90300W        W55461  37.089  35.378  14.936
90301W        W55462   8.172  13.859  12.862
90302W        W55463  22.468  37.940   0.757
90303W        W55464  25.154  26.321  14.008
90304W        W55465  18.224  22.613  13.896
90305W        W55466   3.304  10.241  14.012
90306W        W55467   9.955   3.170  10.061
90307W        W55468  28.929  11.198  14.108
90308W        W55469  42.851   1.044  13.982
90309W        W55470  30.979  43.093   1.251
90310W        W55471   0.175   7.973   2.151
90311W        W55472  38.469   1.205  14.540
90312W        W55473  32.838  11.740   3.347
90313W        W55474  41.541  15.729   4.102
90314W        W55475  26.997  17.603  12.957
90315W        W55476  12.681  32.502   2.854
90316W        W55477  39.444  37.777  12.983
90317W        W55478   4.271  15.806   4.272
90318W        W55479   0.805   2.441   0.336
90319W        W55480  10.712  11.307  10.783
90320W        W55481  42.380  27.237  14.387
90321W        W55482  28.459  13.758  14.809
90322W        W55483  43.844  44.995  13.503
90323W        W55484  28.120  27.534  10.705
90324W        W55485  24.495  25.056  13.975
90325W        W55486   2.217  42.034  12.863
90326W        W55487  26.217  20.320   0.195
90327W        W55488  40.606  21.224  11.581
90328W        W55489  40.285   2.497  11.719
90329W        W55490  41.571  31.025   2.151
90330W        W55491  38.265  26.908  13.292
90331W        W55492   9.203  27.656  10.731
90332W        W55493  31.659   0.849   4.635
90333W        W55494  22.856  24.411  11.538
90334W        W55495   9.220   6.533  13.264
90335W        W55496  26.292  32.004   1.247
90336W        W55497  20.146   2.767  11.922
90337W        W55498  37.484  14.276   3.050
90338W        W55499   0.606  20.652  12.975
90339W        W55500  44.243  30.433   2.216
90340W        W55501  36.828  42.621  12.380
90341W        W55502  33.345  32.126   3.923
90342W        W55503  10.037  33.656   4.793
90343W        W55504  11.852  34.629   1.505
90344W        W55505  33.730  43.931  10.512
90345W        W55506  42.787  13.697   1.757
90346W        W55507   0.385   1.415   2.368
90347W        W55508  12.888  27.398  12.550
90348W        W55509  21.442  29.883  12.919
90349W        W55510  44.416  18.158   1.287
90350W        W55511  26.292  19.808  12.138
90351W        W55512  38.463  35.831   3.787
90352W        W55513  25.650  28.702   1.222
90353W        W55514  43.234  32.596   3.205
90354W        W55515  36.636  14.492  12.581
90355W        W55516  17.341  29.300   1.368
90356W        W55517  18.697  29.527   2.754
90357W        W55518  38.009  11.073   2.194
90358W        W55519  20.658  39.711   2.278
90359W        W55520  42.907   9.206  14.073
90360W        W55521  35.150  43.553  10.289
90361W        W55522  41.414  28.046   1.195
90362W        W55523  11.448  25.522   3.358
90363W        W55524  18.681  42.089   0.250
90364W        W55525  39.219  41.063  10.614
90365W        W55526  19.343   4.236   1.752
90366W        W55527  37.556  17.232   1.915
90367W        W55528   1.904   7.558   2.263
90368W        W55529  28.313  42.199  11.274
90369W        W55530  35.619   2.468   0.741
90370W        W55531   2.532  16.873   5.021
90371W        W55532  38.098  42.694   4.153
90372W        W55533  37.743   6.019   3.127
90373W        W55534  27.531  31.880   3.796
90374W        W55535  12.310  44.877   2.177
90375W        W55536  13.571  31.430  14.516
90376W        W55537  43.478   0.745   1.009
90377W        W55538   2.008  27.925  12.616
90378W        W55539  27.476   7.680  12.889
90379W        W55540  30.240   2.439   3.615
90380W        W55541  40.441  37.788  11.996
90381W        W55542  17.369  10.557  14.349
90382W        W55543  27.975   6.862  11.683
90383W        W55544  23.065  13.134  11.130
90384W        W55545  36.791  36.015  14.149
90385W        W55546   4.425   1.542   1.910
90386W        W55547  30.498  35.305  12.854
90387W        W55548  12.266  37.590  14.739
90388W        W55549  40.298  18.304  11.095
90389W        W55550   4.297  43.862   1.221
90390W        W55551  27.298  23.239  14.285
90391W        W55552  34.046  13.530  13.026
90392W        W55553  26.877  30.712   4.171
90393W        W55554  39.466  27.170   3.023
90394W        W55555  38.031  37.184   1.250
90395W        W55556  39.549  43.512   3.646
90396W        W55557  37.062   1.536  14.855
90397W        W55558   6.793  14.144   4.102
90398W        W55559  22.139  44.248   1.238
90399W        W55560  12.930  14.284  13.044
90400W        W55561  41.854   5.299   2.848
90401W        W55562  21.475  37.115   2.063
90402W        W55563  13.172   0.772   0.851
90403W        W55564  18.543  28.583  12.509
90404W        W55565  22.198   7.237   2.481
90405W        W55566  32.974  21.001   3.525
90406W        W55567  13.149  20.767   2.747
90407W        W55568  13.329  19.686  10.037
90408W        W55569  23.084   7.439   2.217
90409W        W55570  34.564   5.280   1.428
90410W        W55571  28.986  40.977  14.509
90411W        W55572  36.062  41.218  11.615
90412W        W55573  44.427  31.949  11.116
90413W        W55574  32.446  38.529   1.734
90414W        W55575  33.097  21.988   1.743
90415W        W55576   9.893  27.478   4.188
90416W        W55577  15.133  40.583  14.404
90417W        W55578  26.634  32.532   2.962
90418W        W55579   0.914  15.881   2.649
90419W        W55580  22.352  41.488  14.436
90420W        W55581  35.271  10.797   0.030
90421W        W55582  40.741  33.425  11.115
90422W        W55583  24.439  35.032   0.531
90423W        W55584  42.324  17.144   2.440
90424W        W55585  13.498  44.019  12.492
90425W        W55586  38.694   5.284   1.296
90426W        W55587   5.967  20.498   0.358
90427W        W55588   5.475  39.322  10.787
90428W        W55589  15.736   4.735  14.331
90429W        W55590  40.298  37.620   3.686
90430W        W55591  33.907  18.602  11.967
90431W        W55592  25.096  29.097   1.281
90432W        W55593  21.500   1.311   0.792
90433W        W55594   6.001  20.468   1.920
90434W        W55595   8.632  35.484  13.344
90435W        W55596   7.508  34.506  13.108
90436W        W55597  19.778  40.002   1.207
90437W        W55598  12.337  35.980   3.711
90438W        W55599  32.145  11.713  14.837
90439W        W55600  29.866   4.295   0.281
90440W        W55601   2.508  23.184  11.898
90441W        W55602  40.399  31.342   4.181
90442W        W55603  35.458  38.242   0.942
90443W        W55604  36.163  12.755   4.784
90444W        W55605  28.533  15.885  11.086
90445W        W55606  26.176  29.057  14.393
90446W        W55607   9.760  24.122  12.456
90447W        W55608  24.191  35.970  10.169
90448W        W55609  20.116   1.534   4.349
90449W        W55610  27.640  32.052  11.899
90450W        W55611  19.875  16.176  11.632
90451W        W55612  21.956  19.827  14.899
90452W        W55613   9.243  25.413   4.563
90453W        W55614  24.105  28.940   3.384
90454W        W55615  23.966   2.589  12.127
90455W        W55616  13.191  15.482   3.654
90456W        W55617  25.380  21.051   0.683
90457W        W55618  21.498  42.368   2.320
90458W        W55619  38.892  27.245  10.648
90459W        W55620  22.654  37.104  13.004
90460W        W55621  14.420   6.330   2.754
90461W        W55622  30.342   5.191   1.314
90462W        W55623  37.857  15.863  11.523
90463W        W55624  18.743   2.840  13.255
90464W        W55625  19.722   2.674   0.842
90465W        W55626   5.446   3.830   4.383
90466W        W55627  44.623  16.790   1.493
90467W        W55628   3.825  39.263  11.004
90468W        W55629  17.772   3.522  14.541
90469W        W55630  40.342  16.277  10.885
90470W        W55631  44.867  36.824  14.900
90471W        W55632   4.084  44.220   2.125
90472W        W55633  43.924   1.069   3.268
90473W        W55634  42.886  25.854   2.395
90474W        W55635  23.781  12.762   3.698
90475W        W55636  33.494  11.171  10.874
90476W        W55637  38.669   6.459   2.939
90477W        W55638  28.512  26.168  11.573
90478W        W55639   0.044  27.528  13.653
90479W        W55640   6.863  42.884   4.671
90480W        W55641  22.036  39.943  13.876
90481W        W55642  35.967  23.804   1.189
90482W        W55643  30.907   4.854   0.332
90483W        W55644  22.519  37.338   4.255
90484W        W55645  10.836  37.889   0.870
90485W        W55646  10.842   8.460  11.350
90486W        W55647  18.627   5.805   1.809
90487W        W55648  29.092  15.224   4.434
90488W        W55649  39.645  17.064  12.163
90489W        W55650  43.547  29.204  14.783
90490W        W55651  36.679  30.491   1.998
90491W        W55652  12.238  36.954   1.213
90492W        W55653   0.939  27.189   2.196
90493W        W55654  35.303  33.648  13.532
90494W        W55655  41.721  41.307   0.068
90495W        W55656  18.622  31.068  12.019
90496W        W55657  27.968  27.827   9.936
90497W        W55658  36.431  15.278   2.440
90498W        W55659  28.066  22.177  10.520
90499W        W55660  20.480   6.232   2.021
90500W        W55661  20.347  29.641  14.938
90501W        W55662  19.209  21.373   5.596
90502W        W55663  40.053  20.356  14.991
90503W        W55664  12.705  43.567  11.493
90504W        W55665  22.550  10.824   3.395
90505W        W55666  39.928  39.751  14.297
90506W        W55667  31.946  23.732   0.864
90507W        W55668   0.795  36.938  14.497
90508W        W55669   8.921   7.576   4.701
90509W        W55670  37.986  38.158  12.488
90510W        W55671  22.982   0.058   4.184
90511W        W55672   9.416   6.812   2.787
90512W        W55673  21.284   6.891   0.702
90513W        W55674  30.412  17.835  12.655
90514W        W55675  13.635  20.017   1.753
90515W        W55676   6.266  38.727  11.017
90516W        W55677  10.466  35.648  12.448
90517W        W55678  26.170  10.751   0.482
90518W        W55679  33.042   4.211   4.292
90519W        W55680  12.232   5.145   4.148
90520W        W55681  36.622  15.162   1.948
90521W        W55682  44.722   4.714  12.075
90522W        W55683  13.658  23.370  13.293
90523W        W55684  41.338  35.491  13.945
90524W        W55685  44.115  21.423   0.495
90525W        W55686  41.913  17.333  11.595
90526W        W55687  31.302   9.653   1.909
90527W        W55688  44.723  21.708   1.373
90528W        W55689  36.305   6.385  10.814
90529W        W55690  40.597  19.538   0.356
90530W        W55691  19.219  14.809   3.549
90531W        W55692  22.443  27.692   4.663
90532W        W55693   9.167   8.953  14.992
90533W        W55694  42.829  41.051   1.252
90534W        W55695  23.562   9.931  10.946
90535W        W55696   2.373  38.964   4.248
90536W        W55697  13.144  38.283   4.382
90537W        W55698  11.325  30.264   0.743
90538W        W55699  10.275  41.906   3.640
90539W        W55700   4.431  11.528  10.338
90540W        W55701  33.975   6.219   0.063
90541W        W55702  27.026  23.618   4.049
90542W        W55703  37.402  34.863  13.363
90543W        W55704  41.609  21.686  11.526
90544W        W55705   6.665  39.504  11.881
90545W        W55706  27.717  37.412   0.297
90546W        W55707  22.523  29.450   0.401
90547W        W55708  42.776  24.690   4.693
90548W        W55709  16.683   3.881   2.358
90549W        W55710  35.638  24.445  11.048
90550W        W55711  15.034   5.030   9.993
90551W        W55712  44.572  21.484   0.176
90552W        W55713  44.345  26.167  14.802
90553W        W55714  32.642  37.551  11.953
90554W        W55715  16.084  32.420  14.270
90555W        W55716   0.252  11.458   0.671
90556W        W55717  39.679  28.556  14.755
90557W        W55718  29.952  41.536   4.107
90558W        W55719  11.628   0.381  10.221
90559W        W55720  44.491   4.879   0.448
90560W        W55721  10.936   4.438   4.277
90561W        W55722  37.042  12.699  10.666
90562W        W55723  29.755  36.324  13.181
90563W        W55724  39.937  40.833  13.441
90564W        W55725  15.527  14.169  12.119
90565W        W55726  28.970  29.146  13.003
90566W        W55727  15.737  18.708   0.136
90567W        W55728   0.354  24.531   1.359
90568W        W55729   3.000  14.268  13.968
90569W        W55730  35.879  26.696  12.497
90570W        W55731  23.935  36.834   3.006
90571W        W55732   0.907  30.417   1.646
90572W        W55733  21.460  27.389  12.846
90573W        W55734  36.049   8.486   3.998
90574W        W55735  11.247   9.690  10.558
90575W        W55736  10.158  22.840  10.721
90576W        W55737  28.443  19.238  11.998
90577W        W55738  33.198  11.224   0.418
90578W        W55739  15.289   9.705   2.767
90579W        W55740  26.494  20.623  10.329
90580W        W55741  37.825  40.425   0.539
90581W        W55742  43.022  32.340   0.217
90582W        W55743   4.383  13.297  11.985
90583W        W55744  18.630  26.196  10.795
90584W        W55745  29.916  43.781   3.843
90585W        W55746   5.812  17.504  14.357
90586W        W55747   9.845  32.057  13.418
90587W        W55748  10.706  12.333  14.563
90588W        W55749  27.934  26.162   3.261
90589W        W55750  24.830   1.718   0.254
90590W        W55751  38.820  20.463  11.483
90591W        W55752  40.395  22.714   3.658
90592W        W55753  38.474  22.093   3.100
90593W        W55754   2.797  43.562  13.220
90594W        W55755   3.884  10.535   3.108
90595W        W55756  27.975  40.136   0.877
90596W        W55757  44.025   9.360   0.002
90597W        W55758  12.104  19.238   1.820
90598W        W55759  15.181  27.912   1.330
90599W        W55760  37.036   3.074  13.560
90600W        W55761  37.022  27.441  13.003
90601W        W55762  25.677   2.630   3.683
90602W        W55763  31.703  13.174   1.475
90603W        W55764  44.859  29.915  13.698
90604W        W55765   4.631  23.753   1.361
90605W        W55766  44.285  11.063  13.690
90606W        W55767  44.015  15.693  14.756
90607W        W55768  35.048  37.376  14.787
90608W        W55769  39.257  21.497  13.868
90609W        W55770   1.379   2.756  14.509
90610W        W55771  21.123  20.419   2.777
90611W        W55772  18.641  37.383   0.247
90612W        W55773  42.607   9.729  11.148
90613W        W55774  21.281  37.327  11.244
90614W        W55775  39.588  14.327   0.326
90615W        W55776  41.925  24.847   3.781
90616W        W55777  11.264  10.086  11.332
90617W        W55778  15.278  23.965   0.445
90618W        W55779  40.486  20.122   3.096
90619W        W55780  29.857  38.228  13.101
90620W        W55781  33.956  36.770  13.368
90621W        W55782  22.415  11.225   9.810
90622W        W55783  25.076  40.540   3.624
90623W        W55784  39.801  14.995   3.862
90624W        W55785  25.511  42.834   3.779
90625W        W55786  36.770  18.441   0.853
90626W        W55787  30.874  42.002   4.149
90627W        W55788   6.185  40.080  13.954
90628W        W55789  15.819  21.661  13.097
90629W        W55790  43.454  43.108   0.433
90630W        W55791  28.064   2.739  12.986
90631W        W55792  17.782  29.684  13.894
90632W        W55793  21.705   8.717   4.567
90633W        W55794  34.580  30.456  14.701
90634W        W55795  37.530  22.558  13.979
90635W        W55796  22.120  35.930   0.402
90636W        W55797  37.608  23.634   3.746
90637W        W55798  26.816  22.981  11.570
90638W        W55799  41.285  13.309  12.113
90639W        W55800   0.823  32.345   0.328
90640W        W55801  32.754  10.717   0.899
90641W        W55802  24.614  28.220  14.856
90642W        W55803  29.935  37.701  13.039
90643W        W55804  38.981  34.587   2.327
90644W        W55805  19.785  43.804  12.394
90645W        W55806  14.073  16.449   4.634
90646W        W55807  10.179   6.375  12.786
90647W        W55808  14.721  30.152   3.247
90648W        W55809  29.415   1.247   0.771
90649W        W55810  35.552   2.909  11.098
90650W        W55811  11.321  16.235  10.401
90651W        W55812   2.702   5.861   0.466
90652W        W55813  26.576  17.285  12.897
90653W        W55814  17.132  44.828   4.503
90654W        W55815  11.217  42.820   4.716
90655W        W55816  21.755  40.069   0.267
90656W        W55817  37.451  22.635   3.911
90657W        W55818  40.943  18.031   2.261
90658W        W55819   4.622  19.760  13.469
90659W        W55820  10.373  20.518  10.722
90660W        W55821  19.017   5.479   1.743
90661W        W55822   3.929  44.398  12.169
90662W        W55823  25.982  32.344  13.416
90663W        W55824  11.764  16.170  12.980
90664W        W55825  18.610  24.525   4.376
90665W        W55826  35.947  40.739   4.573
90666W        W55827  39.016   9.552  11.298
90667W        W55828  28.695  23.446   3.142
90668W        W55829   3.837  13.140   4.930
90669W        W55830  32.195  27.056  11.687
90670W        W55831  12.334  33.669   3.186
90671W        W55832  42.915  27.812  11.223
90672W        W55833  29.689  20.964   5.063
90673W        W55834  25.166  20.050   2.692
90674W        W55835  17.634  37.826   1.656
90675W        W55836  38.931  24.522  14.279
90676W        W55837  36.413  24.446  11.470
90677W        W55838  26.088  13.887  10.387
90678W        W55839  13.083  16.353  13.360
90679W        W55840  31.979  36.161  10.662
90680W        W55841  43.482  44.048  12.966
90681W        W55842  33.983  38.041   5.456
90682W        W55843   3.269  44.673  11.572
90683W        W55844  11.003  14.181  13.342
90684W        W55845   8.785  22.920   4.138
90685W        W55846  27.168   2.278  12.894
90686W        W55847  22.797  28.090  12.060
90687W        W55848  25.331  27.491   3.534
90688W        W55849  35.828   9.612  12.541
90689W        W55850  14.433  38.535  10.930
90690W        W55851   5.947  12.203   4.908
90691W        W55852   1.989  29.130   0.827
90692W        W55853  28.989  33.730   4.148
90693W        W55854  24.233  30.407   3.080
90694W        W55855   0.733  13.641  13.017
90695W        W55856  22.820  12.215   1.377
90696W        W55857  17.582  32.061   3.602
90697W        W55858  33.906  43.029   3.650
90698W        W55859  23.022  21.456  11.610
90699W        W55860  19.737  22.739  11.029
90700W        W55861  17.247   5.363   4.780
90701W        W55862  16.749  14.076   0.386
90702W        W55863  39.962  13.609   3.292
90703W        W55864  39.772  23.831   4.573
90704W        W55865   2.205   3.818  13.345
90705W        W55866  42.289  32.949   4.218
90706W        W55867   6.743   7.676  13.501
90707W        W55868  32.458  29.548  10.455
90708W        W55869  41.493  40.587  11.515
90709W        W55870  12.613   7.671   1.733
90710W        W55871  28.402  19.071   0.449
90711W        W55872   1.846  36.787  13.007
90712W        W55873  28.387   9.807   1.603
90713W        W55874  30.724  11.229  11.563
90714W        W55875  33.531  22.075  10.681
90715W        W55876   5.289  27.116  10.812
90716W        W55877  13.182  44.487   0.263
90717W        W55878   9.002  13.800  12.708
90718W        W55879  33.409   0.333  13.782
90719W        W55880  34.315   1.256  14.420
90720W        W55881  11.631   8.083   3.372
90721W        W55882  27.942   2.817   4.078
90722W        W55883  40.538   7.170  13.428
90723W        W55884  33.171  37.459   1.229
90724W        W55885  44.754  38.942   2.783
90725W        W55886  38.294  20.361   1.911
90726W        W55887  22.302  21.135   5.333
90727W        W55888   9.811  14.421   1.809
90728W        W55889  20.749  17.824  14.858
90729W        W55890  11.659  37.132  14.011
90730W        W55891  31.878  10.276   1.508
90731W        W55892   5.899  20.464  11.940
90732W        W55893  28.974  14.314  12.413
90733W        W55894  27.150  14.329   9.528
90734W        W55895   5.215  13.159   3.789
90735W        W55896  16.640  36.728  13.958
90736W        W55897   2.739  36.709   0.665
90737W        W55898  32.857  12.720   3.259
90738W        W55899   7.887  10.958   2.304
90739W        W55900  29.959  15.189  13.991
90740W        W55901   4.193   2.272  11.646
90741W        W55902   2.241  42.697   1.802
90742W        W55903  24.796  35.861   0.918
90743W        W55904  13.000  34.761   3.160
90744W        W55905  13.659   6.137   3.296
90745W        W55906  12.757  38.872   2.288
90746W        W55907  35.522  20.739  10.434
90747W        W55908  12.086  39.793   2.207
90748W        W55909  27.685  24.177  11.130
90749W        W55910  27.679  37.240   4.607
90750W        W55911   7.450   6.377  14.453
90751W        W55912   1.166  14.220   4.100
90752W        W55913  10.371   5.296  10.783
90753W        W55914  32.987  21.528  13.324
90754W        W55915   2.809  17.591   1.846
90755W        W55916  14.112   9.746  14.089
90756W        W55917  41.823  34.468  14.965
90757W        W55918  24.034  15.124  12.609
90758W        W55919   3.846   1.821  12.427
90759W        W55920   1.725   2.502   4.548
90760W        W55921  31.165   3.322   0.795
90761W        W55922  14.271  28.918   2.212
90762W        W55923  36.502  28.121   0.344
90763W        W55924  30.855  25.948  14.847
90764W        W55925  18.506  24.698  14.860
90765W        W55926  40.341   9.491  11.927
90766W        W55927  30.541  12.054  13.937
90767W        W55928  12.396  25.936   4.096
90768W        W55929  17.236   8.109  14.856
90769W        W55930  39.593  42.882   0.473
90770W        W55931  11.411  33.894   4.095
90771W        W55932  42.895  26.945   0.782
90772W        W55933  17.046  26.086  13.431
90773W        W55934  37.479  41.501   3.242
90774W        W55935  30.096  32.917   0.441
90775W        W55936  21.785  28.721   1.254
90776W        W55937  36.893  42.493  12.904
90777W        W55938  42.034  37.830   4.310
90778W        W55939   7.702  20.173   1.590
90779W        W55940  19.678  26.161   2.663
90780W        W55941   8.141  18.083   2.793
90781W        W55942  28.936  15.469   3.386
90782W        W55943  33.865   5.294  13.531
90783W        W55944  44.083   2.924  12.460
90784W        W55945  36.432  18.562  12.345
90785W        W55946   8.636  11.543   1.784
90786W        W55947   5.843  12.600   1.894
90787W        W55948   7.832  27.700  13.487
90788W        W55949  37.603   5.162   2.449
90789W        W55950  38.582  44.530  13.558
90790W        W55951  27.308  41.380  11.563
90791W        W55952  38.822  19.128  14.768
90792W        W55953  28.517   0.328   4.105
90793W        W55954  42.343   7.646  13.019
90794W        W55955  18.619  32.901  11.956
90795W        W55956  35.685   3.678   4.180
90796W        W55957  26.030  24.930  11.149
90797W        W55958  37.459  22.233   1.483
90798W        W55959  24.496   6.927  13.342
90799W        W55960  17.852   2.733   0.387
90800W        W55961  41.917   3.071  12.443
90801W        W55962  19.848  12.129   2.294
90802W        W55963  16.499  25.008   0.433
90803W        W55964  40.157  27.190  12.491
90804W        W55965  11.255  11.093  14.270
90805W        W55966  41.911  18.115  14.298
90806W        W55967  27.561   7.161   0.414
90807W        W55968  16.417   4.004  12.560
90808W        W55969  44.371  43.560  13.096
90809W        W55970  20.205   5.467   4.223
90810W        W55971   6.317  14.609   4.905
90811W        W55972   5.535  27.186   3.767
90812W        W55973   0.060   5.665   1.795
90813W        W55974  29.714   7.424  13.496
90814W        W55975  22.756  16.396   1.335
90815W        W55976   2.492  20.761   2.238
90816W        W55977  33.556  11.765  11.705
90817W        W55978  36.506  40.003  11.745
90818W        W55979  30.703  16.891  12.382
90819W        W55980  43.859  10.268  13.907
90820W        W55981   1.919  34.442  10.593
90821W        W55982  30.842  31.162  11.802
90822W        W55983  42.515   5.249   1.121
90823W        W55984   8.789  25.742  10.972
90824W        W55985  10.180  40.556  12.518
90825W        W55986  42.024  16.651   0.457
90826W        W55987   7.963  39.342   3.639
90827W        W55988  36.066  11.780   2.131
90828W        W55989  12.489  25.684  13.110
90829W        W55990  16.688  15.200   0.760
90830W        W55991  35.836  26.157  12.964
90831W        W55992   8.979  21.568  13.980
90832W        W55993  14.629  36.423   0.061
90833W        W55994   0.301   3.769  10.619
90834W        W55995  44.401  35.016  10.513
90835W        W55996  27.431  22.736  14.988
90836W        W55997  26.474  14.525  11.572
90837W        W55998  34.529  27.019   4.673
90838W        W55999  15.601  25.082  14.629
90839W        W56000   7.928  36.047   1.913
90840W        W56001  35.621  11.479   0.464
90841W        W56002  10.321  31.595   2.858
90842W        W56003  26.046  43.973  10.536
90843W        W56004  29.219   2.734   2.626
90844W        W56005  28.424   2.391   1.397
90845W        W56006   4.436  21.576  11.594
90846W        W56007   2.171  31.613  12.974
90847W        W56008  13.939  18.681  12.642
90848W        W56009   8.653   1.751   1.955
90849W        W56010   4.972  41.625  11.627
90850W        W56011  26.623  10.286   1.768
90851W        W56012  31.548  29.910   3.537
90852W        W56013  43.398  33.376   4.579
90853W        W56014  21.926  36.959   2.257
90854W        W56015  25.633  11.348   3.576
90855W        W56016   8.635  40.567  14.593
90856W        W56017  44.727   4.190  12.026
90857W        W56018   8.203  13.104  13.502
90858W        W56019  25.705  11.073  11.789
90859W        W56020  21.391  29.552   3.285
90860W        W56021  13.358   7.623   2.278
90861W        W56022  28.004  24.028   0.772
90862W        W56023  38.571  21.160   4.437
90863W        W56024  36.920  25.160   2.373
90864W        W56025  15.203  34.291  11.756
90865W        W56026  10.637   5.283   1.729
90866W        W56027  25.346  10.397   0.858
90867W        W56028   8.541   3.446  14.076
90868W        W56029  37.409   2.352   3.091
90869W        W56030  20.287  20.148  12.139
90870W        W56031  33.452  43.463  10.533
90871W        W56032  27.732  43.476   4.557
90872W        W56033   3.840  16.631   2.394
90873W        W56034  36.151   9.251  13.904
90874W        W56035  30.454   7.694   4.553
90875W        W56036  24.980  29.792  11.567
90876W        W56037  32.092  32.394  14.786
90877W        W56038   9.567   0.484  12.933
90878W        W56039   9.288  37.008   0.729
90879W        W56040  33.099  20.788  14.053
90880W        W56041  37.350  38.449   1.935
90881W        W56042  28.615  33.948  12.672
90882W        W56043   8.942  26.139  11.916
90883W        W56044  10.184  11.187   2.596
90884W        W56045  42.557  33.490  13.376
90885W        W56046  40.404  12.350  13.583
90886W        W56047  11.725   9.480  10.607
90887W        W56048  18.526  17.077  14.534
90888W        W56049  28.632   1.383  11.823
90889W        W56050  22.069  42.987  13.869
90890W        W56051   9.751  43.354   2.131
90891W        W56052   5.396   6.289  12.067
90892W        W56053   1.577  26.509  14.418
90893W        W56054   7.497   8.273  11.080
90894W        W56055  43.615  27.891   3.689
90895W        W56056  22.548  25.531   2.218
90896W        W56057  11.185  44.327   4.967
90897W        W56058  23.482  43.871   1.800
90898W        W56059  28.079   5.779  14.880
90899W        W56060   0.270  27.043  13.439
90900W        W56061  20.068  22.554  12.237
90901W        W56062  23.551  18.796  10.605
90902W        W56063  44.474  13.519   1.335
90903W        W56064   7.271  22.286  11.997
90904W        W56065  43.528   2.028  11.595
90905W        W56066   2.455  39.080   4.739
90906W        W56067  43.822  40.950  12.515
90907W        W56068  20.115  40.910  11.407
90908W        W56069  14.653  24.066  11.459
90909W        W56070  33.935   5.405  11.416
90910W        W56071  30.679  23.503  11.653
90911W        W56072  25.148  12.600   1.208
90912W        W56073  35.169  36.102  10.962
90913W        W56074  43.769  27.127   0.496
90914W        W56075   8.585  39.034   0.319
90915W        W56076   6.804  16.786  14.484
90916W        W56077  39.601  32.426  14.986
90917W        W56078  23.993   6.189   1.937
90918W        W56079   1.678  14.334   2.263
90919W        W56080   2.380  43.874   3.770
90920W        W56081  22.146  27.429   2.187
90921W        W56082  33.849   7.825  14.270
90922W        W56083  29.878  20.245  10.606
90923W        W56084  28.534  21.513  14.336
90924W        W56085  37.911  33.949   3.322
90925W        W56086  23.636  35.112  14.899
90926W        W56087  22.927  24.089  10.723
90927W        W56088  17.190  28.377  12.332
90928W        W56089  30.420   4.894   0.090
90929W        W56090   0.984  23.005   0.202
90930W        W56091  42.163  40.921  13.202
90931W        W56092  40.709  33.937  13.395
90932W        W56093  23.894  42.017  11.562
90933W        W56094   0.983  20.174   3.260
90934W        W56095  23.485  42.362  14.495
90935W        W56096  11.855  32.203  11.572
90936W        W56097  17.195  39.857   0.345
90937W        W56098   9.189  30.612  11.974
90938W        W56099   3.421  35.973  12.041
90939W        W56100  19.090  17.577  12.035
90940W        W56101  12.974  35.601  14.259
90941W        W56102  40.415   0.607  14.155
90942W        W56103   3.461   9.977   2.492
90943W        W56104   5.789  29.073   4.420
90944W        W56105  12.050  28.603  10.407
90945W        W56106  35.359  25.174   2.252
90946W        W56107  32.534  41.260  13.426
90947W        W56108  36.781  32.908   2.661
90948W        W56109  13.807   2.436   2.394
90949W        W56110  35.468  14.170  12.952
90950W        W56111  23.980   9.125  12.481
90951W        W56112  31.363  21.748   2.775
90952W        W56113  12.068  16.026   1.847
90953W        W56114  21.698   1.531   4.659
90954W        W56115   8.765   1.823  11.169
90955W        W56116  29.530  29.629  12.429
90956W        W56117  15.913  30.078  11.161
90957W        W56118  37.391  40.704   9.948
90958W        W56119  32.960  37.860   0.506
90959W        W56120  13.237  33.948  12.613
90960W        W56121  42.959  14.656  13.646
90961W        W56122  38.831  18.735   3.666
90962W        W56123  25.638  26.110  14.239
90963W        W56124   3.501  37.308   0.974
90964W        W56125  18.829  34.491  13.242
90965W        W56126   6.663   5.253  12.673
90966W        W56127  28.944  22.990  14.105
90967W        W56128  28.508  22.699   5.576
90968W        W56129  24.362  16.585  14.987
90969W        W56130  23.210  24.724  10.726
90970W        W56131   4.412  17.515  12.750
90971W        W56132  40.541   5.665  12.606
90972W        W56133   0.312  23.684   1.698
90973W        W56134   9.996   7.303  12.983
90974W        W56135  16.718  41.014   3.766
90975W        W56136  42.272  29.456  14.142
90976W        W56137  44.945  10.267  11.086
90977W        W56138  36.683  40.404   4.028
90978W        W56139  43.434  41.084  12.092
90979W        W56140   8.941  28.218  11.170
90980W        W56141  31.476  27.693   1.280
90981W        W56142  19.857  24.638  10.685
90982W        W56143  38.645  37.807  14.302
90983W        W56144  17.516  43.323   0.900
90984W        W56145  26.670  25.067   4.506
90985W        W56146  30.195  27.106  11.544
90986W        W56147  22.477  37.513  14.509
90987W        W56148  33.792  41.537   2.605
90988W        W56149  42.062  21.439  11.594
90989W        W56150  22.811  10.752  14.511
90990W        W56151  23.863  20.130  11.254
90991W        W56152  23.492   1.625  12.993
90992W        W56153  19.650   5.438  14.003
90993W        W56154  35.386  25.291  13.958
90994W        W56155  44.258  31.074  13.951
90995W        W56156  33.208  10.550  11.165
90996W        W56157  23.519  24.273   1.756
90997W        W56158  40.359  37.428  13.276
90998W        W56159  14.125  25.520   3.799
90999W        W56160  13.684  42.306   9.662
91000W        W56161  26.903  11.641   0.353
91001W        W56162  12.573  38.081  13.348
91002W        W56163  28.589  28.336   1.338
91003W        W56164  11.187   4.961   0.015
91004W        W56165  32.469  23.683  13.637
91005W        W56166  32.929  14.899  13.394
91006W        W56167  12.261   8.881  13.205
91007W        W56168  31.936  15.190  11.999
91008W        W56169  18.250  26.237  11.192
91009W        W56170  11.162  17.804   1.169
91010W        W56171  20.899  11.324   4.569
91011W        W56172  23.035  20.196  12.338
91012W        W56173  14.791  21.063  12.999
91013W        W56174   1.087  19.515  14.715
91014W        W56175  15.955  16.531  11.547
91015W        W56176   3.004  39.621  14.484
91016W        W56177  12.948  14.404  11.109
91017W        W56178  13.848  14.111   3.333
91018W        W56179  18.804   0.051  13.461
91019W        W56180  24.876  44.697   0.443
91020W        W56181   3.662  39.338  13.010
91021W        W56182  33.939  18.896  14.872
91022W        W56183  42.492  19.812   1.798
91023W        W56184  16.083  23.021   0.323
91024W        W56185   2.323   2.830   3.087
91025W        W56186  41.708  11.787   2.649
91026W        W56187   7.774  36.954  12.397
91027W        W56188  39.692  17.196   0.329
91028W        W56189  28.535  34.433   4.534
91029W        W56190  42.478   2.412   0.112
91030W        W56191  40.694  23.279  10.615
91031W        W56192  43.836  42.452   1.275
91032W        W56193   9.248  17.018  12.726
91033W        W56194  43.095  32.659  13.019
91034W        W56195   8.693   2.955  10.318
91035W        W56196  28.015  26.090  13.522
91036W        W56197   3.386   2.537   3.693
91037W        W56198  26.929  37.000  11.853
91038W        W56199  33.982  28.281  11.015
91039W        W56200  24.196  30.442  14.082
91040W        W56201   7.948  31.540   1.513
91041W        W56202  29.403  38.281  12.883
91042W        W56203  12.269  35.529   2.263
91043W        W56204   2.779  26.886   3.165
91044W        W56205  11.777  19.057  14.745
91045W        W56206  14.969  36.821   1.811
91046W        W56207  27.687   4.424  13.071
91047W        W56208   2.306  38.977  14.488
91048W        W56209  36.582   2.250   4.646
91049W        W56210  22.517   4.995  13.095
91050W        W56211  19.061  41.142   3.178
91051W        W56212   5.729  39.372  12.158
91052W        W56213  20.046  11.658   2.378
91053W        W56214  42.316  15.747  13.320
91054W        W56215   0.835   2.074   5.294
91055W        W56216  30.909  38.064  14.043
91056W        W56217  40.418   7.567   3.519
91057W        W56218  24.136  25.930  12.360
91058W        W56219  11.925  33.611   1.037
91059W        W56220  29.876  41.523  14.528
91060W        W56221   6.772   0.282   1.248
91061W        W56222   0.700  14.807   1.789
91062W        W56223  38.572  13.556  12.458
91063W        W56224  15.150  30.842   3.797
91064W        W56225   2.773  21.014  14.982
91065W        W56226  37.557  18.819   4.122
91066W        W56227  24.971  31.508   2.708
91067W        W56228   4.752  43.160   4.647
91068W        W56229  33.609  22.132  14.044
91069W        W56230  14.557  28.659   3.699
91070W        W56231  36.655  22.174  14.568
91071W        W56232   2.110  10.886  13.921
91072W        W56233   7.911  11.426  11.095
91073W        W56234  23.098  29.509   4.588
91074W        W56235  33.776  33.107   3.765
91075W        W56236  12.969   3.474   1.299
91076W        W56237  26.639  42.943   0.561
91077W        W56238  25.685  29.015   0.456
91078W        W56239  13.467  32.236  14.376
91079W        W56240  15.711  36.932  13.280
91080W        W56241  41.336  13.782  11.819
91081W        W56242   6.779  20.640   2.404
91082W        W56243  41.837  29.664  10.726
91083W        W56244  23.176  33.114  13.326
91084W        W56245  35.117  14.313  10.394
91085W        W56246  22.014  38.985   0.808
91086W        W56247   6.397   4.907  14.026
91087W        W56248  23.535  32.980   4.139
91088W        W56249   7.334  42.894  13.148
91089W        W56250  39.708  43.748   0.039
91090W        W56251  28.987   6.179   0.349
91091W        W56252   9.788   5.736   4.291
91092W        W56253  43.627   8.892   4.205
91093W        W56254  35.297   4.403   4.409
91094W        W56255  42.315  11.562  13.782
91095W        W56256  14.624  43.015   3.780
91096W        W56257  20.626  36.061  12.437
91097W        W56258   9.725  19.534   4.111
91098W        W56259  29.233  20.526   1.237
91099W        W56260   7.043   3.942  14.675
91100W        W56261  39.843  39.609   1.300
91101W        W56262   0.003  10.357  11.781
91102W        W56263  28.146  24.396   4.486
91103W        W56264   9.725  12.113  14.429
91104W        W56265   4.230  26.728  14.968
91105W        W56266  43.551  24.167   3.282
91106W        W56267  20.192  43.881   4.586
91107W        W56268  27.813  26.656   3.465
91108W        W56269  19.271  39.722  13.125
91109W        W56270  19.657   8.742  10.609
91110W        W56271  36.438   4.434  10.241
91111W        W56272  41.437  17.238   1.430
91112W        W56273  14.650  19.142  13.515
91113W        W56274  33.337  23.012   2.801
91114W        W56275  42.884  35.290  13.486
91115W        W56276   1.989   3.169   2.865
91116W        W56277  37.963  17.466  14.273
91117W        W56278   7.586  27.609  13.985
91118W        W56279  33.580  29.680  11.195
91119W        W56280  43.826   4.987  14.870
91120W        W56281  13.008   6.283  12.785
91121W        W56282  43.115  30.656  11.978
91122W        W56283  32.319  37.586  12.431
91123W        W56284  38.429  42.423  10.855
91124W        W56285   7.366  19.251  14.959
91125W        W56286  38.949  41.406   9.898
91126W        W56287   8.414   6.319  12.804
91127W        W56288  31.059  24.961  14.442
91128W        W56289  44.021   5.884  13.799
91129W        W56290  36.370  42.471  12.117
91130W        W56291  12.783  31.242   1.428
91131W        W56292  30.604  24.488   3.626
91132W        W56293   0.022  32.405  12.419
91133W        W56294  42.514  39.330   0.275
91134W        W56295  13.009  36.896  14.811
91135W        W56296  40.301  11.113   0.872
91136W        W56297  34.705  25.484  11.691
91137W        W56298  28.817  12.808   1.295
91138W        W56299  19.155  27.278   3.219
91139W        W56300  43.461  17.937  14.796
91140W        W56301  16.698  11.842  11.628
91141W        W56302  24.206  26.505   3.247
91142W        W56303  38.852  30.277   1.209
91143W        W56304  25.705  43.442  11.639
91144W        W56305  41.974  39.419  13.060
91145W        W56306  34.480  11.273  13.155
91146W        W56307  31.983  19.556  11.247
91147W        W56308  43.800   6.833   3.387
91148W        W56309  19.780  35.111  11.115
91149W        W56310   4.836  29.131  13.509
91150W        W56311  39.279   1.939   0.377
91151W        W56312  40.282   6.061   0.806
91152W        W56313   5.648   1.270   0.375
91153W        W56314   8.345   3.357   1.548
91154W        W56315   7.520   4.834   1.709
91155W        W56316   9.205  14.854  10.945
91156W        W56317  23.432  31.522   3.601
91157W        W56318  23.184  29.188   4.173
91158W        W56319   5.473  23.678   4.167
91159W        W56320  29.703  30.500  10.925
91160W        W56321  36.492  28.222  10.944
91161W        W56322  41.353   3.807   2.287
91162W        W56323  19.882  30.275  11.798
91163W        W56324   0.435  36.186   0.758
91164W        W56325  33.891  25.268   3.345
91165W        W56326  22.731  28.545   3.273
91166W        W56327   9.678  18.282  12.429
91167W        W56328  15.529  35.975  11.304
91168W        W56329  14.355   3.872  13.515
91169W        W56330  24.202  28.565  13.509
91170W        W56331  16.078  31.487   1.361
91171W        W56332  15.615   9.298  11.099
91172W        W56333  14.243  34.113  10.661
91173W        W56334  24.734  14.899   0.501
91174W        W56335  31.629   2.716   2.474
91175W        W56336   2.340  28.644  11.681
91176W        W56337  39.358  34.090  12.600
91177W        W56338  17.663  33.094   0.427
91178W        W56339  29.497  20.983   4.320
91179W        W56340  13.633  24.255   1.678
91180W        W56341  15.807  15.135  11.643
91181W        W56342  12.700  33.964  14.373
91182W        W56343  34.473  11.111  12.641
91183W        W56344  31.021  39.039  12.451
91184W        W56345  12.255  24.138   3.848
91185W        W56346  11.801  14.050   0.192
91186W        W56347  44.443  32.531  11.601
91187W        W56348  15.657  43.641   5.544
91188W        W56349  13.479  29.573  11.152
91189W        W56350   7.011  13.094  12.565
91190W        W56351   7.490  40.875  11.030
91191W        W56352   5.854  26.823   0.492
91192W        W56353  43.206  11.092  13.082
91193W        W56354   3.980  38.403   3.144
91194W        W56355  44.428  24.512  13.227
91195W        W56356  35.638   2.165  10.525
91196W        W56357  29.511  41.205   4.979
91197W        W56358  11.867  24.384   2.742
91198W        W56359  43.102  25.203   1.861
91199W        W56360  37.915  41.583  13.324
91200W        W56361  35.601  25.383   3.673
91201W        W56362  22.563  12.420  11.347
91202W        W56363  16.239  13.401  11.450
91203W        W56364  24.534  17.591   1.172
91204W        W56365  12.930  23.932  11.518
91205W        W56366  41.020  14.331   2.773
91206W        W56367  38.533   1.543  13.691
91207W        W56368  23.554  27.980   0.319
91208W        W56369  35.122  40.457   3.290
91209W        W56370   3.642  10.167   0.391
91210W        W56371  18.689  21.025   0.393
91211W        W56372  34.289  31.688   4.212
91212W        W56373  20.612  30.170  11.254
91213W        W56374  16.282  34.369  14.114
91214W        W56375   1.184   8.335  14.388
91215W        W56376   6.883  22.574   4.780
91216W        W56377  41.692  34.658   4.887
91217W        W56378  39.292  42.979  14.813
91218W        W56379  28.159  38.477  11.444
91219W        W56380  22.674  26.046  10.563
91220W        W56381  12.843  11.783   0.059
91221W        W56382  21.241   0.978  12.550
91222W        W56383  33.917  31.653   2.972
91223W        W56384  26.749  12.636  11.612
91224W        W56385   2.812   7.144  14.877
91225W        W56386  20.609  33.167   0.456
91226W        W56387  11.908  13.626   4.359
91227W        W56388  15.805  17.583   2.208
91228W        W56389  28.892  17.271  14.424
91229W        W56390   9.156   2.243   0.849
91230W        W56391  18.620  11.774  12.837
91231W        W56392  35.499  32.075  14.974
91232W        W56393  39.465  33.596  12.453
91233W        W56394  34.883   3.673   0.329
91234W        W56395  12.106   1.978   3.656
91235W        W56396  16.959  14.909   0.424
91236W        W56397  12.342   9.528  14.975
91237W        W56398  15.812  43.806   2.261
91238W        W56399  21.472  20.713  11.947
91239W        W56400  12.651   7.170  11.121
91240W        W56401  32.030  36.031   1.167
91241W        W56402  36.045   2.314   2.396
91242W        W56403  19.627  22.622   4.600
91243W        W56404   6.790  21.506   1.767
91244W        W56405  16.422  33.189  13.479
91245W        W56406  44.835  10.664  11.385
91246W        W56407  34.839  31.045  12.374
91247W        W56408  34.965  28.453   1.861
91248W        W56409  21.338  29.698  12.140
91249W        W56410  22.246   7.375   3.969
91250W        W56411  34.799   6.546  10.709
91251W        W56412   5.761  19.646   1.988
91252W        W56413  15.202  37.071   1.213
91253W        W56414  41.053  24.521   4.124
91254W        W56415  41.335  21.773   0.996
91255W        W56416   6.475  37.797  12.929
91256W        W56417  17.288  36.595   2.791
91257W        W56418  17.946  38.407  14.963
91258W        W56419  13.113  44.136   9.923
91259W        W56420  44.598  16.675   4.896
91260W        W56421  14.290  10.258   3.534
91261W        W56422  38.976  15.367   4.581
91262W        W56423  31.539  19.216  13.436
91263W        W56424  23.430  20.260   5.534
91264W        W56425  35.134  36.016   1.038
91265W        W56426  13.668   8.479  13.882
91266W        W56427   6.715  36.513   3.319
91267W        W56428   1.237  39.531  14.272
91268W        W56429  15.839   5.397  12.632
91269W        W56430  30.913  34.468   4.656
91270W        W56431   0.014  12.301   2.451
91271W        W56432  26.064  14.668  14.284
91272W        W56433  20.695  13.174  11.552
91273W        W56434  18.377  39.829  13.599
91274W        W56435  31.924  13.355   2.751
91275W        W56436  10.938  36.811   2.219
91276W        W56437  15.028  28.965  13.885
91277W        W56438  18.438  38.011   1.336
91278W        W56439  24.685  38.077   2.703
91279W        W56440  28.998  27.056   4.399
91280W        W56441  37.948  18.151  13.942
91281W        W56442  39.409  40.087  11.530
91282W        W56443  22.958   7.726   0.899
91283W        W56444  22.626  24.221  12.386
91284W        W56445   2.407  35.051   0.348
91285W        W56446  15.339   5.391   3.068
91286W        W56447  16.695  32.363   2.247
91287W        W56448  25.140  19.775   0.747
91288W        W56449  35.671   5.421  12.911
91289W        W56450  38.023  33.838   1.845
91290W        W56451   5.963  25.121  13.838
91291W        W56452  27.706   8.216   0.089
91292W        W56453   5.865  29.501   0.733
91293W        W56454  43.980  13.109  12.512
91294W        W56455  32.585  40.970   4.616
91295W        W56456  20.807  36.372  11.599
91296W        W56457  38.794  28.425  12.831
91297W        W56458  21.794  24.074  12.089
91298W        W56459  26.975   6.911  13.836
91299W        W56460  40.713  37.953  11.601
91300W        W56461  33.016  28.880   3.869
91301W        W56462  11.533  22.463  12.639
91302W        W56463   5.858  10.824  10.574
91303W        W56464   0.478   5.874   2.311
91304W        W56465  10.074   1.290   3.238
91305W        W56466  44.501  11.798  14.454
91306W        W56467  23.024  36.854  12.628
91307W        W56468   4.846  41.048  12.826
91308W        W56469  42.773  22.542   2.316
91309W        W56470  12.397   8.936  13.778
91310W        W56471  18.000  35.337   4.640
91311W        W56472  25.250   9.311   1.187
91312W        W56473  14.657   9.058   3.377
91313W        W56474  34.761  29.082   3.665
91314W        W56475  16.056  26.679  11.134
91315W        W56476  14.799  37.353  12.496
91316W        W56477  21.383  15.835  14.524
91317W        W56478  17.621   6.143  11.095
91318W        W56479  19.669  12.744   0.257
91319W        W56480  33.139  27.351  13.034
91320W        W56481   6.159  16.255   3.199
91321W        W56482  41.275  31.426  14.205
91322W        W56483  28.093  25.290   0.795
91323W        W56484  21.978  14.639  14.961
91324W        W56485  24.160  28.485   3.622
91325W        W56486  11.215   2.584   4.146
91326W        W56487  12.661  41.448  14.567
91327W        W56488   5.844  17.157   4.481
91328W        W56489  34.042  34.959  12.486
91329W        W56490   2.195  11.392   0.737
91330W        W56491  42.821  31.436   1.344
91331W        W56492  22.765  17.351  12.578
91332W        W56493   7.834  14.111   4.273
91333W        W56494   1.736  24.239   1.364
91334W        W56495  29.557   6.302   3.483
91335W        W56496  36.930  20.334   1.976
91336W        W56497   1.742  21.975  11.991
91337W        W56498  38.552  41.474  13.824
91338W        W56499   3.398  19.115   0.850
91339W        W56500   4.355  34.960  14.978
91340W        W56501   6.346  10.796   1.683
91341W        W56502  37.292  24.088  10.695
91342W        W56503  12.828  41.826  13.167
91343W        W56504  20.753   7.689   4.612
91344W        W56505   6.458  43.976   1.330
91345W        W56506  38.877  14.526  10.699
91346W        W56507  36.564   0.406   0.740
91347W        W56508  43.740   2.772   0.294
91348W        W56509  24.502  15.312  12.756
91349W        W56510  13.223  30.136  10.589
91350W        W56511  13.372  36.747  13.751
91351W        W56512  33.738  25.835  14.924
91352W        W56513  17.159  36.876   1.484
91353W        W56514  35.222  18.518  10.982
91354W        W56515   1.911   4.651  14.304
91355W        W56516  39.113  36.559  12.529
91356W        W56517  31.888  39.252   2.162
91357W        W56518  41.909   5.871  10.771
91358W        W56519  36.645  13.900   3.182
91359W        W56520  37.946  20.261   4.706
91360W        W56521  17.353  39.295   3.189
91361W        W56522  38.265  40.294   0.789
91362W        W56523  29.162  18.541   2.394
91363W        W56524  10.122  26.062  11.554
91364W        W56525  38.900  28.666  10.631
91365W        W56526  11.741  36.609  14.084
91366W        W56527  31.974  20.074  12.972
91367W        W56528  44.391  37.393  12.370
91368W        W56529  19.879  19.156  13.438
91369W        W56530  40.374   7.321   4.901
91370W        W56531   1.488   9.955  12.449
91371W        W56532  36.578  28.096  13.693
91372W        W56533  35.967   0.290   0.634
91373W        W56534  30.451  18.679  10.661
91374W        W56535  38.064   3.104  14.973
91375W        W56536  37.894  42.864   2.668
91376W        W56537  12.886   1.308  14.508
91377W        W56538  25.274   0.247  10.880
91378W        W56539  41.842  26.202  13.007
91379W        W56540   7.507  10.267   0.364
91380W        W56541   3.671  15.578  11.846
91381W        W56542  28.329  14.937   5.103
91382W        W56543  12.069  14.120   4.205
91383W        W56544   2.293  17.348  10.986
91384W        W56545  34.988  31.153   0.796
91385W        W56546  44.489  28.303   0.352
91386W        W56547   6.762  14.086   3.170
91387W        W56548  11.199  14.658   0.117
91388W        W56549  26.714  22.066   1.393
91389W        W56550  11.825  35.105   2.869
91390W        W56551  23.537  27.962   4.114
91391W        W56552  30.814   3.943   2.719
91392W        W56553  29.507  28.270  13.758
91393W        W56554  38.270  17.242  14.757
91394W        W56555  22.550  38.304  12.500
91395W        W56556  16.739   0.980   4.406
91396W        W56557   5.946  43.822  10.727
91397W        W56558  37.914  26.443  11.630
91398W        W56559  18.154   4.918  12.569
91399W        W56560  14.343  30.028  13.093
91400W        W56561   4.384  19.525   5.000
91401W        W56562   7.340  24.031   3.108
91402W        W56563  12.903   7.158   4.065
91403W        W56564  40.791   7.334  14.853
91404W        W56565  34.769   8.289   1.322
91405W        W56566  14.348  26.075  14.742
91406W        W56567   6.914  30.578   1.383
91407W        W56568  11.891   4.038  11.120
91408W        W56569  26.150  39.565  13.756
91409W        W56570   7.577  44.950  13.361
91410W        W56571  23.541  20.064  13.046
91411W        W56572  35.875  27.582   2.772
91412W        W56573  11.478  21.666  11.448
91413W        W56574  19.672  20.032  14.448
91414W        W56575  15.881  43.324   1.462
91415W        W56576  38.336  39.090   0.134
91416W        W56577  39.676  30.682   1.016
91417W        W56578  30.713  22.370   4.738
91418W        W56579   3.847  39.490  12.562
91419W        W56580  34.992  22.023  13.830
91420W        W56581  13.626  16.174  11.621
91421W        W56582  10.461  19.992  14.404
91422W        W56583  32.460  32.811  14.402
91423W        W56584   1.864   3.902   1.852
91424W        W56585  31.918  26.658   0.480
91425W        W56586  34.623  13.139  13.038
91426W        W56587  26.433  34.538  14.595
91427W        W56588  34.541  28.645   0.783
91428W        W56589  11.696  10.304  14.065
91429W        W56590  44.898   2.027  11.584
91430W        W56591  44.239  31.980  13.921
91431W        W56592  23.314  22.299   3.538
91432W        W56593  34.458  10.054   0.702
91433W        W56594  30.457  32.914  12.126
91434W        W56595   0.847  12.457  13.756
91435W        W56596  14.299  36.315  12.847
91436W        W56597   4.131  31.699  13.451
91437W        W56598  25.043  24.271  12.384
91438W        W56599  28.170   8.441   0.225
91439W        W56600  15.856  21.008   1.302
91440W        W56601   9.298  18.146  13.798
91441W        W56602  12.659   9.280  14.121
91442W        W56603  13.699   5.011   4.277
91443W        W56604  42.327  14.864   4.741
91444W        W56605  20.078  10.140   0.203
91445W        W56606  41.530  43.807   4.375
91446W        W56607  38.405  10.127   1.712
91447W        W56608  44.978  18.609  12.951
91448W        W56609  43.533  29.186  13.801
91449W        W56610  34.650   5.343   3.685
91450W        W56611  18.600  18.286   3.892
91451W        W56612  29.626  13.560  12.463
91452W        W56613  27.605  27.600  10.802
91453W        W56614  39.352  36.934   0.519
91454W        W56615  25.468   1.226   1.723
91455W        W56616   3.216  31.932  11.644
91456W        W56617   8.114  25.108   4.645
91457W        W56618  34.461  41.534  11.336
91458W        W56619  44.291  35.263   5.026
91459W        W56620  12.139  29.379  14.311
91460W        W56621  38.838   2.729   0.388
91461W        W56622  13.612  32.899  10.710
91462W        W56623  17.265   0.009   3.250
91463W        W56624  44.012  32.122   2.698
91464W        W56625  17.660   9.865   2.126
91465W        W56626  34.413  28.141  13.936
91466W        W56627  42.468  17.596   3.732
91467W        W56628  36.212  43.350   1.769
91468W        W56629  34.367  16.095  14.877
91469W        W56630   5.876   7.881   0.806
91470W        W56631  15.961  16.271   5.116
91471W        W56632   1.249  44.302  10.902
91472W        W56633  22.749   0.941  12.121
91473W        W56634  14.162  27.945  13.805
91474W        W56635   9.198  40.167  11.491
91475W        W56636   5.259  40.615   2.782
91476W        W56637  14.174   6.211  10.758
91477W        W56638  19.596  27.171   1.477
91478W        W56639  26.867  32.043  12.966
91479W        W56640  19.067  40.735   1.324
91480W        W56641  31.559  42.810   0.824
91481W        W56642  17.318   5.191  11.945
91482W        W56643  27.146  31.978  11.059
91483W        W56644  42.423  10.775  14.565
91484W        W56645  34.317  30.392   0.711
91485W        W56646  12.594   3.956  13.078
91486W        W56647  44.817  24.091  14.297
91487W        W56648   4.413  32.890   3.170
91488W        W56649  24.160  12.885   4.051
91489W        W56650  11.098  23.949  11.624
91490W        W56651  27.463  29.202  14.910
91491W        W56652  43.175  35.518   5.205
91492W        W56653  32.070   0.999  13.850
91493W        W56654   5.040  23.058  14.896
91494W        W56655  14.752  10.865   0.426
91495W        W56656  44.867   7.845  11.622
91496W        W56657   2.657  44.627  11.157
91497W        W56658  31.566   4.192  12.438
91498W        W56659   4.205   0.754  10.449
91499W        W56660  15.661   6.165  13.806
91500W        W56661  11.741   7.648  11.275
91501W        W56662  30.457  38.952   1.758
91502W        W56663  23.427  25.981   0.865
91503W        W56664  19.364  16.842  10.726
91504W        W56665  13.317   9.345  12.949
91505W        W56666   6.377  11.759  13.378
91506W        W56667   7.337  41.429   0.421
91507W        W56668  32.603  20.618  14.129
91508W        W56669   2.929   8.889   0.396
91509W        W56670  16.140  19.055   4.233
91510W        W56671  41.499  21.754  12.711
91511W        W56672  18.180   0.809  10.398
91512W        W56673  33.392  34.576   4.597
91513W        W56674  26.899  21.108   3.852
91514W        W56675  38.344   2.843  12.816
91515W        W56676  11.687  37.882  10.557
91516W        W56677  43.701   0.141   3.163
91517W        W56678  17.152  39.542  12.298
91518W        W56679  43.259   4.164  11.116
91519W        W56680  11.811   1.170  13.631
91520W        W56681  32.999  34.151  14.461
91521W        W56682  40.587   2.280   0.893
91522W        W56683  16.270  34.446   2.701
91523W        W56684  35.896  33.947   2.680
91524W        W56685   9.671  16.608   2.876
91525W        W56686  32.176   5.691  12.550
91526W        W56687  11.625  44.555  10.861
91527W        W56688  39.568  25.484   1.713
91528W        W56689   3.376  42.241  11.216
91529W        W56690   9.600  30.897   0.488
91530W        W56691  21.468  36.600  14.775
91531W        W56692   4.323   6.417   2.276
91532W        W56693  24.549   0.782   1.231
91533W        W56694   8.674  35.077  12.497
91534W        W56695  15.782  10.789   1.022
91535W        W56696   3.751  15.780  12.315
91536W        W56697  41.031  25.862  12.584
91537W        W56698  32.599   3.941   4.637
91538W        W56699  42.957  41.559  13.758
91539W        W56700  35.349  17.772  12.462
91540W        W56701   8.134   5.870   4.124
91541W        W56702  16.855  35.065   1.627
91542W        W56703  43.946  28.428   4.561
91543W        W56704  32.624  21.880  13.084
91544W        W56705  37.462  14.364  10.800
91545W        W56706   6.011   5.816   3.060
91546W        W56707  23.278  40.393  12.874
91547W        W56708  35.166  10.250  13.435
91548W        W56709   1.379   5.782  10.332
91549W        W56710  20.001  35.877   2.757
91550W        W56711  20.052   5.370  14.827
91551W        W56712  40.369   2.161  13.432
91552W        W56713  30.373  17.634  11.771
91553W        W56714  41.169  36.236   5.504
91554W        W56715  30.061   6.748   3.696
91555W        W56716  20.341  10.223  14.766
91556W        W56717  12.182   7.895   0.405
91557W        W56718  35.568   3.391  11.933
91558W        W56719   3.803  43.882  11.173
91559W        W56720  20.155  26.079   0.334
91560W        W56721   9.673   7.474  13.778
91561W        W56722  30.755  34.009  14.522
91562W        W56723  34.842   4.417  11.095
91563W        W56724  28.720   8.219   4.585
91564W        W56725   1.418   5.742  12.339
91565W        W56726  13.928   5.427  12.339
91566W        W56727  36.297  12.595  11.212
91567W        W56728  10.184  15.858   4.589
91568W        W56729  38.603  10.435  13.820
91569W        W56730   8.812  25.093   4.160
91570W        W56731  33.720  16.670  14.455
91571W        W56732  43.394  26.098  13.678
91572W        W56733  40.373   9.097  11.595
91573W        W56734   3.600  18.844  11.638
91574W        W56735  16.108  14.343   4.540
91575W        W56736   3.185   2.499  14.091
91576W        W56737  16.242  12.664  10.897
91577W        W56738   3.270  21.431   0.655
91578W        W56739  10.194  17.020  11.259
91579W        W56740   7.693  38.652  12.919
91580W        W56741  21.211  12.370   0.373
91581W        W56742  30.200  15.000  11.094
91582W        W56743   9.243  14.007   3.677
91583W        W56744  24.461  34.129   2.402
91584W        W56745  42.521  35.804   3.767
91585W        W56746  11.400  13.833  12.500
91586W        W56747  39.151  19.605   2.800
91587W        W56748  41.970   9.641   4.413
91588W        W56749  18.010  38.855   0.239
91589W        W56750  34.833  33.472  11.130
91590W        W56751  41.100  19.750  11.602
91591W        W56752   4.299  13.081   3.705
91592W        W56753  31.277  32.491  11.624
91593W        W56754   7.694  25.402   5.370
91594W        W56755   0.011   5.179   0.678
91595W        W56756   8.103  16.601   4.249
91596W        W56757  12.349   3.771  13.488
91597W        W56758   1.967  31.040  12.066
91598W        W56759  32.129  20.217   2.257
91599W        W56760  21.648   1.835   3.241
91600W        W56761  35.601  36.996   2.129
91601W        W56762   4.636   9.181   2.324
91602W        W56763   4.203   8.348   4.028
91603W        W56764   4.351  33.316  14.182
91604W        W56765   7.941  41.203   4.014
91605W        W56766  42.072  24.052   0.765
91606W        W56767  42.663  33.828  10.154
91607W        W56768   5.008   2.476  10.171
91608W        W56769   9.605  27.765   0.509
91609W        W56770  37.367  26.250   3.812
91610W        W56771   8.624   1.290   2.237
91611W        W56772  31.114  25.057   3.359
91612W        W56773  18.861  14.162  11.164
91613W        W56774  13.639  14.684  13.540
91614W        W56775  30.645   8.368   0.990
91615W        W56776   2.793  22.113   2.697
91616W        W56777   0.700  21.079  10.616
91617W        W56778  32.102  10.291  14.429
91618W        W56779  31.606  32.490  10.843
91619W        W56780  13.757  37.456   2.927
91620W        W56781  17.575   2.173  11.457
91621W        W56782  29.071  21.728   4.198
91622W        W56783  10.793  29.981  10.977
91623W        W56784   2.961   7.675  12.863
91624W        W56785   5.747  35.538   0.973
91625W        W56786  20.017  23.289   1.926
91626W        W56787  36.128  20.733   0.248
91627W        W56788  33.850  23.047   1.956
91628W        W56789  17.657  28.160  13.769
91629W        W56790  27.697  24.054  14.221
91630W        W56791  26.575   1.970   3.216
91631W        W56792  23.434   2.463  12.058
91632W        W56793  39.462  14.503   2.373
91633W        W56794  40.310  35.353   3.667
91634W        W56795  30.786  13.723  14.297
91635W        W56796  32.907  32.396   3.846
91636W        W56797   0.073  24.949  11.491
91637W        W56798  34.459  21.722   9.723
91638W        W56799   9.519  17.062   2.692
91639W        W56800  41.941  37.773   2.665
91640W        W56801  36.782  24.651   0.437
91641W        W56802  22.438  14.341  13.027
91642W        W56803  25.119  25.167   2.664
91643W        W56804   5.172  27.437  13.022
91644W        W56805  44.441  24.515   1.364
91645W        W56806  25.081  15.700   4.607
91646W        W56807  43.828  28.846  14.400
91647W        W56808  21.235   8.623  14.826
91648W        W56809   0.457  28.025  14.463
91649W        W56810  20.658   2.759   4.454
91650W        W56811  31.375  17.668   0.683
91651W        W56812  38.571  37.599  13.814
91652W        W56813   8.401  13.377  12.960
91653W        W56814   9.228  34.427  11.354
91654W        W56815  18.219  19.678  11.039
91655W        W56816  34.746  10.692  14.929
91656W        W56817   9.776  41.317   2.663
91657W        W56818  33.804  30.647   2.769
91658W        W56819  26.974   3.503  11.650
91659W        W56820  40.883   4.527  12.206
91660W        W56821  13.410  33.008  13.078
91661W        W56822  14.290  14.004  12.984
91662W        W56823   6.876  17.359  10.970
91663W        W56824  14.703  21.608   0.722
91664W        W56825  40.561  23.582   0.340
91665W        W56826  40.506  27.412   2.746
91666W        W56827  14.662  40.821  10.532
91667W        W56828   2.918  33.390   4.544
91668W        W56829   5.298  42.235   4.792
91669W        W56830   5.913  12.607   0.905
91670W        W56831  15.867  38.955   4.518
91671W        W56832  17.673  35.187  14.244
91672W        W56833  33.650  17.213   3.192
91673W        W56834  36.579  10.940  14.399
91674W        W56835   3.738  22.514   0.068
91675W        W56836  43.479  30.255  12.080
91676W        W56837  34.908  33.456  12.163
91677W        W56838  30.870  40.551   5.050
91678W        W56839  36.931  12.611  12.012
91679W        W56840   7.710   5.236   3.779
91680W        W56841  14.288  27.448  13.872
91681W        W56842  22.223  40.998   4.157
91682W        W56843  12.364   9.325   0.478
91683W        W56844  13.249  34.069   4.573
91684W        W56845  26.187  30.150   3.170
91685W        W56846   0.240  17.579   2.232
91686W        W56847  16.181  31.838  12.410
91687W        W56848  10.543  17.341  11.527
91688W        W56849  12.832  29.028  11.273
91689W        W56850   4.925  26.157   2.203
91690W        W56851  41.371  10.213  13.837
91691W        W56852  20.619  16.962   0.366
91692W        W56853  25.376  10.449   5.481
91693W        W56854  31.054  32.664   3.123
91694W        W56855   1.966  14.296  14.008
91695W        W56856  21.064  18.946   2.646
91696W        W56857  13.952   6.137  11.595
91697W        W56858  30.715   1.599   1.951
91698W        W56859  26.911  34.049   2.273
91699W        W56860  15.338  34.909  14.047
91700W        W56861  17.080  32.047   5.085
91701W        W56862   5.046   6.172   0.357
91702W        W56863  29.436  18.787  10.750
91703W        W56864  34.946  19.239   3.684
91704W        W56865  16.704  37.501   2.786
91705W        W56866  20.111   7.205  13.544
91706W        W56867  14.115  16.468  12.489
91707W        W56868   5.329  41.717   4.928
91708W        W56869  36.546  37.468  11.003
91709W        W56870   9.259   2.915   2.292
91710W        W56871  36.954  11.320   1.723
91711W        W56872  14.628  12.375   4.626
91712W        W56873  15.219  33.011  11.170
91713W        W56874  25.524  38.163  14.828
91714W        W56875  42.244   2.932  13.892
91715W        W56876  42.246  40.416  12.887
91716W        W56877  21.274  15.283  12.397
91717W        W56878  16.478  13.810  11.276
91718W        W56879   9.850   2.492  14.289
91719W        W56880   3.025  40.067   4.543
91720W        W56881  33.642   9.293  13.453
91721W        W56882  17.219  19.802  14.902
91722W        W56883  41.853   1.429  12.374
91723W        W56884  39.374  40.322   3.098
91724W        W56885  32.219   4.921   3.816
91725W        W56886   2.333  43.484   1.458
91726W        W56887   5.248  15.186  11.826
91727W        W56888   6.737  31.689   4.273
91728W        W56889  24.784  10.038  10.249
91729W        W56890  40.284  25.626   2.846
91730W        W56891  43.344  33.321  11.894
91731W        W56892  44.738  27.473  11.421
91732W        W56893  16.291  41.907  14.051
91733W        W56894   8.970  38.838   2.223
91734W        W56895  19.944   4.837   4.150
91735W        W56896  11.798  37.464  10.045
91736W        W56897  42.786  13.567  14.836
91737W        W56898  25.524   0.957   4.160
91738W        W56899   3.470  17.365  11.531
91739W        W56900   5.274   9.401  14.483
91740W        W56901  21.966  23.531   2.649
91741W        W56902  25.061  34.176   4.303
91742W        W56903   9.971  34.893  14.874
91743W        W56904  16.902  15.666   2.662
91744W        W56905  40.416  38.240   0.344
91745W        W56906  13.043  23.660  13.866
91746W        W56907  38.187  15.429   2.210
91747W        W56908  29.414  13.510  10.722
91748W        W56909   5.684   9.377   2.281
91749W        W56910  10.296  18.632  10.682
91750W        W56911   4.818   0.580   0.558
91751W        W56912  21.487  12.159   3.641
91752W        W56913   4.346   1.725  12.618
91753W        W56914   8.742  17.779  10.772
91754W        W56915   4.291  21.352  12.597
91755W        W56916  32.556  11.400   2.016
91756W        W56917  42.958  41.859   0.218
91757W        W56918  35.108  12.144  11.070
91758W        W56919  15.012  31.284  13.523
91759W        W56920  27.631   4.997   2.188
91760W        W56921  17.646  18.713   1.620
91761W        W56922   0.605  17.829  13.112
91762W        W56923  12.463  40.292  12.935
91763W        W56924  43.235  12.701   0.860
91764W        W56925  15.168  30.397   3.205
91765W        W56926  42.981  42.512   2.390
91766W        W56927  19.276  12.864   1.810
91767W        W56928  22.809   1.447   2.900
91768W        W56929  22.565  16.195   4.942
91769W        W56930  25.818   4.932  14.860
91770W        W56931  44.933  13.703   1.163
91771W        W56932   5.647  30.883  14.999
91772W        W56933  19.505   9.201   2.766
91773W        W56934   9.947  38.569   0.319
91774W        W56935  22.752   4.330  14.447
91775W        W56936   3.932  34.647  14.324
91776W        W56937  22.120   3.402  12.125
91777W        W56938  21.613  19.680   2.646
91778W        W56939   6.025  44.764  10.724
91779W        W56940  21.306  23.101   0.275
91780W        W56941  26.120  29.444   2.810
91781W        W56942  35.821  36.972   2.894
91782W        W56943  26.574  12.681   5.467
91783W        W56944  16.727  38.603   2.940
91784W        W56945   4.894  17.055   0.406
91785W        W56946  39.352  33.882  14.713
91786W        W56947  41.307  43.340   2.396
91787W        W56948  43.370  36.502  12.739
91788W        W56949  15.331  18.720  12.451
91789W        W56950  41.716  40.028  13.465
91790W        W56951  15.559  30.761   5.034
91791W        W56952   3.253  39.879   1.721
91792W        W56953   4.843  41.331   3.712
91793W        W56954  30.969  21.209  10.951
91794W        W56955  10.753  14.529   1.267
91795W        W56956  27.050  15.530   2.575
91796W        W56957  21.326  39.344   3.551
91797W        W56958   6.786   9.310  10.563
91798W        W56959  23.629  17.642   2.180
91799W        W56960  12.098  19.222  11.621
91800W        W56961  24.452  40.280  12.439
91801W        W56962  31.221   5.922   0.076
91802W        W56963  39.058  12.205   4.489
91803W        W56964   8.156  38.801  11.003
91804W        W56965  21.226   4.134   0.362
91805W        W56966   6.043  23.019  11.838
91806W        W56967   4.737   5.525   4.131
91807W        W56968  26.398  42.491  14.836
91808W        W56969  12.767   5.391   4.238
91809W        W56970  44.374  20.188  11.362
91810W        W56971   8.690   8.504   0.772
91811W        W56972   3.482  13.901   4.929
91812W        W56973  12.466  10.762  11.096
91813W        W56974  17.953   9.212   2.778
91814W        W56975  31.038  32.989   2.711
91815W        W56976  21.552   2.531  14.700
91816W        W56977  31.126  33.791  11.089
91817W        W56978   1.163  13.818  14.898
91818W        W56979  13.413  43.811  10.711
91819W        W56980  39.427   2.022  13.990
91820W        W56981   2.250  37.879  13.806
91821W        W56982  42.841  21.980   3.660
91822W        W56983  21.640   0.559   3.802
91823W        W56984  33.029   3.915  10.540
91824W        W56985  38.772   4.940   4.377
91825W        W56986  27.839   8.933   5.216
91826W        W56987  21.440  44.845  11.612
91827W        W56988  11.765  38.961   3.589
91828W        W56989  16.847  13.300   4.048
91829W        W56990  38.209  24.072   2.444
91830W        W56991  25.709  23.457   3.818
91831W        W56992   2.426  29.402   0.853
91832W        W56993  38.683  28.967  11.506
91833W        W56994  40.627  19.235  11.066
91834W        W56995  17.187  41.827  11.546
91835W        W56996  12.615   8.836   3.364
91836W        W56997   9.284   1.254  13.461
91837W        W56998   5.263  34.858   2.849
91838W        W56999   8.464  43.203   0.739
91839W        W57000   7.156   0.967  10.694
91840W        W57001  41.288  27.608  12.409
91841W        W57002  22.284   3.818  11.841
91842W        W57003  40.307  36.716   2.147
91843W        W57004  43.888   8.164   2.877
91844W        W57005  40.801   4.512  11.091
91845W        W57006  44.489  43.975  14.968
91846W        W57007  35.070  34.836  14.499
91847W        W57008  34.400  32.700  11.951
91848W        W57009  18.063   5.144   1.814
91849W        W57010   7.188   3.409   2.731
91850W        W57011  19.130  32.687   3.173
91851W        W57012   3.746  21.694  11.092
91852W        W57013  17.189  13.198  11.658
91853W        W57014  20.562  24.438   2.348
91854W        W57015   9.805   5.736  11.165
91855W        W57016   4.360   3.717  14.476
91856W        W57017  32.426  33.835  12.412
91857W        W57018  12.273  32.144  10.745
91858W        W57019  31.482  10.798  11.499
91859W        W57020  22.747  21.638   3.335
91860W        W57021   3.177  17.715   1.450
91861W        W57022  27.001  42.525   4.822
91862W        W57023  31.810  36.550  14.449
91863W        W57024  16.699  16.138   2.802
91864W        W57025  14.218  26.598  10.595
91865W        W57026  27.331  24.269   9.720
91866W        W57027  30.210  40.400  13.422
91867W        W57028   2.955  40.865   1.808
91868W        W57029  30.600  33.052   4.704
91869W        W57030   8.840  12.368   1.118
91870W        W57031  34.418  41.339  12.332
91871W        W57032  18.181  35.896  14.646
91872W        W57033   4.685   9.227   0.737
91873W        W57034   4.909  23.140  13.500
91874W        W57035   7.351  14.243  12.808
91875W        W57036  26.533  41.088   4.539
91876W        W57037  31.093   2.903  10.956
91877W        W57038   5.856   8.260   4.797
91878W        W57039   9.644  15.706   0.440
91879W        W57040  31.684  16.089  13.957
91880W        W57041   7.116  29.146  14.879
91881W        W57042  13.303  11.863   0.977
91882W        W57043   0.281  31.543   0.311
91883W        W57044  21.341  22.695   3.108
91884W        W57045  44.394  17.785  13.459
91885W        W57046  12.115  39.256  12.489
91886W        W57047  31.529  43.420   0.479
91887W        W57048  19.682   6.170   3.645
91888W        W57049   1.449  18.052   2.641
91889W        W57050  10.668   7.599  10.864
91890W        W57051  16.641  27.283   0.061
91891W        W57052  26.516  42.870  11.498
91892W        W57053   9.206  22.015   0.684
91893W        W57054   2.929  24.426  14.984
91894W        W57055  34.136  27.672   3.443
91895W        W57056   3.476  22.590  13.310
91896W        W57057  35.122  28.717   3.696
91897W        W57058   4.430   0.283   1.305
91898W        W57059  29.147  26.654  11.074
91899W        W57060  19.975  39.400   2.365
91900W        W57061  20.673   7.722   1.684
91901W        W57062  37.146  26.014   0.357
91902W        W57063  16.750  39.623   0.203
91903W        W57064  10.323   6.651   4.280
91904W        W57065   3.280  17.022  13.859
91905W        W57066  34.911  25.264  14.939
91906W        W57067   5.254   4.791  11.145
91907W        W57068   0.091  31.116  14.320
91908W        W57069  24.489   7.747  12.147
91909W        W57070   1.261   0.037   3.249
91910W        W57071  34.838  41.074   4.624
91911W        W57072   9.601   4.885  12.419
91912W        W57073   3.490   3.539   4.711
91913W        W57074  21.258  14.318  14.304
91914W        W57075  29.167  15.796   3.723
91915W        W57076  27.867   7.636  11.068
91916W        W57077  16.930  17.944  13.705
91917W        W57078  22.290   7.718   1.735
91918W        W57079   9.707  21.960   4.094
91919W        W57080  38.387  36.600   0.258
91920W        W57081  21.054   5.658  11.473
91921W        W57082   3.721  38.782  10.890
91922W        W57083  44.753  27.103  13.280
91923W        W57084  19.217   3.564   1.433
91924W        W57085   5.255  21.120   1.955
91925W        W57086  23.197   4.161  10.734
91926W        W57087   1.653  15.101   3.754
91927W        W57088   6.808  43.184   2.173
91928W        W57089  23.150  11.401   3.408
91929W        W57090  44.423  29.174   0.921
91930W        W57091   6.825   3.002  12.813
91931W        W57092  23.109   4.271  14.830
91932W        W57093   6.639  35.579   3.136
91933W        W57094  23.587  25.891  14.329
91934W        W57095  28.823  29.211  11.017
91935W        W57096   1.339  14.565   0.257
91936W        W57097   2.703   7.520   1.833
91937W        W57098  19.647   5.857  14.305
91938W        W57099  24.942   4.251  11.508
91939W        W57100  17.673  17.967   2.027
91940W        W57101  36.320  34.452  12.495
91941W        W57102   0.392  28.274   4.133
91942W        W57103  11.644  44.939  10.502
91943W        W57104   9.367  36.950   3.405
91944W        W57105   9.676  15.709  13.103
91945W        W57106   2.293  15.361   4.536
91946W        W57107  11.457  23.928   1.243
91947W        W57108  20.309  42.788   1.074
91948W        W57109   7.061  29.710   5.022
91949W        W57110  43.470   4.399  10.725
91950W        W57111  14.007  43.005  10.247
91951W        W57112   2.810  10.840   0.292
91952W        W57113  25.098  28.819  10.713
91953W        W57114  35.836   7.871   0.787
91954W        W57115  13.443   6.724  11.935
91955W        W57116  15.916  18.095  10.628
91956W        W57117  36.928  32.901  11.093
91957W        W57118  13.858  21.572   2.828
91958W        W57119  33.921  30.150   2.824
91959W        W57120  17.749  22.475   1.366
91960W        W57121  36.115  26.571  13.001
91961W        W57122  38.069  10.783  11.823
91962W        W57123   2.748  44.765  13.971
91963W        W57124  26.563  22.661   3.296
91964W        W57125  28.276   9.688  14.921
91965W        W57126  37.907  39.271  13.088
91966W        W57127   4.691  35.979   4.172
91967W        W57128  15.315  31.197  11.183
91968W        W57129  17.639  20.758   4.541
91969W        W57130   2.586  16.236  13.958
91970W        W57131  39.825  30.462   3.316
91971W        W57132   3.535  20.651   2.861
91972W        W57133  22.646  31.015  11.909
91973W        W57134  32.939  40.008  14.802
91974W        W57135  19.861  22.461   2.330
91975W        W57136  33.944  29.512  10.791
91976W        W57137  33.689  37.446   1.295
91977W        W57138   8.979  30.040  13.541
91978W        W57139   5.861  38.582   1.450
91979W        W57140  24.676  32.376  11.132
91980W        W57141   9.387   1.770   0.807
91981W        W57142  27.133  26.225   2.741
91982W        W57143   7.078  32.509  14.287
91983W        W57144  34.869   8.813  14.290
91984W        W57145  30.422  11.663  11.576
91985W        W57146   3.726  44.383   0.411
91986W        W57147  11.602   6.419   4.180
91987W        W57148  34.503  39.498   0.089
91988W        W57149  18.042  27.647  11.223
91989W        W57150  44.719  41.818   0.567
91990W        W57151  39.389  25.775   3.319
91991W        W57152  27.897  23.488   2.850
91992W        W57153  12.606  29.161   2.211
91993W        W57154  27.416  42.194  14.822
91994W        W57155   9.437  28.945  12.906
91995W        W57156  43.867  12.066  10.644
91996W        W57157   5.126  44.958   2.705
91997W        W57158  18.327  21.045   2.802
91998W        W57159   9.731   5.423   4.732
91999W        W57160   1.336  42.757   0.332
92000W        W57161  38.421  25.981   2.782
92001W        W57162  34.081  25.421  14.914
92002W        W57163   4.492  12.291  13.592
92003W        W57164  33.867  32.997  12.927
92004W        W57165  13.257   7.277   4.455
92005W        W57166  37.507   9.110  10.344
92006W        W57167  25.518  27.715   1.057
92007W        W57168  28.453  41.197  14.426
92008W        W57169  15.699  24.165  11.833
92009W        W57170  26.205   3.605  12.275
92010W        W57171  41.636  18.461  14.947
92011W        W57172   5.225  12.329  12.560
92012W        W57173  43.977  15.285  11.952
92013W        W57174  30.435  19.259  13.983
92014W        W57175  11.183   1.237   0.794
92015W        W57176   9.368  20.740  10.690
92016W        W57177  12.352   2.852   3.076
92017W        W57178   3.087  44.903  10.270
92018W        W57179  17.026   7.234   3.223
92019W        W57180   8.201  29.409  13.772
92020W        W57181   9.842  43.828  13.422
92021W        W57182  40.903   6.844   0.723
92022W        W57183  28.098  29.968   3.712
92023W        W57184   6.339  41.482   1.288
92024W        W57185  15.992  13.030  11.185
92025W        W57186  31.988  44.244   3.368
92026W        W57187  40.259   3.091   1.431
92027W        W57188  27.636   4.743   1.721
92028W        W57189  41.179  10.347  14.295
92029W        W57190  29.851  31.417  10.647
92030W        W57191  35.866  10.361  12.111
92031W        W57192  15.710   3.724  11.867
92032W        W57193  14.624  42.476   3.734
92033W        W57194  41.764   3.500  10.416
92034W        W57195  44.760   0.069   4.177
92035W        W57196   7.684  11.370  12.452
92036W        W57197  13.279  26.951   4.211
92037W        W57198  13.767   1.578  10.740
92038W        W57199  21.374  35.272   2.264
92039W        W57200   0.156  20.219   3.619
92040W        W57201  36.324  29.847  13.903
92041W        W57202   4.795  41.992   0.964
92042W        W57203   2.902   0.389   2.633
92043W        W57204  30.985  11.670   4.907
92044W        W57205  25.081  26.996  12.460
92045W        W57206  12.879  25.969   0.025
92046W        W57207   4.982  38.497   2.334
92047W        W57208  27.044  12.106  10.179
92048W        W57209  28.078  41.856   0.256
92049W        W57210  36.813  25.997   0.760
92050W        W57211   7.229  42.495  14.310
92051W        W57212  18.118  39.115  14.814
92052W        W57213  14.683  30.000   2.745
92053W        W57214   9.819  15.094  10.730
92054W        W57215  41.593   7.697  12.256
92055W        W57216  13.769  12.884   2.776
92056W        W57217  12.775   6.352   2.141
92057W        W57218  30.501  30.263   3.249
92058W        W57219   1.644  18.123  12.899
92059W        W57220  22.174  39.935  11.870
92060W        W57221  36.786  15.772  11.624
92061W        W57222  15.505  23.499  11.440
92062W        W57223  10.290  18.002  14.546
92063W        W57224   6.833  19.576  13.513
92064W        W57225  12.650  34.513   3.872
92065W        W57226  27.719  16.595  12.098
92066W        W57227  22.955  13.087  12.954
92067W        W57228  13.300   0.929   4.451
92068W        W57229   4.203  21.092  14.092
92069W        W57230  24.946  32.102  12.854
92070W        W57231   1.217  26.500   2.435
92071W        W57232  16.663  29.750  11.551
92072W        W57233   5.876  23.873   4.916
92073W        W57234  40.487   6.058  14.878
92074W        W57235  22.848  35.253  11.832
92075W        W57236  43.058  26.303   2.217
92076W        W57237   1.447  26.208   3.734
92077W        W57238  37.156  29.000  10.730
92078W        W57239  42.254   4.560   4.402
92079W        W57240   1.174  23.759   0.927
92080W        W57241  11.051   3.916  12.004
92081W        W57242  16.075  20.507  12.864
92082W        W57243  19.264   9.923  13.410
92083W        W57244  35.342  28.068   3.258
92084W        W57245  13.083  28.177   2.127
92085W        W57246  43.680  22.443   3.994
92086W        W57247  31.487  42.628  12.430
92087W        W57248  40.250  25.929  14.791
92088W        W57249  22.993  12.893  13.487
92089W        W57250  44.765  25.471  10.690
92090W        W57251  16.663  34.780   2.599
92091W        W57252  39.355   6.809  14.911
92092W        W57253  41.619  21.323  13.000
92093W        W57254  11.218  35.691   3.227
92094W        W57255   3.894  14.005   2.031
92095W        W57256  13.743  43.677   1.201
92096W        W57257  38.805   7.929  14.386
92097W        W57258  38.308  11.333  13.755
92098W        W57259  13.480  22.252   3.064
92099W        W57260  29.487  29.671  10.359
92100W        W57261  16.204  16.832   2.865
92101W        W57262  36.937  21.138   4.264
92102W        W57263  41.398  33.521   4.403
92103W        W57264  22.695  34.438  12.877
92104W        W57265  18.579  13.853  12.301
92105W        W57266  11.231  24.724  12.057
92106W        W57267  35.813  25.950  13.869
92107W        W57268   7.366  24.931   0.012
92108W        W57269  36.667   3.868   4.471
92109W        W57270  10.383  19.759  11.532
92110W        W57271  12.094  41.778  11.430
92111W        W57272  38.122   3.353   0.937
92112W        W57273   3.008   4.724   3.786
92113W        W57274   1.693  21.223  10.572
92114W        W57275   5.239  38.777   3.129
92115W        W57276   5.264  17.822   1.985
92116W        W57277   0.990  30.448  10.675
92117W        W57278   4.421  13.282  13.401
92118W        W57279  28.069  26.675   4.806
92119W        W57280  15.752  13.329   1.191
92120W        W57281  43.336  22.155  13.909
92121W        W57282   8.731  33.617  12.345
92122W        W57283  34.442  20.046   1.851
92123W        W57284  14.189  27.402   3.245
92124W        W57285   5.909  20.858  14.931
92125W        W57286  23.280  10.814   3.645
92126W        W57287  18.622  31.314   3.302
92127W        W57288  17.306  18.280   0.938
92128W        W57289   1.533  20.779   1.200
92129W        W57290  28.659  34.564  11.393
92130W        W57291  25.172  43.452   1.422
92131W        W57292  19.725  20.814   0.859
92132W        W57293  12.196  30.980  12.119
92133W        W57294  15.225  19.333   0.684
92134W        W57295  14.166  13.838  11.816
92135W        W57296   3.835   2.541  10.515
92136W        W57297  12.904  27.445  13.388
92137W        W57298  15.027  32.394   3.665
92138W        W57299   0.278  29.140   3.663
92139W        W57300   2.446  19.952   4.324
92140W        W57301   8.808  20.465  12.318
92141W        W57302  21.662   7.152  13.950
92142W        W57303  16.982   9.275  13.846
92143W        W57304  38.386   9.395   1.290
92144W        W57305  19.697   4.483  10.495
92145W        W57306  41.441  20.335   0.763
92146W        W57307   0.451  42.977   0.858
92147W        W57308  29.144  41.044   0.428
92148W        W57309  43.443  35.933   2.140
92149W        W57310  24.037  35.207   4.209
92150W        W57311  40.462  18.593  10.713
92151W        W57312   9.475  31.042   0.975
92152W        W57313  23.197  30.562  13.935
92153W        W57314  22.505  37.317   2.955
92154W        W57315  28.801  30.557  13.965
92155W        W57316   3.945   8.679  14.141
92156W        W57317  12.598   2.222  11.641
92157W        W57318  25.506  41.165   9.809
92158W        W57319  11.444  14.098  11.168
92159W        W57320  29.168  32.668  12.014
92160W        W57321  12.811   6.430  14.038
92161W        W57322  16.132  31.536  13.782
92162W        W57323  30.212  16.934  14.369
92163W        W57324   9.174  44.694  11.678
92164W        W57325  43.354   2.055  14.317
92165W        W57326  40.637   8.736  12.512
92166W        W57327   0.802  39.683   0.069
92167W        W57328  24.540  39.107  14.850
92168W        W57329  32.027  40.774  14.147
92169W        W57330  14.686   3.433  11.959
92170W        W57331  13.767  26.360  12.598
92171W        W57332  12.093  26.173   3.688
92172W        W57333   3.951  24.886  10.697
92173W        W57334  18.763   7.772  11.150
92174W        W57335  25.925   0.400  12.613
92175W        W57336  20.510   0.050   1.918
92176W        W57337  37.993  12.676   2.141
92177W        W57338  13.066  19.632   3.974
92178W        W57339  27.837   2.900  14.001
92179W        W57340  31.086  44.223   2.165
92180W        W57341   0.314   9.421  10.942
92181W        W57342  13.709  15.101   4.224
92182W        W57343  42.976  12.194   4.155
92183W        W57344   6.736  38.551   0.397
92184W        W57345  26.538  19.655  11.311
92185W        W57346  14.307   5.023   0.923
92186W        W57347   4.941  30.619  11.974
92187W        W57348  30.047  21.189   2.154
92188W        W57349  18.051  35.851   4.553
92189W        W57350  11.805  32.131  14.042
92190W        W57351  12.111  29.208  14.821
92191W        W57352  31.607  33.922   2.297
92192W        W57353  31.933  27.215   0.504
92193W        W57354  33.047   1.209   3.130
92194W        W57355  40.991   5.972   4.608
92195W        W57356  21.153  13.610   1.679
92196W        W57357   4.299  14.567  12.544
92197W        W57358  27.504   9.634  14.442
92198W        W57359  27.177  36.309  11.196
92199W        W57360  35.819   7.212  14.356
92200W        W57361  38.436  34.358  14.894
92201W        W57362  16.673  17.173   1.844
92202W        W57363  11.601  33.556  11.372
92203W        W57364  14.335  34.863   1.675
92204W        W57365  33.495  11.604   1.915
92205W        W57366  21.933   2.469  12.371
92206W        W57367  30.346  10.754  14.223
92207W        W57368  37.087   7.942   4.591
92208W        W57369  19.615  37.410   0.235
92209W        W57370  25.373  38.980   2.312
92210W        W57371   4.613  11.996   4.138
92211W        W57372  23.502  14.551  12.758
92212W        W57373   7.604  18.745   0.789
92213W        W57374  29.234  15.035   1.307
92214W        W57375   8.384   5.887   2.159
92215W        W57376   8.891  12.981   2.750
92216W        W57377  21.066  11.995  12.377
92217W        W57378  28.674  38.372  11.210
92218W        W57379  33.544  29.736  13.469
92219W        W57380  26.155   6.649   4.369
92220W        W57381   4.333  17.466  10.733
92221W        W57382  33.645   1.473  12.516
92222W        W57383  29.782  35.679   1.166
92223W        W57384  22.074   6.920  10.523
92224W        W57385  20.530  12.188   3.276
92225W        W57386   6.291  26.018   2.332
92226W        W57387  20.223   6.507  14.726
92227W        W57388  39.725   8.832   3.786
92228W        W57389   2.001  28.916  10.653
92229W        W57390  10.478  35.483   2.809
92230W        W57391  15.427  28.089   3.052
92231W        W57392  13.438  15.740   0.849
92232W        W57393  25.601  15.209   0.467
92233W        W57394  28.630  25.982  14.861
92234W        W57395  44.503   1.480   5.122
92235W        W57396  42.840   2.726   0.297
92236W        W57397  31.337   7.732   4.844
92237W        W57398  21.573  11.525   0.464
92238W        W57399   0.507  14.187  10.434
92239W        W57400  25.221  29.452  11.256
92240W        W57401  35.059  11.717  14.498
92241W        W57402  12.038   2.956  12.162
92242W        W57403   7.352  10.441  12.787
92243W        W57404  32.709  28.988   1.249
92244W        W57405  26.656   5.276  13.326
92245W        W57406  35.304  10.666  13.772
92246W        W57407  39.437  26.051  13.800
92247W        W57408  40.839  35.086   3.547
92248W        W57409  41.205  20.681  11.655
92249W        W57410  40.118   0.259  13.261
92250W        W57411  44.334  10.070  13.999
92251W        W57412  27.118  14.587   1.633
92252W        W57413  38.814  38.520   1.135
92253W        W57414  17.319  38.037  10.202
92254W        W57415   8.837   7.778  12.388
92255W        W57416   2.030  41.546  11.529
92256W        W57417  10.763  35.172  13.884
92257W        W57418  36.849   7.624  12.616
92258W        W57419  20.927   8.269   3.269
92259W        W57420  34.372  27.386   3.796
92260W        W57421  22.331   4.534  13.054
92261W        W57422  14.535  25.093  13.773
92262W        W57423  39.459   2.685   2.901
92263W        W57424  43.990  43.891   2.097
92264W        W57425   6.343  19.646  14.814
92265W        W57426   8.315  37.497   2.389
92266W        W57427  20.404  44.878   0.967
92267W        W57428   1.308  12.620   0.619
92268W        W57429  38.825  17.256   4.341
92269W        W57430  27.264  24.979  12.531
92270W        W57431  24.631  39.207   2.574
92271W        W57432   4.707   4.368   0.328
92272W        W57433   9.309  23.271  14.481
92273W        W57434  35.270  31.545  13.940
92274W        W57435  14.771  15.937   1.346
92275W        W57436  39.331  43.694  12.909
92276W        W57437   7.819   0.100   2.803
92277W        W57438  35.525  13.683  12.316
92278W        W57439  39.431  25.748   1.273
92279W        W57440  21.218   3.440   1.428
92280W        W57441  13.099  33.969  14.044
92281W        W57442  14.670  32.117   4.394
92282W        W57443   2.109  17.676  14.124
92283W        W57444  12.290   3.024  13.934
92284W        W57445  30.060   7.874   1.370
92285W        W57446  21.531  31.886   0.482
92286W        W57447  25.353  41.435   4.560
92287W        W57448  38.120   1.758  14.505
92288W        W57449  17.183  16.035   3.030
92289W        W57450  31.743   1.194   3.731
92290W        W57451  13.573  40.845  11.217
92291W        W57452  39.970  32.368   2.965
92292W        W57453  15.206  36.878  11.914
92293W        W57454  37.423   6.200   2.776
92294W        W57455  44.434  22.512  11.114
92295W        W57456  26.284  38.984  11.916
92296W        W57457  25.213  20.098   3.669
92297W        W57458  32.072  26.976   0.067
92298W        W57459  26.933  42.479   0.755
92299W        W57460   4.849  39.824   0.899
92300W        W57461  33.989   7.659   2.264
92301W        W57462  43.996   1.005   1.273
92302W        W57463  22.631  25.989  12.439
92303W        W57464  28.122  30.517   2.756
92304W        W57465  40.285  14.845   0.570
92305W        W57466  15.208  14.231   2.357
92306W        W57467  42.549  25.512   2.583
92307W        W57468  20.652  36.526   3.979
92308W        W57469  24.556  14.072   3.787
92309W        W57470  34.611  12.008   3.156
92310W        W57471  36.643  44.162   9.776
92311W        W57472  29.055  11.100  10.072
92312W        W57473  39.939  43.677   1.506
92313W        W57474  10.757   0.640  11.661
92314W        W57475   7.275  37.213  11.082
92315W        W57476   8.250  10.167  13.581
92316W        W57477  41.074  14.559   3.262
92317W        W57478  42.870  40.730  14.857
92318W        W57479  23.179  37.803   1.259
92319W        W57480  43.178   3.345  11.657
92320W        W57481  29.479  17.243   3.247
92321W        W57482  15.041   5.792   3.194
92322W        W57483   9.245   6.830  12.367
92323W        W57484   2.011  10.131  13.280
92324W        W57485  43.412   1.960   0.549
92325W        W57486  16.097  15.823  10.638
92326W        W57487  37.113  30.621   2.271
92327W        W57488   3.239  20.156   1.274
92328W        W57489  29.896  37.348   3.985
92329W        W57490   7.859   0.547   0.923
92330W        W57491  35.376  42.859  11.816
92331W        W57492  40.107  31.803   0.624
92332W        W57493  44.714   1.508   4.193
92333W        W57494  29.551  31.293   4.118
92334W        W57495  44.719  24.777  11.869
92335W        W57496   3.638  13.701   0.905
92336W        W57497  42.887  43.278  10.614
92337W        W57498  23.080  11.048  10.127
92338W        W57499  41.709  24.410   0.605
92339W        W57500  18.606   4.323   3.911
92340W        W57501  21.546  30.080   3.192
92341W        W57502   9.202   3.180  13.325
92342W        W57503  34.400  19.380  11.974
92343W        W57504  27.663  34.087  14.741
92344W        W57505  10.073  36.914   4.534
92345W        W57506  31.923   1.509   0.010
92346W        W57507   9.195   6.768   0.494
92347W        W57508  34.422   8.833   4.984
92348W        W57509  25.750  23.010   0.763
92349W        W57510  36.557   6.242   2.200
92350W        W57511  40.782   6.323  10.584
92351W        W57512  43.996  40.466   1.368
92352W        W57513  15.249  31.132   4.855
92353W        W57514  23.726  23.224   5.743
92354W        W57515  44.864  28.179   4.190
92355W        W57516  27.597  17.981   1.440
92356W        W57517  29.258  15.989  11.341
92357W        W57518  19.310  37.022  13.402
92358W        W57519  26.236  35.871  14.658
92359W        W57520  28.908  40.375   1.869
92360W        W57521   8.424  30.426   0.862
92361W        W57522  41.302  33.710  13.810
92362W        W57523  20.092  16.717   1.718
92363W        W57524   2.947  14.509  12.013
92364W        W57525  38.029  18.711   2.612
92365W        W57526   2.646  38.609  14.797
92366W        W57527  10.765  38.099   1.802
92367W        W57528   6.863  17.843  11.100
92368W        W57529   5.163  23.932   2.389
92369W        W57530  22.436  24.740  11.152
92370W        W57531  42.534  41.907  14.878
92371W        W57532  22.523   0.311   4.294
92372W        W57533   7.269   7.453  11.638
92373W        W57534   8.662  15.624  10.635
92374W        W57535  43.004   3.126   0.820
92375W        W57536   3.176  14.288   4.631
92376W        W57537   7.400  14.689   1.916
92377W        W57538   8.564  14.608  12.515
92378W        W57539   4.634  38.954  13.352
92379W        W57540  20.501   1.506   0.610
92380W        W57541  29.623  11.327   4.501
92381W        W57542  25.434   4.742  11.815
92382W        W57543   2.436  16.985  11.369
92383W        W57544  36.531  30.815  14.872
92384W        W57545  13.802  29.928   1.204
92385W        W57546   2.782  21.211  13.543
92386W        W57547  14.688  16.101  14.452
92387W        W57548  20.809  10.827  14.294
92388W        W57549   1.688   4.307  12.493
92389W        W57550  23.504   3.951  12.013
92390W        W57551   0.505  40.849  12.325
92391W        W57552  28.177  40.608  13.985
92392W        W57553  29.911  12.843   3.331
92393W        W57554   6.111  23.578  13.210
92394W        W57555  29.414  34.138  13.043
92395W        W57556  17.384  35.579  13.601
92396W        W57557  21.873  29.570  14.963
92397W        W57558  24.902  35.285  11.596
92398W        W57559  19.599   4.493   2.126
92399W        W57560  23.595  18.885   2.266
92400W        W57561   2.740   2.264  10.597
92401W        W57562  35.138  17.979  13.471
92402W        W57563  12.733   1.058   0.953
92403W        W57564  41.705  24.554   2.057
92404W        W57565  35.268  22.295  11.661
92405W        W57566  15.687  19.088   2.436
92406W        W57567  19.229  28.875   0.992
92407W        W57568  23.312  22.099  10.833
92408W        W57569  20.759  23.436   3.308
92409W        W57570  22.584   8.894  14.814
92410W        W57571  13.716  30.371  10.638
92411W        W57572  21.788  18.542  12.402
92412W        W57573  31.201   1.562  12.367
92413W        W57574   2.779  15.093   3.739
92414W        W57575  42.860  39.939  13.315
92415W        W57576  30.463  30.920  11.083
92416W        W57577  43.772   4.252  11.119
92417W        W57578  24.720  29.696  13.893
92418W        W57579  23.008  32.129   2.396
92419W        W57580  33.426  43.102  13.469
92420W        W57581  29.437  41.457   3.220
92421W        W57582  24.170  28.188   2.148
92422W        W57583  15.728  19.330   3.839
92423W        W57584  16.432   4.503  13.014
92424W        W57585  14.111  42.719   0.749
92425W        W57586   8.173   8.863   3.842
92426W        W57587   8.510   1.749  10.700
92427W        W57588  31.054  35.912   9.604
92428W        W57589  32.727  35.396  12.661
92429W        W57590  10.659  10.715  12.972
92430W        W57591  31.295  30.502  11.894
92431W        W57592  35.819  30.542  11.434
92432W        W57593  29.005   6.401  14.861
92433W        W57594  37.329  19.041   1.288
92434W        W57595  40.495  44.386   2.613
92435W        W57596  39.889  26.673  11.541
92436W        W57597  11.215  42.980   2.633
92437W        W57598  29.768   0.616   4.207
92438W        W57599  22.766  41.111  10.788
92439W        W57600  29.040  33.060   1.505
92440W        W57601  39.830  35.837   0.873
92441W        W57602  37.788  39.401   1.376
92442W        W57603  29.342  19.586  14.077
92443W        W57604  28.835  13.142  12.218
92444W        W57605   8.304  13.244  13.989
92445W        W57606   6.689  32.376   0.962
92446W        W57607   2.751  15.584   4.709
92447W        W57608   2.442  12.201   1.934
92448W        W57609  20.938  43.477  12.944
92449W        W57610   4.914   2.933   4.127
92450W        W57611  23.176   3.455  14.054
92451W        W57612   5.989   5.554  14.979
92452W        W57613  11.606   8.903  12.439
92453W        W57614  35.842  36.492  10.728
92454W        W57615   2.118  21.553  11.577
92455W        W57616  41.485  21.500   4.789
92456W        W57617  27.123  19.143   2.712
92457W        W57618  38.881  26.205   0.002
92458W        W57619   7.013  13.109  14.332
92459W        W57620   6.838  38.353  10.742
92460W        W57621  44.660  17.830   2.156
92461W        W57622   6.814  10.257  13.359
92462W        W57623   2.357  11.732   3.565
92463W        W57624   8.380  42.800   3.620
92464W        W57625  41.570  27.407   4.794
92465W        W57626  30.928  30.955   3.114
92466W        W57627   4.770  41.175   4.659
92467W        W57628   3.857  14.294   3.301
92468W        W57629  27.010  40.245   4.632
92469W        W57630  16.994  21.545  13.704
92470W        W57631  36.192  40.858  11.229
92471W        W57632  11.056  19.112   2.716
92472W        W57633  11.614  26.407   5.342
92473W        W57634  42.735  19.917   0.525
92474W        W57635  11.725  28.652   2.347
92475W        W57636  27.407   3.183  11.566
92476W        W57637   9.661   9.765   4.109
92477W        W57638  27.381  15.637  14.250
92478W        W57639   8.238  31.563  13.848
92479W        W57640   0.780   2.417  13.287
92480W        W57641  16.585  20.032   2.157
92481W        W57642  27.165  35.314   3.758
92482W        W57643  39.417  24.125   3.428
92483W        W57644  24.972  19.105   3.675
92484W        W57645  20.593  29.540   1.438
92485W        W57646  19.198  30.101   0.366
92486W        W57647   2.651  24.463  11.705
92487W        W57648  32.972  20.501   3.660
92488W        W57649  14.507  44.272  13.391
92489W        W57650   8.206   6.137   2.972
92490W        W57651  22.997   7.330   3.101
92491W        W57652  15.638  39.534  13.076
92492W        W57653  19.457  30.913  13.319
92493W        W57654  43.855  32.989  12.396
92494W        W57655  31.976  36.814  12.038
92495W        W57656   0.311  30.843  14.761
92496W        W57657  21.592  13.597   4.710
92497W        W57658  10.778  27.545  13.017
92498W        W57659  41.000  19.123  11.969
92499W        W57660  32.095  11.837   4.056
92500W        W57661  31.187  44.855   1.095
92501W        W57662  22.127  27.908   1.279
92502W        W57663   8.652   5.414   3.622
92503W        W57664  41.426  29.870  12.169
92504W        W57665  30.994  38.052  12.508
92505W        W57666  36.113  21.893   2.313
92506W        W57667   1.535   0.557   4.711
92507W        W57668  43.043   0.446  12.863
92508W        W57669  34.878  40.746   0.809
92509W        W57670  23.674  26.662  12.874
92510W        W57671  12.257   4.741  10.779
92511W        W57672  25.975  36.931  10.203
92512W        W57673  35.353   0.527   1.828
92513W        W57674  36.896   7.807  13.419
92514W        W57675  34.353   0.181  10.780
92515W        W57676  41.531   7.264  10.940
92516W        W57677  25.915  38.824   0.049
92517W        W57678  27.176   4.892  12.498
92518W        W57679   5.895  30.556   2.689
92519W        W57680  31.465  14.255   1.905
92520W        W57681  22.261  41.929  10.669
92521W        W57682  43.828  30.562   3.217
92522W        W57683   6.853  15.630  10.623
92523W        W57684  11.375  26.433  13.414
92524W        W57685  28.233   3.793  14.763
92525W        W57686  29.846  43.729  14.978
92526W        W57687   5.475  21.311   1.527
92527W        W57688  43.938  27.488   3.515
92528W        W57689  35.458   3.812   1.929
92529W        W57690   3.420  23.939   3.360
92530W        W57691  10.242  18.055   0.523
92531W        W57692  28.668   9.107  13.260
92532W        W57693  26.171  29.446  13.875
92533W        W57694   3.384   1.839  11.646
92534W        W57695  20.497   8.279  14.496
92535W        W57696  26.902   9.884   0.122
92536W        W57697  29.193  28.335  12.942
92537W        W57698  39.331  17.752   4.922
92538W        W57699  22.204  30.668  10.468
92539W        W57700  40.861  37.755  13.984
92540W        W57701  21.224  39.297  14.971
92541W        W57702   2.779  38.831  14.314
92542W        W57703   3.568   8.073   3.921
92543W        W57704  35.765   5.811   1.877
92544W        W57705  18.092  19.790   2.179
92545W        W57706  24.423  36.585   2.175
92546W        W57707  41.915  26.230   0.279
92547W        W57708  19.586  10.661   4.424
92548W        W57709  17.074  15.664   4.977
92549W        W57710  34.969  30.695  10.258
92550W        W57711  20.989  28.402  11.577
92551W        W57712  26.453  42.357   3.575
92552W        W57713  28.153  19.168   4.347
92553W        W57714  32.226  40.913   0.774
92554W        W57715   3.347  40.477  12.441
92555W        W57716   7.244   4.883  12.139
92556W        W57717  22.102   8.333  11.645
92557W        W57718  44.332  10.371   2.227
92558W        W57719  17.207   2.234   3.478
92559W        W57720  38.624   4.907  12.348
92560W        W57721  22.736  38.462  12.028
92561W        W57722  16.822  31.869  13.054
92562W        W57723   2.875   1.364  10.696
92563W        W57724  28.094  39.782   3.599
92564W        W57725   3.766  16.615   1.073
92565W        W57726  19.549  16.049  13.820
92566W        W57727  20.175  24.865  14.461
92567W        W57728   0.816  31.662  12.229
92568W        W57729  41.893  32.629   3.671
92569W        W57730  36.127  44.391  10.719
92570W        W57731  30.239  24.590   2.130
92571W        W57732  43.516  18.956  14.922
92572W        W57733   2.797  20.250  12.573
92573W        W57734  35.663  26.211   3.360
92574W        W57735  25.442  27.943   4.217
92575W        W57736  14.773  10.579  13.113
92576W        W57737  40.448  36.928  13.051
92577W        W57738  27.038  33.608  14.512
92578W        W57739  19.852  17.489  14.044
92579W        W57740  38.495  20.764   3.588
92580W        W57741  37.562  39.724   2.832
92581W        W57742  16.495  31.530   3.237
92582W        W57743  17.037  25.402  13.780
92583W        W57744  33.595  31.546   1.141
92584W        W57745  16.862   3.822  13.496
92585W        W57746  38.840  42.729  14.877
92586W        W57747  19.521  25.641   4.573
92587W        W57748  20.627  12.435   4.617
92588W        W57749  18.234  40.731   2.711
92589W        W57750   4.517   7.927   4.225
92590W        W57751   6.719  25.174   5.455
92591W        W57752  27.453  12.800   5.160
92592W        W57753  39.149  10.911  12.967
92593W        W57754   1.362  43.548  13.997
92594W        W57755  10.213  21.857  13.966
92595W        W57756   7.117  19.178  12.536
92596W        W57757  20.726   3.841  11.508
92597W        W57758  12.619  27.664  14.302
92598W        W57759  30.810  21.480   4.483
92599W        W57760  13.809  32.718  14.868
92600W        W57761  19.776  44.586   4.967
92601W        W57762  21.347   8.267   4.204
92602W        W57763  34.155  42.270   0.956
92603W        W57764  30.674   1.805   1.429
92604W        W57765  35.736  37.903  10.153
92605W        W57766   9.542  35.572   3.925
92606W        W57767   1.679  38.901  14.439
92607W        W57768  14.958  18.504   3.715
92608W        W57769  10.829  14.369   2.761
92609W        W57770  26.521   6.223  13.772
92610W        W57771   7.400  33.637   0.773
92611W        W57772  17.305   3.449  11.960
92612W        W57773  44.473  33.132  13.375
92613W        W57774   7.372   9.070  14.409
92614W        W57775   4.725  11.834  11.130
92615W        W57776  39.540  34.615  10.765
92616W        W57777  20.116  21.155   2.198
92617W        W57778  22.655   1.796   0.353
92618W        W57779  22.835   9.291  10.974
92619W        W57780  33.842  21.756  14.339
92620W        W57781  22.216  12.416   4.122
92621W        W57782  24.486  39.846  14.342
92622W        W57783  36.928  13.283   4.645
92623W        W57784  14.596   0.682   4.704
92624W        W57785   9.372  40.878   4.182
92625W        W57786  29.627  10.540  11.049
92626W        W57787   3.530  24.895   0.933
92627W        W57788   5.845  11.603   1.772
92628W        W57789  39.517  19.206   3.920
92629W        W57790  14.350   1.931   1.662
92630W        W57791   8.207  24.711  11.593
92631W        W57792  29.452  29.295  13.047
92632W        W57793   4.892  37.868  14.931
92633W        W57794  10.675   9.953   3.762
92634W        W57795   0.722  29.091   4.713
92635W        W57796  30.063  31.174   4.117
92636W        W57797   2.811   7.912  10.598
92637W        W57798  39.055  19.652  12.620
92638W        W57799  10.325  11.630   0.229
92639W        W57800  39.772  19.029  14.374
92640W        W57801  31.494  26.911   1.719
92641W        W57802  16.585  23.450  12.948
92642W        W57803  36.907   9.360   4.465
92643W        W57804  35.329  13.137  14.806
92644W        W57805  37.257  34.243  14.863
92645W        W57806   6.317  34.885  12.033
92646W        W57807  16.503  38.909  12.971
92647W        W57808  26.529  33.836   3.194
92648W        W57809  12.695  39.514   4.657
92649W        W57810  20.963   8.678   1.431
92650W        W57811  26.645  25.556  13.280
92651W        W57812   2.570   1.964   2.562
92652W        W57813   2.623  42.933  14.039
92653W        W57814   6.240  17.248   0.027
92654W        W57815  22.498  42.914   1.241
92655W        W57816  37.376  19.379  13.548
92656W        W57817  11.238  32.486  14.984
92657W        W57818  39.848   0.362  13.681
92658W        W57819  29.196  31.040   3.820
92659W        W57820  25.069   8.660   2.124
92660W        W57821  23.717   4.211   4.677
92661W        W57822  18.734  17.761   0.220
92662W        W57823  39.983  35.374  10.602
92663W        W57824  19.955  41.818  10.527
92664W        W57825  16.041  21.583   3.043
92665W        W57826  24.518  29.035   2.573
92666W        W57827  35.798  18.002  12.351
92667W        W57828  32.263   4.784  12.361
92668W        W57829  24.525  41.406  13.064
92669W        W57830   0.360  14.771   3.092
92670W        W57831  14.263  19.973   1.089
92671W        W57832  36.051  30.471   1.318
92672W        W57833   4.135  35.806  14.802
92673W        W57834  20.047  23.293  13.045
92674W        W57835  16.841  42.948  10.192
92675W        W57836  15.647  35.683  11.700
92676W        W57837  39.512  32.896   3.658
92677W        W57838  20.295  18.798  11.690
92678W        W57839   4.993  15.294   3.222
92679W        W57840  33.489   0.637   4.981
92680W        W57841  12.131  38.464   2.801
92681W        W57842   1.307  24.597  11.592
92682W        W57843   8.928  37.502  10.443
92683W        W57844  18.445  12.471   3.639
92684W        W57845  25.509   0.154   3.610
92685W        W57846   2.949  18.035  13.529
92686W        W57847  31.173   6.624  13.453
92687W        W57848  22.800  23.168   3.626
92688W        W57849  38.887  43.550   5.023
92689W        W57850  18.986   7.711  10.692
92690W        W57851  41.356  10.829  14.351
92691W        W57852  24.773  38.511  13.152
92692W        W57853  23.657  13.491  11.959
92693W        W57854  43.526  39.835   4.872
92694W        W57855  37.277  20.009  13.975
92695W        W57856  31.436  19.577  12.128
92696W        W57857  43.821  20.984  13.994
92697W        W57858  42.225  18.571   3.814
92698W        W57859  33.886  25.639   0.384
92699W        W57860  21.053   0.995   2.664
92700W        W57861  33.706  29.117   2.185
92701W        W57862  20.510  26.994  14.292
92702W        W57863  12.985  14.739  10.661
92703W        W57864  24.207  15.554  11.588
92704W        W57865  30.416  23.684   2.643
92705W        W57866  18.562  18.619  14.355
92706W        W57867  36.553   0.929   0.852
92707W        W57868  13.071  38.203  13.409
92708W        W57869  25.540  25.409   1.514
92709W        W57870  15.539  29.006  13.940
92710W        W57871  13.778  34.104   0.540
92711W        W57872   8.127   1.564   2.360
92712W        W57873  25.503  36.988   2.494
92713W        W57874  18.025   7.692   3.448
92714W        W57875  35.393  44.233  13.927
92715W        W57876   6.298  29.412   3.170
92716W        W57877  33.869  33.840  11.500
92717W        W57878  21.922  31.015   0.766
92718W        W57879  43.785  39.784  10.082
92719W        W57880  40.597   7.789  11.641
92720W        W57881  27.974  38.801   0.297
92721W        W57882  16.464  30.328   2.698
92722W        W57883  44.346  19.461  12.265
92723W        W57884  39.036  18.903  13.310
92724W        W57885  43.943  20.529   0.900
92725W        W57886  19.231  18.825  11.416
92726W        W57887  34.807  24.529   4.131
92727W        W57888  23.325  43.051  11.085
92728W        W57889   5.003  41.534  13.080
92729W        W57890  22.999  36.775   0.512
92730W        W57891  10.163  35.573   4.927
92731W        W57892  35.536  18.717  12.838
92732W        W57893  23.115  22.712   4.651
92733W        W57894   1.591  41.832  11.630
92734W        W57895   3.770   1.812   3.440
92735W        W57896  32.362  31.929  12.465
92736W        W57897  24.393   6.939  12.551
92737W        W57898  12.820  42.441  14.833
92738W        W57899  27.534  18.212  13.952
92739W        W57900  38.655  17.234   2.777
92740W        W57901   5.780  13.027  13.475
92741W        W57902  22.940  34.938  12.598
92742W        W57903  20.197  39.274   0.182
92743W        W57904   7.733  24.023   4.506
92744W        W57905  39.113   3.134  12.955
92745W        W57906  14.134   7.579   4.861
92746W        W57907   3.335  39.815  14.990
92747W        W57908  22.042   2.945   0.849
92748W        W57909   0.687  32.682  13.311
92749W        W57910   7.160  33.587   2.238
92750W        W57911   6.258  33.880   0.512
92751W        W57912  30.531  42.759  14.580
92752W        W57913   9.742  33.064   0.779
92753W        W57914  16.352  32.215   0.821
92754W        W57915   8.785  24.474  14.780
92755W        W57916  17.667  36.099   3.215
92756W        W57917   6.912  37.649  10.277
92757W        W57918  25.469  38.710  14.786
92758W        W57919   2.483  17.673  12.073
92759W        W57920  42.647  31.888  10.692
92760W        W57921  25.109  37.253   0.105
92761W        W57922  15.117  35.459   4.532
92762W        W57923  34.430  14.712   0.408
92763W        W57924  37.191  43.454  12.553
92764W        W57925  19.601  24.212  11.630
92765W        W57926  27.214  21.196  11.372
92766W        W57927  33.685  23.033   0.506
92767W        W57928  39.014  34.081   2.405
92768W        W57929  11.571  16.116  13.507
92769W        W57930  24.861   8.648   3.373
92770W        W57931  12.187  28.945   3.230
92771W        W57932  26.019  28.119   0.468
92772W        W57933  20.679  27.216  13.872
92773W        W57934  39.010  43.597  11.616
92774W        W57935  27.624  41.772   4.525
92775W        W57936  44.871  24.006   1.864
92776W        W57937   6.184  41.520   4.171
92777W        W57938  37.562  18.226   0.866
92778W        W57939  21.657  41.734   3.097
92779W        W57940   1.253   9.646  12.794
92780W        W57941  21.548  33.741  12.118
92781W        W57942  44.001   5.647  12.863
92782W        W57943  43.767   2.917  10.949
92783W        W57944   3.854   4.460   1.354
92784W        W57945  19.004  13.622   4.681
92785W        W57946  17.215  19.801  12.921
92786W        W57947  16.154  22.438   3.316
92787W        W57948   7.771  37.101  12.932
92788W        W57949  21.140  29.971  13.941
92789W        W57950  22.938  11.773  10.252
92790W        W57951  11.564  25.047  11.364
92791W        W57952  18.213  20.735   2.362
92792W        W57953  16.019  39.088   3.199
92793W        W57954  21.138  44.541   2.606
92794W        W57955  20.215   3.957   2.745
92795W        W57956  28.729  35.087  11.581
92796W        W57957  33.931  30.898   3.774
92797W        W57958  20.924  14.309   4.233
92798W        W57959  34.201  17.623  13.055
92799W        W57960  42.937   2.406  14.389
92800W        W57961   5.137  29.562   2.332
92801W        W57962  36.043  27.455  14.900
92802W        W57963  14.837  38.982  12.484
92803W        W57964  28.484  13.684  14.279
92804W        W57965   5.883  18.794  12.930
92805W        W57966   4.638  22.074  12.125
92806W        W57967  10.466  28.540  11.496
92807W        W57968  20.779  36.965   2.623
92808W        W57969   6.777  10.445   2.656
92809W        W57970  18.668   2.365  13.000
92810W        W57971  41.092  39.734   9.903
92811W        W57972   6.612  36.086  13.845
92812W        W57973  30.180  44.630   0.881
92813W        W57974   4.365   7.212   1.888
92814W        W57975   4.868  41.158  14.810
92815W        W57976  11.668  13.547   3.386
92816W        W57977   6.910  38.078  14.900
92817W        W57978  14.728  36.649   4.026
92818W        W57979  19.947  13.833   0.468
92819W        W57980   7.623  37.527   3.381
92820W        W57981  22.967   1.976   4.106
92821W        W57982   0.862  24.601   2.566
92822W        W57983  23.656  26.089  11.141
92823W        W57984   0.934  17.352  13.483
92824W        W57985  37.028  37.508   1.580
92825W        W57986  27.306   2.489  10.733
92826W        W57987  20.784  25.511   4.148
92827W        W57988  22.101  11.874  10.513
92828W        W57989  39.865  12.291  10.786
92829W        W57990  14.090  35.898  11.231
92830W        W57991  21.817  26.152  11.834
92831W        W57992  24.457   1.835   2.320
92832W        W57993  25.443  29.223  12.794
92833W        W57994  42.919  27.699   0.317
92834W        W57995  35.552  25.550  10.876
92835W        W57996  19.077  37.696  12.413
92836W        W57997  18.031  36.687  14.178
92837W        W57998  17.757  17.216   1.512
92838W        W57999  27.206  31.592  10.709
92839W        W58000  30.130  43.912  12.343
92840W        W58001   0.828  19.798   2.492
92841W        W58002  38.580  24.574   4.035
92842W        W58003  13.479  27.765   2.270
92843W        W58004  20.460  44.602   0.183
92844W        W58005  13.751   5.885  12.924
92845W        W58006  39.372   8.860  13.880
92846W        W58007  44.467  23.051   1.177
92847W        W58008  24.941  39.480   0.497
92848W        W58009   7.348  28.549   2.574
92849W        W58010   1.032  21.354  12.827
92850W        W58011  31.685   5.435  12.040
92851W        W58012  42.509  40.953   4.340
92852W        W58013  14.313  20.631  13.334
92853W        W58014  23.155  44.319  10.772
92854W        W58015  22.822  12.657   3.477
92855W        W58016   8.493  41.313   1.684
92856W        W58017   3.495  33.655   2.850
92857W        W58018  27.686  37.414  14.412
92858W        W58019   2.311  34.411   4.103
92859W        W58020  32.810  42.317   2.163
92860W        W58021  33.565   2.428   0.776
92861W        W58022  13.747  16.231   3.475
92862W        W58023  14.027   2.279   1.960
92863W        W58024  17.550  33.911   2.153
92864W        W58025   6.365  30.094   1.295
92865W        W58026  42.964   0.471  12.368
92866W        W58027  13.753   4.401   1.177
92867W        W58028  11.550  31.237   2.219
92868W        W58029   2.135  30.453   0.065
92869W        W58030   7.807   2.688  12.149
92870W        W58031  32.479  21.683  12.644
92871W        W58032  21.564  16.201   0.872
92872W        W58033  19.223  41.016   1.822
92873W        W58034  14.284   5.218  14.454
92874W        W58035  28.965  28.577   2.104
92875W        W58036  44.776  41.229  12.659
92876W        W58037  21.044  38.373   9.971
92877W        W58038  42.264   1.922   3.632
92878W        W58039   9.832  17.672   3.047
92879W        W58040  41.147   4.908   1.653
92880W        W58041  22.772  17.571   1.036
92881W        W58042  13.395  44.928  14.446
92882W        W58043  22.981  34.113   4.166
92883W        W58044   7.948  31.497   4.890
92884W        W58045  18.130  18.182  12.476
92885W        W58046   0.472  44.929   0.090
92886W        W58047   4.111  26.933   0.471
92887W        W58048  38.474  12.334   2.306
92888W        W58049  28.914  22.462  14.777
92889W        W58050  20.668  24.271   0.498
92890W        W58051   3.292  31.197   4.086
92891W        W58052  25.138  39.062   0.736
92892W        W58053  15.248  35.129  13.070
92893W        W58054  40.023  38.325   2.763
92894W        W58055  35.722   2.406  14.372
92895W        W58056   4.743  37.571   4.731
92896W        W58057   0.540  39.428  12.038
92897W        W58058  30.191  18.690  11.106
92898W        W58059  24.519  15.287   1.259
92899W        W58060   3.422   2.698  13.666
92900W        W58061  18.817  34.923  12.950
92901W        W58062   1.027   3.419   1.891
92902W        W58063  12.820  35.526  14.756
92903W        W58064   1.669  31.586   3.367
92904W        W58065  11.829  32.978   2.876
92905W        W58066  10.686  22.738   1.159
92906W        W58067  38.378   3.376  13.519
92907W        W58068  37.581  28.052   3.120
92908W        W58069   8.925  32.970   4.417
92909W        W58070  27.035  15.674   0.403
92910W        W58071  11.188  32.887   4.238
92911W        W58072   7.926  12.618  13.462
92912W        W58073  37.566  20.604   4.046
92913W        W58074  26.071   6.219  12.467
92914W        W58075   2.738   4.389  14.042
92915W        W58076  18.134  24.342  14.846
92916W        W58077  25.114  20.029   1.668
92917W        W58078  25.294  23.130   1.909
92918W        W58079   4.377  27.677  10.804
92919W        W58080  17.965  37.989  13.145
92920W        W58081  13.385  30.115   4.540
92921W        W58082  16.303  25.107   2.144
92922W        W58083  23.531  29.088  12.117
92923W        W58084  33.066   0.754   0.033
92924W        W58085  28.833  37.891  11.723
92925W        W58086   7.935  25.052   1.324
92926W        W58087  36.614  19.134  14.572
92927W        W58088  19.570  29.012   2.003
92928W        W58089  44.777   5.276  14.292
92929W        W58090  24.243   2.359   4.898
92930W        W58091  44.255  21.244   4.666
92931W        W58092  21.785  22.773   0.891
92932W        W58093  13.300  37.017  14.389
92933W        W58094   7.878  24.310  13.864
92934W        W58095  41.379  38.443   1.404
92935W        W58096  17.811  32.673  14.519
92936W        W58097  19.624  10.115  11.561
92937W        W58098  41.469  30.427   4.049
92938W        W58099  39.815  22.086  10.735
92939W        W58100  22.847  32.614   1.881
92940W        W58101  41.542   9.550  14.816
92941W        W58102   1.351  31.940  11.929
92942W        W58103  42.368  10.724  13.594
92943W        W58104  27.934  25.558  10.669
92944W        W58105  39.148  12.287  14.060
92945W        W58106   4.343  29.936   3.552
92946W        W58107  18.819  14.672  10.469
92947W        W58108  33.213  39.537  14.825
92948W        W58109   6.149  30.098  13.112
92949W        W58110  31.435  34.610  14.423
92950W        W58111  37.049   4.663   1.771
92951W        W58112  17.695  43.594  13.439
92952W        W58113  42.378  31.956   0.780
92953W        W58114   9.341   6.631  11.875
92954W        W58115  22.075  36.117  13.532
92955W        W58116  29.040  30.991  13.762
92956W        W58117  38.126  25.148   4.112
92957W        W58118  39.293  24.264  11.984
92958W        W58119   0.051  39.676   2.325
92959W        W58120   0.315  41.988  13.374
92960W        W58121  18.752   0.326  14.053
92961W        W58122  38.287  22.079  11.322
92962W        W58123   8.236  20.981  12.093
92963W        W58124   0.029   9.568   3.965
92964W        W58125  29.098  34.096   1.909
92965W        W58126   2.970   2.911  13.864
92966W        W58127  22.676  41.581  14.005
92967W        W58128  21.611  40.543  11.094
92968W        W58129  20.433  36.984   1.342
92969W        W58130  14.306  11.713   2.189
92970W        W58131   7.399  26.415  14.778
92971W        W58132  16.056  27.853   1.270
92972W        W58133  14.375  11.438  12.004
92973W        W58134  18.487  11.365  13.115
92974W        W58135  37.889  17.170  12.532
92975W        W58136  38.956  24.769   1.362
92976W        W58137  44.495  13.180   2.375
92977W        W58138  32.809  13.327  11.286
92978W        W58139   9.949  31.419  13.093
92979W        W58140  21.231   4.332   1.395
92980W        W58141   5.583  16.362   1.060
92981W        W58142  26.530  16.034  11.525
92982W        W58143  24.129  18.799  13.864
92983W        W58144   0.313  16.678  10.922
92984W        W58145   0.959   9.963   4.136
92985W        W58146  21.755  34.914   3.261
92986W        W58147  26.532  10.946  14.371
92987W        W58148   8.241  27.647   4.246
92988W        W58149  19.487  28.234  13.309
92989W        W58150   5.203  29.506  13.476
92990W        W58151  23.041   9.103   5.008
92991W        W58152  23.557  21.599   1.841
92992W        W58153  13.705   5.976   2.300
92993W        W58154   0.529  44.002  14.932
92994W        W58155  21.257  23.588   3.538
92995W        W58156  25.885   3.802   4.188
92996W        W58157  23.994  24.226   0.881
92997W        W58158  23.589  25.559  13.935
92998W        W58159  29.329  12.829   1.288
92999W        W58160  16.790  33.965  14.934
93000W        W58161  37.130  10.280   4.959
93001W        W58162  21.673  17.279   2.473
93002W        W58163  14.390  19.961  11.683
93003W        W58164  19.057  33.239   0.572
93004W        W58165  30.200  30.567  12.876
93005W        W58166   1.445  44.483   1.023
93006W        W58167  37.812  39.618  13.578
93007W        W58168  17.031   8.218   0.390
93008W        W58169  42.054  29.657  12.765
93009W        W58170   5.078  24.581   1.348
93010W        W58171   7.178  27.169  12.193
93011W        W58172  44.758  29.001  12.399
93012W        W58173  29.667  43.941   1.365
93013W        W58174  30.994  15.280  13.897
93014W        W58175  44.265  28.544   2.180
93015W        W58176  12.863  27.650   3.208
93016W        W58177  14.889  36.544  11.109
93017W        W58178  40.569  24.508  10.476
93018W        W58179   3.507   3.120  12.171
93019W        W58180  38.167   8.163   0.822
93020W        W58181   3.463  20.920  13.552
93021W        W58182  18.038  14.139   0.892
93022W        W58183  16.187  18.816  11.042
93023W        W58184  28.974  18.202  11.449
93024W        W58185  10.787   7.071  12.853
93025W        W58186  25.655  13.996   3.114
93026W        W58187  17.768  42.042   2.796
93027W        W58188  33.715   5.245  14.377
93028W        W58189  15.768  41.909  12.364
93029W        W58190  22.664  31.888   5.162
93030W        W58191  25.240  41.574   3.564
93031W        W58192   9.854  29.230  12.944
93032W        W58193  21.686  33.451   1.956
93033W        W58194   0.428  18.202   2.784
93034W        W58195  40.672  24.386  13.964
93035W        W58196  21.515  31.936  14.567
93036W        W58197  27.570  44.827   1.156
93037W        W58198  17.081  17.644  14.697
93038W        W58199  26.159  28.710  10.808
93039W        W58200  28.954  43.042   2.298
93040W        W58201  16.798  20.879   2.331
93041W        W58202  16.536  11.375  13.595
93042W        W58203  18.001   2.220   3.291
93043W        W58204   1.554  28.872  13.902
93044W        W58205   5.027  23.993   5.521
93045W        W58206   1.333  44.266  11.418
93046W        W58207  15.659  27.199  13.681
93047W        W58208  31.089  25.157  12.224
93048W        W58209  35.091   1.415   0.040
93049W        W58210  40.607   1.844   3.112
93050W        W58211  27.420  17.307  12.915
93051W        W58212  12.714  44.738  12.463
93052W        W58213   6.987  25.617  14.909
93053W        W58214   0.592  19.650  14.732
93054W        W58215  21.078   3.437   2.420
93055W        W58216  39.583  27.632   0.903
93056W        W58217  44.723   0.790   4.579
93057W        W58218  38.053   3.863  12.598
93058W        W58219  31.330  21.578  10.934
93059W        W58220  12.273  37.473   1.105
93060W        W58221  12.459  44.523  12.854
93061W        W58222  37.794  30.361  13.925
93062W        W58223  27.756  28.101  12.431
93063W        W58224  27.228  34.970   2.812
93064W        W58225  29.465  35.450   1.528
93065W        W58226  40.441  37.112  11.554
93066W        W58227  41.109  19.557   0.323
93067W        W58228  30.502  21.979  10.599
93068W        W58229   2.597   3.164   5.069
93069W        W58230  27.578   2.132  13.966
93070W        W58231   7.783  23.852   5.006
93071W        W58232  30.092  22.446  12.985
93072W        W58233   4.136  15.077  14.337
93073W        W58234  31.459  43.850   2.290
93074W        W58235  39.100   8.850  13.403
93075W        W58236  20.294   1.608   5.064
93076W        W58237  31.612  35.391  10.763
93077W        W58238  25.658  26.364   2.259
93078W        W58239  12.268  18.059   1.363
93079W        W58240   8.637  14.885  12.102
93080W        W58241  41.928  32.465  11.923
93081W        W58242  28.704   9.567  10.949
93082W        W58243   9.826  31.937   1.698
93083W        W58244  17.117  36.342  10.844
93084W        W58245  10.239  31.195  11.556
93085W        W58246  26.800  23.632   4.930
93086W        W58247  24.659  41.997  13.017
93087W        W58248  15.314  10.784  10.716
93088W        W58249  23.639   3.930   4.181
93089W        W58250  39.466  17.146   1.173
93090W        W58251  25.338  13.198  10.802
93091W        W58252  29.394  30.290   2.817
93092W        W58253  37.996  32.861   2.664
93093W        W58254   6.245   1.918  10.697
93094W        W58255   1.930   0.314  10.758
93095W        W58256   3.459  19.245  14.655
93096W        W58257  35.922  25.036  14.364
93097W        W58258   7.625  19.461  13.084
93098W        W58259  21.935  35.020  12.964
93099W        W58260  10.843  35.505   2.120
93100W        W58261   8.374   4.184   4.217
93101W        W58262   5.502  32.573  12.509
93102W        W58263  34.927  36.032   1.508
93103W        W58264  28.150   3.697  12.942
93104W        W58265   5.690  15.504   0.322
93105W        W58266   3.967  19.593   1.273
93106W        W58267  20.577  23.683   2.840
93107W        W58268  40.064  43.137   2.828
93108W        W58269  18.381  11.740  11.673
93109W        W58270   4.376  22.209  10.456
93110W        W58271  23.123  13.397   2.830
93111W        W58272   6.689   6.862   0.289
93112W        W58273  20.269  36.931   4.565
93113W        W58274  13.176  31.908  12.077
93114W        W58275  13.188  28.738  14.055
93115W        W58276  39.501   1.273  11.174
93116W        W58277   8.736   6.940  14.263
93117W        W58278   1.501   4.435   3.906
93118W        W58279  43.024  15.460  10.365
93119W        W58280  26.449  44.039  12.712
93120W        W58281  17.579   3.775   4.531
93121W        W58282  34.639   0.991  12.012
93122W        W58283  19.334   7.924  12.034
93123W        W58284  10.177  23.681   3.162
93124W        W58285   7.037   3.411  10.609
93125W        W58286  28.693  13.354   2.704
93126W        W58287  25.009  29.108  14.853
93127W        W58288  20.581  26.902   2.320
93128W        W58289   7.765   4.788   1.212
93129W        W58290  10.615  37.799  11.523
93130W        W58291  40.097  21.306  11.562
93131W        W58292  11.290  43.844   3.209
93132W        W58293  43.390   0.833   1.989
93133W        W58294  41.710   3.295  14.379
93134W        W58295  32.537   7.162   4.048
93135W        W58296  42.370  43.945  14.694
93136W        W58297   6.690   6.746  10.973
93137W        W58298  36.347  34.544   1.717
93138W        W58299  19.026  44.121   0.978
93139W        W58300   7.856   3.398   1.392
93140W        W58301  27.440   4.846  12.923
93141W        W58302  26.547   5.907   4.446
93142W        W58303   5.151  24.128   0.007
93143W        W58304  34.682  26.438  14.336
93144W        W58305  24.565  39.020  11.747
93145W        W58306  38.141  18.138   4.217
93146W        W58307  33.165   8.894  11.295
93147W        W58308  15.258  12.461   1.530
93148W        W58309  30.677  10.324  14.736
93149W        W58310   1.348   5.021  13.023
93150W        W58311   5.221   3.843  13.061
93151W        W58312   6.853   7.547   3.774
93152W        W58313  38.061   1.337  13.722
93153W        W58314  43.309  23.174   2.987
93154W        W58315  29.855  24.711  14.825
93155W        W58316  30.578  14.326   4.632
93156W        W58317  23.984  41.740   1.856
93157W        W58318  28.141  20.580   3.632
93158W        W58319  24.208   8.435  13.959
93159W        W58320  32.625  40.570  12.404
93160W        W58321  13.457  28.530   0.036
93161W        W58322   3.795  13.292   3.248
93162W        W58323  14.235  37.888  14.856
93163W        W58324  41.070  15.460  14.750
93164W        W58325   1.534   6.955  12.386
93165W        W58326  25.225   8.208   0.378
93166W        W58327   8.465  35.043  13.577
93167W        W58328  37.965   1.699   3.299
93168W        W58329   0.821   8.093  11.037
93169W        W58330  18.256  20.454  12.059
93170W        W58331  14.631   1.528  11.124
93171W        W58332   3.711  23.680   0.678
93172W        W58333  24.582  23.894  12.456
93173W        W58334   0.760  25.226  13.274
93174W        W58335   7.100  39.470  11.421
93175W        W58336   6.307  15.593   0.920
93176W        W58337  12.316   3.419  11.504
93177W        W58338  14.054  13.752   0.915
93178W        W58339  15.030   1.859   4.730
93179W        W58340  23.873  36.807   0.428
93180W        W58341  41.658  36.991  13.493
93181W        W58342  44.662  38.496  11.061
93182W        W58343  24.689  12.032   1.473
93183W        W58344   6.739  36.748   2.849
93184W        W58345  34.192  17.166   3.114
93185W        W58346  21.927  26.119   2.613
93186W        W58347   0.877  22.443  13.790
93187W        W58348  12.542  10.671  12.943
93188W        W58349   0.447   2.397  14.860
93189W        W58350  25.844   7.321  14.479
93190W        W58351   2.635  44.715   1.308
93191W        W58352  11.710  29.582  11.191
93192W        W58353  31.844  26.552  14.332
93193W        W58354  38.344  14.581  14.984
93194W        W58355  30.935  23.746   1.726
93195W        W58356  18.886  26.789   2.633
93196W        W58357  30.459  43.877   2.906
93197W        W58358  32.695  18.012   2.611
93198W        W58359  32.922  29.486   1.452
93199W        W58360  26.087   6.847  11.767
93200W        W58361  17.242  43.304  13.482
93201W        W58362  40.044  31.756  14.758
93202W        W58363  37.233  21.152   2.591
93203W        W58364   6.409   6.860   1.124
93204W        W58365   0.215  14.826   0.774
93205W        W58366   4.382  16.106  11.611
93206W        W58367  34.311  16.768   3.861
93207W        W58368  32.359  27.422  11.354
93208W        W58369   1.050  32.540  13.856
93209W        W58370  40.389  12.127   0.970
93210W        W58371  11.093  18.056  13.375
93211W        W58372  35.827  26.489  14.988
93212W        W58373  23.683  13.910   2.859
93213W        W58374  37.839  37.318  10.352
93214W        W58375  22.658  28.189  12.578
93215W        W58376   4.869   7.882   2.906
93216W        W58377  19.030  15.223  11.036
93217W        W58378   2.544  17.345  10.548
93218W        W58379  20.013   4.331  12.170
93219W        W58380   1.004  19.361  13.422
93220W        W58381  12.876   1.216   3.143
93221W        W58382  14.924   6.501  11.577
93222W        W58383  15.104  12.159   3.832
93223W        W58384  25.187  10.966  12.026
93224W        W58385  39.900  33.560   2.407
93225W        W58386  11.945  42.230  10.592
93226W        W58387  15.009  43.012   0.233
93227W        W58388  23.478  31.385   4.103
93228W        W58389  41.861  32.376   1.605
93229W        W58390  15.613  18.457  12.098
93230W        W58391  24.533  42.073   0.969
93231W        W58392  31.863  27.432  14.245
93232W        W58393  29.137  42.845   3.136
93233W        W58394  22.738  13.227  12.086
93234W        W58395  41.633  17.119   3.700
93235W        W58396  40.433  21.014   0.268
93236W        W58397  42.970  39.198  14.557
93237W        W58398  39.067  26.201  12.028
93238W        W58399   4.005  34.012   1.647
93239W        W58400   0.741   8.249   2.736
93240W        W58401  31.408  29.616   1.272
93241W        W58402  40.830  41.112  11.484
93242W        W58403  33.066  31.846  14.778
93243W        W58404  20.293  26.197  13.919
93244W        W58405   1.903  31.919   4.638
93245W        W58406  18.819  32.643  14.628
93246W        W58407  36.149  28.733  13.961
93247W        W58408  40.860  32.753   3.110
93248W        W58409  31.415  23.636  14.949
93249W        W58410  30.927   7.940   1.126
93250W        W58411  16.567  22.918   2.536
93251W        W58412   0.987   8.660  11.607
93252W        W58413   6.593   8.351  12.362
93253W        W58414   2.468   6.152  12.178
93254W        W58415  16.983  42.048   1.815
93255W        W58416  10.351   7.762   1.233
93256W        W58417  41.446  41.552  11.035
93257W        W58418   2.976  29.958  11.225
93258W        W58419  10.868  17.710   3.854
93259W        W58420  14.114   4.560   0.841
93260W        W58421  25.624  36.252   3.055
93261W        W58422  19.582  29.040  13.095
93262W        W58423  10.413  39.900  14.183
93263W        W58424  29.420  12.135   0.898
93264W        W58425  22.575  34.246   0.800
93265W        W58426  14.591   2.857  11.463
93266W        W58427  20.995   4.090   5.118
93267W        W58428  42.344  43.432  14.774
93268W        W58429  20.884  17.481   4.693
93269W        W58430  31.952  44.823   2.153
93270W        W58431  31.306  26.924   4.453
93271W        W58432  27.693   7.470   0.822
93272W        W58433  26.643  41.449   1.223
93273W        W58434  12.326   9.827  13.614
93274W        W58435  11.823   4.483  12.846
93275W        W58436   0.358  14.056   0.461
93276W        W58437   6.804   3.015   4.064
93277W        W58438  15.517  37.954  13.021
93278W        W58439  28.448  24.924  12.105
93279W        W58440  42.444  30.583   3.662
93280W        W58441  43.930   1.576  14.028
93281W        W58442  26.471  13.803   0.956
93282W        W58443  29.646  24.131   1.823
93283W        W58444  16.761  11.227  14.043
93284W        W58445   8.796  40.006   1.806
93285W        W58446  25.515  19.137  11.389
93286W        W58447   2.800  26.945  13.322
93287W        W58448   8.811  16.152  12.868
93288W        W58449  41.474  27.285  14.420
93289W        W58450  38.487  44.894  11.505
93290W        W58451   0.174   6.116   2.661
93291W        W58452  11.706   5.945  12.325
93292W        W58453  27.184  23.723   0.195
93293W        W58454  27.641   8.361   4.556
93294W        W58455  25.197  33.562  12.484
93295W        W58456   3.979  23.322   0.967
93296W        W58457  25.593   0.936   3.369
93297W        W58458   0.009  29.748  14.566
93298W        W58459   8.834  37.810   0.910
93299W        W58460  41.716  29.076   4.084
93300W        W58461   3.921  20.167   3.220
93301W        W58462  42.243  41.944   0.743
93302W        W58463  35.582  22.179   1.128
93303W        W58464  18.560  44.335  11.469
93304W        W58465  43.455  14.765   2.683
93305W        W58466  29.640  23.740   1.259
93306W        W58467   6.356  31.143   4.695
93307W        W58468   1.951   8.379  10.916
93308W        W58469   8.366   5.465   0.862
93309W        W58470  12.539  39.488  10.682
93310W        W58471  11.598  27.580  12.219
93311W        W58472  29.562  33.544   5.012
93312W        W58473  44.230   0.578  11.037
93313W        W58474  27.488  21.660   3.278
93314W        W58475  26.163   1.735   1.172
93315W        W58476  26.976  39.393   3.188
93316W        W58477   7.805  13.236   1.409
93317W        W58478  22.021  43.805   1.490
93318W        W58479  15.035  13.403  14.497
93319W        W58480  11.255  24.429  13.419
93320W        W58481  41.354  43.023   4.051
93321W        W58482  43.827   5.443   4.700
93322W        W58483   5.347  12.782  12.799
93323W        W58484  35.613  11.109  13.866
93324W        W58485  33.446  16.605  14.893
93325W        W58486  29.213  10.129   9.822
93326W        W58487   0.517  10.286   0.300
93327W        W58488  32.059   9.406   3.707
93328W        W58489   7.686   6.236   3.309
93329W        W58490   7.547  10.750  11.458
93330W        W58491  34.816  35.919  13.292
93331W        W58492   4.947  25.227   4.349
93332W        W58493  12.852  19.431  11.957
93333W        W58494  29.448  37.316   4.255
93334W        W58495  32.237  18.517  12.373
93335W        W58496   8.230   9.114   3.196
93336W        W58497  35.781  33.845   2.184
93337W        W58498   7.233  24.506   1.428
93338W        W58499  18.308  11.335   2.348
93339W        W58500  15.313  20.603   3.271
93340W        W58501  23.366  23.537  12.678
93341W        W58502   0.886  16.665   4.767
93342W        W58503  34.526  34.631   1.865
93343W        W58504   7.920  14.573   4.551
93344W        W58505   7.186  21.830  12.242
93345W        W58506  27.927  12.283   3.564
93346W        W58507  25.638   5.204  14.442
93347W        W58508  27.605  18.131  11.721
93348W        W58509  27.528  44.852  14.187
93349W        W58510  34.502  15.481  11.255
93350W        W58511  13.083  38.565  12.566
93351W        W58512  27.435  17.581   3.909
93352W        W58513  44.755  30.920   4.369
93353W        W58514  25.551  17.949  14.682
93354W        W58515  24.613  28.203  11.025
93355W        W58516   0.341  19.481  12.055
93356W        W58517  44.294  13.567  12.927
93357W        W58518  26.679  10.744   0.637
93358W        W58519  12.596  17.623   1.486
93359W        W58520  15.374  23.003  14.552
93360W        W58521  43.990  18.710  14.862
93361W        W58522   0.078  13.224   1.341
93362W        W58523  20.689  44.310  13.833
93363W        W58524  36.959  25.831  14.896
93364W        W58525  14.592  44.257   3.144
93365W        W58526   8.364  38.489   2.570
93366W        W58527   3.876  32.019   4.226
93367W        W58528  31.151   2.800   0.794
93368W        W58529  42.432   3.971  10.583
93369W        W58530  44.702  17.547  11.493
93370W        W58531   2.972   7.478   4.119
93371W        W58532   0.371   3.253  12.464
93372W        W58533  30.069  10.924  13.563
93373W        W58534  26.634  26.526  14.770
93374W        W58535  16.344  17.273  13.337
93375W        W58536  42.415  22.673   0.034
93376W        W58537  41.005   5.293   3.867
93377W        W58538  28.422  20.719   3.169
93378W        W58539  35.994  33.059   0.397
93379W        W58540  35.518  14.120   4.970
93380W        W58541  36.553  20.700  13.353
93381W        W58542   1.294  35.896   3.046
93382W        W58543  41.135   5.433   1.789
93383W        W58544  22.595  28.206   2.016
93384W        W58545  20.114  29.568  13.601
93385W        W58546  19.556   6.113  12.518
93386W        W58547  28.505   0.420   4.612
93387W        W58548  39.703  39.291  13.362
93388W        W58549  13.770  22.854   0.569
93389W        W58550  29.166  32.893   2.374
93390W        W58551   1.985  27.077   3.945
93391W        W58552  18.789  22.720  14.579
93392W        W58553   3.867   9.116  14.490
93393W        W58554  18.793   9.405  10.753
93394W        W58555  16.153  37.676   4.557
93395W        W58556  14.141  40.491  12.047
93396W        W58557  20.244  43.432  13.862
93397W        W58558  16.774  21.105   1.039
93398W        W58559  34.780  31.561   4.318
93399W        W58560   7.312  17.304  10.679
93400W        W58561  15.504   3.318  12.606
93401W        W58562   4.377  12.743   0.580
93402W        W58563  43.249  42.940   4.356
93403W        W58564   5.867  31.995  14.177
93404W        W58565  16.128  40.450  13.037
93405W        W58566   4.524  26.644  13.148
93406W        W58567  41.799   9.248  11.378
93407W        W58568  23.242  25.990   4.198
93408W        W58569   8.823  17.057  14.513
93409W        W58570  41.728  30.861  13.032
93410W        W58571  34.155   6.402   3.929
93411W        W58572  37.486  37.590   3.336
93412W        W58573  30.122   6.282  11.619
93413W        W58574   3.373  34.712  13.072
93414W        W58575  44.895   1.169  14.861
93415W        W58576  14.543  24.046   4.493
93416W        W58577   3.896  10.695  14.030
93417W        W58578  12.201  28.512   0.389
93418W        W58579  20.698  35.852   1.795
93419W        W58580  15.145  39.359  14.771
93420W        W58581  18.321  27.240  11.056
93421W        W58582   1.221   0.469   1.335
93422W        W58583  17.801   6.306  12.585
93423W        W58584  33.634  42.199   0.795
93424W        W58585   5.870  38.764   2.419
93425W        W58586  44.519  40.560   1.408
93426W        W58587  19.536  18.620   3.010
93427W        W58588  36.019  29.558   1.266
93428W        W58589  10.169  40.045   2.616
93429W        W58590   6.323  13.038   0.856
93430W        W58591   9.847  36.817   2.749
93431W        W58592  39.895  12.055   3.145
93432W        W58593  11.781  23.649  14.568
93433W        W58594  39.299  35.302   0.433
93434W        W58595  22.072  19.381  13.429
93435W        W58596  38.674  11.589   5.078
93436W        W58597  38.368  15.840  11.495
93437W        W58598  42.989  30.472  13.382
93438W        W58599  25.493   4.470   2.287
93439W        W58600  24.586  36.318   0.840
93440W        W58601  10.905  18.580   3.836
93441W        W58602  13.280  33.462  12.832
93442W        W58603  37.512  36.844   3.721
93443W        W58604   7.660  32.640  13.455
93444W        W58605  27.679  23.727  12.405
93445W        W58606   4.143  13.725   0.737
93446W        W58607  40.359   9.880   3.555
93447W        W58608  17.170  25.990   4.553
93448W        W58609   7.438   3.861   4.489
93449W        W58610  35.907  42.803   0.682
93450W        W58611  30.967  27.180  13.388
93451W        W58612  35.386  36.678   3.027
93452W        W58613  13.053  32.947   3.735
93453W        W58614  38.870  42.639   5.109
93454W        W58615  19.841   9.326   3.135
93455W        W58616  23.058  15.953  11.159
93456W        W58617  10.771  23.173   4.254
93457W        W58618  39.426  11.409   2.107
93458W        W58619  33.046   0.540   2.620
93459W        W58620  18.736  39.716   3.259
93460W        W58621  24.488  39.948  14.902
93461W        W58622   1.403  22.937   0.497
93462W        W58623  31.966  34.153  10.610
93463W        W58624  23.513   6.468  14.243
93464W        W58625  33.461  22.729  14.881
93465W        W58626  42.352   9.293   1.398
93466W        W58627   3.978  34.882   1.355
93467W        W58628  29.063  37.789  13.516
93468W        W58629  18.730  26.102  13.810
93469W        W58630  43.318   4.175   1.324
93470W        W58631  43.530  44.315   4.312
93471W        W58632   1.709  29.076  14.502
93472W        W58633  32.565   7.260   4.567
93473W        W58634   4.374  11.666  11.945
93474W        W58635  19.516  12.323   3.536
93475W        W58636  35.953  31.928   1.490
93476W        W58637  38.270  34.278   1.663
93477W        W58638  42.795  44.974  12.309
93478W        W58639   6.003   9.419  11.102
93479W        W58640  27.808   9.760   3.333
93480W        W58641  14.860  36.848  12.679
93481W        W58642  15.691  23.923   5.053
93482W        W58643  17.291  27.909  14.046
93483W        W58644   8.479  26.441   2.844
93484W        W58645  19.395   5.654   4.080
93485W        W58646  36.050  37.212  12.499
93486W        W58647  36.991   7.731  10.719
93487W        W58648  39.399  33.436   0.474
93488W        W58649  41.501  25.506  13.863
93489W        W58650  18.532   0.964   3.707
93490W        W58651  26.020  19.263  11.291
93491W        W58652  17.438  21.644  12.818
93492W        W58653  43.691   3.763  11.001
93493W        W58654  17.638  34.427   3.506
93494W        W58655  18.221   3.762   1.929
93495W        W58656  18.462  33.626   4.442
93496W        W58657   6.521  41.059  14.817
93497W        W58658   4.279  31.369  13.061
93498W        W58659  28.187   8.828  14.347
93499W        W58660  40.544  17.634  14.007
93500W        W58661  14.762  17.136   3.677
93501W        W58662   1.109  25.972  11.460
93502W        W58663  37.554  43.321  12.010
93503W        W58664  40.588  42.312  13.074
93504W        W58665  19.860  15.556   3.648
93505W        W58666   0.860  20.610  12.522
93506W        W58667  27.100  30.664   2.183
93507W        W58668  26.538  34.370   0.065
93508W        W58669   2.502  20.328   3.225
93509W        W58670  38.028   9.814   3.534
93510W        W58671  35.990  13.706  12.606
93511W        W58672  22.555   0.581  13.906
93512W        W58673  40.782  16.250  12.882
93513W        W58674  11.950  10.734  11.088
93514W        W58675  37.997  35.962  14.037
93515W        W58676  31.469  26.084  11.524
93516W        W58677  15.707  40.317   1.708
93517W        W58678  36.968  17.203   2.069
93518W        W58679  31.029  15.391  12.457
93519W        W58680  39.031   0.267   2.717
93520W        W58681  15.722   2.340  11.065
93521W        W58682   3.569  27.140  12.392
93522W        W58683   7.821  32.115  13.545
93523W        W58684  31.992  29.889  10.931
93524W        W58685   1.711  31.202  12.893
93525W        W58686  28.217  14.357  14.482
93526W        W58687  27.638  25.526  11.091
93527W        W58688  29.565   7.170  10.868
93528W        W58689   9.848  25.087  12.493
93529W        W58690  26.460  28.080   1.345
93530W        W58691  36.797  34.872  11.654
93531W        W58692  31.708  16.714  11.517
93532W        W58693  31.853   7.169  11.435
93533W        W58694  18.316  44.380   2.135
93534W        W58695  23.494  33.173  12.476
93535W        W58696  27.476   1.395   0.755
93536W        W58697  22.217  44.610   2.839
93537W        W58698  34.091   7.660   0.250
93538W        W58699   0.818  31.349  13.200
93539W        W58700  36.361  13.045   2.491
93540W        W58701  21.164   1.928   3.429
93541W        W58702  39.276   4.786   0.838
93542W        W58703   3.183  10.396   3.275
93543W        W58704   7.049   4.768  11.669
93544W        W58705  37.991  11.094  10.734
93545W        W58706   4.737  25.997  12.117
93546W        W58707   9.800  15.281   3.016
93547W        W58708  11.775  30.378   0.478
93548W        W58709  16.199  38.722   2.784
93549W        W58710  37.300  42.052   4.562
93550W        W58711  10.603  28.693  10.756
93551W        W58712  19.012   5.699   0.435
93552W        W58713  30.409   2.362   2.230
93553W        W58714  33.511  42.313   2.729
93554W        W58715  30.104  20.056   0.984
93555W        W58716  28.659   5.876   4.875
93556W        W58717  34.715   1.081  12.861
93557W        W58718  19.764   4.782  12.404
93558W        W58719  43.026  39.762   3.769
93559W        W58720  19.533  32.888   2.317
93560W        W58721  36.465  34.110   1.427
93561W        W58722  11.784  26.004  11.991
93562W        W58723   2.114  43.273  13.336
93563W        W58724  19.317  20.598  11.570
93564W        W58725  40.521  38.803  11.196
93565W        W58726  21.067  40.829   1.189
93566W        W58727  10.550  44.496  12.234
93567W        W58728  36.423  42.869  12.565
93568W        W58729   2.188   9.169  11.440
93569W        W58730  33.609  40.852   1.236
93570W        W58731   1.983  13.530  13.598
93571W        W58732  41.485  31.341  13.743
93572W        W58733  10.675  23.719  10.971
93573W        W58734  12.319  41.232  14.920
93574W        W58735  36.835  17.159  14.434
93575W        W58736  31.130  16.824   4.698
93576W        W58737  24.722  23.686  13.088
93577W        W58738  27.685   2.743  11.625
93578W        W58739  44.968   2.810  14.384
93579W        W58740   5.885  44.394   5.352
93580W        W58741  11.134  10.548  11.586
93581W        W58742  24.597  18.822   0.953
93582W        W58743   4.277  23.039   0.652
93583W        W58744   0.514  31.633   1.396
93584W        W58745   5.009   7.363  12.549
93585W        W58746  29.909  42.780   2.679
93586W        W58747  26.583  43.418   1.433
93587W        W58748   6.267  14.555   2.361
93588W        W58749  13.087   7.288   2.688
93589W        W58750   5.802  39.357   0.947
93590W        W58751  13.135   1.435  14.942
93591W        W58752  36.408  22.927  10.399
93592W        W58753  24.454  17.624   0.279
93593W        W58754  32.852  15.980   4.116
93594W        W58755   0.557  17.084  10.700
93595W        W58756   8.777  36.146  11.072
93596W        W58757   0.261  19.098  10.859
93597W        W58758  18.854  41.167  12.990
93598W        W58759  22.162   6.117  12.145
93599W        W58760  11.569  32.368  14.564
93600W        W58761  22.239   1.931  10.368
93601W        W58762   4.843  36.580  12.869
93602W        W58763  38.542   7.144   3.030
93603W        W58764   0.780   1.458  12.184
93604W        W58765  16.885  39.529   4.071
93605W        W58766   8.826  13.747  14.490
93606W        W58767  34.659  21.509   4.545
93607W        W58768  32.649  16.981  11.579
93608W        W58769  19.640   8.841   3.161
93609W        W58770   8.387  15.061   3.409
93610W        W58771   1.385   4.861   2.687
93611W        W58772  21.586   7.272   1.171
93612W        W58773   2.253  25.744  13.097
93613W        W58774  44.979   4.166  10.692
93614W        W58775   7.906  37.770   0.738
93615W        W58776   4.525  41.785  11.523
93616W        W58777   3.887  42.913  14.758
93617W        W58778  41.586   2.391   0.808
93618W        W58779  17.532  37.671  13.384
93619W        W58780   2.301  11.625  13.519
93620W        W58781  38.144  23.003   1.328
93621W        W58782  31.955  30.028   4.609
93622W        W58783  32.562   2.934  11.362
93623W        W58784  22.722  36.600  13.025
93624W        W58785  20.431  25.169  11.159
93625W        W58786  28.240  10.351  14.378
93626W        W58787  31.701  37.324  11.653
93627W        W58788  33.127  17.298   2.290
93628W        W58789  23.717  13.527  13.451
93629W        W58790  18.241  13.328  13.527
93630W        W58791  22.572   1.828  11.684
93631W        W58792   2.883  13.220  14.074
93632W        W58793  25.594  21.192  11.630
93633W        W58794  32.378  39.432   1.339
93634W        W58795  40.421  26.196  13.020
93635W        W58796  32.711   4.835   4.777
93636W        W58797  38.425  33.170   4.545
93637W        W58798  19.600  20.250  14.943
93638W        W58799  25.186  39.009  10.951
93639W        W58800  44.176  22.060  10.997
93640W        W58801  17.654  41.237   4.247
93641W        W58802  15.593   6.980  10.805
93642W        W58803   2.433  21.967  12.723
93643W        W58804   7.769  30.633   1.522
93644W        W58805  14.179  22.383   0.751
93645W        W58806   2.467  30.648  12.023
93646W        W58807  15.250   1.548   2.782
93647W        W58808   6.240  13.793  10.689
93648W        W58809  13.786  42.276   1.837
93649W        W58810  15.738  31.215  13.885
93650W        W58811  44.551  19.704   3.266
93651W        W58812  35.857  20.461   3.716
93652W        W58813  40.431  12.850  11.234
93653W        W58814   1.664  12.567   1.384
93654W        W58815  23.544  13.384  11.243
93655W        W58816   4.603  32.363   1.803
93656W        W58817  16.645  38.497   9.529
93657W        W58818  43.892  39.910  11.642
93658W        W58819  36.318   8.813  11.428
93659W        W58820   4.798  43.220   3.778
93660W        W58821  17.325  18.823  13.858
93661W        W58822  41.155  37.396   4.548
93662W        W58823   0.754   8.461   1.746
93663W        W58824  23.678  25.243   1.952
93664W        W58825   4.424   2.490  12.057
93665W        W58826  15.684  19.158   9.829
93666W        W58827  41.406  13.129   0.709
93667W        W58828   4.430  28.077   4.589
93668W        W58829  40.777  32.445   3.522
93669W        W58830   6.185  37.002  13.490
93670W        W58831  37.802   1.345   3.624
93671W        W58832  39.076   9.769   1.002
93672W        W58833  34.311  15.169   0.990
93673W        W58834   9.913  12.635   0.343
93674W        W58835  25.568  33.189  13.955
93675W        W58836  13.688  12.186  13.002
93676W        W58837   0.862  17.265   4.818
93677W        W58838  43.332  38.345   2.394
93678W        W58839  23.616  17.651  12.170
93679W        W58840   1.654  29.398   1.683
93680W        W58841  17.138   2.668  13.973
93681W        W58842  32.365   2.479   1.338
93682W        W58843  16.620  20.837  12.568
93683W        W58844  18.181  24.564  11.271
93684W        W58845   6.184   3.858  11.069
93685W        W58846  42.983  21.039   2.251
93686W        W58847  23.614  33.498   2.264
93687W        W58848  30.670  42.348  12.814
93688W        W58849  21.569  25.140   4.379
93689W        W58850   4.423  22.627   2.340
93690W        W58851  11.128  12.864   2.149
93691W        W58852  17.522  26.519  12.003
93692W        W58853  35.798  41.903   2.140
93693W        W58854  37.828  15.232   4.571
93694W        W58855   3.339  25.471  14.377
93695W        W58856  26.442  37.102  13.384
93696W        W58857  27.205  43.334   3.872
93697W        W58858  25.149  24.698   0.913
93698W        W58859  11.486  14.734   0.902
93699W        W58860  11.562  43.877  11.158
93700W        W58861  32.026  10.363   2.000
93701W        W58862  25.492  18.079   3.662
93702W        W58863   3.025  36.709  14.849
93703W        W58864  27.467   5.247   1.735
93704W        W58865  35.496  19.146  12.043
93705W        W58866   6.891  43.702   2.225
93706W        W58867  23.619  43.072  12.887
93707W        W58868  24.425  15.005  13.661
93708W        W58869  12.405  38.298   2.372
93709W        W58870  11.210  39.635  14.984
93710W        W58871   2.775  28.465  10.875
93711W        W58872  17.981  17.274  13.025
93712W        W58873   6.812  16.135  13.756
93713W        W58874  43.496   8.617   1.620
93714W        W58875  44.001  43.070  13.972
93715W        W58876  20.514  24.950  14.891
93716W        W58877   9.853  20.087   2.936
93717W        W58878   3.037  11.694  14.602
93718W        W58879  12.099  32.887  13.778
93719W        W58880  26.190  31.729  11.658
93720W        W58881  28.602  12.150  14.963
93721W        W58882  42.010  13.368  12.836
93722W        W58883  40.587  41.422   3.776
93723W        W58884   8.586  40.907   2.820
93724W        W58885  36.775  36.492  14.354
93725W        W58886  42.857  14.420  12.806
93726W        W58887  10.178  34.098  12.176
93727W        W58888  40.542  17.134   2.660
93728W        W58889  44.330  13.606  14.846
93729W        W58890   3.404  32.648  10.602
93730W        W58891  14.652  44.862   0.535
93731W        W58892  29.935   4.456  10.836
93732W        W58893  28.892   5.648   1.919
93733W        W58894  31.541   4.753  10.764
93734W        W58895  40.883  35.153  12.875
93735W        W58896  19.219  19.198  12.843
93736W        W58897  34.394  21.018   1.677
93737W        W58898  19.588   4.216   2.560
93738W        W58899  22.049  39.314  12.693
93739W        W58900  22.971   4.969   4.120
93740W        W58901  33.057  31.070  12.994
93741W        W58902  13.084  19.792  13.492
93742W        W58903  37.825  28.408  12.059
93743W        W58904  19.907  17.950   1.691
93744W        W58905  22.673  11.602   4.139
93745W        W58906  21.594  29.107  10.630
93746W        W58907  36.100  30.824  11.819
93747W        W58908  35.608   9.181  13.993
93748W        W58909  21.832  10.271   1.020
93749W        W58910  13.852  21.773   1.569
93750W        W58911  25.376  38.040  11.393
93751W        W58912  28.624  33.163  14.570
93752W        W58913  33.961  36.748  12.053
93753W        W58914   9.787  38.408   1.370
93754W        W58915   1.893  42.461  12.915
93755W        W58916  23.630  19.094  13.875
93756W        W58917  15.264  31.163  12.999
93757W        W58918  44.018  31.904   9.934
93758W        W58919   2.574  21.404  11.327
93759W        W58920  43.792   0.774   4.636
93760W        W58921  23.703  42.539  12.581
93761W        W58922  25.354  17.225  11.114
93762W        W58923   6.755  25.079   3.640
93763W        W58924  29.452  40.600   3.671
93764W        W58925  41.909   6.538   0.915
93765W        W58926  35.319  37.919  12.434
93766W        W58927  21.920  36.155   2.917
93767W        W58928  32.239  10.311   3.931
93768W        W58929   8.713  15.753   1.607
93769W        W58930  40.549  27.427   0.861
93770W        W58931  43.072  20.946   3.296
93771W        W58932  29.297  43.480   4.646
93772W        W58933  15.558  15.509   4.045
93773W        W58934  18.074  42.915  11.378
93774W        W58935   3.801  15.484   3.675
93775W        W58936   9.198  39.877  13.448
93776W        W58937   2.733  19.715   1.852
93777W        W58938   8.464  21.476  12.093
93778W        W58939  26.675  36.228  12.453
93779W        W58940  30.987  13.264  13.543
93780W        W58941  13.755  30.927  12.810
93781W        W58942  17.328   6.544   1.728
93782W        W58943   1.445  41.888   1.973
93783W        W58944  18.412  31.420   0.072
93784W        W58945  16.254  33.436   4.382
93785W        W58946  25.726  37.869  12.429
93786W        W58947  32.911  34.043  12.380
93787W        W58948  27.949  44.981  11.478
93788W        W58949  23.499  27.099   3.074
93789W        W58950  11.414  20.196  13.054
93790W        W58951  40.325  30.841   2.703
93791W        W58952  27.433  39.856  14.581
93792W        W58953  35.547  18.565  14.890
93793W        W58954   3.976  20.642   4.673
93794W        W58955   6.766   0.209  12.468
93795W        W58956   4.116  32.964  13.837
93796W        W58957  38.299  40.333   1.318
93797W        W58958  36.301  16.844  13.078
93798W        W58959  24.815  39.358   1.035
93799W        W58960  41.803  33.297   5.026
93800W        W58961  44.855   8.563   0.430
93801W        W58962  37.883  22.234  11.585
93802W        W58963  41.322  41.007   0.839
93803W        W58964  31.657  31.036   0.463
93804W        W58965  20.829   5.846   1.793
93805W        W58966  41.924  41.481   1.454
93806W        W58967   4.679  18.878  14.822
93807W        W58968  24.479  29.964  14.691
93808W        W58969  35.836  41.567  14.451
93809W        W58970   8.153  38.907  14.747
93810W        W58971  23.227  35.019  11.589
93811W        W58972  20.241  12.149   1.959
93812W        W58973  14.562   5.069  10.962
93813W        W58974  19.923   8.355  11.655
93814W        W58975  26.204  41.918  14.461
93815W        W58976   9.066  15.793   1.973
93816W        W58977  39.906  22.289   2.212
93817W        W58978  27.473   4.231  14.578
93818W        W58979   0.488  27.543   4.768
93819W        W58980  42.362  27.060  12.480
93820W        W58981  44.358  19.370  14.460
93821W        W58982  25.239  14.835   0.348
93822W        W58983  28.673  23.284   0.820
93823W        W58984  14.872  32.845   3.482
93824W        W58985   3.278  28.084  12.889
93825W        W58986  39.573  10.975   1.228
93826W        W58987  39.804   1.703   4.039
93827W        W58988  14.049  39.991  12.348
93828W        W58989  24.986   0.960   0.775
93829W        W58990  27.982  44.946  12.416
93830W        W58991  34.614  44.903  14.900
93831W        W58992  16.066  10.935  12.925
93832W        W58993  24.734  27.449   2.243
93833W        W58994  24.368  44.871  12.464
93834W        W58995  32.583   5.688   2.354
93835W        W58996  21.135  40.624   0.734
93836W        W58997  37.995  43.887  14.026
93837W        W58998   0.449  21.499  11.388
93838W        W58999  19.787  28.580  14.331
93839W        W59000  33.376  37.897  13.621
93840W        W59001  36.742  37.038   4.884
93841W        W59002  41.023  15.656   4.109
93842W        W59003  40.453  33.807  12.063
93843W        W59004  10.645  36.422   1.729
93844W        W59005  12.203  24.432   0.510
93845W        W59006  37.973  42.331  11.108
93846W        W59007  22.879   7.442  13.406
93847W        W59008  29.993   6.277   0.174
93848W        W59009  21.479   9.433   0.086
93849W        W59010  30.714   6.348  13.363
93850W        W59011  35.563  25.424  11.379
93851W        W59012  42.071   1.276   1.420
93852W        W59013  26.983  38.982   2.848
93853W        W59014  16.489  17.255  10.589
93854W        W59015  28.501  10.123   4.694
93855W        W59016   5.742  25.879  11.980
93856W        W59017  26.640   9.937  14.344
93857W        W59018  22.067  12.783  12.574
93858W        W59019  40.457  38.513  13.957
93859W        W59020  16.466  41.036   2.656
93860W        W59021  17.020  32.827  14.345
93861W        W59022  14.809  38.970   1.643
93862W        W59023  27.082  31.710   4.061
93863W        W59024  29.417  34.088   2.399
93864W        W59025  20.574   2.326  10.700
93865W        W59026  12.262  17.984  12.852
93866W        W59027  21.166  12.176   4.063
93867W        W59028  20.134  17.528  12.986
93868W        W59029  11.422  39.508  10.789
93869W        W59030  38.130  19.727  11.553
93870W        W59031  12.520  31.522   0.996
93871W        W59032   0.283   7.837  11.969
93872W        W59033   4.629  18.013   4.219
93873W        W59034  36.843  16.780  11.637
93874W        W59035  43.974  10.282  12.960
93875W        W59036  37.921   9.937  13.471
93876W        W59037  19.571  31.929  14.869
93877W        W59038  22.541  34.383   4.189
93878W        W59039  21.055  31.857  12.917
93879W        W59040  31.110  31.923   0.327
93880W        W59041  33.356  36.092  12.002
93881W        W59042  14.507  36.633   1.986
93882W        W59043   1.798  21.612   2.755
93883W        W59044  16.296  33.920   2.653
93884W        W59045  22.518   0.453  13.401
93885W        W59046  21.729  20.278  14.917
93886W        W59047   5.984  33.630  13.460
93887W        W59048   4.741  21.083  14.755
93888W        W59049   5.693  36.582  12.466
93889W        W59050   7.742  24.124  10.239
93890W        W59051  41.170  33.149  11.164
93891W        W59052   6.758   1.155   3.234
93892W        W59053  37.790  27.503  13.986
93893W        W59054  18.197   7.460  14.788
93894W        W59055  27.796  14.193  13.733
93895W        W59056   3.921  35.536  12.982
93896W        W59057  43.381  29.469  13.353
93897W        W59058  10.357  38.187   2.122
93898W        W59059  24.077   6.989   2.385
93899W        W59060  41.906  30.498   0.889
93900W        W59061  21.278   3.723  14.094
93901W        W59062  16.782  44.988   2.257
93902W        W59063  43.039   8.408   1.676
93903W        W59064  26.196   7.838  13.329
93904W        W59065   7.702  15.022   4.345
93905W        W59066  38.897  10.343   1.697
93906W        W59067   9.636  31.900  14.798
93907W        W59068  18.834   7.741   3.754
93908W        W59069  23.256   3.258  12.686
93909W        W59070  35.841  34.570   4.229
93910W        W59071   5.194  40.866  12.478
93911W        W59072  43.238  18.614   3.775
93912W        W59073  38.739  10.660  14.847
93913W        W59074  12.742   2.764   3.871
93914W        W59075  27.839   4.462  13.994
93915W        W59076  37.899  40.157   2.787
93916W        W59077   5.798  40.287  12.975
93917W        W59078  42.393  29.412  12.015
93918W        W59079  14.010  33.535  13.889
93919W        W59080  30.452  16.564  14.036
93920W        W59081  28.546   4.913   2.243
93921W        W59082  17.990  33.941  14.493
93922W        W59083  32.171  30.794  14.777
93923W        W59084   8.879   2.200  13.623
93924W        W59085  23.197  34.102  11.590
93925W        W59086   7.837  44.613  14.760
93926W        W59087  17.094  41.814  12.566
93927W        W59088  17.055   2.692   2.594
93928W        W59089  14.794   5.592   0.253
93929W        W59090  38.794  19.845  14.148
93930W        W59091  31.743  24.548   3.235
93931W        W59092  40.348  39.281   4.096
93932W        W59093  16.819   6.279   0.897
93933W        W59094  32.477   2.427   0.830
93934W        W59095  11.429  37.242   2.752
93935W        W59096  35.637  11.650   1.285
93936W        W59097  31.570  41.338  13.416
93937W        W59098  24.353   0.068  11.589
93938W        W59099  43.297  35.356  14.382
93939W        W59100  23.473  39.770   4.605
93940W        W59101  37.831  32.600  11.161
93941W        W59102  21.889  16.613   0.012
93942W        W59103   7.250   5.033   3.859
93943W        W59104  27.194  29.989  14.311
93944W        W59105  10.167  34.147   3.751
93945W        W59106  44.624  32.030  11.596
93946W        W59107  25.224  34.678   2.314
93947W        W59108   4.490  18.253   3.693
93948W        W59109  22.134  22.523  13.767
93949W        W59110  33.307  37.822   4.085
93950W        W59111  33.099   5.738   4.574
93951W        W59112  11.699  30.086   2.755
93952W        W59113  35.793  36.843   0.946
93953W        W59114  35.379  16.949  10.751
93954W        W59115  20.334   7.753  12.865
93955W        W59116  44.489  23.166  12.832
93956W        W59117   2.890  34.441   2.950
93957W        W59118  41.964  11.185  13.434
93958W        W59119  41.198  37.773   9.829
93959W        W59120  34.199   5.353  14.516
93960W        W59121  27.131  41.766   2.925
93961W        W59122  24.674  41.446   0.192
93962W        W59123  18.716  27.974   3.601
93963W        W59124   9.309   8.881  12.174
93964W        W59125   6.407  38.610  14.955
93965W        W59126  41.351  33.575   4.913
93966W        W59127  30.786   3.132   1.733
93967W        W59128  43.429  39.329  12.973
93968W        W59129  27.277  14.704   9.876
93969W        W59130  16.738  31.800   4.106
93970W        W59131  39.040   3.431   1.186
93971W        W59132  13.686  39.268   4.256
93972W        W59133  30.116  21.038  14.265
93973W        W59134   0.994  16.919  14.254
93974W        W59135  24.158  20.352  13.970
93975W        W59136   1.946  29.453  14.807
93976W        W59137   6.530   0.437  12.083
93977W        W59138  39.577  14.266   4.461
93978W        W59139  40.212   3.431  10.967
93979W        W59140  41.891   0.218   3.305
93980W        W59141  35.920   9.394  12.064
93981W        W59142   8.259   0.412   2.753
93982W        W59143   1.310  17.402  10.265
93983W        W59144  37.362  21.480   0.853
93984W        W59145  35.665  23.770  11.966
93985W        W59146  11.597  11.503  12.045
93986W        W59147   8.735  40.055  14.750
93987W        W59148  16.626  16.334  11.042
93988W        W59149  41.485   6.361  13.793
93989W        W59150  22.062  41.052  14.404
93990W        W59151  34.607  32.310  12.870
93991W        W59152  16.798  26.411  12.710
93992W        W59153   7.210  31.597  12.256
93993W        W59154   6.856  31.384  14.806
93994W        W59155  23.043  31.053   2.847
93995W        W59156  37.799  16.002   9.910
93996W        W59157   5.007  31.719  12.898
93997W        W59158  35.074  14.562  11.137
93998W        W59159   9.944  26.689  13.076
93999W        W59160  14.233  24.391  11.550
94000W        W59161  33.806  28.150  14.824
94001W        W59162   0.181  23.672  10.614
94002W        W59163   7.404  31.386   2.576
94003W        W59164   3.287  37.638  12.409
94004W        W59165  35.959   6.214   0.326
94005W        W59166  19.775  39.500  12.416
94006W        W59167  30.059  26.503   5.089
94007W        W59168  20.992  20.765   0.912
94008W        W59169  20.096  26.081  14.392
94009W        W59170  23.478  32.840  12.028
94010W        W59171  34.491  17.998   1.829
94011W        W59172  15.113  17.510  12.574
94012W        W59173  36.451  23.622  13.479
94013W        W59174   1.795   9.484  12.809
94014W        W59175  41.794  35.625  12.450
94015W        W59176  37.258   4.081   3.363
94016W        W59177  17.728  24.697  10.471
94017W        W59178  13.692  31.982   4.844
94018W        W59179  32.859   1.571   2.748
94019W        W59180   1.148  10.848   4.666
94020W        W59181  26.885  13.788   1.957
94021W        W59182  19.214  29.443  12.432
94022W        W59183  38.600  36.708  13.853
94023W        W59184   9.588  39.435   0.865
94024W        W59185   6.039   7.301  12.496
94025W        W59186  24.723  20.052   0.336
94026W        W59187   0.452  30.860   0.679
94027W        W59188   5.837  29.720   1.680
94028W        W59189  41.989  44.964  11.162
94029W        W59190  18.566  35.798  11.190
94030W        W59191  36.359  16.842   0.864
94031W        W59192  34.063  14.751   4.267
94032W        W59193  17.149  26.882  12.025
94033W        W59194  29.151  40.966  10.166
94034W        W59195  16.629  37.398   4.573
94035W        W59196  42.377  11.122  12.057
94036W        W59197  40.447   1.683  10.784
94037W        W59198  12.879  40.944  13.469
94038W        W59199  21.556   3.286   2.585
94039W        W59200   2.850  37.053  12.986
94040W        W59201  18.756   0.306  12.565
94041W        W59202  34.686  42.707   2.210
94042W        W59203  31.802  43.991  13.951
94043W        W59204  28.003  37.023  13.848
94044W        W59205  19.564   4.563  13.778
94045W        W59206  24.589  36.831   9.873
94046W        W59207  11.544  12.069   0.008
94047W        W59208  34.544  15.557   0.751
94048W        W59209  38.998  15.122  13.854
94049W        W59210   6.950   6.365   0.896
94050W        W59211  11.763  33.889  10.713
94051W        W59212  39.786  13.092   3.305
94052W        W59213   1.299  10.767  11.532
94053W        W59214  17.952   2.316   0.024
94054W        W59215   9.134  39.548   1.494
94055W        W59216  18.759  13.530   3.276
94056W        W59217  30.635  14.321  11.982
94057W        W59218  17.063  41.921   0.401
94058W        W59219  12.751  26.098  12.958
94059W        W59220  37.780  12.376   1.760
94060W        W59221  41.844  24.227  10.841
94061W        W59222  21.478  44.790   1.652
94062W        W59223  36.305  24.117  14.753
94063W        W59224  10.991   1.707   0.950
94064W        W59225  38.240  24.372  10.863
94065W        W59226  20.653  42.340   2.670
94066W        W59227  18.692   8.801   1.518
94067W        W59228  30.871  42.008  11.100
94068W        W59229   5.661   9.293  13.032
94069W        W59230  11.909  26.691   5.014
94070W        W59231  38.364   4.277   1.944
94071W        W59232  43.565   3.183   0.521
94072W        W59233  31.501  43.978   3.214
94073W        W59234   3.668  11.693   1.659
94074W        W59235  40.480   2.252  14.899
94075W        W59236  31.121  15.391   2.632
94076W        W59237  35.180   9.793  14.017
94077W        W59238   0.957   9.206  13.111
94078W        W59239  10.211  41.103   2.382
94079W        W59240  16.325  38.924  12.099
94080W        W59241  37.056   4.505   1.083
94081W        W59242   0.774  32.066  13.980
94082W        W59243  39.922  11.527  11.242
94083W        W59244  38.231  29.405  10.727
94084W        W59245  37.566  38.615  14.534
94085W        W59246  44.734   1.382  13.097
94086W        W59247  14.132  40.821   0.511
94087W        W59248  37.096  16.814   1.317
94088W        W59249  41.778  32.557  12.418
94089W        W59250  18.312   8.842   1.954
94090W        W59251  28.975  32.528  12.500
94091W        W59252  25.603   2.986   3.342
94092W        W59253  13.115  18.021   0.227
94093W        W59254  17.141  20.918  12.401
94094W        W59255  12.799  16.391  11.235
94095W        W59256   9.275  40.361   0.205
94096W        W59257   4.987  29.871  11.611
94097W        W59258  19.320  19.371  11.993
94098W        W59259  38.345  27.115   3.646
94099W        W59260  35.017   6.548  14.453
94100W        W59261  23.945  43.924  12.121
94101W        W59262  11.880  20.899  14.968
94102W        W59263   7.191  15.099   3.852
94103W        W59264  12.174  21.807  13.534
94104W        W59265  29.681   0.734  13.923
94105W        W59266  41.024  38.049   2.306
94106W        W59267  15.530  41.384  14.754
94107W        W59268  30.143  13.238   3.130
94108W        W59269  35.831   2.133  12.069
94109W        W59270  30.017  15.159   3.698
94110W        W59271  29.864  20.192   2.306
94111W        W59272  38.963  29.228   1.378
94112W        W59273  44.945  29.036  10.703
94113W        W59274   0.388   5.695   4.112
94114W        W59275  19.606   5.201   0.017
94115W        W59276   4.234  34.083   4.932
94116W        W59277  40.959  19.519   2.695
94117W        W59278  15.610  42.410   3.208
94118W        W59279  39.484  11.711   3.102
94119W        W59280   1.524  38.151   1.638
94120W        W59281  20.042  36.088   1.303
94121W        W59282  36.880  37.998   2.743
94122W        W59283  14.333  26.531   0.184
94123W        W59284  32.754  26.551  11.090
94124W        W59285  10.284  36.830   2.197
94125W        W59286  36.328  18.928  11.134
94126W        W59287  24.861  17.336   3.980
94127W        W59288   0.347  18.709  13.299
94128W        W59289  43.563  39.844  13.848
94129W        W59290  30.471   8.885   4.122
94130W        W59291  29.058  33.053   0.369
94131W        W59292  43.552  43.392   3.163
94132W        W59293  44.297   3.763   2.170
94133W        W59294  34.433  44.340   1.264
94134W        W59295  34.092  28.459   2.584
94135W        W59296  19.272   4.487   2.863
94136W        W59297  32.828  44.294   3.161
94137W        W59298   4.255   8.683  13.340
94138W        W59299  24.351  24.918   0.427
94139W        W59300   6.772  34.428   0.924
94140W        W59301  14.837  17.984   4.669
94141W        W59302  22.258  14.616   3.972
94142W        W59303  42.746  23.113   1.333
94143W        W59304  29.703   2.934  11.699
94144W        W59305  20.603  18.749  14.807
94145W        W59306  27.136  14.078   0.907
94146W        W59307  42.106  39.356  11.511
94147W        W59308  32.820  18.652  13.367
94148W        W59309  17.612  24.191  10.553
94149W        W59310  10.247   4.282   0.565
94150W        W59311  26.661   9.779  12.979
94151W        W59312   7.731   3.750  10.197
94152W        W59313   0.959  21.326  14.529
94153W        W59314  38.966  33.814  12.431
94154W        W59315  18.581   8.555   3.204
94155W        W59316  12.725   0.518   1.005
94156W        W59317  23.570  14.283  14.086
94157W        W59318  43.742   1.890  13.123
94158W        W59319  33.919  28.731  12.451
94159W        W59320  13.260  40.576  12.087
94160W        W59321  22.350  24.649  12.499
94161W        W59322  32.594  34.920   3.679
94162W        W59323  29.230  17.689   3.221
94163W        W59324  31.521  43.994  12.108
94164W        W59325   2.914   6.244  12.459
94165W        W59326  18.729  22.920   4.272
94166W        W59327  12.201  26.477   3.214
94167W        W59328  35.487   2.929   1.414
94168W        W59329  29.523  29.168   0.477
94169W        W59330  15.263   7.374  11.556
94170W        W59331  34.151  14.656   1.651
94171W        W59332  28.855   2.894   1.692
94172W        W59333  19.712  24.737  11.627
94173W        W59334   3.726  30.102   4.880
94174W        W59335  30.042  16.715  12.916
94175W        W59336  31.243  39.494   4.994
94176W        W59337  11.183   2.216   4.497
94177W        W59338  42.845  26.050  10.746
94178W        W59339  31.064  35.536   0.289
94179W        W59340  43.498  32.753  13.969
94180W        W59341  14.529  29.517  11.177
94181W        W59342  42.280  10.120   3.755
94182W        W59343  10.914  22.571  11.530
94183W        W59344  41.429  32.422   0.519
94184W        W59345  23.719  27.934  14.155
94185W        W59346  35.508  19.180  13.583
94186W        W59347  12.956   1.414   1.305
94187W        W59348   4.247  39.264   2.530
94188W        W59349  13.728  43.487   3.637
94189W        W59350   7.295  43.938  14.557
94190W        W59351  43.421   1.562  11.470
94191W        W59352  16.120  24.165   1.749
94192W        W59353   4.209  10.140   1.401
94193W        W59354  34.925  10.417   5.252
94194W        W59355   8.874  33.546   0.669
94195W        W59356   3.217  34.177   4.391
94196W        W59357  35.836  43.794   2.309
94197W        W59358  19.814  37.460   1.702
94198W        W59359  14.879  19.881  11.463
94199W        W59360   9.837  14.776   2.216
94200W        W59361  17.534  13.587   3.786
94201W        W59362  15.591  29.967   2.668
94202W        W59363  24.361  26.396  12.412
94203W        W59364  43.273  15.191  14.955
94204W        W59365  32.341   8.388   4.612
94205W        W59366  35.325  41.544  12.508
94206W        W59367  44.766  35.653   1.957
94207W        W59368  12.118  36.335  11.840
94208W        W59369   5.641  12.011   0.459
94209W        W59370  37.772  41.405   2.543
94210W        W59371  40.257   4.364   1.770
94211W        W59372  32.179  21.764  11.786
94212W        W59373   6.745   3.166  14.337
94213W        W59374  24.205  29.163   4.967
94214W        W59375   5.761  21.733   4.314
94215W        W59376  11.410  31.622  11.179
94216W        W59377  19.092  35.845  11.103
94217W        W59378  43.562   3.418   0.053
94218W        W59379  40.392   3.087   2.890
94219W        W59380  12.103  18.242   3.767
94220W        W59381  18.769  20.566  12.570
94221W        W59382  16.309  17.251   4.565
94222W        W59383  40.641  12.316   1.414
94223W        W59384  39.442  31.593   1.462
94224W        W59385  39.820  41.992  14.320
94225W        W59386  18.491   6.876  10.646
94226W        W59387  22.225  26.657   1.729
94227W        W59388  44.537  16.131   0.396
94228W        W59389  15.287  28.973   3.171
94229W        W59390   8.780  17.976   2.214
94230W        W59391  35.383  25.408   1.783
94231W        W59392  14.106   8.582  12.518
94232W        W59393   9.315   3.458  14.723
94233W        W59394  29.094  16.175  13.557
94234W        W59395   1.524  27.258   3.628
94235W        W59396  33.673  35.344   0.302
94236W        W59397  30.271  24.983   1.792
94237W        W59398  11.828  44.864  13.563
94238W        W59399  15.761  27.500  12.178
94239W        W59400   3.176  27.517  14.518
94240W        W59401  44.099   5.897   1.923
94241W        W59402  15.227  17.219  10.393
94242W        W59403   5.643  17.497   2.122
94243W        W59404  15.783  38.082   2.403
94244W        W59405  39.589  11.906  11.165
94245W        W59406  36.508   1.189   0.375
94246W        W59407  13.918  44.871   4.679
94247W        W59408  12.065  27.678   3.752
94248W        W59409  20.392  37.427   0.167
94249W        W59410  10.198   9.119   1.761
94250W        W59411  43.494  29.823   2.834
94251W        W59412  34.457  26.956   0.066
94252W        W59413  12.673  18.355   1.870
94253W        W59414  20.968  32.053   2.791
94254W        W59415  28.038  44.361   1.681
94255W        W59416  22.641   5.114   4.525
94256W        W59417  33.805   9.237   0.444
94257W        W59418  41.405  12.252   3.661
94258W        W59419  22.741  40.624   3.354
94259W        W59420   2.737  23.714  14.367
94260W        W59421   7.328  26.912  14.567
94261W        W59422  38.635  42.063   3.782
94262W        W59423  20.571  29.916   3.273
94263W        W59424  29.665  32.092  13.161
94264W        W59425   6.211  11.410   3.806
94265W        W59426  43.401   5.794   2.373
94266W        W59427   4.385  40.323  12.398
94267W        W59428  43.076  43.224   2.900
94268W        W59429  43.563  27.494  12.166
94269W        W59430  27.028  27.944  12.968
94270W        W59431  21.996  16.407   2.561
94271W        W59432  20.157  43.924  14.801
94272W        W59433   3.890   2.904  10.882
94273W        W59434  35.449  14.967   3.370
94274W        W59435  32.650   8.822   4.113
94275W        W59436  14.330  37.606  12.482
94276W        W59437  35.635  44.722  13.503
94277W        W59438  11.332  28.282  13.159
94278W        W59439  42.364   2.420  12.077
94279W        W59440  37.456  20.114   0.278
94280W        W59441  13.282  35.537  12.129
94281W        W59442  43.260  17.071   4.956
94282W        W59443  29.056  16.882  11.580
94283W        W59444  16.841   7.376   3.696
94284W        W59445   5.214  27.717   4.338
94285W        W59446  35.084  22.166  12.883
94286W        W59447   4.760  28.157   0.660
94287W        W59448   6.356  43.323  13.478
94288W        W59449  37.804  16.306  14.800
94289W        W59450  26.078  41.537   3.256
94290W        W59451  37.480  35.645  14.704
94291W        W59452  17.209  29.401   3.278
94292W        W59453  40.510  43.770   3.239
94293W        W59454  39.995  33.355   4.267
94294W        W59455   4.578  28.439   1.867
94295W        W59456   7.933  11.626   4.128
94296W        W59457   4.641  33.029   3.646
94297W        W59458  27.869  11.635   1.356
94298W        W59459  21.620   1.896   0.391
94299W        W59460  43.873  20.452   1.472
94300W        W59461   8.278  26.963  13.455
94301W        W59462  37.605  25.606  11.827
94302W        W59463   8.159  25.128   2.225
94303W        W59464  14.820  18.961   3.185
94304W        W59465  34.293  34.064  12.405
94305W        W59466  21.204  37.416  14.797
94306W        W59467  39.956  15.678  11.483
94307W        W59468  21.868  41.833  12.314
94308W        W59469  31.933  28.176   1.379
94309W        W59470  38.101  42.228   0.329
94310W        W59471  11.152  33.837  14.814
94311W        W59472  30.953  28.665  14.976
94312W        W59473  11.819  23.661  13.600
94313W        W59474  29.069  14.698   2.744
94314W        W59475   0.478   4.022  13.947
94315W        W59476  33.853  30.465  12.330
94316W        W59477  23.987  14.570  13.970
94317W        W59478  33.491  17.085  14.747
94318W        W59479  13.348  26.082   3.231
94319W        W59480   6.116   7.215  14.793
94320W        W59481  10.738  31.056  11.723
94321W        W59482  31.354  40.491   2.464
94322W        W59483  12.362  27.190  14.996
94323W        W59484  30.891  22.106  14.505
94324W        W59485  11.656  26.294  12.408
94325W        W59486  39.455  43.365  11.398
94326W        W59487   1.984  21.594   0.328
94327W        W59488  38.755  38.847   2.441
94328W        W59489   0.286   4.983  14.862
94329W        W59490  23.108  30.792   2.107
94330W        W59491  26.035   9.079   4.181
94331W        W59492   8.636  36.387  11.518
94332W        W59493  28.159  27.956  11.580
94333W        W59494  30.841  17.811  11.641
94334W        W59495  24.138   2.745   1.672
94335W        W59496  12.931   4.690  13.762
94336W        W59497  10.589  19.338   0.556
94337W        W59498   3.268   0.360  14.819
94338W        W59499  18.433  15.027   4.966
94339W        W59500  17.620  11.252   3.627
94340W        W59501  44.826  33.082  10.698
94341W        W59502  42.613  43.761   2.262
94342W        W59503  22.777   7.815  13.012
94343W        W59504  20.163  39.988  14.511
94344W        W59505  21.092  14.504  11.913
94345W        W59506  15.790  10.277  11.663
94346W        W59507  19.212  41.752   1.297
94347W        W59508   8.357   2.267   1.316
94348W        W59509  20.220  40.070  12.863
94349W        W59510  15.247  30.122   4.450
94350W        W59511   5.009   7.166   3.258
94351W        W59512  34.082  22.024   3.667
94352W        W59513  34.134   6.890  12.567
94353W        W59514  37.085  17.676   4.715
94354W        W59515  20.758   6.807   0.800
94355W        W59516  15.344  16.154  13.056
94356W        W59517  24.204   4.314  14.348
94357W        W59518  17.022  29.989   2.420
94358W        W59519  21.656  35.464  12.964
94359W        W59520  42.264  35.581   2.620
94360W        W59521   1.675  30.773  13.774
94361W        W59522  37.704  21.198   0.487
94362W        W59523  20.592  34.843  11.423
94363W        W59524  28.065  31.075  13.845
94364W        W59525  10.251  22.971   0.382
94365W        W59526   2.292   3.116  11.897
94366W        W59527  27.165  34.007  14.823
94367W        W59528  19.686  24.753   0.348
94368W        W59529  15.710  31.442   4.239
94369W        W59530  16.056  10.421   3.733
94370W        W59531   5.269  18.483   3.207
94371W        W59532  24.105   9.549   1.748
94372W        W59533   2.453  20.166  12.988
94373W        W59534   4.143  36.481  12.479
94374W        W59535  12.233  20.511  12.086
94375W        W59536   9.613  44.342  11.098
94376W        W59537  37.976  32.371  12.596
94377W        W59538  28.093  10.814  13.389
94378W        W59539  35.404  21.933  12.558
94379W        W59540  23.621  38.414   0.198
94380W        W59541  38.221  30.733   2.771
94381W        W59542  35.540  13.057  13.961
94382W        W59543  18.148  28.157   2.853
94383W        W59544  44.454   8.318   4.173
94384W        W59545  15.705  17.904  10.166
94385W        W59546  14.096  38.529  12.409
94386W        W59547  33.171   7.802   0.192
94387W        W59548  22.295  44.472   1.937
94388W        W59549  31.647  15.159  13.949
94389W        W59550   8.751  44.903   4.695
94390W        W59551  34.936  22.082   0.291
94391W        W59552  37.009  17.531  14.791
94392W        W59553  21.446  19.673   2.160
94393W        W59554  22.311  11.195   1.844
94394W        W59555  36.536  38.274   0.480
94395W        W59556  41.828  18.653  14.491
94396W        W59557  32.139  42.266  12.050
94397W        W59558  36.832  12.680  13.954
94398W        W59559  13.520   9.803  13.170
94399W        W59560  11.234  21.664   3.425
94400W        W59561  16.562  20.542  12.984
94401W        W59562   8.752  34.111  12.525
94402W        W59563   9.768  30.400   1.389
94403W        W59564  31.951   4.722   0.370
94404W        W59565  24.971  19.284   0.943
94405W        W59566  27.001  24.674  11.031
94406W        W59567  43.334  25.574  14.017
94407W        W59568  12.263  34.911  12.938
94408W        W59569  28.683  31.920   4.159
94409W        W59570  38.913  14.639   2.476
94410W        W59571  30.226   7.819   0.392
94411W        W59572  11.762  33.535   4.063
94412W        W59573  17.171  22.643  10.715
94413W        W59574  42.803  39.361   1.941
94414W        W59575  18.721   9.730  14.985
94415W        W59576  21.077   6.164  14.754
94416W        W59577  34.011   8.907   2.271
94417W        W59578  26.223  34.494   1.678
94418W        W59579   1.709  14.664   4.630
94419W        W59580   3.347  27.996   1.504
94420W        W59581  24.644  25.292  12.962
94421W        W59582  26.718  17.275  14.784
94422W        W59583  13.716  13.690  13.166
94423W        W59584  31.472   3.770   3.970
94424W        W59585  29.048  26.991  14.091
94425W        W59586  25.871  25.605  11.620
94426W        W59587  17.361  25.176   0.307
94427W        W59588  33.187  21.656   2.695
94428W        W59589  17.736   1.892   2.361
94429W        W59590   7.391   9.378   1.339
94430W        W59591  18.112   9.202   0.316
94431W        W59592  12.198  21.226   4.482
94432W        W59593  19.012  14.712  13.334
94433W        W59594  24.871   6.703  12.622
94434W        W59595   7.363  13.223   3.236
94435W        W59596  26.930   8.197  13.401
94436W        W59597  32.663  11.674   4.672
94437W        W59598   0.242  38.121  14.000
94438W        W59599   7.791   7.322   3.599
94439W        W59600  16.018  19.243   2.055
94440W        W59601  24.136  29.623   1.893
94441W        W59602  10.706  23.232   1.360
94442W        W59603  32.528   4.408  12.611
94443W        W59604  25.181  42.020  11.956
94444W        W59605  34.576  19.301  13.369
94445W        W59606  28.190  28.260   4.521
94446W        W59607  12.633  41.266  11.250
94447W        W59608  32.001  27.730   0.542
94448W        W59609   1.045  15.425  14.264
94449W        W59610   2.987  29.542   4.656
94450W        W59611  14.056  16.599   2.613
94451W        W59612   2.582  42.608   1.407
94452W        W59613  25.122  29.157   4.879
94453W        W59614   7.952   1.995   4.762
94454W        W59615  15.093  12.185   4.769
94455W        W59616   6.402  43.956  12.139
94456W        W59617  13.004  30.346   0.492
94457W        W59618  22.971  20.613   3.330
94458W        W59619  41.016   1.801   1.834
94459W        W59620  22.551  43.844   3.703
94460W        W59621  20.225  25.914   1.357
94461W        W59622  24.627  31.907  11.992
94462W        W59623  13.390   0.697   4.882
94463W        W59624   8.470  32.262  14.358
94464W        W59625  24.439  27.958   3.026
94465W        W59626  17.173  26.107  12.936
94466W        W59627  36.465   4.678   0.389
94467W        W59628  32.390  18.118   3.353
94468W        W59629  26.957  39.611  14.820
94469W        W59630  21.030  29.993  10.985
94470W        W59631  29.894   9.487  11.768
94471W        W59632  13.355  34.959  13.438
94472W        W59633  26.516  29.966   4.075
94473W        W59634  33.787   9.641   3.452
94474W        W59635  34.041   7.441   3.245
94475W        W59636  30.947  37.485   2.717
94476W        W59637  36.412  22.426   3.188
94477W        W59638  39.652   4.861  11.583
94478W        W59639  34.619  21.978   0.690
94479W        W59640  31.121  18.469  11.120
94480W        W59641  39.307  35.919  12.116
94481W        W59642  14.962  17.477  13.852
94482W        W59643  17.238   4.509   3.194
94483W        W59644  29.504  14.064  11.577
94484W        W59645  26.701  17.811  11.144
94485W        W59646  40.841   8.629  12.059
94486W        W59647  18.685  28.085   3.089
94487W        W59648  21.534   5.758  13.867
94488W        W59649   2.055  22.914  12.060
94489W        W59650  30.058  32.050  12.338
94490W        W59651  13.684  41.399   2.938
94491W        W59652  21.103  34.740  12.510
94492W        W59653  41.942  37.513  12.577
94493W        W59654  43.494  30.057   0.433
94494W        W59655   8.588  16.662   4.923
94495W        W59656  21.389  25.085   3.886
94496W        W59657  26.734  44.209  14.361
94497W        W59658  19.731   4.256   4.134
94498W        W59659  11.216  35.930   0.933
94499W        W59660   8.940  14.765   1.857
94500W        W59661  10.903  23.864  14.523
94501W        W59662   9.715   9.684  14.896
94502W        W59663  44.583  15.247   0.296
94503W        W59664   4.214  11.103   3.648
94504W        W59665  29.843  44.043  11.066
94505W        W59666   7.843  30.049   0.480
94506W        W59667  18.948  32.480  13.804
94507W        W59668  29.999  40.798  14.084
94508W        W59669  16.024  41.379   1.652
94509W        W59670  40.323  28.699   3.429
94510W        W59671   6.932  37.233   2.785
94511W        W59672  10.195  20.610   3.229
94512W        W59673   8.473  30.698  13.023
94513W        W59674  33.934  22.180   2.276
94514W        W59675  37.016  19.423   1.895
94515W        W59676   2.235   7.205   2.772
94516W        W59677  11.141  16.346   3.261
94517W        W59678  25.975  34.564  11.500
94518W        W59679  42.384  39.319  10.530
94519W        W59680  23.975   9.763   1.283
94520W        W59681  30.223   0.212  11.370
94521W        W59682  44.369   1.333  14.726
94522W        W59683   7.305   7.906  12.451
94523W        W59684   8.707  40.983  14.287
94524W        W59685   3.210  20.479  11.550
94525W        W59686   8.140  38.046  13.290
94526W        W59687  24.383   8.034   4.737
94527W        W59688  20.578   0.204  13.829
94528W        W59689  29.813  18.484   0.043
94529W        W59690  25.617   7.248  11.274
94530W        W59691  36.563  28.545   0.059
94531W        W59692  11.857  19.546  14.833
94532W        W59693   5.637  21.926   2.892
94533W        W59694  11.123  22.740  12.924
94534W        W59695   8.376  16.515  14.339
94535W        W59696  11.103   3.767  12.922
94536W        W59697  18.629  22.272   1.791
94537W        W59698  33.883   3.206   3.651
94538W        W59699  16.251  12.290   4.780
94539W        W59700  23.908  20.135   0.702
94540W        W59701  22.478  21.616   1.791
94541W        W59702  23.082  21.537  14.601
94542W        W59703  23.105   3.738   0.390
94543W        W59704  35.049   8.262   3.105
94544W        W59705  10.404   2.492  13.434
94545W        W59706  18.780  17.315  14.939
94546W        W59707   1.944   8.380  11.431
94547W        W59708  14.296  22.075   4.098
94548W        W59709  44.915  37.380  14.256
94549W        W59710  18.986  11.368  12.911
94550W        W59711  10.662  13.193  14.449
94551W        W59712  19.992  27.610  13.976
94552W        W59713  41.273  44.769   4.091
94553W        W59714  25.569  25.886   1.685
94554W        W59715  41.940  27.496  11.505
94555W        W59716  12.885  37.292  11.589
94556W        W59717  28.668   1.990  10.641
94557W        W59718   6.609  32.571  14.454
94558W        W59719  43.135  27.209  12.061
94559W        W59720  16.151  28.102  11.640
94560W        W59721  24.607  18.201   1.263
94561W        W59722  14.796  13.033  14.804
94562W        W59723  43.042  44.814  14.281
94563W        W59724  21.107   6.267  13.046
94564W        W59725  19.171  29.853  14.454
94565W        W59726   5.228  34.844   4.725
94566W        W59727   4.704  24.050  14.747
94567W        W59728   5.723  24.447   4.587
94568W        W59729   3.079  25.757   5.478
94569W        W59730  42.939  10.984   2.638
94570W        W59731  11.778  11.538  13.339
94571W        W59732   6.936   4.465   2.268
94572W        W59733  18.707  35.373  10.926
94573W        W59734  31.929  41.087   4.078
94574W        W59735  11.574  23.756   4.566
94575W        W59736  41.249  19.721   4.113
94576W        W59737  40.349  41.889   3.045
94577W        W59738  32.070  32.557  12.931
94578W        W59739   0.208  21.171  12.161
94579W        W59740   7.284  19.741  14.929
94580W        W59741  17.282  28.024   1.600
94581W        W59742  21.240  41.466   0.249
94582W        W59743  33.541   3.780  10.408
94583W        W59744  14.084  43.402  14.648
94584W        W59745   3.495  16.301   0.363
94585W        W59746  19.293  44.758  11.561
94586W        W59747  16.396  21.617  14.924
94587W        W59748  31.470  19.739   0.415
94588W        W59749  17.253   5.352  10.465
94589W        W59750  24.355  30.575   1.915
94590W        W59751  31.620  14.706   4.349
94591W        W59752  23.034  39.343   4.647
94592W        W59753  43.881   1.839  12.626
94593W        W59754  34.861  44.377   2.857
94594W        W59755  32.603  24.019  10.365
94595W        W59756  37.672  38.604   9.995
94596W        W59757   6.487  28.208   2.642
94597W        W59758  12.431  44.958   0.283
94598W        W59759  44.236  34.149  10.957
94599W        W59760  19.209   5.708  14.018
94600W        W59761   1.816   6.746   0.273
94601W        W59762  19.105   2.152   3.366
94602W        W59763  25.132  18.546  11.857
94603W        W59764  13.227  37.127   1.955
94604W        W59765  23.504  34.868  11.140
94605W        W59766  42.412  37.519  13.401
94606W        W59767  38.896  10.286   0.278
94607W        W59768  41.310  10.499  13.386
94608W        W59769  36.403  32.891  11.546
94609W        W59770  18.562  11.845  13.353
94610W        W59771   3.391   3.754  11.581
94611W        W59772   5.348   5.205  12.906
94612W        W59773  32.437  16.227   2.622
94613W        W59774  42.563   7.226   3.142
94614W        W59775  12.530  13.864   2.220
94615W        W59776  17.206  37.062  13.247
94616W        W59777  17.491  44.858  11.973
94617W        W59778   2.288  20.282   2.537
94618W        W59779  29.375   1.506  14.546
94619W        W59780  37.360  23.177  12.457
94620W        W59781   5.295  18.833   1.792
94621W        W59782  43.878  11.388   0.711
94622W        W59783   4.684  24.552   3.728
94623W        W59784  44.420  24.319   3.168
94624W        W59785  33.511  44.810   1.825
94625W        W59786   9.904  12.679  11.785
94626W        W59787  16.220   5.630   3.250
94627W        W59788  42.297  15.779  12.272
94628W        W59789  40.109  28.448  12.053
94629W        W59790  28.197  41.037   3.155
94630W        W59791   4.019   7.758   1.316
94631W        W59792  41.719  11.421  13.025
94632W        W59793  22.766  11.214  14.770
94633W        W59794  28.494  28.551   2.334
94634W        W59795  40.899  18.571   4.210
94635W        W59796  14.569   1.438  12.039
94636W        W59797  33.165  43.970  13.546
94637W        W59798  31.680  29.615  11.522
94638W        W59799  19.157  29.716  14.967
94639W        W59800  15.649  17.205  12.683
94640W        W59801  18.498   4.776   2.235
94641W        W59802  31.040  28.386   0.443
94642W        W59803  19.589  20.919  13.843
94643W        W59804  23.667  30.600  14.859
94644W        W59805  33.959  36.261   2.377
94645W        W59806   4.013  31.664   3.855
94646W        W59807   5.920  20.618   1.426
94647W        W59808  29.405   3.796  13.494
94648W        W59809  34.888  24.568   0.869
94649W        W59810  44.825  27.729   1.867
94650W        W59811   4.474  15.819   1.818
94651W        W59812  30.207   7.292   3.335
94652W        W59813   5.707  20.277  14.943
94653W        W59814  28.957  43.554   2.194
94654W        W59815  16.718  29.395   2.967
94655W        W59816  33.122  36.485   2.139
94656W        W59817  21.161  20.276  11.051
94657W        W59818   1.525  22.043  12.595
94658W        W59819  25.096  28.643   4.700
94659W        W59820   2.486  33.699  14.348
94660W        W59821  11.892  27.639   4.744
94661W        W59822  21.081  18.598   1.388
94662W        W59823  27.009  23.029   2.686
94663W        W59824  24.442  42.109   9.933
94664W        W59825  16.585  31.176  14.394
94665W        W59826  27.621  43.548   1.658
94666W        W59827   1.231  12.706   1.133
94667W        W59828  44.847  35.956   2.383
94668W        W59829  40.288  13.298   4.122
94669W        W59830   5.863  32.694   1.273
94670W        W59831   2.271  29.609   2.271
94671W        W59832   7.754   8.239   3.134
94672W        W59833  21.775  38.488  11.888
94673W        W59834  35.740  25.508  13.624
94674W        W59835  10.195  41.872   0.755
94675W        W59836  30.450  42.291   0.774
94676W        W59837   2.851  31.453  14.719
94677W        W59838  31.160  14.037  11.194
94678W        W59839  21.921   1.145   3.964
94679W        W59840  26.771  12.190   2.772
94680W        W59841  16.899   5.353  12.854
94681W        W59842   3.337  30.635   0.807
94682W        W59843  20.754  44.111   0.519
94683W        W59844  41.461  41.430  13.520
94684W        W59845  19.133  44.260  13.494
94685W        W59846   9.261  16.182  12.079
94686W        W59847  23.455   2.115  11.622
94687W        W59848  34.918  25.211   4.699
94688W        W59849   1.795  39.545   0.859
94689W        W59850   2.551  41.138   0.217
94690W        W59851  15.750   0.526   1.018
94691W        W59852  18.043   0.815   2.762
94692W        W59853  29.645   4.759   4.787
94693W        W59854  24.678  34.167  14.363
94694W        W59855  23.081  34.428   1.465
94695W        W59856  13.610  43.883  13.381
94696W        W59857  33.443  38.026   0.538
94697W        W59858  42.636  26.251   4.545
94698W        W59859  40.049   7.169   1.441
94699W        W59860  25.078  35.012   1.331
94700W        W59861  40.735  17.611  10.887
94701W        W59862  27.469  19.154  14.981
94702W        W59863   2.336  12.850   0.916
94703W        W59864  32.591   9.321  10.433
94704W        W59865  10.336  13.249  10.644
94705W        W59866  30.462   3.292  10.774
94706W        W59867  40.849   3.807   0.365
94707W        W59868  29.175  37.356   0.989
94708W        W59869  25.710  14.575   0.866
94709W        W59870  33.373  41.386  10.712
94710W        W59871   2.696  32.078  12.530
94711W        W59872  27.191  32.466  12.993
94712W        W59873  14.380  20.384  13.803
94713W        W59874  15.220   2.878  13.187
94714W        W59875  32.878   0.203  13.800
94715W        W59876  20.478   3.913   1.392
94716W        W59877   5.485  16.269  10.570
94717W        W59878  12.714  39.978   4.425
94718W        W59879  11.496   0.169  12.305
94719W        W59880   5.470  22.731   1.200
94720W        W59881  32.928  40.706   4.343
94721W        W59882  14.694  40.563  14.683
94722W        W59883   1.821   4.488  12.003
94723W        W59884  33.494  19.670  11.644
94724W        W59885  32.727  22.101  12.443
94725W        W59886  14.115  42.460  13.416
94726W        W59887   9.039  12.834   4.164
94727W        W59888  43.817  32.978  10.546
94728W        W59889  27.265  29.915  11.542
94729W        W59890  11.555  35.793   4.376
94730W        W59891  11.108  22.546   4.014
94731W        W59892  35.067  14.359   4.158
94732W        W59893  41.835  43.489  14.490
94733W        W59894   4.545   1.520   0.471
94734W        W59895   9.311  17.568  12.038
94735W        W59896  23.238   5.928  12.543
94736W        W59897  42.005  24.439   2.862
94737W        W59898  30.116  21.446  11.992
94738W        W59899  17.175   5.861   0.002
94739W        W59900  10.351  23.724  12.145
94740W        W59901  10.748   8.681   4.271
94741W        W59902  43.716   6.049   0.844
94742W        W59903  35.487  42.512   0.836
94743W        W59904  24.925   5.971  11.595
94744W        W59905  28.111   9.118   0.860
94745W        W59906  29.853  39.505   2.885
94746W        W59907  40.703   0.799  11.115
94747W        W59908  17.397   9.173  12.519
94748W        W59909   6.320   7.882   4.060
94749W        W59910  38.783  19.763   5.194
94750W        W59911  25.375  23.177   0.435
94751W        W59912  28.161  43.344   0.909
94752W        W59913  31.570   8.513   2.555
94753W        W59914  14.246  25.223  10.761
94754W        W59915  17.628   7.699   4.325
94755W        W59916   2.780  16.527   4.307
94756W        W59917  37.424  39.121  10.639
94757W        W59918  16.407  26.571   4.464
94758W        W59919  40.577  12.221   2.240
94759W        W59920   2.018   2.862   0.197
94760W        W59921  24.298  25.967  11.843
94761W        W59922  32.954  29.979   1.641
94762W        W59923   2.071  26.474  10.041
94763W        W59924  26.911  22.330  10.083
94764W        W59925  19.366  15.686   3.710
94765W        W59926  38.320  13.208   1.807
94766W        W59927  42.061  31.161  14.350
94767W        W59928  18.799  37.510  13.200
94768W        W59929  17.117  19.224   0.595
94769W        W59930   6.975  34.053   3.192
94770W        W59931   3.576  14.809  11.145
94771W        W59932  44.272  44.850   9.954
94772W        W59933  43.950  39.949  10.752
94773W        W59934  33.991  14.713  11.235
94774W        W59935  33.498  15.294   4.468
94775W        W59936  25.118  42.675   5.008
94776W        W59937   4.174  42.382   0.422
94777W        W59938   5.255  20.604   4.166
94778W        W59939  26.192  23.429   9.795
94779W        W59940  43.763  21.342   3.722
94780W        W59941  42.892  25.990   3.259
94781W        W59942  44.003  35.216  12.483
94782W        W59943  18.084  20.050   0.252
94783W        W59944  28.002  41.278   2.737
94784W        W59945  30.764  24.541  11.568
94785W        W59946   7.849  31.374  11.947
94786W        W59947   3.175  20.823  11.157
94787W        W59948  21.533  23.239   2.763
94788W        W59949  42.978  12.183   0.916
94789W        W59950  11.080   8.675  13.483
94790W        W59951  25.973   0.374   3.734
94791W        W59952  16.322  10.746  11.020
94792W        W59953   1.394  33.563  11.568
94793W        W59954  24.312  39.297  13.989
94794W        W59955  10.655  28.695   0.285
94795W        W59956  26.648   0.081  14.046
94796W        W59957  15.180  28.580  14.505
94797W        W59958   0.382  38.861  11.721
94798W        W59959  13.121   1.347  11.180
94799W        W59960  12.840   7.149  12.963
94800W        W59961  32.396  12.291   4.113
94801W        W59962  32.448  10.273  10.397
94802W        W59963  39.775  10.665  11.608
94803W        W59964  27.501   4.371  13.575
94804W        W59965   3.271  19.358  12.398
94805W        W59966  13.054  25.547  12.481
94806W        W59967  28.484   6.871  11.077
94807W        W59968  15.208  44.517  12.909
94808W        W59969  14.037  13.265  11.103
94809W        W59970  20.116   8.961   1.960
94810W        W59971  20.381   7.292   0.023
94811W        W59972  38.396   2.004   0.296
94812W        W59973  34.467  10.888   0.349
94813W        W59974  29.694  38.819   0.767
94814W        W59975  44.719  41.023  14.885
94815W        W59976   3.999  19.123  14.552
94816W        W59977  28.871  27.635  11.113
94817W        W59978  22.160  26.044   3.569
94818W        W59979   4.238  38.576   0.354
94819W        W59980  11.028  20.954   3.643
94820W        W59981  25.677  23.487   2.681
94821W        W59982   2.940   5.181  14.962
94822W        W59983  31.624  16.306   3.682
94823W        W59984  35.925  20.283   0.078
94824W        W59985  14.802   7.122   2.261
94825W        W59986  12.503  31.132   3.131
94826W        W59987  20.186  12.734   0.168
94827W        W59988  43.846   3.401   4.496
94828W        W59989  24.586  27.268  12.645
94829W        W59990  13.663  38.975   2.351
94830W        W59991   1.334  12.080  10.160
94831W        W59992  33.118   0.181   0.703
94832W        W59993  21.948  34.851  11.615
94833W        W59994   2.695   3.406  12.620
94834W        W59995  40.908  21.061   2.745
94835W        W59996  20.099  22.666  10.141
94836W        W59997  14.193  38.403   0.161
94837W        W59998  38.750  44.883  12.003
94838W        W59999  19.114  30.562   0.608
94839W        W60000  29.954   5.684  12.474
94840W        W60001  29.513  19.208  14.409
94841W        W60002   8.626   8.400  11.711
94842W        W60003  35.459  27.007   2.954
94843W        W60004  22.389  16.658  14.899
94844W        W60005   0.046  34.995  11.405
94845W        W60006   5.797   6.143   3.768
94846W        W60007  31.815  12.756  12.986
94847W        W60008  11.643   1.465  11.990
94848W        W60009  41.445  35.872   4.239
94849W        W60010  29.113  41.026   2.383
94850W        W60011  42.749  28.302   0.883
94851W        W60012  37.991  44.915  12.552
94852W        W60013  25.617  37.440  14.495
94853W        W60014  35.659   0.913   4.073
94854W        W60015   8.419  23.061   2.143
94855W        W60016  21.507  13.377  11.014
94856W        W60017  21.021  25.579   4.611
94857W        W60018   0.927   5.228   1.759
94858W        W60019  13.259   5.411  11.149
94859W        W60020  16.596  28.277  14.867
94860W        W60021  25.960  28.182   3.213
94861W        W60022   7.894   6.754   3.572
94862W        W60023  20.226  12.028   4.576
94863W        W60024  12.563  19.921   3.760
94864W        W60025   6.006   9.765   3.117
94865W        W60026   4.019   4.729  14.521
94866W        W60027  35.083   3.448  12.610
94867W        W60028  20.449  33.995  10.827
94868W        W60029  24.873  27.996   2.012
94869W        W60030  22.601  10.244  11.041
94870W        W60031  22.017  36.458   0.363
94871W        W60032  22.983  41.769   3.619
94872W        W60033  14.678  32.073   3.894
94873W        W60034  26.114  20.203  10.524
94874W        W60035  32.323   4.840  12.881
94875W        W60036   9.605  18.622   4.421
94876W        W60037  34.847  29.098   4.560
94877W        W60038   2.894   6.161   0.850
94878W        W60039  28.067  41.820  14.364
94879W        W60040  19.208   7.772   0.773
94880W        W60041   7.314  20.305  12.102
94881W        W60042   0.920   1.961  13.502
94882W        W60043  29.135  30.007  11.441
94883W        W60044  21.912  41.162   3.778
94884W        W60045  21.535  40.180  13.938
94885W        W60046   9.381   3.413  10.691
94886W        W60047   7.671  23.638  14.447
94887W        W60048   0.834  36.119  11.119
94888W        W60049  44.159  36.498   1.967
94889W        W60050   9.972  44.574   4.100
94890W        W60051  12.252   7.974   4.069
94891W        W60052   4.685  32.866   2.740
94892W        W60053   6.888  11.700  10.756
94893W        W60054  33.989  24.273  10.642
94894W        W60055  38.060  33.777  12.426
94895W        W60056   4.375  11.806  14.310
94896W        W60057   5.200  19.761  10.144
94897W        W60058  11.734  16.139   4.073
94898W        W60059  23.302  38.960   0.451
94899W        W60060  36.898  30.420   0.699
94900W        W60061  35.449  36.374  11.467
94901W        W60062  16.269  29.272  14.894
94902W        W60063  14.577  18.642  11.573
94903W        W60064  42.316  25.047   4.040
94904W        W60065  13.634  29.471   2.827
94905W        W60066  28.159  33.390  11.516
94906W        W60067  29.627   7.447   3.989
94907W        W60068   9.300  35.836   5.047
94908W        W60069  37.592  27.962   0.452
94909W        W60070  30.238  34.536   0.203
94910W        W60071  24.385  43.969  12.471
94911W        W60072  27.307  12.070  11.187
94912W        W60073   2.082  10.840  12.572
94913W        W60074  31.386  26.181   5.001
94914W        W60075  20.230  37.855  12.355
94915W        W60076  28.687  10.503  11.839
94916W        W60077  11.698  12.839  14.561
94917W        W60078  42.932  27.616  14.356
94918W        W60079  12.148  17.824   2.940
94919W        W60080  29.020  24.432   2.622
94920W        W60081  35.909  32.366   3.658
94921W        W60082  18.531  25.125  11.591
94922W        W60083  33.065  43.879   1.043
94923W        W60084  43.505  43.760   1.263
94924W        W60085   7.873  22.593   2.665
94925W        W60086  28.163  16.828  14.414
94926W        W60087  24.762  15.771   0.504
94927W        W60088  35.650  41.504  11.541
94928W        W60089  16.122  16.515  14.927
94929W        W60090  13.723  44.545   2.729
94930W        W60091  13.239  42.407   0.662
94931W        W60092  15.768  10.420  12.195
94932W        W60093  12.115  25.642  14.796
94933W        W60094  17.130  15.687  12.927
94934W        W60095  26.528  16.081   4.654
94935W        W60096  38.634  32.471   1.629
94936W        W60097  27.519  36.614   1.410
94937W        W60098   8.804  13.338  13.278
94938W        W60099  14.787  20.078  13.090
94939W        W60100  13.381  31.426   0.850
94940W        W60101  21.691  29.927   3.675
94941W        W60102  27.495  18.165   2.891
94942W        W60103  28.052  27.320  13.976
94943W        W60104   3.450  12.586   3.178
94944W        W60105  20.075  34.647   2.302
94945W        W60106  37.926  39.774  13.110
94946W        W60107  31.089   3.997  10.740
94947W        W60108  22.326  15.378   4.608
94948W        W60109   2.345  12.873  13.032
94949W        W60110  24.119   0.410   5.002
94950W        W60111  41.778  34.013   4.177
94951W        W60112  41.442  14.732  10.725
94952W        W60113  12.590   4.961   2.293
94953W        W60114  32.639  27.133   0.909
94954W        W60115   2.794  26.639  10.598
94955W        W60116  11.227  31.227   1.813
94956W        W60117  14.554   9.804  12.723
94957W        W60118  23.205  36.502   2.667
94958W        W60119  43.684  30.105  11.623
94959W        W60120  33.113   7.295  10.538
94960W        W60121   7.659  22.110  13.537
94961W        W60122  43.965  25.252   0.732
94962W        W60123  39.352   8.001  11.640
94963W        W60124   1.740   8.467   2.724
94964W        W60125  24.958  19.146   2.422
94965W        W60126  16.846   6.674  14.665
94966W        W60127  12.696   4.703  11.059
94967W        W60128   8.394  26.467  13.455
94968W        W60129  32.991  28.453  10.756
94969W        W60130  43.565  26.431  10.937
94970W        W60131  22.528  28.727   0.914
94971W        W60132   6.780  12.062   1.942
94972W        W60133  38.444  16.765   0.818
94973W        W60134  10.869  24.102   2.442
94974W        W60135  14.289  32.470  14.057
94975W        W60136   6.333  23.992  13.415
94976W        W60137   2.697  27.622  11.652
94977W        W60138   4.432  44.421  11.149
94978W        W60139  34.935  42.315  11.107
94979W        W60140  30.575  16.657  12.815
94980W        W60141  27.679   5.487   3.259
94981W        W60142  35.504  26.953   4.410
94982W        W60143  38.202  16.094   3.659
94983W        W60144  37.641   9.811   4.275
94984W        W60145   2.321   6.150   3.265
94985W        W60146  19.421  27.195   4.039
94986W        W60147   6.810  27.185  12.562
94987W        W60148  37.463  36.586  13.496
94988W        W60149  28.855   9.399   3.888
94989W        W60150   7.424  33.295   3.974
94990W        W60151  29.158  19.288   2.788
94991W        W60152  24.118  19.779  13.088
94992W        W60153   0.277  38.848  13.408
94993W        W60154  13.733  28.109  11.365
94994W        W60155   6.633  39.966   1.931
94995W        W60156  13.820  11.442   2.821
94996W        W60157  43.856  40.328  14.735
94997W        W60158  44.907  17.656  13.318
94998W        W60159  17.151  28.947   0.959
94999W        W60160  35.538  10.272   4.674
95000W        W60161  23.070  20.646  14.938
95001W        W60162  27.170  30.549  13.878
95002W        W60163   8.214  39.508  12.076
95003W        W60164  33.685  20.074   0.503
95004W        W60165   2.074  26.372  14.520
95005W        W60166  31.826  29.809  14.507
95006W        W60167  10.596  40.000   0.431
95007W        W60168  38.783  24.031  14.233
95008W        W60169  30.400   7.115   0.265
95009W        W60170  17.247  26.032  14.856
95010W        W60171  14.542  44.853   3.736
95011W        W60172  34.846  10.218  12.182
95012W        W60173  32.229  37.407  11.615
95013W        W60174  17.846  36.436  14.701
95014W        W60175  23.503  19.988  12.153
95015W        W60176   6.244  24.578  11.906
95016W        W60177   2.498  43.368   3.794
95017W        W60178  30.359  21.688  12.486
95018W        W60179  44.572   6.376  12.368
95019W        W60180  35.694   0.356   3.809
95020W        W60181  13.618  21.434  12.097
95021W        W60182   0.744  17.591   3.104
95022W        W60183  11.778  35.001  13.382
95023W        W60184  12.274   7.425  12.913
95024W        W60185  33.817   6.149   2.191
95025W        W60186  19.695   0.097  11.566
95026W        W60187  11.583   8.801   0.709
95027W        W60188  40.997  43.964   4.454
95028W        W60189  43.816  10.342   0.743
95029W        W60190  18.000   3.201   4.032
95030W        W60191  26.026  26.657   0.813
95031W        W60192  27.542   2.188   0.726
95032W        W60193  31.067   8.721  11.263
95033W        W60194  16.191  40.451  14.048
95034W        W60195  15.146  13.379   2.449
95035W        W60196  44.482   9.109  14.289
95036W        W60197  23.079  27.392   3.082
95037W        W60198   3.555   3.627  12.132
95038W        W60199  21.088  29.531  13.609
95039W        W60200  21.036  22.946  14.868
95040W        W60201  36.552   7.831   2.555
95041W        W60202  15.155  14.434   4.531
95042W        W60203   8.673   2.556   2.923
95043W        W60204  39.395  10.860  11.096
95044W        W60205  16.881  38.184   2.225
95045W        W60206  25.258  14.747   1.786
95046W        W60207  41.860  11.692   4.605
95047W        W60208  26.999   9.429  12.892
95048W        W60209   3.484  19.043   1.765
95049W        W60210  23.230  35.819   3.330
95050W        W60211  20.978   9.883  11.946
95051W        W60212   2.369  40.868  14.794
95052W        W60213  13.732  18.583  14.116
95053W        W60214  15.288  43.836   3.227
95054W        W60215  22.929  18.075   0.453
95055W        W60216   9.264  19.439   3.826
95056W        W60217  36.923  36.823   4.369
95057W        W60218   7.910  44.228  11.924
95058W        W60219  28.511   4.160   2.636
95059W        W60220  27.957  24.252  11.594
95060W        W60221   1.373  15.597   0.274
95061W        W60222  14.790  16.597   1.965
95062W        W60223   0.252  21.145   2.127
95063W        W60224  32.846  14.314  11.842
95064W        W60225  35.553  36.789  12.685
95065W        W60226   5.841  35.249  13.101
95066W        W60227  28.837  32.609   0.230
95067W        W60228   0.828  42.674  12.396
95068W        W60229  31.496  33.512   1.308
95069W        W60230   8.231  17.006   0.661
95070W        W60231  10.607  19.949  13.506
95071W        W60232   2.033   4.195   0.811
95072W        W60233  17.741  17.392  13.996
95073W        W60234   3.401   7.895  11.921
95074W        W60235  31.838  22.579  13.521
95075W        W60236  38.584   1.919   2.259
95076W        W60237   0.968   1.558   4.147
95077W        W60238  42.414   5.876   4.144
95078W        W60239  42.703  11.130  12.937
95079W        W60240  27.054   9.829  14.625
95080W        W60241   2.884  15.546   0.973
95081W        W60242  28.459  29.442  13.443
95082W        W60243  20.709   1.887   1.439
95083W        W60244  30.588   4.459  14.747
95084W        W60245  28.598  34.099   4.140
95085W        W60246  38.042  10.201   4.286
95086W        W60247  23.718  44.760   2.115
95087W        W60248  34.204  25.309  10.767
95088W        W60249  43.912  17.244   0.824
95089W        W60250   0.994  32.897   3.396
95090W        W60251  11.799   2.786   0.005
95091W        W60252   6.899  43.172   0.022
95092W        W60253  10.420  28.643  13.387
95093W        W60254  17.541   0.477   4.084
95094W        W60255   4.535  40.992   2.653
95095W        W60256   5.954  36.548  13.642
95096W        W60257  17.376   6.205  14.199
95097W        W60258  36.845  24.976  13.882
95098W        W60259  32.348  28.103  12.782
95099W        W60260  24.520  36.022   1.336
95100W        W60261  15.586  34.997  11.236
95101W        W60262  36.500  22.010  13.264
95102W        W60263  25.368  13.750   4.944
95103W        W60264  28.156  14.797   2.869
95104W        W60265  29.193  14.168   1.005
95105W        W60266   5.725  38.360   4.869
95106W        W60267  32.515  13.855  10.789
95107W        W60268   6.194  42.011  14.898
95108W        W60269   3.439  17.812  11.013
95109W        W60270  16.362  30.517   5.079
95110W        W60271  37.358  41.967  10.597
95111W        W60272  21.161  15.028  10.987
95112W        W60273   7.891  33.422  11.392
95113W        W60274  36.994  39.801   5.060
95114W        W60275  25.744  11.238  13.322
95115W        W60276  23.208  36.070   2.090
95116W        W60277  37.841  26.054  11.973
95117W        W60278  24.610   9.391   2.207
95118W        W60279  15.072  31.346  14.436
95119W        W60280   7.190  23.893  13.443
95120W        W60281  22.169  17.646   2.278
95121W        W60282  31.059  34.439  12.464
95122W        W60283   0.136   8.146  13.143
95123W        W60284  17.244  33.418   3.625
95124W        W60285  32.892  11.541  11.127
95125W        W60286  26.867   0.573   1.859
95126W        W60287  26.184   4.610  14.656
95127W        W60288   1.484  24.987  11.322
95128W        W60289   6.228  38.827   3.436
95129W        W60290  27.417   0.928   0.492
95130W        W60291   2.264  31.183   3.297
95131W        W60292  20.507  35.215  12.945
95132W        W60293   6.424   6.737  13.513
95133W        W60294  43.070  19.525   2.176
95134W        W60295  13.298  25.531   3.513
95135W        W60296  31.157  42.125  12.086
95136W        W60297  36.247   3.104   3.598
95137W        W60298  29.242   3.282   1.788
95138W        W60299  14.226  33.313  14.296
95139W        W60300   8.634   9.951   4.109
95140W        W60301  38.727   3.775   3.252
95141W        W60302  20.730  33.171   4.267
95142W        W60303  20.228  26.074   1.862
95143W        W60304  11.975  33.531  14.961
95144W        W60305  24.152  36.972  14.518
95145W        W60306  37.594  31.401  10.755
95146W        W60307  25.120   7.356  13.320
95147W        W60308  26.496  23.982  10.641
95148W        W60309  35.882   6.205   3.195
95149W        W60310  32.185  10.198  13.526
95150W        W60311  24.294  10.952   5.320
95151W        W60312  44.476   8.498   2.185
95152W        W60313  23.010  36.477  10.402
95153W        W60314  24.710   2.684  13.912
95154W        W60315  40.964  37.790  12.529
95155W        W60316  43.182   1.710   1.987
95156W        W60317  15.037  17.995   1.729
95157W        W60318  20.322  11.712   1.287
95158W        W60319   0.020  16.552   2.925
95159W        W60320  13.352   6.352  14.919
95160W        W60321  42.743  39.604  14.299
95161W        W60322  29.389  13.741  14.861
95162W        W60323   7.108  40.879   2.865
95163W        W60324  40.042  19.987   1.952
95164W        W60325  35.836  17.368  11.566
95165W        W60326  21.389   7.241   0.316
95166W        W60327  15.637  27.364   2.457
95167W        W60328  11.301  27.099   1.282
95168W        W60329  34.945  19.266   4.593
95169W        W60330  44.830  30.363  12.478
95170W        W60331  31.904  44.065  11.116
95171W        W60332  32.914  25.577   2.274
95172W        W60333  35.078  23.692   1.338
95173W        W60334   2.480  38.808  10.653
95174W        W60335  36.263  35.356   0.682
95175W        W60336   0.638  24.596  14.411
95176W        W60337  44.707  16.788   0.963
95177W        W60338  33.304  42.182   3.668
95178W        W60339  13.599  36.983   1.594
95179W        W60340  30.816  38.329  10.231
95180W        W60341  19.217  25.433   2.783
95181W        W60342  25.173  24.233   1.333
95182W        W60343  35.279  41.339   2.906
95183W        W60344   2.541  36.365   2.656
95184W        W60345  40.807  13.233  13.403
95185W        W60346  31.415  23.091   1.212
95186W        W60347  19.779  42.261  14.880
95187W        W60348   2.825  33.087   4.122
95188W        W60349  11.373  32.208   1.997
95189W        W60350  12.648  22.485  11.964
95190W        W60351  39.072   0.429   3.247
95191W        W60352  24.206  16.556  12.934
95192W        W60353  41.998  23.201   2.652
95193W        W60354  25.161  28.528   1.276
95194W        W60355   7.160  36.300  13.982
95195W        W60356  44.285  40.654  14.724
95196W        W60357   3.317  37.487  10.141
95197W        W60358   5.183  37.282  12.326
95198W        W60359   3.670  41.751  13.831
95199W        W60360   9.354   5.300   0.882
95200W        W60361  20.982   8.209  13.077
95201W        W60362  40.426  18.299  14.834
95202W        W60363  23.090  20.158   3.553
95203W        W60364  37.572  44.851   1.824
95204W        W60365  15.012  37.350  12.040
95205W        W60366  36.534  16.200   4.228
95206W        W60367  44.702  42.478   3.665
95207W        W60368  39.843   1.388   2.134
95208W        W60369  17.560  43.589   3.204
95209W        W60370  18.805  30.641   5.083
95210W        W60371  23.252  14.720   1.860
95211W        W60372  13.978   4.926   0.474
95212W        W60373  19.300  42.494  10.951
95213W        W60374  18.719  39.839   1.850
95214W        W60375  26.359   4.757  12.860
95215W        W60376  27.506  11.465   0.995
95216W        W60377  23.742  19.738   0.430
95217W        W60378  33.689  16.880   1.455
95218W        W60379  27.481   3.227   0.878
95219W        W60380  35.531  17.195   3.666
95220W        W60381  37.986  39.676   1.779
95221W        W60382  28.109  38.165   4.579
95222W        W60383  32.314  24.225  12.912
95223W        W60384  22.067  44.312  11.919
95224W        W60385  14.686  23.942  13.016
95225W        W60386  29.874  42.972  12.012
95226W        W60387  28.496  20.209  13.096
95227W        W60388  34.441  36.577   3.795
95228W        W60389  42.525  36.339  11.906
95229W        W60390  17.579  40.368   1.711
95230W        W60391  15.208  38.095   2.091
95231W        W60392  18.694   2.707   4.617
95232W        W60393  30.093  20.895   1.703
95233W        W60394   9.213  41.184  11.522
95234W        W60395  18.233   5.456   1.349
95235W        W60396   9.681  35.170  12.505
95236W        W60397  24.693  12.847   1.222
95237W        W60398  28.426  18.091  12.939
95238W        W60399  15.340   4.022   3.389
95239W        W60400  39.836  40.927  12.422
95240W        W60401  29.192  14.181  14.569
95241W        W60402  31.017   9.450   0.123
95242W        W60403  31.905  15.374   1.318
95243W        W60404   5.338   8.106   2.702
95244W        W60405  24.981  23.761   2.362
95245W        W60406  37.638  39.293  11.386
95246W        W60407  31.492  36.093   2.817
95247W        W60408  12.397  31.354   3.844
95248W        W60409  40.429  22.245  13.873
95249W        W60410  39.464  29.114   2.891
95250W        W60411  22.971  22.095  12.810
95251W        W60412   6.184  22.827   3.580
95252W        W60413  36.856  34.541   0.804
95253W        W60414   8.489  27.730   4.722
95254W        W60415   6.078  31.379   2.779
95255W        W60416   2.309  12.843   1.884
95256W        W60417  25.954  40.881   2.834
95257W        W60418  43.456   0.204   4.227
95258W        W60419  41.109  32.067   4.615
95259W        W60420  13.791  19.621   3.266
95260W        W60421  37.658  10.104  13.909
95261W        W60422   9.327  33.918   4.169
95262W        W60423  34.828  23.939  12.962
95263W        W60424   2.540  16.724   0.457
95264W        W60425   6.960  42.307  11.696
95265W        W60426  43.505   0.262  11.586
95266W        W60427  15.639  37.414   2.778
95267W        W60428   4.328   8.724   0.084
95268W        W60429  36.276   3.046   2.771
95269W        W60430   4.161  10.675   1.334
95270W        W60431   5.073  39.648  10.716
95271W        W60432  19.515  16.635   0.918
95272W        W60433  21.562   6.795  10.620
95273W        W60434  11.113   9.256  13.933
95274W        W60435   9.510  10.821  12.528
95275W        W60436   3.777  23.152   3.587
95276W        W60437  24.936   1.695  13.630
95277W        W60438  24.266  44.351   1.860
95278W        W60439  14.985   0.488  12.444
95279W        W60440   4.743   2.724  12.830
95280W        W60441  34.547  26.178   1.180
95281W        W60442  10.290  42.404   1.881
95282W        W60443  18.265  41.281   5.072
95283W        W60444   2.645   1.100  11.678
95284W        W60445  27.482  43.132   0.520
95285W        W60446  18.071  42.516  14.701
95286W        W60447   7.993  11.703  10.235
95287W        W60448  33.783  35.887   3.826
95288W        W60449  32.687  22.290   1.793
95289W        W60450  13.681  24.516   2.111
95290W        W60451  18.635   1.933   1.481
95291W        W60452  15.815  40.903   1.517
95292W        W60453  26.199  23.560  11.626
95293W        W60454   3.261  27.546  10.826
95294W        W60455   3.320   6.895   0.620
95295W        W60456  37.477  23.724   9.699
95296W        W60457  26.557  26.430   4.180
95297W        W60458  18.179  15.862   2.593
95298W        W60459  44.207  41.399  12.527
95299W        W60460  34.488  37.617  12.625
95300W        W60461  37.855  22.459   4.654
95301W        W60462  39.179  38.587  14.264
95302W        W60463  22.531  44.461   1.477
95303W        W60464  40.563  19.794  13.625
95304W        W60465   5.362  39.570   4.172
95305W        W60466  13.372  21.712   3.891
95306W        W60467  12.106   5.352   0.510
95307W        W60468  11.358  39.899  13.066
95308W        W60469  36.162   6.996   3.724
95309W        W60470   6.482  28.997  11.526
95310W        W60471  20.483   0.304   2.822
95311W        W60472  29.351  28.811  12.938
95312W        W60473  17.138  22.040  14.038
95313W        W60474   9.303  37.165  10.702
95314W        W60475  36.485   7.370   4.514
95315W        W60476  16.078  33.900   2.190
95316W        W60477  29.559  10.037   4.107
95317W        W60478   5.335  12.399  14.782
95318W        W60479  28.946   0.703  10.807
95319W        W60480  21.927  23.421   5.010
95320W        W60481  42.414  14.192  12.960
95321W        W60482  41.544  23.585   3.195
95322W        W60483  20.210  18.586   3.750
95323W        W60484   2.722  31.474   3.326
95324W        W60485  12.116  12.365   2.425
95325W        W60486  36.067  33.608  14.031
95326W        W60487  12.242   4.030  13.936
95327W        W60488  22.596  10.434   3.061
95328W        W60489  27.859  23.270   1.203
95329W        W60490  30.735  25.072   1.554
95330W        W60491   9.156  23.560   0.767
95331W        W60492   5.160   1.914  12.447
95332W        W60493  40.836  23.748   1.446
95333W        W60494  12.129  27.341   0.910
95334W        W60495  39.302  41.408  11.928
95335W        W60496  25.071   7.214   4.284
95336W        W60497  35.068  33.741   3.724
95337W        W60498  44.159  15.992   2.649
95338W        W60499  38.935   6.813  14.053
95339W        W60500  28.538   9.201   0.024
95340W        W60501  31.313  42.778   9.691
95341W        W60502  25.976  10.254   4.500
95342W        W60503  29.107  37.578  10.421
95343W        W60504  38.614  39.016   3.043
95344W        W60505  41.196  24.952  12.954
95345W        W60506   1.371  26.723   0.289
95346W        W60507  39.997  27.866   0.093
95347W        W60508  25.706   0.497   1.263
95348W        W60509   9.560   1.027   0.328
95349W        W60510  33.513   5.213  13.175
95350W        W60511  36.565  29.953   3.342
95351W        W60512  27.121  15.876   0.865
95352W        W60513  25.574  33.832  14.618
95353W        W60514  32.563   6.474  13.548
95354W        W60515   5.782   6.003  14.922
95355W        W60516  32.137   4.852   3.311
95356W        W60517   4.347  33.303   2.823
95357W        W60518  13.207   4.683   1.094
95358W        W60519  15.181  42.372  14.292
95359W        W60520  41.831  42.188  12.513
95360W        W60521  16.180  31.371   4.080
95361W        W60522  36.431  32.612   3.684
95362W        W60523  25.493   4.522  10.067
95363W        W60524   6.932  25.985   3.129
95364W        W60525  22.939  41.573  11.073
95365W        W60526  43.421   4.906  10.689
95366W        W60527  36.083   6.753  12.592
95367W        W60528  35.979  30.971   3.657
95368W        W60529   5.735  19.160  12.587
95369W        W60530  11.038  22.882  10.231
95370W        W60531  11.755  12.817  10.875
95371W        W60532   5.986   2.957  11.125
95372W        W60533  26.205  33.642   4.512
95373W        W60534  35.224   6.724   3.172
95374W        W60535  17.347   0.910   5.145
95375W        W60536  12.745  23.016   1.796
95376W        W60537   6.420  38.610   0.810
95377W        W60538  20.585   6.891   1.325
95378W        W60539  11.869  26.637  13.445
95379W        W60540  39.535  15.534  12.061
95380W        W60541  13.826  22.143  10.805
95381W        W60542  34.413  29.582  11.493
95382W        W60543  17.038   0.734   0.455
95383W        W60544  25.606  12.604  14.404
95384W        W60545  22.721  31.645   1.727
95385W        W60546  30.409  12.703  13.035
95386W        W60547  12.079   3.695   1.461
95387W        W60548  30.891  26.006   2.488
95388W        W60549  13.772  29.143   4.331
95389W        W60550  35.306   5.259   4.087
95390W        W60551  19.656  11.525   1.684
95391W        W60552  11.984  27.137   4.736
95392W        W60553   0.312   0.374  13.192
95393W        W60554  22.967   0.172  12.514
95394W        W60555  13.829  39.574   3.822
95395W        W60556   0.062  37.977  13.512
95396W        W60557  43.588  17.791   1.093
95397W        W60558  34.626   0.768   2.224
95398W        W60559  32.129  42.377  11.565
95399W        W60560  39.888  31.893  11.990
95400W        W60561  27.498  17.980   4.234
95401W        W60562  39.668  20.806  14.169
95402W        W60563  36.837   3.472  13.831
95403W        W60564  30.713   5.108   4.993
95404W        W60565  20.743  39.333  13.038
95405W        W60566  36.862  11.306   4.074
95406W        W60567  10.400  14.268  10.334
95407W        W60568  11.834  19.210  13.804
95408W        W60569  26.849  18.781  12.487
95409W        W60570   4.905  19.282  13.444
95410W        W60571  15.750  36.632   1.730
95411W        W60572   5.877  32.982  10.744
95412W        W60573  42.808  23.573   3.610
95413W        W60574  26.956  39.882  14.327
95414W        W60575  27.913  25.646   1.140
95415W        W60576  19.281  22.532   0.516
95416W        W60577  41.712  40.492   3.171
95417W        W60578  23.208   4.556  14.357
95418W        W60579  18.763   8.178  10.721
95419W        W60580  34.642   7.229   0.036
95420W        W60581  27.576  12.173  11.622
95421W        W60582  38.284  20.641  13.906
95422W        W60583   2.437  31.896   0.439
95423W        W60584   8.882   6.342  12.605
95424W        W60585  22.917  20.228  11.228
95425W        W60586  38.331  30.894  11.563
95426W        W60587  39.783  33.396   3.374
95427W        W60588  35.931   4.078   1.989
95428W        W60589  18.142  14.206   4.795
95429W        W60590   4.778  21.976   0.728
95430W        W60591  42.756   0.874  13.009
95431W        W60592  21.522  24.740   2.628
95432W        W60593   7.332  24.409   2.259
95433W        W60594   7.622  42.835   0.504
95434W        W60595  19.951   8.357   1.371
95435W        W60596  21.682  25.451  11.105
95436W        W60597   2.832  25.622  11.894
95437W        W60598   5.950  34.050  12.145
95438W        W60599  30.003   8.726   3.173
95439W        W60600   6.251   1.463   4.536
95440W        W60601  43.594  25.512   5.018
95441W        W60602  44.748  37.502  11.310
95442W        W60603  44.917  18.561  14.800
95443W        W60604   2.470  31.466  11.233
95444W        W60605  17.598   7.960  13.012
95445W        W60606  28.893  10.820   4.925
95446W        W60607  19.848  25.699  11.482
95447W        W60608  22.144  15.900   3.148
95448W        W60609  36.031  30.156   0.346
95449W        W60610  38.397  30.667  13.915
95450W        W60611   5.855  14.278   4.186
95451W        W60612  17.835  12.246  10.706
95452W        W60613  34.142  34.654   1.481
95453W        W60614  19.543  14.303  13.833
95454W        W60615   9.243  24.177   0.996
95455W        W60616  41.652  17.635  12.444
95456W        W60617  25.027  31.341   4.045
95457W        W60618   5.185  42.404   4.208
95458W        W60619  37.820   9.318  10.723
95459W        W60620  44.400  11.656   3.278
95460W        W60621  42.720  43.847  11.334
95461W        W60622  19.692  34.495  13.296
95462W        W60623  14.145  39.390   2.142
95463W        W60624  21.112  20.770  14.343
95464W        W60625  13.663  43.818  12.020
95465W        W60626  15.075  26.899   4.525
95466W        W60627  44.354   3.303   2.411
95467W        W60628   8.641  18.713  12.073
95468W        W60629  42.838  15.736  12.516
95469W        W60630  17.679  18.783   2.708
95470W        W60631  12.520   4.999  13.792
95471W        W60632   0.618  10.219   1.675
95472W        W60633  22.673  27.540   3.343
95473W        W60634  33.406  24.806   0.714
95474W        W60635   3.449   6.498  12.557
95475W        W60636   8.419  38.621   0.710
95476W        W60637   4.140  15.784   2.315
95477W        W60638  42.553  14.375  11.992
95478W        W60639  11.659  16.765   2.789
95479W        W60640  34.803  44.842   2.109
95480W        W60641  25.149  23.706  13.382
95481W        W60642   4.729  25.756   0.001
95482W        W60643   5.370  30.283   0.496
95483W        W60644  33.933  32.086  14.374
95484W        W60645  27.236   1.783  13.096
95485W        W60646  35.377  11.726  11.237
95486W        W60647  41.805  23.666  13.939
95487W        W60648   2.397  15.079   2.065
95488W        W60649  44.654  22.079  13.060
95489W        W60650   6.424  39.157   0.793
95490W        W60651  27.920  10.937   2.443
95491W        W60652  27.915  13.208   3.579
95492W        W60653  28.952  19.296  12.051
95493W        W60654  19.791  11.802   3.671
95494W        W60655   5.906  17.106  12.485
95495W        W60656  14.601   6.117   1.468
95496W        W60657  39.744  17.725   4.564
95497W        W60658  29.020  30.219  10.969
95498W        W60659  41.292  29.811   0.955
95499W        W60660  44.969  27.180   0.680
95500W        W60661  16.565  43.323  13.845
95501W        W60662  22.248   2.301  11.096
95502W        W60663   9.833  13.178  12.585
95503W        W60664   3.997  15.478   4.572
95504W        W60665  43.542   2.942  13.240
95505W        W60666  30.556   2.485   4.536
95506W        W60667  10.293  18.202   1.011
95507W        W60668  10.366  18.093  10.582
95508W        W60669   9.428   4.804  11.053
95509W        W60670  27.237  33.170  10.606
95510W        W60671  37.428   0.206  14.981
95511W        W60672   9.426   9.341   3.816
95512W        W60673  19.147  19.735   1.700
95513W        W60674   0.258  11.813   4.685
95514W        W60675  32.566  30.887   0.649
95515W        W60676   6.185  19.426  11.163
95516W        W60677  39.437  30.684   1.489
95517W        W60678  13.205  42.753   9.884
95518W        W60679  16.646  32.071   0.432
95519W        W60680  37.119  26.676   0.966
95520W        W60681  19.474  29.099   0.557
95521W        W60682   2.919  43.251   0.907
95522W        W60683  22.969  34.093   2.784
95523W        W60684  17.736  27.353  11.499
95524W        W60685  17.165  19.967  11.100
95525W        W60686  35.534  42.874  14.804
95526W        W60687   5.791  41.081  11.694
95527W        W60688  25.710   6.781   1.765
95528W        W60689   0.510   4.726   4.755
95529W        W60690  35.018  41.074   2.476
95530W        W60691  40.048  31.167  14.262
95531W        W60692  16.137  28.475   2.117
95532W        W60693  29.723   5.781   2.195
95533W        W60694  29.173  28.395   4.142
95534W        W60695   6.401  33.089   3.156
95535W        W60696   4.757  24.045   3.014
95536W        W60697   4.893   3.733  10.613
95537W        W60698   9.458  26.957  11.112
95538W        W60699  34.230  30.317  10.909
95539W        W60700  33.833   9.711  14.437
95540W        W60701  29.417  41.337   1.866
95541W        W60702  30.148   9.085  10.947
95542W        W60703   9.986   8.174  11.123
95543W        W60704  36.081  21.244   3.860
95544W        W60705  31.054  42.776  10.649
95545W        W60706  21.190  31.957  11.931
95546W        W60707   2.910   8.128  13.080
95547W        W60708   0.886   5.351   1.197
95548W        W60709  44.258  27.236  14.330
95549W        W60710  20.590  42.495  11.508
95550W        W60711  28.490  29.170  13.889
95551W        W60712  40.969  37.813  11.180
95552W        W60713  40.272  29.607   3.157
95553W        W60714  40.773  25.883  14.869
95554W        W60715  30.155   7.200   4.941
95555W        W60716  30.596  26.598   1.422
95556W        W60717  11.815   1.516   3.699
95557W        W60718  17.220   0.029  11.126
95558W        W60719  26.573  29.398   3.025
95559W        W60720  12.408  15.762   0.753
95560W        W60721  35.898  22.567   4.227
95561W        W60722  35.069   0.246   4.505
95562W        W60723  39.228   0.880   5.036
95563W        W60724  18.430  12.270  11.547
95564W        W60725   6.269  38.815  12.843
95565W        W60726  28.045   7.528   1.751
95566W        W60727  24.873  20.618   4.343
95567W        W60728  21.978  24.102  11.615
95568W        W60729  13.223  36.973  10.473
95569W        W60730  43.318  15.055   3.547
95570W        W60731  38.892  40.550  13.120
95571W        W60732  20.052  37.448   3.213
95572W        W60733  14.130  34.614  13.384
95573W        W60734  18.118   7.364  11.018
95574W        W60735  19.347   1.909  10.888
95575W        W60736  28.645  17.772  10.433
95576W        W60737  17.197  42.273  12.365
95577W        W60738  41.818  31.224  14.809
95578W        W60739  38.425  25.910  14.336
95579W        W60740   5.850   9.198  12.567
95580W        W60741   3.663  35.259   1.209
95581W        W60742  43.927  41.192  12.076
95582W        W60743  25.493  43.973  12.371
95583W        W60744  24.405  34.489   2.804
95584W        W60745  32.970  37.261  10.240
95585W        W60746  27.293  15.267   4.606
95586W        W60747  13.733  22.582  14.814
95587W        W60748  39.126  38.098   1.286
95588W        W60749   9.880   3.488   3.904
95589W        W60750   5.484  29.668  10.759
95590W        W60751  20.688  10.958  13.002
95591W        W60752  27.990  22.047   1.679
95592W        W60753   9.392  24.894   1.895
95593W        W60754   0.058  30.429  11.596
95594W        W60755  16.876  40.821   2.365
95595W        W60756   9.199   8.749   0.971
95596W        W60757  23.920  41.287  11.251
95597W        W60758  34.055  40.172   0.831
95598W        W60759   3.862  21.202  12.856
95599W        W60760   9.379  13.179  14.939
95600W        W60761  30.934  13.803  12.372
95601W        W60762  43.337  20.912  12.095
95602W        W60763  21.131  26.050  14.509
95603W        W60764  28.068  24.334   1.219
95604W        W60765   3.130  39.976  12.386
95605W        W60766  17.764   1.639   1.896
95606W        W60767  32.588   5.602  14.758
95607W        W60768   7.577  13.683   1.248
95608W        W60769  18.478  12.785  11.668
95609W        W60770  29.838  32.048   0.961
95610W        W60771   7.647  25.994  12.544
95611W        W60772  23.529  29.681   4.835
95612W        W60773  18.661   4.354  13.016
95613W        W60774  44.620  29.473  12.209
95614W        W60775  37.127  21.586   2.870
95615W        W60776  24.453  14.417   2.433
95616W        W60777  21.752  32.004   0.952
95617W        W60778  28.698  26.022   1.334
95618W        W60779  25.361  41.755  11.537
95619W        W60780   1.179  42.675   1.259
95620W        W60781  18.089   7.936   4.478
95621W        W60782   5.939  10.528  14.506
95622W        W60783  44.325   8.296   3.183
95623W        W60784  25.045  40.492  10.823
95624W        W60785  21.699  18.096  13.564
95625W        W60786  38.915  13.691   2.488
95626W        W60787  39.156   4.790  14.305
95627W        W60788  30.593  30.157  11.661
95628W        W60789  28.467  17.179  10.713
95629W        W60790  10.334  43.104   2.645
95630W        W60791  11.130   1.992  13.380
95631W        W60792   8.949   8.000   3.614
95632W        W60793  40.543  11.666   3.407
95633W        W60794  14.841  41.392   1.447
95634W        W60795  17.529  43.139  14.927
95635W        W60796   5.411   8.277  13.715
95636W        W60797  10.879  19.787  11.480
95637W        W60798  24.622  21.291   2.756
95638W        W60799  12.550  20.293   3.270
95639W        W60800  10.635  41.795   2.697
95640W        W60801  22.542  10.700  12.190
95641W        W60802  29.180  35.876   2.338
95642W        W60803  25.592   7.873   4.030
95643W        W60804  21.730   1.265  14.497
95644W        W60805  38.981  22.950  12.849
95645W        W60806   8.832   3.860  10.748
95646W        W60807  22.605   6.007   2.270
95647W        W60808  28.544  22.796   0.902
95648W        W60809  13.115   8.574  14.640
95649W        W60810  32.352  22.689   1.842
95650W        W60811  17.219   5.364  11.485
95651W        W60812  32.994  26.884  12.023
95652W        W60813  22.777   0.303   1.516
95653W        W60814  10.558   6.652  13.060
95654W        W60815   4.178  20.043   1.725
95655W        W60816  28.534  22.808  10.989
95656W        W60817  31.246   7.463  13.967
95657W        W60818  29.734  26.545   4.122
95658W        W60819  40.343  17.789  11.884
95659W        W60820  26.297  18.206   3.248
95660W        W60821  29.925   3.300   3.349
95661W        W60822  39.780  17.328   4.900
95662W        W60823  29.276  28.165   2.307
95663W        W60824  38.836   1.637  11.066
95664W        W60825  19.693   5.288  11.077
95665W        W60826  38.335   5.269  14.523
95666W        W60827  40.546   2.724   1.172
95667W        W60828  39.809  26.533  13.592
95668W        W60829  18.562  13.067   1.947
95669W        W60830  20.787  21.629  13.805
95670W        W60831  36.869  42.952  11.547
95671W        W60832  43.584  36.744   1.174
95672W        W60833  32.022  27.572   4.436
95673W        W60834  30.453  26.811   5.051
95674W        W60835  26.756   2.200  13.447
95675W        W60836  39.839  32.890  12.528
95676W        W60837  14.470   2.901  14.323
95677W        W60838  14.605  39.999   3.582
95678W        W60839  36.384  34.177  11.083
95679W        W60840  18.624   4.816  14.947
95680W        W60841   4.590  33.984   1.147
95681W        W60842   5.381  24.393  14.432
95682W        W60843   7.343  18.969   4.938
95683W        W60844  12.224  17.071  12.874
95684W        W60845  14.991   7.865  10.869
95685W        W60846  17.331   4.125  12.811
95686W        W60847   6.266  26.507   1.422
95687W        W60848   7.341  25.491   1.285
95688W        W60849  13.652  40.544   4.738
95689W        W60850   5.408   2.061   4.176
95690W        W60851  42.521  17.703  11.966
95691W        W60852  29.542  14.269   2.169
95692W        W60853  37.429  14.139  11.244
95693W        W60854  13.727  42.252  11.376
95694W        W60855   1.892  24.281   2.275
95695W        W60856  27.134  31.933  11.979
95696W        W60857  37.349   3.649   3.722
95697W        W60858  43.336  11.247  11.907
95698W        W60859  31.354   5.372  14.039
95699W        W60860  16.629  10.720   2.220
95700W        W60861   7.917  22.082  11.766
95701W        W60862  19.570  41.042  13.413
95702W        W60863   2.067  27.023  13.041
95703W        W60864  11.677   7.439  10.531
95704W        W60865   5.331  22.968  14.477
95705W        W60866  33.949  37.319   9.844
95706W        W60867   5.417  34.804  13.592
95707W        W60868  43.611  23.490  14.744
95708W        W60869  21.162  36.521   4.119
95709W        W60870   0.537  42.615   3.127
95710W        W60871  10.333  25.699  12.313
95711W        W60872  25.516  25.269   3.331
95712W        W60873  44.281  43.374  11.607
95713W        W60874  29.058   5.754  11.575
95714W        W60875  41.248  34.022   2.726
95715W        W60876  40.923  11.868  12.903
95716W        W60877  33.053  29.598  11.222
95717W        W60878   7.398  31.321  13.148
95718W        W60879  41.459  18.721   3.157
95719W        W60880  16.188  30.850  14.384
95720W        W60881  43.463  11.736   3.056
95721W        W60882  20.703  42.741  11.034
95722W        W60883   2.349  15.389   3.800
95723W        W60884  40.099  17.607  14.324
95724W        W60885  43.130  32.870   9.729
95725W        W60886  21.175  14.802  12.349
95726W        W60887  30.617  11.798   4.562
95727W        W60888  42.781  15.561   2.725
95728W        W60889   9.126  14.188   0.829
95729W        W60890  22.001  39.311  14.031
95730W        W60891  16.772  24.068  13.794
95731W        W60892  43.295  23.901   2.313
95732W        W60893   1.563   6.341   2.875
95733W        W60894  39.983  17.278   1.237
95734W        W60895   5.369   4.030  11.614
95735W        W60896   6.813   8.835  12.517
95736W        W60897  23.654  18.706  12.649
95737W        W60898  11.637  17.755  11.556
95738W        W60899  26.579  27.289   4.433
95739W        W60900  28.888   0.366   2.765
95740W        W60901  44.478  39.454  14.735
95741W        W60902  26.360  24.166  12.361
95742W        W60903  35.968  42.304   0.713
95743W        W60904  17.949  29.930   4.113
95744W        W60905   1.813   2.719  10.689
95745W        W60906   1.261  28.193  12.028
95746W        W60907   6.284   0.921   3.234
95747W        W60908  10.601  28.544   1.748
95748W        W60909  41.939  41.441   1.984
95749W        W60910  41.928  38.989   2.260
95750W        W60911  18.536  11.150   4.609
95751W        W60912  22.184  15.332  14.248
95752W        W60913  26.731  18.764   2.640
95753W        W60914  39.077  38.771   9.971
95754W        W60915  10.648   6.507  12.578
95755W        W60916   5.280  28.529   4.579
95756W        W60917  13.059  43.992  13.461
95757W        W60918  27.686  10.720   0.276
95758W        W60919  38.833  20.340   0.299
95759W        W60920  20.067  24.406   9.856
95760W        W60921  40.479  28.067  13.953
95761W        W60922  33.581  18.707   2.551
95762W        W60923   9.693  15.243  13.339
95763W        W60924  37.272  13.883  12.483
95764W        W60925  33.802  28.890   2.664
95765W        W60926  12.077  35.614   1.306
95766W        W60927  44.520  29.071  11.935
95767W        W60928   7.103  27.424   0.347
95768W        W60929  44.811  11.240  12.973
95769W        W60930  27.265  23.654  11.539
95770W        W60931  43.263  42.335  10.760
95771W        W60932  29.900  34.713  13.470
95772W        W60933   6.394   0.862   2.729
95773W        W60934  23.568   0.350  13.700
95774W        W60935  33.415  18.238   1.869
95775W        W60936  24.659  10.646  12.937
95776W        W60937  12.696  13.423   2.935
95777W        W60938  29.226  30.270   0.567
95778W        W60939   7.679  42.751  11.153
95779W        W60940  29.302   9.719   3.686
95780W        W60941  36.426  37.511   3.371
95781W        W60942  36.127  25.962   3.455
95782W        W60943  26.543  27.542   1.444
95783W        W60944  17.271  42.509   1.241
95784W        W60945  30.658  44.204  11.938
95785W        W60946  42.537  29.904  14.042
95786W        W60947  14.474  28.109  14.196
95787W        W60948  18.134  14.753   1.366
95788W        W60949  30.923  35.105  10.473
95789W        W60950  38.187  44.524  11.220
95790W        W60951  15.349   6.153  12.188
95791W        W60952   6.816  43.788   3.906
95792W        W60953  37.295  34.944  11.505
95793W        W60954  10.962  35.189  14.853
95794W        W60955   0.914  26.032   3.325
95795W        W60956   5.474  23.484  11.541
95796W        W60957  37.309  44.226  14.932
95797W        W60958   9.788  10.397  12.582
95798W        W60959  35.468  42.628  12.341
95799W        W60960  16.203   8.220  14.905
95800W        W60961   4.424  17.150  14.522
95801W        W60962   7.955  18.106  11.627
95802W        W60963  11.789  25.118   0.930
95803W        W60964  39.093   7.743  13.975
95804W        W60965  17.057  34.944  12.453
95805W        W60966  43.553  29.738   3.770
95806W        W60967  25.770  29.743   1.194
95807W        W60968  31.741  23.523   3.089
95808W        W60969  10.190  10.903  12.969
95809W        W60970   8.437  35.337   2.856
95810W        W60971  16.283  35.304   2.447
95811W        W60972  10.822  39.027   3.374
95812W        W60973   1.895  11.994   2.781
95813W        W60974  13.904  13.826  14.574
95814W        W60975  27.611  25.198   1.223
95815W        W60976  40.119  34.074  12.396
95816W        W60977  13.825  33.681  13.419
95817W        W60978   9.564  22.377   2.889
95818W        W60979  44.716  29.197   1.720
95819W        W60980   5.307  27.602   2.515
95820W        W60981  37.567  38.930   3.686
95821W        W60982  13.378   0.148   1.812
95822W        W60983  35.092  17.736   1.238
95823W        W60984  27.448  22.355  11.323
95824W        W60985  38.933   3.890   4.630
95825W        W60986  27.338  33.917   3.889
95826W        W60987   3.996  13.633   4.976
95827W        W60988  21.041  12.619   4.303
95828W        W60989  20.722  11.724   3.861
95829W        W60990   4.241  25.101   1.297
95830W        W60991  16.841  36.479  11.304
95831W        W60992  30.866   9.619  11.530
95832W        W60993  39.028  16.674  12.900
95833W        W60994   4.319  11.904   0.895
95834W        W60995  10.601  29.229   0.241
95835W        W60996  30.545  11.276   4.560
95836W        W60997  28.817  21.746  12.397
95837W        W60998   0.545   9.674   5.438
95838W        W60999  19.839  28.663  13.409
95839W        W61000  14.189  33.499  12.607
95840W        W61001  13.023  18.148  12.926
95841W        W61002  16.769  15.168  11.549
95842W        W61003  37.386   8.379  11.025
95843W        W61004  13.762  21.961   2.144
95844W        W61005  29.942  12.151   1.012
95845W        W61006  22.016  10.887  10.719
95846W        W61007  28.632  39.515   0.449
95847W        W61008  38.341  37.622   1.270
95848W        W61009   2.093   9.928   4.224
95849W        W61010  42.750  13.899   0.232
95850W        W61011  38.352  34.282  12.079
95851W        W61012  27.140   7.625   0.795
95852W        W61013  14.356   8.975   0.390
95853W        W61014   4.810  42.198  14.904
95854W        W61015  36.834  26.311  14.771
95855W        W61016   8.932   3.783   2.786
95856W        W61017  25.580   0.053  11.720
95857W        W61018  21.779  26.367  14.244
95858W        W61019  17.212   4.672  13.457
95859W        W61020  30.704  19.295   4.086
95860W        W61021   4.961  10.769  12.201
95861W        W61022  26.650  26.196   2.476
95862W        W61023   9.162  18.341   2.769
95863W        W61024   9.610  13.134  11.641
95864W        W61025   5.659  18.516   1.639
95865W        W61026  12.860  34.942   3.611
95866W        W61027  38.061  31.207  11.193
95867W        W61028   0.813  18.186  12.008
95868W        W61029  10.652  44.806  12.641
95869W        W61030   6.037  12.964   1.282
95870W        W61031  36.364  43.002  14.406
95871W        W61032   7.067  21.545  10.997
95872W        W61033   9.855  34.172  12.584
95873W        W61034  18.343   8.985  13.935
95874W        W61035  40.424  36.595   1.183
95875W        W61036  33.533   9.849  13.363
95876W        W61037  35.939  38.205   0.770
95877W        W61038  12.310   2.476   3.421
95878W        W61039  39.854  35.973   3.540
95879W        W61040   2.342  35.966  10.780
95880W        W61041  21.519   3.533   2.113
95881W        W61042  23.543  13.215   3.518
95882W        W61043  33.474  13.219   2.739
95883W        W61044  35.701  28.950  12.207
95884W        W61045  24.723  24.218   2.281
95885W        W61046  39.785   8.908   2.803
95886W        W61047  42.900  17.247   1.387
95887W        W61048   2.707   7.635  14.996
95888W        W61049  35.568  43.777  11.537
95889W        W61050  40.359   3.881  10.741
95890W        W61051  26.108  24.077  10.932
95891W        W61052   6.259  44.992  12.005
95892W        W61053   9.610  30.941   2.798
95893W        W61054  41.285  36.775   2.939
95894W        W61055  33.747  27.456   1.991
95895W        W61056  28.504  37.986   0.700
95896W        W61057  37.923   9.283   3.525
95897W        W61058   8.852  21.274   0.367
95898W        W61059  19.058  24.522   4.696
95899W        W61060  41.992  36.631  12.550
95900W        W61061  32.141  23.527  12.035
95901W        W61062   7.576  43.378  13.867
95902W        W61063  10.206   0.527  11.556
95903W        W61064  35.824  27.598  11.545
95904W        W61065  39.564  18.814  12.422
95905W        W61066  34.683   3.018  11.154
95906W        W61067  35.134  21.391   4.311
95907W        W61068  35.699  24.702  12.028
95908W        W61069  31.807  21.924   3.919
95909W        W61070  33.859   6.794  10.641
95910W        W61071  32.382  42.877  10.628
95911W        W61072  12.615  13.740   3.541
95912W        W61073  31.863  20.040   1.826
95913W        W61074  11.640   2.478  14.465
95914W        W61075   7.378  44.260  13.980
95915W        W61076  27.712  15.249  14.348
95916W        W61077  29.935   3.872  13.538
95917W        W61078  39.944  32.793  14.785
95918W        W61079  27.998  22.557  12.031
95919W        W61080  44.926  20.679   4.515
95920W        W61081  34.433   8.360   1.716
95921W        W61082  11.106  27.488  10.358
95922W        W61083  39.726  19.600   4.194
95923W        W61084  16.080  28.879   1.773
95924W        W61085  10.340  25.107  11.164
95925W        W61086  22.125  24.618  14.781
95926W        W61087   2.438  21.291   0.319
95927W        W61088   4.286   5.611  12.463
95928W        W61089  44.206  37.828   4.870
95929W        W61090  39.548  10.890  13.780
95930W        W61091   2.210  38.273  13.435
95931W        W61092  34.001  42.146  10.217
95932W        W61093  43.090  36.331   2.196
95933W        W61094   8.686  14.915   4.149
95934W        W61095   7.928  40.891   0.939
95935W        W61096  41.116   6.519   0.387
95936W        W61097   2.983  18.984   3.206
95937W        W61098  41.856  21.136   0.989
95938W        W61099  28.347  39.508  14.994
95939W        W61100  31.372  19.655   4.804
95940W        W61101  33.955  23.461   3.569
95941W        W61102   2.487  38.683   0.836
95942W        W61103  29.806  26.027  13.370
95943W        W61104  27.324  35.880   4.999
95944W        W61105  17.770  20.084  12.600
95945W        W61106  26.700  33.162  10.558
95946W        W61107  36.511  25.549   3.342
95947W        W61108  15.072  40.863   2.737
95948W        W61109  33.130  36.934  12.310
95949W        W61110  21.015  43.236  11.525
95950W        W61111   5.356  35.083  11.619
95951W        W61112  26.530  25.038  10.373
95952W        W61113  14.634   0.262   4.397
95953W        W61114  20.402  10.673  13.570
95954W        W61115  22.161  10.549  11.062
95955W        W61116  31.424  23.595   0.839
95956W        W61117  41.007  33.471  13.428
95957W        W61118  29.147  31.873   2.313
95958W        W61119  40.837  34.626   0.256
95959W        W61120  11.894  10.923  10.619
95960W        W61121  28.772  35.567  13.395
95961W        W61122  36.775   5.050   2.248
95962W        W61123   1.640  13.367   3.211
95963W        W61124  17.286   0.313   2.798
95964W        W61125  43.278  32.388  10.933
95965W        W61126  37.211  28.438   1.207
95966W        W61127  14.511  44.362  10.245
95967W        W61128  42.958   0.713   4.573
95968W        W61129   5.691  43.401  14.457
95969W        W61130   6.385  10.831  10.700
95970W        W61131  21.951   8.716  12.576
95971W        W61132   8.841   6.254   3.433
95972W        W61133  26.454  18.832  12.117
95973W        W61134  29.870  12.209   3.710
95974W        W61135  41.699   1.789   0.108
95975W        W61136   5.397  38.355   3.860
95976W        W61137  29.615  25.433   0.899
95977W        W61138  22.223  15.775  11.165
95978W        W61139  42.553  20.645  13.902
95979W        W61140   5.725   4.346  10.585
95980W        W61141  12.373  26.053   0.001
95981W        W61142  31.935  22.272  13.953
95982W        W61143  16.134  27.264  12.853
95983W        W61144  22.130  18.094  11.084
95984W        W61145   6.726  43.532   1.287
95985W        W61146   7.665  10.208  13.637
95986W        W61147  35.343   4.873   2.794
95987W        W61148  25.603  18.694   2.201
95988W        W61149  41.913  11.925  12.116
95989W        W61150  37.623  18.687  10.768
95990W        W61151  18.496  13.070   3.286
95991W        W61152   6.074  16.983   3.537
95992W        W61153  27.850   7.362   1.306
95993W        W61154  14.785  24.569   4.563
95994W        W61155   5.486   8.177   4.046
95995W        W61156   4.388  15.139  13.884
95996W        W61157   2.319  39.215  12.906
95997W        W61158  26.659   6.261   1.328
95998W        W61159  12.359  24.902   4.095
95999W        W61160  30.914  31.575  13.782
96000W        W61161  43.825   2.484  10.606
96001W        W61162   1.752  34.851   1.576
96002W        W61163  13.251  16.069   2.435
96003W        W61164  34.062   7.694  13.415
96004W        W61165  14.705  10.266   1.880
96005W        W61166   3.470  38.064   1.397
96006W        W61167  37.587  36.865  12.434
96007W        W61168  31.701  17.113   5.304
96008W        W61169  23.603  44.980  12.917
96009W        W61170  22.968  34.460  12.401
96010W        W61171   4.458   6.878  13.630
96011W        W61172  40.428  12.877  14.294
96012W        W61173  24.967  33.940  12.976
96013W        W61174  42.488   8.655  10.904
96014W        W61175  37.382  32.104  12.097
96015W        W61176   8.807  40.831  13.816
96016W        W61177  23.449  32.091  13.999
96017W        W61178  19.553  36.415   4.535
96018W        W61179   3.565  34.434   3.319
96019W        W61180   4.933   8.891   4.218
96020W        W61181  15.433  41.384  12.972
96021W        W61182  29.859  22.696  13.357
96022W        W61183   8.107  21.704   4.692
96023W        W61184  43.311  33.423   0.490
96024W        W61185  26.602   1.900  10.739
96025W        W61186   9.891  23.786   3.774
96026W        W61187  37.315  44.733  13.977
96027W        W61188   1.543  33.995   0.685
96028W        W61189   6.527  32.047  11.203
96029W        W61190  16.091  22.844   0.827
96030W        W61191  37.776  33.539  14.244
96031W        W61192   1.504  27.218   0.240
96032W        W61193  30.567  28.999  12.044
96033W        W61194  33.600  18.726  13.984
96034W        W61195  28.501  17.657  14.522
96035W        W61196  28.577   6.420   0.151
96036W        W61197   3.955   6.715   2.809
96037W        W61198   3.060   2.688   0.378
96038W        W61199  28.346  12.638   1.406
96039W        W61200  15.768   8.470   1.516
96040W        W61201  23.569  32.163   4.782
96041W        W61202  44.530  25.708  13.313
96042W        W61203  13.814   5.792   3.809
96043W        W61204  24.800  30.444  13.445
96044W        W61205  44.169  33.076   2.335
96045W        W61206  21.261  18.819  13.324
96046W        W61207   1.895  15.422  11.785
96047W        W61208  25.268  38.589  12.683
96048W        W61209  40.006   5.192  10.453
96049W        W61210  40.700  17.245   0.431
96050W        W61211  41.563  34.386   0.413
96051W        W61212  14.229  38.855  14.896
96052W        W61213  15.125  16.327   2.236
96053W        W61214  23.351  12.159   1.515
96054W        W61215  12.094  32.385  12.029
96055W        W61216   8.756   0.403   0.235
96056W        W61217  32.013  19.350  13.507
96057W        W61218  38.925  24.191   3.647
96058W        W61219  25.547   0.715   1.717
96059W        W61220  34.969  13.259  11.845
96060W        W61221   6.607  16.250  14.724
96061W        W61222  14.922   2.951   0.673
96062W        W61223  30.915  21.635   5.467
96063W        W61224  11.703  19.600   9.820
96064W        W61225  32.605  10.261  14.515
96065W        W61226  36.918  30.426   4.507
96066W        W61227  42.388  41.301   2.197
96067W        W61228  44.325   6.395  14.993
96068W        W61229   0.664   1.389   2.791
96069W        W61230  29.220  14.470   5.051
96070W        W61231  29.448  13.522  14.367
96071W        W61232  19.323  24.974   4.717
96072W        W61233   1.924   6.938  11.195
96073W        W61234   8.265  28.901  13.751
96074W        W61235  24.750  25.540  10.733
96075W        W61236  33.534  26.795   3.386
96076W        W61237  29.482  16.905   4.163
96077W        W61238  17.046  18.246   4.113
96078W        W61239  34.053  15.100   3.124
96079W        W61240   6.663  40.587  11.128
96080W        W61241  19.771   9.217  11.657
96081W        W61242  42.282  19.642  14.583
96082W        W61243  23.261  38.381  14.808
96083W        W61244   2.029   1.784  11.614
96084W        W61245  21.062  40.826   3.524
96085W        W61246  12.325  21.200   0.891
96086W        W61247  23.760  38.316  12.120
96087W        W61248  34.790   2.153   3.216
96088W        W61249  42.349  40.231  11.532
96089W        W61250  30.749  22.060   0.117
96090W        W61251  21.501  41.267   5.084
96091W        W61252   3.697   4.720  11.578
96092W        W61253  35.522  38.323  14.018
96093W        W61254  28.381   2.907   1.943
96094W        W61255  25.200  24.108  10.647
96095W        W61256  30.681  22.572  14.408
96096W        W61257  22.616  26.436   5.019
96097W        W61258  41.123  37.096  13.415
96098W        W61259  17.795  32.121   1.295
96099W        W61260  27.370  29.970  12.366
96100W        W61261  21.056  22.249  14.447
96101W        W61262  24.200  25.205   3.711
96102W        W61263  32.859  35.073  10.664
96103W        W61264   6.067  42.718   3.757
96104W        W61265  34.134  23.775   2.062
96105W        W61266   3.369  43.331  12.795
96106W        W61267  10.908  11.361  12.420
96107W        W61268  24.456   0.460  14.017
96108W        W61269   6.470   6.274   2.148
96109W        W61270  14.226  26.174  12.230
96110W        W61271  17.706   1.032   4.064
96111W        W61272  41.798  13.103   4.229
96112W        W61273  15.594  12.170  12.915
96113W        W61274  29.114  39.776  11.630
96114W        W61275  21.981   2.719   3.896
96115W        W61276  16.445  33.622  12.419
96116W        W61277  11.867  43.429  13.740
96117W        W61278   1.426  25.967  12.613
96118W        W61279   2.961   1.236   3.184
96119W        W61280  19.762   1.630  12.578
96120W        W61281  33.423  20.774   3.723
96121W        W61282   4.211  21.804   0.266
96122W        W61283  16.706  42.026   4.597
96123W        W61284  27.048  32.145   0.895
96124W        W61285   0.381  30.058  14.359
96125W        W61286   2.354  36.803   3.320
96126W        W61287  15.249  14.683  13.889
96127W        W61288   3.461   4.453   3.851
96128W        W61289   5.165  39.834  12.477
96129W        W61290  41.421  28.788  11.093
96130W        W61291  29.453  26.721  13.424
96131W        W61292   4.677  16.860   1.351
96132W        W61293  30.412  15.109   4.229
96133W        W61294  27.410  24.159  11.555
96134W        W61295  42.152  13.064  12.452
96135W        W61296  10.739  27.551   1.953
96136W        W61297   7.446  22.789   0.945
96137W        W61298  29.022  13.257  13.183
96138W        W61299  22.203  29.793  12.533
96139W        W61300  13.330  39.185   1.643
96140W        W61301  20.592  22.454  12.926
96141W        W61302  12.929  32.064  12.567
96142W        W61303  33.791   9.881  12.863
96143W        W61304  43.916   0.354   3.659
96144W        W61305  21.713  30.750   4.952
96145W        W61306  17.552  12.750   2.688
96146W        W61307  34.426  12.869   3.558
96147W        W61308  33.395  17.787   1.625
96148W        W61309  10.719  32.056   2.631
96149W        W61310  41.501  25.652  12.568
96150W        W61311  22.941  31.063  14.449
96151W        W61312  25.424  38.611  12.174
96152W        W61313  31.368  30.239  13.557
96153W        W61314  32.815  12.624  12.027
96154W        W61315  43.173  25.606  10.799
96155W        W61316  20.997   2.704  12.075
96156W        W61317   9.920   1.826  14.296
96157W        W61318  42.581   7.105   3.639
96158W        W61319   1.716  40.955   2.403
96159W        W61320  16.824  17.534   1.196
96160W        W61321  18.260   9.592  14.477
96161W        W61322   9.646  35.348  10.757
96162W        W61323  31.344   7.373  11.395
96163W        W61324  28.617  16.701   3.445
96164W        W61325   6.674  40.013   3.713
96165W        W61326  12.265   3.512  12.996
96166W        W61327  18.126   0.273  14.999
96167W        W61328  16.239   2.358   2.566
96168W        W61329   1.533  33.086   1.231
96169W        W61330  17.690   1.930  14.404
96170W        W61331  32.325  24.081   0.783
96171W        W61332  44.083  39.011  11.143
96172W        W61333  30.619   9.804  13.254
96173W        W61334  44.982   6.618   2.729
96174W        W61335   4.185   3.383   4.106
96175W        W61336  35.789  23.508  12.872
96176W        W61337   5.048  23.261  10.673
96177W        W61338  14.107  41.981  11.143
96178W        W61339  19.544  13.449  12.926
96179W        W61340  13.678   2.479   1.142
96180W        W61341  10.254  23.277  11.496
96181W        W61342  34.983  18.712   1.395
96182W        W61343  41.862  44.887  13.359
96183W        W61344  37.956   5.531   0.811
96184W        W61345  20.595  18.466   0.230
96185W        W61346  44.927  24.242  12.585
96186W        W61347  21.606  39.329  12.436
96187W        W61348   7.671  29.602   0.251
96188W        W61349   1.649   3.829   0.376
96189W        W61350  32.635  36.106  13.227
96190W        W61351  17.130  16.952   3.410
96191W        W61352  25.320  29.668   3.344
96192W        W61353  24.666   0.378  13.548
96193W        W61354  44.530  24.972   1.668
96194W        W61355  20.384  13.556  11.455
96195W        W61356   6.409  14.124   9.800
96196W        W61357  30.297   3.955  11.524
96197W        W61358   6.158  42.564  10.703
96198W        W61359  39.110  29.866  11.197
96199W        W61360   2.780  39.310   1.340
96200W        W61361  31.336  29.120  11.080
96201W        W61362   2.310   5.470   4.715
96202W        W61363   7.824   3.967  12.394
96203W        W61364  32.041  31.860  14.875
96204W        W61365  38.670   3.531   2.659
96205W        W61366  11.724  39.939  10.570
96206W        W61367   5.355  36.532  12.866
96207W        W61368  32.806  38.349   5.307
96208W        W61369  23.352   3.119   1.784
96209W        W61370  41.322  13.329  11.230
96210W        W61371   2.970  38.973   2.649
96211W        W61372  11.106  26.463   1.919
96212W        W61373   6.767  35.131   4.089
96213W        W61374  35.628  13.474  11.144
96214W        W61375  12.938  42.460  10.728
96215W        W61376  34.918  30.623   4.010
96216W        W61377  10.583  26.115  14.345
96217W        W61378  39.365   8.617  14.505
96218W        W61379  33.471  14.054  11.173
96219W        W61380  24.443  19.357   1.852
96220W        W61381  16.742  42.089  10.620
96221W        W61382  13.108   9.508   3.731
96222W        W61383   8.297  16.124  13.977
96223W        W61384   7.663   2.421   1.042
96224W        W61385  35.599  34.893   1.118
96225W        W61386   8.101  20.151  12.692
96226W        W61387  42.797   1.568  14.013
96227W        W61388   1.326  18.097  11.587
96228W        W61389  12.126  20.188   4.560
96229W        W61390  20.205  24.550  11.480
96230W        W61391  27.038  17.283  12.535
96231W        W61392  30.134  13.191  12.357
96232W        W61393   4.146  24.063  14.479
96233W        W61394   5.873   1.204  12.449
96234W        W61395   1.416   4.362   4.919
96235W        W61396   5.818   7.727  13.772
96236W        W61397  23.861  44.369  10.853
96237W        W61398  18.099  13.588  13.081
96238W        W61399  42.634  42.520   3.644
96239W        W61400   3.029  36.964   0.297
96240W        W61401  17.071  23.883   2.607
96241W        W61402  11.285   4.014  10.614
96242W        W61403  23.334   8.394   4.310
96243W        W61404  23.042  33.093   4.316
96244W        W61405  34.415  38.421   0.790
96245W        W61406  11.590  15.995  12.486
96246W        W61407  44.262  34.605   4.163
96247W        W61408  42.116  31.360   0.297
96248W        W61409  26.076   8.561   4.111
96249W        W61410  30.958   5.387  11.455
96250W        W61411   7.540  19.632   3.139
96251W        W61412  18.658  22.075  13.343
96252W        W61413  40.396  28.574  13.876
96253W        W61414   7.686  31.435  10.624
96254W        W61415  34.713   2.405   1.518
96255W        W61416  13.220  23.288   0.337
96256W        W61417  36.449   5.039  11.687
96257W        W61418  27.602  44.597  12.442
96258W        W61419  21.190   4.958  14.727
96259W        W61420   3.785  41.326   3.837
96260W        W61421   2.014  34.834   4.136
96261W        W61422  41.893   9.309   1.089
96262W        W61423   6.558  14.692  13.920
96263W        W61424  16.672  13.083   3.578
96264W        W61425  25.185   3.941  14.196
96265W        W61426  30.891  29.335   0.403
96266W        W61427  24.793  31.703  14.432
96267W        W61428   7.640  33.087  12.667
96268W        W61429   9.449   9.838   3.150
96269W        W61430  18.107  21.480   1.781
96270W        W61431   5.435  41.494   3.045
96271W        W61432  43.811   5.724   3.829
96272W        W61433  38.695  12.403  10.968
96273W        W61434  24.993  27.028  14.760
96274W        W61435  29.031  42.611   3.582
96275W        W61436   7.080  25.357   4.641
96276W        W61437   0.209  17.470  11.580
96277W        W61438  34.093  35.157   1.360
96278W        W61439  38.336  32.466  11.198
96279W        W61440  27.589  24.517  12.768
96280W        W61441  25.706  29.500   3.072
96281W        W61442  15.618  21.679   0.990
96282W        W61443  13.202   6.211   4.316
96283W        W61444  32.837  32.392   2.813
96284W        W61445  18.412  11.128  12.026
96285W        W61446  25.583  26.198   3.101
96286W        W61447  10.399   8.220  12.380
96287W        W61448  17.519  17.189  14.425
96288W        W61449   5.911  21.397  14.803
96289W        W61450  41.486  42.234  11.846
96290W        W61451  32.594  24.601  14.248
96291W        W61452  21.381  19.254   4.188
96292W        W61453   2.574   9.901   0.867
96293W        W61454   1.359   9.810   4.873
96294W        W61455   2.690   4.809  11.546
96295W        W61456  11.902  23.740   3.824
96296W        W61457   2.903  31.958   4.650
96297W        W61458   7.056  23.038   1.819
96298W        W61459   6.257   4.373  10.576
96299W        W61460   5.520   4.495  14.897
96300W        W61461   6.836   6.429  13.717
96301W        W61462  32.485  26.016   2.753
96302W        W61463  24.784  39.371  14.215
96303W        W61464   5.249  10.688   4.419
96304W        W61465  10.846  23.602  10.510
96305W        W61466  23.683   5.205  14.377
96306W        W61467  17.657  12.109  11.173
96307W        W61468  29.570  38.579  11.855
96308W        W61469  18.085  39.349  12.548
96309W        W61470   8.805  26.185   1.692
96310W        W61471  35.617  12.116  11.022
96311W        W61472  13.140  16.252  14.296
96312W        W61473  10.045  29.584   2.748
96313W        W61474  27.497  31.151  11.266
96314W        W61475  11.701  41.953  12.168
96315W        W61476  36.945  29.036   1.842
96316W        W61477  38.901   9.816   0.003
96317W        W61478  36.581   1.415  14.912
96318W        W61479  37.179  12.336  11.152
96319W        W61480  23.516  37.635   3.390
96320W        W61481  19.154  20.104   2.094
96321W        W61482  21.017   4.952   4.524
96322W        W61483  28.141   1.519   0.257
96323W        W61484  16.521   4.820  13.427
96324W        W61485  10.219  33.481   3.320
96325W        W61486  42.613  12.238   2.683
96326W        W61487  39.391  23.937   2.907
96327W        W61488   2.041  16.818   0.373
96328W        W61489   3.695   7.989   0.959
96329W        W61490   5.337  19.177  13.735
96330W        W61491  32.937  33.693  12.954
96331W        W61492  21.644  17.441  10.200
96332W        W61493  40.861   6.618   1.196
96333W        W61494  25.036   5.970  14.496
96334W        W61495  40.264  16.231   2.327
96335W        W61496  12.024  17.855   4.114
96336W        W61497  40.024  13.869   3.740
96337W        W61498  20.548  16.504   0.867
96338W        W61499  22.673  14.575  11.806
96339W        W61500  44.516  44.776  10.402
96340W        W61501   4.189  33.822  12.977
96341W        W61502  34.120  35.417  13.217
96342W        W61503   6.349  26.181   1.833
96343W        W61504   5.985  13.124  12.555
96344W        W61505  25.514  32.846  11.615
96345W        W61506   0.441  23.121   4.738
96346W        W61507   9.141  13.075  13.989
96347W        W61508  38.941  20.710   4.126
96348W        W61509  26.439  35.307   4.104
96349W        W61510  39.096  16.965   2.624
96350W        W61511   2.290  12.279  11.636
96351W        W61512  16.752   2.261   4.828
96352W        W61513  41.542  41.828   1.299
96353W        W61514   4.588  20.442   4.911
96354W        W61515   8.642  38.178   1.240
96355W        W61516  19.236  19.333   0.332
96356W        W61517  15.165   1.586  14.433
96357W        W61518  41.345  28.100   3.069
96358W        W61519  23.685  36.999   2.219
96359W        W61520   4.478  44.119  13.608
96360W        W61521   6.809  19.554  12.385
96361W        W61522  22.383   2.457  13.297
96362W        W61523  29.120   7.901   2.254
96363W        W61524  12.412  30.662   2.856
96364W        W61525  32.142   0.929  12.961
96365W        W61526  37.196   4.549   4.994
96366W        W61527  34.543  35.910   2.803
96367W        W61528   3.854  38.847  11.368
96368W        W61529  31.667  19.090  13.931
96369W        W61530  18.563   8.242  11.191
96370W        W61531  12.781  28.013  14.809
96371W        W61532  11.764   4.759  10.583
96372W        W61533   7.410  37.781  12.852
96373W        W61534   9.190  22.755   2.891
96374W        W61535  25.879  20.563  12.345
96375W        W61536  19.226  29.613   2.743
96376W        W61537  14.805  38.482   1.849
96377W        W61538  27.758  28.488  12.966
96378W        W61539  28.730  23.182   1.631
96379W        W61540  27.083  40.757  12.131
96380W        W61541   2.345  43.026   4.120
96381W        W61542  20.138   2.680   0.518
96382W        W61543  44.949  23.168   1.432
96383W        W61544   8.922   4.663  11.128
96384W        W61545  10.429  10.368   4.061
96385W        W61546  36.780  21.153  10.724
96386W        W61547   4.519   3.011   0.219
96387W        W61548   3.281  21.703  12.511
96388W        W61549   2.730   4.791  12.919
96389W        W61550  30.427  18.673   3.342
96390W        W61551  39.756  22.517   0.815
96391W        W61552   2.917  13.638   1.850
96392W        W61553   6.842  22.216  14.346
96393W        W61554  17.388   3.155   3.218
96394W        W61555  25.953  23.657  13.783
96395W        W61556  41.571  25.460  10.480
96396W        W61557  34.815   4.927   2.862
96397W        W61558  20.520  25.491  10.743
96398W        W61559  42.636   0.243   2.068
96399W        W61560  28.232  29.937  14.370
96400W        W61561   6.884  36.580  11.642
96401W        W61562  24.423  30.500  11.860
96402W        W61563   5.171  42.182   2.551
96403W        W61564  11.086  43.907  12.041
96404W        W61565  26.208  18.057   1.434
96405W        W61566  35.678   5.414   0.804
96406W        W61567   7.190  19.554   4.095
96407W        W61568  14.193  31.040   4.815
96408W        W61569   3.235   5.517   1.553
96409W        W61570  10.151  29.744  13.122
96410W        W61571  38.407  18.253  13.390
96411W        W61572  34.361  12.584   2.219
96412W        W61573  17.770  44.235   4.624
96413W        W61574  39.124  20.788   1.344
96414W        W61575  33.625   5.717  12.439
96415W        W61576  39.479  20.668  12.787
96416W        W61577   2.926  26.425   3.054
96417W        W61578   6.997   9.621  12.710
96418W        W61579   4.663   3.900  11.042
96419W        W61580   3.938  14.548   2.873
96420W        W61581  25.740   9.028  14.704
96421W        W61582   9.361   8.184   3.870
96422W        W61583  42.146  10.220  13.333
96423W        W61584   3.836  22.632   9.925
96424W        W61585   2.064  23.109   2.855
96425W        W61586  23.160  19.496  12.889
96426W        W61587  37.131   0.850   2.363
96427W        W61588   5.687  43.817   1.787
96428W        W61589  30.585  15.311   1.838
96429W        W61590  36.517  42.013   4.083
96430W        W61591  40.286  16.123   0.787
96431W        W61592  35.381  36.626   1.828
96432W        W61593  18.805   0.452   2.743
96433W        W61594  43.469  34.340  12.046
96434W        W61595   6.776  24.872  10.307
96435W        W61596  43.749  36.043  12.912
96436W        W61597  34.515  36.618  12.693
96437W        W61598  19.296  20.662   3.200
96438W        W61599  13.945  21.256   1.381
96439W        W61600  17.783   3.803   1.410
96440W        W61601  20.051  33.611   2.323
96441W        W61602  44.466  25.810   3.247
96442W        W61603   4.927   7.654   3.360
96443W        W61604  44.465  11.622  12.960
96444W        W61605  24.510  25.420   1.378
96445W        W61606   4.197  37.356   2.250
96446W        W61607  33.151  22.317  14.865
96447W        W61608   3.396  30.369   3.705
96448W        W61609  36.033  38.027  13.140
96449W        W61610  37.834   4.318  14.331
96450W        W61611  38.439   7.489   0.040
96451W        W61612  37.307  23.319  14.350
96452W        W61613  26.890  34.274  11.822
96453W        W61614  16.495   6.427   3.210
96454W        W61615  25.099  43.875   4.525
96455W        W61616   3.737  24.614  13.703
96456W        W61617  39.273  41.602  10.794
96457W        W61618   8.404  34.862   4.583
96458W        W61619  21.101  10.367   2.217
96459W        W61620  38.073  39.582   4.283
96460W        W61621  43.926   9.281   3.726
96461W        W61622  23.161  26.691  12.931
96462W        W61623  17.626  28.534   3.664
96463W        W61624   7.710  41.381   4.540
96464W        W61625  43.752  25.714  13.766
96465W        W61626   5.440   4.343  11.223
96466W        W61627  26.618  40.214   4.981
96467W        W61628  17.769  29.714  12.388
96468W        W61629  21.697  25.938  13.261
96469W        W61630   8.120  11.096  13.413
96470W        W61631   6.259  32.079   2.739
96471W        W61632  22.647  39.613  10.190
96472W        W61633   3.308  24.116  12.447
96473W        W61634   6.121  21.943   2.731
96474W        W61635   6.757  14.901   3.633
96475W        W61636  41.802  10.684   2.349
96476W        W61637   1.688  16.081  13.449
96477W        W61638  22.993  43.889  14.209
96478W        W61639  42.146  14.947   2.157
96479W        W61640  32.874  21.325  12.002
96480W        W61641   3.028  25.695  13.467
96481W        W61642  12.132  30.984  14.395
96482W        W61643  42.586  44.919  14.501
96483W        W61644  14.645  33.819   3.286
96484W        W61645  15.327  21.101  11.406
96485W        W61646  25.194   5.935  13.979
96486W        W61647  33.445  40.683  11.102
96487W        W61648  33.502   1.425   2.234
96488W        W61649  23.432  42.480  13.996
96489W        W61650  26.106  30.958   1.437
96490W        W61651  23.098   6.055   2.426
96491W        W61652  29.049  11.351   4.139
96492W        W61653  30.422   6.688  10.563
96493W        W61654  21.565   9.887   1.850
96494W        W61655  29.458  10.009  12.839
96495W        W61656  40.883  35.234   4.573
96496W        W61657   2.217  29.973  14.115
96497W        W61658  12.320  18.214   3.289
96498W        W61659  35.971  11.321   3.962
96499W        W61660  43.371  27.944   0.398
96500W        W61661  16.937   8.325   1.849
96501W        W61662  18.237   3.727  13.611
96502W        W61663  39.884   9.291   4.717
96503W        W61664   6.787  28.497  14.609
96504W        W61665   9.121   4.737   0.675
96505W        W61666  12.042  32.897  12.026
96506W        W61667  40.004  43.256  13.513
96507W        W61668   2.232  42.760   4.535
96508W        W61669  27.403  16.208   2.908
96509W        W61670  14.840  12.612  11.605
96510W        W61671  26.059  16.724   4.104
96511W        W61672  27.900  15.757  13.352
96512W        W61673  40.437  43.061   2.466
96513W        W61674  14.818  42.885   3.317
96514W        W61675  17.560  13.805  12.229
96515W        W61676  37.501  37.747   5.175
96516W        W61677  41.893   2.781   0.687
96517W        W61678  21.487  23.733   2.661
96518W        W61679  39.101  30.768  14.343
96519W        W61680  31.495  37.438  12.965
96520W        W61681   1.781   1.588   3.623
96521W        W61682  16.648  26.392   2.348
96522W        W61683  21.171  38.957   3.217
96523W        W61684  43.917   0.061  10.894
96524W        W61685   9.342  10.765   2.060
96525W        W61686   7.610  32.100   1.510
96526W        W61687  18.275  34.396   3.352
96527W        W61688  42.569  15.627  10.593
96528W        W61689  39.613  43.020  12.620
96529W        W61690  27.998  22.193   2.669
96530W        W61691  36.858  13.637  12.612
96531W        W61692  11.128  42.989  12.029
96532W        W61693  43.496  21.978   4.143
96533W        W61694   5.470  10.410   4.036
96534W        W61695  44.301  32.417   3.974
96535W        W61696  38.864  41.660   4.053
96536W        W61697  32.537  34.920   4.762
96537W        W61698  36.335  36.850   1.726
96538W        W61699  22.998  25.375  12.828
96539W        W61700  42.710   6.974   2.430
96540W        W61701  30.188  31.306   4.624
96541W        W61702  17.345   4.699   0.813
96542W        W61703   0.262  12.602  12.239
96543W        W61704   8.846  29.117   0.337
96544W        W61705  40.447  17.095  10.558
96545W        W61706  39.841   2.457  11.469
96546W        W61707  25.989  43.019  11.133
96547W        W61708   0.208  38.302   0.391
96548W        W61709  28.206   3.860  10.662
96549W        W61710  29.902  10.699  14.002
96550W        W61711   6.664  35.692   1.339
96551W        W61712  28.159   0.764   1.795
96552W        W61713  34.401   0.377  13.868
96553W        W61714  28.038  16.104   4.171
96554W        W61715  32.687  19.504   4.434
96555W        W61716  26.485  38.418  11.923
96556W        W61717  29.065  15.606   2.912
96557W        W61718  27.845  34.439  10.236
96558W        W61719  12.558  18.365  13.046
96559W        W61720  14.695  20.748   0.374
96560W        W61721  21.396  18.376   0.008
96561W        W61722  36.696  39.388   4.919
96562W        W61723  25.210  22.742  13.227
96563W        W61724  41.989  29.482   2.115
96564W        W61725  19.678  11.856  12.021
96565W        W61726  42.874  19.399  10.204
96566W        W61727  26.200  34.999  14.681
96567W        W61728   6.850  14.312   0.903
96568W        W61729   7.607  14.163   2.877
96569W        W61730  20.029   3.480   1.836
96570W        W61731  20.102   6.369   1.695
96571W        W61732  24.126  20.553  11.375
96572W        W61733  12.115  27.661  12.173
96573W        W61734  10.337  15.650  11.042
96574W        W61735  31.708  23.521   1.286
96575W        W61736  22.939  13.395   3.301
96576W        W61737  10.788  20.849   0.523
96577W        W61738  31.731  27.003   0.936
96578W        W61739  11.741   7.219  10.994
96579W        W61740  43.033  42.855   1.407
96580W        W61741  36.462  26.961  11.110
96581W        W61742  21.589  39.324   0.810
96582W        W61743  25.057  30.005   4.273
96583W        W61744  39.618  40.312  14.946
96584W        W61745  20.589  22.732   3.654
96585W        W61746  34.595  34.316   0.144
96586W        W61747  37.514  24.896  12.595
96587W        W61748  12.302  33.654   4.069
96588W        W61749  32.573  37.875   5.252
96589W        W61750  36.593  37.938  14.443
96590W        W61751  27.237  26.736   4.287
96591W        W61752  14.806   7.613   1.367
96592W        W61753  30.208  41.437   3.642
96593W        W61754  30.357   4.193   3.178
96594W        W61755  26.845  39.852   2.973
96595W        W61756  17.171  26.495  12.372
96596W        W61757  11.289  18.528  10.706
96597W        W61758  30.486   0.516   2.466
96598W        W61759  32.453  14.818   2.051
96599W        W61760  11.867   1.458   2.726
96600W        W61761  16.063  38.995   9.629
96601W        W61762   7.722  44.219  11.101
96602W        W61763  22.871   2.313  13.392
96603W        W61764  21.627  33.551  13.959
96604W        W61765   9.857   7.068  14.478
96605W        W61766  31.845  42.741  11.963
96606W        W61767   4.013   3.267   3.625
96607W        W61768  21.612  15.537   3.079
96608W        W61769  29.475  40.082   3.679
96609W        W61770  22.200  19.991   0.907
96610W        W61771  37.694  13.314   0.745
96611W        W61772   9.760   8.833   2.635
96612W        W61773  16.334  34.950   1.637
96613W        W61774   9.204  38.561  13.970
96614W        W61775  12.129  43.547  14.190
96615W        W61776  20.831  20.685   1.884
96616W        W61777  41.570   1.377  11.951
96617W        W61778  15.270   1.267  12.080
96618W        W61779   2.186  17.846  11.680
96619W        W61780  34.018   1.976  10.815
96620W        W61781   0.714  30.929  12.889
96621W        W61782  20.715  13.882   1.893
96622W        W61783  11.481   3.621   3.187
96623W        W61784  31.375  15.767   0.802
96624W        W61785  23.182  10.688  13.948
96625W        W61786   0.774  28.399  13.745
96626W        W61787  36.468  40.349   5.168
96627W        W61788   4.990   4.052   4.136
96628W        W61789  37.436   2.338   2.564
96629W        W61790  36.532   4.838   3.145
96630W        W61791  38.656  26.746   2.278
96631W        W61792  25.531   3.760  13.396
96632W        W61793   7.322  21.338  12.113
96633W        W61794  17.540  12.381  11.585
96634W        W61795  42.929  10.608   4.286
96635W        W61796  12.238   0.992   0.312
96636W        W61797   1.025  20.046   9.984
96637W        W61798  25.537  30.086   2.476
96638W        W61799  10.181  17.127   4.034
96639W        W61800  33.035  36.865   0.841
96640W        W61801  14.788  29.450   0.409
96641W        W61802  21.993  36.618  13.374
96642W        W61803   1.877  42.785  12.481
96643W        W61804  43.695  24.680   1.888
96644W        W61805   7.034  10.366  10.795
96645W        W61806  11.494  37.177   5.130
96646W        W61807  19.561  19.590   1.962
96647W        W61808  25.369  20.671  12.433
96648W        W61809  38.305  20.529  11.285
96649W        W61810  27.930  40.452  12.357
96650W        W61811  40.445   0.999   1.669
96651W        W61812  43.092  19.306   4.686
96652W        W61813  30.532  43.199  12.879
96653W        W61814  28.070   6.301   0.037
96654W        W61815   9.220  11.938  11.922
96655W        W61816  12.298  36.373   0.229
96656W        W61817   3.668  12.541   1.800
96657W        W61818  44.014  15.053  13.444
96658W        W61819  30.149  21.728  11.574
96659W        W61820  16.939  27.075   2.704
96660W        W61821  31.100  19.007  13.311
96661W        W61822  17.792  30.170  13.754
96662W        W61823  23.312  37.799  14.462
96663W        W61824  11.232  18.595  11.577
96664W        W61825   2.382  43.276   4.569
96665W        W61826   1.974  32.336   3.769
96666W        W61827  17.594  13.286   0.545
96667W        W61828  26.201  18.949   2.675
96668W        W61829  26.173  41.770   4.124
96669W        W61830   6.269  35.584  11.652
96670W        W61831  17.161  10.668   4.384
96671W        W61832  34.684  40.712   0.280
96672W        W61833  22.129  20.480  10.238
96673W        W61834  35.928  38.590  12.336
96674W        W61835   4.432   9.790   1.084
96675W        W61836  27.746   9.674  14.969
96676W        W61837  36.555  16.733   4.069
96677W        W61838  42.979  37.655  14.494
96678W        W61839  18.285  29.018  12.379
96679W        W61840  12.601  31.646   4.203
96680W        W61841  44.777  33.611  10.774
96681W        W61842  17.497  17.523  12.949
96682W        W61843  22.560  16.301  10.212
96683W        W61844  43.231  40.880   0.837
96684W        W61845  26.511  13.542   4.249
96685W        W61846  42.463  27.916   2.714
96686W        W61847   1.849  44.041   0.357
96687W        W61848  29.920  43.671   4.765
96688W        W61849  17.803   5.443   2.146
96689W        W61850  42.565  19.215  10.948
96690W        W61851  26.600  14.727   1.438
96691W        W61852  20.226  17.009   2.748
96692W        W61853  11.828  22.597   5.199
96693W        W61854  27.625   8.721  14.485
96694W        W61855  38.309  30.408  13.056
96695W        W61856   6.893  18.108  13.404
96696W        W61857   6.209   7.745  14.103
96697W        W61858  41.838  21.162  14.408
96698W        W61859  11.560  27.965  13.918
96699W        W61860  35.995  26.556   1.802
96700W        W61861  36.347  36.023  11.745
96701W        W61862  44.058  43.803  14.468
96702W        W61863  15.683  27.234  12.622
96703W        W61864   9.783  14.358  11.184
96704W        W61865  37.064   5.735   2.676
96705W        W61866  38.693   3.978  14.339
96706W        W61867  14.178   9.093  12.439
96707W        W61868  20.179  34.454   4.149
96708W        W61869  38.905  15.812   4.045
96709W        W61870   9.849   8.667  12.856
96710W        W61871   3.405  17.226   0.796
96711W        W61872   0.424  20.877   1.262
96712W        W61873  18.372   1.426   3.459
96713W        W61874   5.749  27.196  14.738
96714W        W61875  14.087  23.752   4.485
96715W        W61876  38.795  40.436  12.652
96716W        W61877   4.483  38.411  14.448
96717W        W61878  41.618  42.025  10.860
96718W        W61879  36.558  15.892  12.944
96719W        W61880  18.159   7.277   3.149
96720W        W61881  23.756  42.733  11.134
96721W        W61882  40.521  38.207   2.327
96722W        W61883  40.701  11.172  12.993
96723W        W61884  20.305  28.171   3.717
96724W        W61885  29.851  18.224  10.610
96725W        W61886  44.809   1.022   3.255
96726W        W61887  20.415  28.041  12.412
96727W        W61888  22.133  17.633  10.193
96728W        W61889  21.654   9.367   0.952
96729W        W61890  37.792  35.300   2.628
96730W        W61891  23.587   9.235  11.519
96731W        W61892   7.319   1.430  12.867
96732W        W61893  14.597  22.216  12.113
96733W        W61894  22.497  33.715  12.150
96734W        W61895  19.504  42.397  14.096
96735W        W61896   4.472  35.467   0.912
96736W        W61897  10.612   2.494  12.948
96737W        W61898  12.347   3.299   0.348
96738W        W61899   0.909  24.611  11.900
96739W        W61900  17.124   0.518  10.751
96740W        W61901  35.988   5.159   4.582
96741W        W61902  44.066  42.902   1.115
96742W        W61903  25.743  29.939   4.558
96743W        W61904  17.554   8.477  14.386
96744W        W61905   9.027  26.637  11.047
96745W        W61906  28.059  23.916   2.615
96746W        W61907   1.894  11.551   3.673
96747W        W61908  30.345  42.690   4.215
96748W        W61909  18.693  42.186  12.100
96749W        W61910  26.263  27.818  14.318
96750W        W61911  20.704  35.607  12.025
96751W        W61912  33.896   0.262   4.935
96752W        W61913  43.899  33.244   0.746
96753W        W61914  39.348   1.362  14.767
96754W        W61915  13.758   1.653  11.670
96755W        W61916  10.809  43.263   2.738
96756W        W61917  42.352  32.074   1.497
96757W        W61918  16.873  39.022  11.163
96758W        W61919  24.644  36.321   1.755
96759W        W61920  37.950  23.251  11.578
96760W        W61921  11.673  19.663   3.106
96761W        W61922   2.332   0.062  12.040
96762W        W61923   7.504  39.856  12.113
96763W        W61924  38.551  39.254  14.323
96764W        W61925   2.459  23.348  11.078
96765W        W61926  21.256  21.524  14.995
96766W        W61927  29.522  39.696   5.010
96767W        W61928   6.846   3.975   4.481
96768W        W61929  25.454   3.766  11.948
96769W        W61930  17.036  18.682  11.954
96770W        W61931   6.864  20.064  12.164
96771W        W61932  27.568  44.322  14.332
96772W        W61933  34.582  13.725  11.872
96773W        W61934  16.723  27.913  10.822
96774W        W61935   8.381  33.554   2.448
96775W        W61936  37.398   9.815  13.508
96776W        W61937  28.569   5.239   0.404
96777W        W61938  19.279  17.443   4.606
96778W        W61939  39.611   2.464   0.813
96779W        W61940  13.324  26.677  13.399
96780W        W61941  10.654  39.939   2.481
96781W        W61942  24.604  18.769   1.977
96782W        W61943  14.914  40.917   1.666
96783W        W61944  42.057   2.051   0.432
96784W        W61945  24.132  26.282   3.721
96785W        W61946   7.890  16.657   2.366
96786W        W61947  13.065  18.863  14.740
96787W        W61948   1.811   3.154  11.558
96788W        W61949   2.250   0.440  13.328
96789W        W61950  14.117  29.040   3.711
96790W        W61951  22.119  41.329  14.875
96791W        W61952  15.155  17.171  10.966
96792W        W61953  23.297  14.571   4.642
96793W        W61954  22.412   2.296   3.331
96794W        W61955  23.917  32.937  13.050
96795W        W61956  36.599  20.705  14.414
96796W        W61957  29.863  36.474  11.090
96797W        W61958   7.994  40.798  11.832
96798W        W61959  32.114  43.436   3.849
96799W        W61960  23.944  14.863  13.534
96800W        W61961  24.251  41.521   2.744
96801W        W61962  18.936  42.594   2.616
96802W        W61963  23.975  37.354   3.025
96803W        W61964  24.773  12.849   3.325
96804W        W61965   3.825   3.663   2.356
96805W        W61966  24.842  28.858   0.760
96806W        W61967  38.333   6.211  12.929
96807W        W61968  11.453  30.530  11.428
96808W        W61969   3.112  26.281   9.377
96809W        W61970  36.571   6.434   3.324
96810W        W61971  16.522  14.220  14.768
96811W        W61972  18.275  17.978   2.597
96812W        W61973  19.576  10.688  12.010
96813W        W61974  20.473  35.416  11.574
96814W        W61975  35.603   9.874   3.867
96815W        W61976  25.105  28.115   0.403
96816W        W61977  16.277  13.181   0.775
96817W        W61978  28.933   3.399  11.534
96818W        W61979  11.913   1.029  13.149
96819W        W61980  39.024  20.778   2.232
96820W        W61981  39.051   2.692  11.205
96821W        W61982   6.327   1.967  14.458
96822W        W61983  35.521  24.593   4.802
96823W        W61984  17.666   2.561   2.280
96824W        W61985   2.501   1.500   3.227
96825W        W61986  39.463  22.905   0.607
96826W        W61987  28.994  21.523   1.276
96827W        W61988  13.956  18.795   3.724
96828W        W61989  14.716  22.980  12.960
96829W        W61990  30.638  36.379  13.927
96830W        W61991  38.570  19.630  12.480
96831W        W61992  37.882   6.051   2.616
96832W        W61993   5.906   2.428   2.266
96833W        W61994  35.088  38.308  13.622
96834W        W61995   8.205  44.295  14.929
96835W        W61996  26.507  32.489  12.475
96836W        W61997   5.256   0.754   2.308
96837W        W61998  35.773  33.056   2.698
96838W        W61999  22.988   9.187  13.973
96839W        W62000  26.190  34.331  12.442
96840W        W62001  22.053  43.794   2.434
96841W        W62002  23.267  16.283   2.356
96842W        W62003  37.261  27.073  13.480
96843W        W62004   2.704   5.809  11.476
96844W        W62005   5.729   9.112  13.896
96845W        W62006   9.764  18.785  12.503
96846W        W62007  36.835  21.973   3.893
96847W        W62008  19.557  20.691  13.016
96848W        W62009  38.471  33.280   2.455
96849W        W62010   5.404  32.410   1.368
96850W        W62011  43.912  21.886   0.723
96851W        W62012  34.827  28.410  14.482
96852W        W62013   7.656   7.257  14.965
96853W        W62014   4.357  24.606   1.968
96854W        W62015  30.675  40.912  11.938
96855W        W62016  44.621  40.562  11.955
96856W        W62017  19.079  25.019  11.585
96857W        W62018  39.033  31.966   4.652
96858W        W62019  31.819  20.634   2.191
96859W        W62020  33.787  24.540   5.054
96860W        W62021   6.183  15.785  13.858
96861W        W62022  27.135  20.658  14.420
96862W        W62023  13.194  40.541   2.780
96863W        W62024  27.483  10.160   1.887
96864W        W62025  24.628  26.160   3.689
96865W        W62026  28.711  41.225  11.022
96866W        W62027  27.242  10.261   2.589
96867W        W62028  21.704   4.257   1.617
96868W        W62029  37.921  34.580   4.628
96869W        W62030   8.872  28.670   1.260
96870W        W62031  15.252  16.570   1.685
96871W        W62032  21.660  11.333   1.791
96872W        W62033  19.620  30.732  12.004
96873W        W62034  19.205  42.053   0.879
96874W        W62035  19.902  18.698  13.822
96875W        W62036  14.006  37.921  14.285
96876W        W62037  21.512   7.436   5.115
96877W        W62038  12.658   7.252   3.618
96878W        W62039  17.270  14.005  10.293
96879W        W62040  18.305  29.005  10.669
96880W        W62041  10.573  14.256   3.221
96881W        W62042  39.701  20.157  14.058
96882W        W62043  14.101  19.191   4.732
96883W        W62044   8.673   7.306  14.944
96884W        W62045  21.763  20.647   1.752
96885W        W62046  33.821  12.761   0.267
96886W        W62047  20.053  38.788   9.938
96887W        W62048  13.646  23.054   3.740
96888W        W62049   9.863  25.230   1.488
96889W        W62050   3.386  23.182   1.739
96890W        W62051  31.487  36.115   1.841
96891W        W62052   0.894  42.986  14.104
96892W        W62053  24.342   3.436  11.120
96893W        W62054  43.447  27.475   3.411
96894W        W62055  36.335  36.465   1.363
96895W        W62056  24.611   1.055   2.989
96896W        W62057  14.491   4.490  14.016
96897W        W62058  44.284  40.958   3.455
96898W        W62059  29.984   4.863   1.504
96899W        W62060  24.106  40.822  12.163
96900W        W62061  25.672  20.303  11.666
96901W        W62062  24.921  25.142   4.137
96902W        W62063  27.268  23.554   5.138
96903W        W62064  13.162  34.266   3.139
96904W        W62065  42.278  38.870  11.492
96905W        W62066  12.426  31.970   2.185
96906W        W62067  26.464  39.765   2.588
96907W        W62068  18.562  25.902  14.255
96908W        W62069  41.016  30.217   4.310
96909W        W62070  40.521   2.499  11.253
96910W        W62071   7.548   0.394   3.437
96911W        W62072   4.387  43.936   0.707
96912W        W62073  42.201  14.323   0.813
96913W        W62074   0.667  25.358   4.544
96914W        W62075  18.839  40.886  11.019
96915W        W62076  16.664  31.663   1.865
96916W        W62077  22.437  31.825  13.048
96917W        W62078  32.838  24.116   3.684
96918W        W62079  36.866   9.914   4.659
96919W        W62080   3.315  44.536   2.852
96920W        W62081  27.645  10.174  10.638
96921W        W62082  23.327   9.769   2.250
96922W        W62083   8.170  26.955   9.865
96923W        W62084  13.568  13.280  12.889
96924W        W62085  23.925  19.285  14.863
96925W        W62086  23.818  37.996   0.406
96926W        W62087   1.799  33.514   0.503
96927W        W62088   1.334  12.601   1.823
96928W        W62089  43.318  11.805  14.808
96929W        W62090  16.355   6.794   4.682
96930W        W62091  23.585   7.244  11.025
96931W        W62092  42.334  26.470  13.938
96932W        W62093  14.404   8.174  14.404
96933W        W62094  17.361  30.471  14.330
96934W        W62095  36.663  43.675  11.567
96935W        W62096  39.241  10.071   5.299
96936W        W62097  12.124  19.744  11.479
96937W        W62098   9.254  24.985   0.395
96938W        W62099   6.150   2.566   3.092
96939W        W62100  13.212  16.570  12.525
96940W        W62101  34.980   7.473  14.111
96941W        W62102  29.285   3.806   1.678
96942W        W62103  25.346  30.135  11.903
96943W        W62104  12.867  42.286  13.415
96944W        W62105   1.489  21.093  12.136
96945W        W62106  11.727  27.403   0.572
96946W        W62107  37.609  12.378   2.296
96947W        W62108  17.055  25.582  12.127
96948W        W62109  30.711   5.540   1.290
96949W        W62110  14.601  29.519   4.817
96950W        W62111  43.981  35.170   9.797
96951W        W62112   9.785  31.051  13.461
96952W        W62113  34.400  31.993  10.656
96953W        W62114  34.481  22.685   0.819
96954W        W62115   9.930   7.915  13.913
96955W        W62116   4.204  35.466   3.375
96956W        W62117   2.712  39.604   2.337
96957W        W62118  14.859  41.021  14.478
96958W        W62119  38.362   6.851   3.854
96959W        W62120   3.053  38.366  10.694
96960W        W62121  42.514  22.520  11.113
96961W        W62122  12.736   0.871   0.468
96962W        W62123  37.336  25.131  13.033
96963W        W62124  12.367  17.211   2.286
96964W        W62125  33.413  26.202   4.539
96965W        W62126  28.595  38.610  12.578
96966W        W62127  41.630  31.559   0.284
96967W        W62128  22.521  12.600  10.805
96968W        W62129  38.918  11.825  11.734
96969W        W62130   9.613   5.206   1.333
96970W        W62131  14.957   8.739   5.066
96971W        W62132  21.699  39.701  13.020
96972W        W62133  40.237   8.196  13.484
96973W        W62134  32.918  28.002   4.549
96974W        W62135  12.773  34.987  10.673
96975W        W62136  17.081  42.839   2.780
96976W        W62137  23.535  19.805  14.964
96977W        W62138  11.890  36.583   1.329
96978W        W62139   9.156  42.719   3.660
96979W        W62140  27.316  27.463  11.806
96980W        W62141  42.498   6.700   1.556
96981W        W62142   7.330  22.712  10.728
96982W        W62143  36.696   8.004  13.890
96983W        W62144  39.420  39.822   2.971
96984W        W62145  24.519  42.216  14.797
96985W        W62146  26.869   2.459   1.405
96986W        W62147  22.536   3.261  11.547
96987W        W62148   4.054  18.542  11.208
96988W        W62149   9.285  30.951  11.612
96989W        W62150  35.542  33.130  11.034
96990W        W62151  37.605   9.796   3.249
96991W        W62152  37.071  12.552   2.336
96992W        W62153  13.629  16.646   2.308
96993W        W62154  24.125   1.361  11.553
96994W        W62155  38.869  37.482  13.388
96995W        W62156  16.943  42.567  11.532
96996W        W62157   4.921  23.417  12.513
96997W        W62158  36.580   2.937  11.143
96998W        W62159  22.839  24.695  12.339
96999W        W62160  30.869  38.453   1.865
97000W        W62161  43.404  21.262   0.383
97001W        W62162  14.378  25.064   2.337
97002W        W62163  21.715  34.436  13.948
97003W        W62164  26.714  21.156  11.492
97004W        W62165  44.853  22.952   1.893
97005W        W62166  40.964  37.736   4.973
97006W        W62167  30.169  15.461  13.342
97007W        W62168  41.319  12.771  11.413
97008W        W62169   8.282  14.728  14.753
97009W        W62170  15.618  22.132   0.743
97010W        W62171  33.870  40.621   2.745
97011W        W62172  24.848   9.643  12.275
97012W        W62173  13.355   1.826  11.967
97013W        W62174  37.908  10.442  11.467
97014W        W62175   8.088  43.777  12.566
97015W        W62176  34.974  35.668  10.731
97016W        W62177   8.292  41.251  12.625
97017W        W62178  28.608  32.924  13.042
97018W        W62179  23.203  13.659   0.266
97019W        W62180  22.122  30.146  12.915
97020W        W62181  16.150  15.667  11.995
97021W        W62182  18.287  41.769  12.528
97022W        W62183  32.140  11.438  11.478
97023W        W62184  29.505  19.507  11.271
97024W        W62185  11.082  37.034   4.804
97025W        W62186   7.036  41.856   4.866
97026W        W62187  20.092   6.784   3.771
97027W        W62188  12.858  18.939  12.080
97028W        W62189  12.424  20.440  13.386
97029W        W62190  14.795  10.072  13.952
97030W        W62191   8.136   1.056   2.276
97031W        W62192   1.204  40.438  13.376
97032W        W62193   1.806  31.444  10.773
97033W        W62194  38.193  22.008  14.429
97034W        W62195  43.479   5.755   1.351
97035W        W62196  10.589  39.086   2.823
97036W        W62197  11.724  26.454   2.790
97037W        W62198  10.861  31.030   3.907
97038W        W62199  21.979  37.129   0.383
97039W        W62200   5.035  18.690   0.199
97040W        W62201  12.102  40.945   3.541
97041W        W62202  14.826  14.325   2.867
97042W        W62203   2.253  28.575   2.305
97043W        W62204  21.615  40.393   1.400
97044W        W62205   2.343   2.731  10.652
97045W        W62206  40.526  23.258  13.937
97046W        W62207  35.560  27.603   1.250
97047W        W62208  44.791  30.863  11.547
97048W        W62209  15.642  26.889   3.760
97049W        W62210   3.875  34.482   2.908
97050W        W62211  28.187  35.144   2.746
97051W        W62212   3.856   1.744  10.957
97052W        W62213  24.614  29.023  10.543
97053W        W62214  14.139  19.233  11.130
97054W        W62215  35.783  12.341  14.332
97055W        W62216   8.310  13.277   4.411
97056W        W62217  17.713   8.077   1.226
97057W        W62218   6.073  16.749   3.101
97058W        W62219   3.828   4.801  12.151
97059W        W62220  34.387  26.026   1.652
97060W        W62221  17.163   4.924   1.824
97061W        W62222  42.063  34.823   1.700
97062W        W62223  13.250  42.153  13.076
97063W        W62224  26.080  28.898   1.444
97064W        W62225  10.963   4.872  12.325
97065W        W62226   2.130  37.197  14.985
97066W        W62227   0.658  19.314   0.707
97067W        W62228  27.044  22.723  11.998
97068W        W62229  29.940  43.610   0.763
97069W        W62230   3.417   2.526   4.515
97070W        W62231  21.786  32.416   2.989
97071W        W62232   4.386  32.014   3.192
97072W        W62233  25.225  32.689   2.645
97073W        W62234  38.994  23.632  10.211
97074W        W62235  37.691  25.700   1.617
97075W        W62236   8.156  35.206   1.846
97076W        W62237  12.096  20.010  13.422
97077W        W62238  29.003  16.344   1.811
97078W        W62239  30.003  44.028   1.728
97079W        W62240  18.683  12.393   2.755
97080W        W62241  25.650  29.714  11.957
97081W        W62242  22.954  21.154  11.096
97082W        W62243  23.799   7.929   2.013
97083W        W62244   2.875  41.844   0.944
97084W        W62245  35.534  35.118   1.795
97085W        W62246  25.620  17.025  13.971
97086W        W62247  31.057  22.358   2.269
97087W        W62248  40.125   5.313   1.303
97088W        W62249  24.691  42.973  10.949
97089W        W62250   7.467  35.929  13.400
97090W        W62251  19.262  24.234  10.275
97091W        W62252   0.559  34.744  11.392
97092W        W62253  19.292  17.461  13.484
97093W        W62254   0.962   3.553  11.597
97094W        W62255   7.466  30.151   3.233
97095W        W62256  38.308  32.558  13.393
97096W        W62257  28.445   6.908   0.943
97097W        W62258   5.488  13.305  14.412
97098W        W62259  25.059  35.496   4.153
97099W        W62260  19.201  43.280  13.379
97100W        W62261   3.856  27.484   2.695
97101W        W62262  10.094  25.628  11.207
97102W        W62263   1.249  27.510   3.253
97103W        W62264  10.420   4.750  11.695
97104W        W62265  24.016  29.503  11.171
97105W        W62266  38.739  14.050  12.535
97106W        W62267  30.967  33.101   4.361
97107W        W62268  35.721   6.751  14.083
97108W        W62269  32.040  17.990   1.957
97109W        W62270   6.696   4.015   3.984
97110W        W62271   3.200  23.499   4.606
97111W        W62272  30.996  34.424   3.813
97112W        W62273  38.106   1.943   3.728
97113W        W62274  35.800  22.236  11.620
97114W        W62275  39.487  21.125  10.478
97115W        W62276   9.734   6.085   1.327
97116W        W62277  28.955  32.446   3.652
97117W        W62278   8.373  33.940   2.122
97118W        W62279  30.204   0.765  12.420
97119W        W62280  11.742  32.582   3.807
97120W        W62281  26.964  40.903  14.583
97121W        W62282  19.196  27.212   1.838
97122W        W62283  20.699   3.348  13.501
97123W        W62284  14.306  10.357  13.045
97124W        W62285  22.254   6.033  10.566
97125W        W62286  41.014   9.766   4.701
97126W        W62287  11.606  30.962  11.205
97127W        W62288  29.854  16.736   2.715
97128W        W62289  37.138  43.285  13.494
97129W        W62290  44.294  18.844  14.452
97130W        W62291  43.890  19.126  14.327
97131W        W62292   8.783   3.978   3.254
97132W        W62293   0.308   0.190  10.791
97133W        W62294  32.662  32.083   2.036
97134W        W62295  13.237   4.445  13.430
97135W        W62296  13.689  19.288  10.893
97136W        W62297   3.433  24.632  14.795
97137W        W62298  22.316  42.765  11.204
97138W        W62299   2.223  40.398  11.513
97139W        W62300   0.789  33.987   1.848
97140W        W62301  34.439  29.497  12.666
97141W        W62302  13.408  40.878  14.364
97142W        W62303  23.535  38.099  11.641
97143W        W62304   6.149  41.117   4.497
97144W        W62305   3.220  28.617   3.108
97145W        W62306  43.220  44.030  11.255
97146W        W62307   1.488  28.912   1.714
97147W        W62308  23.160  42.387  10.530
97148W        W62309  38.342  15.174  14.489
97149W        W62310   7.689  14.926   3.159
97150W        W62311  39.339  17.027   0.669
97151W        W62312  12.376  33.346   0.872
97152W        W62313  24.066   6.089   1.454
97153W        W62314   1.378  12.114  12.853
97154W        W62315  20.177  24.968   4.495
97155W        W62316  12.950  32.304  13.474
97156W        W62317  23.203  14.950  11.105
97157W        W62318  32.823  38.206  12.837
97158W        W62319  35.296  12.779  12.083
97159W        W62320  40.754  29.360  11.548
97160W        W62321  28.245  36.542  14.274
97161W        W62322  42.320  27.258  13.412
97162W        W62323   9.654  17.125   0.507
97163W        W62324  27.033  25.481   2.397
97164W        W62325   4.355   4.373   4.112
97165W        W62326  17.021   9.432   0.256
97166W        W62327  33.094  17.094  13.976
97167W        W62328   7.751  37.575   5.120
97168W        W62329  17.676  26.176  10.671
97169W        W62330  33.523  32.056   2.357
97170W        W62331  23.153  29.626   1.496
97171W        W62332  23.031   8.127   4.668
97172W        W62333  19.140  19.711   4.368
97173W        W62334  12.847  39.973   4.916
97174W        W62335  28.868  21.701   0.279
97175W        W62336   1.846  19.879   3.306
97176W        W62337  38.870  29.766   1.354
97177W        W62338  32.596  12.848  13.461
97178W        W62339  38.870  36.563   3.861
97179W        W62340  37.247  18.693  13.854
97180W        W62341  37.816  18.765  13.004
97181W        W62342  38.014  29.898   0.709
97182W        W62343  18.276  33.207   2.680
97183W        W62344  29.520  37.614   0.291
97184W        W62345  16.093  10.858   3.427
97185W        W62346  12.574  11.161   2.133
97186W        W62347   0.782  27.622   0.481
97187W        W62348   5.604  43.263   3.202
97188W        W62349  39.762  28.063  13.472
97189W        W62350  34.596  27.874   0.299
97190W        W62351   3.268  24.642  12.474
97191W        W62352   7.617  17.245   3.674
97192W        W62353  32.152  30.456  12.477
97193W        W62354  42.314  22.819   2.167
97194W        W62355  16.154  43.432   4.663
97195W        W62356  30.510  39.998  12.669
97196W        W62357  22.477  18.099   4.697
97197W        W62358  29.010   8.331  14.310
97198W        W62359   8.878   0.875   1.878
97199W        W62360  19.717  16.821  12.014
97200W        W62361  25.434  44.241  13.526
97201W        W62362   8.431  13.839   2.808
97202W        W62363   0.330  24.207   1.761
97203W        W62364  35.834   3.944  13.883
97204W        W62365  26.003  20.591   2.853
97205W        W62366  34.146  14.234   4.121
97206W        W62367  12.076  15.330  12.005
97207W        W62368  40.645  25.191   0.950
97208W        W62369  16.732  17.259   0.018
97209W        W62370   9.623  42.319  12.382
97210W        W62371  13.261  15.079   3.328
97211W        W62372   2.008  37.691  11.063
97212W        W62373   7.771   0.413  10.675
97213W        W62374  41.583  33.476   1.576
97214W        W62375  13.943  40.851   1.716
97215W        W62376  16.767  37.103   3.270
97216W        W62377  13.228  19.254  11.626
97217W        W62378   5.720  36.469  10.402
97218W        W62379  14.143   5.418   3.588
97219W        W62380  42.788  15.588  13.518
97220W        W62381   8.613   9.280   2.672
97221W        W62382  38.560  16.670   2.678
97222W        W62383  11.373  24.153  13.846
97223W        W62384  20.961  18.439  10.798
97224W        W62385  31.900  29.417  14.081
97225W        W62386  20.668  40.553   3.785
97226W        W62387   5.506  31.156  14.586
97227W        W62388  44.207  22.264  12.891
97228W        W62389  10.677  20.659  12.438
97229W        W62390  26.204  35.070   0.707
97230W        W62391   3.651   4.488   2.793
97231W        W62392  23.507  37.674   4.237
97232W        W62393  35.244  29.235   3.662
97233W        W62394   8.944  16.788   3.954
97234W        W62395  18.137  34.913   0.318
97235W        W62396  42.246   1.429   2.353
97236W        W62397  25.682  42.286   4.636
97237W        W62398   5.890  42.619  12.698
97238W        W62399   4.893  41.391   0.272
97239W        W62400  16.794  37.693   2.312
97240W        W62401  10.092  44.006  12.972
97241W        W62402  22.610  11.764  13.105
97242W        W62403  29.157  25.228  12.150
97243W        W62404  28.680   6.136  12.813
97244W        W62405  41.514  22.253   4.000
97245W        W62406  22.180  20.090   4.981
97246W        W62407  40.457  18.958   2.398
97247W        W62408   8.913   9.368   2.249
97248W        W62409  44.088  35.759  14.023
97249W        W62410  30.153  16.567  11.167
97250W        W62411  32.335   3.969   1.364
97251W        W62412   5.408  35.626  11.396
97252W        W62413  12.770  26.216  14.149
97253W        W62414  27.711   1.757   3.225
97254W        W62415   6.960  13.299   0.711
97255W        W62416  30.407   2.737   4.101
97256W        W62417  28.455   4.651  12.958
97257W        W62418  24.503   7.419   1.283
97258W        W62419  13.690  40.908  13.912
97259W        W62420  40.429  22.940   4.117
97260W        W62421  30.123  24.145   2.775
97261W        W62422   1.553   3.106   1.795
97262W        W62423  25.705  20.266   0.192
97263W        W62424  18.375  37.312   4.380
97264W        W62425  23.138  27.022   4.509
97265W        W62426  29.998  44.915  14.054
97266W        W62427  16.788   6.138  13.469
97267W        W62428  22.501   5.455   0.467
97268W        W62429  13.948  15.803   0.857
97269W        W62430  20.343  27.552   3.112
97270W        W62431  44.073  11.212   1.678
97271W        W62432  18.234   5.008   0.436
97272W        W62433  43.414  18.152   0.317
97273W        W62434  39.021  11.255   1.239
97274W        W62435  12.375  37.246  12.525
97275W        W62436   2.153  42.361  12.472
97276W        W62437  38.415   3.840   1.653
97277W        W62438  39.588  20.258  12.008
97278W        W62439  41.261   9.807   2.446
97279W        W62440  26.179  16.779  14.512
97280W        W62441  37.399  20.303   3.680
97281W        W62442  40.032  23.019  14.868
97282W        W62443  40.245  43.890   2.787
97283W        W62444  43.547   9.490  12.027
97284W        W62445  25.145  22.489  14.755
97285W        W62446  25.088   0.387   1.684
97286W        W62447  35.889  38.853  10.655
97287W        W62448   9.942  31.168   0.765
97288W        W62449   0.936  10.087  12.727
97289W        W62450  21.895  28.836  13.466
97290W        W62451  10.676  27.184   2.331
97291W        W62452  41.424  13.164   3.747
97292W        W62453  35.260  17.611  11.094
97293W        W62454  17.734  20.615   1.897
97294W        W62455  24.989   1.906   4.794
97295W        W62456  25.915  30.177   0.983
97296W        W62457  39.298  22.143  13.421
97297W        W62458  44.290  10.016  12.621
97298W        W62459  39.509   0.269  14.482
97299W        W62460   7.925  26.580  12.916
97300W        W62461  33.601  16.022  13.889
97301W        W62462  28.746  39.958   9.871
97302W        W62463  29.672  44.713   1.844
97303W        W62464  38.862  44.228  12.521
97304W        W62465   3.150  35.891   0.840
97305W        W62466  15.135  33.625   3.246
97306W        W62467   9.897   3.019   0.374
97307W        W62468  37.435  26.968   2.347
97308W        W62469   3.748  19.713   3.437
97309W        W62470  33.127  27.562   1.337
97310W        W62471  16.315  43.078  13.425
97311W        W62472  25.272  12.273  11.941
97312W        W62473   6.767   9.672   1.059
97313W        W62474  34.997  21.577   0.087
97314W        W62475  23.360   5.772  13.523
97315W        W62476  42.432  20.083   1.358
97316W        W62477   4.990   4.440  14.859
97317W        W62478  32.258  31.488   0.896
97318W        W62479  36.600  16.602   1.280
97319W        W62480   6.219  18.943   0.802
97320W        W62481  18.980  15.615  10.311
97321W        W62482  39.099  31.022   4.785
97322W        W62483   3.330  35.892  12.559
97323W        W62484   0.323   7.362  11.141
97324W        W62485  13.553  35.575   0.464
97325W        W62486  16.224  21.782   1.704
97326W        W62487  41.543  26.251  14.342
97327W        W62488  12.103   2.819  14.380
97328W        W62489  40.580  21.985  14.347
97329W        W62490  30.321  40.393  11.996
97330W        W62491  39.711   3.395   4.508
97331W        W62492  24.783   7.887  12.564
97332W        W62493  13.636   4.895   1.298
97333W        W62494  25.417   6.333   1.780
97334W        W62495   4.774  12.532  12.282
97335W        W62496  25.604  29.230   1.238
97336W        W62497  31.033  44.505   0.734
97337W        W62498  23.329  24.516  12.445
97338W        W62499  40.967  13.658  13.651
97339W        W62500  26.146  11.338   2.784
97340W        W62501  40.974  25.267   1.332
97341W        W62502  11.592  42.873  13.716
97342W        W62503  40.275  23.988  13.404
97343W        W62504  16.342   2.904   4.171
97344W        W62505  27.389  42.259   0.799
97345W        W62506  26.633  40.434   1.350
97346W        W62507  22.802   2.778  11.589
97347W        W62508   4.196  25.221  14.757
97348W        W62509  15.263  29.966   3.960
97349W        W62510   2.523  41.783   1.784
97350W        W62511  27.418  12.400   4.528
97351W        W62512  35.741  25.048   1.875
97352W        W62513  34.496  11.013  13.593
97353W        W62514  26.707  31.688   2.511
97354W        W62515  10.463  18.420   2.652
97355W        W62516  41.390   6.155  14.809
97356W        W62517  35.565  19.112   0.372
97357W        W62518   7.372  27.781   3.697
97358W        W62519  30.923   5.849   4.182
97359W        W62520   6.643  28.720  12.331
97360W        W62521  26.684  15.304   0.341
97361W        W62522   1.094  21.703  14.900
97362W        W62523  28.375  27.528   4.588
97363W        W62524  14.741  19.178   0.931
97364W        W62525  33.599  12.465   0.889
97365W        W62526  12.263  13.343  12.933
97366W        W62527  17.636  21.401   3.286
97367W        W62528   8.483  21.786  14.955
97368W        W62529  26.756   9.040   2.662
97369W        W62530  16.978   0.885  12.618
97370W        W62531  11.381   6.714  10.926
97371W        W62532  28.358  37.010  14.649
97372W        W62533   6.358  15.675  11.968
97373W        W62534  22.908  20.303   5.436
97374W        W62535  38.936   8.642   2.324
97375W        W62536  18.665  13.783  11.485
97376W        W62537  23.666  22.217   0.395
97377W        W62538  35.196   4.783   4.754
97378W        W62539   4.788  29.620  11.205
97379W        W62540   3.453  44.261   0.002
97380W        W62541  34.982  39.526  14.241
97381W        W62542  19.222  30.513  13.109
97382W        W62543  17.700  17.305   2.803
97383W        W62544  35.582  43.775  14.226
97384W        W62545  12.608  18.770  12.645
97385W        W62546   0.076   2.887  13.393
97386W        W62547  14.288  42.249   1.995
97387W        W62548  33.715   1.870  13.966
97388W        W62549  21.226  20.941   2.818
97389W        W62550  15.055   0.471   4.622
97390W        W62551   7.267  42.913   2.504
97391W        W62552  35.491  22.478   2.299
97392W        W62553  41.199  18.113  12.009
97393W        W62554  16.828  30.488   2.353
97394W        W62555   8.344  38.867   2.200
97395W        W62556  30.992  30.099  13.019
97396W        W62557  38.945  39.389   2.165
97397W        W62558  35.555   3.350   1.708
97398W        W62559  29.059  20.798   4.010
97399W        W62560  40.416  32.589  14.755
97400W        W62561  16.523  29.537   1.090
97401W        W62562  40.808  34.543  12.373
97402W        W62563  15.139  14.135   1.443
97403W        W62564  13.478   9.197   3.901
97404W        W62565  20.481  19.773  14.923
97405W        W62566  28.444   9.042   4.913
97406W        W62567  23.586  14.864  11.619
97407W        W62568   9.928   0.489  12.339
97408W        W62569  19.236  25.429  11.310
97409W        W62570  43.472  17.009  11.178
97410W        W62571  32.436  30.069   2.218
97411W        W62572  28.950  36.460   4.424
97412W        W62573  40.053  14.838  14.719
97413W        W62574  30.237   0.845  14.918
97414W        W62575   8.107  27.075  12.978
97415W        W62576  13.611  38.480   0.770
97416W        W62577  21.813   9.194  12.517
97417W        W62578   1.175  31.396   0.506
97418W        W62579  43.479  40.254  11.632
97419W        W62580  33.345  34.306  11.512
97420W        W62581   4.470  24.780  14.870
97421W        W62582  38.464   3.322  12.071
97422W        W62583  44.464   6.862   1.886
97423W        W62584   9.574  39.921  13.087
97424W        W62585  40.351  22.688   4.574
97425W        W62586  34.895  17.667  11.499
97426W        W62587  32.183  44.414  13.002
97427W        W62588  12.348  40.268   3.183
97428W        W62589  28.325  31.162   2.787
97429W        W62590  18.677   1.186   4.626
97430W        W62591  16.520  37.053  12.865
97431W        W62592  43.841   6.319   2.138
97432W        W62593  11.850  44.517  11.677
97433W        W62594  28.158  43.421  12.288
97434W        W62595  35.159   1.384  11.185
97435W        W62596  35.095  10.642  12.236
97436W        W62597   9.985  39.273   4.167
97437W        W62598  34.641  14.544  14.961
97438W        W62599  41.476  30.358  12.355
97439W        W62600  40.517  33.144   1.188
97440W        W62601   6.055  23.968   2.626
97441W        W62602   7.559  25.204   4.758
97442W        W62603  15.208  19.704  12.513
97443W        W62604   8.002  43.465   0.635
97444W        W62605  29.362  31.191   3.359
97445W        W62606  40.983  26.057  12.107
97446W        W62607   8.494   6.313  14.592
97447W        W62608  26.412   2.726   4.165
97448W        W62609  33.930  34.852   0.976
97449W        W62610  19.019  25.194   3.266
97450W        W62611  31.247   2.976   4.235
97451W        W62612  33.100   1.788  12.954
97452W        W62613  11.328   6.078  13.932
97453W        W62614  39.117  40.719   2.221
97454W        W62615  25.047   8.375   2.944
97455W        W62616  36.640  42.962  11.110
97456W        W62617  30.001  34.077   4.483
97457W        W62618   6.619   0.026   2.700
97458W        W62619   3.392   4.600  12.003
97459W        W62620  27.562   1.223   3.387
97460W        W62621  19.794  15.778  14.965
97461W        W62622  15.715  35.727   3.579
97462W        W62623  12.319  13.198  12.423
97463W        W62624  39.505  27.794  14.902
97464W        W62625  31.620  27.208   4.137
97465W        W62626  42.886  44.392   0.240
97466W        W62627  23.928   6.973   1.251
97467W        W62628   1.932  34.031  11.154
97468W        W62629  40.736  40.401   5.425
97469W        W62630   1.556   3.700   1.344
97470W        W62631   3.438  28.622  14.210
97471W        W62632  38.924  37.478   2.437
97472W        W62633  43.413  39.337  12.098
97473W        W62634  39.469   6.916  10.771
97474W        W62635   9.387  32.684  10.658
97475W        W62636  42.005  24.540   1.011
97476W        W62637   6.323  18.322  11.763
97477W        W62638  31.949  40.964   1.227
97478W        W62639  31.607  42.308   2.749
97479W        W62640   8.313  35.145  11.543
97480W        W62641  19.538  10.772  14.933
97481W        W62642  23.063  32.472   3.221
97482W        W62643   7.869   0.587   1.853
97483W        W62644  27.429   1.824  11.107
97484W        W62645  40.817  13.771  10.570
97485W        W62646  40.808   5.799  12.120
97486W        W62647  42.360  10.494  10.494
97487W        W62648  12.907  30.196   4.027
97488W        W62649  16.657  29.535  12.519
97489W        W62650  38.490  41.283   1.716
97490W        W62651   7.658   3.441  11.481
97491W        W62652  42.453  43.723   1.338
97492W        W62653  16.697  17.546   2.235
97493W        W62654  26.725  36.177   0.321
97494W        W62655   3.475  33.490   3.717
97495W        W62656   1.480  33.909   3.231
97496W        W62657  40.927  24.247  12.496
97497W        W62658   4.892  12.623  13.961
97498W        W62659  17.240  33.586   5.052
97499W        W62660  33.035  23.249  11.862
97500W        W62661   4.707  39.414  14.033
97501W        W62662  36.451  35.818   0.541
97502W        W62663  16.684   0.517   4.637
97503W        W62664  18.850   2.042  10.776
97504W        W62665  30.730  14.087  13.667
97505W        W62666  23.075  22.699  13.015
97506W        W62667   9.723   5.576   2.163
97507W        W62668  27.578   6.086   0.845
97508W        W62669  30.095  12.622   0.813
97509W        W62670   6.777  10.923   1.167
97510W        W62671  26.562   8.134   2.637
97511W        W62672  32.409  19.566   0.257
97512W        W62673  21.090   0.460  12.531
97513W        W62674  39.300  37.633   3.215
97514W        W62675  15.126  27.505   1.689
97515W        W62676   7.337  22.262  12.545
97516W        W62677  26.126  26.004  14.952
97517W        W62678  19.545  44.950   1.015
97518W        W62679   9.775  16.653  12.617
97519W        W62680  20.566  41.059   3.831
97520W        W62681  20.072  26.126  12.632
97521W        W62682  11.352  39.021   3.292
97522W        W62683  32.440  35.808  12.786
97523W        W62684  17.670   3.273  10.631
97524W        W62685  35.823  36.797   3.766
97525W        W62686   6.935  12.436  13.546
97526W        W62687  43.577   9.963   3.281
97527W        W62688  36.707  29.684  12.483
97528W        W62689  31.520  28.523   0.246
97529W        W62690  32.644   5.675  13.909
97530W        W62691  21.235  32.989   4.283
97531W        W62692   5.658  16.846  11.155
97532W        W62693   6.737  39.845  10.605
97533W        W62694  28.048  40.286  11.863
97534W        W62695  34.389  23.473  13.314
97535W        W62696  14.426  36.521  11.988
97536W        W62697  28.609   6.604  14.599
97537W        W62698  35.511   6.927   0.709
97538W        W62699  27.108  34.504  12.831
97539W        W62700   0.513  22.230   1.208
97540W        W62701  36.901   1.211   3.706
97541W        W62702  35.537  32.582  14.115
97542W        W62703  19.418  39.425  10.798
97543W        W62704  22.728  43.039   2.318
97544W        W62705   9.880   5.037  14.351
97545W        W62706  19.199   2.747   0.178
97546W        W62707  27.285  32.645   2.161
97547W        W62708   5.360  29.988   1.461
97548W        W62709  39.802   8.177  14.443
97549W        W62710  13.803  19.716   0.930
97550W        W62711  37.419  21.317   4.074
97551W        W62712  13.136  44.262  10.454
97552W        W62713  26.670  44.494   1.283
97553W        W62714  21.039   4.486   4.791
97554W        W62715  43.244   2.240   2.749
97555W        W62716  11.184  15.567  14.358
97556W        W62717  44.802  40.405   1.824
97557W        W62718   9.053  28.859   2.431
97558W        W62719  32.228   7.448  10.748
97559W        W62720  22.562   7.536   2.162
97560W        W62721   8.720  17.941  11.724
97561W        W62722   9.855  36.916  13.857
97562W        W62723  40.296   5.849  12.144
97563W        W62724  35.583  39.821  14.445
97564W        W62725  31.882  37.321  14.533
97565W        W62726  33.705  44.372   0.768
97566W        W62727  36.838  16.661  12.158
97567W        W62728  29.552   0.545  14.458
97568W        W62729  12.094  13.784   3.490
97569W        W62730  21.648  26.023   3.461
97570W        W62731  34.494  25.551  12.370
97571W        W62732   4.934  11.818   2.758
97572W        W62733  18.614   8.320   1.292
97573W        W62734  20.617  44.627  10.647
97574W        W62735   3.044  30.485   4.495
97575W        W62736  28.620   7.414   0.670
97576W        W62737  13.336  11.299  11.970
97577W        W62738  10.230  11.316  10.604
97578W        W62739  34.867  37.079  14.406
97579W        W62740  38.474   6.073   2.124
97580W        W62741  24.924   4.755  14.799
97581W        W62742   3.655   7.154   4.534
97582W        W62743  41.860  10.358  12.087
97583W        W62744   8.473   9.294   0.383
97584W        W62745  40.999  36.285  13.686
97585W        W62746  43.724  11.021   2.866
97586W        W62747  32.185  23.165   1.701
97587W        W62748  37.860   4.390   4.147
97588W        W62749  40.727  26.094   1.740
97589W        W62750  37.486   2.940  14.953
97590W        W62751  32.627  11.698  13.442
97591W        W62752   7.069  27.076   2.277
97592W        W62753   5.922  36.168  10.806
97593W        W62754  11.464  10.927  14.929
97594W        W62755  41.289  14.766   3.686
97595W        W62756   0.459   3.048   3.281
97596W        W62757   4.337   2.574   1.886
97597W        W62758  10.213  26.975   3.061
97598W        W62759  19.955  40.059  13.481
97599W        W62760   0.880  19.792  11.182
97600W        W62761  17.619  22.691   0.897
97601W        W62762  27.631   5.558  14.682
97602W        W62763  29.323   5.763  14.572
97603W        W62764  19.221   0.965   0.093
97604W        W62765  30.860  34.751  12.070
97605W        W62766  30.885  26.935   2.330
97606W        W62767  44.242   8.790   4.454
97607W        W62768  16.225   7.302   2.244
97608W        W62769  25.966  11.439  12.048
97609W        W62770  37.050  16.291  11.565
97610W        W62771  23.178  11.682   0.855
97611W        W62772  23.517   9.853   0.944
97612W        W62773  31.992  18.254   3.686
97613W        W62774   0.840  20.305  11.168
97614W        W62775  12.282  13.382   2.185
97615W        W62776   2.994  16.150   4.036
97616W        W62777  23.469  30.110   3.513
97617W        W62778  28.394   5.631   1.785
97618W        W62779  17.156   0.201   0.361
97619W        W62780  13.013  19.486  14.386
97620W        W62781  27.182   5.383  11.883
97621W        W62782  18.055  38.869  10.603
97622W        W62783  42.988  26.226  12.043
97623W        W62784  12.107   4.153  12.517
97624W        W62785  31.581  33.224  13.333
97625W        W62786  36.913  38.390   3.250
97626W        W62787  36.107  26.444   3.231
97627W        W62788  19.058  30.767   3.843
97628W        W62789  39.949  32.046   4.153
97629W        W62790  14.902  25.516   9.917
97630W        W62791  36.160  35.114  13.842
97631W        W62792   7.254  36.290  13.050
97632W        W62793  44.970   0.366  14.990
97633W        W62794  26.562  34.048   4.572
97634W        W62795  19.333  18.511  14.980
97635W        W62796   9.981  40.274  10.135
97636W        W62797  37.791  38.925  13.907
97637W        W62798  12.709  19.255  14.841
97638W        W62799   2.523  42.832   0.936
97639W        W62800  35.019  38.814  13.490
97640W        W62801   2.737  17.146   2.724
97641W        W62802  36.915   7.747  11.712
97642W        W62803  28.243  35.465  14.259
97643W        W62804   6.928   7.854  11.522
97644W        W62805  37.547   5.783  11.455
97645W        W62806  41.414  14.759  12.070
97646W        W62807  36.773  18.695  13.636
97647W        W62808   9.740  24.690  10.914
97648W        W62809  40.359   3.661  14.523
97649W        W62810  38.907  30.645  13.873
97650W        W62811  34.466   1.376  11.101
97651W        W62812  16.601  18.120   2.924
97652W        W62813  38.331  33.883  11.253
97653W        W62814  38.683  13.900   0.820
97654W        W62815  14.540   8.556   3.365
97655W        W62816  43.742  21.360  14.878
97656W        W62817  40.872  39.556   1.258
97657W        W62818  31.603  40.942   2.378
97658W        W62819  18.351  31.932   0.737
97659W        W62820  25.865   7.531   1.127
97660W        W62821  13.038  31.797  13.355
97661W        W62822  40.356  18.646  14.393
97662W        W62823  42.732   7.071  13.801
97663W        W62824  36.687  39.024  11.137
97664W        W62825  28.639   9.097   4.412
97665W        W62826  42.078   5.263  10.665
97666W        W62827  27.717   0.968   4.057
97667W        W62828  43.594   8.476   0.766
97668W        W62829  11.249  15.657  11.516
97669W        W62830  22.027  34.820  12.511
97670W        W62831  29.533  38.653  10.059
97671W        W62832  13.060   7.433   1.870
97672W        W62833  40.355  33.111  14.752
97673W        W62834  18.018   8.147  11.928
97674W        W62835  38.271  19.237  11.685
97675W        W62836  34.596  33.917  11.124
97676W        W62837  36.403  21.726   4.058
97677W        W62838   0.147  29.533   0.855
97678W        W62839  44.518  38.325   4.563
97679W        W62840  11.269   0.995  11.207
97680W        W62841  39.407   8.956   2.444
97681W        W62842  12.269  39.080  11.554
97682W        W62843   6.213  27.153   0.617
97683W        W62844  23.849  40.334  12.171
97684W        W62845  39.758  29.821   1.381
97685W        W62846  44.717  18.108  11.567
97686W        W62847  16.628  19.033   1.266
97687W        W62848  16.357  20.578   0.433
97688W        W62849  19.290  23.000  11.062
97689W        W62850  19.771  42.727  10.888
97690W        W62851  32.645  20.191   1.385
97691W        W62852  28.261   2.189   4.105
97692W        W62853  20.091   0.457  14.784
97693W        W62854  28.600  42.468  12.958
97694W        W62855  42.256  31.100   2.831
97695W        W62856  10.142  33.443  10.679
97696W        W62857  31.570  40.277   4.229
97697W        W62858   5.391  35.260  13.394
97698W        W62859  32.455  33.565  14.925
97699W        W62860  25.293  28.676   2.142
97700W        W62861   5.397   6.488   1.403
97701W        W62862  42.514  35.925   1.766
97702W        W62863  26.120  32.017   0.719
97703W        W62864   6.413  37.285   3.688
97704W        W62865  11.612  42.587   1.236
97705W        W62866  42.125   2.770   4.522
97706W        W62867  15.141  34.358   2.757
97707W        W62868  40.549  31.407   2.744
97708W        W62869  18.784   8.607   1.988
97709W        W62870  21.266   9.051   1.182
97710W        W62871  11.743  31.528  12.922
97711W        W62872  42.726  22.710   0.461
97712W        W62873  35.617  43.287   3.152
97713W        W62874  26.463  32.603  14.881
97714W        W62875  19.762  17.134  11.615
97715W        W62876  25.157   4.306   4.185
97716W        W62877  19.495  15.351  11.157
97717W        W62878  21.948   5.115  13.968
97718W        W62879   1.629  20.597  12.159
97719W        W62880  21.046  24.630  12.043
97720W        W62881   4.132   7.754  10.763
97721W        W62882   7.598  14.794  13.958
97722W        W62883  11.170  41.285   1.759
97723W        W62884  18.229  23.052  11.097
97724W        W62885  31.361  30.973  14.011
97725W        W62886  15.615  42.860   1.451
97726W        W62887   8.946  41.852  12.943
97727W        W62888  41.041  13.215  11.643
97728W        W62889  40.319  44.411  11.294
97729W        W62890  20.421  22.105   2.322
97730W        W62891  14.233  11.232  12.486
97731W        W62892  35.540   4.378   3.393
97732W        W62893  34.127   7.432   1.821
97733W        W62894  10.266  36.191  13.509
97734W        W62895  43.792  21.044   4.908
97735W        W62896  21.299  36.471  11.585
97736W        W62897  44.403  12.234  10.355
97737W        W62898  15.096  15.558   2.961
97738W        W62899  36.635  14.588   1.458
97739W        W62900   8.699   5.976   0.414
97740W        W62901  32.036  10.862  13.872
97741W        W62902   4.310  41.919   1.165
97742W        W62903  39.377   2.461   3.601
97743W        W62904   0.347  41.483  13.969
97744W        W62905   5.927  22.288  12.540
97745W        W62906  20.618  24.200   2.831
97746W        W62907   0.631   7.994  12.919
97747W        W62908  42.075  27.055  12.021
97748W        W62909  14.360  37.802   4.998
97749W        W62910   8.967  10.562  11.952
97750W        W62911  15.366  13.868   4.161
97751W        W62912  10.794  10.506  10.215
97752W        W62913  38.950  37.321  11.494
97753W        W62914  11.236  30.498   4.124
97754W        W62915  17.297  44.964  14.414
97755W        W62916  20.380  17.007  14.819
97756W        W62917  31.050  37.976   4.619
97757W        W62918  32.451  36.701   4.282
97758W        W62919  15.146  14.367  10.407
97759W        W62920  22.648  42.235  14.812
97760W        W62921   0.235  35.465   3.924
97761W        W62922  41.010  11.057  12.587
97762W        W62923  16.674  32.863  14.776
97763W        W62924   1.554  17.309   4.084
97764W        W62925   7.265   8.163   1.817
97765W        W62926  31.835  13.620   5.018
97766W        W62927   5.023  19.719  10.640
97767W        W62928  29.940  18.269   1.424
97768W        W62929  12.708  39.777   1.341
97769W        W62930  15.195  35.658  12.541
97770W        W62931  36.283  21.193   3.357
97771W        W62932  39.453  42.838   4.527
97772W        W62933   7.000  24.438   3.108
97773W        W62934  40.082   2.840   1.856
97774W        W62935   4.946  28.520   0.354
97775W        W62936  22.521   2.005   3.738
97776W        W62937   9.791  37.484   1.183
97777W        W62938  20.115  14.615   1.808
97778W        W62939  28.515  44.873   4.638
97779W        W62940  20.166  29.693  12.587
97780W        W62941  31.478   3.564   2.074
97781W        W62942  17.899  44.534   5.025
97782W        W62943  23.453   0.577  10.689
97783W        W62944  42.051   7.265   3.463
97784W        W62945   0.967  32.632  10.733
97785W        W62946   4.546   1.350  14.943
97786W        W62947  21.573  27.279  13.858
97787W        W62948  32.119  40.318  14.968
97788W        W62949  15.609  39.942   0.800
97789W        W62950   6.256   3.785  10.065
97790W        W62951  41.405   2.178   3.566
97791W        W62952  44.748   3.370  14.122
97792W        W62953  36.908  27.119  14.538
97793W        W62954   4.535   8.951  12.911
97794W        W62955   8.115  30.002  11.507
97795W        W62956   1.247  44.518   4.300
97796W        W62957  44.487  37.370  12.900
97797W        W62958   4.020   7.820   0.536
97798W        W62959  22.946  12.768  10.488
97799W        W62960  16.618  26.054  11.566
97800W        W62961  36.321   1.782  10.586
97801W        W62962  17.138  10.415   0.333
97802W        W62963  33.478  23.043  11.121
97803W        W62964  26.594  17.541  12.440
97804W        W62965  27.170  31.168   0.695
97805W        W62966  14.179  44.522  11.516
97806W        W62967  12.152  18.487  12.568
97807W        W62968  23.272  18.830  12.354
97808W        W62969   7.655  32.620  12.920
97809W        W62970  44.643  40.686  14.292
97810W        W62971   9.972  23.083   2.144
97811W        W62972  39.870  41.254   0.734
97812W        W62973  22.970  37.002   5.393
97813W        W62974  15.804  26.321   3.056
97814W        W62975   5.703   7.334   1.565
97815W        W62976   0.426  40.854  11.339
97816W        W62977   6.717  24.001  14.018
97817W        W62978  34.065   8.135  11.539
97818W        W62979  16.334  27.997   1.844
97819W        W62980  41.546  31.150  11.476
97820W        W62981   4.243  44.874  10.980
97821W        W62982  15.582  34.546  12.005
97822W        W62983  37.323  15.457   4.631
97823W        W62984  40.173  37.914   1.990
97824W        W62985  41.192  19.277   1.049
97825W        W62986  38.395   8.896  11.216
97826W        W62987  12.837   3.711  11.298
97827W        W62988  38.151  29.977   4.365
97828W        W62989  43.019  24.202   4.789
97829W        W62990  26.583  17.266  11.980
97830W        W62991  17.603  38.444  12.440
97831W        W62992  20.298  15.207  14.456
97832W        W62993  27.765  32.165   4.174
97833W        W62994   5.757  19.459   0.344
97834W        W62995  39.686  17.326  14.006
97835W        W62996  21.244  30.236   2.518
97836W        W62997  39.421  39.921   1.163
97837W        W62998  23.943  26.540  13.632
97838W        W62999   4.467   5.519  14.607
97839W        W63000  40.146  37.515   2.785
97840W        W63001  43.695  18.677   1.182
97841W        W63002  16.050  27.601   2.608
97842W        W63003  44.863  27.891  13.978
97843W        W63004  18.572  15.269   0.968
97844W        W63005  11.315  36.481  10.863
97845W        W63006  39.436  42.750   1.831
97846W        W63007  18.758  44.712  14.757
97847W        W63008  34.671  32.343  14.325
97848W        W63009  23.329  10.400  11.126
97849W        W63010  21.931  25.141   3.985
97850W        W63011  12.298  28.735  14.919
97851W        W63012   9.611  27.618  11.611
97852W        W63013  44.481  20.566  11.715
97853W        W63014  26.041  42.507  11.018
97854W        W63015   6.248   7.224   0.283
97855W        W63016  22.498  26.011   3.157
97856W        W63017  29.485  43.741   0.936
97857W        W63018  36.533   4.006   3.973
97858W        W63019  24.108  30.729   1.483
97859W        W63020  28.918  23.403   2.625
97860W        W63021   0.798   3.853   1.713
97861W        W63022  34.282  14.377  10.660
97862W        W63023  12.349  10.637  10.592
97863W        W63024  13.975  30.523   0.458
97864W        W63025  27.442  16.264   0.762
97865W        W63026  42.323  13.736   2.684
97866W        W63027   5.360  12.621  13.735
97867W        W63028  24.192   4.899   4.928
97868W        W63029  41.895   2.382  11.127
97869W        W63030  32.143  24.397   4.832
97870W        W63031  32.567  22.030  14.557
97871W        W63032  41.324  34.926  13.011
97872W        W63033  29.194  25.651   0.639
97873W        W63034   3.699  41.485   2.368
97874W        W63035  18.304   3.112  12.028
97875W        W63036  41.369  31.711   3.386
97876W        W63037  14.294  26.715  11.108
97877W        W63038   9.093  17.362   2.783
97878W        W63039  37.421  20.471   0.649
97879W        W63040  22.727   8.954  12.247
97880W        W63041  38.013   6.154   3.574
97881W        W63042  21.521  26.385  13.045
97882W        W63043  42.834  23.619  14.711
97883W        W63044  39.549   3.899   4.616
97884W        W63045  29.393  25.525  11.473
97885W        W63046  38.809  18.276  12.061
97886W        W63047  19.978  20.684   4.243
97887W        W63048  36.634  33.054   0.865
97888W        W63049  35.921  23.927  13.341
97889W        W63050  29.496  10.543   9.900
97890W        W63051  38.813  40.521   1.793
97891W        W63052   1.017  44.873  13.664
97892W        W63053  24.981  36.441  14.903
97893W        W63054  22.150   1.897  11.391
97894W        W63055  33.844   4.545  11.517
97895W        W63056  16.772   0.829  14.689
97896W        W63057  33.473  27.520   4.073
97897W        W63058  23.881   5.266  11.986
97898W        W63059  27.287  39.517   0.615
97899W        W63060   0.117  44.286   2.823
97900W        W63061   5.583  39.585  11.225
97901W        W63062  43.520  15.348   1.396
97902W        W63063  36.752  14.055  12.353
97903W        W63064  32.514  28.009   3.426
97904W        W63065  37.900   0.296   1.301
97905W        W63066   1.220  25.428  13.446
97906W        W63067  20.340  36.324   1.659
97907W        W63068  37.286  27.456  13.840
97908W        W63069  20.335  24.918   1.436
97909W        W63070  26.064  40.711   1.423
97910W        W63071  39.459  12.151  11.605
97911W        W63072  34.029  10.742   4.098
97912W        W63073  33.040  10.092  11.001
97913W        W63074  23.996  23.616   3.488
97914W        W63075  44.789  18.822   2.322
97915W        W63076   5.252  39.315   4.620
97916W        W63077  31.825  11.165   0.963
97917W        W63078  25.096   3.800   4.059
97918W        W63079  10.304  43.792  10.547
97919W        W63080  17.662  35.039   2.354
97920W        W63081   5.228  40.618   0.959
97921W        W63082   0.403   5.942   3.658
97922W        W63083  33.884  21.761  13.318
97923W        W63084  35.365  39.598   2.350
97924W        W63085  28.793  44.326   1.477
97925W        W63086  13.722   4.717  12.637
97926W        W63087   7.185  23.567  10.818
97927W        W63088  37.572  33.051  14.367
97928W        W63089  44.802  30.513  11.154
97929W        W63090  14.624  18.239   1.026
97930W        W63091   6.445  41.850   3.517
97931W        W63092  30.087  19.605  13.542
97932W        W63093  17.155  36.962  11.920
97933W        W63094   1.426   9.761   3.977
97934W        W63095  10.677  16.331  14.543
97935W        W63096  24.558  35.333   4.109
97936W        W63097  21.188  32.289  10.548
97937W        W63098  15.098   7.101   2.716
97938W        W63099   9.212  40.062   1.477
97939W        W63100   1.450  24.100  10.846
97940W        W63101  19.143   9.779  10.767
97941W        W63102  28.451  29.773  14.847
97942W        W63103  12.146  27.546  11.681
97943W        W63104  41.369   7.859   3.059
97944W        W63105  16.714   1.422   4.128
97945W        W63106   4.283  10.219   4.379
97946W        W63107   2.788  10.146   3.742
97947W        W63108  20.705  35.406   0.761
97948W        W63109  22.411  16.213   2.773
97949W        W63110  21.404   0.930  11.661
97950W        W63111  18.580  20.545   4.721
97951W        W63112  13.790   3.438   1.387
97952W        W63113  42.685  43.946   0.917
97953W        W63114   4.761   4.238  10.658
97954W        W63115  23.723  42.359   3.649
97955W        W63116   3.248  39.137   3.098
97956W        W63117  20.102  40.167   0.052
97957W        W63118  35.980  25.973  10.424
97958W        W63119  31.121  10.817  13.895
97959W        W63120  21.141  29.903   1.000
97960W        W63121  43.954  29.506   2.585
97961W        W63122  41.148  15.857  13.608
97962W        W63123  39.147  18.059  11.702
97963W        W63124   9.928  44.068   4.145
97964W        W63125  10.021   3.636   1.305
97965W        W63126  44.469   4.028  12.541
97966W        W63127   1.521   0.307   0.894
97967W        W63128  31.911  29.928   0.866
97968W        W63129  37.792   8.037  11.040
97969W        W63130  28.379  12.684  11.646
97970W        W63131  32.870  24.452  10.253
97971W        W63132  37.551  26.854  14.351
97972W        W63133   5.357  38.892   4.145
97973W        W63134   7.344  31.140  12.076
97974W        W63135  40.548  35.783  14.276
97975W        W63136   3.023  19.483   0.925
97976W        W63137   1.648  16.584  12.525
97977W        W63138   4.985  28.018   2.826
97978W        W63139  13.251  32.974   1.660
97979W        W63140   4.777  39.063  11.962
97980W        W63141   0.290   4.727   1.640
97981W        W63142  37.595  36.543   4.139
97982W        W63143  33.681   5.084   3.791
97983W        W63144  28.110  24.905   2.810
97984W        W63145  33.159  20.552   1.808
97985W        W63146  43.125  18.623   2.286
97986W        W63147  20.215   1.340  12.250
97987W        W63148  23.756  17.512  14.702
97988W        W63149  33.679  10.817   4.508
97989W        W63150  14.797  28.965  12.389
97990W        W63151  13.389   5.368   2.542
97991W        W63152  15.239  35.337   1.948
97992W        W63153   6.820  31.351   3.256
97993W        W63154  19.606  43.675   1.451
97994W        W63155   4.172  12.225  14.057
97995W        W63156  27.211  17.314   1.910
97996W        W63157  33.472  35.513  14.339
97997W        W63158  14.235  42.223  11.578
97998W        W63159  36.141   8.664  14.467
97999W        W63160  18.054  34.697   3.739
98000W        W63161  15.741  11.031   9.929
98001W        W63162  42.995  13.368   4.590
98002W        W63163  27.673  12.753   2.120
98003W        W63164  33.921  16.025   0.322
98004W        W63165  22.106  31.911  11.098
98005W        W63166  24.723   2.932  11.416
98006W        W63167  31.573  14.379   0.614
98007W        W63168  38.957  25.681   1.043
98008W        W63169   4.905  41.717   4.574
98009W        W63170  28.369  11.424   3.100
98010W        W63171  23.972   2.906  10.639
98011W        W63172  21.014  26.385  12.994
98012W        W63173  25.473  10.712   1.245
98013W        W63174  13.315  24.630   0.295
98014W        W63175  29.442  28.186  12.496
98015W        W63176  41.179  40.922   4.741
98016W        W63177  32.580  20.379  12.057
98017W        W63178   5.853  35.613   0.465
98018W        W63179  41.591  21.640   2.656
98019W        W63180   1.776  41.570  11.037
98020W        W63181  26.972   5.044  13.689
98021W        W63182  16.649  37.977  14.404
98022W        W63183  37.007  31.827  11.907
98023W        W63184  41.802   5.531  11.602
98024W        W63185  40.102  12.054  11.185
98025W        W63186  42.386  43.327  12.921
98026W        W63187  14.181  40.391   1.839
98027W        W63188  34.037  23.739   5.070
98028W        W63189   0.826  15.536  14.713
98029W        W63190  40.399   1.360   2.298
98030W        W63191   9.221  34.098   3.703
98031W        W63192   1.640   6.653  11.507
98032W        W63193   5.173  42.929   1.873
98033W        W63194  17.238  33.633   1.199
98034W        W63195  17.448  40.634  14.222
98035W        W63196  28.959  37.652   9.922
98036W        W63197  39.665  39.445  15.000
98037W        W63198  41.021  36.158   0.556
98038W        W63199  19.481  12.194   0.917
98039W        W63200   5.667  33.428   4.112
98040W        W63201  12.781  20.202  12.621
98041W        W63202  16.654   9.738   4.559
98042W        W63203  39.238  16.167  12.840
98043W        W63204   2.043  39.534  13.768
98044W        W63205  37.400  13.390   2.340
98045W        W63206  24.213  35.523  12.943
98046W        W63207  19.177  37.778   4.566
98047W        W63208  27.114  44.970  12.003
98048W        W63209  23.333  21.115  13.917
98049W        W63210   3.402  24.862  10.677
98050W        W63211  29.679  31.913   2.313
98051W        W63212  40.078  36.360  11.245
98052W        W63213  41.065   4.927  11.531
98053W        W63214  35.858  15.596   3.696
98054W        W63215   8.636  32.108   1.163
98055W        W63216  22.057  12.543   1.900
98056W        W63217   4.077   5.276  11.213
98057W        W63218   0.490   8.206   1.309
98058W        W63219  14.615  11.441   1.174
98059W        W63220  42.594  14.698  14.434
98060W        W63221   9.412   7.906  13.980
98061W        W63222  24.139  32.888  11.456
98062W        W63223  25.622  37.359  12.484
98063W        W63224  16.347  24.528   1.207
98064W        W63225  17.191  44.780   1.950
98065W        W63226   9.447  43.440   2.924
98066W        W63227  30.893   8.922  13.508
98067W        W63228  10.948   4.598   3.798
98068W        W63229  20.295  31.114   4.033
98069W        W63230  43.523  30.651  14.239
98070W        W63231  16.632  26.052   4.541
98071W        W63232  31.080  43.515   4.035
98072W        W63233  38.292  31.856  14.537
98073W        W63234  19.000   2.849   0.981
98074W        W63235  12.505  34.808   1.429
98075W        W63236  15.666  10.888   3.706
98076W        W63237  19.731   9.640  14.466
98077W        W63238  22.754   2.416   1.473
98078W        W63239  15.066   5.106  10.941
98079W        W63240  24.123  32.561   0.969
98080W        W63241  13.131  21.288   2.693
98081W        W63242  39.553  36.093  14.545
98082W        W63243   3.862  16.448  14.016
98083W        W63244   4.734  34.594  11.980
98084W        W63245  31.194  32.359  11.137
98085W        W63246  21.296   3.892   1.704
98086W        W63247   8.181  38.818  13.761
98087W        W63248  16.488  44.791   2.841
98088W        W63249  42.081   9.291  14.096
98089W        W63250  33.596  29.518  13.006
98090W        W63251   1.078  16.611   1.461
98091W        W63252  36.003  11.422  13.457
98092W        W63253  27.156   9.808   2.863
98093W        W63254  16.060  34.533  13.348
98094W        W63255  40.265  28.582   4.330
98095W        W63256  28.732   0.897   3.575
98096W        W63257   3.165  26.613  13.529
98097W        W63258  35.907  15.748  12.019
98098W        W63259  41.228  17.752   0.928
98099W        W63260  33.248  36.410  10.016
98100W        W63261   4.881  36.345  14.981
98101W        W63262  14.522  38.295   1.044
98102W        W63263  38.180   9.847   1.174
98103W        W63264  40.595  26.052  14.412
98104W        W63265   3.673  22.111   4.469
98105W        W63266  15.791  17.709   4.990
98106W        W63267  42.558  18.889   1.813
98107W        W63268   4.114  23.302   5.742
98108W        W63269  14.754  29.242  11.829
98109W        W63270  20.295  42.197  12.020
98110W        W63271  17.582   2.779  14.933
98111W        W63272  27.713  21.290  14.822
98112W        W63273  41.352   9.091  11.123
98113W        W63274  14.694  25.432  10.939
98114W        W63275  11.701   2.474   4.793
98115W        W63276  20.395  32.425  14.774
98116W        W63277  10.607  11.447   3.662
98117W        W63278  10.688  44.523   4.432
98118W        W63279  18.075  12.184   2.918
98119W        W63280   4.178  15.650   1.434
98120W        W63281   4.178   7.137   4.549
98121W        W63282  35.369  11.228   2.602
98122W        W63283  27.687  12.736   3.698
98123W        W63284  18.543  36.918  11.522
98124W        W63285  28.871  19.850  14.125
98125W        W63286  34.067  44.080  13.997
98126W        W63287   5.809  11.101   1.643
98127W        W63288  32.484  34.983   0.772
98128W        W63289  38.404   5.273  11.492
98129W        W63290   1.358  33.057  14.775
98130W        W63291  21.297   8.171  13.985
98131W        W63292  14.996  21.016   3.180
98132W        W63293  31.517  43.002   1.305
98133W        W63294  21.840  28.637  10.663
98134W        W63295   2.811  39.837   1.345
98135W        W63296  10.459   7.265  13.200
98136W        W63297  13.472  27.889   3.553
98137W        W63298  13.800  29.715   4.203
98138W        W63299   1.773  12.360   4.053
98139W        W63300  36.923  18.477   4.658
98140W        W63301  23.589   6.314  12.441
98141W        W63302  14.463  28.018   2.059
98142W        W63303  24.188  12.067  13.996
98143W        W63304  22.670   3.921  12.193
98144W        W63305  20.103  30.145   0.794
98145W        W63306  38.328  19.193  12.640
98146W        W63307  21.667  32.147  11.232
98147W        W63308  44.441  29.656  14.230
98148W        W63309  38.360  29.148  11.161
98149W        W63310  42.536  38.079   0.185
98150W        W63311   6.388  30.081   4.552
98151W        W63312   6.280   7.679   4.536
98152W        W63313   0.988  13.171   1.218
98153W        W63314   0.256  21.657  13.022
98154W        W63315  22.562  31.880   1.247
98155W        W63316  35.117  36.344  13.344
98156W        W63317  23.631  12.770   1.258
98157W        W63318  35.956  29.426  10.387
98158W        W63319  16.881  40.472  10.236
98159W        W63320  16.666  44.404  10.295
98160W        W63321  23.084   2.105   0.158
98161W        W63322   1.654  27.911  13.858
98162W        W63323  32.032  34.296   4.204
98163W        W63324  13.257  17.060  13.865
98164W        W63325   7.049  25.941   1.357
98165W        W63326  43.887  37.378  11.642
98166W        W63327  20.101  23.511  12.480
98167W        W63328  43.985  43.274   0.269
98168W        W63329  14.512   3.240   1.474
98169W        W63330   2.265  15.311  13.847
98170W        W63331  35.913  25.167  12.028
98171W        W63332  26.350  27.646   0.522
98172W        W63333  29.886  18.709  14.176
98173W        W63334   5.195   6.077   3.295
98174W        W63335  32.417  23.540  14.901
98175W        W63336  14.072  21.393   1.864
98176W        W63337  14.622   8.679  10.374
98177W        W63338  30.775  32.238  14.320
98178W        W63339  17.162  16.181   4.054
98179W        W63340  34.823  43.027  13.314
98180W        W63341  33.018   4.456   1.494
98181W        W63342  33.774  20.081  12.770
98182W        W63343  42.472  44.717  11.139
98183W        W63344  19.589   2.225   3.195
98184W        W63345  17.147  10.244   4.128
98185W        W63346  15.521  12.234   4.466
98186W        W63347  14.485  30.476  12.206
98187W        W63348   3.817  42.931  11.885
98188W        W63349  32.373  22.711   0.092
98189W        W63350   7.690  10.434  12.113
98190W        W63351  23.438  23.868  13.835
98191W        W63352   3.227   4.492  14.282
98192W        W63353  17.497  25.092  11.294
98193W        W63354   3.170  22.490  12.900
98194W        W63355  19.853  26.422   3.149
98195W        W63356  36.734  43.305   1.807
98196W        W63357  26.182  11.197   0.188
98197W        W63358  35.930   3.640   4.752
98198W        W63359  16.451  26.341  13.081
98199W        W63360  11.699  17.637   3.135
98200W        W63361  12.344   3.683  12.474
98201W        W63362   8.878  43.470   0.941
98202W        W63363  11.724  37.621   3.293
98203W        W63364  27.951  24.619   0.018
98204W        W63365  12.680  32.532  12.564
98205W        W63366   2.991  28.536   3.678
98206W        W63367  16.346  18.708   2.393
98207W        W63368   0.462  35.202  10.273
98208W        W63369  38.601   1.393  12.845
98209W        W63370  21.015  31.841  14.500
98210W        W63371  38.016   9.230  11.188
98211W        W63372  30.439   0.035  13.807
98212W        W63373  15.106  13.611   0.913
98213W        W63374  29.504   9.418   2.355
98214W        W63375   6.214  18.477  10.912
98215W        W63376  25.834   0.851   2.917
98216W        W63377  28.571   7.886  12.029
98217W        W63378  23.526  36.613   1.337
98218W        W63379  39.783  10.302  10.626
98219W        W63380   5.785   1.712  10.741
98220W        W63381   4.236  28.968  14.437
98221W        W63382  22.631   9.602   2.790
98222W        W63383  16.858  12.014  14.611
98223W        W63384  30.383   6.252   2.823
98224W        W63385   4.982  13.193  10.671
98225W        W63386  30.625   1.278   1.545
98226W        W63387  30.216   3.236  11.266
98227W        W63388   3.009  32.188  11.246
98228W        W63389  10.130  28.935  11.567
98229W        W63390   3.055  29.943   0.599
98230W        W63391  41.559  23.185  13.766
98231W        W63392  10.732  26.160   2.187
98232W        W63393  17.298  21.447  12.365
98233W        W63394   1.820   3.787  10.686
98234W        W63395  42.491   6.217   1.378
98235W        W63396  35.311  14.927   3.862
98236W        W63397   9.188   7.381  14.946
98237W        W63398  13.757   6.142  11.122
98238W        W63399  39.538  20.964   3.669
98239W        W63400  30.558  29.956   4.736
98240W        W63401  17.241  21.803  13.307
98241W        W63402  37.301   0.777  13.141
98242W        W63403  30.691  13.176   0.881
98243W        W63404  41.291  26.457   3.876
98244W        W63405  25.774   4.174   1.803
98245W        W63406  26.357  21.261  11.136
98246W        W63407  17.651  15.582   2.405
98247W        W63408  36.236  33.662   1.277
98248W        W63409  33.881  37.771   5.025
98249W        W63410   1.875  22.944   1.698
98250W        W63411  24.186  41.020  14.353
98251W        W63412   2.214  26.585   0.004
98252W        W63413  33.413  11.663  14.530
98253W        W63414  41.253  18.676  14.011
98254W        W63415   2.859   3.194   0.271
98255W        W63416  13.489  38.276   4.011
98256W        W63417  16.391   4.266   2.882
98257W        W63418  16.287  10.614  13.328
98258W        W63419   9.030  32.523   0.882
98259W        W63420  33.487  41.767  14.002
98260W        W63421  34.337  11.246   2.618
98261W        W63422   1.001  11.164   1.366
98262W        W63423  12.078  25.634  12.789
98263W        W63424  37.095  20.713   3.316
98264W        W63425   7.901  24.487  14.967
98265W        W63426  29.127  44.535   1.118
98266W        W63427  10.939  32.340   2.253
98267W        W63428   9.237  33.449   1.274
98268W        W63429   4.279   6.340  13.061
98269W        W63430  37.822  28.196  11.275
98270W        W63431  43.794  12.215   3.759
98271W        W63432  18.795  44.939  11.592
98272W        W63433  36.871  43.453  13.937
98273W        W63434  17.170   7.695   0.984
98274W        W63435  17.065  39.007  11.648
98275W        W63436  24.130  35.511  13.495
98276W        W63437   3.298  21.028  10.170
98277W        W63438  14.519  13.752  12.591
98278W        W63439  26.505  20.993   2.251
98279W        W63440  21.318  32.443   2.702
98280W        W63441  39.890  31.688  13.326
98281W        W63442  20.349   0.987  13.470
98282W        W63443  21.231  16.841   5.189
98283W        W63444  35.477  23.462  14.732
98284W        W63445  40.121  34.047   0.256
98285W        W63446   4.753  41.037  14.322
98286W        W63447   6.842  16.733  13.083
98287W        W63448  34.589  25.055   1.605
98288W        W63449  11.675   3.270  10.429
98289W        W63450  43.944   4.161   0.853
98290W        W63451  25.943  19.846  14.972
98291W        W63452   7.700   8.412  14.889
98292W        W63453  34.623  15.326   1.353
98293W        W63454  20.050  29.021  13.783
98294W        W63455   4.862  28.269   3.817
98295W        W63456   1.978   6.662  13.451
98296W        W63457  33.445  39.902  12.715
98297W        W63458  43.677  31.442  11.189
98298W        W63459  11.717  17.057   4.549
98299W        W63460  27.481  31.577  14.957
98300W        W63461  33.543  16.355   0.350
98301W        W63462  25.212  32.013  10.413
98302W        W63463  29.600  12.383   1.325
98303W        W63464  23.441  33.053  11.125
98304W        W63465  23.611  19.684  11.209
98305W        W63466  44.848   9.670  11.906
98306W        W63467  11.307  17.707  11.935
98307W        W63468   5.231  28.201   4.177
98308W        W63469  16.521  37.012  11.420
98309W        W63470  44.184  43.806  12.360
98310W        W63471  10.604   4.204   4.602
98311W        W63472   3.705  21.304   0.933
98312W        W63473  20.625  39.204   2.379
98313W        W63474  17.045  14.760   1.397
98314W        W63475  34.801  43.364   2.954
98315W        W63476  31.187  11.823  10.514
98316W        W63477  38.249   3.486  14.013
98317W        W63478  40.553  39.872   1.510
98318W        W63479  19.653   3.288  12.467
98319W        W63480  29.858  28.609  10.439
98320W        W63481  39.848  14.864   4.726
98321W        W63482  42.793   3.778   4.874
98322W        W63483  34.132  21.179  10.620
98323W        W63484  15.537   8.890   9.754
98324W        W63485  31.022  34.228   3.058
98325W        W63486   1.333  38.055   3.758
98326W        W63487  41.381  12.937  10.430
98327W        W63488   4.442  20.641  14.718
98328W        W63489  44.267  28.954   4.499
98329W        W63490   0.253   5.364   2.428
98330W        W63491  42.275  43.824  13.838
98331W        W63492  22.811   3.030  13.912
98332W        W63493  19.184  32.442  13.354
98333W        W63494   0.916  36.606   3.071
98334W        W63495  37.022  37.831   5.021
98335W        W63496  35.528  12.549  10.718
98336W        W63497  23.499  17.318   3.919
98337W        W63498   8.497   6.823  11.925
98338W        W63499  28.088  23.453   4.112
98339W        W63500  29.618  15.616   5.224
98340W        W63501   5.317  10.932  13.030
98341W        W63502  21.855  27.260  11.597
98342W        W63503  31.333  33.372   4.616
98343W        W63504  36.547   0.859  14.528
98344W        W63505   4.224  12.714   2.781
98345W        W63506   9.852  28.641  12.346
98346W        W63507  37.422  26.655   0.538
98347W        W63508  10.608  42.440   1.488
98348W        W63509  18.853  44.836  12.352
98349W        W63510  30.121  25.478   1.111
98350W        W63511  31.982  16.963  10.925
98351W        W63512  42.818  11.319   4.556
98352W        W63513  44.086   2.992   3.288
98353W        W63514   0.224  15.317  11.658
98354W        W63515   5.268  38.838   2.615
98355W        W63516   5.684   4.381  14.344
98356W        W63517  44.322  18.307  13.379
98357W        W63518  24.939   1.869   1.129
98358W        W63519   3.714  34.941   3.160
98359W        W63520  29.323   6.957   3.194
98360W        W63521  10.896  42.190   3.601
98361W        W63522  29.316  11.236  13.319
98362W        W63523  24.445  20.292   1.762
98363W        W63524   1.882  34.129   2.469
98364W        W63525   4.931  27.255   0.793
98365W        W63526  21.653  12.550  12.798
98366W        W63527   2.967  40.286  12.785
98367W        W63528  41.117   6.231  11.996
98368W        W63529  33.555  13.056  12.282
98369W        W63530  37.304  32.428   1.232
98370W        W63531  16.713  40.528  10.751
98371W        W63532  27.244  22.784  10.276
98372W        W63533  31.216  43.431  11.663
98373W        W63534  40.246  39.920  13.903
98374W        W63535  44.472  25.983   1.327
98375W        W63536   5.767   0.737   3.161
98376W        W63537  14.174  18.542   3.266
98377W        W63538  12.637  31.452  13.324
98378W        W63539   4.508  38.399   3.586
98379W        W63540  35.587  29.793  13.290
98380W        W63541  43.077   2.538   5.009
98381W        W63542  16.492   4.380   2.348
98382W        W63543  39.481   4.836  12.480
98383W        W63544  13.590  19.508  14.397
98384W        W63545  19.083  31.086   3.445
98385W        W63546  28.387   3.286   1.197
98386W        W63547  29.655  26.745  13.902
98387W        W63548   8.357  31.997   5.054
98388W        W63549  19.741  39.686   5.005
98389W        W63550  42.564  26.162   3.667
98390W        W63551   8.383   8.675  12.595
98391W        W63552  21.158  18.190   3.394
98392W        W63553  28.198  22.808   3.463
98393W        W63554   1.404  18.826   1.993
98394W        W63555  10.875  26.799   1.533
98395W        W63556  36.227  11.747   1.214
98396W        W63557  35.464  20.948   4.960
98397W        W63558   4.009  33.016  11.154
98398W        W63559  39.302   8.065  14.396
98399W        W63560   0.782  14.861   3.432
98400W        W63561  36.481  17.737  13.560
98401W        W63562  15.826  44.429  11.198
98402W        W63563   6.399  14.348  11.555
98403W        W63564  16.615  17.027   2.334
98404W        W63565  29.380   4.723  11.914
98405W        W63566   3.062   5.303  12.296
98406W        W63567  11.402  15.731  14.803
98407W        W63568  20.667  12.121   4.217
98408W        W63569  10.689  35.901  12.850
98409W        W63570   3.975   1.869  13.429
98410W        W63571  39.366  42.615  12.357
98411W        W63572  13.144  30.089  11.622
98412W        W63573  13.242   4.675   2.416
98413W        W63574  26.975  19.631   2.858
98414W        W63575  36.514   6.238   3.804
98415W        W63576  16.558  28.384  11.514
98416W        W63577  21.308   7.833  13.048
98417W        W63578  13.777  25.625   2.853
98418W        W63579  13.915  27.658   5.023
98419W        W63580  41.947  37.899   2.164
98420W        W63581   8.135  10.368  14.056
98421W        W63582  42.903  21.819   1.736
98422W        W63583  40.380  17.851  12.697
98423W        W63584  36.000   7.150  13.858
98424W        W63585  31.421  11.334  10.769
98425W        W63586  36.049   8.937   4.281
98426W        W63587  33.250   8.768  10.789
98427W        W63588  20.139  40.305   2.627
98428W        W63589  11.129  28.077   4.473
98429W        W63590   5.258  16.517  11.253
98430W        W63591  41.362  26.470  14.780
98431W        W63592   3.397  31.481   4.526
98432W        W63593  32.002  23.656   1.715
98433W        W63594   2.318  25.891  10.716
98434W        W63595  24.766  43.377  10.640
98435W        W63596  43.046  31.874   0.405
98436W        W63597  16.488  28.720   2.412
98437W        W63598  13.755  22.272  14.382
98438W        W63599  25.096  38.433   2.859
98439W        W63600   4.439  30.188  14.892
98440W        W63601  26.226  20.719   4.863
98441W        W63602  17.566  21.685  10.768
98442W        W63603   4.791  12.046  13.153
98443W        W63604  29.709  28.928  14.441
98444W        W63605  23.075  10.322   3.585
98445W        W63606  10.111  43.997   2.810
98446W        W63607  18.702  42.407  11.627
98447W        W63608  12.554  31.142  13.736
98448W        W63609   5.671   0.773   0.533
98449W        W63610  22.994  16.031   2.772
98450W        W63611  19.800  36.155   2.313
98451W        W63612   4.432  43.385   0.021
98452W        W63613  32.414   3.430  11.521
98453W        W63614   2.753  18.307  13.138
98454W        W63615   7.948  16.361   3.780
98455W        W63616  37.892  11.392   2.651
98456W        W63617  30.493   9.689  14.183
98457W        W63618  35.126  43.251   0.880
98458W        W63619  21.545  27.958  10.670
98459W        W63620  20.205  29.692   1.740
98460W        W63621  34.123  36.406  12.400
98461W        W63622  44.184  37.511   0.926
98462W        W63623   0.338  39.353  11.553
98463W        W63624  29.965  11.500   0.330
98464W        W63625  32.549  19.079  12.401
98465W        W63626  44.258  30.086  14.445
98466W        W63627  24.206  41.995  14.436
98467W        W63628   8.087  24.546  11.127
98468W        W63629  10.690  26.633  10.702
98469W        W63630  14.531  22.031   2.733
98470W        W63631   1.503  20.834   3.221
98471W        W63632  37.358   9.182   1.304
98472W        W63633  11.324  34.401   4.161
98473W        W63634  24.175   5.666   2.749
98474W        W63635  35.201  32.430  10.691
98475W        W63636  30.205  35.193  11.315
98476W        W63637  18.035  14.680   3.159
98477W        W63638  43.332  14.310   2.443
98478W        W63639  17.583  15.193  12.467
98479W        W63640  26.848   8.274   1.654
98480W        W63641  34.390  40.838  12.485
98481W        W63642  38.318   1.724  12.565
98482W        W63643   1.368  43.020  13.909
98483W        W63644  11.308  35.888  11.650
98484W        W63645  10.745  24.707   1.341
98485W        W63646  40.969   3.008   0.781
98486W        W63647  26.657  39.423  12.058
98487W        W63648  18.367  43.380  14.881
98488W        W63649  29.301  23.279   2.267
98489W        W63650  18.812  29.098   4.480
98490W        W63651   7.723  22.045   2.534
98491W        W63652  18.238   1.678   1.257
98492W        W63653   7.183   6.332  14.895
98493W        W63654  28.427  36.583  10.648
98494W        W63655  37.192  40.475  12.000
98495W        W63656  44.328   1.656   3.707
98496W        W63657  40.988  18.269   2.731
98497W        W63658  15.160   9.799   3.250
98498W        W63659  11.612   3.913   2.768
98499W        W63660  42.300  36.496   3.056
98500W        W63661   0.905  40.541  12.406
98501W        W63662  17.294  15.563  13.971
98502W        W63663  15.175   3.771   1.578
98503W        W63664  20.020   6.354   4.060
98504W        W63665   9.399  12.756   0.265
98505W        W63666  21.153   1.707   0.563
98506W        W63667  37.168  43.323   3.589
98507W        W63668  24.742  43.362   3.847
98508W        W63669  10.673  40.854  11.989
98509W        W63670  19.079   8.946  10.635
98510W        W63671  25.638  21.404   3.670
98511W        W63672   2.296   2.656  12.132
98512W        W63673  20.679  36.567  12.403
98513W        W63674  27.461  37.028   2.320
98514W        W63675  32.091   8.724   1.343
98515W        W63676  39.704  11.178   2.478
98516W        W63677  17.122  25.364  11.031
98517W        W63678  44.663  19.775  11.394
98518W        W63679  39.224  44.795   3.307
98519W        W63680  16.684  13.578   2.805
98520W        W63681  37.718  42.412   4.707
98521W        W63682  31.038  37.940  13.517
98522W        W63683  29.157  12.127   1.721
98523W        W63684  35.174  44.962  13.367
98524W        W63685  41.951  16.809   0.944
98525W        W63686  22.626  38.124  11.631
98526W        W63687   6.270  14.362  12.351
98527W        W63688  15.220  19.240   1.209
98528W        W63689   4.431  36.883   2.176
98529W        W63690  21.667  24.056  11.174
98530W        W63691  29.593  41.060  13.832
98531W        W63692  44.443  44.384  13.681
98532W        W63693  32.564  29.156  14.380
98533W        W63694  12.735   1.790  14.337
98534W        W63695  32.944   1.908   1.203
98535W        W63696  39.313  16.792   1.499
98536W        W63697   0.323  20.742   2.860
98537W        W63698  28.567  25.555   2.325
98538W        W63699  39.901  39.889  11.029
98539W        W63700  39.701  42.308  11.062
98540W        W63701  21.794  31.468  14.553
98541W        W63702  27.946  13.526  14.821
98542W        W63703  13.595  16.358  13.375
98543W        W63704  11.789  24.129   0.884
98544W        W63705   5.879   0.948  13.617
98545W        W63706  20.609   4.978   0.392
98546W        W63707  37.793  40.357   9.953
98547W        W63708  12.684   3.109  10.709
98548W        W63709  24.682  21.292  10.988
98549W        W63710  13.356   6.315   1.270
98550W        W63711  12.096  13.395   3.075
98551W        W63712  40.568  30.969   0.837
98552W        W63713  44.320  33.201  12.412
98553W        W63714  12.939   3.359   2.720
98554W        W63715  27.390  17.235   4.314
98555W        W63716  37.963  17.937   0.197
98556W        W63717  21.501   9.865   0.880
98557W        W63718  33.457   0.386  12.009
98558W        W63719  20.795  18.679  11.575
98559W        W63720  27.524  19.570  11.499
98560W        W63721   9.510  11.893  11.170
98561W        W63722   9.561   7.945   0.942
98562W        W63723  16.961  15.147   3.577
98563W        W63724   9.227  11.612   2.838
98564W        W63725   6.315  20.792   2.192
98565W        W63726  33.885  30.982  14.862
98566W        W63727  22.566  33.834   4.064
98567W        W63728   3.167  44.075  12.856
98568W        W63729  42.328  35.260   1.806
98569W        W63730   9.759  25.553   4.557
98570W        W63731  40.707  20.741   4.206
98571W        W63732  27.947  19.008  12.889
98572W        W63733  30.670  25.709   2.826
98573W        W63734  12.628  12.800  12.915
98574W        W63735   2.045   0.497   4.877
98575W        W63736  39.390  43.061   3.501
98576W        W63737  33.661  30.418  14.593
98577W        W63738  30.131   9.918  11.945
98578W        W63739  27.425  34.030   2.164
98579W        W63740  29.193  17.313   3.943
98580W        W63741  43.486  11.709  10.736
98581W        W63742   7.955  16.847   3.654
98582W        W63743  19.676  41.886  13.916
98583W        W63744   7.743  22.708   9.900
98584W        W63745   5.940   9.126  10.672
98585W        W63746  39.352  44.015   3.647
98586W        W63747  14.266  30.109   1.909
98587W        W63748  35.884  36.156   2.393
98588W        W63749  40.222  42.588  14.946
98589W        W63750  37.558   3.811   1.512
98590W        W63751  43.419  28.860   2.641
98591W        W63752  38.804   4.491   2.858
98592W        W63753  28.932  40.949   3.892
98593W        W63754  29.665  18.973  14.889
98594W        W63755  25.710  43.856  13.774
98595W        W63756   5.433  32.075   0.060
98596W        W63757  30.609  22.846   4.565
98597W        W63758   3.474  35.003  10.816
98598W        W63759  18.924  37.484   1.670
98599W        W63760  40.725  17.276   1.779
98600W        W63761  39.033  38.961   1.329
98601W        W63762  24.263  28.304   2.642
98602W        W63763  15.608  10.866  13.485
98603W        W63764  23.742   2.325   3.170
98604W        W63765   1.245  36.682  14.264
98605W        W63766  41.027  32.014  12.573
98606W        W63767  41.890  24.669  13.860
98607W        W63768   9.715  11.469   4.120
98608W        W63769   5.945  22.552   1.198
98609W        W63770  21.756  12.206   2.145
98610W        W63771  12.221  12.634  11.927
98611W        W63772  35.075  28.204   2.295
98612W        W63773  38.070  43.858   4.678
98613W        W63774  17.790  24.394   2.337
98614W        W63775  19.196  10.072   0.867
98615W        W63776   8.260  37.323  12.724
98616W        W63777  43.290  26.608  11.876
98617W        W63778  21.106   9.821   2.109
98618W        W63779  33.216  31.899   1.512
98619W        W63780  13.644   7.569  11.836
98620W        W63781  37.395  43.726  14.745
98621W        W63782   7.407  18.597  14.402
98622W        W63783   1.029  10.720   3.733
98623W        W63784   3.808  14.102  10.658
98624W        W63785  44.953  20.548  12.569
98625W        W63786  36.587  29.662   2.278
98626W        W63787  18.890  40.026   9.791
98627W        W63788  39.465  36.867  13.033
98628W        W63789  32.695   3.325  12.359
98629W        W63790  31.474  27.726   4.171
98630W        W63791  41.688   6.610   1.756
98631W        W63792   4.955  31.952   0.263
98632W        W63793  41.383   4.856   5.047
98633W        W63794  15.825  24.568  12.202
98634W        W63795  19.774  35.011   4.116
98635W        W63796  25.147  37.677   0.428
98636W        W63797   3.074  12.327   0.307
98637W        W63798   4.491  24.446  14.441
98638W        W63799  14.928  18.804  10.973
98639W        W63800  29.544  27.144  14.181
98640W        W63801  40.089   9.768  10.685
98641W        W63802  16.694  10.918  13.392
98642W        W63803   5.806   9.640   1.067
98643W        W63804  22.609  23.685   0.413
98644W        W63805  25.457  11.899   3.710
98645W        W63806   2.401  14.554   4.097
98646W        W63807  42.297   5.998  13.504
98647W        W63808  11.876  24.424  14.595
98648W        W63809  29.876  15.409   0.184
98649W        W63810  13.638  32.681  11.176
98650W        W63811  15.132  19.769   1.173
98651W        W63812  41.401  32.418   4.856
98652W        W63813  33.347  10.919  11.494
98653W        W63814  44.043  23.298  10.731
98654W        W63815   5.734  22.661  11.102
98655W        W63816  21.333  21.983  11.654
98656W        W63817  15.489  24.514  13.068
98657W        W63818  19.592  12.398   2.644
98658W        W63819   5.799  42.919  10.863
98659W        W63820   7.120  37.101   4.546
98660W        W63821  33.004  27.514   4.343
98661W        W63822  23.911  32.642  13.862
98662W        W63823  33.759  33.565   0.785
98663W        W63824   1.679  19.125  14.464
98664W        W63825  37.381  29.035   2.150
98665W        W63826  13.833  14.258   5.281
98666W        W63827  44.795  41.735  12.835
98667W        W63828  29.380   7.283   9.976
98668W        W63829  24.489  30.991  12.799
98669W        W63830  34.542  10.209   3.145
98670W        W63831  20.833  25.524   9.930
98671W        W63832   6.253  19.319   4.003
98672W        W63833  36.960  20.297   0.369
98673W        W63834  41.724  26.527  13.510
98674W        W63835  28.120  17.039  11.601
98675W        W63836  24.720  34.665   3.633
98676W        W63837  20.257  24.228  12.883
98677W        W63838  31.673  35.127  13.453
98678W        W63839  21.761  41.451  13.489
98679W        W63840  11.311  21.032  10.907
98680W        W63841  29.717  11.358   1.329
98681W        W63842  24.387  29.141  14.739
98682W        W63843  14.852   5.923   3.726
98683W        W63844  23.648  30.137   4.599
98684W        W63845  43.869   5.609  11.970
98685W        W63846  22.620  19.015   4.632
98686W        W63847  10.971  10.921   2.838
98687W        W63848   2.265   5.537  11.188
98688W        W63849  19.794   5.982  13.298
98689W        W63850  18.613  41.440   3.844
98690W        W63851  19.456  36.798   1.385
98691W        W63852  41.593  23.506   2.643
98692W        W63853  19.632  23.737  11.422
98693W        W63854  32.451  13.562   2.372
98694W        W63855   1.492  28.219  10.729
98695W        W63856  19.369  43.421  10.410
98696W        W63857  41.242  42.787  11.956
98697W        W63858   9.883  11.834  14.884
98698W        W63859  35.968  14.225   3.195
98699W        W63860  18.664  36.857   4.819
98700W        W63861  30.948  40.740  12.924
98701W        W63862  14.546  16.215  12.594
98702W        W63863  20.055  14.272   3.252
98703W        W63864  24.274  38.353  12.132
98704W        W63865   3.174  18.089   0.778
98705W        W63866  40.052  42.228   1.342
98706W        W63867  42.445  30.193   3.264
98707W        W63868  16.271  44.418  13.011
98708W        W63869  29.304   4.327  12.417
98709W        W63870  14.352  17.793   4.608
98710W        W63871  14.146  32.019  10.726
98711W        W63872   0.342  30.469  12.502
98712W        W63873  37.071   7.644  13.878
98713W        W63874  30.294  16.737   1.825
98714W        W63875   1.417  42.834  12.222
98715W        W63876  44.939   6.836  14.557
98716W        W63877  32.585  43.626   0.682
98717W        W63878  18.806   7.589   0.514
98718W        W63879  25.418  10.608  10.900
98719W        W63880  29.027  12.257  10.366
98720W        W63881  27.486  44.035  15.000
98721W        W63882  36.988  41.733   0.004
98722W        W63883  22.631  40.557  14.042
98723W        W63884  40.379  32.749  12.905
98724W        W63885  26.512  32.099   3.236
98725W        W63886  44.790  41.532   1.462
98726W        W63887  23.100   6.277  12.187
98727W        W63888  38.725  34.598   3.213
98728W        W63889  31.983  16.339   2.370
98729W        W63890   7.018   5.160   0.649
98730W        W63891  44.298   6.646  10.676
98731W        W63892  21.482   5.729  12.585
98732W        W63893  24.670  30.813  14.847
98733W        W63894  10.710   6.413   2.668
98734W        W63895   1.684  27.675   0.002
98735W        W63896  40.025  27.185  14.813
98736W        W63897  22.631  14.733  13.303
98737W        W63898  37.430  21.693   3.719
98738W        W63899  23.593  17.095   0.536
98739W        W63900  26.747  44.379  12.435
98740W        W63901  18.063  36.868  14.870
98741W        W63902  29.090  12.260  13.883
98742W        W63903  16.637   3.620   2.798
98743W        W63904  34.566   4.856  10.980
98744W        W63905  29.455  31.676  10.398
98745W        W63906  27.633  39.075  12.185
98746W        W63907  43.219  28.948  12.470
98747W        W63908  35.445  35.681  11.045
98748W        W63909  26.561  18.672   4.820
98749W        W63910  25.140  33.896   3.845
98750W        W63911   1.940   5.815   0.885
98751W        W63912  14.317  18.122   2.868
98752W        W63913  28.429   1.184   3.263
98753W        W63914  27.395  15.833   5.256
98754W        W63915  16.415   6.122  12.720
98755W        W63916   6.502  12.720   1.294
98756W        W63917  38.843   1.531   4.363
98757W        W63918  27.781  11.776   3.643
98758W        W63919  14.917  13.726   0.456
98759W        W63920  30.948  34.432  13.474
98760W        W63921  31.295  26.268  11.956
98761W        W63922  16.662   5.636   1.702
98762W        W63923  25.822  42.843   2.187
98763W        W63924  27.559  11.905   2.280
98764W        W63925   6.463  31.004   2.319
98765W        W63926  40.746   0.085  11.539
98766W        W63927  36.860  15.678   0.378
98767W        W63928  12.782  24.111   0.730
98768W        W63929  44.481  27.706  12.394
98769W        W63930  18.130  29.978  11.393
98770W        W63931   7.600  17.332   0.057
98771W        W63932  26.163   3.515   2.839
98772W        W63933  25.328  15.083  14.068
98773W        W63934  15.629   2.890   4.610
98774W        W63935  12.111  19.102   0.523
98775W        W63936  23.283  44.390  14.024
98776W        W63937  30.351  37.396  13.943
98777W        W63938  23.221  22.739  11.644
98778W        W63939  16.319  12.225   2.618
98779W        W63940   2.898  25.771  14.218
98780W        W63941  26.488   9.761  14.836
98781W        W63942  34.278  41.843  10.706
98782W        W63943  41.368  40.137  14.748
98783W        W63944  38.666  44.526   4.146
98784W        W63945  26.882  39.060  13.976
98785W        W63946  33.115  43.992   2.837
98786W        W63947  29.031  31.644   0.381
98787W        W63948  28.969   5.295   4.450
98788W        W63949  37.461   7.889   4.237
98789W        W63950  32.538  43.549   3.592
98790W        W63951  43.304  34.413   2.254
98791W        W63952  39.687  37.966   4.523
98792W        W63953  21.614  16.574  13.605
98793W        W63954  31.631  25.986  11.051
98794W        W63955  17.426  22.318  10.388
98795W        W63956  18.239  15.350  14.328
98796W        W63957  40.305  42.449   1.773
98797W        W63958  15.661  17.752   4.489
98798W        W63959  44.872   5.812   4.342
98799W        W63960  43.252   1.252   1.721
98800W        W63961  13.113  18.287   0.696
98801W        W63962   3.843  30.360   0.698
98802W        W63963  30.428  42.356   1.933
98803W        W63964  14.304  12.755   4.438
98804W        W63965  33.585  14.863   3.097
98805W        W63966  31.601  17.639  10.801
98806W        W63967  27.925  11.149   1.104
98807W        W63968  39.275  13.933   3.266
98808W        W63969  40.708  32.929   4.327
98809W        W63970  11.940  12.418  12.481
98810W        W63971  32.530  21.530  14.030
98811W        W63972   0.525  42.145   4.178
98812W        W63973   5.613  40.595  13.361
98813W        W63974  33.370  43.097   3.665
98814W        W63975  39.429   6.417   3.854
98815W        W63976  33.829   3.462  14.440
98816W        W63977  12.882  38.088   1.898
98817W        W63978  31.607   4.479  14.439
98818W        W63979  42.331  32.504  13.443
98819W        W63980   5.486  17.093   4.102
98820W        W63981  42.764  15.111  14.858
98821W        W63982  34.604  43.473   5.476
98822W        W63983  35.676  23.578   3.623
98823W        W63984  29.921  15.393  11.678
98824W        W63985   4.258  43.864  11.854
98825W        W63986  21.749  38.094  14.412
98826W        W63987  18.830   0.818  12.587
98827W        W63988  16.677  33.469   4.735
98828W        W63989  21.739  39.281  14.903
98829W        W63990  30.524  14.409   2.815
98830W        W63991   8.280  25.473  12.086
98831W        W63992  36.975  20.473   2.861
98832W        W63993   5.350  19.121   0.888
98833W        W63994  10.319  34.044  11.035
98834W        W63995  28.942   8.594  11.984
98835W        W63996  11.187   8.161   4.756
98836W        W63997  17.190   3.718  13.105
98837W        W63998  38.666  43.527  12.621
98838W        W63999   4.339  12.759  12.862
98839W        W64000   2.635  38.438   9.902
98840W        W64001  28.574  14.678   2.086
98841W        W64002  20.077  44.661  14.286
98842W        W64003  22.268   5.710   4.095
98843W        W64004  29.426  29.002  12.083
98844W        W64005  44.943  30.493   2.806
98845W        W64006  25.636  28.610  12.849
98846W        W64007  13.391  17.147  12.975
98847W        W64008  14.564  24.012   0.845
98848W        W64009  25.722  17.815   1.390
98849W        W64010   3.698  13.964  12.975
98850W        W64011  18.005   9.161  14.328
98851W        W64012  27.500  44.905  13.642
98852W        W64013  18.828  16.228   2.314
98853W        W64014  27.512   9.628   1.939
98854W        W64015  42.106   9.730   4.929
98855W        W64016  28.649  14.725  12.783
98856W        W64017   8.441  39.110   3.502
98857W        W64018  23.605   4.390   3.827
98858W        W64019  21.958  38.393  12.847
98859W        W64020  30.902   2.256   2.318
98860W        W64021  31.949  33.633  12.560
98861W        W64022  35.202   1.242  10.688
98862W        W64023  23.759  18.736   2.723
98863W        W64024  20.747  20.688  12.637
98864W        W64025  15.977  41.186   2.520
98865W        W64026   6.722  14.433  12.093
98866W        W64027  21.611  13.582  12.032
98867W        W64028  34.588  38.510   1.402
98868W        W64029  12.624  13.990   0.933
98869W        W64030  28.647  38.120   9.893
98870W        W64031  13.812  20.101  14.319
98871W        W64032  42.205  12.547  12.612
98872W        W64033  32.554  11.786  10.011
98873W        W64034   8.892  16.762   0.895
98874W        W64035  15.905  34.879  13.918
98875W        W64036  28.116  37.726   0.422
98876W        W64037  19.366  24.813   3.379
98877W        W64038  33.866   2.431   2.359
98878W        W64039  43.681  19.698  14.572
98879W        W64040   8.200  22.981  12.023
98880W        W64041  22.573   7.847  10.490
98881W        W64042  21.300   0.829   0.816
98882W        W64043  13.379  29.591  14.888
98883W        W64044  12.930  21.504  12.946
98884W        W64045  36.020  32.393  14.311
98885W        W64046  10.784  20.210  12.717
98886W        W64047   9.124   0.202  10.732
98887W        W64048  21.247   7.043   2.885
98888W        W64049  11.002  38.583   3.224
98889W        W64050  31.523  12.711   3.253
98890W        W64051  19.688  41.055   2.931
98891W        W64052  22.140   7.447   1.000
98892W        W64053   9.406  17.872   1.768
98893W        W64054  24.011   8.721   1.853
98894W        W64055   6.439  19.780  14.326
98895W        W64056  19.610   4.403  14.268
98896W        W64057  33.851   9.797   1.964
98897W        W64058  31.388   8.855   2.202
98898W        W64059   0.553  27.637  13.596
98899W        W64060  33.617  34.257  13.853
98900W        W64061  26.466  12.365  14.713
98901W        W64062  40.004  19.380   3.808
98902W        W64063  12.990   6.225   3.832
98903W        W64064   2.230  31.858  13.479
98904W        W64065  42.062   0.695   4.549
98905W        W64066   4.274  22.352  12.333
98906W        W64067   3.291  26.057   1.954
98907W        W64068  36.488  42.968   3.237
98908W        W64069   1.030  23.967  12.947
98909W        W64070  36.309  10.213  10.461
98910W        W64071   8.455  11.840  14.265
98911W        W64072  35.348  40.394   2.820
98912W        W64073  11.922   5.132   2.173
98913W        W64074  39.355  11.374  11.158
98914W        W64075  42.918  15.291   4.329
98915W        W64076  29.397  26.093  12.386
98916W        W64077  12.623  24.608  10.775
98917W        W64078  28.345  23.295   0.434
98918W        W64079  37.457   2.491   0.202
98919W        W64080  10.725  16.339  13.233
98920W        W64081  19.023  39.884   0.288
98921W        W64082  24.084  44.752  14.855
98922W        W64083  27.959  37.554  14.836
98923W        W64084  25.917  15.158  12.236
98924W        W64085  11.314  34.002  11.374
98925W        W64086  23.279  23.609   1.147
98926W        W64087  12.326  15.570   1.675
98927W        W64088  41.319  24.623  11.100
98928W        W64089  28.655  26.524   4.746
98929W        W64090   8.243   1.066  14.008
98930W        W64091  32.160  30.148   1.257
98931W        W64092  13.144  35.821  13.488
98932W        W64093   2.435  17.433   3.565
98933W        W64094  31.118  39.085  11.955
98934W        W64095  21.907   9.839  13.467
98935W        W64096  18.788  43.393  11.140
98936W        W64097  35.004  31.935  13.713
98937W        W64098  36.368   3.466  13.595
98938W        W64099  14.691  20.403  11.705
98939W        W64100   2.451  24.437   3.639
98940W        W64101  43.415  11.155   0.898
98941W        W64102  27.135   7.968  14.438
98942W        W64103  23.461  16.146   0.655
98943W        W64104  42.446   1.393   3.575
98944W        W64105  20.692  31.600  10.396
98945W        W64106  42.909  41.280   4.467
98946W        W64107   2.720  39.404   2.808
98947W        W64108  32.106  42.789   3.206
98948W        W64109  19.364  27.137  12.798
98949W        W64110  26.443  14.998   2.379
98950W        W64111   2.438  24.673   0.276
98951W        W64112   5.058   0.836  11.491
98952W        W64113  32.917   9.367  12.908
98953W        W64114  11.392   0.076  13.871
98954W        W64115  12.223   8.226  10.752
98955W        W64116  20.724  26.891   3.603
98956W        W64117  39.579  29.264   3.889
98957W        W64118  22.250   9.363  12.159
98958W        W64119  13.943  40.989   4.628
98959W        W64120  10.712  19.362  11.259
98960W        W64121   7.636  15.164  14.348
98961W        W64122  33.860  34.901  11.553
98962W        W64123  15.203  17.496  13.065
98963W        W64124  23.791  30.098  11.131
98964W        W64125  29.173  25.962  12.842
98965W        W64126  20.865  33.869  12.562
98966W        W64127  16.123  26.006   4.641
98967W        W64128  39.442  17.462  13.043
98968W        W64129  37.858  33.989   4.597
98969W        W64130   6.471  39.466   2.423
98970W        W64131  16.606  28.194  12.917
98971W        W64132   7.972  42.819   3.296
98972W        W64133  13.243  21.913   2.137
98973W        W64134  14.809  29.482   2.772
98974W        W64135  40.048  23.332   3.300
98975W        W64136  33.588  38.271   4.147
98976W        W64137  28.858   1.766   0.840
98977W        W64138  38.051  22.010   4.824
98978W        W64139  10.791  42.279   0.906
98979W        W64140   1.899  44.494   2.879
98980W        W64141   1.235  34.768   2.865
98981W        W64142   3.525   0.131  11.576
98982W        W64143  28.486  24.128   1.849
98983W        W64144  24.616  31.000   4.068
98984W        W64145   9.708  30.705   2.285
98985W        W64146  18.448  13.863   2.627
98986W        W64147  39.949  17.547  12.899
98987W        W64148  11.163  23.528   4.338
98988W        W64149  40.825  10.119  12.994
98989W        W64150  31.719   4.261   2.770
98990W        W64151  30.828  41.908  13.047
98991W        W64152  21.758  44.452  14.818
98992W        W64153  35.125  21.576  13.543
98993W        W64154  33.929  11.501  14.799
98994W        W64155  21.990  40.190  10.205
98995W        W64156  35.874  17.503  12.286
98996W        W64157  11.698  19.897   0.597
98997W        W64158  23.332  28.872   3.764
98998W        W64159  44.013  30.648  13.002
98999W        W64160  39.595  19.492  11.536
99000W        W64161  15.576  30.637   4.450
99001W        W64162  44.790  23.685  13.225
99002W        W64163  11.920   3.493   2.724
99003W        W64164   5.654   8.710  10.757
99004W        W64165   7.728  15.474  14.842
99005W        W64166  36.071  19.814  11.180
99006W        W64167  32.814  26.694   3.350
99007W        W64168  35.548  42.528   1.861
99008W        W64169  31.054  42.971   0.760
99009W        W64170  29.477  11.575  10.716
99010W        W64171  16.578  36.095   3.046
99011W        W64172   9.241  13.378  13.575
99012W        W64173   9.678  42.081   0.686
99013W        W64174   4.395  42.372   0.905
99014W        W64175  43.971   1.529   1.315
99015W        W64176  24.652  18.511  12.574
99016W        W64177  37.576   3.911  11.827
99017W        W64178  26.277  24.752  12.087
99018W        W64179   0.156   4.798  10.581
99019W        W64180   6.630  18.752  10.804
99020W        W64181  44.022  31.900   0.722
99021W        W64182   8.794  16.784  14.945
99022W        W64183   7.756  10.794   3.723
99023W        W64184   2.144  22.198   2.075
99024W        W64185  42.168   8.404  11.997
99025W        W64186  35.866  13.569  10.605
99026W        W64187  40.557  12.932   5.042
99027W        W64188  28.992  31.413  14.849
99028W        W64189  26.537  39.889   0.688
99029W        W64190  17.864  34.610   3.102
99030W        W64191  13.175  30.765  13.132
99031W        W64192  39.071   6.721   4.056
99032W        W64193  35.976   8.129   3.147
99033W        W64194   1.962  43.881   1.620
99034W        W64195  27.931  31.656   4.624
99035W        W64196  32.054  17.550  12.031
99036W        W64197  39.041  42.797  11.962
99037W        W64198  15.166  43.719  10.318
99038W        W64199  25.076  26.491   2.035
99039W        W64200  39.980  44.828   3.632
99040W        W64201  39.105  15.031   4.120
99041W        W64202  40.544   5.032   3.898
99042W        W64203  31.912  22.005   2.249
99043W        W64204  25.628  33.430   0.515
99044W        W64205   0.468   7.838  13.397
99045W        W64206  16.597  14.858   4.127
99046W        W64207  29.705  12.348   4.573
99047W        W64208   3.767  25.748  12.171
99048W        W64209  14.235  29.942  14.934
99049W        W64210   1.808  37.496   3.595
99050W        W64211  33.442  36.454   3.886
99051W        W64212   9.310  33.575   2.859
99052W        W64213   5.236  36.412   3.280
99053W        W64214  14.242  13.184   3.488
99054W        W64215  24.954  43.896  13.424
99055W        W64216  26.141  32.599   1.946
99056W        W64217   6.241  21.707   4.071
99057W        W64218  33.043  11.045  11.089
99058W        W64219  14.078  35.313  12.840
99059W        W64220  44.258  40.285  12.204
99060W        W64221  28.224  37.514   2.365
99061W        W64222  43.252   9.170  12.482
99062W        W64223  27.966  29.187  13.878
99063W        W64224  14.760  21.729  11.949
99064W        W64225  41.964   1.335   3.735
99065W        W64226   7.041   4.709  10.791
99066W        W64227  32.599   3.730   2.144
99067W        W64228  17.539  22.318  14.233
99068W        W64229  37.798  13.628  12.921
99069W        W64230  12.771  30.868  10.556
99070W        W64231  24.554   6.789   2.412
99071W        W64232  17.017  40.418  12.039
99072W        W64233  15.233  35.997   4.283
99073W        W64234   3.467  20.571  10.641
99074W        W64235  24.842  37.479  12.040
99075W        W64236  19.590  17.488  12.128
99076W        W64237  32.676  44.801  13.469
99077W        W64238  13.026  22.329   2.755
99078W        W64239  40.861  31.640   4.365
99079W        W64240   5.265  10.254   3.598
99080W        W64241   0.474  41.544   3.254
99081W        W64242  40.544  26.253   0.149
99082W        W64243  44.981  16.107   2.611
99083W        W64244  13.787  32.583   2.781
99084W        W64245  33.632  32.312  11.490
99085W        W64246  37.775  27.118  13.372
99086W        W64247  20.993  30.986   1.775
99087W        W64248  12.366  35.165  13.379
99088W        W64249  22.498  13.022   3.295
99089W        W64250  39.830   6.802  13.727
99090W        W64251  29.936  11.071   1.902
99091W        W64252  38.381   8.267  12.420
99092W        W64253   1.754  11.621   4.981
99093W        W64254  44.618  33.808  11.212
99094W        W64255   4.427  28.542   1.375
99095W        W64256   6.806  35.484  14.031
99096W        W64257   4.352  22.120   1.126
99097W        W64258  20.728   6.961  14.822
99098W        W64259  19.526  24.389  13.967
99099W        W64260   1.244   6.868  12.816
99100W        W64261  37.571   5.572  12.405
99101W        W64262  24.957   3.406   1.682
99102W        W64263   8.394  11.860   1.436
99103W        W64264  13.360  26.026  14.836
99104W        W64265  24.133  36.251   2.431
99105W        W64266  36.053  23.236   2.086
99106W        W64267  44.353  32.901  13.847
99107W        W64268  31.429  36.867   2.401
99108W        W64269  12.697  35.944   3.283
99109W        W64270  15.199   6.276  10.712
99110W        W64271  41.385  38.812  12.633
99111W        W64272  26.084  11.174  14.169
99112W        W64273   8.865  12.477   2.793
99113W        W64274  35.756   2.968   3.659
99114W        W64275   7.124   9.880   2.448
99115W        W64276  28.512  23.171  13.652
99116W        W64277   9.448  24.495   3.258
99117W        W64278  18.673  16.321  12.586
99118W        W64279  27.909  23.459   1.880
99119W        W64280  22.235   5.625  11.925
99120W        W64281  13.257  44.974   1.343
99121W        W64282   5.814  39.673   1.433
99122W        W64283   8.812  16.605  13.100
99123W        W64284  18.628  43.791   3.715
99124W        W64285  22.114  10.688  13.968
99125W        W64286  10.873  36.035   3.445
99126W        W64287  36.507  37.462  12.439
99127W        W64288  19.982  15.711   1.393
99128W        W64289   4.765  18.441   3.229
99129W        W64290  44.331  30.951   1.202
99130W        W64291   5.630  11.697   0.014
99131W        W64292  44.424  37.381   4.656
99132W        W64293  40.742  24.661   4.629
99133W        W64294  11.099  31.528  14.949
99134W        W64295   1.047  24.219   3.762
99135W        W64296  35.947  12.306   3.694
99136W        W64297  43.716  41.772   3.651
99137W        W64298  24.899  38.605   0.649
99138W        W64299  11.014  29.943   1.286
99139W        W64300  25.970  23.033   2.716
99140W        W64301   9.446  15.263   4.261
99141W        W64302  39.109  27.534   4.165
99142W        W64303  25.123   2.776   4.758
99143W        W64304  15.751   2.745  13.782
99144W        W64305  35.750  16.232  12.063
99145W        W64306   1.875  40.505   0.833
99146W        W64307   0.331  25.579   1.865
99147W        W64308  37.088  27.698   0.876
99148W        W64309  38.294  39.102   2.606
99149W        W64310  24.925  33.020  13.089
99150W        W64311  44.654  38.087   3.509
99151W        W64312  43.331  36.218  13.163
99152W        W64313  33.827  15.007   0.272
99153W        W64314  44.701  15.281   1.958
99154W        W64315  43.571  20.705  11.642
99155W        W64316  38.239  12.664  12.639
99156W        W64317   9.707  20.063   1.511
99157W        W64318  11.743  29.176  14.023
99158W        W64319  26.097   9.277   0.398
99159W        W64320  26.496  23.088   3.657
99160W        W64321  16.497  15.213  13.901
99161W        W64322   8.909  35.648   4.718
99162W        W64323  12.783  34.089   0.361
99163W        W64324  27.048  32.375   1.751
99164W        W64325  43.888  17.714   3.384
99165W        W64326  19.331  19.647  10.719
99166W        W64327  30.605  39.042  10.612
99167W        W64328  13.568  13.705   1.820
99168W        W64329   9.026  26.480   2.803
99169W        W64330  43.270  16.149   4.234
99170W        W64331  10.627   7.564   0.822
99171W        W64332  41.799  37.890  13.433
99172W        W64333  26.457  29.989   0.816
99173W        W64334  16.379  29.051  13.565
99174W        W64335  18.213   7.294  12.369
99175W        W64336  17.135  30.890   1.388
99176W        W64337  36.095  37.943   0.349
99177W        W64338  26.729  19.224  13.407
99178W        W64339  35.692  17.617   0.266
99179W        W64340  29.174  40.525   0.478
99180W        W64341  18.953   7.459   1.290
99181W        W64342   3.709  30.588   1.159
99182W        W64343  29.109  41.907  11.569
99183W        W64344  30.507  42.833  12.498
99184W        W64345  37.899   4.830   3.838
99185W        W64346  24.743  29.514   2.710
99186W        W64347  18.748  26.922   1.758
99187W        W64348  24.702  14.120  13.818
99188W        W64349  42.911   9.917  12.164
99189W        W64350  22.120   4.664  11.679
99190W        W64351  36.871   1.259  14.460
99191W        W64352  38.928  10.421   4.118
99192W        W64353  18.663  29.888  14.583
99193W        W64354   9.234  39.576  13.865
99194W        W64355   1.055  41.091   3.693
99195W        W64356  39.954  19.526   1.728
99196W        W64357  39.641  43.789   4.432
99197W        W64358   8.388   1.891  12.450
99198W        W64359  32.170   1.701   4.835
99199W        W64360   9.840   5.664   1.649
99200W        W64361  26.497  43.728   1.859
99201W        W64362  36.947  19.034   0.904
99202W        W64363  43.519  18.216   1.388
99203W        W64364  16.376  18.326   0.569
99204W        W64365   5.004  40.616   0.402
99205W        W64366  34.989  43.962  13.382
99206W        W64367  19.575  32.500  11.112
99207W        W64368  19.919  39.029  12.705
99208W        W64369  24.495  42.959  12.758
99209W        W64370   5.632  40.581  11.600
99210W        W64371   2.735  17.075  13.227
99211W        W64372  17.702  36.949   0.814
99212W        W64373  24.488  31.028   0.677
99213W        W64374  39.455   2.758  11.552
99214W        W64375  33.089   9.654  13.843
99215W        W64376   2.386  39.251  13.462
99216W        W64377  40.653  36.036   1.946
99217W        W64378  37.629  41.281  12.969
99218W        W64379  35.432   2.488  11.370
99219W        W64380  28.015  23.686  12.870
99220W        W64381   7.861  33.005   3.997
99221W        W64382  13.650  31.867  10.732
99222W        W64383   9.382  40.568   4.971
99223W        W64384  34.110   6.312   2.649
99224W        W64385   3.551   1.861  13.130
99225W        W64386  17.268  38.507   4.553
99226W        W64387  27.627   6.414   3.495
99227W        W64388  27.221   0.987   0.981
99228W        W64389  17.367  17.205   5.538
99229W        W64390  35.405   3.766   1.420
99230W        W64391  26.245  38.387   1.368
99231W        W64392  40.491  40.669  11.943
99232W        W64393  43.545  29.079  11.426
99233W        W64394  22.959  40.096  13.164
99234W        W64395   5.176  37.957   1.240
99235W        W64396   1.130  31.849  10.037
99236W        W64397  25.947   0.963  13.513
99237W        W64398  38.296  28.387  14.385
99238W        W64399  11.810  29.690  14.974
99239W        W64400  42.802  17.030   4.623
99240W        W64401   6.651  13.151   0.323
99241W        W64402  32.904  44.280  11.688
99242W        W64403  22.024  41.081   0.332
99243W        W64404  19.538  16.237  11.099
99244W        W64405   9.353  36.728   2.501
99245W        W64406  27.743  33.153  10.700
99246W        W64407  41.572  33.638  11.664
99247W        W64408  38.818  20.744  14.026
99248W        W64409  26.677  16.968   1.953
99249W        W64410  13.062  34.798  11.112
99250W        W64411  13.655   0.631  13.794
99251W        W64412  43.212  27.422  13.624
99252W        W64413  34.216  18.241   1.470
99253W        W64414   4.613  17.788  14.836
99254W        W64415  18.377  33.424  14.764
99255W        W64416  31.656  40.044  11.758
99256W        W64417  35.987  39.423  12.348
99257W        W64418   4.967   6.481   9.901
99258W        W64419  33.324  20.732   2.285
99259W        W64420  22.305  35.915  12.401
99260W        W64421  17.916   9.379  14.816
99261W        W64422  16.119  42.006   1.252
99262W        W64423  33.053  26.578   4.606
99263W        W64424  41.267  29.136   0.386
99264W        W64425  27.085  20.732  11.520
99265W        W64426  32.214  42.542   1.360
99266W        W64427  42.107   7.622   2.459
99267W        W64428  35.019  29.277  11.049
99268W        W64429   8.372  19.723  11.490
99269W        W64430  10.379   3.211   0.386
99270W        W64431  25.336  38.933   0.274
99271W        W64432  15.052  10.144   0.328
99272W        W64433  38.193  17.024   2.843
99273W        W64434   9.423  14.073  12.908
99274W        W64435  33.001  26.073   4.021
99275W        W64436   5.724  27.055  13.816
99276W        W64437  36.340   1.835   3.393
99277W        W64438  24.680   5.309  10.674
99278W        W64439  14.676  16.335   0.981
99279W        W64440  12.661  15.722   2.528
99280W        W64441  41.471  21.113  10.704
99281W        W64442  26.742  10.227  14.768
99282W        W64443  32.106   8.826  14.328
99283W        W64444  22.218  18.650   2.444
99284W        W64445  14.813   5.471  10.696
99285W        W64446  31.477  11.345   0.051
99286W        W64447  37.425  34.499   4.472
99287W        W64448  31.399   0.737   0.394
99288W        W64449  27.268   8.114   0.524
99289W        W64450   5.072   1.199   3.320
99290W        W64451   4.623  14.217  10.320
99291W        W64452  28.737  13.654   2.240
99292W        W64453  22.381  42.084  13.133
99293W        W64454  30.865  39.765   3.704
99294W        W64455  40.214  21.580   3.698
99295W        W64456   4.226   8.215   4.546
99296W        W64457  34.841   7.660  11.688
99297W        W64458  33.638  16.969  11.578
99298W        W64459  32.901   7.465   4.239
99299W        W64460  21.237  13.866  12.592
99300W        W64461  26.818  43.522  14.354
99301W        W64462   4.698  40.521   2.805
99302W        W64463  16.067  13.311   4.564
99303W        W64464   0.613  17.036   1.273
99304W        W64465  16.738  13.804   4.147
99305W        W64466  12.067  40.504   4.876
99306W        W64467   1.390  18.041  13.342
99307W        W64468  25.993  23.993  13.363
99308W        W64469  26.659  10.180  11.227
99309W        W64470  20.221  13.243   5.055
99310W        W64471  43.550   2.235  12.805
99311W        W64472   4.716  42.293   2.805
99312W        W64473  36.008   9.311   0.454
99313W        W64474  24.038   0.740   3.729
99314W        W64475  14.268  28.223  11.177
99315W        W64476  30.899   6.535  10.400
99316W        W64477  25.449   7.880   2.269
99317W        W64478   4.769   4.969  11.837
99318W        W64479  15.802  17.034  11.607
99319W        W64480  44.487  31.139  13.447
99320W        W64481  37.901  38.829  11.637
99321W        W64482   1.259  22.158  14.161
99322W        W64483  26.887  30.077  11.180
99323W        W64484  26.825  41.052   3.309
99324W        W64485  33.982  33.509   3.216
99325W        W64486   5.775   0.015  13.118
99326W        W64487  24.408  19.643   1.377
99327W        W64488  33.937  21.223   0.551
99328W        W64489  31.025  39.042  14.086
99329W        W64490  39.381  38.335  13.456
99330W        W64491   4.822   7.700   1.247
99331W        W64492  33.047  40.572  14.324
99332W        W64493  26.053  42.795  14.045
99333W        W64494  27.457  32.703  10.755
99334W        W64495  33.917   8.901   4.961
99335W        W64496   5.984   6.849  14.405
99336W        W64497  37.357  29.239  11.138
99337W        W64498  37.599  27.584   0.825
99338W        W64499  30.496  36.817   4.599
99339W        W64500  14.678  20.657   1.354
99340W        W64501  24.500  41.519   2.271
99341W        W64502  41.552  28.020  14.932
99342W        W64503   8.253  29.794   2.624
99343W        W64504  16.556   0.422   2.093
99344W        W64505   9.815   0.710  14.953
99345W        W64506  11.686  18.275  11.585
99346W        W64507   5.131  40.405  13.470
99347W        W64508  28.560  12.143  13.033
99348W        W64509   9.087  22.354  11.339
99349W        W64510  29.198  12.824  11.104
99350W        W64511  28.038   4.899  11.486
99351W        W64512  22.914  38.557  13.230
99352W        W64513  11.456  21.767  13.069
99353W        W64514  31.412  42.943   0.330
99354W        W64515  43.854  25.982  14.616
99355W        W64516   7.805   2.079   1.891
99356W        W64517  27.752  12.693  13.020
99357W        W64518  34.075  24.489  11.110
99358W        W64519   6.910  44.562   0.110
99359W        W64520  19.169  26.027   3.614
99360W        W64521   6.824  12.805  11.211
99361W        W64522   6.859  18.228   0.876
99362W        W64523  33.489  36.906  13.759
99363W        W64524  27.901  43.153  13.722
99364W        W64525  33.299  31.944   1.006
99365W        W64526  35.483   1.791  11.183
99366W        W64527  17.626  34.696   4.493
99367W        W64528  37.060  26.778   3.216
99368W        W64529   3.456  43.737  13.147
99369W        W64530  36.479  36.361   1.856
99370W        W64531  31.782  11.785  11.473
99371W        W64532  16.161  19.264  12.013
99372W        W64533  15.135   3.663   4.842
99373W        W64534  34.879  19.119   1.094
99374W        W64535   2.288  14.418  12.734
99375W        W64536  42.998  32.823   0.358
99376W        W64537  30.564  28.452  13.481
99377W        W64538   1.465  31.659   4.547
99378W        W64539  41.424   0.606  11.607
99379W        W64540  30.033  21.435   1.716
99380W        W64541  22.500   4.832   0.153
99381W        W64542  36.519  11.317  11.982
99382W        W64543  43.389  20.490  14.809
99383W        W64544  20.260  26.747   3.337
99384W        W64545  19.716  31.839  13.395
99385W        W64546  25.309  44.319  10.161
99386W        W64547   2.421  36.016   0.275
99387W        W64548  40.921   4.795  13.601
99388W        W64549  14.795  13.980   3.235
99389W        W64550  24.915  44.991   4.689
99390W        W64551  16.112  13.536  10.976
99391W        W64552  15.135  37.589   1.256
99392W        W64553  41.459  23.661  11.435
99393W        W64554  11.878  28.639   4.087
99394W        W64555   0.581  29.849  12.890
99395W        W64556  24.498  37.416  13.317
99396W        W64557  44.444  23.706   4.193
99397W        W64558  44.175  37.063  13.200
99398W        W64559  24.721   8.442   1.190
99399W        W64560  29.876  27.059   3.400
99400W        W64561   4.996  44.903  11.533
99401W        W64562   2.148  22.756   1.278
99402W        W64563   6.610   1.697  12.497
99403W        W64564  40.576  27.696   4.571
99404W        W64565  10.837  36.915   2.759
99405W        W64566  38.227  39.756   0.799
99406W        W64567  14.528   7.159   4.022
99407W        W64568  30.152  12.908   4.240
99408W        W64569  20.708  20.235   1.666
99409W        W64570  23.518  26.225  12.030
99410W        W64571  40.254  25.637   3.872
99411W        W64572  11.749  29.416   3.704
99412W        W64573  26.177  26.798   4.133
99413W        W64574  31.102   4.498  10.857
99414W        W64575  36.020  26.133   1.483
99415W        W64576  30.142   8.081  12.884
99416W        W64577  20.819  12.796  14.605
99417W        W64578  37.378  25.000  14.987
99418W        W64579  24.651  40.832  14.473
99419W        W64580  36.657   0.201  11.982
99420W        W64581  29.228  43.849  13.294
99421W        W64582  39.556  31.245  11.209
99422W        W64583  43.957  35.884  10.873
99423W        W64584  26.627  42.443  11.755
99424W        W64585  26.560  19.571  13.802
99425W        W64586  23.056  34.389   0.954
99426W        W64587   2.140   2.362   3.260
99427W        W64588  37.927  44.013   3.698
99428W        W64589  44.370  32.442  10.712
99429W        W64590   8.656   9.768   3.607
99430W        W64591   5.995   0.027  14.986
99431W        W64592  34.575  32.034   4.551
99432W        W64593  15.235  18.721  13.427
99433W        W64594  19.755  42.820  13.395
99434W        W64595  36.848  34.406  12.161
99435W        W64596  29.486  27.757   0.346
99436W        W64597  34.974  35.599  11.640
99437W        W64598  29.507  34.626  11.194
99438W        W64599  15.628   3.381  10.053
99439W        W64600  18.736  13.792  12.886
99440W        W64601  20.136  21.899   1.476
99441W        W64602   1.257   3.128   2.273
99442W        W64603  23.703   8.773   4.465
99443W        W64604  26.822  31.245  10.748
99444W        W64605  19.095   5.173   9.973
99445W        W64606   3.835   1.052  12.102
99446W        W64607  12.452  28.972  12.121
99447W        W64608  29.278  11.140   4.849
99448W        W64609  34.593  31.120   3.117
99449W        W64610  23.756  42.059   4.103
99450W        W64611  32.607  17.746   3.054
99451W        W64612   7.382   5.222  13.936
99452W        W64613  13.567  33.752  14.065
99453W        W64614  25.470   1.842  14.364
99454W        W64615  29.619  26.309   2.393
99455W        W64616  14.286  25.740   2.870
99456W        W64617  18.101  36.040  12.896
99457W        W64618  30.194   3.895  12.936
99458W        W64619  13.332  24.958   0.703
99459W        W64620  31.957  13.532   0.727
99460W        W64621  23.501  10.375   2.416
99461W        W64622  41.954  19.983  11.247
99462W        W64623   5.702  31.634   0.300
99463W        W64624   0.786   9.684  11.061
99464W        W64625  17.210  33.317  11.713
99465W        W64626  30.696  40.711  14.892
99466W        W64627  32.798  16.004  11.957
99467W        W64628  33.034  29.989   2.155
99468W        W64629  22.961  40.882   3.759
99469W        W64630  14.344   5.861   3.798
99470W        W64631   6.366   7.780  13.116
99471W        W64632  42.017  33.553  11.311
99472W        W64633  30.602  11.114   0.092
99473W        W64634  21.069  43.401   0.216
99474W        W64635  31.665   2.232   0.459
99475W        W64636  16.508  17.800  14.030
99476W        W64637  37.143  35.060   3.708
99477W        W64638   0.442  19.213  11.329
99478W        W64639  31.997  34.805   4.219
99479W        W64640   9.292  37.457   0.463
99480W        W64641  28.909  22.673  11.585
99481W        W64642   9.916   8.107   1.338
99482W        W64643  23.208  21.775  13.617
99483W        W64644  37.990  17.304   1.539
99484W        W64645  14.743  21.177   4.546
99485W        W64646   1.205  20.235  12.236
99486W        W64647  19.682   3.123   2.636
99487W        W64648  36.626  40.849  10.628
99488W        W64649   0.342  19.199  14.045
99489W        W64650  21.906  22.582   2.989
99490W        W64651   9.724  18.777   3.147
99491W        W64652  31.905  31.517  14.011
99492W        W64653  34.062  16.018   3.057
99493W        W64654   5.321  18.669  10.638
99494W        W64655  19.356  38.820   0.552
99495W        W64656  23.065   9.230   4.506
99496W        W64657  11.650  11.578  11.156
99497W        W64658  13.703  24.901  14.485
99498W        W64659  18.465  12.862  10.344
99499W        W64660  17.011   9.918   0.034
99500W        W64661  22.431   7.675  13.465
99501W        W64662  36.294  22.527  11.171
99502W        W64663  21.165  34.191  11.636
99503W        W64664  28.738  31.520   2.744
99504W        W64665   7.777  20.060   4.079
99505W        W64666  13.390  15.033   1.827
99506W        W64667   5.796  15.592  14.788
99507W        W64668  43.352  37.896   2.115
99508W        W64669  40.406  33.912   1.194
99509W        W64670   3.738  39.959   3.901
99510W        W64671   4.220  25.056  12.223
99511W        W64672  24.823  18.236  14.378
99512W        W64673   8.222  42.064  12.055
99513W        W64674  16.671  40.269  13.977
99514W        W64675  11.960  24.279  11.388
99515W        W64676  17.349  10.232   0.980
99516W        W64677  29.947   9.442  11.239
99517W        W64678   9.072  40.620   2.411
99518W        W64679  30.977  26.332   4.654
99519W        W64680   5.693  14.106   2.574
99520W        W64681   3.341  22.957  14.369
99521W        W64682  27.134   7.878  11.920
99522W        W64683  36.537  24.274  11.943
99523W        W64684   3.678   3.532   2.848
99524W        W64685  36.209  33.372   0.829
99525W        W64686  19.691   6.679  12.005
99526W        W64687  28.181  37.041   1.900
99527W        W64688  36.913  28.964  13.009
99528W        W64689  34.080  39.441   4.066
99529W        W64690  40.551  24.473   4.180
99530W        W64691  28.001  22.931  12.584
99531W        W64692   9.667  24.143  11.587
99532W        W64693  36.548  44.608  14.610
99533W        W64694  38.519   6.838   1.721
99534W        W64695   0.814  24.719   1.172
99535W        W64696   0.659  19.486  10.780
99536W        W64697   4.450  16.340   1.785
99537W        W64698  20.611   1.197  13.064
99538W        W64699  10.210  28.941   0.419
99539W        W64700  24.424  44.621   3.966
99540W        W64701  20.176  19.253  14.449
99541W        W64702  23.187   5.188   3.714
99542W        W64703  40.537  30.449   0.824
99543W        W64704   2.480  24.933  13.464
99544W        W64705  37.988  31.592   1.461
99545W        W64706  33.315   5.736   1.864
99546W        W64707   8.166   0.782  10.714
99547W        W64708  39.786   2.736  13.397
99548W        W64709   5.868   6.699  13.896
99549W        W64710  44.867  17.961  14.157
99550W        W64711   6.231  41.285   2.679
99551W        W64712   7.195   4.240  11.460
99552W        W64713  27.274  16.285   5.019
99553W        W64714  15.638  31.886  11.646
99554W        W64715   6.536  18.568  11.328
99555W        W64716  17.849  21.682   0.352
99556W        W64717   3.335  43.931   4.569
99557W        W64718  28.476  44.562  11.963
99558W        W64719  33.381  23.235   5.438
99559W        W64720  25.988  39.957  14.367
99560W        W64721  30.864   6.340   1.850
99561W        W64722  32.689   8.273   2.458
99562W        W64723   2.840  30.022   4.538
99563W        W64724  19.856  29.263  11.627
99564W        W64725   1.565  39.520  11.892
99565W        W64726  33.520   4.540  14.821
99566W        W64727  40.515  39.810   2.909
99567W        W64728   7.747  32.798  14.877
99568W        W64729  18.197   3.521   1.230
99569W        W64730  41.456  32.336   4.308
99570W        W64731   1.871   7.342  14.404
99571W        W64732  21.113   6.156   1.442
99572W        W64733  24.080   6.363   3.758
99573W        W64734  23.280  41.810  12.853
99574W        W64735  27.243  32.187   4.160
99575W        W64736   2.235  28.090   0.760
99576W        W64737  40.321  31.901   2.772
99577W        W64738  32.731  28.072  14.982
99578W        W64739   7.582  14.739   3.615
99579W        W64740  39.483  21.140  10.999
99580W        W64741  29.455  18.148   5.230
99581W        W64742   1.359  21.579  10.916
99582W        W64743   5.308  37.762  12.448
99583W        W64744  26.411   1.982  12.043
99584W        W64745  35.973   1.717  11.338
99585W        W64746  42.988  25.188  12.015
99586W        W64747  16.763  34.515  12.524
99587W        W64748  27.011  39.455   2.668
99588W        W64749  14.232   4.795  13.494
99589W        W64750   7.876  14.302   0.407
99590W        W64751  43.042  35.841  14.818
99591W        W64752  38.786  35.514   1.230
99592W        W64753  33.252  24.033  14.712
99593W        W64754  15.187   6.309   4.508
99594W        W64755   7.276   7.379  11.123
99595W        W64756  27.456  11.319  14.013
99596W        W64757  24.673  22.563  13.987
99597W        W64758  35.278  13.707   3.642
99598W        W64759  38.976  28.887   0.408
99599W        W64760  30.472  22.454   0.326
99600W        W64761  14.699  31.609   3.674
99601W        W64762   6.121  24.163   3.710
99602W        W64763  12.155  21.097   2.452
99603W        W64764   4.934   2.273  14.849
99604W        W64765  31.983   3.525  10.730
99605W        W64766  38.383  36.932  14.275
99606W        W64767   3.881   0.619   3.457
99607W        W64768  13.214  21.480  14.422
99608W        W64769  42.605  13.698   4.115
99609W        W64770   3.404  18.179   1.591
99610W        W64771  31.684  35.793   1.464
99611W        W64772   5.079  15.257  13.243
99612W        W64773  44.129  38.993   4.194
99613W        W64774   3.751  16.732  11.820
99614W        W64775  27.001  10.800  12.036
99615W        W64776   5.973  40.320   0.288
99616W        W64777   3.539   2.785   4.099
99617W        W64778   9.244  16.179  11.050
99618W        W64779  31.674  12.589   0.913
99619W        W64780   0.338  42.383  14.139
99620W        W64781  29.838  16.606  14.914
99621W        W64782  30.867  32.275   1.777
99622W        W64783  21.297  39.828  11.362
99623W        W64784  30.190   7.163  12.856
99624W        W64785   8.165  17.232  12.584
99625W        W64786   7.687  23.339   5.033
99626W        W64787  34.954   5.203  13.043
99627W        W64788  42.978  28.728   0.703
99628W        W64789  19.245   6.694  13.849
99629W        W64790   4.382   7.920  11.533
99630W        W64791  11.356   8.337  11.047
99631W        W64792  22.701  41.717   1.530
99632W        W64793   5.450  22.140   1.931
99633W        W64794  25.571  33.319  14.462
99634W        W64795  12.173  19.931   1.388
99635W        W64796  29.115  33.855  10.589
99636W        W64797  43.317  39.033  13.412
99637W        W64798  40.417  14.210  14.943
99638W        W64799   7.604   8.755   3.133
99639W        W64800   2.867  40.478   2.596
99640W        W64801  35.297  12.195  14.401
99641W        W64802  35.342   5.312  11.194
99642W        W64803   9.802  22.353  11.177
99643W        W64804   3.426   7.522  12.661
99644W        W64805  23.405  41.594   3.275
99645W        W64806   5.726   3.999  13.425
99646W        W64807  26.673  20.838  14.544
99647W        W64808  34.901  21.579   1.994
99648W        W64809  41.290   3.468   2.713
99649W        W64810  37.859  19.755   1.135
99650W        W64811  23.667  26.145   3.007
99651W        W64812  35.569  39.517   1.871
99652W        W64813  16.051  20.220   4.026
99653W        W64814  29.221  25.057   1.813
99654W        W64815  13.090  21.713  13.964
99655W        W64816  32.954  19.085  11.184
99656W        W64817  17.087  35.087   3.712
99657W        W64818  36.701  29.502  13.814
99658W        W64819  26.977   3.535  12.477
99659W        W64820  22.205  17.786  13.412
99660W        W64821   2.684  18.648   1.857
99661W        W64822  31.333  40.087   1.623
99662W        W64823  11.112   5.351   3.400
99663W        W64824   0.466   6.161   0.482
99664W        W64825  44.810  32.106   1.847
99665W        W64826  42.301  18.764  11.685
99666W        W64827  34.121  15.785  10.455
99667W        W64828   6.389   1.699   4.098
99668W        W64829  18.440  21.683  13.013
99669W        W64830  17.228   8.479   4.890
99670W        W64831  41.830  30.503   1.478
99671W        W64832  17.214  35.585  12.006
99672W        W64833  42.104   6.371   3.553
99673W        W64834  29.693  11.340  11.456
99674W        W64835   2.761   9.384   3.645
99675W        W64836   5.182  21.154   0.503
99676W        W64837   0.556  43.354   2.661
99677W        W64838  25.909  22.243  12.194
99678W        W64839  40.515  21.209   4.052
99679W        W64840  41.102  28.954  11.601
99680W        W64841  27.860  12.691  10.807
99681W        W64842  21.509  24.337  10.762
99682W        W64843  43.170  25.895  14.964
99683W        W64844  21.804  13.458   0.329
99684W        W64845   7.590  43.676  12.644
99685W        W64846  44.731   6.850   0.625
99686W        W64847  38.361  38.487   3.765
99687W        W64848  34.318  37.775   1.806
99688W        W64849  42.234  40.342   3.247
99689W        W64850  28.945  11.854   1.310
99690W        W64851  40.227  35.043  14.924
99691W        W64852   0.626   4.249   3.753
99692W        W64853  42.404  20.974  11.235
99693W        W64854   3.126   5.154  11.490
99694W        W64855   7.502  33.067  13.173
99695W        W64856  36.853  19.799  11.161
99696W        W64857  16.568  35.794   3.736
99697W        W64858   3.275  33.734   4.753
99698W        W64859   4.965  38.012   4.539
99699W        W64860  43.925   9.213   2.243
99700W        W64861  14.794  40.673   0.166
99701W        W64862   0.327  36.580   2.717
99702W        W64863  19.380   2.321   5.019
99703W        W64864  37.531  44.501  10.674
99704W        W64865  25.193  38.435  11.736
99705W        W64866  42.252  25.680  13.382
99706W        W64867  37.510   7.596  14.989
99707W        W64868  38.797  11.732   4.547
99708W        W64869  17.724  22.271   2.618
99709W        W64870  28.444   6.667  10.606
99710W        W64871  21.425  23.391   4.866
99711W        W64872   8.305  16.316   3.185
99712W        W64873   9.624  26.262  14.346
99713W        W64874  13.461  33.524   2.833
99714W        W64875   0.522  18.927   0.386
99715W        W64876  10.117  35.573   1.893
99716W        W64877  40.882  35.010   2.611
99717W        W64878  12.261  18.285   4.248
99718W        W64879  25.169  36.791   1.756
99719W        W64880   3.217  15.220  13.365
99720W        W64881  22.537   0.325   3.754
99721W        W64882  16.560  13.566  12.334
99722W        W64883  27.184  13.253   1.197
99723W        W64884  12.820  11.587  13.936
99724W        W64885  41.588   7.178  13.413
99725W        W64886  12.811  23.902  14.433
99726W        W64887   8.806  13.787  11.481
99727W        W64888  28.927  16.850   1.728
99728W        W64889   2.648  19.384   4.721
99729W        W64890  24.845  26.480   5.085
99730W        W64891  13.345  39.372  13.174
99731W        W64892   6.524  33.351  11.961
99732W        W64893  17.970   3.984   0.729
99733W        W64894   7.167  32.495   4.511
99734W        W64895  17.590   8.960  10.229
99735W        W64896   4.912  14.765   3.264
99736W        W64897  39.779  22.251  14.445
99737W        W64898  24.594   6.223   3.593
99738W        W64899  11.903  16.140   0.390
99739W        W64900   6.977  43.102   1.284
99740W        W64901  23.286  24.965   5.041
99741W        W64902  13.021  24.608  14.853
99742W        W64903  38.121  41.977   2.787
99743W        W64904  17.700   4.307  14.130
99744W        W64905  11.773  15.508  12.466
99745W        W64906  16.643  24.082  12.046
99746W        W64907  12.241  42.813  11.718
99747W        W64908   5.407  34.050   0.234
99748W        W64909  16.209   2.534  11.126
99749W        W64910  33.996   2.479  10.798
99750W        W64911  29.001   5.733   0.866
99751W        W64912  33.542   1.978  14.893
99752W        W64913  44.967  17.568   1.798
99753W        W64914  14.738  35.019  12.937
99754W        W64915  26.884  15.953   4.993
99755W        W64916  16.271  25.622  13.478
99756W        W64917  10.935  41.493   0.381
99757W        W64918   6.862  14.063  10.772
99758W        W64919  14.711   8.902   4.140
99759W        W64920  36.392  17.289  11.553
99760W        W64921  20.219   6.148   3.634
99761W        W64922  24.142  25.065   2.142
99762W        W64923  20.137  26.038   2.869
99763W        W64924  15.610  44.476  11.663
99764W        W64925  23.180  34.733  14.483
99765W        W64926   8.909  36.519  12.453
99766W        W64927  17.511  12.559  12.923
99767W        W64928  43.459  37.545   3.113
99768W        W64929   2.378   8.760  12.036
99769W        W64930  13.415   7.343  10.770
99770W        W64931   6.206  39.677   2.015
99771W        W64932  38.393  12.690  13.128
99772W        W64933  39.868  21.767   2.269
99773W        W64934  43.048  18.044  13.060
99774W        W64935  25.328   6.910  12.406
99775W        W64936  10.880  12.799   2.740
99776W        W64937  16.188  44.287   0.680
99777W        W64938  28.475  40.526   4.614
99778W        W64939   5.471  41.902   3.357
99779W        W64940  31.441  11.269   0.580
99780W        W64941  20.516  42.218  14.349
99781W        W64942  16.063  42.941   2.594
99782W        W64943  36.660  24.750  11.829
99783W        W64944  34.880  34.472  12.291
99784W        W64945  29.884  26.264  11.422
99785W        W64946  26.158  18.823  11.503
99786W        W64947  37.707  24.082   2.588
99787W        W64948  21.058  27.234   3.437
99788W        W64949  28.598  31.097  14.009
99789W        W64950   3.742  26.287   2.128
99790W        W64951  22.447   8.065   9.725
99791W        W64952  37.905  14.649  10.783
99792W        W64953  15.300   7.389  10.673
99793W        W64954   2.115  20.019   4.845
99794W        W64955   7.278   7.437   2.221
99795W        W64956  13.774  31.106   3.690
99796W        W64957  34.529   3.403   3.386
99797W        W64958  30.721  34.107   2.639
99798W        W64959  12.006  43.506   0.181
99799W        W64960  12.359  23.517   0.365
99800W        W64961  38.803  43.332   4.557
99801W        W64962  36.284  18.386   0.970
99802W        W64963  22.176  19.740  12.119
99803W        W64964  14.180   5.142   2.348
99804W        W64965  11.838  35.224  12.916
99805W        W64966  28.620  21.806  11.570
99806W        W64967  32.698   3.626  12.829
99807W        W64968  11.356  33.748  10.424
99808W        W64969  34.477  41.641   3.525
99809W        W64970  26.409  36.424  11.614
99810W        W64971  26.272  17.555  10.883
99811W        W64972  34.395  21.794   1.143
99812W        W64973  13.946  39.449   0.012
99813W        W64974  41.495  27.413  10.650
99814W        W64975  23.022  36.499   4.138
99815W        W64976  27.552  12.804  10.219
99816W        W64977  41.151  41.866  10.711
99817W        W64978  41.262  16.605  14.324
99818W        W64979  41.363  29.418   2.949
99819W        W64980  25.790  14.184   4.581
99820W        W64981  14.306  29.500  10.717
99821W        W64982  32.160   6.152  11.513
99822W        W64983  25.662  12.818   3.549
99823W        W64984  20.624  31.505  13.926
99824W        W64985   9.644  15.676   2.718
99825W        W64986  33.842   0.810  10.961
99826W        W64987  19.345  38.550   2.769
99827W        W64988  15.194  13.293  11.483
99828W        W64989  19.648  41.280  10.919
99829W        W64990  42.755  30.941  11.738
99830W        W64991  32.662   1.206  10.615
99831W        W64992  31.925  21.197   3.758
99832W        W64993  31.728  31.315  10.974
99833W        W64994   3.517  43.778  12.583
99834W        W64995  31.985  44.734   3.153
99835W        W64996  42.213  34.861  11.166
99836W        W64997  29.986   9.897  10.935
99837W        W64998  30.372   1.323  13.964
99838W        W64999  42.905  11.751  14.526
99839W        W65000  27.728  25.830   4.024
99840W        W65001  33.392  19.660  13.850
99841W        W65002   9.654  38.037  11.615
99842W        W65003  23.763   7.654   0.449
99843W        W65004  44.569  24.006   9.876
99844W        W65005   3.460  13.122   0.235
99845W        W65006  22.084  13.628   2.170
99846W        W65007  26.388  17.472   2.246
99847W        W65008  43.303  41.232  11.617
99848W        W65009  23.234  24.341  10.374
99849W        W65010  26.002  19.951   0.490
99850W        W65011  44.026   1.992  14.923
99851W        W65012   7.714  42.719   2.344
99852W        W65013  10.605   9.648   2.394
99853W        W65014  24.808  39.229  13.722
99854W        W65015  11.357  41.281   2.681
99855W        W65016  18.237  36.800  13.293
99856W        W65017  34.925  35.969   0.036
99857W        W65018  17.537  27.661   0.734
99858W        W65019  20.811  19.839   1.348
99859W        W65020   1.797  40.130  10.745
99860W        W65021  30.160  42.854   0.948
99861W        W65022  39.948  25.634  13.422
99862W        W65023  11.338  16.565  11.143
99863W        W65024   8.240  21.206   2.897
99864W        W65025  13.862  19.008   4.288
99865W        W65026  43.270  37.099   0.888
99866W        W65027  10.236  30.646   1.384
99867W        W65028  41.024  37.284  12.485
99868W        W65029  28.428  17.771   0.937
99869W        W65030  30.427  13.228   3.586
99870W        W65031  21.501  15.984   0.427
99871W        W65032  20.188   6.216   0.729
99872W        W65033  12.337  36.940  13.465
99873W        W65034  41.014  38.491  14.218
99874W        W65035  32.630  15.576  12.892
99875W        W65036  35.164  39.229   2.036
99876W        W65037  37.548  31.583   3.771
99877W        W65038  43.014  31.085   2.218
99878W        W65039  36.542  18.598   1.721
99879W        W65040  34.336  21.539   1.587
99880W        W65041  43.394  37.866   0.266
99881W        W65042  38.517  12.394   3.214
99882W        W65043  36.056   2.166  14.889
99883W        W65044  33.421   9.976   3.198
99884W        W65045  38.937  36.040   3.871
99885W        W65046   8.459  12.652  13.425
99886W        W65047  25.193   9.774   3.113
99887W        W65048  20.905  36.242  10.427
99888W        W65049  18.214  38.442   1.023
99889W        W65050  27.026  18.281  10.742
99890W        W65051  43.383  36.522   1.711
99891W        W65052  11.365  28.858  13.888
99892W        W65053   1.565  29.842   1.908
99893W        W65054  31.144  30.826   3.837
99894W        W65055  37.431   0.965   2.799
99895W        W65056  32.034   4.227  14.660
99896W        W65057  35.833  26.090   1.962
99897W        W65058   7.104  11.256  11.730
99898W        W65059   8.163   4.942   4.391
99899W        W65060   9.507  15.382  11.174
99900W        W65061  40.972  38.858   1.546
99901W        W65062  34.924  42.109   3.220
99902W        W65063   9.214   9.694  12.491
99903W        W65064   6.480  33.432   3.685
99904W        W65065  22.963  26.900   1.051
99905W        W65066   2.183  44.122  14.823
99906W        W65067  14.850  39.467   9.944
99907W        W65068  24.729   8.923   2.952
99908W        W65069  10.837   3.152  14.041
99909W        W65070   6.671   6.623   4.128
99910W        W65071  21.013  41.379  11.221
99911W        W65072  29.070  29.177   0.715
99912W        W65073  33.688  22.085   0.784
99913W        W65074  22.584  39.056  10.524
99914W        W65075   2.154  12.684   0.462
99915W        W65076  17.136  12.297   4.158
99916W        W65077  10.183  16.609   1.864
99917W        W65078   5.727   7.989  11.547
99918W        W65079  41.535  41.418  12.118
99919W        W65080  15.016  19.093  10.543
99920W        W65081  41.101  38.629   1.021
99921W        W65082   5.964  26.579  10.699
99922W        W65083  13.907  14.846  14.397
99923W        W65084   1.670  20.141  12.412
99924W        W65085  17.517  38.834  12.965
99925W        W65086  15.154  21.048  13.876
99926W        W65087  38.349  35.045   0.446
99927W        W65088  38.998  36.045   2.645
99928W        W65089  10.517  18.607  14.808
99929W        W65090   0.906  31.692  11.732
99930W        W65091  42.572  25.216  13.349
99931W        W65092  11.341   9.611   3.777
99932W        W65093  38.673   8.842   4.855
99933W        W65094  28.089  17.524   0.398
99934W        W65095   1.531  39.094   0.690
99935W        W65096   3.406  39.555  12.319
99936W        W65097  17.076  28.704   4.755
99937W        W65098  39.886  41.032  13.941
99938W        W65099  36.878   8.234   2.592
99939W        W65100   6.703  43.821   1.765
99940W        W65101  30.506  41.788   0.766
99941W        W65102  40.478  42.447  11.199
99942W        W65103   5.140  33.916   2.866
99943W        W65104  35.237  43.546   1.899
99944W        W65105  24.206  31.842  12.273
99945W        W65106  11.836  42.584  10.961
99946W        W65107  44.337  16.836  14.692
99947W        W65108  14.881  21.258  14.418
99948W        W65109  41.854  13.889   3.802
99949W        W65110  39.321   9.853  12.337
99950W        W65111  41.567   6.143  12.299
99951W        W65112  32.416  27.526  13.400
99952W        W65113  11.180  22.786  11.056
99953W        W65114  43.274  26.661  11.305
99954W        W65115   9.289   6.457   1.784
99955W        W65116  43.171  44.690   1.437
99956W        W65117   9.105  33.487   4.372
99957W        W65118  18.273  37.549  13.036
99958W        W65119  26.229  43.774   2.453
99959W        W65120   0.960   4.313  10.717
99960W        W65121  33.873  12.827  10.501
99961W        W65122   4.818   2.711  12.331
99962W        W65123  29.106  39.102  14.091
99963W        W65124  10.427  18.169  11.932
99964W        W65125  21.094  26.945  11.865
99965W        W65126  36.980   2.733   0.218
99966W        W65127  33.519  36.520  12.932
99967W        W65128  39.962   2.300  10.551
99968W        W65129   1.930  32.813  14.083
99969W        W65130  34.326   7.674  12.978
99970W        W65131  29.368  24.921   4.082
99971W        W65132  36.939  11.220  11.681
99972W        W65133  16.118  23.406  11.900
99973W        W65134  36.973  42.538   4.153
99974W        W65135  21.484  11.816   2.368
99975W        W65136   1.993  35.283   0.828
99976W        W65137  21.956  18.498   1.487
99977W        W65138  12.839  21.966   0.816
99978W        W65139   8.180  36.818  12.760
99979W        W65140   1.700  41.656   0.249
99980W        W65141  26.520   9.635  10.863
99981W        W65142  37.511   9.225  11.188
99982W        W65143  29.644  33.724   3.129
99983W        W65144  28.468  27.964   0.958
99984W        W65145  13.894   8.251  14.319
99985W        W65146   2.539   4.317  11.618
99986W        W65147  40.928  26.169   3.369
99987W        W65148  23.002  12.233  11.676
99988W        W65149  27.189   2.833   0.722
99989W        W65150  25.738  17.643  12.676
99990W        W65151   9.321  22.671  13.257
99991W        W65152  23.684   4.147  14.281
99992W        W65153  13.362   4.974  13.535
99993W        W65154  11.347  11.780   4.561
99994W        W65155  44.842  43.409   3.196
99995W        W65156  27.732  14.780  11.092
99996W        W65157  21.957  43.927  14.935
99997W        W65158   1.850   7.949  11.178
99998W        W65159   7.236   5.693  12.741
99999W        W65160  18.347  13.109   2.420
    0W        W65161  20.030  32.843  14.859
    1W        W65162  40.795  37.217  14.028
    2W        W65163  27.139  44.387  11.599
    3W        W65164  10.149  33.469  11.196
    4W        W65165  35.574  43.031   0.995
    5W        W65166  19.699  40.267  10.441
    6W        W65167  30.823  32.719   1.518
    7W        W65168  41.338   1.718   0.977
    8W        W65169  21.605  41.345  14.768
    9W        W65170  14.291  20.179   2.582
   10W        W65171  10.863  29.149  14.322
   11W        W65172  33.121  10.739  12.910
   12W        W65173  33.440  42.104   4.157
   13W        W65174   2.552  44.304   0.149
   14W        W65175  27.357  12.677  10.711
   15W        W65176  22.115   3.219   1.384
   16W        W65177  31.781  26.174  14.909
   17W        W65178   7.618  13.837  13.048
   18W        W65179   9.173  24.364  11.573
   19W        W65180   8.268  14.156   4.544
   20W        W65181  42.295  11.348   4.698
   21W        W65182  17.265  39.188  14.439
   22W        W65183  27.654  10.436  11.091
   23W        W65184   7.276  10.936  14.073
   24W        W65185  13.057   5.313   2.949
   25W        W65186  12.564  35.548   4.574
   26W        W65187  10.195  16.301   3.657
   27W        W65188  17.760  32.993   4.844
   28W        W65189  25.321  24.599  14.667
   29W        W65190  38.208   3.890   0.782
   30W        W65191  35.975  23.321  14.898
   31W        W65192  20.699  24.758   4.509
   32W        W65193  23.980  40.304  11.166
   33W        W65194  12.938  38.361   2.338
   34W        W65195  32.456  38.555  12.142
   35W        W65196  12.222  35.837  14.898
   36W        W65197  41.897  32.513   2.687
   37W        W65198  36.727  26.185   2.344
   38W        W65199  13.039  28.692  11.622
   39W        W65200   5.775  40.630   2.756
   40W        W65201  32.210  11.143   2.308
   41W        W65202  12.168  11.637  12.082
   42W        W65203  18.774  11.740   0.669
   43W        W65204  10.070  18.945   3.532
   44W        W65205  26.093   7.252  11.484
   45W        W65206  24.168  33.575   3.374
   46W        W65207  31.959   8.313   0.204
   47W        W65208   7.637  27.793  12.615
   48W        W65209  25.409  18.780   0.319
   49W        W65210  36.023  11.375   4.488
   50W        W65211  12.727  20.507   0.503
   51W        W65212  17.512  10.109  13.545
   52W        W65213  21.485  14.782   2.269
   53W        W65214  19.268  11.830  13.597
   54W        W65215  41.387   6.282  13.268
   55W        W65216  29.307  42.376  11.681
   56W        W65217  14.997  13.276   3.886
   57W        W65218  36.538  41.652   4.462
   58W        W65219  43.102  11.830  11.070
   59W        W65220  10.817  15.116  13.952
   60W        W65221  12.645  27.697  11.652
   61W        W65222  24.519   0.510   3.798
   62W        W65223  25.563  24.528   2.607
   63W        W65224  30.990  20.104   2.010
   64W        W65225  37.362  14.719   2.578
   65W        W65226  14.617  16.842  14.827
   66W        W65227  16.089  15.011  14.852
   67W        W65228  15.224  32.898   0.403
   68W        W65229  17.834  22.630   0.375
   69W        W65230  31.998  29.467   4.121
   70W        W65231  30.540  24.351  12.909
   71W        W65232   2.447  41.936  12.412
   72W        W65233  15.205  44.410   2.457
   73W        W65234  14.604  44.019  14.528
   74W        W65235   8.623  17.116   0.297
   75W        W65236  39.816  31.903   2.692
   76W        W65237  11.149  39.483   3.206
   77W        W65238  16.467  15.717   4.377
   78W        W65239   3.838  33.476  14.834
   79W        W65240  12.133   2.034  13.092
   80W        W65241  15.305   2.051   1.421
   81W        W65242   5.531  20.780   0.320
   82W        W65243  12.605  17.067   2.748
   83W        W65244   2.196  27.554   0.007
   84W        W65245  29.095  12.643   1.729
   85W        W65246   1.730  41.133  10.781
   86W        W65247  15.505  19.767   4.612
   87W        W65248  13.743  34.807   1.902
   88W        W65249  14.646  10.384  10.175
   89W        W65250  13.247  27.245  11.238
   90W        W65251  12.732  36.732   1.029
   91W        W65252   5.329  38.905  11.159
   92W        W65253  11.225  30.416   3.254
   93W        W65254  16.730  44.116   4.145
   94W        W65255  35.632  27.898   0.403
   95W        W65256  10.356   0.648  12.052
   96W        W65257  21.046  38.994  11.948
   97W        W65258  11.837  17.859   4.876
   98W        W65259   4.481  29.571  11.880
   99W        W65260  31.822  35.767   2.014
  100W        W65261  15.819  36.662   2.535
  101W        W65262  30.902  25.520  14.005
  102W        W65263  40.863  33.044  13.693
  103W        W65264   2.506  35.284   0.967
  104W        W65265  44.672  43.561  12.651
  105W        W65266  17.806  23.586   2.689
  106W        W65267  36.152  22.683  13.438
  107W        W65268   9.174  31.359  10.690
  108W        W65269  26.233  28.625   4.015
  109W        W65270  16.709  25.928  12.038
  110W        W65271  20.685  11.051   2.646
  111W        W65272  36.591  19.622  14.345
  112W        W65273  15.022   1.432   0.887
  113W        W65274  10.370  42.427  14.977
  114W        W65275  40.981  29.384   2.173
  115W        W65276   1.212  12.829  13.920
  116W        W65277   0.292  22.667  12.088
  117W        W65278  11.678  16.788  10.549
  118W        W65279   5.314  10.207   2.557
  119W        W65280  20.199  26.920  11.579
  120W        W65281  25.487  39.924  12.588
  121W        W65282  36.301  39.557  13.997
  122W        W65283  39.359  27.667   0.444
  123W        W65284  11.189  43.863  13.104
  124W        W65285  20.975   6.330   1.923
  125W        W65286  17.864   5.899  14.603
  126W        W65287  41.497   3.606  14.722
  127W        W65288  42.751  12.575  14.822
  128W        W65289  36.496   3.245   4.200
  129W        W65290  10.843  12.801  11.269
  130W        W65291   7.216  18.763  14.869
  131W        W65292   4.414   3.004  12.086
  132W        W65293  26.506  28.545  14.393
  133W        W65294  17.261  27.484   1.430
  134W        W65295   6.209  37.290  14.867
  135W        W65296  33.294  25.762   4.762
  136W        W65297  26.483  21.308  13.445
  137W        W65298   8.637  44.698   2.384
  138W        W65299  31.824  24.245   0.859
  139W        W65300  22.137  31.865  11.599
  140W        W65301  24.638   4.373   2.987
  141W        W65302  41.363  26.755   1.769
  142W        W65303  41.458   1.383   3.801
  143W        W65304   9.156   5.753   4.913
  144W        W65305  10.646   1.097  13.354
  145W        W65306  43.551  41.258   3.533
  146W        W65307  41.941   7.907  14.867
  147W        W65308  35.776   5.862  14.488
  148W        W65309   9.876  10.380  13.506
  149W        W65310  22.674  29.055   1.320
  150W        W65311  25.214  14.179  13.917
  151W        W65312  41.546  12.188   1.240
  152W        W65313   4.635   3.277   2.735
  153W        W65314  40.876  26.326   4.298
  154W        W65315   2.494   4.681  12.007
  155W        W65316   5.357  15.365  12.821
  156W        W65317  22.412  13.255   4.946
  157W        W65318   2.752  13.625   0.991
  158W        W65319  44.272  43.465   3.786
  159W        W65320  38.502  12.928   3.154
  160W        W65321  37.629   2.780   2.878
  161W        W65322  33.323  29.314  13.656
  162W        W65323  28.931  17.691  13.523
  163W        W65324  36.112  25.328  12.466
  164W        W65325   2.493  30.468   3.253
  165W        W65326  22.158  32.264   1.366
  166W        W65327   2.374  13.906  10.141
  167W        W65328  35.347   9.683   2.302
  168W        W65329  25.035  32.162  14.834
  169W        W65330  35.231  22.024   2.799
  170W        W65331   5.886  43.283   4.207
  171W        W65332  39.239   3.219   4.302
  172W        W65333  34.394   0.873   4.576
  173W        W65334  14.593   4.812  12.326
  174W        W65335  24.750  11.832   0.987
  175W        W65336  32.955  25.128   2.957
  176W        W65337  32.837  36.085   2.506
  177W        W65338  27.520  10.717   2.681
  178W        W65339  42.445  27.768  14.465
  179W        W65340   3.972  37.168   4.228
  180W        W65341  26.214  30.060  14.988
  181W        W65342  37.630   7.849  12.922
  182W        W65343   4.468   8.224  12.385
  183W        W65344  37.351  42.992  12.337
  184W        W65345  31.970   1.352  10.685
  185W        W65346  38.886  32.332  14.459
  186W        W65347  29.430  15.015   4.092
  187W        W65348  19.016  19.569   3.488
  188W        W65349  25.939   9.265  14.272
  189W        W65350   2.647  19.657  10.495
  190W        W65351  43.039  40.459  10.718
  191W        W65352  39.388  20.541   3.398
  192W        W65353  36.554  13.097   3.548
  193W        W65354  28.536  24.603   2.746
  194W        W65355  42.793   8.403   1.138
  195W        W65356  43.956  18.551   4.453
  196W        W65357  22.422  41.266  11.907
  197W        W65358  29.182   9.872  13.494
  198W        W65359  17.106  29.500  14.936
  199W        W65360   6.689  20.815  13.205
  200W        W65361  31.434  35.889   4.632
  201W        W65362  35.177   2.170   2.379
  202W        W65363  15.065  20.781  14.299
  203W        W65364  21.594   3.542   0.720
  204W        W65365  31.053  29.519  13.925
  205W        W65366  42.333   2.439   3.473
  206W        W65367   8.696  14.744   0.352
  207W        W65368  10.318  30.100  10.670
  208W        W65369  24.574  38.076  14.830
  209W        W65370  11.952   8.528   0.989
  210W        W65371  39.450   4.718   3.187
  211W        W65372  19.340  32.543   1.281
  212W        W65373  42.118  14.358  11.403
  213W        W65374   0.501  28.635   4.478
  214W        W65375  26.814  21.749  12.155
  215W        W65376   2.206  35.464  11.004
  216W        W65377  31.066  43.002   4.027
  217W        W65378  15.802  31.036  11.286
  218W        W65379  29.884  37.848  14.950
  219W        W65380  34.332   0.975   0.952
  220W        W65381  10.413  39.543   2.698
  221W        W65382   3.266  19.194   3.628
  222W        W65383  22.090  28.222  10.881
  223W        W65384  15.918  44.861   4.520
  224W        W65385   3.609   6.233   0.240
  225W        W65386  43.359  40.304  14.937
  226W        W65387   9.769   3.308  11.085
  227W        W65388  32.889   7.436   1.000
  228W        W65389   1.991  40.727  14.443
  229W        W65390  44.604  13.555  14.413
  230W        W65391   2.887   1.225  13.883
  231W        W65392  40.455   9.871  11.617
  232W        W65393  40.085  21.727  13.603
  233W        W65394  23.727  25.989  10.651
  234W        W65395  38.101  13.762  14.482
  235W        W65396  32.873  37.071  14.848
  236W        W65397  12.859  32.829  13.445
  237W        W65398  39.859  40.875   0.363
  238W        W65399  23.202  16.143   1.497
  239W        W65400  13.651  21.777  11.188
  240W        W65401   3.672  29.666   4.156
  241W        W65402  23.252  36.006   4.155
  242W        W65403   3.660  36.997   2.962
  243W        W65404  42.187  37.994  12.462
  244W        W65405  15.856  13.681   4.086
  245W        W65406  43.077  33.903   3.779
  246W        W65407  39.573   1.798   2.362
  247W        W65408   5.139  42.388  12.772
  248W        W65409  28.527  39.713  14.213
  249W        W65410  39.398   3.082  13.407
  250W        W65411  16.302  37.255   1.708
  251W        W65412  19.135   7.935   2.096
  252W        W65413  13.292  42.599  14.734
  253W        W65414   2.931  27.140  10.501
  254W        W65415  14.978  31.603  13.063
  255W        W65416  26.973  12.246  14.629
  256W        W65417   3.330  29.951  10.374
  257W        W65418  43.901  30.695   1.818
  258W        W65419  27.553  21.733  12.578
  259W        W65420  40.833  14.734   0.958
  260W        W65421  17.212  34.106  10.123
  261W        W65422   2.747  16.451  11.555
  262W        W65423  24.606  34.782  13.968
  263W        W65424   7.814  23.598   0.471
  264W        W65425  31.964   6.705   2.661
  265W        W65426   1.559  15.574   1.592
  266W        W65427  37.432  25.147   2.246
  267W        W65428  37.956  21.305   3.138
  268W        W65429  14.420  43.487   4.024
  269W        W65430  21.252  12.930  13.544
  270W        W65431  11.258  34.324   2.740
  271W        W65432  33.797  14.043   3.779
  272W        W65433  16.044  20.596   4.636
  273W        W65434   5.860  18.938  14.414
  274W        W65435   0.273  24.953   2.859
  275W        W65436  22.637  37.045  14.293
  276W        W65437  40.751   5.903  11.621
  277W        W65438  25.265  23.140   0.936
  278W        W65439  32.379  32.158   0.134
  279W        W65440  43.023   9.757   3.621
  280W        W65441  17.074  38.885  10.617
  281W        W65442  32.780  18.275   1.341
  282W        W65443   1.873  24.636  12.619
  283W        W65444  32.548  10.966   1.695
  284W        W65445  28.684  30.889   4.542
  285W        W65446  11.704  35.743  12.926
  286W        W65447  38.490  41.768   1.856
  287W        W65448  28.350  31.503  13.787
  288W        W65449   6.658  31.196   4.254
  289W        W65450  38.645  12.925  13.492
  290W        W65451  25.206  16.981  14.730
  291W        W65452  30.452  37.863   3.381
  292W        W65453  35.931  39.212  11.470
  293W        W65454  10.812  29.468  11.116
  294W        W65455  25.976  37.839  14.453
  295W        W65456  30.838  26.821   4.697
  296W        W65457  41.436  12.297   4.692
  297W        W65458  31.586   5.399  13.588
  298W        W65459  20.865   1.604   3.155
  299W        W65460  28.996  36.596  10.760
  300W        W65461  18.196  36.665   3.557
  301W        W65462  39.533  14.272   0.841
  302W        W65463  11.849  29.074  12.919
  303W        W65464   7.470  32.082   4.198
  304W        W65465   4.748  36.782   4.577
  305W        W65466  15.067  29.113  10.486
  306W        W65467   1.778  26.048   1.772
  307W        W65468   4.014   7.873   4.123
  308W        W65469  11.313  36.985   3.892
  309W        W65470  32.122  11.766   3.550
  310W        W65471   3.145  30.688   4.998
  311W        W65472  15.186  17.607   3.741
  312W        W65473  41.712   5.052   1.146
  313W        W65474  38.075  34.615   0.727
  314W        W65475  43.839  34.947  13.595
  315W        W65476  22.208   0.457   3.147
  316W        W65477  43.354  33.943  14.299
  317W        W65478  43.937   7.661   2.953
  318W        W65479  36.117  35.550  14.852
  319W        W65480  28.543  32.032  11.141
  320W        W65481  39.271   6.308   4.740
  321W        W65482  15.838  29.009  13.511
  322W        W65483  43.548  33.531  10.216
  323W        W65484  32.902  12.199   4.134
  324W        W65485   1.818   5.333   1.008
  325W        W65486  39.362  10.620   1.627
  326W        W65487  29.374   3.804  14.400
  327W        W65488   6.880  43.337  13.188
  328W        W65489  35.919  43.737   4.027
  329W        W65490  29.119   6.247  14.385
  330W        W65491  29.775  38.771  11.389
  331W        W65492  26.945  32.622  11.696
  332W        W65493  22.778   5.431  13.061
  333W        W65494  21.300   7.999  11.165
  334W        W65495  15.066  32.566  12.354
  335W        W65496  13.323  29.910   4.085
  336W        W65497  28.258  36.851   4.080
  337W        W65498  25.668  15.300  11.335
  338W        W65499   7.591   5.258   2.406
  339W        W65500   3.811   5.991  10.770
  340W        W65501  22.658  35.938  10.942
  341W        W65502  30.483   5.376   0.833
  342W        W65503  29.016  28.590  14.433
  343W        W65504  31.305  39.953   4.751
  344W        W65505  15.775  15.105   4.514
  345W        W65506   0.297  33.265  13.965
  346W        W65507  32.353   7.530   2.739
  347W        W65508  27.438  41.417   1.813
  348W        W65509  15.290  11.247  12.439
  349W        W65510  17.813   1.680   4.710
  350W        W65511   5.825   0.872  14.125
  351W        W65512  43.901  29.455  13.549
  352W        W65513  36.377  22.970  12.460
  353W        W65514  43.546  30.154  13.939
  354W        W65515  15.159  34.393  14.284
  355W        W65516  21.059  25.066  14.622
  356W        W65517  32.074   1.971  14.752
  357W        W65518   0.512  34.450   2.705
  358W        W65519   0.843  22.169  13.340
  359W        W65520   1.911   0.360   4.389
  360W        W65521  31.178  31.199  13.563
  361W        W65522  41.472  20.553   0.287
  362W        W65523  28.838  44.380  14.399
  363W        W65524  34.022  27.428   2.430
  364W        W65525  38.009   8.966   3.013
  365W        W65526  11.132  35.415  10.702
  366W        W65527   5.677   1.015   2.190
  367W        W65528  34.661  44.439  13.412
  368W        W65529  13.190   8.410  14.124
  369W        W65530  21.774   8.352  10.390
  370W        W65531  22.722  24.500  12.815
  371W        W65532  11.356  30.607   0.321
  372W        W65533  34.405   3.534   0.861
  373W        W65534   0.914  29.559  10.685
  374W        W65535  31.501  41.142   1.443
  375W        W65536   8.751  28.364  13.068
  376W        W65537  11.681  19.447  11.399
  377W        W65538  28.379   7.382  11.980
  378W        W65539  15.706  25.980   4.232
  379W        W65540  42.546  43.802  12.960
  380W        W65541  18.797   7.262  14.352
  381W        W65542  28.524  27.872   2.664
  382W        W65543  20.560  34.869  10.414
  383W        W65544  23.049   3.489   4.825
  384W        W65545  29.121  22.089   0.516
  385W        W65546  10.790  30.097  10.469
  386W        W65547  26.856  21.283   5.836
  387W        W65548  11.427  38.138  11.084
  388W        W65549  36.154  37.042   1.259
  389W        W65550  24.761  27.938  12.127
  390W        W65551  38.323   9.328   3.842
  391W        W65552  15.296  21.100  12.878
  392W        W65553  21.509  38.295   0.778
  393W        W65554  36.307  15.744   2.618
  394W        W65555   8.191  10.549  10.125
  395W        W65556  11.632  17.984   4.423
  396W        W65557  16.673  17.767  14.998
  397W        W65558   8.333  40.862   1.882
  398W        W65559   7.670  12.131  12.952
  399W        W65560  41.205   4.012   0.680
  400W        W65561  28.334  26.426  14.395
  401W        W65562   2.669   8.190   3.191
  402W        W65563  39.002  11.680   0.379
  403W        W65564  16.829   4.590   2.728
  404W        W65565  26.543  18.054   4.111
  405W        W65566  17.996  40.416  11.973
  406W        W65567  42.912   4.983  11.120
  407W        W65568  36.513  24.660   3.659
  408W        W65569  44.364  28.238   4.005
  409W        W65570  39.953  42.515  14.488
  410W        W65571  14.272  10.659  11.034
  411W        W65572  43.413   3.413   4.189
  412W        W65573  43.166  35.499  12.587
  413W        W65574   5.668  31.006  13.221
  414W        W65575  25.462  37.263   4.313
  415W        W65576  31.385  41.449   3.230
  416W        W65577  31.611   3.802  13.373
  417W        W65578  23.506  17.252   2.489
  418W        W65579  13.568  41.420  12.541
  419W        W65580   9.260  33.572  10.710
  420W        W65581  14.616   1.817   4.410
  421W        W65582  28.707   3.185  11.925
  422W        W65583   3.247   1.892  14.978
  423W        W65584  23.053  10.691   3.189
  424W        W65585   4.544  24.545   2.845
  425W        W65586   6.700  17.207  13.856
  426W        W65587  12.391  28.948  14.454
  427W        W65588  39.980   2.987   4.731
  428W        W65589  25.924   7.858  13.774
  429W        W65590   6.758   6.552   1.808
  430W        W65591  37.670  33.618  12.872
  431W        W65592   9.730  34.117   0.880
  432W        W65593  27.206  23.331  13.637
  433W        W65594   6.864  34.042   2.276
  434W        W65595  17.072  16.199   9.899
  435W        W65596  22.759  16.249  11.628
  436W        W65597  36.953  21.104  12.454
  437W        W65598  10.646  10.867   0.378
  438W        W65599  35.923  31.348   2.637
  439W        W65600  38.047  42.006   1.877
  440W        W65601  26.105   8.500  11.994
  441W        W65602  16.047  17.973   4.197
  442W        W65603   3.116  18.690   3.618
  443W        W65604   4.767  33.228   4.128
  444W        W65605  12.206  22.764  14.848
  445W        W65606  11.571  14.398   5.128
  446W        W65607  38.333  13.107  12.354
  447W        W65608  22.104  17.713   4.831
  448W        W65609  32.491  32.178   4.073
  449W        W65610  12.989  30.686  11.686
  450W        W65611   7.686  44.245   1.057
  451W        W65612   0.824  37.616  13.260
  452W        W65613  10.413  42.893   3.532
  453W        W65614  14.365  21.192  10.261
  454W        W65615  19.105  39.244  14.008
  455W        W65616  16.571  13.571   3.696
  456W        W65617  40.370  16.041  14.791
  457W        W65618   1.668  19.660  10.736
  458W        W65619  29.972  17.264  12.989
  459W        W65620  40.369  29.435   4.549
  460W        W65621  29.520  14.291   3.131
  461W        W65622   0.150   4.933   1.170
  462W        W65623  32.387   8.622   0.898
  463W        W65624  13.586  11.275   1.438
  464W        W65625  26.058  16.752   3.218
  465W        W65626  33.160  29.143   2.206
  466W        W65627   3.911  40.062   4.379
  467W        W65628  42.771  27.107   2.938
  468W        W65629  42.526  30.014  14.835
  469W        W65630   5.852  13.956  11.198
  470W        W65631  36.595   6.906  10.731
  471W        W65632   9.698  33.488  10.958
  472W        W65633  21.850  32.435  11.750
  473W        W65634  39.059  21.378  11.195
  474W        W65635  16.604  41.910  14.495
  475W        W65636  11.249  43.714  13.611
  476W        W65637  32.875  37.598  13.508
  477W        W65638  29.063  28.115   0.876
  478W        W65639  43.290  12.907  13.441
  479W        W65640   3.025   4.704   1.863
  480W        W65641  31.193  37.966  12.053
  481W        W65642  41.563  36.114   1.664
  482W        W65643  29.723  33.355  13.392
  483W        W65644  40.478  14.994   1.482
  484W        W65645  35.729  26.529   2.238
  485W        W65646  37.024   5.250  14.761
  486W        W65647  38.281  10.076  10.080
  487W        W65648  38.298  36.212   3.163
  488W        W65649   9.599   0.380   3.162
  489W        W65650  13.909  41.841  12.483
  490W        W65651  17.721  43.769  12.961
  491W        W65652  41.792   5.322   0.397
  492W        W65653  13.605  23.673   4.669
  493W        W65654  23.175  32.310   3.797
  494W        W65655  10.798  22.012  14.736
  495W        W65656  10.244  28.343  12.938
  496W        W65657   9.308   2.887  11.530
  497W        W65658  32.116  40.402  10.681
  498W        W65659  12.157  22.219   4.745
  499W        W65660  15.583  30.632   2.968
  500W        W65661  15.075  29.450   3.322
  501W        W65662  44.550  10.247   1.776
  502W        W65663  27.185   7.403  13.905
  503W        W65664   0.456   9.394   0.684
  504W        W65665  21.695   6.615   0.420
  505W        W65666   7.602  21.338  14.378
  506W        W65667  22.254  42.962   4.453
  507W        W65668  22.191  14.550  11.576
  508W        W65669  30.858  25.662  12.581
  509W        W65670  33.139  14.805   4.736
  510W        W65671  39.967  44.414  11.962
  511W        W65672  16.212  35.026  14.383
  512W        W65673  29.440  21.031  11.655
  513W        W65674  34.605  37.433  11.553
  514W        W65675  10.263   1.766  10.607
  515W        W65676   7.728  28.698   1.364
  516W        W65677  31.669  38.653  13.521
  517W        W65678  39.085   4.996   0.351
  518W        W65679   5.937   3.331  12.885
  519W        W65680  20.025  37.387  12.266
  520W        W65681   3.374  16.789   0.096
  521W        W65682  24.959  21.023   4.655
  522W        W65683  42.543  15.321  12.523
  523W        W65684  40.335  11.246   3.177
  524W        W65685  39.952   0.662   2.605
  525W        W65686  25.964  24.959   3.248
  526W        W65687  13.144   2.657  11.425
  527W        W65688  24.491  32.195   3.334
  528W        W65689  22.815   2.936  14.795
  529W        W65690  27.985  43.185  11.850
  530W        W65691  25.167  25.861  12.185
  531W        W65692  26.223   3.374  11.216
  532W        W65693  21.984  37.902  14.860
  533W        W65694  39.563  28.249   3.669
  534W        W65695  16.644  26.566   0.827
  535W        W65696  12.819   3.149  13.400
  536W        W65697   6.249  15.198   1.764
  537W        W65698   7.371   0.644  11.072
  538W        W65699   6.734  20.427  14.802
  539W        W65700  17.592  43.873   1.738
  540W        W65701  29.342  41.866  12.947
  541W        W65702  22.981  24.973  14.441
  542W        W65703  14.745  19.226  14.037
  543W        W65704   1.177  14.670   1.945
  544W        W65705  19.261  28.688  13.409
  545W        W65706   3.838   3.957   1.916
  546W        W65707  32.205   7.437  13.091
  547W        W65708  35.064  10.730  10.702
  548W        W65709  18.599  28.195  12.906
  549W        W65710  40.261  16.272  12.875
  550W        W65711  28.786  20.553  13.492
  551W        W65712   4.461  36.835  14.229
  552W        W65713   9.262  43.021   4.097
  553W        W65714  25.257  18.337  13.403
  554W        W65715  34.104  38.239   4.265
  555W        W65716  21.546  23.775  14.764
  556W        W65717  18.104   8.902  14.841
  557W        W65718  17.317  28.027   1.029
  558W        W65719   3.189  18.139  10.665
  559W        W65720  38.628  44.715  12.538
  560W        W65721  38.814  20.273  13.835
  561W        W65722  26.903  32.131   2.781
  562W        W65723   6.361  33.100  14.785
  563W        W65724  34.017  27.905  11.965
  564W        W65725   5.009   7.736  12.034
  565W        W65726  10.381  33.134  12.474
  566W        W65727  37.380  25.598   2.539
  567W        W65728  38.427  36.087  10.383
  568W        W65729  27.238   1.653  14.969
  569W        W65730   3.862  18.076  11.146
  570W        W65731  28.458  27.158  12.412
  571W        W65732  20.341  34.589   3.659
  572W        W65733  38.191  44.481   0.936
  573W        W65734   5.799  34.826  11.656
  574W        W65735   9.333  39.096  12.405
  575W        W65736  40.335  27.203   4.529
  576W        W65737  33.418  20.359  12.463
  577W        W65738  44.906  31.368  12.590
  578W        W65739  41.933   6.400  13.256
  579W        W65740  23.553   8.113   3.734
  580W        W65741   5.267  17.643  10.749
  581W        W65742  22.014  32.156  13.082
  582W        W65743  25.174   3.527   2.696
  583W        W65744  11.216   4.022   1.504
  584W        W65745  13.762  38.604  14.875
  585W        W65746   4.901  13.547  13.451
  586W        W65747  41.214  11.892  13.340
  587W        W65748  37.734   3.793   0.993
  588W        W65749  11.800  22.594   4.689
  589W        W65750  15.654   4.781  12.888
  590W        W65751   0.390  43.351  11.244
  591W        W65752  10.789   2.268   4.128
  592W        W65753   4.841  39.108   2.923
  593W        W65754  18.067  44.785   0.174
  594W        W65755  25.760  41.913   2.367
  595W        W65756   6.131   7.734   2.727
  596W        W65757  24.654  11.199   2.220
  597W        W65758  23.964  35.452   3.031
  598W        W65759  30.617  34.377  14.843
  599W        W65760   1.347  32.953   0.772
  600W        W65761   2.965  40.315  14.309
  601W        W65762  32.839   0.753   2.186
  602W        W65763  10.410  31.293   0.240
  603W        W65764  20.988  10.816   0.708
  604W        W65765  11.868  27.814  12.593
  605W        W65766  22.203  38.923   0.333
  606W        W65767   3.426  31.344   2.612
  607W        W65768  11.188   9.565  12.703
  608W        W65769  38.551  41.853  11.588
  609W        W65770  29.109  12.878   3.456
  610W        W65771   4.966  22.825   1.199
  611W        W65772  33.908  35.152   4.975
  612W        W65773  19.709  36.456  14.021
  613W        W65774  39.290  42.820  13.941
  614W        W65775  14.662  43.867  10.339
  615W        W65776  34.815  25.816  11.081
  616W        W65777  13.484  22.585   3.860
  617W        W65778  40.544   4.026   2.807
  618W        W65779  18.830  40.057   3.651
  619W        W65780   2.383  25.739  11.215
  620W        W65781  21.961  13.706  13.582
  621W        W65782   8.133  43.242  11.001
  622W        W65783   0.691  41.884   0.485
  623W        W65784  43.212  18.002  12.384
  624W        W65785  16.306  36.893  14.354
  625W        W65786  39.995  24.707  14.418
  626W        W65787  41.441  34.198  13.699
  627W        W65788  21.273  35.481  14.102
  628W        W65789  28.000  41.853   0.783
  629W        W65790  41.618  36.234   2.164
  630W        W65791  20.223  25.049  10.592
  631W        W65792  37.515   0.464  10.710
  632W        W65793  33.960  44.260   3.371
  633W        W65794  43.855   0.900   2.768
  634W        W65795   4.430  29.041   4.401
  635W        W65796   3.247  19.228   2.236
  636W        W65797  25.047  28.904  11.713
  637W        W65798  35.470  39.388  12.375
  638W        W65799  41.714  18.103  12.107
  639W        W65800  23.248   6.980   4.106
  640W        W65801  23.947  31.002  10.773
  641W        W65802  38.750  43.234   3.158
  642W        W65803  15.184  15.326  14.481
  643W        W65804  35.500  13.367  14.371
  644W        W65805  12.430  37.928  10.989
  645W        W65806  28.897  11.199  14.646
  646W        W65807   1.107  40.489   3.522
  647W        W65808  42.724  23.162  11.049
  648W        W65809  35.884   7.623  13.577
  649W        W65810  10.784  21.546   4.601
  650W        W65811  21.482  37.622  14.406
  651W        W65812  32.584  31.107  14.710
  652W        W65813  26.423  23.904   2.809
  653W        W65814   5.830  40.396  10.730
  654W        W65815  38.898  34.146  14.750
  655W        W65816  22.815  15.906   9.895
  656W        W65817  44.444   3.611  10.417
  657W        W65818  23.223  22.019  14.694
  658W        W65819  22.145  14.566  12.630
  659W        W65820  17.235  41.386  12.327
  660W        W65821   2.397  10.350  12.941
  661W        W65822  41.449  17.803   4.507
  662W        W65823  11.391  42.905  12.470
  663W        W65824  22.773  23.575  13.272
  664W        W65825  21.346  25.621  12.519
  665W        W65826   3.007   8.360  12.615
  666W        W65827  30.435  41.232   3.212
  667W        W65828   2.277  30.672   2.244
  668W        W65829  25.085  43.287   2.428
  669W        W65830  38.862  39.961  13.531
  670W        W65831  44.089   8.810  12.197
  671W        W65832  23.520  34.328   3.298
  672W        W65833  36.530  21.156   1.525
  673W        W65834   1.958  17.250  11.919
  674W        W65835  41.489  41.591   1.763
  675W        W65836  35.944   4.246   2.895
  676W        W65837  21.142  29.845  14.456
  677W        W65838  29.889  35.197   1.360
  678W        W65839  37.179  10.213  10.194
  679W        W65840  12.227  24.016  13.966
  680W        W65841  20.730  39.835  10.581
  681W        W65842   9.700  14.846   0.767
  682W        W65843  43.301   6.907   4.764
  683W        W65844  14.785  17.462   4.567
  684W        W65845   0.359   7.061   1.846
  685W        W65846  13.081  32.920  12.054
  686W        W65847   4.862  44.928  12.977
  687W        W65848  44.091  22.979  11.920
  688W        W65849  44.700  15.110   3.682
  689W        W65850  23.762  42.801  14.389
  690W        W65851   9.799  31.611   3.994
  691W        W65852   4.015  12.128   0.016
  692W        W65853  27.866  43.424  11.061
  693W        W65854  13.187   5.794   1.207
  694W        W65855  31.725  11.299   1.459
  695W        W65856  29.062  36.875   3.685
  696W        W65857  28.230  21.273  10.761
  697W        W65858  38.344  24.960  12.136
  698W        W65859  18.802  26.025   0.092
  699W        W65860  33.607  33.248  10.778
  700W        W65861  41.134  19.185  11.109
  701W        W65862  32.703  10.254   0.420
  702W        W65863  26.221  41.345  10.775
  703W        W65864  17.810  40.630  12.423
  704W        W65865   1.350  34.333  12.067
  705W        W65866  30.961  40.268   3.760
  706W        W65867  25.498   8.933   2.296
  707W        W65868  21.164  32.894  11.062
  708W        W65869  34.905  33.286   1.335
  709W        W65870  21.319  28.498   5.060
  710W        W65871   4.705  27.879   4.181
  711W        W65872  38.438  17.154  13.367
  712W        W65873  28.215  20.052  12.585
  713W        W65874   7.853   7.751   0.152
  714W        W65875  30.112  31.384  13.432
  715W        W65876  39.052  43.512   3.495
  716W        W65877   4.281   7.187   2.817
  717W        W65878   2.952  14.585   3.163
  718W        W65879  18.593   4.881   1.278
  719W        W65880  29.222   5.803  10.698
  720W        W65881  18.979   4.127  13.418
  721W        W65882  38.878  22.446  12.877
  722W        W65883  11.318  19.437  13.606
  723W        W65884   2.935  42.869  12.454
  724W        W65885  32.222   5.311   1.475
  725W        W65886  40.378  31.666   4.596
  726W        W65887   9.179  27.286  11.592
  727W        W65888  36.619   0.895   2.378
  728W        W65889  13.165   8.121  12.404
  729W        W65890  38.807  41.805  12.050
  730W        W65891  23.508  23.124   5.280
  731W        W65892  13.885   7.196  12.932
  732W        W65893   4.333  33.461  14.694
  733W        W65894  31.668  13.412  11.814
  734W        W65895  14.529  38.709  12.181
  735W        W65896  26.647  31.076  11.231
  736W        W65897  22.542  38.071  10.706
  737W        W65898  24.493  18.129  10.659
  738W        W65899  20.558   1.533   4.623
  739W        W65900  24.224  31.568  11.449
  740W        W65901  20.380  41.311  12.973
  741W        W65902  14.238  21.125   3.650
  742W        W65903  38.424   4.189   3.268
  743W        W65904  39.589  24.084  11.607
  744W        W65905  31.525   9.844   2.336
  745W        W65906   8.473  12.566  11.191
  746W        W65907   1.311  24.565  12.982
  747W        W65908  20.516  42.398   2.167
  748W        W65909  16.902  41.406  12.805
  749W        W65910  15.792  21.114   2.134
  750W        W65911   8.277   3.357  11.164
  751W        W65912  30.586  20.216  12.369
  752W        W65913  42.466   7.966   1.119
  753W        W65914  23.052  37.879  11.444
  754W        W65915   3.956  13.040  12.126
  755W        W65916  30.125  44.433  14.905
  756W        W65917   3.462   5.399  10.491
  757W        W65918  44.871   6.231   3.059
  758W        W65919  29.522   3.756   3.863
  759W        W65920  12.663  21.773   2.149
  760W        W65921   3.957  20.052  14.451
  761W        W65922  19.858  21.574  12.929
  762W        W65923  39.031   3.898  12.111
  763W        W65924   9.256  38.536   2.954
  764W        W65925  34.476  32.660   0.512
  765W        W65926   3.679  26.069   2.883
  766W        W65927   3.809  22.625  11.102
  767W        W65928  12.057   3.344   9.735
  768W        W65929  38.344  29.300  14.706
  769W        W65930  41.708  20.742   4.208
  770W        W65931  35.265  17.705  14.372
  771W        W65932   8.943  29.478  14.932
  772W        W65933   0.942  40.352   3.040
  773W        W65934  31.098  32.074   1.338
  774W        W65935  30.913  39.511   2.805
  775W        W65936  27.962  25.701  12.397
  776W        W65937  41.688   6.012  11.746
  777W        W65938  33.351  26.553  11.371
  778W        W65939   6.186   6.586  12.513
  779W        W65940  24.781  23.129   0.784
  780W        W65941   7.304  23.322   0.811
  781W        W65942   7.731  22.221   3.031
  782W        W65943   7.248  10.424  13.879
  783W        W65944  17.752  40.908  13.409
  784W        W65945  23.230  14.008   4.622
  785W        W65946  23.404  13.625   3.200
  786W        W65947   1.708  39.626  10.829
  787W        W65948  11.697  35.838  13.574
  788W        W65949  17.031  23.772  12.086
  789W        W65950   8.655  35.533  11.585
  790W        W65951  24.929   1.501   0.733
  791W        W65952  20.174   0.194  14.287
  792W        W65953  22.396  19.267  12.046
  793W        W65954  39.279  15.836  13.225
  794W        W65955  36.066  11.295   2.909
  795W        W65956  27.280  20.856  13.964
  796W        W65957   8.394  13.238  14.670
  797W        W65958   0.593  44.225   2.656
  798W        W65959   0.642  11.821  12.142
  799W        W65960   5.441   3.426   3.126
  800W        W65961  13.201  20.743  10.592
  801W        W65962  25.526  10.698  14.520
  802W        W65963  28.035  25.633   2.312
  803W        W65964  12.634  41.392  13.559
  804W        W65965  42.111  12.708  13.496
  805W        W65966  42.894  27.013  13.479
  806W        W65967  13.251  22.653  10.343
  807W        W65968  30.585  39.757   4.220
  808W        W65969  14.758  33.925  13.484
  809W        W65970  40.981  26.148   2.420
  810W        W65971  35.574   6.282  13.884
  811W        W65972   4.660   9.596  10.760
  812W        W65973  27.118   8.078  10.887
  813W        W65974  32.546   6.659   4.633
  814W        W65975  26.110  39.907  12.026
  815W        W65976  39.821  42.714   2.656
  816W        W65977  33.656  22.615   4.838
  817W        W65978  16.351   3.233   0.431
  818W        W65979  17.177   3.810   4.872
  819W        W65980  22.955   0.288   1.008
  820W        W65981  10.784  17.427  11.087
  821W        W65982  28.518   1.437   0.605
  822W        W65983  44.355  40.315   4.068
  823W        W65984  20.562  18.779  12.996
  824W        W65985  33.987  38.922   4.106
  825W        W65986  15.840   8.040   3.157
  826W        W65987  30.347  25.635  10.252
  827W        W65988  31.406  31.091   4.681
  828W        W65989  25.718   6.761  14.745
  829W        W65990   8.584  17.538   1.929
  830W        W65991  14.211  18.020  12.634
  831W        W65992  43.520  11.764  14.351
  832W        W65993  38.804  36.637   2.228
  833W        W65994  12.511  42.479   4.546
  834W        W65995  18.586  24.481  13.912
  835W        W65996  38.660  18.844  12.504
  836W        W65997   3.431  36.883  12.752
  837W        W65998   6.681  44.341   4.033
  838W        W65999  34.869  24.783  10.675
  839W        W66000   8.063  20.706  11.669
  840W        W66001   5.317  43.892  11.550
  841W        W66002   0.039  13.703   2.531
  842W        W66003   7.835  41.131  12.854
  843W        W66004  32.849  39.407   2.197
  844W        W66005  23.857  25.007   0.304
  845W        W66006  44.509   8.108   1.244
  846W        W66007   7.014  43.403   1.734
  847W        W66008  18.560  42.681  13.032
  848W        W66009  14.598  34.396   1.315
  849W        W66010  19.608  40.175   5.095
  850W        W66011  34.739  12.677  11.176
  851W        W66012  19.038  24.689   0.622
  852W        W66013  10.850  29.678   0.070
  853W        W66014   2.808  13.179   3.092
  854W        W66015  11.641  35.357  13.750
  855W        W66016  26.088   8.865  13.621
  856W        W66017  15.674  37.675   3.288
  857W        W66018   4.920  35.873   1.743
  858W        W66019  17.811  20.494   0.232
  859W        W66020  10.603  44.044  11.985
  860W        W66021   6.291   5.772  10.766
  861W        W66022   8.202  10.968   3.535
  862W        W66023  27.471  14.218   2.799
  863W        W66024  17.155   2.858  10.752
  864W        W66025   0.917  18.721   4.607
  865W        W66026  33.148  33.592   2.188
  866W        W66027  11.967  42.087  13.112
  867W        W66028  44.931   8.804   4.682
  868W        W66029   9.285   5.057  12.803
  869W        W66030   1.740  24.821  13.073
  870W        W66031  30.983  12.380  14.004
  871W        W66032  40.489   9.565   0.790
  872W        W66033   4.809   8.650  12.133
  873W        W66034  44.311  17.285  10.741
  874W        W66035  14.350  15.846  13.475
  875W        W66036  34.539  14.499  13.505
  876W        W66037  14.202   0.779   2.661
  877W        W66038  13.400  19.851  14.993
  878W        W66039  14.508  35.489  13.024
  879W        W66040  24.514   8.708   1.974
  880W        W66041   8.166   8.831  11.649
  881W        W66042   6.984  16.383  11.851
  882W        W66043  40.823   7.661  14.459
  883W        W66044  42.827  38.547  10.920
  884W        W66045  43.933   6.750   1.835
  885W        W66046   0.629  39.112   3.278
  886W        W66047   9.270  20.234   3.125
  887W        W66048   7.252  40.927   3.882
  888W        W66049  17.151  21.219  13.334
  889W        W66050  39.070  31.121  11.172
  890W        W66051   6.709  38.071  13.859
  891W        W66052   1.760  42.835   4.814
  892W        W66053  26.210  19.840   3.577
  893W        W66054  16.203   8.743  11.549
  894W        W66055  38.110   5.300   3.722
  895W        W66056   9.765  19.778   0.760
  896W        W66057  29.837  34.253  11.121
  897W        W66058   8.621  27.154  14.945
  898W        W66059  24.477  21.568   0.255
  899W        W66060  38.330   6.720  12.878
  900W        W66061  21.268  29.573  10.682
  901W        W66062  10.411  27.522  11.993
  902W        W66063   1.891  44.994  14.521
  903W        W66064  24.088  17.565   0.849
  904W        W66065  38.906  42.359  12.633
  905W        W66066  34.329  29.020   4.448
  906W        W66067  24.052  39.997  12.619
  907W        W66068  29.043  12.489   0.025
  908W        W66069  42.364  26.342   4.112
  909W        W66070  25.190  21.557   1.772
  910W        W66071  37.941  10.126   0.423
  911W        W66072  44.703  23.159   5.020
  912W        W66073  25.515   4.260   3.638
  913W        W66074   4.702  20.217  12.509
  914W        W66075  31.042  12.427   4.219
  915W        W66076   7.993  19.552   2.873
  916W        W66077  29.551   0.240  14.944
  917W        W66078  18.871  31.023  11.558
  918W        W66079  26.270  34.933   2.713
  919W        W66080  20.116   2.796   2.633
  920W        W66081  30.712  17.628  14.044
  921W        W66082  38.764  22.161  13.475
  922W        W66083  35.020   4.578   2.076
  923W        W66084  26.523   3.899   0.435
  924W        W66085  43.996  27.519   0.824
  925W        W66086   4.191  42.348  13.326
  926W        W66087  21.800   3.335   4.090
  927W        W66088  28.987   5.870  14.942
  928W        W66089  20.321  20.316   2.828
  929W        W66090  35.375  36.595   3.537
  930W        W66091  16.853   0.304  13.847
  931W        W66092  35.482  22.075   4.775
  932W        W66093  36.908   5.453   1.280
  933W        W66094  17.255  24.569  10.629
  934W        W66095  41.291  41.870  12.173
  935W        W66096  21.282  12.222   1.191
  936W        W66097  24.169  25.715  10.666
  937W        W66098  28.007  32.103   3.720
  938W        W66099  34.520  17.074   2.712
  939W        W66100   3.870  26.207   0.669
  940W        W66101  33.994  32.090  14.891
  941W        W66102  13.185  27.916  12.946
  942W        W66103  43.496   2.988   4.531
  943W        W66104  37.512  25.697   3.965
  944W        W66105   0.380   3.690   2.644
  945W        W66106   9.017  41.566   2.531
  946W        W66107  40.212   0.889  11.176
  947W        W66108  20.775  41.321  14.311
  948W        W66109  23.523   8.212   1.679
  949W        W66110  37.484  35.015   1.729
  950W        W66111  34.039   3.243   1.735
  951W        W66112  23.048  10.124   4.450
  952W        W66113  12.408  39.075   1.739
  953W        W66114   1.898  27.583   3.815
  954W        W66115   0.450  34.566   0.909
  955W        W66116   8.870  22.948  14.798
  956W        W66117   8.748  25.661   1.830
  957W        W66118   2.282  14.859   1.193
  958W        W66119  15.396  10.749  14.526
  959W        W66120  16.803  38.072  10.238
  960W        W66121  37.866  33.488   3.129
  961W        W66122  15.693  33.588  12.915
  962W        W66123   6.782  11.653  11.604
  963W        W66124  30.225  27.228  10.670
  964W        W66125  44.780  12.314   1.486
  965W        W66126  26.141  30.238   2.512
  966W        W66127   7.755   2.398   0.449
  967W        W66128  19.297  21.112  11.596
  968W        W66129   1.827   7.964   2.581
  969W        W66130   1.640  15.898   4.077
  970W        W66131  32.792  10.363  11.952
  971W        W66132  13.733  15.282   0.647
  972W        W66133  18.831   3.265   1.278
  973W        W66134   9.206  26.767  11.523
  974W        W66135  21.026  25.458  10.813
  975W        W66136  25.433  16.408   5.058
  976W        W66137  22.194  16.380  14.329
  977W        W66138   5.280  11.292   9.400
  978W        W66139  21.695  27.275   2.362
  979W        W66140  34.999  26.329   1.683
  980W        W66141  31.035   7.233  14.400
  981W        W66142  15.748  17.975  14.329
  982W        W66143  10.928   4.358  10.886
  983W        W66144   4.846   6.352   3.558
  984W        W66145  24.161  13.720   2.759
  985W        W66146   5.568  23.964  12.405
  986W        W66147  19.141  41.031  12.528
  987W        W66148  29.444  16.565   4.565
  988W        W66149  24.358  22.754   3.386
  989W        W66150  15.276  22.474  14.660
  990W        W66151   3.898   7.671  11.944
  991W        W66152  12.404  31.173  12.560
  992W        W66153  26.501   8.738   3.347
  993W        W66154  17.383  21.660   2.902
  994W        W66155  30.196   6.615  11.205
  995W        W66156   6.211  10.214  11.343
  996W        W66157   0.889  17.916  13.569
  997W        W66158  28.104   6.481   3.672
  998W        W66159  21.102  17.303  13.600
  999W        W66160  33.046  14.827   3.824
 1000W        W66161  16.641  13.039   1.641
 1001W        W66162  20.055  35.443  13.229
 1002W        W66163   8.889  10.848  13.400
 1003W        W66164   7.802  27.970  10.662
 1004W        W66165  44.373  41.430  12.025
 1005W        W66166  35.941  10.352  14.545
 1006W        W66167  41.643  42.437   0.218
 1007W        W66168  37.816  14.898  11.667
 1008W        W66169  21.199  42.008  12.950
 1009W        W66170  28.704  32.854  10.779
 1010W        W66171  44.572   1.951  11.981
 1011W        W66172  32.624  19.355  12.824
 1012W        W66173  11.716   1.872  10.729
 1013W        W66174   5.086  34.457  11.156
 1014W        W66175  16.878  33.552  13.874
 1015W        W66176  42.473   3.195   3.782
 1016W        W66177   7.024   3.432  14.773
 1017W        W66178   2.941   0.342   4.621
 1018W        W66179  12.828  35.490  10.793
 1019W        W66180   3.322  19.551   3.147
 1020W        W66181  23.497  15.327  11.354
 1021W        W66182   0.432   7.821  12.456
 1022W        W66183  32.053  16.040   4.457
 1023W        W66184  43.442  43.246  10.604
 1024W        W66185  40.467   6.256  10.985
 1025W        W66186  10.420  10.336   3.535
 1026W        W66187  11.808  40.538  11.151
 1027W        W66188  20.156  29.388   4.205
 1028W        W66189  43.565  11.207   1.527
 1029W        W66190  31.711   2.687  11.570
 1030W        W66191  41.410  26.516  13.921
 1031W        W66192  25.404  21.844   1.343
 1032W        W66193  30.874  38.416   0.825
 1033W        W66194  24.266  24.005   3.706
 1034W        W66195   7.691  14.442   0.901
 1035W        W66196   5.423   2.573  14.332
 1036W        W66197  30.482  25.922  11.984
 1037W        W66198   3.656  30.643  11.518
 1038W        W66199  40.263  28.283  13.464
 1039W        W66200  32.926  38.176  11.064
 1040W        W66201   1.841  31.807  14.990
 1041W        W66202  17.599  16.648   3.579
 1042W        W66203   9.420   8.352  14.489
 1043W        W66204  32.219  21.531  14.998
 1044W        W66205  42.569  20.720  11.654
 1045W        W66206   2.489  29.542   1.368
 1046W        W66207  22.641  29.068   3.285
 1047W        W66208  15.722  16.319   3.788
 1048W        W66209  40.184  40.360   0.279
 1049W        W66210  17.117  40.125   1.834
 1050W        W66211  28.437  11.123   1.302
 1051W        W66212  10.062  17.231  11.714
 1052W        W66213  20.699  34.926  14.813
 1053W        W66214  28.605  40.438  13.783
 1054W        W66215   7.195   7.237  14.687
 1055W        W66216  18.523  44.355   0.707
 1056W        W66217  41.961  37.490  13.107
 1057W        W66218  16.846   9.730  13.037
 1058W        W66219  43.429   0.907  10.942
 1059W        W66220  11.889  13.646  11.779
 1060W        W66221  32.229  33.497  11.167
 1061W        W66222   6.354   6.878  14.017
 1062W        W66223  38.370  18.129  14.234
 1063W        W66224  23.735  19.203   4.046
 1064W        W66225  14.203  44.231   0.896
 1065W        W66226  27.205  33.056   4.103
 1066W        W66227  41.315  35.398   2.809
 1067W        W66228  10.410  32.131  11.495
 1068W        W66229   5.687  10.222  10.684
 1069W        W66230  32.629   1.477   3.269
 1070W        W66231   1.731  14.729   2.610
 1071W        W66232   5.192  38.273   1.661
 1072W        W66233  20.870  23.246  10.336
 1073W        W66234  30.417  30.719   4.022
 1074W        W66235  41.722  43.773  13.437
 1075W        W66236  19.708  25.768  14.990
 1076W        W66237  31.692  30.634  11.539
 1077W        W66238   9.867  11.095   3.233
 1078W        W66239  22.953  27.183  12.841
 1079W        W66240  17.775  12.201  12.008
 1080W        W66241  14.123  34.847   0.658
 1081W        W66242  26.726  31.664   3.027
 1082W        W66243  29.693   7.945  13.511
 1083W        W66244  42.928  44.373   5.196
 1084W        W66245  22.570   5.941   3.728
 1085W        W66246  13.241   6.141   4.854
 1086W        W66247   3.269  23.728  10.606
 1087W        W66248  41.724  44.031   3.927
 1088W        W66249  19.504  20.462   1.907
 1089W        W66250   8.689   9.166   1.756
 1090W        W66251  11.910  20.214  13.895
 1091W        W66252  31.615   3.041   0.913
 1092W        W66253  37.378  31.677   4.254
 1093W        W66254   6.115  25.680   0.310
 1094W        W66255  16.539   9.181   2.896
 1095W        W66256  28.002  30.793  11.025
 1096W        W66257  29.914  13.588  13.622
 1097W        W66258   8.243  31.707   3.216
 1098W        W66259  23.340  39.945   3.600
 1099W        W66260  44.021  32.848   0.426
 1100W        W66261  11.398   4.476   3.535
 1101W        W66262  43.507  24.556   3.623
 1102W        W66263  42.074  33.431   1.705
 1103W        W66264  18.042   0.096   3.693
 1104W        W66265  39.880  14.687  12.886
 1105W        W66266  15.847   7.733   4.306
 1106W        W66267   1.173  42.918  10.322
 1107W        W66268  21.054  35.778   3.665
 1108W        W66269  22.261  36.845   0.051
 1109W        W66270  18.791  35.662   5.098
 1110W        W66271   4.918  16.041   1.658
 1111W        W66272  28.171   0.914  12.619
 1112W        W66273   4.442  40.888  11.773
 1113W        W66274  10.212  44.332   4.519
 1114W        W66275  14.653  43.411  11.146
 1115W        W66276  40.943  24.206   2.945
 1116W        W66277  14.639   4.219   1.796
 1117W        W66278  44.333  39.084  14.372
 1118W        W66279  39.626   4.231   3.288
 1119W        W66280  24.503   7.166   3.616
 1120W        W66281  44.189   1.474   4.163
 1121W        W66282   2.598  19.735   1.070
 1122W        W66283  42.028   7.831   0.745
 1123W        W66284  24.143  40.758   1.680
 1124W        W66285  15.680  16.537   2.261
 1125W        W66286  24.606  44.239  11.881
 1126W        W66287  39.451  38.986  11.123
 1127W        W66288  27.674  37.328   1.242
 1128W        W66289  33.100  16.214  11.593
 1129W        W66290  35.011  15.972  12.482
 1130W        W66291  14.037  28.528   3.639
 1131W        W66292  38.858   0.859   2.763
 1132W        W66293  17.072  17.667   4.808
 1133W        W66294  14.344  43.513  13.487
 1134W        W66295  14.632  16.291  13.518
 1135W        W66296  11.654  16.351  10.797
 1136W        W66297  41.469  40.039   1.850
 1137W        W66298  20.270   9.140  11.943
 1138W        W66299   6.769  24.172  12.096
 1139W        W66300  32.014   0.263   3.283
 1140W        W66301  15.743  19.805  13.066
 1141W        W66302   0.225  44.914   1.016
 1142W        W66303  34.583  22.454   4.505
 1143W        W66304  21.649  23.476   0.266
 1144W        W66305  15.086  36.353  13.405
 1145W        W66306  32.980  29.011   1.694
 1146W        W66307  41.331  16.251  12.920
 1147W        W66308   4.696  44.710  14.319
 1148W        W66309  31.003   2.230  11.603
 1149W        W66310  28.100  41.119  13.987
 1150W        W66311  18.978  34.949  14.872
 1151W        W66312  38.849  32.462  13.944
 1152W        W66313  29.988  40.805   3.065
 1153W        W66314   6.149   6.439   2.486
 1154W        W66315   2.705   0.415  13.562
 1155W        W66316   2.853  39.131   4.347
 1156W        W66317  42.972  17.597  12.192
 1157W        W66318  28.575  29.993   3.547
 1158W        W66319  16.423   6.524  13.196
 1159W        W66320  23.049  31.112  10.608
 1160W        W66321  42.476  16.970  13.102
 1161W        W66322   6.741  23.187  11.945
 1162W        W66323   7.294  29.554  11.892
 1163W        W66324   2.253  17.378   2.833
 1164W        W66325  26.860  15.146  13.078
 1165W        W66326  43.414   2.370   0.226
 1166W        W66327  10.602  24.281  14.502
 1167W        W66328  33.458   0.680  14.505
 1168W        W66329  14.343  35.145  13.373
 1169W        W66330  40.016  32.023  12.471
 1170W        W66331  16.753  33.390  12.943
 1171W        W66332  43.025  30.073  13.937
 1172W        W66333  10.279  25.872  13.015
 1173W        W66334   3.641  20.331  11.330
 1174W        W66335  10.724  13.830  14.223
 1175W        W66336  11.857  42.766  14.499
 1176W        W66337  38.359  29.107   1.789
 1177W        W66338  37.934  15.436   1.696
 1178W        W66339  22.255  35.462   3.745
 1179W        W66340   1.714   8.635   3.693
 1180W        W66341  12.800  44.438  13.294
 1181W        W66342  31.678  32.872   0.377
 1182W        W66343  20.142  32.115  13.592
 1183W        W66344   1.796   5.757  10.651
 1184W        W66345   2.112  43.265  12.456
 1185W        W66346  35.823  19.805  14.842
 1186W        W66347  44.920   7.950  12.496
 1187W        W66348  21.259  39.533   4.500
 1188W        W66349  13.389  10.408  10.788
 1189W        W66350  31.390  36.325  12.897
 1190W        W66351  11.127   2.252   3.742
 1191W        W66352  20.239  37.649  10.527
 1192W        W66353  25.184  23.572  10.583
 1193W        W66354   0.004  11.846   2.697
 1194W        W66355  35.923  23.711   2.259
 1195W        W66356  44.350  40.240   0.035
 1196W        W66357  33.328   4.293  13.637
 1197W        W66358  30.984   6.965  12.081
 1198W        W66359  17.545  24.193  13.377
 1199W        W66360   0.812  20.035  11.659
 1200W        W66361  27.559  33.851   4.963
 1201W        W66362  16.543   4.171   1.404
 1202W        W66363  39.035  30.532  12.426
 1203W        W66364  23.507  29.087   2.937
 1204W        W66365  34.364  15.980  11.198
 1205W        W66366  17.316   1.600   1.626
 1206W        W66367  20.512   4.460  13.912
 1207W        W66368   3.697  10.908   0.383
 1208W        W66369   8.201  44.953  14.506
 1209W        W66370  18.113   8.107  12.964
 1210W        W66371  43.019  37.133  14.462
 1211W        W66372  22.228   7.229   1.922
 1212W        W66373  27.633   7.311   3.946
 1213W        W66374  15.671   6.333   3.055
 1214W        W66375  29.704  31.598   2.735
 1215W        W66376  29.529  25.906   4.133
 1216W        W66377   9.625  15.205   2.503
 1217W        W66378  29.037  32.903  14.845
 1218W        W66379  42.546   7.436   0.277
 1219W        W66380  13.110  33.472   3.658
 1220W        W66381  27.246  28.461  13.851
 1221W        W66382  18.747   9.789  13.394
 1222W        W66383  37.831   1.336   0.239
 1223W        W66384   9.315  29.835  13.900
 1224W        W66385  22.132  44.805  14.992
 1225W        W66386  24.605  12.004  12.537
 1226W        W66387  35.487  42.081  12.502
 1227W        W66388  20.143   6.146  11.913
 1228W        W66389  16.068   6.030  14.151
 1229W        W66390  43.092  15.142   2.666
 1230W        W66391  23.095  35.500  12.786
 1231W        W66392   9.690  44.272  13.223
 1232W        W66393  38.964   8.640   3.245
 1233W        W66394  12.720  16.748   3.313
 1234W        W66395  12.373  33.138  11.494
 1235W        W66396  21.986  22.123  12.829
 1236W        W66397  31.232  11.413   1.632
 1237W        W66398  27.902  33.549  11.113
 1238W        W66399   0.314   5.846  13.390
 1239W        W66400  40.873  12.151  13.717
 1240W        W66401  25.989  10.192   3.229
 1241W        W66402  17.315  24.812  10.150
 1242W        W66403  13.813   5.749  11.948
 1243W        W66404  26.641   3.963   3.595
 1244W        W66405  10.333  23.248  14.926
 1245W        W66406  12.888  10.184   3.244
 1246W        W66407  37.589  14.690  11.207
 1247W        W66408  39.987  20.278   1.523
 1248W        W66409  36.872  42.289  11.974
 1249W        W66410   0.291  14.034   1.366
 1250W        W66411  13.155   6.272   0.430
 1251W        W66412  12.449   3.020  13.026
 1252W        W66413  10.085  11.834   4.039
 1253W        W66414  25.805  33.002   0.246
 1254W        W66415  37.794  18.021  12.010
 1255W        W66416   0.675  25.003  12.133
 1256W        W66417  16.082   7.283   5.016
 1257W        W66418   8.761  22.791   0.340
 1258W        W66419   7.670  37.449  12.077
 1259W        W66420   2.507   2.380  12.511
 1260W        W66421  20.334  35.869   3.236
 1261W        W66422   5.815  19.993   0.390
 1262W        W66423  30.108  31.992  12.851
 1263W        W66424  37.912   2.616  14.892
 1264W        W66425   2.673  27.529   4.990
 1265W        W66426  14.709  30.176  14.990
 1266W        W66427  27.574  42.830  11.987
 1267W        W66428  23.140  20.674   5.734
 1268W        W66429  10.110   4.336   3.705
 1269W        W66430  15.569  32.991  13.160
 1270W        W66431   5.927   4.364   4.377
 1271W        W66432   6.895  31.107   1.327
 1272W        W66433   4.013  22.546  11.936
 1273W        W66434   1.666  14.352   4.120
 1274W        W66435  32.890  15.729   1.426
 1275W        W66436   8.915  30.906  12.867
 1276W        W66437   0.503   0.726  14.310
 1277W        W66438  37.930   5.450  14.260
 1278W        W66439  25.385  43.549  12.651
 1279W        W66440   1.249  21.216  14.975
 1280W        W66441  37.678  41.481  14.250
 1281W        W66442  13.830  40.575  14.302
 1282W        W66443  18.459  19.282  11.625
 1283W        W66444  42.797  32.979   1.620
 1284W        W66445   9.671  20.124  11.855
 1285W        W66446  32.532   2.914   4.716
 1286W        W66447  39.738  41.832   1.384
 1287W        W66448   1.193   7.308  11.136
 1288W        W66449  17.765  37.596   0.109
 1289W        W66450   8.968  34.394  13.084
 1290W        W66451  20.996  11.587  13.847
 1291W        W66452  34.895  22.662   4.906
 1292W        W66453  39.507  41.048   3.652
 1293W        W66454   8.195  36.569   3.315
 1294W        W66455  19.563  10.797   4.952
 1295W        W66456  28.641  36.086  11.633
 1296W        W66457   5.176  23.522   4.590
 1297W        W66458  20.008  25.514  10.600
 1298W        W66459  24.244   5.237   4.107
 1299W        W66460  23.460  42.832   2.798
 1300W        W66461  33.641   1.999  12.536
 1301W        W66462  26.988  41.064  14.099
 1302W        W66463   7.771   8.405  12.076
 1303W        W66464  18.995  16.457   2.742
 1304W        W66465  14.472  13.311   3.921
 1305W        W66466  10.046   4.713  12.128
 1306W        W66467   2.798  38.742   1.243
 1307W        W66468  18.569  13.558   0.519
 1308W        W66469  29.600  35.572  12.915
 1309W        W66470  40.588  10.442   5.057
 1310W        W66471  44.865  43.303   2.224
 1311W        W66472  13.153  15.652   2.735
 1312W        W66473  24.033  24.783  10.434
 1313W        W66474  28.528  13.116   2.270
 1314W        W66475   5.638  33.761  11.236
 1315W        W66476  42.992   9.188   2.256
 1316W        W66477  40.359  31.942  13.428
 1317W        W66478  36.124   2.097  11.648
 1318W        W66479  21.094  33.112   3.233
 1319W        W66480  43.010  26.875  14.945
 1320W        W66481  17.082   6.700   2.160
 1321W        W66482  21.611  29.454   0.433
 1322W        W66483  28.590   5.483  13.428
 1323W        W66484  24.270   0.292   4.192
 1324W        W66485  27.276  32.700   2.747
 1325W        W66486  13.266  21.096  12.844
 1326W        W66487  35.811  44.482   4.506
 1327W        W66488  28.180  41.293   2.234
 1328W        W66489  32.167  39.146   1.717
 1329W        W66490   0.374  33.430   2.777
 1330W        W66491  20.782   0.840  12.330
 1331W        W66492  10.894  44.857   2.230
 1332W        W66493  43.379  24.730  11.726
 1333W        W66494  17.340  20.999  11.622
 1334W        W66495  29.389  41.131  10.597
 1335W        W66496  19.058   4.705   2.348
 1336W        W66497   2.590  26.471   0.850
 1337W        W66498  19.607  37.438  11.142
 1338W        W66499  18.636  13.348   5.028
 1339W        W66500   0.423  35.103   2.365
 1340W        W66501  43.455  26.617  10.475
 1341W        W66502  11.310  34.776   0.915
 1342W        W66503  32.271   2.230  10.995
 1343W        W66504   6.280  40.424  12.023
 1344W        W66505  22.623   9.415  14.787
 1345W        W66506  18.080  42.608  12.825
 1346W        W66507  38.905  19.677  12.089
 1347W        W66508  24.461  15.443  13.952
 1348W        W66509   4.358   5.011   0.858
 1349W        W66510  16.255  16.008  11.186
 1350W        W66511  15.685  28.212  11.460
 1351W        W66512   7.867   3.457  13.504
 1352W        W66513  32.092  28.345  14.015
 1353W        W66514  39.964  38.038   0.468
 1354W        W66515   5.686   7.478   1.080
 1355W        W66516  34.356   5.325  13.410
 1356W        W66517  27.098   0.267  13.783
 1357W        W66518   6.657  30.672  12.531
 1358W        W66519  11.835  39.054  14.237
 1359W        W66520  41.786  31.205   4.073
 1360W        W66521  24.095  20.775   1.859
 1361W        W66522  44.793  34.620   3.446
 1362W        W66523   2.456   1.992   3.057
 1363W        W66524   5.622  20.049  13.532
 1364W        W66525   3.289   7.077   1.141
 1365W        W66526   1.315   4.165  14.078
 1366W        W66527  41.913  33.457  10.814
 1367W        W66528   5.346  25.228   2.570
 1368W        W66529  20.957  41.645  14.769
 1369W        W66530  34.849  11.139   2.653
 1370W        W66531  20.789   9.330  11.899
 1371W        W66532   2.873  20.185  12.047
 1372W        W66533   1.419  34.596  11.626
 1373W        W66534  39.517  28.749   3.772
 1374W        W66535   6.909  18.712   1.111
 1375W        W66536  11.595  13.033   0.453
 1376W        W66537  39.500  19.733  12.870
 1377W        W66538   4.780   0.546   2.390
 1378W        W66539   6.832  23.504  12.381
 1379W        W66540  17.509  40.566  11.982
 1380W        W66541  42.725  30.140  10.569
 1381W        W66542  44.120  31.964  11.570
 1382W        W66543  39.415  13.853   0.267
 1383W        W66544  13.506  43.204  13.929
 1384W        W66545   7.229   8.672   2.769
 1385W        W66546  27.851  26.198   0.909
 1386W        W66547  42.873   5.336  11.504
 1387W        W66548  27.993  31.344   3.182
 1388W        W66549  43.183  23.923  10.726
 1389W        W66550  41.436  27.563  11.548
 1390W        W66551  15.434  34.420   0.887
 1391W        W66552  24.501  30.911   4.574
 1392W        W66553  10.744   9.210  13.027
 1393W        W66554   1.957  35.477  10.549
 1394W        W66555  35.809  30.195   1.725
 1395W        W66556  29.647  20.917  14.534
 1396W        W66557  23.207  16.012  10.224
 1397W        W66558   9.777  35.642   3.145
 1398W        W66559   0.866   7.604  12.635
 1399W        W66560   4.800  39.419  13.509
 1400W        W66561  19.737  20.590   4.687
 1401W        W66562  27.990  10.579  10.712
 1402W        W66563   6.126  42.327  13.041
 1403W        W66564  11.602  39.032   1.268
 1404W        W66565  33.482  10.855   0.169
 1405W        W66566  36.481  38.515  12.448
 1406W        W66567  39.110  10.670   0.852
 1407W        W66568  39.551  38.517   2.866
 1408W        W66569  44.528  14.768  13.944
 1409W        W66570  34.409   9.916   4.152
 1410W        W66571  22.209  29.896  13.436
 1411W        W66572  11.152  20.118   0.808
 1412W        W66573  28.051  43.966  12.989
 1413W        W66574  25.011  41.073   4.453
 1414W        W66575  10.192  36.397   2.520
 1415W        W66576  27.274  32.935  11.980
 1416W        W66577  16.326  44.990  10.720
 1417W        W66578  11.318   1.389   1.291
 1418W        W66579  23.939  30.588   4.432
 1419W        W66580  41.330  21.019   4.691
 1420W        W66581   8.523   1.726   4.654
 1421W        W66582  13.886  40.358  10.326
 1422W        W66583  39.696  28.890   1.552
 1423W        W66584  30.849  39.018  11.097
 1424W        W66585  33.125   1.447  10.735
 1425W        W66586  21.758   3.726   1.651
 1426W        W66587   5.333  41.730   1.302
 1427W        W66588  23.529  15.795  11.078
 1428W        W66589  27.364  30.046   2.742
 1429W        W66590  28.905  36.767  13.253
 1430W        W66591  19.308  10.582  11.156
 1431W        W66592  19.219  39.886   3.377
 1432W        W66593  14.864  22.111  13.923
 1433W        W66594  32.962  28.062   0.514
 1434W        W66595   5.360   2.892  10.630
 1435W        W66596  44.826  14.274   4.161
 1436W        W66597  37.103   3.464  10.542
 1437W        W66598  12.267   8.241  12.457
 1438W        W66599  30.664  21.331   3.178
 1439W        W66600  32.132   8.772  12.157
 1440W        W66601   9.888  37.480   1.706
 1441W        W66602  21.533  30.314  13.827
 1442W        W66603  38.904  19.148   1.833
 1443W        W66604  42.849  10.037   4.014
 1444W        W66605  26.830   0.869   2.774
 1445W        W66606  11.847  16.223  10.347
 1446W        W66607  28.064  10.637  13.965
 1447W        W66608  15.279  31.346  12.478
 1448W        W66609   4.477  32.699  13.392
 1449W        W66610  12.216  19.125   3.692
 1450W        W66611  40.969  27.919   1.442
 1451W        W66612  28.149  35.849  10.004
 1452W        W66613  24.529   2.831   2.888
 1453W        W66614  26.294   9.732   3.136
 1454W        W66615  24.137  31.363  13.578
 1455W        W66616  35.960   6.514   4.494
 1456W        W66617  10.767  20.611  11.924
 1457W        W66618  11.526  14.562   1.777
 1458W        W66619  32.199   1.216   3.290
 1459W        W66620   7.889   9.564   1.251
 1460W        W66621  12.210   8.509  13.584
 1461W        W66622  24.716  14.599   1.868
 1462W        W66623   9.366  33.975  14.433
 1463W        W66624  26.953   4.769   3.261
 1464W        W66625  44.332  39.264   4.614
 1465W        W66626   6.273  17.353  13.567
 1466W        W66627   8.106  43.033   0.359
 1467W        W66628   6.413  34.139  11.581
 1468W        W66629  29.472  22.040  14.216
 1469W        W66630  29.646  35.030   2.690
 1470W        W66631   4.891  11.702  12.748
 1471W        W66632  28.931  30.706   4.115
 1472W        W66633  28.560   5.563  14.907
 1473W        W66634   7.024  13.028  10.787
 1474W        W66635  31.553  41.870  13.506
 1475W        W66636   9.793  13.903   1.723
 1476W        W66637  35.553  29.108  10.936
 1477W        W66638  42.407   4.440  13.369
 1478W        W66639  15.775  39.972   2.457
 1479W        W66640  36.941   2.822  11.912
 1480W        W66641  42.753  35.453   2.624
 1481W        W66642  27.906  26.221  12.520
 1482W        W66643  16.144   8.397  11.928
 1483W        W66644  15.810  28.684   0.360
 1484W        W66645  20.619  31.700  11.429
 1485W        W66646   6.173  33.371   4.111
 1486W        W66647  24.390  14.686  13.258
 1487W        W66648  37.113   9.643   3.299
 1488W        W66649  39.192  36.124   3.123
 1489W        W66650   2.416  42.842  12.497
 1490W        W66651  16.657  43.447   0.946
 1491W        W66652  39.235  44.220  12.905
 1492W        W66653  23.617   7.356  14.229
 1493W        W66654  16.718  38.500   4.486
 1494W        W66655  42.502  17.373   2.880
 1495W        W66656  17.024  32.868  13.495
 1496W        W66657  38.529  20.978   2.262
 1497W        W66658  37.392  23.731  11.888
 1498W        W66659  12.695  18.788   4.653
 1499W        W66660  44.465   0.544  14.237
 1500W        W66661  10.326  30.867  12.371
 1501W        W66662   2.507  26.669  14.574
 1502W        W66663  42.144  42.001   4.324
 1503W        W66664  15.749   4.673  13.782
 1504W        W66665  36.868  19.000   3.933
 1505W        W66666   1.522  42.411   3.216
 1506W        W66667  33.163  16.728  12.442
 1507W        W66668  42.818  43.107  14.029
 1508W        W66669  44.372  26.580   3.768
 1509W        W66670  27.980  38.153   1.749
 1510W        W66671  40.927  26.391  10.726
 1511W        W66672  33.604  33.131   0.434
 1512W        W66673  32.366   8.597  12.583
 1513W        W66674  42.992   5.465   2.370
 1514W        W66675  36.525  31.374  13.092
 1515W        W66676  34.052  39.685   4.539
 1516W        W66677  29.593  15.777   0.431
 1517W        W66678  39.014   4.923   1.689
 1518W        W66679   7.626  11.873   3.594
 1519W        W66680  17.647  36.348   1.316
 1520W        W66681  26.982  26.052   3.311
 1521W        W66682   5.953   2.561  14.487
 1522W        W66683   8.929   0.312  12.548
 1523W        W66684   1.358  35.368   1.919
 1524W        W66685  13.713  38.262   0.278
 1525W        W66686   4.358  44.952   0.849
 1526W        W66687  39.402  30.199  11.941
 1527W        W66688  36.606  27.011   1.348
 1528W        W66689   9.654  37.832   0.374
 1529W        W66690   1.973  44.222  12.520
 1530W        W66691  21.099  44.323  10.828
 1531W        W66692  44.847  16.307   0.027
 1532W        W66693  36.976  15.559  13.807
 1533W        W66694  33.834  28.404   4.214
 1534W        W66695  16.325  16.363   3.120
 1535W        W66696  18.228  29.719   2.004
 1536W        W66697  28.968  19.124   0.441
 1537W        W66698  10.566  34.584   4.699
 1538W        W66699  12.687  34.120  11.866
 1539W        W66700  14.628  26.399  12.521
 1540W        W66701  42.851  33.215   2.155
 1541W        W66702   0.664   3.835  11.916
 1542W        W66703  19.113  28.213   0.391
 1543W        W66704  19.937  21.956   2.370
 1544W        W66705  31.548   0.482   3.375
 1545W        W66706  10.782  15.741   2.127
 1546W        W66707  43.330   7.381  14.025
 1547W        W66708  12.420  21.493   0.408
 1548W        W66709  26.076  34.093   3.330
 1549W        W66710  38.012  30.137   1.593
 1550W        W66711  24.654  15.311  11.420
 1551W        W66712   6.244  10.855  13.624
 1552W        W66713   7.842  25.693   0.500
 1553W        W66714  32.908  16.042   4.619
 1554W        W66715   7.404  22.717  11.512
 1555W        W66716  12.335  32.944   1.679
 1556W        W66717   1.524  23.505  13.604
 1557W        W66718  39.759   2.226   1.259
 1558W        W66719  24.875  43.717  12.527
 1559W        W66720  38.910   3.681  11.137
 1560W        W66721  10.946  21.017   2.855
 1561W        W66722  33.437  11.711  10.848
 1562W        W66723   8.533  43.810  10.255
 1563W        W66724  18.732  20.711   1.479
 1564W        W66725  40.074  23.527  14.894
 1565W        W66726  26.214  43.623   5.182
 1566W        W66727  31.637  29.132   0.375
 1567W        W66728  40.672   0.771   3.677
 1568W        W66729  23.639  21.699   1.322
 1569W        W66730  20.062  40.534  12.612
 1570W        W66731  25.696  41.560   4.192
 1571W        W66732  17.204   8.363  10.561
 1572W        W66733  24.883   6.201   0.001
 1573W        W66734  33.820   4.295   1.221
 1574W        W66735   7.637  23.638  12.031
 1575W        W66736  23.540  28.117   3.081
 1576W        W66737  26.171  32.584  12.847
 1577W        W66738  15.564  34.319  10.729
 1578W        W66739  12.774  18.167   4.383
 1579W        W66740  18.553   7.841  13.136
 1580W        W66741   2.986  36.558  11.010
 1581W        W66742  19.664   8.189   0.162
 1582W        W66743   9.319  31.218  13.648
 1583W        W66744  39.930  10.942  12.581
 1584W        W66745  31.987  20.862  14.246
 1585W        W66746   6.924  34.823   4.518
 1586W        W66747   4.828  39.796  12.860
 1587W        W66748  24.212  13.825  11.194
 1588W        W66749  40.212  19.198   3.354
 1589W        W66750  18.542   6.475   5.017
 1590W        W66751  38.831  29.460  11.627
 1591W        W66752   1.913  30.573  14.606
 1592W        W66753  33.639  14.315   2.381
 1593W        W66754  28.701  22.904   3.188
 1594W        W66755  15.763  21.537   3.887
 1595W        W66756  27.004  26.675  14.408
 1596W        W66757  43.565  39.552   9.168
 1597W        W66758  43.215  15.691  12.895
 1598W        W66759  12.156   4.989  10.325
 1599W        W66760  38.951  21.282   2.252
 1600W        W66761   1.513  15.615  14.442
 1601W        W66762  23.902  39.114   3.672
 1602W        W66763  20.971  17.587   4.051
 1603W        W66764  20.703   7.241   3.169
 1604W        W66765  24.887  35.087   4.476
 1605W        W66766  32.893   1.627  11.181
 1606W        W66767  12.136   1.492  13.945
 1607W        W66768  29.240  44.930  11.588
 1608W        W66769   5.853  30.606  11.090
 1609W        W66770  13.751  42.759   4.240
 1610W        W66771  17.222  21.245   0.811
 1611W        W66772  32.539   2.031   1.511
 1612W        W66773   3.483  41.957  10.764
 1613W        W66774  29.695  25.632   1.383
 1614W        W66775   2.385  30.352  12.511
 1615W        W66776  11.284  21.455  11.896
 1616W        W66777  38.881  28.599  14.955
 1617W        W66778   4.483  19.077  14.312
 1618W        W66779  43.274  21.235   4.611
 1619W        W66780  31.408  20.248  13.659
 1620W        W66781   2.263   4.207  12.069
 1621W        W66782  38.144  23.822  10.760
 1622W        W66783  27.506  35.572  11.621
 1623W        W66784  29.603  39.924  13.851
 1624W        W66785  11.190  17.088  12.973
 1625W        W66786   1.553  10.683  10.616
 1626W        W66787  18.931  42.905   0.798
 1627W        W66788   2.866  32.104   2.230
 1628W        W66789  11.696  22.635  11.005
 1629W        W66790  17.086  29.144   4.380
 1630W        W66791  17.577   7.972  11.664
 1631W        W66792  23.417  36.612   0.213
 1632W        W66793  23.499   7.798  11.075
 1633W        W66794  44.988  18.300   1.448
 1634W        W66795  44.875  32.468   4.491
 1635W        W66796  36.355  34.442   0.686
 1636W        W66797  37.691  29.445  10.755
 1637W        W66798  39.904  12.119   0.404
 1638W        W66799   7.329  43.572  12.168
 1639W        W66800   6.447  25.549   0.720
 1640W        W66801  27.427   7.769   2.463
 1641W        W66802  15.933  26.231  12.401
 1642W        W66803  29.117  18.761   1.924
 1643W        W66804  43.496  12.639  12.143
 1644W        W66805  31.699   3.189  12.706
 1645W        W66806  15.150   7.449  13.475
 1646W        W66807  25.408   2.978   4.335
 1647W        W66808  39.586  11.938   3.564
 1648W        W66809   1.132  35.525   3.810
 1649W        W66810  40.041  20.295   3.292
 1650W        W66811   3.922  35.932   3.205
 1651W        W66812  11.207  29.853  10.697
 1652W        W66813  17.824  18.112   0.219
 1653W        W66814  33.849  12.593   1.350
 1654W        W66815  23.618   9.048  11.997
 1655W        W66816  33.718  37.018   3.253
 1656W        W66817   5.241  29.008   1.213
 1657W        W66818   8.744  17.693   3.000
 1658W        W66819   8.375   5.320   4.674
 1659W        W66820  34.494  43.906  10.996
 1660W        W66821  30.851  17.859   1.338
 1661W        W66822  12.244   6.945  13.094
 1662W        W66823  36.567  13.091  13.775
 1663W        W66824  32.985  36.769   5.181
 1664W        W66825  37.047  33.883   2.810
 1665W        W66826   9.721  14.649   4.169
 1666W        W66827  14.658  28.433  14.548
 1667W        W66828  27.000  28.139  14.726
 1668W        W66829  25.490  32.323  11.656
 1669W        W66830   9.454  14.954  14.046
 1670W        W66831  31.166  14.888   0.216
 1671W        W66832   4.466  22.084  11.439
 1672W        W66833  42.730  24.991  13.850
 1673W        W66834  25.600  40.047  12.072
 1674W        W66835   2.775  43.640   1.230
 1675W        W66836  15.519  19.271  11.681
 1676W        W66837   6.992  22.210  12.947
 1677W        W66838  28.150  19.343   1.287
 1678W        W66839  32.045   9.667   4.264
 1679W        W66840   2.248   9.528   0.687
 1680W        W66841  14.382  26.941  11.621
 1681W        W66842   4.089  10.437  10.925
 1682W        W66843  17.471  41.552  13.865
 1683W        W66844   5.854  10.128   1.879
 1684W        W66845   4.466  18.686   5.016
 1685W        W66846  43.772   1.136   0.808
 1686W        W66847  23.200  43.427   1.864
 1687W        W66848   6.822   5.011  11.138
 1688W        W66849  11.054  20.597  14.876
 1689W        W66850  38.592  32.386   0.783
 1690W        W66851   9.439  19.212  13.751
 1691W        W66852  11.265  24.668  13.914
 1692W        W66853  18.196   4.856   3.714
 1693W        W66854  39.273  36.510  13.411
 1694W        W66855   6.467  23.201  11.528
 1695W        W66856   5.372   9.343  12.414
 1696W        W66857  27.799  29.039  12.486
 1697W        W66858  10.812  22.253   0.254
 1698W        W66859  35.416  17.165   1.459
 1699W        W66860   2.872  31.623   0.494
 1700W        W66861  40.574  21.204  13.913
 1701W        W66862  39.785  44.585  14.794
 1702W        W66863   4.287  39.365  14.999
 1703W        W66864  11.716  27.484  13.845
 1704W        W66865   8.234   1.899   1.665
 1705W        W66866  11.461  26.124   1.740
 1706W        W66867  33.843  17.320   0.530
 1707W        W66868   5.402  21.654  11.709
 1708W        W66869  40.544  13.054   0.665
 1709W        W66870  34.011  42.679  10.840
 1710W        W66871  44.167   4.771  14.471
 1711W        W66872  32.399  16.186   1.250
 1712W        W66873   2.358  15.200  11.982
 1713W        W66874   2.979  26.654   1.160
 1714W        W66875  10.448  38.367  14.352
 1715W        W66876  40.030  18.581  12.588
 1716W        W66877  40.113   7.939   3.321
 1717W        W66878  23.743  10.454   4.952
 1718W        W66879  10.258  14.615   4.368
 1719W        W66880   0.909  37.902  12.835
 1720W        W66881  10.319  12.418  11.949
 1721W        W66882   6.237   0.432   3.409
 1722W        W66883  20.288   3.594  14.420
 1723W        W66884   3.008  14.551   0.777
 1724W        W66885  29.601   0.505  13.046
 1725W        W66886  32.489  35.777  13.656
 1726W        W66887   4.768  18.991   4.168
 1727W        W66888   0.204  34.572  13.528
 1728W        W66889   0.086  15.287  14.401
 1729W        W66890  32.566  14.448  14.461
 1730W        W66891   2.313  16.547  14.250
 1731W        W66892   9.224  33.467  11.721
 1732W        W66893   6.366  37.393  11.145
 1733W        W66894  26.921  21.580   1.444
 1734W        W66895  26.391  20.214  13.449
 1735W        W66896  25.628  32.945   1.415
 1736W        W66897  24.388   3.631   4.626
 1737W        W66898   3.670  19.109  14.126
 1738W        W66899  37.571  31.896  10.672
 1739W        W66900   3.219  13.572  11.639
 1740W        W66901  11.363   6.826  14.835
 1741W        W66902  27.172   5.231  11.021
 1742W        W66903  43.930  39.461   4.170
 1743W        W66904   3.887  37.400  13.475
 1744W        W66905  39.901  43.077   2.256
 1745W        W66906  40.722  36.821  14.382
 1746W        W66907   8.633  41.864   1.165
 1747W        W66908  37.934  18.021  11.160
 1748W        W66909   0.003  21.478   4.120
 1749W        W66910  34.500   9.818   0.244
 1750W        W66911  39.325  41.782   0.980
 1751W        W66912   5.255  43.096  12.532
 1752W        W66913  13.514  43.513   4.502
 1753W        W66914  36.142  23.980   4.174
 1754W        W66915  23.360  44.990  13.395
 1755W        W66916  36.586  14.989   4.105
 1756W        W66917  17.053  22.224   2.321
 1757W        W66918  15.234  38.327   1.620
 1758W        W66919  30.739  16.712  14.460
 1759W        W66920   5.312   9.881  10.554
 1760W        W66921   5.484  31.780  10.600
 1761W        W66922  10.610  31.419  13.593
 1762W        W66923  33.095  26.362   2.649
 1763W        W66924  24.062  10.455   4.480
 1764W        W66925  10.862  24.451  13.062
 1765W        W66926  22.517  19.298   1.529
 1766W        W66927  36.841  21.678  14.527
 1767W        W66928  22.150  16.670  12.968
 1768W        W66929  42.920  21.282  12.398
 1769W        W66930  33.863   0.176   2.856
 1770W        W66931   3.728  41.391  13.418
 1771W        W66932  42.527   1.698   4.010
 1772W        W66933  20.588  39.713   3.992
 1773W        W66934  26.003  23.779   4.089
 1774W        W66935  35.483   9.845  13.425
 1775W        W66936  44.980  32.228  10.180
 1776W        W66937   0.243  28.385  11.923
 1777W        W66938  20.115  28.380   4.160
 1778W        W66939  17.347   0.078  10.599
 1779W        W66940  37.559  35.949  10.548
 1780W        W66941   8.269  28.318  12.863
 1781W        W66942  27.562  31.610   3.327
 1782W        W66943  17.946   2.132  11.055
 1783W        W66944   2.404   6.330   4.106
 1784W        W66945  44.459  33.322   3.609
 1785W        W66946   2.418  38.989   3.560
 1786W        W66947  16.130  26.007  12.831
 1787W        W66948  34.249  10.649   3.195
 1788W        W66949  32.497  26.759   2.202
 1789W        W66950  14.379  27.740  11.155
 1790W        W66951  17.787  33.334  12.985
 1791W        W66952   5.689  41.459   0.891
 1792W        W66953  20.456  26.018  11.188
 1793W        W66954  18.102  18.161  11.569
 1794W        W66955  34.965  31.855   5.203
 1795W        W66956  37.841  20.681   1.353
 1796W        W66957  38.067  41.890  11.364
 1797W        W66958  28.094  23.254  10.689
 1798W        W66959   9.900  33.913  10.731
 1799W        W66960  28.212  40.935   1.852
 1800W        W66961  20.490  36.535  13.342
 1801W        W66962  40.952  36.392  14.202
 1802W        W66963   5.795  28.361   5.562
 1803W        W66964  37.536  13.091  11.454
 1804W        W66965  24.166   5.987   0.975
 1805W        W66966   2.504  34.456   1.966
 1806W        W66967  29.343  44.430  11.534
 1807W        W66968  39.924  28.673  13.499
 1808W        W66969  22.169  29.048  13.952
 1809W        W66970   5.419  39.609  14.380
 1810W        W66971  15.050  14.169  11.890
 1811W        W66972  13.635  16.228   0.648
 1812W        W66973  29.274  33.508  13.576
 1813W        W66974  32.401   5.364   0.995
 1814W        W66975  30.055  32.456  12.638
 1815W        W66976   6.988   4.468  14.897
 1816W        W66977   8.832   2.249   1.715
 1817W        W66978   0.277  32.502  11.948
 1818W        W66979  24.003  30.333   2.627
 1819W        W66980  15.575  42.922   2.360
 1820W        W66981  37.943  35.686  14.477
 1821W        W66982  20.783  14.057   2.430
 1822W        W66983  31.103   4.654   3.188
 1823W        W66984   0.145   6.794  13.717
 1824W        W66985  40.313  25.270  11.975
 1825W        W66986   6.796  11.965   1.394
 1826W        W66987  12.277   6.153  11.537
 1827W        W66988   8.237  36.983  10.835
 1828W        W66989   2.291  17.216  10.120
 1829W        W66990  20.093  29.696  13.100
 1830W        W66991  34.746  15.254  10.802
 1831W        W66992  37.639  35.632  13.836
 1832W        W66993  42.760  33.856   1.582
 1833W        W66994  17.546  31.982   2.703
 1834W        W66995   4.475  31.632   0.874
 1835W        W66996  44.454  13.838  11.587
 1836W        W66997  18.611  14.271  10.740
 1837W        W66998  11.761  13.826  12.854
 1838W        W66999  25.984   5.308   3.625
 1839W        W67000  20.041  11.385   3.393
 1840W        W67001   4.299  29.893  14.480
 1841W        W67002  41.264  24.192  13.166
 1842W        W67003  38.944  40.641   4.471
 1843W        W67004  33.852  40.835  14.204
 1844W        W67005  27.142  19.178   2.196
 1845W        W67006   6.847  35.759   3.715
 1846W        W67007  26.902  22.049   4.288
 1847W        W67008  12.605  23.194   3.603
 1848W        W67009  30.431  39.028   3.675
 1849W        W67010  25.613  34.307   2.253
 1850W        W67011   8.806   0.027   2.851
 1851W        W67012  26.572  44.389  14.874
 1852W        W67013  35.111   7.211   4.632
 1853W        W67014  32.494  18.785  11.997
 1854W        W67015  32.758  40.970   0.818
 1855W        W67016   6.239  17.583  10.418
 1856W        W67017  28.195  12.298  13.373
 1857W        W67018  30.996   3.390  10.774
 1858W        W67019   9.983  20.316  13.941
 1859W        W67020  23.205   2.622   4.644
 1860W        W67021  12.135  26.691  10.587
 1861W        W67022   8.871   1.413  10.883
 1862W        W67023  15.291  28.676   1.031
 1863W        W67024  24.033  38.874  13.819
 1864W        W67025   2.000  28.741  14.222
 1865W        W67026  28.897  13.764   0.881
 1866W        W67027  17.582  38.909   4.644
 1867W        W67028  30.580  28.511   2.334
 1868W        W67029   7.680  24.577  14.294
 1869W        W67030   5.118  22.136  12.084
 1870W        W67031  30.802  43.196   2.215
 1871W        W67032   3.001  19.992   3.298
 1872W        W67033   5.342   1.758   2.366
 1873W        W67034  38.631  28.871  14.590
 1874W        W67035  13.615  32.565   5.012
 1875W        W67036  43.177  19.764  13.381
 1876W        W67037   5.884  42.565   1.523
 1877W        W67038  34.445  42.459  14.651
 1878W        W67039  41.349  43.965   1.722
 1879W        W67040  33.989  36.748   4.999
 1880W        W67041  10.883  21.041  11.668
 1881W        W67042  16.825  12.747  13.474
 1882W        W67043  24.802  40.511   2.784
 1883W        W67044   6.550   4.807  10.690
 1884W        W67045   1.470  21.733  13.955
 1885W        W67046  39.961   3.286   3.146
 1886W        W67047   1.395  16.647  13.010
 1887W        W67048  13.726  20.900   3.683
 1888W        W67049  12.812  33.240  11.062
 1889W        W67050  31.314  34.873  12.572
 1890W        W67051  35.443  37.975  11.940
 1891W        W67052  25.665  26.900  13.004
 1892W        W67053  22.836  15.409   4.554
 1893W        W67054  11.241  15.046  14.278
 1894W        W67055  14.592   4.615   1.433
 1895W        W67056  14.087   8.723  14.415
 1896W        W67057  33.397  17.255   0.253
 1897W        W67058  34.542   8.956  11.922
 1898W        W67059  18.774  14.811  11.623
 1899W        W67060  20.295   8.739  14.749
 1900W        W67061  26.378  15.194  10.758
 1901W        W67062  31.559  12.224  12.829
 1902W        W67063  28.542   6.321   2.853
 1903W        W67064  34.275  24.636   4.107
 1904W        W67065   8.239   0.187  11.459
 1905W        W67066  15.709  34.219   3.765
 1906W        W67067  26.077   9.036   5.036
 1907W        W67068  12.940  18.659   1.033
 1908W        W67069  27.613  21.762   1.879
 1909W        W67070  16.144   5.847  10.884
 1910W        W67071   8.629  33.991   4.948
 1911W        W67072  28.736  37.602   2.223
 1912W        W67073  35.527  35.277   3.081
 1913W        W67074  32.090  35.464  12.587
 1914W        W67075   9.983  32.453   2.572
 1915W        W67076  23.513  10.787   9.978
 1916W        W67077  29.431   8.648  10.547
 1917W        W67078  36.937   8.174  12.528
 1918W        W67079  38.147  11.603   1.389
 1919W        W67080  14.712   7.643  13.781
 1920W        W67081  18.808  32.503   1.369
 1921W        W67082   9.768   6.264  14.917
 1922W        W67083  43.289  30.462   0.705
 1923W        W67084  17.107  36.741  14.212
 1924W        W67085  24.509  12.514  12.470
 1925W        W67086   0.064  30.111   1.963
 1926W        W67087  35.346  22.499  14.667
 1927W        W67088  40.328  22.225  12.052
 1928W        W67089  44.162  22.897   0.401
 1929W        W67090  12.830   9.663   4.158
 1930W        W67091  35.306  11.907  13.528
 1931W        W67092   5.158  31.667  12.023
 1932W        W67093   0.562  30.153   2.873
 1933W        W67094  24.184   9.610   2.397
 1934W        W67095  10.134  28.738   1.883
 1935W        W67096  12.441  25.641   4.518
 1936W        W67097  15.213  26.555   2.159
 1937W        W67098  30.331  19.654   3.877
 1938W        W67099  34.912   2.314  13.190
 1939W        W67100  33.904   0.919  14.292
 1940W        W67101  31.265  30.543  13.111
 1941W        W67102  13.335  25.045  12.632
 1942W        W67103  18.446  22.304  14.849
 1943W        W67104  39.074  19.506  13.114
 1944W        W67105   2.910  41.902   2.794
 1945W        W67106  21.118  40.781  10.436
 1946W        W67107  20.272  19.707   3.715
 1947W        W67108  15.061  34.132   3.247
 1948W        W67109  37.600  31.957  13.969
 1949W        W67110   1.962  20.543   1.335
 1950W        W67111  43.368  23.610   0.947
 1951W        W67112   2.073  37.763   3.235
 1952W        W67113  11.785  22.096  11.286
 1953W        W67114  18.518  15.428   2.654
 1954W        W67115  22.683   5.866  10.130
 1955W        W67116  26.304  39.536   0.970
 1956W        W67117  44.845  24.282   3.538
 1957W        W67118  41.335  29.471   4.882
 1958W        W67119   4.538  23.203  14.780
 1959W        W67120  43.054  29.384  14.752
 1960W        W67121   8.361  27.423  11.982
 1961W        W67122  15.757  13.711  11.925
 1962W        W67123   3.020  29.594  12.876
 1963W        W67124  18.596  24.671   0.375
 1964W        W67125  17.240  12.063  14.265
 1965W        W67126  43.506  35.058  14.816
 1966W        W67127   4.311   7.646   4.611
 1967W        W67128  21.511  43.748  13.018
 1968W        W67129   9.763  30.162   3.602
 1969W        W67130  39.834  40.925   1.942
 1970W        W67131  34.957   0.639   2.713
 1971W        W67132  22.416  16.206  13.068
 1972W        W67133  31.079  17.380   9.530
 1973W        W67134  27.895  44.826  14.618
 1974W        W67135  40.703  32.920   0.080
 1975W        W67136  10.754  41.121  14.330
 1976W        W67137  22.851  24.714   1.107
 1977W        W67138  41.711  27.445  12.137
 1978W        W67139  34.576  34.804  12.769
 1979W        W67140  43.035  14.823  14.139
 1980W        W67141  26.270  13.884  11.160
 1981W        W67142  41.041  29.121  11.132
 1982W        W67143  32.772  42.021  12.914
 1983W        W67144  32.061   8.402  13.064
 1984W        W67145   8.016   6.003  14.066
 1985W        W67146  30.600  29.541  12.478
 1986W        W67147   4.682  25.036   3.954
 1987W        W67148  38.411   8.630   1.584
 1988W        W67149   8.282  33.137   4.273
 1989W        W67150  27.661  38.999  13.199
 1990W        W67151  18.567  13.393   2.804
 1991W        W67152  42.792  28.120   4.521
 1992W        W67153  34.113  12.535  14.866
 1993W        W67154  26.106  18.369   0.407
 1994W        W67155  20.263   0.705  14.346
 1995W        W67156  10.259  44.928  12.966
 1996W        W67157  44.085  20.554   3.556
 1997W        W67158  36.328  43.831  11.906
 1998W        W67159  40.423  28.373   3.902
 1999W        W67160  18.837  32.383   2.864
 2000W        W67161   8.422  18.304   0.761
 2001W        W67162   8.894  20.753  12.809
 2002W        W67163   1.668  22.498  14.341
 2003W        W67164  12.315  44.877   3.217
 2004W        W67165   2.475  44.241  12.370
 2005W        W67166  44.785  36.571  12.706
 2006W        W67167   6.207  38.286   4.632
 2007W        W67168   5.298  41.155   0.981
 2008W        W67169  13.609  38.779   0.350
 2009W        W67170  19.423   1.118  11.995
 2010W        W67171  15.176  21.501   1.919
 2011W        W67172  37.987  24.793  14.882
 2012W        W67173   4.437  42.778  12.532
 2013W        W67174  26.494  32.886  14.421
 2014W        W67175  34.902  20.133  11.435
 2015W        W67176   3.646  18.015   4.088
 2016W        W67177  30.910  17.879  12.600
 2017W        W67178  42.624   8.191   0.699
 2018W        W67179   0.155  40.765   0.038
 2019W        W67180   7.541  12.534   4.264
 2020W        W67181   4.065  38.418  10.849
 2021W        W67182  37.980  36.726  12.055
 2022W        W67183  32.119  25.552   1.343
 2023W        W67184  34.861   1.649   3.076
 2024W        W67185  38.348  27.458   0.382
 2025W        W67186   3.299  36.331   2.166
 2026W        W67187   5.801  18.028   4.534
 2027W        W67188  28.455   5.591  11.428
 2028W        W67189  23.990  23.456  11.937
 2029W        W67190  34.953  18.084  12.602
 2030W        W67191  33.793  28.744  11.145
 2031W        W67192  34.302   6.900   3.032
 2032W        W67193  16.715  23.866   3.865
 2033W        W67194  42.748  26.744  12.905
 2034W        W67195  36.437  32.823   1.297
 2035W        W67196  27.580   3.327  14.111
 2036W        W67197  40.929  39.097   1.076
 2037W        W67198   8.212   1.690   5.080
 2038W        W67199  10.372   7.371   2.397
 2039W        W67200  35.878  26.031   2.464
 2040W        W67201  16.117  16.002   0.514
 2041W        W67202  22.905  16.067  13.006
 2042W        W67203   8.104  36.496   1.653
 2043W        W67204  14.193  31.212  13.429
 2044W        W67205  42.455  30.378   2.171
 2045W        W67206  34.623  28.180   1.613
 2046W        W67207   2.160  18.054   9.896
 2047W        W67208  20.294   8.412   0.424
 2048W        W67209   2.569  36.838   5.104
 2049W        W67210  22.532  14.548  10.637
 2050W        W67211   4.593  36.491   4.172
 2051W        W67212  12.281   9.326   3.402
 2052W        W67213   0.021  43.896  11.922
 2053W        W67214  25.591  35.126   1.419
 2054W        W67215  17.159  43.346  10.425
 2055W        W67216  30.860  39.712  12.929
 2056W        W67217   0.322  24.572  11.202
 2057W        W67218  24.976  17.783  13.953
 2058W        W67219  17.197  16.143   0.777
 2059W        W67220  17.646  15.497   3.727
 2060W        W67221  19.676  33.764   4.704
 2061W        W67222  12.017   7.522   4.069
 2062W        W67223  42.451  31.381   4.654
 2063W        W67224  10.844  35.993  11.379
 2064W        W67225  22.783   8.672  11.807
 2065W        W67226  15.102  18.465  13.893
 2066W        W67227  34.271   9.667   3.724
 2067W        W67228  44.395   9.370  11.025
 2068W        W67229  26.197  23.558   3.637
 2069W        W67230  19.488  37.957  13.879
 2070W        W67231  39.865  27.949   0.591
 2071W        W67232  19.301   4.780   1.810
 2072W        W67233  38.419  24.741   1.232
 2073W        W67234  42.928  44.135  12.911
 2074W        W67235  38.485   9.790  10.473
 2075W        W67236   6.916  22.991  12.378
 2076W        W67237  17.149  11.745   0.712
 2077W        W67238  26.951   0.916  10.904
 2078W        W67239  28.170  36.822  12.503
 2079W        W67240   7.662  32.047   0.446
 2080W        W67241  20.147  32.654  13.561
 2081W        W67242  27.702  34.374   4.164
 2082W        W67243  39.117  34.271  10.656
 2083W        W67244   7.333  32.213  12.222
 2084W        W67245  28.358  24.236   3.965
 2085W        W67246  29.098  10.663   1.790
 2086W        W67247   1.944   4.415   1.312
 2087W        W67248  34.167  23.460  12.027
 2088W        W67249   5.411   2.629   1.315
 2089W        W67250   1.817  37.141   0.393
 2090W        W67251  19.960  20.094   1.335
 2091W        W67252  20.177  27.129  13.841
 2092W        W67253  12.835  17.630  10.609
 2093W        W67254  40.832  37.495  13.548
 2094W        W67255  16.809  33.692   2.673
 2095W        W67256  12.140  31.140  13.437
 2096W        W67257   3.868  40.418  13.929
 2097W        W67258  43.771  28.154   1.713
 2098W        W67259  16.111   3.907  12.969
 2099W        W67260  11.828  16.615   3.285
 2100W        W67261  42.211  42.839  13.528
 2101W        W67262  16.086  20.583  13.958
 2102W        W67263  18.520   8.922  13.349
 2103W        W67264  10.662   4.227  12.560
 2104W        W67265  37.242   3.843  14.053
 2105W        W67266  32.498  31.411   3.674
 2106W        W67267  38.429  11.759  14.579
 2107W        W67268  23.009  36.160   3.668
 2108W        W67269  23.641   7.802  13.469
 2109W        W67270  35.413  12.106  14.912
 2110W        W67271   9.178  43.045   1.309
 2111W        W67272   6.764  31.705   2.393
 2112W        W67273  40.425  12.267  14.474
 2113W        W67274   7.372  33.640   4.900
 2114W        W67275   5.963   0.587   4.528
 2115W        W67276  15.886  20.635   2.316
 2116W        W67277  13.762  44.801   4.176
 2117W        W67278  22.764  37.462  14.929
 2118W        W67279   5.065  40.436  11.105
 2119W        W67280  39.827  12.809  12.870
 2120W        W67281   6.717  24.708   2.193
 2121W        W67282  32.337  44.177  10.135
 2122W        W67283   3.843  16.875  13.733
 2123W        W67284   4.778  36.518  14.492
 2124W        W67285   7.823   5.789   3.006
 2125W        W67286  34.765  16.939  10.196
 2126W        W67287   4.456  32.069   2.228
 2127W        W67288  16.492  32.641  10.745
 2128W        W67289  17.063  29.974   4.113
 2129W        W67290  24.306   9.843   0.507
 2130W        W67291  43.268  18.729  12.590
 2131W        W67292  33.538   9.246   4.319
 2132W        W67293   6.820   4.508  11.230
 2133W        W67294   2.824  23.229  13.109
 2134W        W67295  40.102  37.770  14.331
 2135W        W67296  30.657  35.067   2.796
 2136W        W67297   1.810  28.449   0.157
 2137W        W67298  32.231  20.201   3.869
 2138W        W67299  33.024   3.865   3.828
 2139W        W67300  24.979  22.257  12.145
 2140W        W67301  22.575  40.052  13.919
 2141W        W67302  27.960  20.766   0.303
 2142W        W67303  21.750   4.782   1.496
 2143W        W67304  39.007  22.826   2.242
 2144W        W67305  10.404   7.194   0.499
 2145W        W67306   0.704  41.289   4.500
 2146W        W67307  38.811   9.350  13.342
 2147W        W67308  30.412   6.796  13.176
 2148W        W67309  27.001  11.668   2.689
 2149W        W67310  16.125   2.029  11.137
 2150W        W67311  31.412  28.994   0.829
 2151W        W67312  24.413  23.151  11.931
 2152W        W67313  15.977   3.863  14.342
 2153W        W67314  16.339  27.138  14.208
 2154W        W67315   5.127  12.736  10.401
 2155W        W67316  29.023  32.173   0.427
 2156W        W67317  43.937  19.018   4.221
 2157W        W67318  41.810  21.640   1.481
 2158W        W67319  43.198  36.333   1.254
 2159W        W67320  13.308  10.197  11.252
 2160W        W67321  11.122   3.493  14.959
 2161W        W67322  22.037  30.452  11.350
 2162W        W67323  43.580  38.268  11.963
 2163W        W67324  21.205  37.422  13.171
 2164W        W67325   2.423   5.828   3.936
 2165W        W67326  34.373   6.224  13.446
 2166W        W67327  33.724  18.126   1.433
 2167W        W67328  32.934  35.968  12.751
 2168W        W67329  19.627  26.928  11.112
 2169W        W67330  33.704  19.484  13.442
 2170W        W67331  42.990  37.604   3.402
 2171W        W67332  33.040   3.527  12.011
 2172W        W67333  41.441  11.104  11.167
 2173W        W67334   0.551  17.080  11.510
 2174W        W67335   6.243  36.275   4.566
 2175W        W67336  31.968  27.057  12.159
 2176W        W67337  26.130  28.193  13.351
 2177W        W67338  32.469   9.371  14.387
 2178W        W67339  12.153  17.536  13.085
 2179W        W67340  35.855  34.168  11.681
 2180W        W67341  33.343  44.946  14.885
 2181W        W67342   3.464  13.373   2.685
 2182W        W67343  37.768  44.376   1.277
 2183W        W67344  19.709  40.634  10.079
 2184W        W67345  24.165  32.880   1.943
 2185W        W67346   1.440  41.878  14.839
 2186W        W67347  15.169  15.759   4.320
 2187W        W67348  22.032  38.370   4.552
 2188W        W67349  19.521  33.351  11.307
 2189W        W67350   2.419   0.553   0.031
 2190W        W67351   0.093  33.094  10.224
 2191W        W67352  38.255  36.660  13.431
 2192W        W67353   6.247  11.939   4.562
 2193W        W67354  42.097  41.964  13.852
 2194W        W67355  20.675   5.005  12.520
 2195W        W67356   4.504  23.430   2.250
 2196W        W67357   3.025  35.209  13.028
 2197W        W67358  28.795  30.583   1.274
 2198W        W67359  18.807  30.401  14.652
 2199W        W67360   1.797  15.353   0.481
 2200W        W67361   4.464  36.619   2.838
 2201W        W67362  33.570  20.075  14.140
 2202W        W67363  32.892  34.505   4.639
 2203W        W67364  32.303  22.008   4.100
 2204W        W67365  10.400  40.134  12.790
 2205W        W67366   8.118   2.877  13.517
 2206W        W67367  24.586   9.248   0.369
 2207W        W67368  20.579  34.883  12.396
 2208W        W67369  21.269   1.994   1.385
 2209W        W67370  10.903  14.093  13.839
 2210W        W67371  35.921  18.792  14.124
 2211W        W67372  36.713  13.986  13.474
 2212W        W67373  16.616  21.171  13.503
 2213W        W67374  40.058  23.760   1.518
 2214W        W67375  25.373  37.788   5.473
 2215W        W67376  13.642  38.942   4.662
 2216W        W67377  10.724  21.659  13.963
 2217W        W67378  42.903  30.388  14.871
 2218W        W67379   5.857  21.180  11.147
 2219W        W67380  31.701  12.162   3.327
 2220W        W67381   2.277  10.100  14.266
 2221W        W67382  19.303  15.641  14.032
 2222W        W67383  10.611  35.174  12.577
 2223W        W67384  44.756   7.764   4.868
 2224W        W67385  12.784  42.172   0.696
 2225W        W67386  13.584  12.907   2.281
 2226W        W67387   1.606  13.282   0.846
 2227W        W67388  14.846   2.982   1.178
 2228W        W67389  31.729  35.074   2.786
 2229W        W67390   1.193  32.314  11.094
 2230W        W67391  12.427  43.389  13.774
 2231W        W67392   8.514  12.864   4.148
 2232W        W67393  44.107  30.977   9.922
 2233W        W67394  32.635  28.240   4.188
 2234W        W67395   0.667  37.372  13.683
 2235W        W67396  28.925  20.093   1.258
 2236W        W67397  12.132  18.242   0.334
 2237W        W67398  30.446  42.270   2.883
 2238W        W67399  35.981   6.691   0.080
 2239W        W67400  23.013   0.253  10.712
 2240W        W67401   6.759  27.707   1.266
 2241W        W67402  33.498  18.262  13.735
 2242W        W67403  40.359   5.805  13.518
 2243W        W67404  21.744   7.425   4.115
 2244W        W67405   6.783  39.287  10.518
 2245W        W67406  35.854  21.019  14.062
 2246W        W67407   0.355  10.653   1.828
 2247W        W67408  30.214   2.323   0.898
 2248W        W67409  19.216  13.407   0.446
 2249W        W67410   1.354   1.003   4.505
 2250W        W67411   6.154  29.683  10.270
 2251W        W67412  11.641   0.895   2.838
 2252W        W67413  38.850   6.324   4.303
 2253W        W67414   0.535   1.839   4.201
 2254W        W67415  12.710   2.810   1.847
 2255W        W67416  13.292  30.784   2.772
 2256W        W67417  13.394  43.487  13.122
 2257W        W67418  13.020  14.334  14.835
 2258W        W67419   6.125   1.826   1.907
 2259W        W67420  32.661  31.041  14.206
 2260W        W67421  44.454   7.229   4.042
 2261W        W67422  17.789  32.485  12.769
 2262W        W67423   2.878  32.550  11.588
 2263W        W67424  33.521  24.142  13.456
 2264W        W67425  33.188  17.760  12.853
 2265W        W67426   5.335  16.544  13.396
 2266W        W67427  34.289   9.903  14.280
 2267W        W67428  44.949  11.204  11.100
 2268W        W67429   6.658  11.158  11.401
 2269W        W67430   7.395   1.738  11.214
 2270W        W67431  33.326   7.615  11.510
 2271W        W67432  21.478  28.068  11.593
 2272W        W67433  41.956  21.062   1.498
 2273W        W67434  25.913  27.765   4.115
 2274W        W67435  22.508  44.227  11.586
 2275W        W67436  27.729   6.212  13.012
 2276W        W67437  10.773  12.310  14.035
 2277W        W67438  30.682  20.225   1.628
 2278W        W67439  40.062  21.555   2.741
 2279W        W67440  39.870   1.606  11.367
 2280W        W67441   0.465  18.927  12.286
 2281W        W67442   9.670  11.137   1.875
 2282W        W67443  16.565  20.189  13.966
 2283W        W67444  28.193  10.655  12.447
 2284W        W67445  13.688  34.165   3.201
 2285W        W67446   0.366  26.556   1.272
 2286W        W67447  44.995  28.053  13.482
 2287W        W67448  21.486  38.210  10.174
 2288W        W67449  10.745   4.993  10.958
 2289W        W67450   9.762  28.761   0.255
 2290W        W67451  12.764  17.193  13.890
 2291W        W67452  15.258  16.747   4.317
 2292W        W67453  24.166  18.603  13.392
 2293W        W67454   0.259   6.630   3.160
 2294W        W67455  37.250  11.932   1.424
 2295W        W67456  41.469  27.048  13.092
 2296W        W67457  41.875  41.935   2.284
 2297W        W67458  21.985  13.389   4.007
 2298W        W67459  15.752  25.454  12.756
 2299W        W67460  23.445  30.090  10.681
 2300W        W67461   3.347  11.584  12.157
 2301W        W67462  43.475  21.194   2.413
 2302W        W67463   1.015  16.161   1.208
 2303W        W67464  35.507  25.466  10.375
 2304W        W67465  37.750  44.462   3.879
 2305W        W67466  30.418   0.218   2.867
 2306W        W67467  44.514  42.999  14.006
 2307W        W67468  19.654  22.924   2.220
 2308W        W67469   0.828   3.077   1.060
 2309W        W67470  29.385   4.363   2.116
 2310W        W67471  27.475  20.609   2.426
 2311W        W67472  33.108  38.927  11.807
 2312W        W67473  15.087  42.461   3.506
 2313W        W67474  37.120  18.186   1.126
 2314W        W67475   9.971  18.596   4.052
 2315W        W67476  22.143  11.543  10.115
 2316W        W67477   4.100  10.838  12.582
 2317W        W67478  12.150  12.736  10.571
 2318W        W67479  19.352  14.188  12.065
 2319W        W67480  10.041  42.315  14.574
 2320W        W67481  14.750  16.696   3.372
 2321W        W67482  21.606  31.130  14.967
 2322W        W67483  44.959  10.289   4.520
 2323W        W67484  33.996  28.568   3.729
 2324W        W67485   7.868  22.507  11.472
 2325W        W67486  42.166  18.588   2.476
 2326W        W67487  38.450  22.510  13.734
 2327W        W67488   3.804  38.584   2.235
 2328W        W67489   1.098  11.588  11.550
 2329W        W67490  18.761  26.922  12.059
 2330W        W67491  29.575  33.734  12.307
 2331W        W67492  16.924  31.478  11.986
 2332W        W67493  36.523  11.583   4.362
 2333W        W67494  39.448  15.690   4.730
 2334W        W67495  41.320  15.322   0.436
 2335W        W67496  43.246  35.183   5.594
 2336W        W67497   5.147   8.838   3.554
 2337W        W67498  16.619   2.217  14.946
 2338W        W67499  17.594  36.987   2.266
 2339W        W67500  39.587  38.874   4.605
 2340W        W67501  41.006  34.317  14.312
 2341W        W67502  25.614  21.042  10.698
 2342W        W67503   8.651  37.112   2.267
 2343W        W67504  14.825  28.242   4.014
 2344W        W67505  29.519  32.089   0.388
 2345W        W67506  12.705  17.636   0.193
 2346W        W67507  41.457  36.615   2.491
 2347W        W67508  19.323   0.363   2.721
 2348W        W67509  41.018  24.012   4.224
 2349W        W67510  21.542  38.532  11.422
 2350W        W67511   0.834  10.075  13.653
 2351W        W67512  13.639  34.139   4.124
 2352W        W67513  11.133  15.385   3.308
 2353W        W67514  38.952  37.593  12.521
 2354W        W67515   4.417  15.218   1.598
 2355W        W67516  43.676  25.787  10.773
 2356W        W67517  30.085  25.116   2.262
 2357W        W67518  36.582  22.682   0.264
 2358W        W67519  21.139   4.739  12.508
 2359W        W67520   5.082   2.273   3.305
 2360W        W67521  21.194  30.475   4.175
 2361W        W67522  37.238  43.480  14.310
 2362W        W67523  34.934  13.720   0.994
 2363W        W67524  36.424  31.135  13.543
 2364W        W67525  16.585   3.501   0.804
 2365W        W67526  37.939   1.762  14.009
 2366W        W67527  11.767  20.142   2.116
 2367W        W67528  24.048  13.241   3.696
 2368W        W67529   8.590  28.156   1.303
 2369W        W67530  25.754  40.474   4.573
 2370W        W67531  38.185  14.320  12.469
 2371W        W67532  24.045  16.730   2.401
 2372W        W67533  15.669  36.138   3.980
 2373W        W67534  18.004   2.405  13.607
 2374W        W67535   9.901  38.828   2.411
 2375W        W67536  17.440   9.349   3.645
 2376W        W67537  16.518  40.051   2.773
 2377W        W67538  32.467  14.772  14.999
 2378W        W67539  30.386  44.974  10.348
 2379W        W67540  41.259  37.816   3.806
 2380W        W67541   0.697  26.640   4.195
 2381W        W67542   3.870  25.598   2.993
 2382W        W67543  41.529  41.384  14.435
 2383W        W67544  20.160  35.999  11.484
 2384W        W67545  41.292  21.568   2.234
 2385W        W67546  24.947  32.068  14.021
 2386W        W67547  43.781  31.933   1.204
 2387W        W67548  39.067   2.573   4.619
 2388W        W67549  16.282  10.626   1.748
 2389W        W67550  38.123  18.077  12.968
 2390W        W67551  37.093  19.811  12.499
 2391W        W67552  13.021  42.355   4.507
 2392W        W67553  39.901  40.635   4.341
 2393W        W67554  37.502  21.652  11.151
 2394W        W67555   3.479  21.544  12.985
 2395W        W67556   2.659  32.680   0.444
 2396W        W67557   5.093  44.232   1.371
 2397W        W67558  29.234  12.596  14.423
 2398W        W67559   8.748  39.723  13.263
 2399W        W67560   3.087  40.834  11.100
 2400W        W67561  37.960  36.223  12.158
 2401W        W67562  41.685  32.085   0.228
 2402W        W67563  15.923   0.450  14.824
 2403W        W67564  18.106  21.209   5.049
 2404W        W67565  28.689  12.382   0.422
 2405W        W67566   1.633  19.701  13.869
 2406W        W67567  44.476  37.375   3.140
 2407W        W67568  15.179   4.292  10.571
 2408W        W67569  41.289  35.147   1.345
 2409W        W67570  23.127  25.228   4.637
 2410W        W67571  12.411  26.978  13.851
 2411W        W67572  25.069  23.605  11.575
 2412W        W67573   8.471   7.776   4.537
 2413W        W67574  42.738   3.014  13.876
 2414W        W67575  32.475   7.233   3.151
 2415W        W67576  32.584  28.425   4.698
 2416W        W67577  17.667  12.718  11.997
 2417W        W67578  14.784  31.567  14.809
 2418W        W67579  32.941  34.627   4.125
 2419W        W67580  43.785  34.355   3.375
 2420W        W67581  17.764  17.515   1.083
 2421W        W67582   2.256  29.035   1.250
 2422W        W67583   7.002  34.570  11.583
 2423W        W67584   9.616  21.858  11.555
 2424W        W67585   8.151  23.912   2.759
 2425W        W67586  26.180  16.540  10.362
 2426W        W67587  27.060  29.783  11.993
 2427W        W67588  13.111  12.180  12.210
 2428W        W67589  33.997  24.090  10.170
 2429W        W67590  15.328  12.678   4.684
 2430W        W67591  26.189  44.469  10.748
 2431W        W67592   1.390  16.784   2.268
 2432W        W67593  15.480   8.880   2.161
 2433W        W67594  42.965  11.072   0.084
 2434W        W67595  32.367  11.548   3.152
 2435W        W67596  13.188  40.139   2.479
 2436W        W67597  20.822  32.948  13.958
 2437W        W67598  42.860  11.663  13.810
 2438W        W67599  29.629  27.400   0.697
 2439W        W67600  44.947   2.540  14.829
 2440W        W67601  14.474  31.431  12.946
 2441W        W67602  25.191  21.444   4.445
 2442W        W67603   9.549  24.620   0.913
 2443W        W67604   2.160  30.001   4.611
 2444W        W67605  44.250  20.702   1.873
 2445W        W67606  31.612  21.786  12.413
 2446W        W67607  25.603  20.011   0.831
 2447W        W67608  25.099   4.916   0.758
 2448W        W67609   1.207  38.482   4.037
 2449W        W67610  26.045  29.068  13.485
 2450W        W67611  18.490   9.022   3.443
 2451W        W67612  34.880  44.344  12.503
 2452W        W67613   8.790  20.677  14.354
 2453W        W67614   7.972   8.344   4.422
 2454W        W67615   9.321  41.018  12.437
 2455W        W67616  24.964  36.641  11.403
 2456W        W67617   2.355  11.567  11.121
 2457W        W67618   5.206  32.072   3.722
 2458W        W67619  41.898  33.074   3.933
 2459W        W67620  13.761   6.756  13.185
 2460W        W67621  19.697  42.829  14.339
 2461W        W67622  31.390  20.438  14.502
 2462W        W67623  14.772  38.263  12.052
 2463W        W67624  33.669  26.072   4.981
 2464W        W67625  13.340  15.755  11.454
 2465W        W67626  18.261  26.002   2.772
 2466W        W67627  37.372  19.108   2.791
 2467W        W67628  24.346  35.717   5.452
 2468W        W67629  30.644  27.797  11.168
 2469W        W67630  18.727  15.431   3.169
 2470W        W67631   8.858  39.430   0.498
 2471W        W67632  26.579  29.018   3.379
 2472W        W67633  17.157  13.246   3.634
 2473W        W67634  18.546  33.366   0.521
 2474W        W67635  20.757  11.725   3.329
 2475W        W67636  19.705  12.370  11.985
 2476W        W67637  14.294   8.424   2.180
 2477W        W67638  34.045  27.427  14.305
 2478W        W67639  33.419  24.320  14.329
 2479W        W67640  31.476  41.457   4.088
 2480W        W67641  42.050  14.715  14.491
 2481W        W67642   9.256  17.143   0.870
 2482W        W67643  14.949  24.126  11.011
 2483W        W67644   7.803  13.880   0.812
 2484W        W67645  38.543  23.534  14.793
 2485W        W67646  19.672  18.216  13.834
 2486W        W67647  42.182  15.629   0.366
 2487W        W67648   3.217   7.474  12.170
 2488W        W67649   5.757  15.861  11.728
 2489W        W67650  36.007  43.300   0.762
 2490W        W67651  44.459  29.969   1.464
 2491W        W67652  15.115  35.053  12.570
 2492W        W67653  25.261   2.164   1.371
 2493W        W67654  39.929  10.200  13.928
 2494W        W67655  34.303   4.424  13.379
 2495W        W67656  16.346  27.725  13.002
 2496W        W67657   9.573  10.371  11.774
 2497W        W67658  33.769  13.150  11.471
 2498W        W67659  44.779  37.077  12.559
 2499W        W67660  36.630   9.021  11.993
 2500W        W67661  26.164   9.704  14.433
 2501W        W67662  40.939  22.680  13.728
 2502W        W67663   9.026  26.986   1.104
 2503W        W67664  29.297  34.556   0.469
 2504W        W67665  39.254  33.511   4.858
 2505W        W67666  29.968  27.035   4.942
 2506W        W67667  13.205   4.560  12.226
 2507W        W67668  44.232  22.694  12.622
 2508W        W67669  38.854  42.727  10.685
 2509W        W67670  15.770  34.939   3.140
 2510W        W67671  37.776  10.064   4.716
 2511W        W67672   9.190   6.287   2.638
 2512W        W67673  37.594  40.584  11.179
 2513W        W67674   8.373  28.912  11.180
 2514W        W67675  17.547  38.868   1.000
 2515W        W67676  39.347  36.319   3.586
 2516W        W67677  43.057  38.382  11.985
 2517W        W67678  29.537   5.498  11.526
 2518W        W67679  22.649  10.760  14.995
 2519W        W67680  43.295  36.999  12.620
 2520W        W67681  22.291  26.500  14.455
 2521W        W67682  20.606  29.198   2.941
 2522W        W67683  39.221   4.530  12.831
 2523W        W67684  43.301  17.192   4.439
 2524W        W67685  43.861  34.716  12.613
 2525W        W67686   1.002   2.462  11.795
 2526W        W67687  42.340  36.438   0.943
 2527W        W67688   3.725  29.482  14.074
 2528W        W67689  35.618   0.614  14.473
 2529W        W67690  36.448  40.873  11.686
 2530W        W67691  21.362  33.616   3.706
 2531W        W67692  30.092  24.395  14.462
 2532W        W67693  23.207  41.360  10.690
 2533W        W67694  39.234  19.464   4.305
 2534W        W67695  29.685  15.308   1.427
 2535W        W67696  36.141  24.588  14.556
 2536W        W67697  33.234  41.980   4.621
 2537W        W67698  43.715  14.588   0.939
 2538W        W67699  24.525  15.201   1.779
 2539W        W67700  19.407  13.007   2.303
 2540W        W67701  10.802   4.998  13.200
 2541W        W67702  37.843  18.326  11.596
 2542W        W67703   2.441  30.912   0.224
 2543W        W67704   6.911   7.952  13.111
 2544W        W67705  25.677  18.807   2.706
 2545W        W67706  10.335  14.899   2.317
 2546W        W67707  23.022  16.694  11.606
 2547W        W67708  42.448  40.443   4.480
 2548W        W67709  19.546   5.242   0.944
 2549W        W67710   9.784   2.024   0.183
 2550W        W67711  34.476   1.459   3.362
 2551W        W67712  23.325  28.155  11.951
 2552W        W67713  41.437  43.676   3.232
 2553W        W67714  16.089  14.315   3.701
 2554W        W67715  30.012  43.502   1.632
 2555W        W67716  27.984   0.938   3.548
 2556W        W67717   7.904  18.349   0.960
 2557W        W67718  18.528   8.235   2.766
 2558W        W67719  24.951  29.065   2.884
 2559W        W67720  25.458  26.158  13.213
 2560W        W67721  36.491  15.209  14.315
 2561W        W67722  40.043  26.757  12.720
 2562W        W67723   4.706   1.933   2.938
 2563W        W67724  41.814  26.432   3.851
 2564W        W67725  37.484  19.196  13.028
 2565W        W67726   9.431   0.243   0.790
 2566W        W67727  14.730  14.644  13.922
 2567W        W67728  20.628  30.664   1.281
 2568W        W67729   5.724  20.837  14.089
 2569W        W67730  21.655  17.780   2.338
 2570W        W67731  18.063  23.461  14.786
 2571W        W67732   0.643  38.096   3.205
 2572W        W67733  33.944  31.182  14.378
 2573W        W67734   5.381  17.380  10.287
 2574W        W67735  21.733  31.135   3.535
 2575W        W67736  43.226   4.383   3.260
 2576W        W67737  12.178  40.313  14.733
 2577W        W67738  13.895  10.311  10.684
 2578W        W67739  39.584  26.279   3.225
 2579W        W67740  35.508  32.058   2.936
 2580W        W67741  21.482  33.435  13.018
 2581W        W67742   7.565  29.861   5.208
 2582W        W67743  10.516  23.176  13.152
 2583W        W67744  27.452  26.176  14.367
 2584W        W67745  25.072  14.932  14.500
 2585W        W67746  40.817  42.426   1.812
 2586W        W67747   5.554   2.301  11.289
 2587W        W67748  11.535  35.748  14.085
 2588W        W67749   8.674  25.151   2.248
 2589W        W67750  35.411  26.130  11.953
 2590W        W67751  38.836  26.697  14.888
 2591W        W67752  24.036  40.108   2.392
 2592W        W67753   1.299   5.374   3.663
 2593W        W67754  34.544   0.102   1.719
 2594W        W67755  42.928   4.718   0.844
 2595W        W67756  34.067  37.463  13.124
 2596W        W67757  11.810  36.300   0.081
 2597W        W67758  18.324  40.065   1.292
 2598W        W67759  32.740  13.257   3.228
 2599W        W67760  37.007  16.384   4.027
 2600W        W67761   4.985  14.365  11.624
 2601W        W67762   1.345  26.763   1.668
 2602W        W67763   4.506  34.556  12.712
 2603W        W67764   8.806  41.350  13.924
 2604W        W67765  14.788   2.759  13.467
 2605W        W67766  20.755  23.256  11.117
 2606W        W67767  44.286  17.630   4.137
 2607W        W67768   7.305   5.245   3.357
 2608W        W67769  22.985   4.680  13.282
 2609W        W67770  40.102  12.366  14.983
 2610W        W67771  25.450  43.865   4.935
 2611W        W67772  43.238  29.777   3.283
 2612W        W67773  22.829  13.790  11.496
 2613W        W67774  37.985  35.440   0.459
 2614W        W67775   9.489  13.908  11.161
 2615W        W67776  27.608  23.061   0.754
 2616W        W67777  11.322   1.422  11.584
 2617W        W67778   8.670  10.209   3.322
 2618W        W67779  32.008  42.955  12.920
 2619W        W67780  29.554  19.618   4.971
 2620W        W67781  26.433   3.050   0.371
 2621W        W67782  36.414  42.052  14.420
 2622W        W67783  32.975   2.818   3.950
 2623W        W67784  17.307  23.945   4.669
 2624W        W67785  23.160  38.308   1.122
 2625W        W67786  31.658  17.976   1.002
 2626W        W67787   5.948  17.187  11.426
 2627W        W67788  35.723  12.068   3.232
 2628W        W67789  34.958  25.423   1.483
 2629W        W67790  34.398   9.151  12.569
 2630W        W67791  13.235  14.829  11.127
 2631W        W67792  28.672   4.066  10.865
 2632W        W67793   7.346  28.937   4.012
 2633W        W67794  19.566  19.648  11.200
 2634W        W67795  39.224  10.721   0.015
 2635W        W67796  19.574  43.542   2.243
 2636W        W67797   6.763   8.663   3.020
 2637W        W67798  36.365   2.336  11.246
 2638W        W67799  25.529  12.847  12.537
 2639W        W67800  44.340  16.209   1.779
 2640W        W67801  19.014  21.094  12.536
 2641W        W67802  37.134   7.665  12.183
 2642W        W67803  23.175  23.243   0.757
 2643W        W67804   7.515  41.441  13.964
 2644W        W67805   5.148  16.121   4.041
 2645W        W67806  42.331  35.228   4.570
 2646W        W67807  29.077   4.233   0.742
 2647W        W67808  12.182  31.727  14.445
 2648W        W67809  37.146  33.369   1.472
 2649W        W67810  14.579  34.769   4.393
 2650W        W67811  26.954  16.026   1.709
 2651W        W67812  30.411  10.772  14.723
 2652W        W67813  10.446   7.853   4.270
 2653W        W67814  29.943  42.401   0.812
 2654W        W67815  40.418  16.611   4.870
 2655W        W67816   5.317   7.944   3.197
 2656W        W67817  40.993   0.416  11.820
 2657W        W67818  33.297  26.593  12.340
 2658W        W67819  10.284  17.297  12.909
 2659W        W67820   1.038  34.479   3.610
 2660W        W67821  36.708   1.765   1.169
 2661W        W67822  32.024  24.672   2.785
 2662W        W67823   3.818   7.336  10.649
 2663W        W67824   1.259   0.193  10.423
 2664W        W67825  41.653  25.210   5.109
 2665W        W67826  11.712  40.289   3.969
 2666W        W67827  33.172  44.168  11.230
 2667W        W67828  37.459  42.679   0.851
 2668W        W67829  27.244  32.085  10.548
 2669W        W67830  19.331  32.453   3.605
 2670W        W67831  36.872  36.566  10.718
 2671W        W67832  15.666   1.260  11.422
 2672W        W67833   6.770  15.119   3.104
 2673W        W67834  30.373   7.868  14.886
 2674W        W67835   3.899  16.293  11.587
 2675W        W67836  14.668   5.879   0.978
 2676W        W67837  38.666  24.413  11.670
 2677W        W67838  41.995  37.069   1.708
 2678W        W67839  13.315  42.056   2.439
 2679W        W67840  28.391  21.184   1.928
 2680W        W67841  29.166   3.935  10.640
 2681W        W67842  26.838  24.182   2.614
 2682W        W67843  33.662  27.567   1.459
 2683W        W67844  18.353   5.292  14.959
 2684W        W67845   8.880   8.231   0.353
 2685W        W67846  18.831  17.284  12.798
 2686W        W67847  16.162  31.401   1.910
 2687W        W67848  29.146  26.178  11.919
 2688W        W67849  20.125  28.181  14.730
 2689W        W67850  33.678  21.714   2.483
 2690W        W67851  29.498  41.962   2.974
 2691W        W67852  23.146  37.408  13.896
 2692W        W67853  19.293   3.775   0.437
 2693W        W67854  12.060  15.205   1.386
 2694W        W67855  15.082   4.427  14.907
 2695W        W67856   9.761  26.983   3.333
 2696W        W67857  22.587   0.510  12.402
 2697W        W67858  36.467  13.970  11.137
 2698W        W67859  10.298  13.130  13.422
 2699W        W67860  43.014  38.933  11.217
 2700W        W67861  23.362  18.843   4.024
 2701W        W67862  19.324  30.191  10.986
 2702W        W67863   4.458  23.188   1.776
 2703W        W67864  39.810  37.188   0.429
 2704W        W67865  25.038   6.815   4.630
 2705W        W67866   2.470  40.809  14.274
 2706W        W67867  12.317  22.681   4.881
 2707W        W67868  23.525  37.585   2.881
 2708W        W67869  27.371  18.406  12.070
 2709W        W67870  42.397  44.335   3.468
 2710W        W67871  34.079  36.038   4.597
 2711W        W67872  31.371  13.565  12.528
 2712W        W67873   0.016  36.391  14.436
 2713W        W67874  18.032  40.561  14.114
 2714W        W67875  14.356  12.522  11.740
 2715W        W67876   4.890  33.487   3.700
 2716W        W67877   6.735  25.524  12.315
 2717W        W67878  15.023  12.142  11.182
 2718W        W67879  17.841   9.805  10.651
 2719W        W67880   0.252  10.949   0.829
 2720W        W67881   9.589   8.840   0.372
 2721W        W67882  27.073   4.320  14.928
 2722W        W67883  22.278  22.264   2.755
 2723W        W67884  31.656  31.210  14.373
 2724W        W67885  17.319  18.159  14.015
 2725W        W67886  13.115   7.775  11.601
 2726W        W67887  30.358  38.507  12.981
 2727W        W67888   9.717  22.226   2.410
 2728W        W67889  13.636  24.793   1.659
 2729W        W67890  10.783  13.218  12.525
 2730W        W67891  37.300   9.249   2.238
 2731W        W67892  32.035  38.344  14.471
 2732W        W67893  14.285  33.481   3.098
 2733W        W67894  17.066  14.971  13.344
 2734W        W67895  42.354   9.369  13.336
 2735W        W67896   0.649   9.129  11.595
 2736W        W67897  33.649  31.950  11.124
 2737W        W67898  23.920  10.129   4.107
 2738W        W67899  25.516  37.302   0.929
 2739W        W67900  12.236   2.000   1.884
 2740W        W67901  25.997  39.795   0.419
 2741W        W67902  29.074   2.780  10.644
 2742W        W67903  12.060   8.165   3.627
 2743W        W67904  12.145  11.981   1.223
 2744W        W67905   7.769  22.191  14.023
 2745W        W67906  39.823  43.240   4.575
 2746W        W67907  11.480   9.187  13.340
 2747W        W67908  22.195  30.942   4.919
 2748W        W67909  25.825  39.482   0.774
 2749W        W67910   1.709  11.659  14.950
 2750W        W67911  12.902  28.473   4.514
 2751W        W67912  22.031  12.892   4.176
 2752W        W67913  41.970  22.519   1.346
 2753W        W67914  38.665  12.183  14.845
 2754W        W67915  24.979  18.592   1.218
 2755W        W67916  31.088   4.206   0.910
 2756W        W67917  17.230  22.156   2.814
 2757W        W67918   3.631  15.638   2.259
 2758W        W67919  12.276   1.178   3.703
 2759W        W67920   9.145  38.971   2.691
 2760W        W67921  22.339  34.076  14.969
 2761W        W67922   6.323  33.526   1.376
 2762W        W67923  31.757  30.151   2.094
 2763W        W67924  41.548  23.645  11.925
 2764W        W67925  37.543  37.324   0.131
 2765W        W67926  38.649   8.102   0.987
 2766W        W67927  25.664   3.803  12.894
 2767W        W67928  21.503  38.442   4.607
 2768W        W67929  28.694  43.461   4.168
 2769W        W67930  24.010  26.346  12.036
 2770W        W67931   9.502  27.953  13.682
 2771W        W67932  31.583  40.488  14.232
 2772W        W67933  37.930  35.268  13.595
 2773W        W67934   9.078  31.335  12.443
 2774W        W67935  10.807  27.976   4.043
 2775W        W67936  27.186  28.454  12.947
 2776W        W67937   2.695  26.935   2.464
 2777W        W67938  23.037  32.097   4.348
 2778W        W67939  14.812  11.796   2.103
 2779W        W67940  27.614  20.224  12.224
 2780W        W67941   5.159  22.600  12.672
 2781W        W67942  40.473   3.573   1.414
 2782W        W67943  41.147  25.024  14.961
 2783W        W67944  13.922  10.237  11.691
 2784W        W67945  21.376   0.177  11.207
 2785W        W67946  39.893   8.357   0.475
 2786W        W67947  21.366  25.045  12.136
 2787W        W67948  16.633  20.691   2.798
 2788W        W67949   5.485   6.023  11.604
 2789W        W67950   4.333  24.542   0.425
 2790W        W67951   1.418   1.947   3.570
 2791W        W67952  14.992  37.329   1.685
 2792W        W67953   2.366  31.706   4.733
 2793W        W67954   7.570  23.151   0.384
 2794W        W67955  34.911   7.311   0.467
 2795W        W67956  24.965  23.217   3.640
 2796W        W67957  18.276  18.239  12.988
 2797W        W67958  27.028  16.147  14.916
 2798W        W67959  29.055   8.086  12.060
 2799W        W67960  36.998   5.729  13.856
 2800W        W67961  22.312   2.971  14.868
 2801W        W67962  42.697  27.628   1.166
 2802W        W67963  31.583   8.914   1.342
 2803W        W67964   2.732  14.565  12.488
 2804W        W67965  30.896  19.530  13.894
 2805W        W67966  14.779  25.451   3.202
 2806W        W67967  27.999   7.834   1.132
 2807W        W67968  22.826   3.846  13.997
 2808W        W67969   4.301   4.565   0.607
 2809W        W67970  25.982  27.272   4.115
 2810W        W67971  17.316   2.262  14.232
 2811W        W67972  34.051  10.537  12.489
 2812W        W67973   5.419  43.853   1.222
 2813W        W67974  39.954  37.008  13.156
 2814W        W67975  30.991  34.985   0.424
 2815W        W67976  19.552  29.368   3.742
 2816W        W67977  29.608   7.662   1.221
 2817W        W67978   1.988   8.310   1.240
 2818W        W67979  44.390  35.381  12.032
 2819W        W67980  33.830  37.800   4.132
 2820W        W67981  36.625  10.811   2.916
 2821W        W67982   7.745  28.105  12.232
 2822W        W67983   5.383  18.567   2.715
 2823W        W67984  15.575  18.481   1.254
 2824W        W67985   1.468   2.503   0.944
 2825W        W67986  16.408   6.853   2.938
 2826W        W67987  17.906  19.122   3.616
 2827W        W67988   5.468  27.202  14.257
 2828W        W67989  39.116   9.494   4.246
 2829W        W67990   9.522  17.583   2.649
 2830W        W67991  30.632  10.411   0.675
 2831W        W67992   7.434  10.723  10.631
 2832W        W67993  23.472  17.120  14.529
 2833W        W67994  15.173  31.829  12.611
 2834W        W67995  25.084  23.739  12.396
 2835W        W67996   3.289  22.943  10.963
 2836W        W67997   6.256  36.825  14.025
 2837W        W67998  32.157  41.970   3.593
 2838W        W67999   4.730  22.983   4.025
 2839W        W68000  17.844  30.452   2.346
 2840W        W68001  27.439  41.807  14.087
 2841W        W68002  44.263  43.373   1.230
 2842W        W68003  10.734  20.090   4.606
 2843W        W68004  40.399   2.160   4.759
 2844W        W68005  34.717  15.654  12.997
 2845W        W68006  22.329  26.661   0.796
 2846W        W68007  11.362  25.144  14.741
 2847W        W68008  39.036  28.823  11.105
 2848W        W68009  44.933  12.210   5.436
 2849W        W68010  37.110  24.615  13.568
 2850W        W68011  12.268  32.958   4.516
 2851W        W68012   5.368   3.946  10.618
 2852W        W68013  30.449  30.154   4.248
 2853W        W68014  42.985  37.868   1.479
 2854W        W68015  35.255  30.823   1.158
 2855W        W68016  17.159   3.836   2.164
 2856W        W68017  38.768  27.984   3.057
 2857W        W68018  32.152  30.431  11.658
 2858W        W68019  39.886  14.691  11.132
 2859W        W68020  40.734  23.664   2.850
 2860W        W68021  13.232  24.548   2.365
 2861W        W68022   5.488  32.197  12.111
 2862W        W68023  17.676  26.614  12.560
 2863W        W68024  23.434   4.919  14.040
 2864W        W68025  40.752  37.392   1.695
 2865W        W68026   1.441  23.087   4.495
 2866W        W68027  28.851  24.202   2.192
 2867W        W68028  29.414  10.237   3.637
 2868W        W68029  44.359  13.110  11.964
 2869W        W68030  10.619  37.212   5.046
 2870W        W68031  35.034   6.320   2.888
 2871W        W68032  15.587  20.516   1.345
 2872W        W68033  26.420  19.324   0.886
 2873W        W68034  33.110   8.737  14.618
 2874W        W68035  26.608  14.289  11.085
 2875W        W68036  29.580  14.224  13.628
 2876W        W68037  17.735  17.070  14.890
 2877W        W68038  21.667  21.732   3.383
 2878W        W68039  25.645  10.026   5.709
 2879W        W68040   9.725  19.335   3.628
 2880W        W68041  15.271  17.212   4.583
 2881W        W68042  34.203  16.459  14.505
 2882W        W68043  43.534  26.032  14.168
 2883W        W68044  39.640  38.467  10.594
 2884W        W68045  13.643  29.719   3.285
 2885W        W68046  23.739  15.023   3.269
 2886W        W68047  39.797  30.969  13.840
 2887W        W68048  34.699  33.559   2.413
 2888W        W68049  28.959  25.339   0.289
 2889W        W68050  40.833  27.638   3.735
 2890W        W68051  21.210  29.046   3.189
 2891W        W68052   9.765  37.886  12.395
 2892W        W68053  43.077  22.378   2.736
 2893W        W68054  15.926   3.715  11.400
 2894W        W68055  33.865  41.796   4.131
 2895W        W68056   9.368  23.781  14.411
 2896W        W68057  38.158  23.066  11.158
 2897W        W68058  29.031  12.616  13.479
 2898W        W68059  17.602  33.481   0.886
 2899W        W68060  34.855  19.210   2.241
 2900W        W68061  20.437   8.569  11.192
 2901W        W68062  27.778  39.895   3.174
 2902W        W68063  14.767   2.891  14.761
 2903W        W68064  14.401   1.869  14.388
 2904W        W68065  25.962  15.692   1.642
 2905W        W68066  19.158  21.632   3.373
 2906W        W68067  20.610  30.706  14.519
 2907W        W68068  43.521  28.504  13.145
 2908W        W68069  31.822  32.912   4.293
 2909W        W68070  38.398  37.880   5.209
 2910W        W68071   4.703   0.247   3.894
 2911W        W68072   7.004   8.154  11.104
 2912W        W68073   2.786  19.477  11.931
 2913W        W68074  21.233  16.011   2.161
 2914W        W68075  44.790  19.027   3.291
 2915W        W68076   1.387  30.495   0.818
 2916W        W68077  35.816  44.750  14.352
 2917W        W68078  35.877  15.549  12.509
 2918W        W68079  25.639  11.328   2.669
 2919W        W68080  25.497  13.846   0.410
 2920W        W68081  33.564  44.128   2.582
 2921W        W68082  44.864  19.346   2.407
 2922W        W68083  17.752   9.682   4.137
 2923W        W68084   7.883  12.788  14.365
 2924W        W68085   8.785  38.371   3.099
 2925W        W68086  38.560  39.525  11.566
 2926W        W68087  44.207  21.252  12.043
 2927W        W68088  24.249   7.495   4.621
 2928W        W68089  19.472  21.521  13.720
 2929W        W68090   3.062  43.887   0.835
 2930W        W68091  16.154  29.989  14.573
 2931W        W68092   4.869  20.450   2.344
 2932W        W68093  15.162  16.273  13.531
 2933W        W68094  13.263   6.942   1.708
 2934W        W68095  19.076   8.696  11.440
 2935W        W68096  35.786  22.136  14.231
 2936W        W68097  13.538   7.974  12.113
 2937W        W68098  32.459   5.779   1.300
 2938W        W68099  35.618  41.517  13.979
 2939W        W68100  10.634  31.836   4.095
 2940W        W68101  25.065  41.228   1.385
 2941W        W68102   5.380  35.438  12.905
 2942W        W68103  33.660  25.138   1.491
 2943W        W68104  40.625  14.844   4.192
 2944W        W68105  27.409  36.491   4.125
 2945W        W68106  42.472  29.435   0.695
 2946W        W68107  13.064  13.801  14.933
 2947W        W68108  12.289   2.082  12.078
 2948W        W68109  13.361  37.808  14.841
 2949W        W68110   2.465  10.155   2.803
 2950W        W68111  25.101  30.118   2.183
 2951W        W68112  12.421   7.217  11.584
 2952W        W68113  36.391   1.200  13.912
 2953W        W68114  36.419  28.980   1.904
 2954W        W68115  23.045   8.251  12.983
 2955W        W68116   2.920   9.243   0.020
 2956W        W68117  20.515  42.518  12.389
 2957W        W68118  18.819  35.115   0.780
 2958W        W68119  33.397   3.240   0.313
 2959W        W68120   3.036  42.976  11.580
 2960W        W68121  20.083   4.452  12.690
 2961W        W68122  18.841   9.252   0.943
 2962W        W68123   1.663  27.517  12.673
 2963W        W68124  19.839   6.805   1.903
 2964W        W68125  29.957  11.769   2.250
 2965W        W68126   2.786  25.467   4.554
 2966W        W68127  20.534  31.721  14.403
 2967W        W68128  21.222  15.119   3.101
 2968W        W68129  18.843  17.760  13.335
 2969W        W68130   6.895  21.707   0.452
 2970W        W68131  10.414   4.832   0.820
 2971W        W68132  28.974  34.773  12.846
 2972W        W68133  29.726  11.920   3.106
 2973W        W68134  31.074  27.707  11.427
 2974W        W68135  27.717  12.647  14.690
 2975W        W68136   6.619  12.643  13.915
 2976W        W68137  33.970  39.648  11.595
 2977W        W68138   6.293  14.004   4.254
 2978W        W68139  19.710  29.144   4.185
 2979W        W68140   4.684  15.133  12.928
 2980W        W68141  32.423  22.124   1.332
 2981W        W68142  11.739  34.470  13.504
 2982W        W68143  19.719  35.551   0.920
 2983W        W68144  22.651  11.701   0.865
 2984W        W68145  19.065  10.597  12.060
 2985W        W68146  21.088  34.902   3.899
 2986W        W68147  42.562  18.814   2.744
 2987W        W68148   3.712  16.546   2.902
 2988W        W68149  24.863  26.173   2.649
 2989W        W68150  40.221  28.639  14.753
 2990W        W68151  33.522   9.046  11.990
 2991W        W68152   6.501  33.777   4.087
 2992W        W68153  36.785  10.939  13.712
 2993W        W68154   0.211   1.806  12.694
 2994W        W68155  24.930  38.502  12.311
 2995W        W68156   3.873   2.775  12.881
 2996W        W68157  44.599  23.027  11.850
 2997W        W68158  32.901   5.436  11.101
 2998W        W68159  16.793  26.954   4.546
 2999W        W68160  35.842   8.553   2.851
 3000W        W68161   9.403  37.552   1.520
 3001W        W68162  20.213  18.755   2.787
 3002W        W68163  38.891  25.631  11.392
 3003W        W68164  34.564  10.571   0.801
 3004W        W68165  20.640  33.464   2.200
 3005W        W68166   7.441  19.534   3.642
 3006W        W68167  15.849  26.855  13.342
 3007W        W68168  23.983  37.420   4.014
 3008W        W68169   4.433  27.996   3.683
 3009W        W68170  40.927  31.037  13.462
 3010W        W68171  24.905   6.232   1.772
 3011W        W68172  16.093  15.984  14.965
 3012W        W68173  12.312  25.080   0.945
 3013W        W68174   4.816  41.564  10.620
 3014W        W68175  25.047  14.815   1.311
 3015W        W68176   6.575  14.262   4.606
 3016W        W68177   1.479   8.663   4.147
 3017W        W68178  16.027  39.067  11.699
 3018W        W68179  16.786  24.132  11.127
 3019W        W68180   9.892  18.116  11.913
 3020W        W68181  25.686   9.211   2.725
 3021W        W68182  36.844  20.248  12.266
 3022W        W68183  16.882   6.350  12.986
 3023W        W68184   8.581   1.897  14.407
 3024W        W68185  29.129  37.358   2.001
 3025W        W68186  23.296  13.355  14.856
 3026W        W68187  14.090  39.916   2.017
 3027W        W68188  27.663  20.517  10.999
 3028W        W68189  41.484  17.122  14.935
 3029W        W68190  34.916  17.169   1.296
 3030W        W68191  18.203   6.723   3.209
 3031W        W68192  33.569   0.485   2.569
 3032W        W68193  24.250  34.945  11.578
 3033W        W68194  10.777  41.920  11.473
 3034W        W68195  25.630   8.340   1.400
 3035W        W68196  38.037  32.825   4.567
 3036W        W68197  10.130  43.207  12.282
 3037W        W68198   2.703  40.877   1.259
 3038W        W68199   7.824  41.861   4.718
 3039W        W68200  42.832  34.454  13.173
 3040W        W68201  35.631   7.617   4.275
 3041W        W68202  23.718   7.596   4.239
 3042W        W68203   0.963  29.010  10.623
 3043W        W68204  38.546  31.662  12.009
 3044W        W68205  38.961  27.477  10.110
 3045W        W68206  14.043  23.176   0.238
 3046W        W68207   9.259  28.089  10.472
 3047W        W68208   7.411  41.965   0.420
 3048W        W68209  42.534  25.445  12.049
 3049W        W68210  14.085  26.139   0.426
 3050W        W68211  44.950  15.178   1.039
 3051W        W68212  19.237   0.330  10.392
 3052W        W68213  25.801   9.710   4.472
 3053W        W68214  20.588  23.935   2.363
 3054W        W68215  18.331  30.471  12.045
 3055W        W68216  23.267  29.647   2.810
 3056W        W68217  16.288   7.681   1.405
 3057W        W68218  22.281  42.804   2.286
 3058W        W68219  22.032  41.078   4.646
 3059W        W68220  18.659  41.861   2.566
 3060W        W68221  44.089  16.638   9.732
 3061W        W68222  15.189   8.636   2.621
 3062W        W68223  31.166  32.928   3.553
 3063W        W68224  28.958   5.812  13.130
 3064W        W68225  26.436  24.469   1.791
 3065W        W68226   8.364  14.748  11.695
 3066W        W68227  41.202  34.548   5.117
 3067W        W68228  19.078  12.587   2.212
 3068W        W68229  28.088  12.092   1.209
 3069W        W68230  18.620  20.285  12.993
 3070W        W68231   0.799  39.874   2.924
 3071W        W68232  18.128  18.213   2.099
 3072W        W68233  10.577  31.326   4.219
 3073W        W68234  22.648  27.305   2.787
 3074W        W68235  42.182   3.358   5.038
 3075W        W68236  27.591  12.110   1.313
 3076W        W68237  38.911   6.757  12.479
 3077W        W68238  42.995  23.954  11.476
 3078W        W68239  33.568   2.483  12.697
 3079W        W68240   7.439  36.760   0.279
 3080W        W68241   5.761  25.432  11.688
 3081W        W68242  40.546  21.959  13.462
 3082W        W68243  23.963  11.951  12.479
 3083W        W68244  16.114   1.992  13.821
 3084W        W68245   5.066   1.427  12.132
 3085W        W68246  36.016  10.212  14.060
 3086W        W68247   5.711  31.066  11.382
 3087W        W68248  28.680  22.571   2.389
 3088W        W68249   2.555  25.247  12.868
 3089W        W68250  35.053  30.605  14.948
 3090W        W68251  21.665  25.231   2.593
 3091W        W68252   2.286  42.777   0.218
 3092W        W68253  34.547  43.526  14.407
 3093W        W68254  24.189  21.351   4.540
 3094W        W68255   2.231  11.628   2.057
 3095W        W68256   6.696  21.053  11.692
 3096W        W68257   0.837  22.495   0.848
 3097W        W68258   9.212  44.336  12.998
 3098W        W68259  18.682  24.132   4.674
 3099W        W68260   6.085  39.940  10.628
 3100W        W68261  37.610  36.067   1.902
 3101W        W68262  41.016  25.155   3.746
 3102W        W68263  20.160  44.515   2.593
 3103W        W68264  36.789  22.816   1.374
 3104W        W68265  42.929  43.457   3.339
 3105W        W68266   8.931  17.809  13.971
 3106W        W68267  29.567  31.199  12.971
 3107W        W68268  17.574  11.110   0.268
 3108W        W68269   1.011   7.665   1.428
 3109W        W68270  28.353  34.493  14.499
 3110W        W68271  30.614  12.813  14.424
 3111W        W68272  13.767  15.017   4.737
 3112W        W68273  36.061  16.031   4.366
 3113W        W68274  41.941   1.556   0.514
 3114W        W68275  31.387  38.616   3.257
 3115W        W68276  30.378  35.317   3.754
 3116W        W68277  22.770  26.164   4.132
 3117W        W68278  31.844  42.320   3.254
 3118W        W68279  21.596  43.755   1.199
 3119W        W68280   0.656  42.730  10.496
 3120W        W68281  24.133   8.690   2.364
 3121W        W68282  25.478  20.203  13.081
 3122W        W68283  13.777   4.799   1.813
 3123W        W68284  43.586  37.395   0.445
 3124W        W68285  41.097  13.159  12.975
 3125W        W68286  26.018   0.393   4.641
 3126W        W68287   7.088  13.216   3.684
 3127W        W68288  37.534  13.763   0.947
 3128W        W68289  27.192  16.783  11.644
 3129W        W68290  11.791   3.156  13.860
 3130W        W68291   5.417  23.073  13.471
 3131W        W68292  37.231  18.890  13.385
 3132W        W68293  19.769  10.824  11.048
 3133W        W68294  26.617  31.657   1.491
 3134W        W68295  35.601  24.943  11.594
 3135W        W68296  33.848  41.309  12.974
 3136W        W68297  21.633  26.557  12.123
 3137W        W68298  25.013  17.640   1.368
 3138W        W68299   2.761  22.830  14.799
 3139W        W68300  39.306  27.843  13.419
 3140W        W68301   8.394  37.031  14.561
 3141W        W68302  27.470  26.044   1.840
 3142W        W68303  42.884   4.949   1.375
 3143W        W68304   5.216   1.311  11.640
 3144W        W68305   5.208  35.190  13.900
 3145W        W68306   1.574  23.293  11.355
 3146W        W68307  41.408  32.035   2.082
 3147W        W68308  26.686  19.280   1.457
 3148W        W68309  37.220  16.001   3.718
 3149W        W68310  35.544  26.643  12.079
 3150W        W68311   2.386  27.937  13.845
 3151W        W68312  23.986  21.004  14.297
 3152W        W68313  27.708  34.437  11.118
 3153W        W68314   8.801  38.567   0.336
 3154W        W68315  35.492   8.715  12.593
 3155W        W68316  37.179  13.224   0.701
 3156W        W68317  43.525  35.019   3.037
 3157W        W68318  34.400  29.976   0.976
 3158W        W68319  13.802  29.194   2.410
 3159W        W68320  32.067   0.997  12.128
 3160W        W68321   3.827  21.304   4.197
 3161W        W68322  25.276  19.144   4.991
 3162W        W68323  13.650  38.553  10.461
 3163W        W68324   8.876  37.220  14.406
 3164W        W68325  31.174   4.906  13.894
 3165W        W68326   7.629  35.725   4.165
 3166W        W68327  28.045  30.643  11.843
 3167W        W68328  39.004  31.928  10.678
 3168W        W68329  20.556  38.320   1.860
 3169W        W68330  33.234  42.486  12.723
 3170W        W68331   2.493  41.828  11.613
 3171W        W68332  24.486  30.122   2.708
 3172W        W68333  13.258  31.703  14.846
 3173W        W68334  18.022  20.605   2.817
 3174W        W68335  40.853  16.812   4.620
 3175W        W68336  23.689  25.804   4.350
 3176W        W68337  21.457  14.827   3.663
 3177W        W68338  10.244  32.912   0.965
 3178W        W68339  36.927  30.089   2.250
 3179W        W68340  12.830   4.331  14.759
 3180W        W68341   6.313  35.433   1.684
 3181W        W68342  38.367  24.039  14.537
 3182W        W68343  28.181  33.595   2.384
 3183W        W68344  36.613  42.031  13.016
 3184W        W68345   6.671  22.707  14.417
 3185W        W68346   6.635  39.098  13.061
 3186W        W68347  39.109   1.303  10.825
 3187W        W68348  42.439  24.421  13.579
 3188W        W68349  42.864  18.785  13.866
 3189W        W68350  13.848   1.808   1.815
 3190W        W68351  21.530  11.751   2.882
 3191W        W68352   1.347  23.220   0.927
 3192W        W68353   4.655  28.036  11.182
 3193W        W68354   5.577  43.628   3.593
 3194W        W68355  35.516  43.789  14.749
 3195W        W68356  40.115  19.532  11.564
 3196W        W68357  19.804  32.389  14.834
 3197W        W68358  43.033   7.308  10.277
 3198W        W68359   2.745  17.957   3.233
 3199W        W68360  39.557  21.956  14.037
 3200W        W68361  14.110  20.305  14.686
 3201W        W68362   3.670   9.630  11.596
 3202W        W68363   5.135   6.654   3.239
 3203W        W68364  33.378  11.695  12.167
 3204W        W68365  28.207  21.119  13.899
 3205W        W68366  22.509  26.314  12.920
 3206W        W68367  33.511   0.964  14.935
 3207W        W68368   9.110   4.141  13.534
 3208W        W68369   0.970  35.571  12.424
 3209W        W68370  10.311   9.161  11.425
 3210W        W68371  10.793   7.140   0.173
 3211W        W68372   1.329  34.025   1.744
 3212W        W68373  19.647  43.118   4.915
 3213W        W68374  29.559   7.860   4.494
 3214W        W68375  14.381   9.873  13.594
 3215W        W68376  24.096   0.214   2.901
 3216W        W68377   1.163   3.320   4.550
 3217W        W68378  42.347  23.510  11.161
 3218W        W68379  41.115   6.464  10.956
 3219W        W68380  30.503  31.480  10.723
 3220W        W68381  40.526  22.217  10.615
 3221W        W68382  26.979  12.473  11.161
 3222W        W68383  36.662  42.009  11.199
 3223W        W68384  30.931  37.599  14.386
 3224W        W68385  12.102  29.958   3.126
 3225W        W68386  10.053  42.691   3.894
 3226W        W68387   1.204  32.792  13.400
 3227W        W68388  43.357   9.834  11.696
 3228W        W68389  28.079  14.800  11.604
 3229W        W68390  36.104  34.808  13.432
 3230W        W68391   2.700   9.593  12.900
 3231W        W68392  35.825  16.612  12.990
 3232W        W68393  35.918   3.257  11.135
 3233W        W68394  29.148  29.608   4.077
 3234W        W68395   2.356  16.064   2.296
 3235W        W68396  24.995   6.972   3.729
 3236W        W68397   3.213  32.075   3.904
 3237W        W68398   2.059  22.270  14.591
 3238W        W68399  22.187  17.199   3.644
 3239W        W68400   4.010  16.022   1.844
 3240W        W68401  28.952  18.608  12.418
 3241W        W68402   3.640   7.274  13.074
 3242W        W68403   2.028   1.546   1.958
 3243W        W68404  28.398   6.838   2.759
 3244W        W68405   0.216  42.291   3.771
 3245W        W68406   3.142  12.150  10.969
 3246W        W68407  26.022  17.844  14.946
 3247W        W68408  10.303  15.275  10.689
 3248W        W68409   2.754  32.414  12.084
 3249W        W68410   7.701  39.677  13.235
 3250W        W68411   6.505  15.683  14.377
 3251W        W68412  14.311  27.672  13.393
 3252W        W68413  26.140   6.161   2.190
 3253W        W68414   6.231  19.302  14.443
 3254W        W68415   3.404  21.939   0.734
 3255W        W68416  38.457   7.208  14.599
 3256W        W68417  13.172  41.600   3.276
 3257W        W68418  40.071  33.194  13.508
 3258W        W68419  27.697  15.263  13.395
 3259W        W68420  26.475   1.345  14.714
 3260W        W68421  36.993  13.054   2.288
 3261W        W68422  10.926   6.708   1.024
 3262W        W68423  41.996   6.990   4.811
 3263W        W68424   7.131  25.553   3.694
 3264W        W68425   0.398   1.885   2.153
 3265W        W68426  36.972   3.854  11.132
 3266W        W68427  42.893  31.810   5.076
 3267W        W68428  15.724  30.659   0.970
 3268W        W68429  32.018   9.704  10.939
 3269W        W68430   1.538  12.269  11.105
 3270W        W68431  20.848  44.425   3.768
 3271W        W68432  37.837  34.900  10.626
 3272W        W68433  33.155  42.870   3.165
 3273W        W68434  35.416  23.660   2.359
 3274W        W68435  44.297  35.111   4.136
 3275W        W68436  22.658  24.283  11.105
 3276W        W68437  44.734   8.783  13.105
 3277W        W68438   0.364  11.395  12.301
 3278W        W68439  28.287  30.660  14.033
 3279W        W68440  16.812  22.591   0.324
 3280W        W68441  14.564  14.342  14.513
 3281W        W68442  14.318  26.125  11.216
 3282W        W68443  36.636  36.538   3.715
 3283W        W68444  39.521  40.452   1.341
 3284W        W68445  29.529  42.700   0.793
 3285W        W68446   0.881  19.063  11.590
 3286W        W68447  42.871  20.084   3.127
 3287W        W68448  29.363  32.889  12.562
 3288W        W68449  30.349  34.306  11.088
 3289W        W68450  19.617  22.727   2.694
 3290W        W68451  10.725   5.278  14.783
 3291W        W68452   5.991  23.418  11.517
 3292W        W68453   9.298   0.244   2.683
 3293W        W68454  17.691   7.074  11.182
 3294W        W68455  13.843  20.206  11.044
 3295W        W68456  44.895  20.051  12.598
 3296W        W68457  23.043  32.638   2.382
 3297W        W68458  33.556  20.083  10.709
 3298W        W68459  16.944  22.376  12.458
 3299W        W68460  40.340  28.150   0.386
 3300W        W68461  41.810  13.138  13.533
 3301W        W68462  22.688  35.402  13.082
 3302W        W68463  23.866  27.431  14.127
 3303W        W68464  39.277  19.631   3.319
 3304W        W68465   3.719  32.990   4.141
 3305W        W68466  27.514  22.465  13.164
 3306W        W68467  17.791  41.367  14.259
 3307W        W68468  19.697  10.616  11.510
 3308W        W68469  39.927   7.640   3.760
 3309W        W68470   3.348  34.502   1.781
 3310W        W68471  24.592  20.772   3.614
 3311W        W68472   1.484  16.832   1.693
 3312W        W68473  34.625  40.297  12.982
 3313W        W68474   9.379   2.895   0.977
 3314W        W68475  22.033   2.238   3.705
 3315W        W68476  44.221  10.240  12.153
 3316W        W68477  26.179  31.795  10.776
 3317W        W68478   6.402   6.489  12.024
 3318W        W68479  36.666  23.977   4.138
 3319W        W68480  16.248  30.734   0.887
 3320W        W68481  34.203  26.547   2.276
 3321W        W68482   4.393  43.820  14.712
 3322W        W68483  20.804   4.491   1.689
 3323W        W68484  40.392  29.893  14.200
 3324W        W68485  25.404  36.923   5.594
 3325W        W68486   5.490  31.501   3.607
 3326W        W68487  41.725   5.389  13.806
 3327W        W68488  13.208  43.313  12.148
 3328W        W68489   0.410  19.472   2.384
 3329W        W68490   6.135   1.308  10.672
 3330W        W68491  10.560  25.610   2.892
 3331W        W68492   5.291  31.063  13.587
 3332W        W68493  40.568  16.706  12.970
 3333W        W68494  26.614  34.499  12.660
 3334W        W68495  39.790  41.849  12.362
 3335W        W68496  25.707  24.372  12.885
 3336W        W68497   3.801   6.753   4.217
 3337W        W68498  27.684   5.355  11.043
 3338W        W68499  33.653   7.174   1.753
 3339W        W68500   3.276  21.886   2.721
 3340W        W68501  43.298  22.051   1.482
 3341W        W68502  32.585  21.106   3.170
 3342W        W68503  12.707  23.475   4.473
 3343W        W68504  15.181  27.449   3.693
 3344W        W68505  23.633   6.584  12.905
 3345W        W68506   1.418  22.754   3.241
 3346W        W68507  41.625  25.333  12.162
 3347W        W68508  36.885  40.453   1.884
 3348W        W68509  27.653  34.067   1.199
 3349W        W68510   7.351   2.132   2.201
 3350W        W68511  32.540  40.589   0.477
 3351W        W68512  44.318   8.208  14.245
 3352W        W68513  42.592  26.554   0.035
 3353W        W68514  23.714   6.647   3.492
 3354W        W68515   7.730   0.703   3.848
 3355W        W68516  32.283   8.371  11.242
 3356W        W68517  21.995   5.918  14.823
 3357W        W68518  24.008   0.690  10.797
 3358W        W68519  30.182  20.711   0.117
 3359W        W68520  11.902  29.726   2.390
 3360W        W68521  32.141  26.546  14.763
 3361W        W68522  29.660  41.375   4.518
 3362W        W68523  25.848  11.121  12.833
 3363W        W68524  30.548  28.027  12.508
 3364W        W68525  10.252  29.522  12.354
 3365W        W68526   1.248   3.397  12.373
 3366W        W68527   0.269   1.392  12.382
 3367W        W68528  26.170  23.077   2.226
 3368W        W68529  23.200  44.734   3.764
 3369W        W68530  32.129   1.485   0.490
 3370W        W68531  40.576  29.871   4.369
 3371W        W68532   9.123  30.788   2.766
 3372W        W68533  38.844  21.033  14.945
 3373W        W68534  15.491  10.588   3.042
 3374W        W68535  34.324  32.947  14.881
 3375W        W68536   7.399  31.586  11.774
 3376W        W68537   1.329  10.801  13.022
 3377W        W68538  23.070  10.253  13.041
 3378W        W68539   3.325   3.507  14.999
 3379W        W68540  14.043   7.802   4.403
 3380W        W68541  36.226  15.121   2.922
 3381W        W68542  31.468  26.726   3.336
 3382W        W68543  44.825   5.433  10.473
 3383W        W68544   8.345  18.277   2.306
 3384W        W68545  19.793  13.391   2.724
 3385W        W68546  33.024  14.274  11.375
 3386W        W68547  12.398   9.249  12.852
 3387W        W68548  11.832  22.097  13.281
 3388W        W68549  23.385   3.302  14.741
 3389W        W68550  14.056  43.572   4.410
 3390W        W68551  10.565   7.789   1.713
 3391W        W68552  10.291  29.569  14.379
 3392W        W68553  44.798  16.673  10.473
 3393W        W68554  20.851   7.719  11.203
 3394W        W68555  36.299  23.456  10.330
 3395W        W68556  30.021  30.070  12.863
 3396W        W68557   2.608  39.948  14.394
 3397W        W68558  18.132  38.410   0.498
 3398W        W68559  31.319  37.180  12.542
 3399W        W68560  40.923  26.694  13.849
 3400W        W68561   6.221   8.598  13.481
 3401W        W68562  14.170  11.818   0.315
 3402W        W68563   9.423  41.760  12.180
 3403W        W68564  19.458  12.826  14.429
 3404W        W68565  29.694  21.470  11.573
 3405W        W68566  32.997  24.655   4.664
 3406W        W68567  10.161  22.548   4.091
 3407W        W68568  27.095  39.953   5.055
 3408W        W68569  39.259  28.497  11.509
 3409W        W68570   1.139   0.408  12.025
 3410W        W68571   1.380  44.775  10.712
 3411W        W68572  15.929  30.674   0.480
 3412W        W68573  11.145   2.547  11.709
 3413W        W68574  39.055  20.984  11.539
 3414W        W68575  19.808  12.603  11.533
 3415W        W68576  35.429  21.494  14.846
 3416W        W68577  42.092  19.548  12.496
 3417W        W68578   0.872   0.463   0.007
 3418W        W68579  19.042  27.423  13.532
 3419W        W68580  24.894  13.324   4.679
 3420W        W68581  21.780  42.415   4.246
 3421W        W68582  22.150  20.368  11.259
 3422W        W68583  28.852   3.342   1.425
 3423W        W68584   2.552  24.521   1.860
 3424W        W68585  12.706   8.389  14.345
 3425W        W68586  20.954  32.408   0.720
 3426W        W68587  29.140  27.185   0.555
 3427W        W68588  27.214  20.006   1.120
 3428W        W68589   1.029   9.719  12.332
 3429W        W68590  31.289  19.709  13.563
 3430W        W68591  33.634  27.088  13.890
 3431W        W68592  18.275   0.961   4.192
 3432W        W68593  16.633  24.717   2.179
 3433W        W68594   3.786  37.141  14.559
 3434W        W68595  44.292  15.246  14.878
 3435W        W68596   4.640  30.302  12.817
 3436W        W68597  38.089  24.566  13.841
 3437W        W68598  29.575  33.862   1.051
 3438W        W68599  35.444  20.155   3.646
 3439W        W68600   0.393  11.559   4.254
 3440W        W68601  27.891  26.782  11.147
 3441W        W68602   6.303  38.966   5.196
 3442W        W68603  28.676   0.425  11.166
 3443W        W68604  17.478  28.468   2.346
 3444W        W68605  30.120  43.877   4.312
 3445W        W68606  17.496   8.771   2.343
 3446W        W68607  42.756  31.034   2.684
 3447W        W68608  10.458  28.534  14.837
 3448W        W68609  14.410   4.317   3.125
 3449W        W68610   5.439   0.085   4.062
 3450W        W68611  13.229  15.979   0.412
 3451W        W68612  30.199  22.174   4.587
 3452W        W68613  18.033  28.731  11.543
 3453W        W68614  44.738  31.659   0.915
 3454W        W68615  43.299  16.321  11.501
 3455W        W68616  17.969  20.724  14.770
 3456W        W68617  18.984   9.170   2.742
 3457W        W68618  13.207  26.123   2.267
 3458W        W68619  26.788  43.848   1.224
 3459W        W68620  43.444  38.805   0.541
 3460W        W68621   6.231   2.918  12.536
 3461W        W68622  17.880   0.677   4.432
 3462W        W68623  11.260   7.093  13.106
 3463W        W68624  23.041  44.036  13.717
 3464W        W68625   7.953   9.996  11.220
 3465W        W68626   5.685  23.163  13.906
 3466W        W68627   9.795  44.850  11.153
 3467W        W68628   9.735  21.106   4.534
 3468W        W68629   0.489  19.481   3.278
 3469W        W68630  17.535  20.703  13.955
 3470W        W68631  33.446  26.998   2.852
 3471W        W68632  22.681  39.115  10.021
 3472W        W68633  25.699  16.717  13.175
 3473W        W68634  39.382  21.538  14.351
 3474W        W68635   1.473  13.311  14.008
 3475W        W68636  30.961   0.748  11.025
 3476W        W68637   4.996  32.853   0.237
 3477W        W68638  27.482   3.952   3.082
 3478W        W68639   5.192  10.591  11.352
 3479W        W68640  25.666   5.342   1.852
 3480W        W68641  44.644  22.710   3.836
 3481W        W68642  41.339  38.348   3.747
 3482W        W68643  18.158  24.549   4.084
 3483W        W68644   7.880  17.659   2.597
 3484W        W68645   4.759  11.173  11.947
 3485W        W68646   4.433  32.373   4.075
 3486W        W68647  35.988  15.369   0.779
 3487W        W68648   2.549  26.469  11.562
 3488W        W68649   6.191  24.169   0.762
 3489W        W68650   8.496  33.163   3.196
 3490W        W68651  37.545  13.438  12.518
 3491W        W68652  32.265  32.341  14.303
 3492W        W68653  10.825  31.473  12.009
 3493W        W68654  26.189   7.265  14.833
 3494W        W68655  40.371   3.974   0.469
 3495W        W68656  27.758  35.359  11.187
 3496W        W68657  29.230  43.987   2.227
 3497W        W68658  28.003  13.135  13.810
 3498W        W68659  28.531  43.218  14.716
 3499W        W68660  18.121  28.711   3.672
 3500W        W68661  29.901  21.711   0.359
 3501W        W68662  30.634  43.143   3.355
 3502W        W68663   6.902  11.146  13.786
 3503W        W68664  22.646  27.145  13.482
 3504W        W68665  37.462  44.469   2.216
 3505W        W68666  16.316  29.133  11.019
 3506W        W68667  31.261  29.068   3.900
 3507W        W68668  35.971  14.340   0.863
 3508W        W68669  27.978  12.305  14.286
 3509W        W68670  16.960  16.356  11.863
 3510W        W68671  21.047  40.426  10.051
 3511W        W68672  31.993   1.784  11.115
 3512W        W68673  33.285  24.624   4.244
 3513W        W68674   7.101   3.771   0.191
 3514W        W68675  35.795  28.638  10.813
 3515W        W68676  43.022   3.278   4.505
 3516W        W68677  39.390  38.758  13.804
 3517W        W68678  19.458   1.240   0.733
 3518W        W68679  33.922  43.260  13.597
 3519W        W68680   8.700  12.374   4.103
 3520W        W68681  44.763  26.140   2.997
 3521W        W68682  26.592  17.138   4.677
 3522W        W68683  34.675  40.781   3.348
 3523W        W68684  40.050   7.325  11.194
 3524W        W68685  37.469  10.555   0.465
 3525W        W68686  22.867   7.360   0.492
 3526W        W68687  21.559  15.186  10.710
 3527W        W68688   8.922   9.235  11.618
 3528W        W68689  23.942   5.793   4.989
 3529W        W68690   8.845   1.972   4.323
 3530W        W68691  20.115  39.394  13.907
 3531W        W68692   7.168  12.696   2.472
 3532W        W68693  39.475  37.952   0.310
 3533W        W68694  40.815  39.207  11.110
 3534W        W68695   6.110  19.822   4.029
 3535W        W68696  35.442  25.233  14.468
 3536W        W68697  37.431  11.229   3.405
 3537W        W68698  43.544  25.062   3.800
 3538W        W68699  30.087  29.048  10.576
 3539W        W68700  33.636  44.702   2.713
 3540W        W68701   9.642   9.188  14.981
 3541W        W68702  40.117  38.237  14.555
 3542W        W68703  40.322  39.463  14.496
 3543W        W68704  35.346   9.329  11.780
 3544W        W68705  26.015  30.973  14.846
 3545W        W68706  31.022  39.014   5.011
 3546W        W68707  22.577  35.775  14.103
 3547W        W68708  37.290  14.548   3.640
 3548W        W68709   0.282  23.104  11.296
 3549W        W68710  22.717  20.772  13.573
 3550W        W68711  36.417  20.422   4.585
 3551W        W68712  31.821  24.791  12.465
 3552W        W68713  42.853  32.962  13.410
 3553W        W68714  33.622  13.771  14.842
 3554W        W68715  21.735  22.294  14.984
 3555W        W68716  13.791  26.097   0.847
 3556W        W68717  11.161  43.824   4.732
 3557W        W68718  36.972  12.741  13.016
 3558W        W68719  33.502  14.163  14.506
 3559W        W68720   0.091  29.910   0.045
 3560W        W68721  27.628   6.019  14.941
 3561W        W68722  41.511  34.885   1.763
 3562W        W68723  38.389   1.745   4.166
 3563W        W68724  35.508  31.616  14.459
 3564W        W68725   2.544  34.073   0.322
 3565W        W68726  41.547  19.061  12.119
 3566W        W68727  17.313  33.888   1.672
 3567W        W68728  34.064  41.365   2.204
 3568W        W68729   2.898  20.749  14.030
 3569W        W68730  23.514   7.675  10.573
 3570W        W68731  22.424  36.181   2.272
 3571W        W68732  44.545   5.423  11.164
 3572W        W68733  36.879  44.365   4.521
 3573W        W68734  36.765  39.548   9.608
 3574W        W68735  43.979  17.591  10.500
 3575W        W68736  44.945  22.592  13.274
 3576W        W68737   4.476  15.494   3.400
 3577W        W68738  24.057  26.938  14.965
 3578W        W68739  35.604   7.969  12.039
 3579W        W68740  38.479  33.594   0.383
 3580W        W68741  20.593   6.418  11.104
 3581W        W68742  37.347  32.540  11.827
 3582W        W68743   9.804  18.762  13.521
 3583W        W68744  28.745   6.543   0.644
 3584W        W68745  27.343  34.474  11.564
 3585W        W68746   2.357   8.182  11.252
 3586W        W68747  39.510  20.660  10.763
 3587W        W68748   1.042   5.864   1.084
 3588W        W68749  23.297  29.901  11.166
 3589W        W68750  37.206  22.044   3.145
 3590W        W68751  10.276  34.828  12.734
 3591W        W68752  36.356  30.892  13.090
 3592W        W68753  24.655  27.689   4.347
 3593W        W68754  33.992  14.650   3.345
 3594W        W68755  20.732  14.836  11.184
 3595W        W68756   1.522  36.969  12.336
 3596W        W68757  25.131  37.039  14.185
 3597W        W68758  19.635  18.671  11.117
 3598W        W68759  29.596  21.211  14.995
 3599W        W68760   6.358  12.543  11.176
 3600W        W68761  32.107  31.988  13.943
 3601W        W68762   8.303  11.640   2.873
 3602W        W68763   3.357  26.434  14.006
 3603W        W68764  11.378  44.262  12.816
 3604W        W68765  36.128  36.945   3.300
 3605W        W68766   9.627  26.106  10.662
 3606W        W68767  18.099   7.216   4.141
 3607W        W68768   3.371   9.141  14.317
 3608W        W68769  23.186  24.785   0.728
 3609W        W68770  40.556  25.437  14.752
 3610W        W68771  36.453   3.161  14.092
 3611W        W68772  14.717   9.117  12.883
 3612W        W68773  12.068  16.212  13.445
 3613W        W68774  24.417  17.229  14.285
 3614W        W68775  41.106  38.277  12.478
 3615W        W68776  21.461  44.410   3.321
 3616W        W68777  40.056  24.155   4.851
 3617W        W68778  27.283   5.261   4.127
 3618W        W68779  19.123  21.649   1.519
 3619W        W68780  34.541  42.293   4.809
 3620W        W68781  12.396  26.198  12.051
 3621W        W68782  22.194  39.545   4.118
 3622W        W68783  24.031  19.696   4.398
 3623W        W68784  36.074  30.586   0.038
 3624W        W68785  18.254  20.777   0.195
 3625W        W68786  32.484  34.433   4.953
 3626W        W68787  18.195   6.356   0.865
 3627W        W68788  25.169   8.383  13.917
 3628W        W68789  23.505  23.464   2.020
 3629W        W68790  26.526   2.744  12.398
 3630W        W68791  19.838  31.466  14.943
 3631W        W68792  22.626  40.873   2.624
 3632W        W68793  11.716  29.431   1.940
 3633W        W68794  20.373   4.514   1.996
 3634W        W68795  38.534   2.007  11.779
 3635W        W68796  38.615   8.771  12.537
 3636W        W68797  10.273  30.291  11.677
 3637W        W68798   7.717  20.680  12.076
 3638W        W68799  33.944  38.485   3.831
 3639W        W68800  26.827  29.854   0.265
 3640W        W68801  11.905  27.224  10.489
 3641W        W68802  43.967  13.122  10.604
 3642W        W68803  38.084  10.042  14.750
 3643W        W68804  27.329  43.898  12.223
 3644W        W68805  40.057  34.866  12.401
 3645W        W68806  43.554  15.183   0.425
 3646W        W68807  23.167  31.514  13.440
 3647W        W68808  21.345  15.980  10.578
 3648W        W68809   9.573  42.403  14.347
 3649W        W68810  35.041  29.937  14.313
 3650W        W68811  21.003  35.642   3.147
 3651W        W68812   9.721  12.155   1.260
 3652W        W68813  12.342  14.239   1.919
 3653W        W68814  38.414  19.537   3.160
 3654W        W68815  42.292  29.947  13.171
 3655W        W68816  44.402  42.539   2.450
 3656W        W68817   1.419  19.911  13.391
 3657W        W68818   3.324  13.031  12.756
 3658W        W68819  14.791  12.271   1.633
 3659W        W68820  20.497  22.558   4.139
 3660W        W68821  28.837   4.406  13.815
 3661W        W68822   7.551   3.911  12.836
 3662W        W68823  39.594  34.115  10.758
 3663W        W68824  32.885  44.019  10.833
 3664W        W68825   3.354  44.462  10.037
 3665W        W68826  31.827  19.785  10.826
 3666W        W68827   9.125  42.119  11.974
 3667W        W68828  16.105  27.564   4.110
 3668W        W68829  37.389  14.155  14.764
 3669W        W68830  25.929  35.074   4.203
 3670W        W68831  29.653   5.241   1.676
 3671W        W68832  16.309  12.697   3.421
 3672W        W68833  33.552  42.036  11.093
 3673W        W68834  17.968  11.248  13.066
 3674W        W68835  12.199  15.709   0.249
 3675W        W68836  31.463   7.852   1.347
 3676W        W68837  38.956  23.128  13.367
 3677W        W68838  18.596  31.877   1.600
 3678W        W68839  36.287  35.211   5.163
 3679W        W68840  29.437   9.505  12.660
 3680W        W68841  12.846  22.504   0.872
 3681W        W68842   4.306  16.573  13.730
 3682W        W68843  33.572  33.316   1.636
 3683W        W68844  22.642  13.110  10.728
 3684W        W68845  13.278   6.617   2.137
 3685W        W68846  40.054   4.268   3.562
 3686W        W68847   7.613  41.744  13.504
 3687W        W68848  35.962  17.792  11.833
 3688W        W68849   7.202  36.901   2.233
 3689W        W68850  36.511  12.479   0.768
 3690W        W68851   8.442  29.395   1.679
 3691W        W68852  23.537  31.359  10.717
 3692W        W68853  44.267  40.345   1.818
 3693W        W68854  43.120  12.112  12.409
 3694W        W68855   9.070  36.404  11.804
 3695W        W68856  41.350  13.758  14.017
 3696W        W68857   0.297  18.327   0.976
 3697W        W68858   2.552  17.871   3.797
 3698W        W68859   5.747   9.244   0.743
 3699W        W68860   6.623   4.743   3.127
 3700W        W68861  12.555  20.682  12.480
 3701W        W68862  10.143  18.543  12.160
 3702W        W68863  34.037  17.261  12.299
 3703W        W68864  26.709  34.978   0.828
 3704W        W68865   8.652  35.324   1.866
 3705W        W68866  39.549  13.734   0.770
 3706W        W68867  25.506  40.134   2.421
 3707W        W68868  21.820  40.862  14.807
 3708W        W68869  26.735  43.770   3.694
 3709W        W68870   4.633   2.242  13.608
 3710W        W68871  41.504  15.295  14.964
 3711W        W68872  20.612  39.034   4.725
 3712W        W68873  10.225  21.815  10.388
 3713W        W68874  29.772  29.013   3.804
 3714W        W68875  27.746  26.719   4.388
 3715W        W68876  27.016  19.189  14.756
 3716W        W68877  36.553  15.604  10.325
 3717W        W68878  25.090  43.781   0.861
 3718W        W68879  40.777  36.794   3.755
 3719W        W68880  11.636  19.106  12.495
 3720W        W68881  28.135   9.077   4.439
 3721W        W68882   1.643  14.327  11.188
 3722W        W68883  13.129  16.617   4.183
 3723W        W68884  38.277  33.798  13.526
 3724W        W68885   7.203   3.693  11.478
 3725W        W68886  23.601  11.694  13.785
 3726W        W68887  17.043   9.752  11.579
 3727W        W68888  17.790  18.279   4.598
 3728W        W68889   7.120   2.279  11.215
 3729W        W68890  20.314  17.056  13.025
 3730W        W68891  28.193  28.090   2.265
 3731W        W68892   5.785   8.875  13.452
 3732W        W68893   0.277  18.472   0.309
 3733W        W68894  42.679  43.930  12.481
 3734W        W68895  31.927  23.905   2.356
 3735W        W68896   1.061  14.563  12.065
 3736W        W68897  26.636  34.837   3.241
 3737W        W68898  19.467  24.981  11.207
 3738W        W68899   2.868  41.500  11.706
 3739W        W68900  22.228  36.903   3.206
 3740W        W68901  20.137  38.859  11.244
 3741W        W68902  15.789  29.483  14.026
 3742W        W68903  12.827  17.320  12.353
 3743W        W68904  44.753  12.284   2.004
 3744W        W68905  27.671  26.659   0.734
 3745W        W68906  18.062  26.654  14.923
 3746W        W68907  43.398   4.983   0.736
 3747W        W68908  25.993  41.324   4.752
 3748W        W68909  24.643  13.807   4.214
 3749W        W68910   8.961  24.108  13.485
 3750W        W68911  43.358  10.634   0.771
 3751W        W68912  44.687  11.757   4.619
 3752W        W68913  28.638  31.602   1.320
 3753W        W68914  22.613  29.460  13.289
 3754W        W68915   3.654   5.869   4.775
 3755W        W68916   5.376  36.888   2.754
 3756W        W68917   2.786  31.507  10.803
 3757W        W68918   0.381  14.864   4.545
 3758W        W68919  22.537   6.161  13.429
 3759W        W68920   4.881   1.737   1.679
 3760W        W68921  21.146  43.081   0.930
 3761W        W68922  10.294   3.422  11.873
 3762W        W68923  23.218   5.467  12.779
 3763W        W68924  32.974  18.066   4.559
 3764W        W68925  44.267  11.096   0.417
 3765W        W68926  44.781   6.816  11.541
 3766W        W68927  20.102  33.853  14.857
 3767W        W68928  40.843  15.625   0.472
 3768W        W68929   6.773  23.484   2.694
 3769W        W68930  19.489  44.901   2.011
 3770W        W68931  33.136  40.149  14.043
 3771W        W68932  34.864   4.663  12.996
 3772W        W68933  10.266  24.661  14.374
 3773W        W68934  40.521  15.334  12.456
 3774W        W68935  32.443  28.009  10.535
 3775W        W68936  30.591   8.628   1.437
 3776W        W68937  34.584  29.806  13.468
 3777W        W68938  38.011  26.199  14.452
 3778W        W68939  29.953  37.430   4.488
 3779W        W68940  24.654  11.493  14.925
 3780W        W68941  22.794  42.508   1.372
 3781W        W68942  37.048   3.947   4.108
 3782W        W68943  30.401  32.703   1.914
 3783W        W68944  29.363  17.073   1.594
 3784W        W68945  44.436   4.751   5.016
 3785W        W68946   8.926  37.126   4.572
 3786W        W68947  24.177  28.767  10.694
 3787W        W68948   3.861  37.419  14.008
 3788W        W68949  23.900  11.338  12.186
 3789W        W68950  36.336  25.052  14.687
 3790W        W68951  23.219  43.984   1.204
 3791W        W68952  34.052  15.751   2.131
 3792W        W68953  37.901  29.633  14.819
 3793W        W68954  44.299   7.802  12.054
 3794W        W68955   5.348   9.697  11.039
 3795W        W68956  24.892  19.421  11.038
 3796W        W68957  19.134   6.536  14.863
 3797W        W68958  10.841   1.450   2.824
 3798W        W68959  30.417  43.506  11.308
 3799W        W68960  17.100  33.372  14.290
 3800W        W68961  14.551  33.907  11.844
 3801W        W68962  16.867  36.567   0.854
 3802W        W68963  33.418  31.883  12.115
 3803W        W68964  20.167  40.931  14.839
 3804W        W68965  43.809  19.233  13.828
 3805W        W68966  21.022   7.713   0.369
 3806W        W68967   8.274  11.359   3.864
 3807W        W68968  20.665  21.026  14.400
 3808W        W68969   2.283  40.099   0.406
 3809W        W68970  27.636  44.958   4.216
 3810W        W68971   6.743  29.568   5.406
 3811W        W68972  18.658  23.487   2.388
 3812W        W68973  28.134  23.764  10.570
 3813W        W68974   0.321  44.074   2.238
 3814W        W68975  36.090   7.279  14.881
 3815W        W68976  27.044   4.256   1.397
 3816W        W68977  43.782  44.294   4.767
 3817W        W68978   3.526  25.609   1.759
 3818W        W68979  18.545  24.070  10.943
 3819W        W68980  41.814  40.565   2.159
 3820W        W68981  22.617  39.047  12.036
 3821W        W68982  36.459  16.987   3.617
 3822W        W68983   2.713  13.805  14.008
 3823W        W68984  25.554  22.767   1.185
 3824W        W68985   4.615  35.646  13.393
 3825W        W68986  38.398   4.882   3.702
 3826W        W68987  13.831  13.902  11.020
 3827W        W68988   4.879   6.655  13.913
 3828W        W68989  43.430   7.769   3.700
 3829W        W68990   1.774   0.130   3.411
 3830W        W68991  23.590   9.433   0.316
 3831W        W68992   4.701  12.141   9.650
 3832W        W68993   9.338  40.514   1.243
 3833W        W68994   3.442   7.024  12.576
 3834W        W68995  43.443  39.251  10.686
 3835W        W68996  41.879  19.428   3.605
 3836W        W68997  32.334   8.910  10.669
 3837W        W68998  32.506  21.123   4.186
 3838W        W68999   6.270  42.393  11.590
 3839W        W69000  21.278  41.308  10.697
 3840W        W69001  26.728   8.248   0.575
 3841W        W69002  33.832   5.313   0.921
 3842W        W69003  42.113   1.438  11.937
 3843W        W69004  38.511  11.017   4.259
 3844W        W69005  16.152   6.415   2.842
 3845W        W69006  24.618  32.747  14.459
 3846W        W69007  43.427   2.503  11.488
 3847W        W69008  42.256  17.173  11.222
 3848W        W69009   0.365  37.868   2.412
 3849W        W69010   7.623  20.478  12.947
 3850W        W69011   7.329  20.093  14.122
 3851W        W69012  12.623  33.900  12.315
 3852W        W69013  41.966  34.625  14.017
 3853W        W69014  30.895   7.260  11.106
 3854W        W69015  24.196   6.890   1.899
 3855W        W69016  40.950  18.284  12.409
 3856W        W69017  32.477  39.082   2.400
 3857W        W69018  21.803  41.741  11.504
 3858W        W69019   4.847  30.646   3.309
 3859W        W69020   8.862  21.307   2.258
 3860W        W69021  29.064  43.994  11.489
 3861W        W69022  36.128  34.349   2.893
 3862W        W69023  34.225  36.258  10.829
 3863W        W69024  10.697  15.789   1.281
 3864W        W69025  15.118  16.110   0.834
 3865W        W69026  42.286  41.182  10.657
 3866W        W69027  31.951  31.110  12.853
 3867W        W69028  43.442  32.060   3.910
 3868W        W69029  33.982  28.250  13.370
 3869W        W69030  44.487   4.185  14.022
 3870W        W69031  39.566   1.916   4.442
 3871W        W69032  15.040  37.391  11.177
 3872W        W69033  43.100  23.613   3.166
 3873W        W69034  22.229  36.575  12.085
 3874W        W69035  26.628  44.323  11.452
 3875W        W69036  36.760  33.747  12.698
 3876W        W69037  16.138   9.934   0.064
 3877W        W69038  10.349  34.019  10.506
 3878W        W69039  30.089  34.617   3.266
 3879W        W69040  11.726  44.438  10.370
 3880W        W69041  24.591  20.906  10.663
 3881W        W69042  30.917  42.808   0.301
 3882W        W69043  42.975  28.622  10.629
 3883W        W69044  40.003  25.003   4.827
 3884W        W69045  21.110  22.331  12.917
 3885W        W69046   9.677   2.205   1.312
 3886W        W69047   3.237  19.558  14.290
 3887W        W69048  24.853   6.626   1.430
 3888W        W69049  24.127  28.426  11.104
 3889W        W69050   7.187  37.288  11.976
 3890W        W69051   3.992   2.090   0.143
 3891W        W69052  13.663  11.238  14.467
 3892W        W69053  35.617  18.719   3.265
 3893W        W69054  43.863  20.053   2.372
 3894W        W69055   4.585   2.250  14.455
 3895W        W69056  10.829   5.148   2.210
 3896W        W69057  32.150  36.547  12.470
 3897W        W69058  24.240  35.461  10.833
 3898W        W69059  20.758  40.771  14.888
 3899W        W69060  31.871  10.270  12.086
 3900W        W69061  23.093  28.791  10.738
 3901W        W69062  29.575  29.797  12.909
 3902W        W69063  24.684   6.716   3.403
 3903W        W69064  11.880  15.391  10.757
 3904W        W69065  19.724  27.983  11.151
 3905W        W69066  31.621  20.884   3.018
 3906W        W69067  20.862  27.522   0.274
 3907W        W69068  10.861  24.704   4.673
 3908W        W69069  44.187  42.484   3.469
 3909W        W69070  43.500  23.267   4.974
 3910W        W69071  44.766  12.725   3.138
 3911W        W69072  25.725  17.643  12.166
 3912W        W69073  18.712  21.507   1.197
 3913W        W69074  35.627  36.792   4.255
 3914W        W69075  16.274   3.921   2.064
 3915W        W69076   0.313  14.531  11.322
 3916W        W69077  22.114  37.530   0.780
 3917W        W69078  11.200  27.476   1.760
 3918W        W69079  37.034   7.741   2.730
 3919W        W69080  26.021   4.401  11.045
 3920W        W69081  22.059   9.220  12.975
 3921W        W69082   3.862  37.426  11.239
 3922W        W69083  39.997  16.762   2.160
 3923W        W69084  35.521  30.985   3.422
 3924W        W69085  15.438  11.701  14.866
 3925W        W69086  27.095  21.978  12.539
 3926W        W69087  29.113  23.207  12.501
 3927W        W69088  36.466  26.138   1.157
 3928W        W69089  21.131  37.528   1.885
 3929W        W69090  43.616  32.962   3.292
 3930W        W69091  41.919  26.395   0.829
 3931W        W69092   2.284  19.134  13.408
 3932W        W69093  14.463  38.559   4.138
 3933W        W69094  25.164   6.919  13.930
 3934W        W69095   7.397   3.376  11.923
 3935W        W69096  22.629  36.977  10.794
 3936W        W69097  21.496  20.771   0.784
 3937W        W69098  18.287  44.400   2.655
 3938W        W69099  38.824  28.453   3.299
 3939W        W69100  28.922  23.012   1.181
 3940W        W69101   8.215  39.116  11.721
 3941W        W69102  33.330  36.826  14.982
 3942W        W69103  31.168  25.729  13.528
 3943W        W69104   8.066  16.726   2.988
 3944W        W69105  18.862  12.307  12.922
 3945W        W69106  30.416  21.686   0.265
 3946W        W69107  24.580  44.942  12.941
 3947W        W69108  36.591   5.709  12.010
 3948W        W69109   5.533  41.056   4.129
 3949W        W69110  24.224   5.961   2.334
 3950W        W69111  41.563  42.532  12.869
 3951W        W69112  29.377  35.056  14.014
 3952W        W69113  29.118   9.359   0.848
 3953W        W69114  25.136  36.297  11.068
 3954W        W69115  32.820  24.208  12.877
 3955W        W69116  11.428  25.996   4.235
 3956W        W69117  41.668  32.813   4.315
 3957W        W69118   7.947   7.364  12.248
 3958W        W69119  37.534  11.802  11.966
 3959W        W69120  11.556  33.574  13.110
 3960W        W69121  33.635  19.254   3.236
 3961W        W69122  20.166  21.136   4.072
 3962W        W69123  42.936  24.080   1.478
 3963W        W69124  21.912  23.526  14.434
 3964W        W69125  18.598   0.525  10.736
 3965W        W69126  37.019  34.573  14.426
 3966W        W69127   5.348   6.001  12.500
 3967W        W69128  30.090   9.630  14.903
 3968W        W69129   5.167   3.727  11.068
 3969W        W69130  28.463  20.473  14.493
 3970W        W69131  42.112  20.505  11.284
 3971W        W69132  26.096  21.598   5.426
 3972W        W69133  14.395   4.677  10.698
 3973W        W69134  33.185  19.430  12.447
 3974W        W69135   8.893  22.258  13.644
 3975W        W69136  38.338  16.049  13.125
 3976W        W69137  20.989  28.008  14.774
 3977W        W69138  25.993  13.855  13.660
 3978W        W69139  41.712  18.815   2.362
 3979W        W69140  29.929  37.860   1.122
 3980W        W69141   1.486  43.894   1.827
 3981W        W69142  19.570  37.534  12.442
 3982W        W69143  11.458   6.260   0.869
 3983W        W69144  31.387  20.207   1.704
 3984W        W69145  38.020  22.746  13.944
 3985W        W69146   6.493  13.616   3.155
 3986W        W69147  37.069  17.786   0.257
 3987W        W69148   9.909  19.262   3.141
 3988W        W69149  17.168  18.647   1.828
 3989W        W69150  27.579  24.621   4.488
 3990W        W69151  35.984   1.818   2.265
 3991W        W69152   1.737  21.092   4.595
 3992W        W69153   9.573  36.593  13.039
 3993W        W69154  16.427  11.837   2.070
 3994W        W69155  37.052  10.176  11.576
 3995W        W69156   0.776   2.376  12.769
 3996W        W69157  41.704   3.853   3.832
 3997W        W69158  25.628  39.904   1.991
 3998W        W69159  27.625   0.281   1.369
 3999W        W69160  11.941  38.623  14.521
 4000W        W69161  28.189   8.147   4.114
 4001W        W69162  39.072  26.715  14.356
 4002W        W69163  31.214  13.624   0.220
 4003W        W69164  26.741  17.992   3.174
 4004W        W69165  25.541  22.590  13.984
 4005W        W69166  28.699  29.043   2.200
 4006W        W69167  23.695  29.186   4.792
 4007W        W69168   9.688  20.977   1.743
 4008W        W69169  33.550  39.939   1.013
 4009W        W69170  29.219  24.806   2.292
 4010W        W69171  41.050  41.594   1.306
 4011W        W69172  13.124  25.530  14.814
 4012W        W69173  35.581   4.209   1.623
 4013W        W69174  43.590  43.475   1.785
 4014W        W69175  43.348  27.599  13.138
 4015W        W69176  37.609  41.041   3.005
 4016W        W69177  32.060  11.804   2.187
 4017W        W69178  21.497  40.441  12.521
 4018W        W69179   6.469   5.289  10.061
 4019W        W69180  16.711   1.999   3.284
 4020W        W69181  36.418  13.630  12.351
 4021W        W69182  22.165  44.736   1.030
 4022W        W69183   6.953  40.318  11.534
 4023W        W69184  36.621  18.207   1.320
 4024W        W69185  15.253  12.108  10.735
 4025W        W69186  32.216  32.866   1.624
 4026W        W69187  32.818  15.219  11.052
 4027W        W69188  38.081  43.037   5.098
 4028W        W69189  23.495  20.998  10.230
 4029W        W69190  26.581   5.736  13.547
 4030W        W69191  21.500  34.339  13.464
 4031W        W69192  10.887  31.929  12.235
 4032W        W69193   2.156  20.972  10.583
 4033W        W69194  44.932  40.971  11.052
 4034W        W69195  13.443  17.599   0.832
 4035W        W69196   7.852  16.090   0.351
 4036W        W69197  42.079   0.273   2.329
 4037W        W69198  34.680  19.572   2.768
 4038W        W69199  42.838  19.964  11.221
 4039W        W69200  37.141  29.147   4.139
 4040W        W69201   4.350  35.272  13.121
 4041W        W69202  29.660  39.503   0.324
 4042W        W69203   7.708   3.321   2.822
 4043W        W69204  43.888   9.879  11.972
 4044W        W69205   1.315  41.206  11.092
 4045W        W69206  27.947   6.747  10.688
 4046W        W69207  43.105  13.565  11.622
 4047W        W69208   9.837   5.948   0.775
 4048W        W69209  27.452   0.145  12.405
 4049W        W69210  44.787  22.860  11.375
 4050W        W69211   8.362  40.444   0.410
 4051W        W69212  42.808  33.994   4.215
 4052W        W69213  42.240  28.712  13.307
 4053W        W69214  22.978  15.639  12.051
 4054W        W69215  21.434  35.372   0.345
 4055W        W69216  28.613  37.554   3.631
 4056W        W69217  17.268  23.813  10.380
 4057W        W69218  24.220   2.909  13.836
 4058W        W69219  43.974  14.162   0.740
 4059W        W69220  29.431  21.497   0.990
 4060W        W69221  43.848  25.237  11.572
 4061W        W69222  40.020  36.359   0.898
 4062W        W69223  32.381  43.441   3.127
 4063W        W69224  20.557  26.264   4.934
 4064W        W69225  38.986  18.100   1.885
 4065W        W69226  12.259  40.788   3.080
 4066W        W69227   2.455  28.919  13.999
 4067W        W69228  43.699  18.658  14.431
 4068W        W69229  14.790   9.659  12.034
 4069W        W69230  40.252   9.133  12.527
 4070W        W69231  41.048  17.248   2.753
 4071W        W69232  19.695  18.138   0.208
 4072W        W69233  36.786  29.915  14.760
 4073W        W69234  16.569  14.176  11.672
 4074W        W69235  14.908  11.790   3.025
 4075W        W69236  44.765  36.926  11.240
 4076W        W69237   5.299   3.849  12.560
 4077W        W69238   6.319  37.780   4.532
 4078W        W69239  29.549  36.864   3.476
 4079W        W69240   0.211  29.102   2.475
 4080W        W69241   0.770   8.781   2.800
 4081W        W69242  39.035  32.645   3.897
 4082W        W69243  44.055  34.134   3.785
 4083W        W69244  44.885  30.474   4.812
 4084W        W69245  36.547  44.616   1.868
 4085W        W69246  11.655   7.636   3.100
 4086W        W69247  13.664  32.420  13.099
 4087W        W69248  16.228   6.870   3.844
 4088W        W69249   9.412  31.084  12.119
 4089W        W69250  42.975  25.145  12.949
 4090W        W69251  12.797  36.841  14.347
 4091W        W69252  20.547  39.808   3.302
 4092W        W69253  24.485  31.386  13.982
 4093W        W69254  42.487  10.597  10.976
 4094W        W69255   3.329   9.578   1.244
 4095W        W69256  14.186  11.090   4.612
 4096W        W69257   7.144   1.814  11.653
 4097W        W69258  34.947   3.812  13.983
 4098W        W69259   6.799   5.580  12.006
 4099W        W69260  39.588  10.328  14.911
 4100W        W69261  12.295  29.023  10.608
 4101W        W69262  14.308  11.621  13.886
 4102W        W69263   5.417  12.592   1.585
 4103W        W69264  33.919  21.184  11.082
 4104W        W69265  27.077  25.386   4.568
 4105W        W69266   5.442  17.131  11.619
 4106W        W69267  35.993  20.362   0.588
 4107W        W69268  42.318  33.890  12.468
 4108W        W69269  24.707  12.490   0.286
 4109W        W69270   7.683  42.834   2.861
 4110W        W69271  23.057  11.668  13.917
 4111W        W69272  33.049  44.712   2.303
 4112W        W69273   6.666  12.129  11.450
 4113W        W69274  18.239  14.891   3.596
 4114W        W69275  32.588  26.177  13.313
 4115W        W69276  24.008  15.653  14.004
 4116W        W69277  24.474   4.674   2.081
 4117W        W69278  14.821  29.274   4.363
 4118W        W69279   6.723  44.096  11.757
 4119W        W69280  29.966  23.949  13.497
 4120W        W69281  11.812   6.228   2.251
 4121W        W69282  38.154  24.716   3.816
 4122W        W69283   3.206  36.091  10.974
 4123W        W69284  31.625  17.832  12.137
 4124W        W69285  14.889  23.674   3.792
 4125W        W69286  32.535  12.098  14.901
 4126W        W69287  40.427  36.311  14.271
 4127W        W69288  44.419   2.231  11.576
 4128W        W69289  24.026   3.225  10.242
 4129W        W69290  24.181  33.748   0.392
 4130W        W69291  31.230  15.877   5.095
 4131W        W69292   4.900  21.677  14.809
 4132W        W69293  43.798  38.088   2.292
 4133W        W69294  13.257  13.179  12.463
 4134W        W69295  33.934  32.989   1.447
 4135W        W69296  25.616  42.034  12.229
 4136W        W69297  22.714  27.884   5.088
 4137W        W69298  31.615  26.017  12.884
 4138W        W69299  42.475  15.115   4.096
 4139W        W69300  44.408  21.712  10.597
 4140W        W69301   1.667  43.382  10.728
 4141W        W69302  19.848  39.288   3.987
 4142W        W69303  15.110  21.681   1.028
 4143W        W69304  26.388  42.608  12.741
 4144W        W69305   6.512   4.654  13.502
 4145W        W69306  25.409  24.975   1.273
 4146W        W69307   7.247   7.631  12.877
 4147W        W69308  16.721  20.539  14.330
 4148W        W69309  21.307   0.556   2.617
 4149W        W69310  25.534   5.467   4.439
 4150W        W69311   0.142   3.900   3.143
 4151W        W69312   0.313  11.278  12.806
 4152W        W69313  16.051  35.907   3.227
 4153W        W69314   5.719  37.815  11.042
 4154W        W69315  35.344  28.620   1.550
 4155W        W69316  24.111  34.940  14.120
 4156W        W69317  14.093   3.342  11.091
 4157W        W69318  26.346  34.543   4.523
 4158W        W69319  16.629  23.679   0.664
 4159W        W69320  27.848  44.785   2.026
 4160W        W69321  23.713  23.868  11.792
 4161W        W69322   0.224  14.279  10.874
 4162W        W69323  31.152  39.535  12.242
 4163W        W69324   0.578   3.468   0.792
 4164W        W69325   3.151  14.343   3.795
 4165W        W69326   6.769  33.208   1.363
 4166W        W69327  29.935  27.389  14.450
 4167W        W69328  18.245   9.829   2.864
 4168W        W69329  20.186   3.682  13.031
 4169W        W69330   1.240  34.060  12.494
 4170W        W69331  21.666   2.329   0.705
 4171W        W69332  35.989  23.415  13.343
 4172W        W69333  23.658  32.481  13.047
 4173W        W69334   1.480  16.911   4.397
 4174W        W69335  12.142   7.215   3.675
 4175W        W69336   3.646  28.640   4.321
 4176W        W69337  20.183  43.130   9.501
 4177W        W69338  21.646  39.194  13.007
 4178W        W69339  28.243  18.645   0.832
 4179W        W69340   6.118  36.458   1.784
 4180W        W69341  20.176   9.753   1.380
 4181W        W69342  31.696   4.047   3.600
 4182W        W69343  11.638   5.215   0.035
 4183W        W69344  20.198  30.448  12.531
 4184W        W69345  14.418  41.753  12.343
 4185W        W69346  17.371  15.524   2.834
 4186W        W69347  37.718   4.328   2.738
 4187W        W69348   3.372   3.043   4.546
 4188W        W69349  43.492  42.825  10.886
 4189W        W69350  24.231  28.897   3.896
 4190W        W69351  18.122  10.361  11.711
 4191W        W69352   2.799  30.094   1.389
 4192W        W69353  23.648   0.334  14.198
 4193W        W69354  29.985   9.176   2.329
 4194W        W69355  20.252  28.216  11.154
 4195W        W69356  37.550   9.601  13.958
 4196W        W69357  32.485  21.573   1.279
 4197W        W69358   9.705  22.847  12.724
 4198W        W69359  30.710  43.091  14.963
 4199W        W69360  26.186   1.741  11.656
 4200W        W69361   6.238  21.753   2.268
 4201W        W69362  19.137  12.168   2.737
 4202W        W69363   3.873  27.731   2.166
 4203W        W69364  24.094  24.699   4.621
 4204W        W69365  30.699  10.646   1.810
 4205W        W69366  21.688   3.503   3.597
 4206W        W69367   3.323  28.447  11.605
 4207W        W69368  28.980  10.621  13.865
 4208W        W69369  33.671   7.804  13.766
 4209W        W69370  29.875   1.216  14.056
 4210W        W69371  13.219  16.494   0.330
 4211W        W69372  38.215   9.853  13.032
 4212W        W69373   1.189   2.584   2.389
 4213W        W69374  36.472  25.178   1.219
 4214W        W69375   4.887  12.231   3.743
 4215W        W69376   3.949  43.554   0.940
 4216W        W69377  29.762   3.191   1.740
 4217W        W69378   5.375  32.457  11.150
 4218W        W69379  14.501  10.701   2.828
 4219W        W69380  33.026  28.368   3.885
 4220W        W69381  25.336  44.349   4.344
 4221W        W69382  19.527  31.236  11.987
 4222W        W69383  40.956  30.670   4.062
 4223W        W69384  36.441  16.775   2.289
 4224W        W69385   8.099  23.143  10.650
 4225W        W69386  22.827  41.757  12.389
 4226W        W69387  26.531   6.492   2.311
 4227W        W69388  22.991  37.377  14.444
 4228W        W69389  12.095  19.660   0.339
 4229W        W69390  37.073  10.727  14.535
 4230W        W69391   1.390  10.549   4.332
 4231W        W69392  28.364  11.232   0.802
 4232W        W69393  23.821  34.033   4.318
 4233W        W69394  43.982  30.981   0.814
 4234W        W69395   9.377  24.740  11.859
 4235W        W69396   8.595   7.997   0.885
 4236W        W69397   1.741   7.191   0.857
 4237W        W69398  43.718  18.236  14.104
 4238W        W69399  32.770  16.089  12.966
 4239W        W69400  27.501  22.868   2.858
 4240W        W69401   6.224  41.964  13.942
 4241W        W69402  34.825  25.745  13.621
 4242W        W69403   9.034  28.618   0.262
 4243W        W69404   9.429  43.383  11.422
 4244W        W69405  35.444  12.745   4.541
 4245W        W69406  22.594   5.317   4.045
 4246W        W69407  21.055   4.537  14.478
 4247W        W69408  31.278   6.915  11.178
 4248W        W69409  24.242  25.477   5.011
 4249W        W69410  20.572   0.500   3.387
 4250W        W69411  40.963  25.642  14.217
 4251W        W69412   5.835  12.145  10.497
 4252W        W69413  43.482  42.984  12.923
 4253W        W69414  16.977  20.226  13.146
 4254W        W69415   4.889  23.476   1.791
 4255W        W69416  37.761  33.181  10.910
 4256W        W69417  44.640  18.370  14.407
 4257W        W69418  30.707  19.852   1.271
 4258W        W69419   9.689  40.904   1.300
 4259W        W69420  37.889  31.186   4.611
 4260W        W69421  20.706  35.847  10.715
 4261W        W69422  39.487   7.848   1.216
 4262W        W69423  19.625  26.675   1.368
 4263W        W69424   4.360  33.460  13.330
 4264W        W69425  18.480  25.165   1.705
 4265W        W69426   2.783  24.588   1.367
 4266W        W69427  21.984   1.393  13.622
 4267W        W69428  38.228  13.248  11.875
 4268W        W69429  19.362  42.095  11.709
 4269W        W69430   3.716  32.804   4.614
 4270W        W69431  39.064   6.526   9.873
 4271W        W69432  34.174  24.422   3.237
 4272W        W69433  26.903   3.697   4.092
 4273W        W69434   6.918   5.668   3.335
 4274W        W69435   3.459  39.465   2.232
 4275W        W69436  23.565  20.542   0.858
 4276W        W69437  41.521   8.155   1.750
 4277W        W69438  22.642  25.166   4.488
 4278W        W69439  38.961  33.140  14.783
 4279W        W69440   5.546  12.373   2.935
 4280W        W69441   7.572  23.068   4.611
 4281W        W69442   1.934  12.831  10.913
 4282W        W69443  14.601  21.502  14.792
 4283W        W69444  36.368  38.979  13.943
 4284W        W69445  23.530  44.546  10.499
 4285W        W69446  18.733  33.991   1.334
 4286W        W69447  19.072  32.967   1.383
 4287W        W69448  34.134  42.307  14.232
 4288W        W69449  25.842  43.760   0.314
 4289W        W69450  31.388  37.343  14.364
 4290W        W69451  32.970   9.283   3.541
 4291W        W69452  24.946   9.483   5.363
 4292W        W69453  38.551  25.254  12.512
 4293W        W69454  17.065  25.122  11.941
 4294W        W69455  29.350   3.480   1.270
 4295W        W69456  23.582  22.950  11.352
 4296W        W69457   8.355  12.273  12.421
 4297W        W69458  17.026  39.115   1.799
 4298W        W69459   8.743   1.353  13.301
 4299W        W69460  32.612  21.049  13.842
 4300W        W69461  38.449  30.617   3.774
 4301W        W69462  42.088  34.870  12.518
 4302W        W69463  43.342   4.762  14.859
 4303W        W69464  41.266  11.591  11.084
 4304W        W69465  38.217  37.851   4.246
 4305W        W69466   8.161  34.896   0.414
 4306W        W69467  41.006  35.552  10.729
 4307W        W69468  15.790   0.862  14.547
 4308W        W69469   4.829  23.251  11.144
 4309W        W69470  37.408  29.166  12.929
 4310W        W69471   6.370  30.982   1.293
 4311W        W69472  41.858  18.632  11.427
 4312W        W69473  29.397  37.228  13.068
 4313W        W69474  24.172  26.747  10.750
 4314W        W69475  30.004  18.063   0.836
 4315W        W69476  40.660  10.356  11.486
 4316W        W69477   6.772  19.476   0.095
 4317W        W69478  12.407  20.250   4.137
 4318W        W69479  31.426  17.265   3.343
 4319W        W69480  24.557   0.375   2.392
 4320W        W69481  33.967  17.149   1.860
 4321W        W69482  11.237  26.629   2.899
 4322W        W69483  25.754   6.954  12.808
 4323W        W69484   9.208  10.302   2.387
 4324W        W69485  11.382  28.453  11.123
 4325W        W69486  24.412   6.437   1.705
 4326W        W69487   6.465  41.800   1.696
 4327W        W69488  11.567   3.813   0.563
 4328W        W69489  44.380  29.203   3.687
 4329W        W69490  16.594   6.665  12.443
 4330W        W69491  32.183  25.842   0.804
 4331W        W69492   4.671  21.837  14.338
 4332W        W69493  42.841  22.072   4.468
 4333W        W69494   4.440  18.169  11.231
 4334W        W69495   6.518  28.864   0.911
 4335W        W69496   4.920  20.721   2.770
 4336W        W69497  38.646  40.446  13.876
 4337W        W69498  23.008  26.897   2.261
 4338W        W69499  43.344  28.442   0.983
 4339W        W69500  16.528  19.544   2.335
 4340W        W69501   3.258  21.677   3.230
 4341W        W69502   7.688  43.255   3.382
 4342W        W69503  13.425  10.791  12.024
 4343W        W69504   8.991  27.672  10.271
 4344W        W69505  37.415  37.653   0.997
 4345W        W69506  38.892   7.895   4.078
 4346W        W69507  44.271  23.590  11.088
 4347W        W69508  31.109  12.846  11.372
 4348W        W69509  10.241  19.830  10.275
 4349W        W69510  37.442  35.360   3.415
 4350W        W69511  15.071   2.791   3.390
 4351W        W69512  34.184  40.788   3.154
 4352W        W69513  29.541  41.562  13.570
 4353W        W69514  36.630  38.064   4.765
 4354W        W69515  32.833   4.181  13.833
 4355W        W69516  37.324  16.147  11.987
 4356W        W69517  32.650  38.997  13.108
 4357W        W69518  44.553  14.169  10.744
 4358W        W69519  27.594  10.367   0.694
 4359W        W69520  10.124  21.075   2.425
 4360W        W69521  33.765  37.549  10.266
 4361W        W69522  37.941   6.101   2.109
 4362W        W69523  44.312   3.566   4.268
 4363W        W69524  34.072  41.443   0.361
 4364W        W69525  44.892  34.575   5.207
 4365W        W69526  27.267  11.195   2.623
 4366W        W69527  25.167  40.539  10.311
 4367W        W69528  16.831  21.234   2.763
 4368W        W69529  24.265   2.201   4.099
 4369W        W69530  22.880  13.410  12.554
 4370W        W69531  43.923  21.160  12.630
 4371W        W69532   5.624   1.740   3.826
 4372W        W69533  17.756   5.392  13.183
 4373W        W69534  33.497  25.699  10.408
 4374W        W69535   3.739  37.500  12.997
 4375W        W69536  29.887  17.224   1.245
 4376W        W69537  31.541  36.564   3.729
 4377W        W69538  40.594  32.808   5.066
 4378W        W69539  30.091  25.741   3.458
 4379W        W69540  26.599  22.165  11.471
 4380W        W69541  22.214  41.644  13.341
 4381W        W69542  28.066  23.718   0.327
 4382W        W69543  43.573  34.309   0.348
 4383W        W69544  29.002  36.909   0.696
 4384W        W69545  34.908  29.610   3.788
 4385W        W69546  44.079   9.360   4.779
 4386W        W69547  34.682  10.674   4.584
 4387W        W69548  22.289  23.728  13.100
 4388W        W69549  28.469  28.252  13.897
 4389W        W69550  35.276  16.243  10.924
 4390W        W69551  40.306   5.807   3.343
 4391W        W69552  41.675  32.197   3.822
 4392W        W69553  35.000  25.653  12.618
 4393W        W69554   2.454   9.308  13.277
 4394W        W69555   3.900  41.056  14.725
 4395W        W69556  44.490  26.030  10.999
 4396W        W69557  30.557   0.506   0.803
 4397W        W69558   1.644   2.305   3.291
 4398W        W69559   1.845  14.645  12.610
 4399W        W69560  22.740  30.955   1.174
 4400W        W69561   1.781  21.619  12.420
 4401W        W69562  23.080  28.182   0.453
 4402W        W69563  28.180  37.406   3.408
 4403W        W69564  30.601  25.995  12.963
 4404W        W69565  30.687  22.224   9.783
 4405W        W69566  40.504  38.113   1.200
 4406W        W69567  18.530   9.636   3.554
 4407W        W69568  28.219  11.854   3.361
 4408W        W69569  11.364  30.582   2.783
 4409W        W69570  35.983  22.351   2.476
 4410W        W69571  20.777  13.297  14.443
 4411W        W69572   9.291  31.590  12.053
 4412W        W69573   4.326  29.423  11.410
 4413W        W69574  38.633   5.353   3.732
 4414W        W69575  10.241   8.136   4.723
 4415W        W69576  36.401   9.937  14.296
 4416W        W69577  24.995  32.806   4.639
 4417W        W69578  37.307  37.644  11.516
 4418W        W69579  17.564  19.291  14.058
 4419W        W69580  16.555  33.467   0.603
 4420W        W69581   1.205  35.332   0.476
 4421W        W69582  39.775  15.950   1.468
 4422W        W69583   3.980  24.612  14.669
 4423W        W69584  35.450   5.750   2.882
 4424W        W69585   3.922  33.627  14.347
 4425W        W69586  44.431   2.319  14.916
 4426W        W69587  12.824  12.435  12.573
 4427W        W69588  22.741  20.664   2.213
 4428W        W69589  43.001  12.358  11.138
 4429W        W69590  21.893   4.284  13.872
 4430W        W69591   9.567  14.159  11.605
 4431W        W69592  35.965  39.549   0.388
 4432W        W69593  40.248  15.381  10.398
 4433W        W69594  44.540  44.220   4.267
 4434W        W69595  35.853  29.462  12.301
 4435W        W69596  42.326  19.044   2.280
 4436W        W69597  18.994  16.585  14.969
 4437W        W69598   8.270   1.260   0.356
 4438W        W69599  18.747  22.214   0.447
 4439W        W69600   1.720  29.664   0.765
 4440W        W69601  27.605  16.388   3.356
 4441W        W69602   3.061   3.547  14.278
 4442W        W69603  17.805   0.964   3.189
 4443W        W69604   1.188  26.361  11.104
 4444W        W69605  31.711  25.915   4.594
 4445W        W69606  35.908  18.814   1.847
 4446W        W69607  27.195  42.534  14.456
 4447W        W69608  14.835  41.935  14.285
 4448W        W69609   5.445  10.747   3.639
 4449W        W69610  39.396   0.526  14.947
 4450W        W69611  25.696  38.395  11.592
 4451W        W69612   1.896  10.413  12.863
 4452W        W69613  19.582  41.745   3.985
 4453W        W69614  24.914  38.820   1.140
 4454W        W69615   3.817  10.411   1.623
 4455W        W69616  30.682  37.149  12.007
 4456W        W69617  19.031   7.176   1.706
 4457W        W69618  26.604  30.204  13.035
 4458W        W69619  39.309  24.649   4.802
 4459W        W69620  37.562  24.526   4.610
 4460W        W69621  20.157  34.465   0.499
 4461W        W69622  42.527  10.066   2.779
 4462W        W69623  11.198  42.495   2.866
 4463W        W69624   6.926  31.607  12.695
 4464W        W69625   8.362  16.132   0.297
 4465W        W69626   3.124  41.414   2.874
 4466W        W69627  39.841  13.247  12.513
 4467W        W69628   7.950  13.915  11.132
 4468W        W69629  17.760  32.578   3.634
 4469W        W69630   7.946  19.120   1.988
 4470W        W69631   5.741  44.964  12.058
 4471W        W69632  18.611  17.541   3.446
 4472W        W69633  29.520  20.585  14.094
 4473W        W69634  13.514  43.121  10.101
 4474W        W69635  43.331  43.865   4.487
 4475W        W69636  38.937  35.959  10.809
 4476W        W69637   4.360  31.600   4.596
 4477W        W69638   8.281  41.398  10.716
 4478W        W69639  34.807   3.555   2.592
 4479W        W69640  34.504  24.177  13.874
 4480W        W69641  19.124  37.540   0.060
 4481W        W69642   1.706  31.705  12.797
 4482W        W69643  28.228  40.367   2.317
 4483W        W69644  29.479  38.759  14.630
 4484W        W69645  31.396   1.463  14.964
 4485W        W69646  28.156  21.689   2.634
 4486W        W69647   3.376  11.232   3.350
 4487W        W69648   6.473  25.249  14.737
 4488W        W69649  15.310  37.945   4.165
 4489W        W69650  35.569  12.169  13.095
 4490W        W69651   7.595  12.730  14.877
 4491W        W69652  27.203  22.270   3.883
 4492W        W69653  15.305  23.973  14.529
 4493W        W69654  18.850  27.222  12.936
 4494W        W69655  20.845  19.126   3.087
 4495W        W69656  25.634  43.608   4.076
 4496W        W69657  31.949   5.176  12.472
 4497W        W69658  35.632   1.339  11.397
 4498W        W69659   0.023  17.656   4.943
 4499W        W69660  18.713  36.890   4.309
 4500W        W69661  38.125   8.497  12.064
 4501W        W69662  37.418  25.047   4.604
 4502W        W69663  19.571  36.307   1.388
 4503W        W69664  42.122   0.923  13.405
 4504W        W69665   2.329  39.527   3.524
 4505W        W69666  34.430   7.469   4.825
 4506W        W69667   9.876  18.086   1.716
 4507W        W69668  28.918  11.902   5.015
 4508W        W69669   8.022   4.762   1.668
 4509W        W69670  34.815   5.428  11.395
 4510W        W69671  19.570   8.415   3.510
 4511W        W69672  31.706   1.350  13.463
 4512W        W69673  21.211  11.582  11.145
 4513W        W69674  37.740  19.021  13.486
 4514W        W69675   3.922   0.695  14.071
 4515W        W69676  22.239  26.179  14.044
 4516W        W69677  35.270  42.965  14.361
 4517W        W69678  19.130  39.791  13.787
 4518W        W69679  30.759   2.515   3.638
 4519W        W69680   2.002  37.316   0.855
 4520W        W69681  36.833  13.772   0.358
 4521W        W69682  40.980   9.355   1.805
 4522W        W69683   9.058   6.354  11.515
 4523W        W69684  16.332   0.168   2.500
 4524W        W69685  15.085  18.058   3.967
 4525W        W69686  28.765  38.971  11.602
 4526W        W69687  25.974  32.961   2.296
 4527W        W69688   5.177  20.763  11.903
 4528W        W69689  26.200  20.750   0.771
 4529W        W69690  38.490  17.527   1.328
 4530W        W69691  15.695  18.495  13.463
 4531W        W69692  16.509   5.375  11.007
 4532W        W69693  16.869  21.574   1.258
 4533W        W69694  37.471  41.064   0.276
 4534W        W69695  36.996  18.037  14.759
 4535W        W69696   0.959  15.764   3.729
 4536W        W69697  36.640  43.765   2.835
 4537W        W69698  15.791  27.253   3.377
 4538W        W69699  16.249  38.958   0.437
 4539W        W69700  10.320  24.750  11.961
 4540W        W69701  11.312  24.465   3.386
 4541W        W69702  11.727  39.762  11.648
 4542W        W69703  20.713   9.023   2.326
 4543W        W69704  10.361  29.326  11.350
 4544W        W69705   2.907  18.472   4.502
 4545W        W69706  44.320  23.567  10.057
 4546W        W69707  26.699  40.481  11.782
 4547W        W69708  20.075  13.629  12.090
 4548W        W69709  36.879   9.797   1.862
 4549W        W69710   7.817  19.134   4.182
 4550W        W69711  22.879  34.886   0.297
 4551W        W69712   9.460  10.183   3.809
 4552W        W69713   6.360  11.335   2.316
 4553W        W69714  43.711  27.518  13.513
 4554W        W69715  25.871   3.221   1.472
 4555W        W69716   3.175  36.433   1.629
 4556W        W69717  16.783  24.367   0.406
 4557W        W69718   0.199  34.670  11.020
 4558W        W69719  36.526  27.857   1.500
 4559W        W69720  29.457   2.001  13.944
 4560W        W69721   1.314   3.680  14.977
 4561W        W69722   5.401  24.498  11.400
 4562W        W69723   8.177  29.289  10.913
 4563W        W69724   3.212   8.947   2.671
 4564W        W69725  33.562   5.691  13.417
 4565W        W69726  31.941   9.876   2.855
 4566W        W69727  29.959  18.482   4.106
 4567W        W69728   8.812  18.929  11.625
 4568W        W69729  35.684  32.894  13.275
 4569W        W69730  36.845  23.373  13.103
 4570W        W69731  22.482  31.984  14.416
 4571W        W69732  14.342  35.163  11.542
 4572W        W69733  11.292   4.523  10.533
 4573W        W69734   4.818   2.737  11.820
 4574W        W69735  43.228  20.623   3.861
 4575W        W69736  31.122   0.863   4.620
 4576W        W69737  39.369  20.529   3.906
 4577W        W69738  39.132  15.817  11.120
 4578W        W69739  10.748  30.426  11.462
 4579W        W69740  44.891  44.480  10.661
 4580W        W69741  38.774  12.680  12.766
 4581W        W69742  34.981   8.861  11.095
 4582W        W69743  29.223   8.245  11.118
 4583W        W69744  44.692  41.469   4.745
 4584W        W69745   0.372  35.783   3.091
 4585W        W69746  13.839  16.518  12.049
 4586W        W69747   6.112  19.457   1.668
 4587W        W69748   9.340   4.103   1.486
 4588W        W69749  40.231  17.808  14.830
 4589W        W69750  29.528  16.757   5.056
 4590W        W69751  15.307  30.909   3.316
 4591W        W69752  35.450   3.464   4.671
 4592W        W69753  23.783  29.363  11.660
 4593W        W69754  39.359  11.224   3.337
 4594W        W69755   8.190  12.406   4.063
 4595W        W69756  37.917  35.441  13.126
 4596W        W69757   4.758  27.125  12.995
 4597W        W69758   4.756  43.214  14.649
 4598W        W69759  12.290  44.996  13.813
 4599W        W69760  11.600  25.123   0.210
 4600W        W69761  16.977  13.859  11.518
 4601W        W69762  17.979  32.410  14.099
 4602W        W69763  41.643  36.315  11.717
 4603W        W69764   3.779  13.855   5.385
 4604W        W69765  29.814  16.232  13.023
 4605W        W69766  33.060   6.488   2.144
 4606W        W69767  18.609  23.798  14.762
 4607W        W69768  24.561  13.621   1.943
 4608W        W69769  18.479   3.014  14.606
 4609W        W69770   1.012   6.162  10.400
 4610W        W69771  33.462   0.015   2.321
 4611W        W69772  32.974  15.622  10.735
 4612W        W69773  20.225   4.369  11.695
 4613W        W69774  26.865  12.894   3.158
 4614W        W69775  43.525  36.465  11.759
 4615W        W69776  11.133  22.055   0.789
 4616W        W69777  42.002  30.209   0.434
 4617W        W69778  15.167  12.425  12.885
 4618W        W69779  26.649   8.145   4.962
 4619W        W69780  38.537  21.930  14.872
 4620W        W69781  31.660  14.803  11.621
 4621W        W69782  21.613  39.652  13.962
 4622W        W69783  20.502  43.838   1.423
 4623W        W69784   8.500   4.589  11.659
 4624W        W69785  20.120  19.140  13.924
 4625W        W69786  25.108  21.343  11.746
 4626W        W69787  30.447  32.996   0.025
 4627W        W69788  25.029   5.265   4.553
 4628W        W69789   8.979  23.303  12.456
 4629W        W69790  14.125  37.295  13.057
 4630W        W69791  21.684  43.081  10.756
 4631W        W69792  18.493  15.804   0.944
 4632W        W69793  27.497   8.621   4.977
 4633W        W69794  40.497  41.251  10.282
 4634W        W69795  12.294  17.557  10.782
 4635W        W69796  18.563  26.791  10.806
 4636W        W69797  31.615  13.946   0.889
 4637W        W69798  16.927   7.871  11.684
 4638W        W69799   6.819  20.334   3.662
 4639W        W69800  26.543   4.285  10.829
 4640W        W69801  31.892  42.280  12.494
 4641W        W69802  31.435  18.129  14.256
 4642W        W69803  39.087  23.440   4.231
 4643W        W69804  32.977  11.951  10.334
 4644W        W69805  40.241   6.484   0.010
 4645W        W69806  36.773  20.139  11.533
 4646W        W69807  28.067  34.579  13.964
 4647W        W69808  32.933  23.737  11.626
 4648W        W69809  13.771  16.975  10.983
 4649W        W69810  29.596  21.769  14.844
 4650W        W69811  24.760  12.709  14.160
 4651W        W69812   3.815  23.574  13.286
 4652W        W69813  18.474  29.033   4.095
 4653W        W69814  27.340  26.964   1.823
 4654W        W69815  19.770  21.355  14.107
 4655W        W69816  22.594  20.411   5.039
 4656W        W69817   7.731  27.777   1.166
 4657W        W69818  21.269  21.703   2.136
 4658W        W69819  42.506  38.469   2.698
 4659W        W69820  26.659  27.988   2.226
 4660W        W69821  31.047  42.061  13.511
 4661W        W69822  25.821  19.899   4.932
 4662W        W69823  27.463  29.601   2.468
 4663W        W69824  41.904  24.960   2.872
 4664W        W69825  37.616  27.033  13.871
 4665W        W69826   3.070  44.487   0.289
 4666W        W69827  43.925  32.036  12.051
 4667W        W69828  30.976  21.233  12.985
 4668W        W69829   1.858  10.809   4.254
 4669W        W69830  15.212  35.594   2.400
 4670W        W69831  11.003  41.003  10.695
 4671W        W69832  43.425  12.187   2.815
 4672W        W69833  37.971  27.881  10.885
 4673W        W69834   2.519   8.321   1.358
 4674W        W69835  39.420   4.956   3.706
 4675W        W69836  37.957  42.844   3.183
 4676W        W69837  25.804  18.114   3.250
 4677W        W69838  15.080  20.163   2.281
 4678W        W69839   9.430  33.074   4.294
 4679W        W69840  13.273  31.882  11.085
 4680W        W69841  12.710  21.674   1.247
 4681W        W69842  42.044  32.969   2.914
 4682W        W69843  42.232  44.903  10.679
 4683W        W69844  18.427  16.302   1.703
 4684W        W69845   6.767   7.484  12.996
 4685W        W69846   3.580  11.709   2.590
 4686W        W69847  31.020  17.735   4.849
 4687W        W69848   4.139   8.299   0.329
 4688W        W69849  10.364  15.621   0.922
 4689W        W69850  36.397  36.121  14.503
 4690W        W69851   2.763  30.412  10.591
 4691W        W69852  37.258   8.782   5.032
 4692W        W69853  28.989  14.763  11.536
 4693W        W69854  33.366  19.537   1.078
 4694W        W69855  20.523  36.998  13.080
 4695W        W69856   0.461  30.573   3.210
 4696W        W69857  27.237  19.845   1.886
 4697W        W69858   4.388   2.718  10.768
 4698W        W69859  19.062  33.486  11.559
 4699W        W69860  22.987  13.063   2.479
 4700W        W69861  14.615  35.121  13.825
 4701W        W69862   5.642  10.780  11.537
 4702W        W69863  24.257  27.479   0.828
 4703W        W69864  35.714  29.163   0.203
 4704W        W69865  19.071  22.356  13.603
 4705W        W69866  11.473  32.510  10.627
 4706W        W69867  25.700  14.841  13.455
 4707W        W69868  18.788  44.559  10.505
 4708W        W69869  39.442   3.417   2.225
 4709W        W69870  43.832  31.187   1.710
 4710W        W69871  21.711   7.694   0.864
 4711W        W69872  24.601  44.521  13.642
 4712W        W69873  41.865  32.184  12.768
 4713W        W69874  22.038  17.231  12.109
 4714W        W69875  41.994   8.391   2.749
 4715W        W69876   5.849   2.712  10.686
 4716W        W69877  33.609  28.555   4.684
 4717W        W69878  35.938  38.933  13.474
 4718W        W69879  28.163   9.610  14.030
 4719W        W69880  21.099   5.630   3.524
 4720W        W69881  30.565  38.344  12.502
 4721W        W69882  21.745  16.554  14.519
 4722W        W69883  24.744  24.073  13.875
 4723W        W69884   2.377  21.269  10.174
 4724W        W69885  27.872  27.243   2.621
 4725W        W69886  39.809  28.147   2.649
 4726W        W69887  24.145  20.729   0.028
 4727W        W69888   3.970  38.402  13.027
 4728W        W69889  35.076  22.061  12.121
 4729W        W69890  23.974  18.039  10.665
 4730W        W69891   0.372  13.142   2.690
 4731W        W69892  26.992  25.650   1.412
 4732W        W69893  43.925  39.553  12.952
 4733W        W69894  16.191  20.020  11.478
 4734W        W69895  36.301  14.750  14.062
 4735W        W69896  11.241  30.169  11.120
 4736W        W69897  10.405  39.880  11.303
 4737W        W69898  10.143   8.186   1.814
 4738W        W69899  12.322  22.172   2.198
 4739W        W69900  13.327  17.562  12.406
 4740W        W69901   4.780  20.116  10.876
 4741W        W69902  34.866  41.074  12.405
 4742W        W69903  18.618  18.244  13.406
 4743W        W69904  31.883   3.769  12.332
 4744W        W69905  18.186  23.272   1.453
 4745W        W69906  25.855  36.719  11.436
 4746W        W69907  10.656  11.437  14.546
 4747W        W69908  38.904  34.110  13.804
 4748W        W69909   3.368  22.947  11.914
 4749W        W69910  22.847  33.967  14.863
 4750W        W69911  32.069  18.480   1.226
 4751W        W69912  13.470  30.542   0.532
 4752W        W69913  29.163  32.170  11.964
 4753W        W69914  39.642   4.347  11.609
 4754W        W69915  33.784  43.325  14.897
 4755W        W69916  27.571  32.572   3.627
 4756W        W69917  22.482  40.519   0.859
 4757W        W69918  15.855  28.946  14.921
 4758W        W69919  43.455  27.671  14.935
 4759W        W69920  30.923  36.391  13.347
 4760W        W69921   8.390  36.148  13.522
 4761W        W69922   5.526  41.497  13.054
 4762W        W69923   8.686   2.761  12.369
 4763W        W69924  40.349   9.872   4.131
 4764W        W69925  36.994  43.053   4.474
 4765W        W69926  41.983  14.416   0.005
 4766W        W69927  24.523  15.654   4.869
 4767W        W69928   5.264   4.732   3.384
 4768W        W69929  24.561  37.112   2.333
 4769W        W69930  37.424  25.538   3.037
 4770W        W69931  24.036  33.201   1.543
 4771W        W69932  31.062  18.697   2.040
 4772W        W69933  19.122  18.250  12.670
 4773W        W69934  17.023  17.136   4.920
 4774W        W69935   4.436   0.110   4.356
 4775W        W69936   7.811  25.540   1.522
 4776W        W69937  20.752  44.285   1.427
 4777W        W69938  34.113  12.775   4.077
 4778W        W69939  42.366  43.289   1.619
 4779W        W69940  37.436   9.686   1.411
 4780W        W69941  12.166  17.378   4.040
 4781W        W69942  21.196  32.349  14.628
 4782W        W69943  14.604  39.354   5.606
 4783W        W69944  12.213  22.437   3.885
 4784W        W69945  22.193  23.601   1.268
 4785W        W69946  27.369  24.140  12.438
 4786W        W69947  40.505  19.762   2.691
 4787W        W69948   1.834  43.023   4.325
 4788W        W69949  42.447  36.080  13.563
 4789W        W69950  34.843  39.534   2.306
 4790W        W69951  11.305  38.906  11.592
 4791W        W69952  15.769  35.847   4.909
 4792W        W69953   5.892  39.075  12.600
 4793W        W69954  21.999  27.066   0.793
 4794W        W69955   1.429  25.510   0.211
 4795W        W69956  13.776  39.482  14.471
 4796W        W69957  31.517  17.457  14.291
 4797W        W69958  32.600  38.224  14.513
 4798W        W69959  37.314  20.072   2.871
 4799W        W69960  28.506  22.686   1.392
 4800W        W69961  41.918  43.194   1.863
 4801W        W69962  27.564  40.977   2.757
 4802W        W69963  11.574  22.218   1.004
 4803W        W69964  40.364   5.473   4.133
 4804W        W69965  28.967  41.996   0.342
 4805W        W69966  22.305   5.794   0.883
 4806W        W69967  27.248  23.517  14.717
 4807W        W69968  25.270  42.447  13.863
 4808W        W69969  15.635  11.675   1.451
 4809W        W69970   7.581  29.046  14.501
 4810W        W69971  10.324  28.261   4.215
 4811W        W69972   8.395  43.405  11.403
 4812W        W69973  34.418  13.760   2.374
 4813W        W69974   5.308   5.633   2.486
 4814W        W69975  35.738  19.413   4.800
 4815W        W69976  20.050  25.231  12.585
 4816W        W69977  42.877   4.973  14.819
 4817W        W69978  40.513  21.783   0.771
 4818W        W69979  40.850  34.381  14.805
 4819W        W69980  24.380  10.918   2.706
 4820W        W69981   1.674  29.714  11.637
 4821W        W69982  11.264   1.901  13.859
 4822W        W69983  43.317  26.991  10.899
 4823W        W69984  29.603  24.504  14.361
 4824W        W69985  23.506   6.310  11.402
 4825W        W69986  21.309   0.341   3.081
 4826W        W69987  39.369  33.024   2.726
 4827W        W69988  16.739  42.846  12.940
 4828W        W69989   3.752   6.241   0.996
 4829W        W69990   3.023   4.113  11.568
 4830W        W69991  35.653  35.295  13.900
 4831W        W69992  35.593  16.262   0.356
 4832W        W69993   4.330  10.785   3.248
 4833W        W69994   4.464  27.326   9.702
 4834W        W69995  37.807  38.779  13.035
 4835W        W69996   1.444  14.263   3.660
 4836W        W69997  17.557  26.066  13.417
 4837W        W69998  19.031  11.448   1.384
 4838W        W69999  36.654   5.301   3.734
 4839W        W70000  29.187  38.818   0.897
 4840W        W70001  32.704  20.740   0.886
 4841W        W70002  13.643  10.656   2.708
 4842W        W70003  18.002  26.680   3.668
 4843W        W70004  24.417  32.891  13.160
 4844W        W70005  18.037  42.977   4.351
 4845W        W70006  30.373  28.700  13.900
 4846W        W70007   7.672   4.344   1.789
 4847W        W70008  18.295  32.961  12.861
 4848W        W70009  22.627  32.685  12.051
 4849W        W70010  35.673  10.774  14.706
 4850W        W70011  27.259   5.137  10.279
 4851W        W70012  26.847  40.412  14.423
 4852W        W70013  11.926   6.000   4.124
 4853W        W70014  23.429   9.981   4.089
 4854W        W70015  16.109   6.851  13.511
 4855W        W70016  20.792  15.726   4.643
 4856W        W70017  25.616  12.900  14.967
 4857W        W70018  34.450   1.638  10.646
 4858W        W70019   9.829  13.466   0.011
 4859W        W70020  16.257  20.592  12.020
 4860W        W70021  28.118  30.157   4.590
 4861W        W70022  40.965   5.288   4.901
 4862W        W70023  16.039  28.973  10.575
 4863W        W70024   0.386   5.714   1.410
 4864W        W70025  24.773   0.281  10.771
 4865W        W70026  39.951   3.508   1.317
 4866W        W70027  32.295  34.433  10.871
 4867W        W70028   7.457  36.062   0.932
 4868W        W70029   2.230  12.759  12.090
 4869W        W70030  14.738  32.055   3.397
 4870W        W70031  32.192  32.934  10.725
 4871W        W70032  19.573  42.802   4.035
 4872W        W70033  16.615   0.041   5.286
 4873W        W70034  36.858  19.067   1.518
 4874W        W70035  44.985   0.573  12.041
 4875W        W70036  13.955   9.294  12.018
 4876W        W70037  38.936   4.272   3.322
 4877W        W70038  38.333  20.579   1.450
 4878W        W70039  44.379   9.848  14.503
 4879W        W70040  36.883  44.826   2.266
 4880W        W70041  31.513  37.269   3.248
 4881W        W70042  43.485   3.929  10.524
 4882W        W70043  44.864   9.924  10.520
 4883W        W70044  32.490  28.754  13.932
 4884W        W70045   7.897  18.086   3.262
 4885W        W70046   1.916  11.058   1.841
 4886W        W70047  41.831  13.656   2.453
 4887W        W70048  27.195  27.109  14.168
 4888W        W70049  10.975  12.525   3.171
 4889W        W70050   3.490  30.892  12.902
 4890W        W70051  40.831   4.883   3.061
 4891W        W70052  18.295  13.514   1.784
 4892W        W70053   5.304   6.723  11.200
 4893W        W70054   5.183  31.128   0.718
 4894W        W70055  17.399  41.769  14.945
 4895W        W70056   5.702  33.933  13.151
 4896W        W70057  35.024  27.529   0.794
 4897W        W70058  43.914  22.434  10.765
 4898W        W70059  18.477  31.329  13.350
 4899W        W70060  21.682  19.236   1.947
 4900W        W70061   1.437  32.006   2.616
 4901W        W70062   8.904  11.916  14.511
 4902W        W70063   4.232   4.330   0.145
 4903W        W70064   3.621   8.213   0.482
 4904W        W70065  31.404  42.045   4.115
 4905W        W70066   8.764   0.055   3.796
 4906W        W70067  44.480  34.980   3.236
 4907W        W70068   5.368   5.951  10.755
 4908W        W70069   0.221  16.636  14.445
 4909W        W70070  30.408  23.861  12.913
 4910W        W70071  15.719  41.779   1.495
 4911W        W70072  30.457  13.610  13.018
 4912W        W70073  41.214  10.736  13.844
 4913W        W70074  32.039  35.286  12.092
 4914W        W70075   8.353  11.570  13.401
 4915W        W70076  29.355  36.596  11.139
 4916W        W70077   0.826  25.287   3.669
 4917W        W70078  13.333  35.468   2.174
 4918W        W70079  34.445   9.199  13.104
 4919W        W70080   7.364  41.205  11.733
 4920W        W70081   2.024  16.002  10.564
 4921W        W70082  28.226  10.154  12.518
 4922W        W70083  29.602  29.512   3.713
 4923W        W70084  22.874  41.456  14.495
 4924W        W70085  26.914  22.179  10.564
 4925W        W70086  27.072  19.379  10.649
 4926W        W70087  43.338  14.750  13.292
 4927W        W70088  33.990  40.740  10.725
 4928W        W70089  22.816  22.409   2.907
 4929W        W70090  10.223   0.831   3.064
 4930W        W70091  10.085  27.039   0.005
 4931W        W70092  22.347  33.477  13.799
 4932W        W70093  40.959  11.702   3.072
 4933W        W70094  41.844  30.083  11.961
 4934W        W70095  26.264  30.748   2.032
 4935W        W70096  37.757  11.956  13.613
 4936W        W70097  39.562   6.106  11.083
 4937W        W70098   8.317  23.015  13.933
 4938W        W70099  27.157  28.485   3.590
 4939W        W70100  19.227   6.937   3.582
 4940W        W70101  33.504  14.841   3.598
 4941W        W70102  36.583  25.133  12.612
 4942W        W70103  35.419  15.719   4.616
 4943W        W70104  16.992  22.697   3.652
 4944W        W70105  16.109  33.926   1.216
 4945W        W70106  33.922   2.855   1.385
 4946W        W70107   5.251  21.141  12.989
 4947W        W70108  16.168  18.077   5.025
 4948W        W70109  37.378  26.551   2.821
 4949W        W70110  28.205   0.744   3.114
 4950W        W70111   5.771  31.514  13.952
 4951W        W70112  18.047  35.423   1.511
 4952W        W70113  31.208  32.166   2.148
 4953W        W70114  36.563  41.287   3.656
 4954W        W70115  32.271  27.470   0.180
 4955W        W70116  28.041   4.923   2.788
 4956W        W70117  41.498  20.758  13.739
 4957W        W70118   3.174  18.737  11.914
 4958W        W70119   7.729   9.135  10.908
 4959W        W70120   1.224   2.494  13.029
 4960W        W70121   4.683  21.681   2.036
 4961W        W70122  17.593  29.717  11.534
 4962W        W70123  26.420  32.281  13.670
 4963W        W70124  42.433  32.052   4.156
 4964W        W70125  24.974  34.513  11.687
 4965W        W70126  35.538   0.673  13.561
 4966W        W70127  26.800  42.739   1.911
 4967W        W70128   0.383  17.066   2.845
 4968W        W70129   4.876  28.807  13.944
 4969W        W70130  36.091  38.992  14.380
 4970W        W70131   5.368   5.749   0.366
 4971W        W70132  13.407  44.864   4.566
 4972W        W70133  29.386   5.186   3.610
 4973W        W70134   8.835  27.243  13.394
 4974W        W70135  33.070  30.870  13.484
 4975W        W70136  38.592  21.273   2.687
 4976W        W70137  36.842  15.749   2.624
 4977W        W70138  14.404  29.584   1.868
 4978W        W70139  30.445   7.279  14.367
 4979W        W70140  11.654  31.817  13.355
 4980W        W70141  34.091  40.881   1.428
 4981W        W70142  40.017  33.048   3.750
 4982W        W70143  35.483  21.421  12.586
 4983W        W70144  18.729   7.764   2.809
 4984W        W70145   0.182  29.189  11.134
 4985W        W70146  31.025  18.207   2.241
 4986W        W70147   4.655  19.198   4.665
 4987W        W70148   5.606  20.537   3.782
 4988W        W70149   0.698   8.192   3.650
 4989W        W70150  35.566  20.190  12.015
 4990W        W70151  13.853   9.845   4.129
 4991W        W70152  31.094  20.191  12.085
 4992W        W70153  17.707  32.279   4.061
 4993W        W70154  14.495  20.525  14.939
 4994W        W70155  29.226  41.551   0.333
 4995W        W70156   1.604  37.402  10.408
 4996W        W70157   6.792   5.748   3.869
 4997W        W70158  10.870  14.208  11.248
 4998W        W70159  11.909   6.260  10.691
 4999W        W70160  10.179  22.019  13.286
 5000W        W70161  24.072   5.808  14.743
 5001W        W70162  26.924  15.378   0.831
 5002W        W70163  31.863   7.900  14.918
 5003W        W70164  20.312  36.069   2.272
 5004W        W70165  17.645  42.911   4.689
 5005W        W70166  38.943  15.718   3.193
 5006W        W70167  10.624  12.183   0.947
 5007W        W70168  41.021  39.383  11.554
 5008W        W70169   4.009  26.185  13.494
 5009W        W70170  39.362  40.731   0.075
 5010W        W70171  35.043  13.136  14.333
 5011W        W70172  39.461   1.508  13.905
 5012W        W70173  33.999   2.720   0.834
 5013W        W70174   3.264  41.011  12.449
 5014W        W70175  20.310  13.261  12.598
 5015W        W70176   4.605  16.236  10.374
 5016W        W70177  18.119  25.994   0.268
 5017W        W70178  22.163  14.136  13.794
 5018W        W70179   0.029  25.469   4.224
 5019W        W70180   0.513  10.391  11.955
 5020W        W70181  27.524   5.568   4.476
 5021W        W70182   8.162   6.242  11.470
 5022W        W70183  32.915  37.106  11.829
 5023W        W70184  43.569  32.144  10.182
 5024W        W70185  26.618  22.081   4.752
 5025W        W70186   4.633  30.447   2.349
 5026W        W70187  10.239  27.217   2.612
 5027W        W70188  18.768  19.542  13.508
 5028W        W70189  28.757   9.692  14.705
 5029W        W70190  38.700  27.579   1.392
 5030W        W70191  44.775  43.079  12.621
 5031W        W70192   2.362  43.868  14.387
 5032W        W70193   8.318  25.582  14.261
 5033W        W70194   5.413  36.929  11.610
 5034W        W70195  39.836  27.967   1.659
 5035W        W70196  11.246  30.892  13.295
 5036W        W70197  17.530  20.745   2.742
 5037W        W70198  34.896  40.130  12.440
 5038W        W70199  42.063   2.785  13.424
 5039W        W70200  26.054  15.204  13.547
 5040W        W70201  28.440   6.747   1.912
 5041W        W70202  18.843  26.411   1.761
 5042W        W70203  14.697  34.178   3.677
 5043W        W70204  40.066  28.252   3.538
 5044W        W70205  12.705  36.140   4.703
 5045W        W70206  43.776  39.895  13.373
 5046W        W70207   6.479  32.148   2.285
 5047W        W70208  44.297  29.570  11.074
 5048W        W70209  28.855  41.581  12.898
 5049W        W70210  16.855  25.185   0.805
 5050W        W70211  12.163   3.131  14.874
 5051W        W70212   9.654   1.422   1.742
 5052W        W70213  16.892   2.997  14.320
 5053W        W70214  12.775  35.123  14.353
 5054W        W70215  35.501  28.430   2.526
 5055W        W70216  30.325  34.323  11.937
 5056W        W70217   0.395  29.439  10.717
 5057W        W70218  34.274  10.134   2.194
 5058W        W70219   0.829  21.078   4.510
 5059W        W70220   9.646  32.420   3.324
 5060W        W70221  23.042  17.518  12.992
 5061W        W70222  40.454  42.201   2.603
 5062W        W70223   9.827  37.540  14.673
 5063W        W70224  31.854   4.678  11.543
 5064W        W70225  14.336  16.791   2.187
 5065W        W70226  36.497  27.152  14.878
 5066W        W70227   0.712  23.730   4.605
 5067W        W70228  10.096   2.137   2.963
 5068W        W70229  12.760  31.244   0.194
 5069W        W70230  24.496  13.767   0.921
 5070W        W70231  28.955  36.383  13.618
 5071W        W70232  40.352   0.937  12.966
 5072W        W70233   1.149   6.670   1.412
 5073W        W70234   0.283  43.090  13.013
 5074W        W70235  24.372  14.900   0.929
 5075W        W70236  11.029  25.881   3.693
 5076W        W70237   4.466  37.111  11.982
 5077W        W70238  11.097  19.285   3.640
 5078W        W70239  44.416  42.838  10.892
 5079W        W70240  18.332  24.180   5.070
 5080W        W70241  21.795  19.408   3.439
 5081W        W70242  36.789   1.562   3.327
 5082W        W70243  10.261  19.575  11.088
 5083W        W70244   1.723  19.982  11.540
 5084W        W70245  22.671  10.178  13.357
 5085W        W70246  23.647  16.410   2.738
 5086W        W70247  19.602  23.575   5.544
 5087W        W70248  41.194  14.609  11.640
 5088W        W70249  24.547  17.286  12.085
 5089W        W70250   4.728  35.234   1.737
 5090W        W70251  31.489  18.153   0.519
 5091W        W70252  31.890  11.434  13.865
 5092W        W70253  19.864   0.915   9.979
 5093W        W70254  24.681  28.969  14.348
 5094W        W70255  24.000  12.764   1.603
 5095W        W70256  26.685  22.333   1.975
 5096W        W70257  16.124  13.129   3.147
 5097W        W70258   2.987  41.386   1.872
 5098W        W70259  23.229  28.726   2.663
 5099W        W70260  16.835  29.232  13.776
 5100W        W70261  15.555  18.749  11.676
 5101W        W70262  28.332   6.813   4.639
 5102W        W70263  20.258   7.433  14.544
 5103W        W70264  16.793  23.365   0.165
 5104W        W70265  26.251  40.929  11.091
 5105W        W70266  20.099  27.686  12.211
 5106W        W70267  25.139  11.780  11.806
 5107W        W70268  37.972  27.600  13.501
 5108W        W70269  17.330   5.392  12.406
 5109W        W70270  14.184  28.158  14.627
 5110W        W70271  37.483  17.487   3.072
 5111W        W70272  32.027  12.246   3.757
 5112W        W70273  18.717  18.629   4.269
 5113W        W70274   0.027  35.432   2.364
 5114W        W70275  43.054  44.063   2.277
 5115W        W70276  35.856   0.444   4.286
 5116W        W70277  40.939  16.107   1.513
 5117W        W70278   4.323  35.154  11.122
 5118W        W70279   9.275  25.727  10.563
 5119W        W70280  29.667  18.373  14.557
 5120W        W70281  18.284  29.983  14.989
 5121W        W70282  31.062  29.148  12.060
 5122W        W70283  26.096  26.204  13.050
 5123W        W70284  17.103   5.000   3.286
 5124W        W70285  11.261  31.239   3.623
 5125W        W70286  29.202  12.107   5.387
 5126W        W70287   7.205  41.946  12.427
 5127W        W70288  26.367  36.133  12.029
 5128W        W70289  16.355  31.404  13.340
 5129W        W70290  29.680  43.877   3.116
 5130W        W70291  38.580   8.719  11.659
 5131W        W70292   4.315  13.127   4.756
 5132W        W70293  13.092  12.566   2.273
 5133W        W70294  33.361  33.455   3.585
 5134W        W70295  24.134  17.639   1.942
 5135W        W70296  14.362  24.031  12.593
 5136W        W70297  18.577  32.575   2.382
 5137W        W70298  19.154  38.960   3.436
 5138W        W70299  25.617   0.832  14.432
 5139W        W70300  29.502   8.130   1.437
 5140W        W70301  14.237  19.636  10.831
 5141W        W70302  34.530  10.388   0.308
 5142W        W70303  13.082  24.897   4.522
 5143W        W70304   5.612   9.043   5.018
 5144W        W70305  25.725   5.464   1.342
 5145W        W70306  36.045  24.117  12.014
 5146W        W70307  33.926  35.641  14.928
 5147W        W70308  36.781  31.658   0.943
 5148W        W70309  31.019  21.242   9.839
 5149W        W70310  31.177   5.302   0.343
 5150W        W70311  23.554   9.881  12.357
 5151W        W70312   9.252  22.241   4.061
 5152W        W70313  12.302  24.419   2.352
 5153W        W70314  15.333   1.307   4.026
 5154W        W70315  38.652   9.732  11.641
 5155W        W70316  39.834  12.857   2.758
 5156W        W70317  30.562  22.966   0.326
 5157W        W70318  44.853  43.033   1.785
 5158W        W70319  40.888   1.371  14.514
 5159W        W70320  15.561  36.507   0.421
 5160W        W70321  26.960  14.150   2.797
 5161W        W70322  40.088  17.927  13.908
 5162W        W70323   5.241  15.181  12.344
 5163W        W70324  31.508  31.041  13.114
 5164W        W70325  30.991  18.201   1.716
 5165W        W70326  30.685  37.059   4.168
 5166W        W70327  44.804  33.096   1.769
 5167W        W70328  25.513  18.704  13.071
 5168W        W70329  10.755  17.336  14.523
 5169W        W70330  23.257  10.931   4.976
 5170W        W70331  12.129   1.761   1.436
 5171W        W70332   8.456  25.728   4.901
 5172W        W70333  40.712  17.551  10.386
 5173W        W70334  10.285  40.579  13.024
 5174W        W70335  13.195  17.337  11.071
 5175W        W70336  15.804  19.651  12.055
 5176W        W70337  28.102  28.968  11.603
 5177W        W70338  22.508  24.666   2.726
 5178W        W70339  24.997   7.615   1.253
 5179W        W70340  10.148   6.741   1.327
 5180W        W70341  11.552  37.646  11.015
 5181W        W70342  12.864  38.728  12.131
 5182W        W70343  27.060  19.185  13.791
 5183W        W70344  24.414  35.766  14.076
 5184W        W70345  28.008  40.733  10.614
 5185W        W70346  26.228  14.523   2.375
 5186W        W70347  14.402  23.719  13.421
 5187W        W70348  14.250  25.949   3.350
 5188W        W70349   1.450  33.637   3.684
 5189W        W70350  37.786  14.657   4.542
 5190W        W70351  20.482  30.286   5.109
 5191W        W70352  26.961  36.589  13.114
 5192W        W70353  16.379  42.148   4.222
 5193W        W70354  22.986   3.668  12.548
 5194W        W70355  42.228   7.979  14.398
 5195W        W70356   0.806  18.035   0.004
 5196W        W70357  37.513  33.658   1.808
 5197W        W70358  37.731  25.537   4.841
 5198W        W70359  33.824  29.507   1.846
 5199W        W70360  26.347   9.931  12.546
 5200W        W70361  35.056  14.163  14.522
 5201W        W70362  19.251  13.869  13.793
 5202W        W70363   5.464   4.912  13.975
 5203W        W70364  29.573  10.082  12.333
 5204W        W70365  29.256  38.771  11.506
 5205W        W70366  20.239  15.834  11.812
 5206W        W70367  20.625  36.056  14.737
 5207W        W70368  26.468  24.538   9.799
 5208W        W70369  31.045  44.795  12.516
 5209W        W70370   5.046  25.235   1.763
 5210W        W70371  25.796   0.942   0.212
 5211W        W70372  33.053  24.105  10.623
 5212W        W70373  44.936  25.694   1.479
 5213W        W70374  21.499   6.785   4.568
 5214W        W70375  42.046  27.493   4.633
 5215W        W70376  16.278  27.166  14.734
 5216W        W70377  41.871  24.453  14.353
 5217W        W70378   2.993  29.908   1.828
 5218W        W70379   0.219   3.540  13.940
 5219W        W70380  18.306  34.216   0.958
 5220W        W70381   6.730  36.566  14.056
 5221W        W70382  19.526  21.006  12.055
 5222W        W70383  44.555   3.793  14.363
 5223W        W70384  17.038  43.901   2.794
 5224W        W70385  39.976  43.756  13.316
 5225W        W70386  42.508  24.331   2.213
 5226W        W70387  24.025   8.216   1.627
 5227W        W70388  30.510   3.517  13.011
 5228W        W70389  19.718  32.895  13.385
 5229W        W70390  29.175  18.482   4.618
 5230W        W70391  16.855  18.554  12.411
 5231W        W70392  34.424   6.738   0.987
 5232W        W70393  31.614  44.551   1.905
 5233W        W70394  27.462  31.362   3.781
 5234W        W70395   0.497  17.046  13.518
 5235W        W70396  32.686  19.544  11.623
 5236W        W70397  32.679   6.245   3.086
 5237W        W70398   6.661  16.350  14.207
 5238W        W70399  12.648  43.784   4.243
 5239W        W70400  21.662  23.738   0.754
 5240W        W70401  28.590  27.281  10.710
 5241W        W70402  15.548  13.282  11.103
 5242W        W70403  29.099  37.918   0.870
 5243W        W70404  12.538  24.704  14.986
 5244W        W70405   4.387  37.483   4.182
 5245W        W70406   6.216  37.895  13.892
 5246W        W70407  24.422   3.181  10.647
 5247W        W70408  29.972  22.474   1.086
 5248W        W70409  32.225  22.402   5.321
 5249W        W70410  38.813  23.323   2.867
 5250W        W70411  17.676  10.437   2.846
 5251W        W70412   8.280  14.683   2.316
 5252W        W70413  14.822   9.302  11.620
 5253W        W70414  40.111  12.899   1.901
 5254W        W70415  36.933  38.453   0.172
 5255W        W70416  14.613  43.947   3.802
 5256W        W70417  10.542   7.350   4.174
 5257W        W70418   3.942  41.197   1.995
 5258W        W70419  41.844   3.876  14.977
 5259W        W70420   2.204  24.208  14.575
 5260W        W70421  30.501  21.045   4.415
 5261W        W70422  17.157  21.900   1.912
 5262W        W70423  32.809   8.769  10.448
 5263W        W70424  20.168  23.980   2.654
 5264W        W70425  16.785  26.209  14.991
 5265W        W70426  24.107  44.895  12.044
 5266W        W70427  30.012  31.780  13.833
 5267W        W70428   3.724   2.841   3.101
 5268W        W70429  20.952  35.727   1.059
 5269W        W70430  44.276  16.134  14.017
 5270W        W70431  42.797   5.736   2.818
 5271W        W70432  34.349  16.592  12.050
 5272W        W70433  43.987  21.202  11.179
 5273W        W70434  16.116   4.052  13.853
 5274W        W70435  37.280  35.726   2.124
 5275W        W70436   1.840   8.792  10.412
 5276W        W70437   0.317  19.666  14.305
 5277W        W70438  33.264  14.295   1.037
 5278W        W70439   7.250  30.699   1.777
 5279W        W70440  29.448  42.811  12.905
 5280W        W70441   5.639  36.924  11.133
 5281W        W70442  42.699  18.925  11.345
 5282W        W70443   2.862  29.253  14.035
 5283W        W70444   5.933  16.780  12.924
 5284W        W70445   0.245  41.765  14.778
 5285W        W70446  32.945  31.577   0.335
 5286W        W70447   7.759   6.439  13.422
 5287W        W70448  41.938  35.738   4.144
 5288W        W70449  28.643  12.999  10.414
 5289W        W70450  11.366  15.378   1.944
 5290W        W70451  24.626  23.623   0.900
 5291W        W70452   6.438   9.304  11.438
 5292W        W70453  36.415  19.084   4.218
 5293W        W70454   9.202   7.425  14.046
 5294W        W70455  20.566  22.121   3.790
 5295W        W70456  31.179   3.200  13.492
 5296W        W70457   6.328  17.083  12.203
 5297W        W70458  30.535  34.808   4.526
 5298W        W70459  25.715   5.265   0.778
 5299W        W70460  44.654   4.769  14.231
 5300W        W70461  35.526  34.111  14.312
 5301W        W70462  29.149  27.540  12.413
 5302W        W70463  31.920   8.921   4.919
 5303W        W70464  20.742  14.906   2.988
 5304W        W70465   4.977   5.347   4.571
 5305W        W70466  15.404  33.519  13.975
 5306W        W70467  32.619  25.700  14.875
 5307W        W70468   8.899  27.816  14.349
 5308W        W70469  18.580  42.686  12.110
 5309W        W70470  16.587  25.054  11.722
 5310W        W70471  14.586  18.171   3.815
 5311W        W70472  24.132  12.737  13.411
 5312W        W70473   4.506  20.643   3.081
 5313W        W70474  19.665   4.932  14.142
 5314W        W70475   0.992   5.495   2.977
 5315W        W70476  33.572  15.913   2.112
 5316W        W70477  39.269   7.407  10.773
 5317W        W70478  27.517  30.640  12.970
 5318W        W70479  31.648  12.124  11.853
 5319W        W70480   6.698   1.683  10.752
 5320W        W70481  10.248  31.116  14.784
 5321W        W70482   0.437  38.697  12.543
 5322W        W70483  28.373  33.453   4.742
 5323W        W70484  13.365  44.460  14.212
 5324W        W70485   9.407   1.429  10.414
 5325W        W70486  27.686  42.086   3.564
 5326W        W70487  15.854   3.794   0.258
 5327W        W70488  42.579  44.527   0.888
 5328W        W70489  22.360   8.791  11.498
 5329W        W70490  24.713  21.434   2.254
 5330W        W70491   2.215  38.456  14.448
 5331W        W70492  14.402  18.300  10.590
 5332W        W70493  15.100  38.030   3.290
 5333W        W70494  10.873   2.234  12.540
 5334W        W70495  21.767   8.265   1.298
 5335W        W70496  33.053   6.905  13.504
 5336W        W70497  25.961  43.008   4.619
 5337W        W70498  29.667  20.453  13.618
 5338W        W70499  41.712  38.275   0.451
 5339W        W70500   0.330  36.993  14.735
 5340W        W70501  21.179   7.690  12.496
 5341W        W70502  28.573   2.376  12.585
 5342W        W70503  21.692  23.016   2.204
 5343W        W70504  43.286  42.252  13.080
 5344W        W70505  12.827  38.340  12.970
 5345W        W70506  41.908  11.291   1.734
 5346W        W70507   3.335  26.213   3.268
 5347W        W70508  20.804  17.616  10.644
 5348W        W70509   6.916  38.611  14.902
 5349W        W70510  30.226   6.745  14.554
 5350W        W70511  39.263  16.477  13.331
 5351W        W70512  30.581  23.505   0.284
 5352W        W70513  28.160   5.715   3.266
 5353W        W70514   8.806  26.182  10.153
 5354W        W70515  37.953  10.806   1.754
 5355W        W70516  19.834  13.471   3.241
 5356W        W70517  41.054  16.140  12.475
 5357W        W70518  25.760  17.651   4.874
 5358W        W70519   6.975  26.858  10.174
 5359W        W70520  28.159  22.072  12.025
 5360W        W70521  26.023  33.464  11.021
 5361W        W70522   7.202  17.509   3.855
 5362W        W70523   1.526   3.014   3.667
 5363W        W70524  40.689  21.774   3.603
 5364W        W70525  43.023  38.374  13.351
 5365W        W70526  38.449  24.888  11.654
 5366W        W70527  12.234  14.719  11.760
 5367W        W70528  36.608  18.684  14.853
 5368W        W70529   3.683  38.521   2.747
 5369W        W70530  33.189  44.323   0.797
 5370W        W70531  12.505  14.828  14.211
 5371W        W70532  27.298  37.503   4.409
 5372W        W70533  25.984  29.186   1.879
 5373W        W70534  41.764   1.415   0.993
 5374W        W70535  17.588   9.250  13.981
 5375W        W70536   2.219  35.277  12.154
 5376W        W70537  27.908   7.291   5.391
 5377W        W70538   9.847  33.238   4.035
 5378W        W70539   0.774  26.118   1.862
 5379W        W70540  25.078   9.329  13.911
 5380W        W70541  23.137  14.069  14.327
 5381W        W70542  16.782  18.253  14.093
 5382W        W70543  25.549  42.299  10.839
 5383W        W70544  35.496  42.832  13.890
 5384W        W70545   5.396  34.345   2.748
 5385W        W70546   4.171  23.191   0.157
 5386W        W70547   5.219  28.469  12.495
 5387W        W70548  17.734  42.678   4.051
 5388W        W70549  30.023   8.167   2.164
 5389W        W70550  39.757  10.188   0.441
 5390W        W70551  28.645   9.815  13.793
 5391W        W70552  19.892  36.891  12.031
 5392W        W70553   4.393  36.462  11.584
 5393W        W70554  22.619   7.395  13.866
 5394W        W70555  37.839  23.257  14.926
 5395W        W70556  24.697  25.809  12.967
 5396W        W70557  27.594  19.134  13.947
 5397W        W70558  19.185  20.757  14.920
 5398W        W70559   8.429   6.433  12.296
 5399W        W70560  44.867   0.356  10.553
 5400W        W70561  27.471  21.144   2.351
 5401W        W70562  25.537  33.470  10.809
 5402W        W70563  36.529  28.528   3.643
 5403W        W70564  29.450  36.084  12.820
 5404W        W70565  28.657  24.554   3.706
 5405W        W70566   9.486  14.898  12.064
 5406W        W70567   1.156  30.821   3.170
 5407W        W70568   8.753  42.750   1.485
 5408W        W70569  10.106  32.080   0.823
 5409W        W70570  35.068  30.534  13.967
 5410W        W70571  18.624  23.562   3.224
 5411W        W70572   2.558   9.647  14.309
 5412W        W70573  26.043  17.540  11.343
 5413W        W70574  42.314  21.087  10.564
 5414W        W70575  34.625  30.232   3.270
 5415W        W70576  22.575  19.561   2.785
 5416W        W70577  14.089  14.425  13.533
 5417W        W70578  24.996  26.488   1.526
 5418W        W70579  32.022   7.679  12.545
 5419W        W70580  19.515  27.068   0.063
 5420W        W70581  18.700   2.656   2.806
 5421W        W70582  43.916  25.155  12.090
 5422W        W70583  27.997  27.752   2.582
 5423W        W70584   2.681  38.969   9.943
 5424W        W70585   4.449  32.065   0.443
 5425W        W70586  16.644  34.191  14.478
 5426W        W70587  13.056  39.451  10.690
 5427W        W70588  37.600  38.398   2.923
 5428W        W70589  31.496  37.941   4.337
 5429W        W70590  12.887  30.439   2.859
 5430W        W70591  22.569   2.882   1.586
 5431W        W70592  42.201  39.607   1.322
 5432W        W70593  25.951  38.786   3.496
 5433W        W70594   6.630  29.849   1.769
 5434W        W70595  19.729   1.335  10.598
 5435W        W70596  30.820  23.256   0.673
 5436W        W70597  33.071  30.048  14.345
 5437W        W70598  12.227  16.248   2.311
 5438W        W70599  36.105  36.510  11.167
 5439W        W70600  23.034  22.723   2.178
 5440W        W70601  42.115  19.685   1.103
 5441W        W70602  31.634  41.808   2.888
 5442W        W70603  11.723  36.778   3.615
 5443W        W70604   2.337   7.433  13.481
 5444W        W70605   2.897   7.912  12.020
 5445W        W70606  20.796  37.180  11.201
 5446W        W70607   8.316  23.785  11.798
 5447W        W70608   3.751  14.845  13.381
 5448W        W70609  28.614   4.465  12.499
 5449W        W70610  20.234  13.682  10.988
 5450W        W70611  27.503  37.907   3.357
 5451W        W70612   4.444  20.689  13.353
 5452W        W70613  35.393  16.725   3.818
 5453W        W70614  11.886  32.563   4.730
 5454W        W70615  10.922  11.883   3.587
 5455W        W70616   6.626  38.731   2.771
 5456W        W70617  15.753  40.093  12.910
 5457W        W70618  24.400  35.101   2.289
 5458W        W70619  11.325  18.469   2.968
 5459W        W70620  11.117  17.770   4.305
 5460W        W70621  25.433  20.678   0.347
 5461W        W70622  13.990  20.257   1.444
 5462W        W70623  27.622   0.267   4.631
 5463W        W70624  15.289  15.246   4.386
 5464W        W70625  29.054  35.351  14.940
 5465W        W70626  35.900  24.600  10.605
 5466W        W70627  11.909  27.274  12.497
 5467W        W70628  36.039  10.843  14.324
 5468W        W70629  13.112  30.524  14.119
 5469W        W70630  27.171  41.776  11.920
 5470W        W70631   5.571  30.111   3.573
 5471W        W70632  35.842  12.579   3.249
 5472W        W70633  44.304  34.478   3.308
 5473W        W70634  16.556   9.692  11.693
 5474W        W70635   5.994  17.128   0.829
 5475W        W70636  30.010  41.132  12.725
 5476W        W70637  16.590  21.511  12.075
 5477W        W70638   9.846  17.594  12.975
 5478W        W70639  44.932  11.634  12.417
 5479W        W70640   4.189  36.676  12.012
 5480W        W70641   0.653  28.523  11.618
 5481W        W70642  28.563  13.676   3.973
 5482W        W70643  33.037  30.417  13.792
 5483W        W70644   3.365  44.032   1.928
 5484W        W70645  26.503  31.104   2.352
 5485W        W70646  43.104  16.348   3.117
 5486W        W70647  17.159  23.553  12.541
 5487W        W70648   4.597  34.014   4.565
 5488W        W70649  27.460   2.360   2.051
 5489W        W70650  43.555  24.697   3.131
 5490W        W70651  32.920  34.564  11.446
 5491W        W70652  42.898   1.401   3.841
 5492W        W70653  18.389  35.645  14.042
 5493W        W70654  28.645   2.503  10.772
 5494W        W70655  35.076  34.566  12.727
 5495W        W70656  11.131  39.975   0.395
 5496W        W70657  39.324   1.401  13.396
 5497W        W70658   0.062  39.179  11.158
 5498W        W70659  18.481   0.396   3.477
 5499W        W70660  34.114  42.527   3.592
 5500W        W70661  22.666  32.855   4.030
 5501W        W70662   4.915  34.129  13.478
 5502W        W70663   5.424  33.404   0.485
 5503W        W70664  38.017  19.045   1.743
 5504W        W70665  14.892  33.865   2.820
 5505W        W70666  31.732  40.206   5.062
 5506W        W70667   9.200  10.625   1.114
 5507W        W70668  36.120  32.552   4.104
 5508W        W70669   1.922  26.964   2.067
 5509W        W70670  11.697  37.480   2.286
 5510W        W70671  27.123  44.267  13.987
 5511W        W70672  15.695  29.972   1.689
 5512W        W70673  26.146  30.878   4.716
 5513W        W70674   7.439  34.410   2.673
 5514W        W70675  13.797  21.622   1.056
 5515W        W70676  39.960  41.534   2.158
 5516W        W70677  30.462  22.203  12.396
 5517W        W70678  16.061  26.076  13.337
 5518W        W70679   4.496  24.095  13.522
 5519W        W70680  44.983   8.910  12.590
 5520W        W70681  28.337  14.196  10.096
 5521W        W70682   8.319  41.310  11.215
 5522W        W70683   0.936  38.483   0.819
 5523W        W70684  20.420  31.809   3.233
 5524W        W70685  38.385   4.372   0.921
 5525W        W70686  33.445   1.196  14.455
 5526W        W70687  21.238  37.832  11.404
 5527W        W70688  38.900  36.832  11.666
 5528W        W70689  19.484  38.634   1.018
 5529W        W70690  35.342  39.629   3.471
 5530W        W70691  18.195  31.840   2.266
 5531W        W70692  16.283  27.159   3.298
 5532W        W70693  24.936  24.087   2.749
 5533W        W70694  21.668  19.927   0.781
 5534W        W70695  42.752  13.832   4.590
 5535W        W70696  25.145  14.224   3.120
 5536W        W70697   7.314  32.187   3.033
 5537W        W70698  23.981  12.446   4.301
 5538W        W70699  15.261  21.037   2.663
 5539W        W70700  19.679  23.486  10.573
 5540W        W70701  23.579  36.573  12.541
 5541W        W70702  40.053   6.268   3.181
 5542W        W70703  11.913  30.215   4.120
 5543W        W70704  13.396  32.184   1.192
 5544W        W70705  12.547  41.041  12.515
 5545W        W70706   2.838   2.081  14.192
 5546W        W70707  42.386  41.828   2.190
 5547W        W70708  20.517   7.541  12.415
 5548W        W70709  18.487  22.193  10.877
 5549W        W70710  18.141   1.013  14.349
 5550W        W70711  26.782   3.894   0.891
 5551W        W70712   6.674  15.630  13.871
 5552W        W70713   9.081   1.740  13.466
 5553W        W70714  17.132  21.086  10.282
 5554W        W70715   1.388   2.475   3.700
 5555W        W70716  24.659  31.362  14.831
 5556W        W70717  33.362  40.752   2.670
 5557W        W70718  40.492  12.686  14.764
 5558W        W70719  26.239  22.583   2.917
 5559W        W70720  13.283  40.854  10.802
 5560W        W70721  11.853  17.004  12.520
 5561W        W70722   4.152  33.894  11.087
 5562W        W70723  42.849  37.498  13.104
 5563W        W70724  10.107  23.099  13.859
 5564W        W70725  37.258  23.838  14.385
 5565W        W70726  10.353  28.166  11.164
 5566W        W70727  21.709  15.547  13.544
 5567W        W70728  21.302   5.902   0.959
 5568W        W70729  20.544  28.380  10.756
 5569W        W70730  25.010   7.650  10.698
 5570W        W70731  41.346  38.895   4.395
 5571W        W70732  38.610   4.856  11.824
 5572W        W70733   4.591   0.614   4.257
 5573W        W70734  10.655  41.192   0.690
 5574W        W70735  18.168  44.197  13.939
 5575W        W70736   9.843   1.221  13.501
 5576W        W70737  41.733   7.258   2.509
 5577W        W70738  16.299  42.884   3.055
 5578W        W70739  36.291  43.900   0.481
 5579W        W70740  29.935  18.564  13.404
 5580W        W70741  29.681  20.633  14.975
 5581W        W70742   2.632  20.125   4.771
 5582W        W70743   8.806  19.053   3.125
 5583W        W70744  36.435  19.162  11.607
 5584W        W70745  22.701  23.057  12.981
 5585W        W70746  40.310  17.358  10.103
 5586W        W70747   3.743  39.419   2.698
 5587W        W70748   0.462  40.581  14.063
 5588W        W70749  15.289  38.708   2.858
 5589W        W70750  21.740  18.077   1.756
 5590W        W70751  24.171  37.370  12.777
 5591W        W70752   8.055   7.878   1.014
 5592W        W70753  41.815  31.508   1.728
 5593W        W70754   8.415  43.021  12.190
 5594W        W70755  23.582   7.317  11.622
 5595W        W70756   2.951  22.133  12.554
 5596W        W70757  37.212  35.821  13.227
 5597W        W70758   8.631   4.185   3.729
 5598W        W70759  24.292  41.050   2.129
 5599W        W70760  20.084  32.184  14.446
 5600W        W70761   2.816  23.646  10.363
 5601W        W70762  36.395  16.341  14.999
 5602W        W70763   2.609   6.716   1.678
 5603W        W70764   3.835  25.555  14.933
 5604W        W70765  33.057  20.134  12.012
 5605W        W70766  21.697  21.208   0.947
 5606W        W70767  42.358   8.058   3.935
 5607W        W70768  19.656  19.929   3.148
 5608W        W70769   7.331  25.022   4.302
 5609W        W70770  28.698   2.788  11.571
 5610W        W70771  38.691  19.060  11.428
 5611W        W70772  17.360  15.205   3.268
 5612W        W70773  44.516  14.774  14.794
 5613W        W70774   7.825  30.721  13.709
 5614W        W70775  42.828   4.455  11.186
 5615W        W70776  18.027   8.772  10.730
 5616W        W70777  24.808   6.290   3.123
 5617W        W70778  38.294   5.923   0.839
 5618W        W70779  14.178  22.748   3.334
 5619W        W70780  31.644   7.459  11.797
 5620W        W70781   9.833   3.514  14.412
 5621W        W70782  21.009   5.470   0.926
 5622W        W70783  23.568  15.251  13.812
 5623W        W70784  38.408  14.324  10.507
 5624W        W70785  39.117  16.111  14.998
 5625W        W70786  33.838  16.830  13.866
 5626W        W70787  25.737  20.107   3.538
 5627W        W70788  40.489   9.464   3.841
 5628W        W70789  36.756   8.037   2.112
 5629W        W70790  37.531  19.520  12.485
 5630W        W70791  11.744  21.764  10.388
 5631W        W70792  11.248  35.924  12.707
 5632W        W70793  26.587  31.155   4.761
 5633W        W70794   1.526  42.797   3.567
 5634W        W70795  28.596  42.861  12.645
 5635W        W70796  41.880  38.469  13.109
 5636W        W70797  28.453   7.655  12.946
 5637W        W70798   3.560  20.044   2.193
 5638W        W70799   7.960   3.424   1.933
 5639W        W70800   7.731   6.328  10.711
 5640W        W70801  27.600   0.757   2.239
 5641W        W70802  23.886  25.633  11.083
 5642W        W70803  20.516   1.709  14.275
 5643W        W70804  33.014  17.540   1.841
 5644W        W70805  44.924  12.123  14.510
 5645W        W70806  32.769  27.613   0.225
 5646W        W70807  23.583  22.573  13.139
 5647W        W70808   8.300  31.419   2.738
 5648W        W70809  42.035   7.593   4.724
 5649W        W70810  21.832  32.661   0.317
 5650W        W70811  42.600   7.595  11.659
 5651W        W70812  38.887   1.921   3.191
 5652W        W70813   7.607  17.802   1.656
 5653W        W70814  17.070  43.322   0.658
 5654W        W70815  27.010  14.740  11.752
 5655W        W70816  30.189   5.764  11.604
 5656W        W70817  14.711  29.224   1.469
 5657W        W70818  43.829  28.903   1.274
 5658W        W70819   8.805  37.515  13.338
 5659W        W70820  44.949  16.308  12.576
 5660W        W70821  25.443  28.251   3.345
 5661W        W70822   4.151   2.967  10.379
 5662W        W70823  21.483  38.187  12.998
 5663W        W70824   7.170  41.551  12.058
 5664W        W70825   7.770  35.823   2.899
 5665W        W70826  19.128  14.797   1.734
 5666W        W70827   0.423  43.874  11.159
 5667W        W70828  26.717  12.358  13.780
 5668W        W70829   3.341  15.795   2.706
 5669W        W70830  16.317  38.273  10.299
 5670W        W70831  14.117  16.586  10.795
 5671W        W70832   2.217  33.167  11.153
 5672W        W70833   0.783  43.668  13.432
 5673W        W70834  43.166  40.766   3.611
 5674W        W70835  16.067  16.119   1.569
 5675W        W70836  40.288  11.723   3.867
 5676W        W70837  18.791   0.358   0.452
 5677W        W70838   6.170  39.075  11.369
 5678W        W70839   6.878  15.372  11.146
 5679W        W70840  41.530  13.933  14.489
 5680W        W70841  33.888   7.366  14.519
 5681W        W70842  32.023  25.467   3.222
 5682W        W70843  19.230   6.968  11.935
 5683W        W70844  36.594  10.177   1.457
 5684W        W70845   4.803  25.768   0.898
 5685W        W70846  44.021   4.359  14.796
 5686W        W70847  39.311   7.025   2.626
 5687W        W70848  27.941  16.743  12.573
 5688W        W70849  37.714  21.715   4.554
 5689W        W70850  41.000   7.416   1.607
 5690W        W70851   6.288  40.356   2.005
 5691W        W70852  36.888  20.655  10.614
 5692W        W70853  33.563   9.343   1.802
 5693W        W70854  38.105  42.421   1.350
 5694W        W70855  41.481  44.824  14.284
 5695W        W70856   6.972   7.677  14.863
 5696W        W70857   5.701  13.222   3.616
 5697W        W70858  16.927   3.556  12.309
 5698W        W70859  10.428  11.648  12.571
 5699W        W70860   9.651  28.189   1.436
 5700W        W70861   7.240  32.345   0.308
 5701W        W70862  26.506   2.818  11.882
 5702W        W70863  37.392   2.267   4.078
 5703W        W70864  33.342  14.180   0.007
 5704W        W70865  11.074   4.767   1.477
 5705W        W70866  31.744  26.465  13.389
 5706W        W70867  30.421  23.606  12.458
 5707W        W70868  40.785  40.945   3.172
 5708W        W70869  26.115  21.041   4.270
 5709W        W70870   9.107  35.024   3.579
 5710W        W70871   3.666  43.364   1.352
 5711W        W70872  41.935  21.677  14.441
 5712W        W70873  10.350  11.872  11.299
 5713W        W70874  36.716  21.218   0.119
 5714W        W70875  29.721  12.771  11.152
 5715W        W70876  13.543   5.425  12.713
 5716W        W70877  20.530  29.666  11.132
 5717W        W70878  23.567  31.630   4.916
 5718W        W70879   1.882  16.312   2.261
 5719W        W70880  39.551   4.111  12.062
 5720W        W70881  19.770  24.480   3.344
 5721W        W70882  35.281   4.273  10.856
 5722W        W70883   2.467  38.949   2.698
 5723W        W70884   6.945   1.771   0.441
 5724W        W70885  19.710  26.728   2.747
 5725W        W70886  29.039  32.193  11.104
 5726W        W70887  40.012  16.208   0.358
 5727W        W70888  12.298  14.792  13.622
 5728W        W70889   8.020  16.013   4.143
 5729W        W70890  35.451   5.287   2.325
 5730W        W70891  13.992  44.949  13.741
 5731W        W70892   7.200  34.325  14.419
 5732W        W70893  24.577  43.842  14.886
 5733W        W70894  13.011  35.606   4.280
 5734W        W70895  42.308  32.493   4.876
 5735W        W70896   2.169  14.161   0.693
 5736W        W70897  24.290  21.275   1.779
 5737W        W70898   8.452  11.368  11.523
 5738W        W70899  33.066  42.980  14.755
 5739W        W70900  34.199  36.587   1.239
 5740W        W70901  37.413  26.141  13.118
 5741W        W70902  29.105   4.292  11.061
 5742W        W70903  14.581   5.742  11.795
 5743W        W70904  20.877   3.958  12.002
 5744W        W70905  31.241  16.346   4.883
 5745W        W70906   7.004  34.027   1.757
 5746W        W70907  21.614  23.120  10.778
 5747W        W70908  30.507  36.180  12.031
 5748W        W70909  21.722   0.835  11.042
 5749W        W70910   9.261  24.565   9.687
 5750W        W70911  38.137  27.569   4.695
 5751W        W70912  34.547  43.413  13.546
 5752W        W70913  22.072  44.057  12.375
 5753W        W70914   0.351  32.336   2.615
 5754W        W70915  41.365   0.149   3.213
 5755W        W70916  16.840  34.649  10.989
 5756W        W70917  23.303  35.977  12.699
 5757W        W70918  10.211  41.029  12.792
 5758W        W70919  44.315  27.855   4.989
 5759W        W70920   3.279  16.155  13.360
 5760W        W70921  16.219  26.139   4.155
 5761W        W70922   3.752   0.009   2.339
 5762W        W70923  31.521  21.409   3.153
 5763W        W70924  11.660  31.679  12.438
 5764W        W70925   3.742  25.036  14.928
 5765W        W70926  23.101   3.156  10.792
 5766W        W70927  40.501  16.773   1.884
 5767W        W70928  20.501  34.391  11.135
 5768W        W70929   3.091  26.629  10.146
 5769W        W70930  14.683   3.811   4.606
 5770W        W70931  18.993  21.449  14.479
 5771W        W70932  24.907   8.573   1.657
 5772W        W70933  10.858  22.511   0.721
 5773W        W70934  14.945  39.247   0.427
 5774W        W70935  44.032   5.947  13.285
 5775W        W70936  35.824  21.238  10.977
 5776W        W70937  23.570  36.311   1.749
 5777W        W70938  22.877   8.839   3.782
 5778W        W70939  27.147  12.631  13.825
 5779W        W70940  19.794  15.249   0.325
 5780W        W70941  25.163   2.915   0.745
 5781W        W70942  33.565  19.596  14.334
 5782W        W70943  38.204  16.297   0.892
 5783W        W70944  44.766  30.631  14.952
 5784W        W70945  20.996  40.282   2.804
 5785W        W70946  34.142  39.857   1.219
 5786W        W70947   8.080  32.241  12.150
 5787W        W70948  13.244   8.614  12.442
 5788W        W70949  37.263   6.658   2.616
 5789W        W70950  39.563  31.145   1.207
 5790W        W70951  33.915  24.115   4.743
 5791W        W70952  43.434  37.928   2.693
 5792W        W70953  20.831  15.152   0.384
 5793W        W70954  43.561  29.692   2.300
 5794W        W70955  32.602   4.400  11.681
 5795W        W70956  24.116  27.359  11.912
 5796W        W70957  34.603   7.217   2.726
 5797W        W70958  13.799  19.317   2.370
 5798W        W70959   0.433  32.067  12.340
 5799W        W70960   2.906  21.003   3.578
 5800W        W70961  42.950   3.974   3.413
 5801W        W70962  42.508   0.042  13.583
 5802W        W70963  19.795  39.817  14.836
 5803W        W70964  23.605  23.223  14.437
 5804W        W70965   7.277  18.807  13.394
 5805W        W70966   7.654   5.371  12.608
 5806W        W70967  24.525  16.162   1.458
 5807W        W70968  24.658  35.554   2.154
 5808W        W70969  29.746  19.398   2.126
 5809W        W70970  35.344   3.780   0.886
 5810W        W70971   1.096   5.242  14.668
 5811W        W70972   5.488  11.650  11.084
 5812W        W70973  23.110  10.428   2.730
 5813W        W70974  39.846  11.324  11.714
 5814W        W70975   0.620  32.608   3.204
 5815W        W70976  18.803  40.311   0.466
 5816W        W70977   2.181  24.365   0.576
 5817W        W70978  31.594  26.150   4.151
 5818W        W70979   3.791  21.937   3.555
 5819W        W70980  27.380  39.831  13.022
 5820W        W70981   8.711  26.627   5.046
 5821W        W70982  22.076  32.861   3.084
 5822W        W70983  11.540  38.554   3.240
 5823W        W70984   0.441  26.304   0.462
 5824W        W70985  32.829   6.016   3.562
 5825W        W70986  36.095  13.283   4.651
 5826W        W70987   2.849  16.730  11.991
 5827W        W70988  20.194  42.712  13.136
 5828W        W70989  15.600  18.663   0.639
 5829W        W70990  17.635  42.775  13.050
 5830W        W70991  13.250  22.173   4.127
 5831W        W70992  25.670  39.379  13.985
 5832W        W70993  31.141   4.279   4.044
 5833W        W70994  24.512   5.306  12.929
 5834W        W70995   4.229   5.465   0.614
 5835W        W70996  10.566  32.218  10.989
 5836W        W70997  32.456  31.679   0.444
 5837W        W70998  28.809   1.528   1.896
 5838W        W70999   1.508  35.627  12.343
 5839W        W71000  22.470  37.901  11.196
 5840W        W71001  18.816  24.993   4.610
 5841W        W71002  29.865   7.783   2.859
 5842W        W71003  12.240  38.779   2.168
 5843W        W71004  27.980   5.405  11.470
 5844W        W71005  36.683   9.809   3.698
 5845W        W71006   7.481  27.052  10.193
 5846W        W71007  35.356  34.900  10.593
 5847W        W71008  20.072  19.226   0.384
 5848W        W71009  13.751  26.604  10.860
 5849W        W71010   8.301  31.546  14.730
 5850W        W71011  37.524  34.555   0.430
 5851W        W71012  21.878   2.283  13.299
 5852W        W71013  14.361   5.194  11.477
 5853W        W71014  14.273  14.105   5.005
 5854W        W71015  12.084   8.172  11.590
 5855W        W71016  18.496  17.143   0.413
 5856W        W71017  36.834  27.507   3.914
 5857W        W71018  12.045  15.729  12.873
 5858W        W71019  32.072  35.145  10.796
 5859W        W71020  34.867  43.840  12.665
 5860W        W71021  16.321  17.934  12.315
 5861W        W71022  35.428  22.791   4.330
 5862W        W71023   7.200  40.104  10.705
 5863W        W71024   9.931   8.163   2.296
 5864W        W71025  19.552   6.620  12.510
 5865W        W71026  22.956   0.765   1.262
 5866W        W71027  38.583   5.733  14.883
 5867W        W71028  40.033  24.188  12.529
 5868W        W71029  19.128  30.404  14.065
 5869W        W71030  43.019   9.398  11.159
 5870W        W71031  35.566   8.648   4.154
 5871W        W71032  15.775   5.339   3.347
 5872W        W71033   8.263  23.685  12.636
 5873W        W71034  41.607  14.502   3.214
 5874W        W71035  17.788  41.008   2.775
 5875W        W71036  34.055  10.017  12.418
 5876W        W71037  24.251  35.900  14.933
 5877W        W71038  25.595   3.791  13.922
 5878W        W71039  33.660  35.271   1.713
 5879W        W71040  39.780  12.614   1.333
 5880W        W71041  30.678  14.782  11.217
 5881W        W71042  35.811  27.336   1.794
 5882W        W71043  41.732  17.274   5.055
 5883W        W71044  10.844  29.158  12.937
 5884W        W71045  29.998   1.390  14.520
 5885W        W71046  44.461   5.124  13.913
 5886W        W71047   7.675   5.883  10.445
 5887W        W71048  20.143  12.412  14.540
 5888W        W71049  41.888  39.804  13.892
 5889W        W71050   5.467  17.809   1.071
 5890W        W71051  21.523   1.138  12.131
 5891W        W71052  34.388  31.506  12.710
 5892W        W71053  28.719  17.246  11.715
 5893W        W71054  22.822   8.349   2.198
 5894W        W71055  17.869  29.950   0.710
 5895W        W71056  16.127   5.791  10.369
 5896W        W71057  28.593  28.743  11.601
 5897W        W71058  25.149  13.183  13.816
 5898W        W71059  25.546   7.626  13.443
 5899W        W71060  11.725  43.499   0.846
 5900W        W71061  42.753  37.325   0.817
 5901W        W71062   4.317  12.420   0.967
 5902W        W71063  31.506   3.576   3.479
 5903W        W71064  36.114   4.653   4.620
 5904W        W71065  30.158  27.875   4.985
 5905W        W71066   2.068  40.658   3.678
 5906W        W71067  12.869  22.016  12.881
 5907W        W71068   3.196  20.331  11.044
 5908W        W71069  24.084  33.397   2.019
 5909W        W71070  39.794  36.351   3.871
 5910W        W71071   6.457  40.932  12.055
 5911W        W71072   7.322  19.485   4.917
 5912W        W71073  22.369  29.521  13.758
 5913W        W71074   5.898  25.925   1.905
 5914W        W71075  21.742  27.444  13.272
 5915W        W71076   5.479   6.743  14.405
 5916W        W71077  28.573   7.150  14.706
 5917W        W71078  31.744   2.981   4.377
 5918W        W71079  14.342  28.912   1.677
 5919W        W71080  18.746  36.592   3.686
 5920W        W71081  19.117  22.685  10.323
 5921W        W71082  40.957  30.759  10.448
 5922W        W71083  13.902  17.141  12.991
 5923W        W71084   3.964  29.631   3.745
 5924W        W71085  22.047   9.603   1.747
 5925W        W71086  35.026  11.576   2.404
 5926W        W71087  31.014   7.662  13.418
 5927W        W71088  27.225  19.249  13.311
 5928W        W71089   8.711  14.266  13.474
 5929W        W71090  35.463  24.155  13.492
 5930W        W71091  31.579  35.876  10.563
 5931W        W71092   6.785  35.504  14.554
 5932W        W71093   4.175  42.114  13.789
 5933W        W71094   0.469  24.087  10.498
 5934W        W71095  29.025  21.642   2.965
 5935W        W71096  21.244  14.635   1.772
 5936W        W71097  16.202   9.631  13.410
 5937W        W71098  28.114   4.700   3.260
 5938W        W71099  43.952   3.127  12.003
 5939W        W71100   0.720  27.444  14.960
 5940W        W71101  28.246  11.960   3.856
 5941W        W71102  21.536  15.283   0.810
 5942W        W71103  21.061  24.862   1.512
 5943W        W71104  20.658  13.810   4.370
 5944W        W71105   4.611  28.758   3.945
 5945W        W71106  33.436   8.460  13.192
 5946W        W71107  35.381  35.972  14.717
 5947W        W71108  30.528  44.405   1.209
 5948W        W71109  20.836  14.612   0.807
 5949W        W71110  21.104   6.374  11.128
 5950W        W71111  44.418  35.689  12.435
 5951W        W71112  44.796  30.974   1.475
 5952W        W71113  33.045  42.828   1.309
 5953W        W71114  33.033  27.327   2.767
 5954W        W71115  34.160  10.879  12.108
 5955W        W71116  14.730  18.355   1.525
 5956W        W71117   1.599  30.516   4.034
 5957W        W71118  28.076  43.364   1.845
 5958W        W71119  31.861  28.872   1.617
 5959W        W71120  25.206  37.708  11.736
 5960W        W71121  26.183  36.890   4.271
 5961W        W71122  20.979  25.050   0.123
 5962W        W71123  17.478  40.040  13.564
 5963W        W71124   6.141  14.751  12.882
 5964W        W71125  42.464  17.038  12.591
 5965W        W71126   8.479  36.140   3.318
 5966W        W71127  29.610  41.241   0.957
 5967W        W71128  27.647   5.545   2.349
 5968W        W71129  32.212  26.881   0.826
 5969W        W71130   8.268  31.654  12.985
 5970W        W71131  40.909  29.016   3.643
 5971W        W71132  37.830  13.182  12.169
 5972W        W71133  36.102  43.919  13.124
 5973W        W71134   3.985  41.811   4.670
 5974W        W71135  20.095  43.345  12.526
 5975W        W71136  25.674  26.759   3.237
 5976W        W71137  40.433  36.306   4.801
 5977W        W71138  19.368  12.178   4.792
 5978W        W71139  15.784  17.786  14.813
 5979W        W71140  44.247  21.763  12.904
 5980W        W71141   4.466   3.007   3.845
 5981W        W71142  20.317  35.916   4.163
 5982W        W71143   3.237   9.747   3.427
 5983W        W71144  16.526  33.445   3.029
 5984W        W71145  14.318   7.136  11.716
 5985W        W71146  16.687   2.770  11.009
 5986W        W71147  34.278  20.962   2.683
 5987W        W71148  30.564  33.155   1.435
 5988W        W71149  26.535   4.346   0.132
 5989W        W71150  41.574  22.436  14.450
 5990W        W71151  14.760  32.572   4.093
 5991W        W71152  35.597  18.861  11.616
 5992W        W71153  14.644  19.605   3.710
 5993W        W71154  11.526  11.916   2.783
 5994W        W71155  15.316   5.671   1.256
 5995W        W71156   4.502  23.412   0.965
 5996W        W71157   4.163  43.019   1.804
 5997W        W71158   6.110   2.723   0.994
 5998W        W71159  37.788  24.132  13.891
 5999W        W71160  29.648  34.862  14.454
 6000W        W71161  33.668  23.571   9.656
 6001W        W71162   0.113   5.121  10.164
 6002W        W71163  15.101   9.402  12.677
 6003W        W71164   7.738  30.024   1.884
 6004W        W71165  26.438  23.722  11.140
 6005W        W71166  15.542  12.096  11.198
 6006W        W71167   7.315  20.437   1.315
 6007W        W71168   8.561  40.810   4.582
 6008W        W71169  13.226   1.699  10.461
 6009W        W71170  22.503  12.860   2.405
 6010W        W71171   8.357  41.781   1.849
 6011W        W71172   9.351  42.451   2.685
 6012W        W71173  18.500  29.025   2.584
 6013W        W71174  41.335  25.666   0.575
 6014W        W71175   2.274  17.189  14.587
 6015W        W71176  28.623  39.418  13.816
 6016W        W71177   5.479   3.293  11.988
 6017W        W71178  12.815   6.193   5.142
 6018W        W71179  24.993   3.702   1.219
 6019W        W71180   5.450   7.386  13.863
 6020W        W71181  20.911  36.081  12.010
 6021W        W71182   6.406  42.887   3.321
 6022W        W71183  40.866  18.744   3.701
 6023W        W71184   4.789  36.961  12.359
 6024W        W71185  20.368   7.172   4.017
 6025W        W71186   6.996   9.272  11.437
 6026W        W71187   3.864  16.161  14.473
 6027W        W71188  14.593  40.045   1.894
 6028W        W71189  42.408  31.404   0.741
 6029W        W71190  41.324  19.007   2.064
 6030W        W71191   6.530  32.868  13.306
 6031W        W71192  10.553   8.657  12.149
 6032W        W71193  12.255  21.110   2.971
 6033W        W71194   8.796  16.464   2.438
 6034W        W71195  18.697   5.450  13.121
 6035W        W71196  36.172  33.100  13.350
 6036W        W71197   1.408  19.329  10.424
 6037W        W71198  12.233   1.817  14.517
 6038W        W71199   1.980  33.841  14.180
 6039W        W71200  11.586   4.231   0.289
 6040W        W71201  40.445  35.911  12.437
 6041W        W71202  31.606  25.430  13.595
 6042W        W71203  28.129  35.845  13.390
 6043W        W71204   0.876  19.309   2.617
 6044W        W71205   5.751   8.176  14.728
 6045W        W71206   1.787  23.751  10.654
 6046W        W71207  44.519  20.657   3.851
 6047W        W71208  39.358   6.905   3.559
 6048W        W71209  38.881  44.988   4.328
 6049W        W71210  39.714   5.931   1.989
 6050W        W71211  31.662  26.501  11.146
 6051W        W71212  40.198  16.567  11.605
 6052W        W71213  12.114  18.678  13.053
 6053W        W71214  22.167   5.991   1.394
 6054W        W71215  29.078   9.689  13.008
 6055W        W71216  27.400  15.061  12.988
 6056W        W71217  37.674   8.081   1.755
 6057W        W71218  32.450  33.165   3.120
 6058W        W71219   8.587  38.435  13.305
 6059W        W71220  37.871  29.624   2.164
 6060W        W71221  42.973   5.956   1.443
 6061W        W71222  33.407   5.857   0.487
 6062W        W71223   3.290  32.982   0.345
 6063W        W71224  14.142  18.976   1.261
 6064W        W71225   0.934  38.304   4.498
 6065W        W71226   4.221  36.094  13.806
 6066W        W71227  32.447  25.267   2.149
 6067W        W71228   0.831  34.837   2.534
 6068W        W71229  41.285   0.306   1.918
 6069W        W71230  12.196  42.561  14.132
 6070W        W71231  22.488  19.190   0.269
 6071W        W71232  38.235  22.079  13.498
 6072W        W71233  27.628  27.866  11.995
 6073W        W71234  25.676  26.410  12.814
 6074W        W71235  19.157  34.394  12.039
 6075W        W71236  30.011   0.400  14.246
 6076W        W71237  20.693  32.238  14.396
 6077W        W71238  12.232  33.362  11.992
 6078W        W71239  18.318   0.856   3.242
 6079W        W71240  23.950   7.638  10.856
 6080W        W71241  14.639  36.273   1.545
 6081W        W71242  32.449  27.284   2.257
 6082W        W71243   1.288  30.660   3.645
 6083W        W71244  35.005  27.900   1.874
 6084W        W71245  19.697  22.137  14.373
 6085W        W71246   0.966  32.899   4.350
 6086W        W71247  27.015   2.655  13.545
 6087W        W71248   1.586  21.932   0.476
 6088W        W71249  41.003  30.666   0.831
 6089W        W71250  21.783  16.401  11.760
 6090W        W71251   1.130  36.061  12.499
 6091W        W71252  32.943  10.487  10.678
 6092W        W71253  19.483  26.497   3.538
 6093W        W71254  10.536  11.154  12.051
 6094W        W71255   6.275  36.819   2.635
 6095W        W71256  33.482  43.961  12.447
 6096W        W71257  29.899  24.992   0.370
 6097W        W71258  23.134  37.434   2.581
 6098W        W71259  16.690  30.964   2.167
 6099W        W71260  30.903  38.497   4.800
 6100W        W71261  38.366   2.365   3.500
 6101W        W71262  18.716   9.695  11.843
 6102W        W71263  18.352  43.393   3.589
 6103W        W71264  23.640  15.179  13.270
 6104W        W71265  10.190  17.379   2.163
 6105W        W71266  44.880  18.552   4.333
 6106W        W71267  18.981  18.420  14.130
 6107W        W71268  10.737  23.066  11.644
 6108W        W71269   8.470  29.215  10.496
 6109W        W71270  11.825  36.733   2.694
 6110W        W71271  17.311   1.119   9.929
 6111W        W71272  27.052   7.673  10.591
 6112W        W71273  34.860  12.295  11.494
 6113W        W71274   6.174  33.064   0.792
 6114W        W71275   6.771  34.633  10.757
 6115W        W71276   9.722   9.698   1.342
 6116W        W71277  24.206  13.284   1.651
 6117W        W71278  37.893  31.203   3.817
 6118W        W71279   9.716  11.815  13.097
 6119W        W71280  10.656   5.433   2.602
 6120W        W71281  21.025   2.015   1.843
 6121W        W71282  36.332   7.472   3.220
 6122W        W71283  31.409  44.902   0.587
 6123W        W71284  18.491  11.039   1.949
 6124W        W71285  34.484  34.010   4.447
 6125W        W71286  25.271  43.281   0.931
 6126W        W71287   7.169   6.748   4.010
 6127W        W71288  27.829   8.395   3.617
 6128W        W71289  41.769  30.036  13.001
 6129W        W71290   7.743  37.432  11.138
 6130W        W71291  33.538  10.852  14.234
 6131W        W71292  44.771  32.607  11.989
 6132W        W71293  16.951  29.271   4.879
 6133W        W71294  41.365   9.699   1.073
 6134W        W71295  39.630  23.278  11.227
 6135W        W71296  37.071  18.883  14.973
 6136W        W71297  19.464   4.693   4.335
 6137W        W71298  31.016  20.853   0.758
 6138W        W71299  19.869  43.522   3.558
 6139W        W71300  38.076   5.260   2.629
 6140W        W71301   1.903  12.254  12.860
 6141W        W71302  39.525   7.205  12.085
 6142W        W71303   5.878  12.440  10.946
 6143W        W71304  32.015  11.217  12.526
 6144W        W71305   4.875  20.030  12.993
 6145W        W71306  16.087  43.850  11.536
 6146W        W71307  38.503  40.435  14.785
 6147W        W71308  36.311  17.550   0.528
 6148W        W71309  31.464   8.261   4.827
 6149W        W71310  12.896  19.645   3.475
 6150W        W71311  11.172  19.807   3.731
 6151W        W71312  20.890   6.360  12.500
 6152W        W71313  34.212  29.463   0.868
 6153W        W71314  21.735  42.832  12.867
 6154W        W71315  43.452  14.834  13.820
 6155W        W71316  11.144  44.714   4.635
 6156W        W71317  37.048  28.653  13.789
 6157W        W71318  12.154   3.322   4.353
 6158W        W71319  43.519  14.718  11.895
 6159W        W71320   5.698  29.455   2.202
 6160W        W71321  15.062   7.834   0.270
 6161W        W71322  38.830  18.609  12.932
 6162W        W71323  29.350   6.624   4.588
 6163W        W71324  39.847  36.661   4.287
 6164W        W71325   1.360  43.264   2.186
 6165W        W71326  16.004   7.391   0.247
 6166W        W71327  35.013  31.594  13.325
 6167W        W71328  21.680  28.546   2.104
 6168W        W71329   1.992   8.015  13.119
 6169W        W71330  24.568  18.565  11.138
 6170W        W71331  36.867  44.236   1.566
 6171W        W71332  41.186   6.376   2.690
 6172W        W71333  30.563  23.095  12.410
 6173W        W71334  14.948  18.612   2.826
 6174W        W71335  27.020  42.975   4.462
 6175W        W71336  14.643  30.670  14.892
 6176W        W71337  39.658  10.144  11.524
 6177W        W71338  14.913  35.638   4.098
 6178W        W71339   6.870  17.136  10.475
 6179W        W71340  43.499  29.699  14.706
 6180W        W71341  39.877  36.425  14.328
 6181W        W71342  38.887  43.948   1.916
 6182W        W71343   6.917   3.726   1.633
 6183W        W71344  21.949  27.630   1.716
 6184W        W71345  25.644  40.820  12.493
 6185W        W71346  28.593  40.694  14.329
 6186W        W71347   4.204  31.995   1.787
 6187W        W71348  23.403  43.957  12.067
 6188W        W71349  34.059  26.975  12.687
 6189W        W71350  10.137  21.017   1.219
 6190W        W71351   6.489   6.217  11.590
 6191W        W71352   3.116   3.776  11.142
 6192W        W71353  32.038  37.874   1.206
 6193W        W71354   7.342  36.809  13.137
 6194W        W71355   5.983  28.522   0.981
 6195W        W71356  16.976  40.493  14.338
 6196W        W71357  12.213  30.096   4.518
 6197W        W71358  13.075  16.212  10.806
 6198W        W71359  38.118   1.471   5.024
 6199W        W71360  10.820  39.859   3.419
 6200W        W71361  13.689  14.655   3.514
 6201W        W71362  28.721  39.642  13.363
 6202W        W71363  21.748  35.525   4.612
 6203W        W71364  26.788  24.286  14.336
 6204W        W71365   9.324   4.748   2.293
 6205W        W71366  12.184  21.654  14.927
 6206W        W71367   7.122  30.961   3.398
 6207W        W71368   4.426  30.384   1.418
 6208W        W71369   7.794  31.984   3.226
 6209W        W71370  44.993  43.045  14.315
 6210W        W71371  32.052  26.758   4.797
 6211W        W71372   3.871  24.571   0.166
 6212W        W71373  18.966  26.015  14.569
 6213W        W71374  15.817   5.197   1.841
 6214W        W71375   0.862  23.466   4.144
 6215W        W71376   4.958  23.415   3.759
 6216W        W71377  34.602  21.469  13.451
 6217W        W71378  30.042   0.332  14.741
 6218W        W71379  10.248  43.344  13.937
 6219W        W71380  14.764  31.615   0.769
 6220W        W71381  13.596  16.204   0.128
 6221W        W71382  43.413  11.291  10.438
 6222W        W71383  23.500  34.872   4.262
 6223W        W71384  12.629  42.882   0.004
 6224W        W71385  31.160  41.793   3.740
 6225W        W71386  27.611  10.433  13.770
 6226W        W71387  30.818  13.779  10.896
 6227W        W71388  11.282  31.314  12.978
 6228W        W71389   9.733  21.238  13.312
 6229W        W71390  22.115  27.760  14.639
 6230W        W71391  31.535  41.922  12.418
 6231W        W71392   3.800  22.086  12.195
 6232W        W71393  43.907  16.863  11.865
 6233W        W71394  35.383  40.904   2.151
 6234W        W71395  24.821   9.697   0.503
 6235W        W71396   7.800  41.010  13.794
 6236W        W71397  40.906  14.806  12.041
 6237W        W71398  34.631   5.581  14.698
 6238W        W71399  25.237  16.104  13.217
 6239W        W71400  26.013  34.590   3.561
 6240W        W71401   3.010  10.226  13.565
 6241W        W71402  19.229  18.334   2.681
 6242W        W71403  30.213  23.224  14.991
 6243W        W71404  30.468  33.878  11.701
 6244W        W71405  28.172  37.233   4.416
 6245W        W71406  23.820   7.587  12.980
 6246W        W71407  28.992  36.138   0.549
 6247W        W71408  27.435  23.468  11.995
 6248W        W71409  40.864  18.144  13.504
 6249W        W71410  14.746  37.528  14.831
 6250W        W71411  41.827  28.328  12.643
 6251W        W71412   0.177   9.080  14.212
 6252W        W71413   3.095  17.061  12.848
 6253W        W71414  23.026   9.940  14.486
 6254W        W71415  31.089  32.196   5.396
 6255W        W71416  15.340   1.183   0.280
 6256W        W71417  13.586  18.294  11.104
 6257W        W71418  43.264  39.811   0.724
 6258W        W71419   3.399  28.628  14.752
 6259W        W71420   3.395  40.129  10.131
 6260W        W71421  42.290  31.638  14.345
 6261W        W71422  30.878  29.614  12.905
 6262W        W71423  27.853   6.931   2.766
 6263W        W71424  38.435  28.095  13.094
 6264W        W71425  13.941  20.105   0.165
 6265W        W71426  28.249  38.470   2.227
 6266W        W71427  10.734  11.513   2.318
 6267W        W71428   9.651  32.512   2.061
 6268W        W71429  35.469  23.660   0.998
 6269W        W71430  19.735   2.313   4.135
 6270W        W71431  19.774  24.821   2.954
 6271W        W71432  28.619  14.431  13.771
 6272W        W71433  28.942  18.719  11.555
 6273W        W71434  17.385  35.576  14.410
 6274W        W71435  29.993  39.285   3.373
 6275W        W71436   8.532  16.328  14.842
 6276W        W71437  16.636  18.975  12.221
 6277W        W71438   6.675   4.689  14.406
 6278W        W71439  29.162   5.827   4.967
 6279W        W71440  38.840   1.613  12.452
 6280W        W71441  25.105  15.425  14.385
 6281W        W71442  35.868  13.614   3.221
 6282W        W71443  30.129  39.823  10.546
 6283W        W71444  27.440   4.824  13.859
 6284W        W71445   2.529  14.136   4.383
 6285W        W71446   7.840  31.084  10.980
 6286W        W71447   7.887   9.158   2.188
 6287W        W71448  36.736   4.168   2.653
 6288W        W71449  27.109  19.893   2.406
 6289W        W71450  23.805  39.006   0.485
 6290W        W71451  37.575  20.757   3.555
 6291W        W71452  42.604  12.611  14.128
 6292W        W71453  25.403  36.931  11.521
 6293W        W71454  29.594  18.690   2.655
 6294W        W71455  16.478  32.482  13.854
 6295W        W71456   0.004  44.874  14.847
 6296W        W71457   2.312   5.602  14.198
 6297W        W71458  39.273   6.944  11.718
 6298W        W71459  39.576  42.087  11.522
 6299W        W71460  27.023  23.404   4.526
 6300W        W71461  39.447  33.338  12.925
 6301W        W71462   7.303  39.916  11.648
 6302W        W71463  21.495  12.208   3.109
 6303W        W71464  15.537  25.619   0.919
 6304W        W71465  37.173   1.983   1.272
 6305W        W71466   2.690  15.581  14.839
 6306W        W71467  20.160   3.215   0.487
 6307W        W71468  30.278  40.995   5.594
 6308W        W71469  18.222  17.787   1.118
 6309W        W71470  25.003  37.279   1.743
 6310W        W71471   7.277   2.294   0.186
 6311W        W71472  41.932  27.698  14.329
 6312W        W71473  40.991   8.897   2.067
 6313W        W71474  15.110   1.717  11.157
 6314W        W71475  22.611  13.935   0.905
 6315W        W71476  27.052   9.221  12.437
 6316W        W71477  24.077  14.064  14.804
 6317W        W71478   2.070  32.236   5.008
 6318W        W71479   6.703   9.861  10.677
 6319W        W71480   1.250  28.261  13.945
 6320W        W71481  35.334  17.108   2.338
 6321W        W71482   8.399  10.333  10.565
 6322W        W71483   3.297  15.279   0.469
 6323W        W71484  41.338  22.993   2.209
 6324W        W71485   7.724  27.078   1.801
 6325W        W71486  29.603  15.715  10.415
 6326W        W71487  32.530  24.974   1.711
 6327W        W71488  14.866  36.125   1.979
 6328W        W71489   7.214   1.955  14.779
 6329W        W71490  42.318  25.787   2.191
 6330W        W71491  15.035   9.205  12.127
 6331W        W71492  40.098  20.603  13.415
 6332W        W71493   7.087   0.666  13.526
 6333W        W71494  10.614  37.814   0.413
 6334W        W71495  27.021   8.811   1.686
 6335W        W71496  23.611  44.387  13.400
 6336W        W71497  21.971  30.211  14.466
 6337W        W71498  35.442  17.274  12.478
 6338W        W71499   1.924  30.935  14.222
 6339W        W71500  43.882  23.413  13.351
 6340W        W71501  32.025  14.530   0.848
 6341W        W71502  22.312   8.259   1.302
 6342W        W71503  29.832  35.989  10.885
 6343W        W71504  37.838  23.349   4.155
 6344W        W71505  19.303  33.018  11.686
 6345W        W71506  41.902   5.331  12.430
 6346W        W71507  21.059  23.247   1.072
 6347W        W71508  43.266  19.826  14.246
 6348W        W71509   2.815  16.221  13.515
 6349W        W71510  41.259  16.297  12.039
 6350W        W71511  20.550  17.914   0.323
 6351W        W71512   7.570   1.973  13.475
 6352W        W71513  19.460  29.606   0.956
 6353W        W71514  44.902  20.195   4.706
 6354W        W71515  44.353  38.325   3.118
 6355W        W71516   3.343  30.689   4.111
 6356W        W71517  25.803  17.863  10.811
 6357W        W71518  28.836  37.896  14.833
 6358W        W71519  41.932  40.356   3.663
 6359W        W71520  14.634  12.056  12.938
 6360W        W71521  29.194   9.795  14.414
 6361W        W71522   0.815  19.266  12.088
 6362W        W71523  23.535  22.110   3.094
 6363W        W71524   9.894  30.923   3.227
 6364W        W71525   8.351  13.228   2.209
 6365W        W71526  28.019  29.229  12.039
 6366W        W71527  18.659  36.064  11.621
 6367W        W71528  13.165  13.672  13.190
 6368W        W71529  30.862  25.458  14.526
 6369W        W71530  35.779   1.271   3.012
 6370W        W71531  15.097   0.987  12.504
 6371W        W71532  10.114  24.970  10.712
 6372W        W71533   3.481  27.320  11.237
 6373W        W71534   5.054   7.812   1.694
 6374W        W71535  29.468  19.262  12.103
 6375W        W71536  29.349  44.171  11.091
 6376W        W71537   2.157  32.660  11.163
 6377W        W71538  35.029   3.453   4.069
 6378W        W71539  42.020  42.112   0.045
 6379W        W71540  12.920  28.045  12.008
 6380W        W71541  30.870  18.430   4.999
 6381W        W71542  29.556  43.322  12.607
 6382W        W71543  19.775  38.820  12.049
 6383W        W71544   3.457  36.157  12.995
 6384W        W71545   9.989  18.777  14.827
 6385W        W71546  29.915  21.527   0.856
 6386W        W71547   9.687  14.757  13.594
 6387W        W71548  43.600  44.024   3.524
 6388W        W71549  10.862  30.943   1.038
 6389W        W71550   2.626  32.776   2.225
 6390W        W71551  38.127  23.090   2.232
 6391W        W71552  24.906  29.970  14.344
 6392W        W71553  38.957  30.940   2.378
 6393W        W71554  30.936   2.859  14.756
 6394W        W71555  22.263  31.396   0.525
 6395W        W71556  28.998   7.274  11.510
 6396W        W71557  42.023  12.630  11.166
 6397W        W71558  22.144  40.182   5.116
 6398W        W71559  14.839  22.739  11.708
 6399W        W71560   4.646  13.397   4.458
 6400W        W71561  30.805  42.267   3.286
 6401W        W71562  25.603  41.775  12.663
 6402W        W71563  28.727  33.598   3.261
 6403W        W71564  33.620  21.852   3.439
 6404W        W71565  17.248  21.112  13.849
 6405W        W71566  26.622  11.399  14.990
 6406W        W71567   1.280  13.714  12.173
 6407W        W71568  17.626   3.835  11.814
 6408W        W71569  22.659  32.179  13.443
 6409W        W71570  44.512  36.412   4.176
 6410W        W71571  11.380  28.226  11.621
 6411W        W71572  38.279  10.826  13.893
 6412W        W71573   1.017  21.542  13.651
 6413W        W71574  43.677  41.993  12.480
 6414W        W71575   5.265  34.466   4.132
 6415W        W71576  38.383   0.752   3.948
 6416W        W71577  30.495  20.588  11.920
 6417W        W71578  40.785  23.438  13.146
 6418W        W71579  33.421  44.935  12.249
 6419W        W71580  18.133  44.113  12.535
 6420W        W71581  19.746  44.120  11.557
 6421W        W71582  18.578   8.225  14.416
 6422W        W71583   9.990  36.047   3.368
 6423W        W71584  31.532   9.323   4.826
 6424W        W71585  35.139  29.685  11.984
 6425W        W71586  40.781  27.441   1.322
 6426W        W71587  28.129  12.838  13.373
 6427W        W71588  15.593  27.548   2.945
 6428W        W71589   5.275  14.231  12.390
 6429W        W71590  34.769  22.351  12.483
 6430W        W71591  23.779  14.440  14.547
 6431W        W71592   0.062  14.385  12.164
 6432W        W71593  22.267  38.675  11.899
 6433W        W71594  39.453  44.362  11.301
 6434W        W71595  28.891  23.167  10.931
 6435W        W71596  15.168  26.714  10.954
 6436W        W71597  26.662  12.722   1.912
 6437W        W71598  23.051  25.770   3.765
 6438W        W71599  16.096  34.913   1.166
 6439W        W71600  20.296   5.873  13.459
 6440W        W71601  22.237  34.010  14.313
 6441W        W71602  12.589   1.175   4.108
 6442W        W71603  36.368   5.020   2.607
 6443W        W71604  10.686  16.837  14.534
 6444W        W71605   4.205  13.549  10.735
 6445W        W71606   7.976   6.310  14.494
 6446W        W71607  26.827  12.107  13.236
 6447W        W71608   9.951  27.094  12.462
 6448W        W71609  29.991  21.942  13.061
 6449W        W71610  12.430  12.169   4.255
 6450W        W71611  24.330  10.373  10.325
 6451W        W71612  24.412  28.717  13.955
 6452W        W71613  22.522  27.155   0.845
 6453W        W71614   4.667   8.002   2.006
 6454W        W71615  41.318   3.920  12.922
 6455W        W71616  17.512  37.903   1.115
 6456W        W71617  33.961   4.469   2.865
 6457W        W71618  41.290   3.378   0.945
 6458W        W71619  18.681  18.063  13.908
 6459W        W71620  36.571  44.764  13.431
 6460W        W71621  24.794  22.202   2.606
 6461W        W71622   3.599   9.110   2.384
 6462W        W71623  10.462  11.689   0.824
 6463W        W71624  20.426   7.761  13.795
 6464W        W71625  28.657   7.916  14.395
 6465W        W71626  24.227  33.591  12.503
 6466W        W71627  38.552   4.912   1.961
 6467W        W71628  31.000   9.332   1.632
 6468W        W71629   7.894  26.939   2.681
 6469W        W71630  13.592   9.859   4.606
 6470W        W71631  29.843  35.520   2.799
 6471W        W71632  26.665  20.073   0.262
 6472W        W71633  19.486  29.882  12.548
 6473W        W71634  16.933  42.067  10.134
 6474W        W71635  40.835   4.145  11.873
 6475W        W71636  20.596   7.280  11.095
 6476W        W71637  24.695  10.678   2.265
 6477W        W71638   3.362   9.176   4.726
 6478W        W71639  20.194  35.005   0.441
 6479W        W71640  10.801  11.332   1.007
 6480W        W71641  17.541   2.289   3.083
 6481W        W71642  35.997  10.727  11.726
 6482W        W71643  11.337  23.203  12.814
 6483W        W71644   8.666   2.927   3.809
 6484W        W71645   3.038  14.459  13.021
 6485W        W71646  13.243   1.910   4.230
 6486W        W71647   3.702   8.907  14.948
 6487W        W71648  14.457  18.784  14.936
 6488W        W71649  17.340   5.692   3.926
 6489W        W71650   1.477  29.616   2.780
 6490W        W71651  24.322  44.970  13.462
 6491W        W71652   4.160  31.417   0.513
 6492W        W71653  42.978  32.081  12.999
 6493W        W71654  23.399  27.299  10.802
 6494W        W71655  38.021  43.582  11.374
 6495W        W71656  43.445  34.889   3.580
 6496W        W71657   3.786  15.217   0.926
 6497W        W71658   1.111  37.710  11.193
 6498W        W71659  34.388  25.638   0.275
 6499W        W71660   2.202  27.239   2.419
 6500W        W71661  26.062  12.758   0.807
 6501W        W71662   9.427  44.201  14.491
 6502W        W71663  34.062  36.743  14.573
 6503W        W71664   3.217  23.615  12.620
 6504W        W71665  14.361  24.197   2.014
 6505W        W71666  12.185  43.824  12.878
 6506W        W71667  14.416   5.171  13.120
 6507W        W71668   1.702  26.733  14.879
 6508W        W71669  27.511  35.391   4.973
 6509W        W71670   0.404  34.005  12.161
 6510W        W71671  41.719  19.500  13.461
 6511W        W71672   2.866  19.309  14.014
 6512W        W71673  10.739  24.689   4.174
 6513W        W71674  37.465  19.725  14.454
 6514W        W71675  10.131  31.533  10.732
 6515W        W71676  38.105  34.501   1.230
 6516W        W71677  21.320  14.562  12.803
 6517W        W71678  36.921   6.474  11.578
 6518W        W71679   8.122  11.862  13.014
 6519W        W71680  31.821  37.476   0.560
 6520W        W71681   0.328   6.373  10.676
 6521W        W71682   5.406  24.401  13.911
 6522W        W71683  40.215  44.548   4.882
 6523W        W71684   9.650   7.074  10.478
 6524W        W71685  11.115  30.139   2.672
 6525W        W71686  16.432  11.273   0.895
 6526W        W71687  41.592  27.126  11.344
 6527W        W71688  41.443  16.751   1.152
 6528W        W71689  14.575  29.973  14.513
 6529W        W71690  17.121  32.534   4.881
 6530W        W71691  13.118  12.287  13.674
 6531W        W71692   4.823  36.554   2.304
 6532W        W71693  33.576   9.862   0.332
 6533W        W71694  32.860  36.035   4.116
 6534W        W71695  10.434  13.179  12.910
 6535W        W71696  34.635  35.012  11.103
 6536W        W71697  35.081  28.546  13.865
 6537W        W71698  21.044  30.359   0.419
 6538W        W71699  17.074  26.569   3.694
 6539W        W71700  30.165  38.938   4.650
 6540W        W71701  29.356  26.667  14.341
 6541W        W71702  40.443   1.157  10.796
 6542W        W71703  37.028  14.042   4.526
 6543W        W71704  23.543  39.253   4.698
 6544W        W71705  14.569  21.056  13.505
 6545W        W71706  15.753   9.804   0.850
 6546W        W71707  23.715   6.863  13.942
 6547W        W71708  43.693   2.431  13.298
 6548W        W71709  34.949  10.559   3.772
 6549W        W71710  39.405  33.827  13.080
 6550W        W71711   4.226  23.438  10.953
 6551W        W71712  28.511   9.349   3.482
 6552W        W71713  22.221  24.666   2.263
 6553W        W71714  44.679  39.110  10.289
 6554W        W71715  34.377   3.708  14.294
 6555W        W71716  11.092  36.001   2.385
 6556W        W71717   7.501  41.685  11.665
 6557W        W71718  13.973   6.687  14.147
 6558W        W71719  14.774  43.476   0.245
 6559W        W71720  37.718   0.412   1.779
 6560W        W71721  12.375   4.268  12.057
 6561W        W71722  24.250  12.243  12.854
 6562W        W71723  13.171  35.900   0.361
 6563W        W71724  18.201  23.721   1.196
 6564W        W71725  39.627  34.521   1.510
 6565W        W71726  37.426  22.471  12.489
 6566W        W71727  42.068   8.216   3.527
 6567W        W71728  12.939   2.133   2.293
 6568W        W71729  19.599  21.947   1.917
 6569W        W71730   2.383  32.393  11.547
 6570W        W71731   8.537  26.803  11.188
 6571W        W71732   0.937  44.549  11.594
 6572W        W71733  13.123  16.894   4.621
 6573W        W71734   8.468  35.501   4.949
 6574W        W71735  38.029  25.185  12.474
 6575W        W71736  13.644  40.701  13.100
 6576W        W71737  33.466  20.176  11.521
 6577W        W71738  21.458  38.578   0.321
 6578W        W71739  13.663  28.144  12.918
 6579W        W71740   8.865   6.866  13.742
 6580W        W71741  12.499  26.646  14.242
 6581W        W71742  44.206  34.437   1.708
 6582W        W71743   4.735  29.095  11.239
 6583W        W71744  39.646  41.720  12.973
 6584W        W71745  26.525  35.350   2.413
 6585W        W71746  26.907   5.905  14.358
 6586W        W71747  21.185  34.500  13.910
 6587W        W71748  24.530   1.177   0.870
 6588W        W71749  27.675  17.119   3.855
 6589W        W71750   0.155  21.090   0.833
 6590W        W71751  27.595  32.144   3.345
 6591W        W71752  38.298  38.005  13.368
 6592W        W71753  31.909  43.106  11.065
 6593W        W71754  32.723  33.056   1.695
 6594W        W71755  42.729  15.736  13.027
 6595W        W71756  39.519  27.364  13.330
 6596W        W71757  31.571  26.222   3.276
 6597W        W71758  21.582  41.987  11.913
 6598W        W71759  42.005  39.843  11.442
 6599W        W71760  26.384  20.603  12.203
 6600W        W71761  18.865  21.805  11.627
 6601W        W71762  39.626  22.705  11.398
 6602W        W71763  13.371  12.033   4.924
 6603W        W71764  11.804  28.151   3.223
 6604W        W71765  38.512   3.910  13.860
 6605W        W71766  27.282   7.418   2.124
 6606W        W71767  25.257  31.175   1.373
 6607W        W71768  18.030  11.628  10.481
 6608W        W71769   7.236  44.873   0.394
 6609W        W71770  36.630  42.547  14.365
 6610W        W71771  25.473  44.537   2.590
 6611W        W71772  11.550  18.758  13.814
 6612W        W71773   0.789  14.285   0.201
 6613W        W71774  28.567  33.905   4.617
 6614W        W71775  37.791  30.447  12.935
 6615W        W71776   3.182  13.959  13.058
 6616W        W71777  30.080  29.142  13.891
 6617W        W71778  34.287  43.403  14.870
 6618W        W71779  15.322  34.844   2.872
 6619W        W71780   8.748  38.308  13.931
 6620W        W71781  34.089   1.643  11.360
 6621W        W71782  38.952   0.779  13.866
 6622W        W71783  43.975  33.559   3.784
 6623W        W71784  35.047  31.973  14.226
 6624W        W71785  25.807  40.338  12.438
 6625W        W71786   1.290   7.908   1.059
 6626W        W71787  12.085  18.117   0.848
 6627W        W71788   7.312  32.237  10.360
 6628W        W71789   5.810  15.071   0.975
 6629W        W71790  22.711  26.590  10.719
 6630W        W71791  13.071  35.929  12.419
 6631W        W71792  34.525   1.499  11.970
 6632W        W71793  43.117   9.392  14.512
 6633W        W71794  24.940  33.682   2.565
 6634W        W71795  13.727  36.484   1.525
 6635W        W71796  13.298   9.079  11.584
 6636W        W71797  19.906  28.146  12.457
 6637W        W71798   5.358  44.501   2.737
 6638W        W71799  13.630  31.366  10.618
 6639W        W71800  19.043  12.783   1.301
 6640W        W71801  10.802  32.624   1.357
 6641W        W71802  30.719   7.317  14.837
 6642W        W71803  32.401  19.743   1.353
 6643W        W71804  38.044  37.113  12.465
 6644W        W71805  38.925  28.552   4.228
 6645W        W71806   8.362  19.631  13.387
 6646W        W71807   0.133  19.259   0.554
 6647W        W71808  36.397  20.622   5.101
 6648W        W71809  25.756   1.440   0.400
 6649W        W71810  10.846   7.885   3.929
 6650W        W71811  19.707  24.439   2.337
 6651W        W71812  35.623  34.440   2.869
 6652W        W71813  36.276  30.013  10.718
 6653W        W71814  32.701  43.529   1.762
 6654W        W71815   1.781  13.096  12.499
 6655W        W71816  16.028  35.852  11.392
 6656W        W71817  32.184   4.519  11.919
 6657W        W71818  35.510  26.190   1.276
 6658W        W71819  36.518  22.287   2.667
 6659W        W71820   7.160  38.970   1.237
 6660W        W71821  26.941  20.708   1.348
 6661W        W71822  12.994   8.192  13.314
 6662W        W71823  34.512  43.743   2.766
 6663W        W71824   4.670  19.038   2.470
 6664W        W71825   2.401   0.894  13.100
 6665W        W71826  38.764  17.243  14.869
 6666W        W71827  17.058   4.726   1.352
 6667W        W71828  40.528  16.863  14.814
 6668W        W71829   0.282   1.338   0.794
 6669W        W71830   5.505  26.315  12.579
 6670W        W71831  32.049  16.601  13.270
 6671W        W71832   0.435  36.914  13.763
 6672W        W71833  12.630  20.438   1.044
 6673W        W71834  41.083   4.309  10.714
 6674W        W71835  36.997  25.280   1.314
 6675W        W71836  42.823   3.130  14.418
 6676W        W71837   6.581   1.366  14.947
 6677W        W71838  16.214   2.504  14.752
 6678W        W71839  20.764  36.358  13.774
 6679W        W71840  23.418  20.014   3.178
 6680W        W71841  40.991  21.094   1.044
 6681W        W71842  28.593  15.805  14.926
 6682W        W71843  30.994  30.693   1.693
 6683W        W71844  44.456  20.812  12.168
 6684W        W71845  28.066   2.971  10.694
 6685W        W71846  31.983  33.969  13.879
 6686W        W71847   3.481  29.437   3.701
 6687W        W71848  14.206  21.186  12.440
 6688W        W71849  40.778  19.507   4.206
 6689W        W71850  14.114  11.858  14.402
 6690W        W71851   1.393  11.581  10.314
 6691W        W71852  13.594  40.778   4.267
 6692W        W71853  26.633   3.229  14.241
 6693W        W71854  36.634  36.023  10.796
 6694W        W71855  39.491  25.494  14.820
 6695W        W71856  43.080  15.086  11.087
 6696W        W71857  38.543  43.797  13.388
 6697W        W71858  28.659  13.125   0.893
 6698W        W71859   0.420  13.825   0.913
 6699W        W71860  11.125   2.944  11.387
 6700W        W71861  41.480   1.958   0.530
 6701W        W71862  36.303   1.764  14.179
 6702W        W71863   8.632  31.222   3.905
 6703W        W71864  27.564   6.458  10.505
 6704W        W71865  18.256  27.767  13.027
 6705W        W71866  11.623  25.345   1.541
 6706W        W71867  44.362  38.620   2.643
 6707W        W71868   6.692  29.705   4.152
 6708W        W71869  34.109  22.097  13.942
 6709W        W71870  10.681  23.583  13.548
 6710W        W71871  43.896  12.193   2.628
 6711W        W71872  16.787  24.623  11.351
 6712W        W71873  14.101   5.318   4.091
 6713W        W71874   1.277  10.772  12.061
 6714W        W71875  14.811  24.033   1.290
 6715W        W71876  15.530   9.965   2.384
 6716W        W71877  31.570  23.992  13.521
 6717W        W71878  26.503  13.400   1.319
 6718W        W71879  28.862  42.266  11.910
 6719W        W71880  16.483  28.891  11.455
 6720W        W71881  38.618  20.270  10.993
 6721W        W71882  16.831   8.885   2.598
 6722W        W71883  31.004  33.613  10.627
 6723W        W71884  30.857  33.135   1.845
 6724W        W71885  37.530  29.921   4.595
 6725W        W71886  31.977  37.398   3.453
 6726W        W71887  42.365  19.637   3.596
 6727W        W71888  39.214  39.377  10.344
 6728W        W71889  31.562  15.308   0.941
 6729W        W71890  31.115  38.546  11.128
 6730W        W71891   4.133  22.058  13.376
 6731W        W71892  43.395  24.935  12.192
 6732W        W71893   1.008   1.959  14.794
 6733W        W71894  36.001  40.140   3.923
 6734W        W71895  21.745  26.401  13.503
 6735W        W71896  32.933  22.271   4.623
 6736W        W71897   9.305   3.608  12.207
 6737W        W71898  17.787  24.041  12.950
 6738W        W71899  23.518  41.292   2.369
 6739W        W71900  23.741   7.295  12.152
 6740W        W71901  35.293   6.501  10.817
 6741W        W71902  39.343  13.580  14.233
 6742W        W71903  27.429  15.166  14.796
 6743W        W71904   1.608  17.667  14.008
 6744W        W71905  19.973  39.611  11.485
 6745W        W71906  35.292  34.534   2.427
 6746W        W71907  11.911  24.383   4.144
 6747W        W71908   6.881  16.577   3.771
 6748W        W71909  33.506  30.985  11.658
 6749W        W71910  16.088  17.121  12.378
 6750W        W71911  42.255  35.632   5.584
 6751W        W71912  29.327   5.813   0.480
 6752W        W71913  30.778   2.767   1.367
 6753W        W71914   6.957   1.265  11.574
 6754W        W71915  13.728  14.634  14.872
 6755W        W71916  42.424  12.469   1.668
 6756W        W71917  30.668  24.654   4.870
 6757W        W71918  21.184  17.107   0.364
 6758W        W71919  37.120  17.656  12.496
 6759W        W71920  28.483  41.536  10.156
 6760W        W71921  26.519  11.133   3.351
 6761W        W71922  25.541  33.611  13.628
 6762W        W71923  15.205  11.340  13.830
 6763W        W71924  11.282  10.063  12.842
 6764W        W71925  34.073  18.170  10.640
 6765W        W71926  11.835  24.882  14.355
 6766W        W71927  30.162  42.985  13.527
 6767W        W71928  38.808  12.703   0.317
 6768W        W71929  14.684  30.735   1.245
 6769W        W71930  37.274  35.929   4.733
 6770W        W71931  24.203  10.853   0.382
 6771W        W71932   1.253  25.519  10.533
 6772W        W71933  24.228  32.509  11.929
 6773W        W71934  15.770  31.132   1.148
 6774W        W71935  39.501   0.478   2.817
 6775W        W71936   0.482   9.778  10.610
 6776W        W71937  24.245  34.101  13.554
 6777W        W71938  29.507  25.148   4.529
 6778W        W71939  23.509   9.573  11.913
 6779W        W71940   7.303  22.697   0.450
 6780W        W71941  29.081  25.589  13.877
 6781W        W71942   7.891  18.669   0.356
 6782W        W71943  41.601  20.393  11.143
 6783W        W71944  22.182   3.193  11.114
 6784W        W71945  23.561  14.276   0.889
 6785W        W71946  12.737  41.304  13.065
 6786W        W71947  19.640  14.297   1.147
 6787W        W71948  40.852   7.772   3.764
 6788W        W71949  22.038  10.206   4.566
 6789W        W71950  30.118  28.432   0.286
 6790W        W71951  20.518  33.742   1.184
 6791W        W71952  17.569  29.176   0.334
 6792W        W71953  18.737   8.106   4.124
 6793W        W71954  15.291  40.617   0.344
 6794W        W71955  12.150  20.647  10.569
 6795W        W71956  21.040  20.975  13.893
 6796W        W71957  20.138  35.371   1.777
 6797W        W71958  40.870   4.626   2.013
 6798W        W71959   0.420  41.025  13.751
 6799W        W71960   6.154  35.816  13.880
 6800W        W71961  30.615  33.445   3.402
 6801W        W71962  32.574   0.418  12.484
 6802W        W71963  40.026  21.138  13.426
 6803W        W71964  24.175  42.919   0.431
 6804W        W71965   8.441  39.599   4.316
 6805W        W71966  18.867  32.804   0.928
 6806W        W71967  18.833   7.444  11.736
 6807W        W71968  10.181  20.873   4.626
 6808W        W71969  20.997  33.562   1.282
 6809W        W71970  43.600  41.236   1.909
 6810W        W71971  32.351  16.153  12.687
 6811W        W71972  40.740  10.395   2.887
 6812W        W71973   7.469   0.264   1.811
 6813W        W71974  27.436  16.827  12.503
 6814W        W71975   1.924  12.564   3.577
 6815W        W71976   6.696  43.575   0.403
 6816W        W71977  37.612  38.123  10.564
 6817W        W71978   8.378  40.910   4.106
 6818W        W71979  39.491  40.297  11.069
 6819W        W71980   7.787   1.080   0.230
 6820W        W71981  11.235  36.497   3.741
 6821W        W71982  39.571  16.143   2.721
 6822W        W71983  27.597  11.831  13.506
 6823W        W71984  23.824  13.294   4.578
 6824W        W71985  41.930  32.957  10.662
 6825W        W71986   7.763  44.111  14.710
 6826W        W71987   0.157  31.408   2.245
 6827W        W71988  26.620  18.539   4.242
 6828W        W71989  23.522  12.198   3.934
 6829W        W71990   2.424  33.507   4.598
 6830W        W71991  21.847  35.509  11.260
 6831W        W71992   2.771   1.276  12.156
 6832W        W71993   5.285  40.377  14.761
 6833W        W71994  31.467   8.480  10.950
 6834W        W71995   7.254  16.247  14.010
 6835W        W71996  13.759  26.880  12.581
 6836W        W71997  30.978  36.555  10.793
 6837W        W71998  10.636  33.473   4.081
 6838W        W71999  28.500  20.994  14.411
 6839W        W72000  29.098  15.853   1.922
 6840W        W72001   3.357  20.998  14.707
 6841W        W72002  37.446  44.502  12.015
 6842W        W72003  36.955  12.822   4.407
 6843W        W72004   3.580  18.456  12.066
 6844W        W72005  28.428  20.799  10.723
 6845W        W72006  41.773  36.680  10.522
 6846W        W72007  23.818  37.495  14.798
 6847W        W72008  36.980  23.033   0.077
 6848W        W72009  23.030  18.147  11.206
 6849W        W72010  19.255  11.856   0.424
 6850W        W72011   3.660  30.515  13.888
 6851W        W72012  33.123   8.840   1.381
 6852W        W72013  17.601  32.570   1.079
 6853W        W72014  31.036  39.838  10.643
 6854W        W72015  31.132   4.612   2.249
 6855W        W72016  22.933  37.966   5.064
 6856W        W72017  44.755  40.008   3.781
 6857W        W72018  10.646  44.641  14.802
 6858W        W72019  42.829   1.870   2.748
 6859W        W72020   3.773  16.185   4.593
 6860W        W72021   3.130   8.340  13.935
 6861W        W72022  38.087  37.016  11.133
 6862W        W72023   5.889   7.605  12.890
 6863W        W72024  36.366  39.759   1.269
 6864W        W72025  21.122  42.899  13.971
 6865W        W72026  13.017  21.221   3.219
 6866W        W72027   9.436  13.697  12.460
 6867W        W72028  26.642  34.880  14.954
 6868W        W72029  35.764  26.514  13.387
 6869W        W72030  19.048   7.585  13.936
 6870W        W72031  39.564  31.849  14.974
 6871W        W72032  16.422  10.811   3.830
 6872W        W72033  42.505  36.863  14.135
 6873W        W72034  14.224   8.653   0.791
 6874W        W72035  23.211   3.535  13.112
 6875W        W72036  32.101  19.002   1.228
 6876W        W72037  13.687  42.409   5.217
 6877W        W72038   7.691  21.123   3.690
 6878W        W72039  25.110  19.292  12.355
 6879W        W72040  33.948  26.959   1.317
 6880W        W72041  42.707  22.597   4.231
 6881W        W72042   1.940  20.218   0.789
 6882W        W72043   5.820  18.820   2.884
 6883W        W72044  31.019  23.281   2.312
 6884W        W72045  34.511  12.442  14.553
 6885W        W72046  18.615  20.754   3.631
 6886W        W72047   9.324   1.277   2.748
 6887W        W72048  34.584  10.651  12.449
 6888W        W72049  34.241  36.987  10.662
 6889W        W72050   0.748  27.492   3.259
 6890W        W72051  38.816  13.075   1.943
 6891W        W72052  44.038  22.099  14.633
 6892W        W72053   8.423  27.044  12.557
 6893W        W72054  26.930   8.936  14.003
 6894W        W72055   1.514  24.617  10.949
 6895W        W72056  40.304   5.566   0.874
 6896W        W72057  30.567  16.622   1.385
 6897W        W72058  17.240   0.076   9.622
 6898W        W72059  35.910   5.967  10.776
 6899W        W72060  12.611  19.326  10.780
 6900W        W72061  30.751  28.284  12.027
 6901W        W72062  19.750  35.072   0.685
 6902W        W72063  26.161   9.698  12.973
 6903W        W72064  44.067   7.243   3.224
 6904W        W72065  27.542   9.208  13.710
 6905W        W72066  18.337  40.220   2.797
 6906W        W72067  18.361  42.847   0.031
 6907W        W72068  11.710  31.004   1.728
 6908W        W72069  35.578   6.916  10.884
 6909W        W72070  14.597  30.484   1.801
 6910W        W72071  13.214  19.666  10.663
 6911W        W72072   5.316  21.208   3.440
 6912W        W72073  36.850   2.140  11.194
 6913W        W72074  40.516  14.068   1.889
 6914W        W72075  17.300   8.968   2.802
 6915W        W72076  33.680  39.247  12.659
 6916W        W72077  34.074   1.913   1.975
 6917W        W72078   1.542  25.282  13.069
 6918W        W72079  38.371  28.503  14.880
 6919W        W72080  13.199   0.178  10.712
 6920W        W72081  23.930  11.540   1.239
 6921W        W72082  20.823   0.569   4.740
 6922W        W72083   5.834  43.399   2.732
 6923W        W72084  23.939  26.664  12.423
 6924W        W72085   7.935   0.064   1.884
 6925W        W72086   8.293  19.332   4.264
 6926W        W72087  40.837   9.531  11.636
 6927W        W72088  36.914  31.109  11.620
 6928W        W72089  26.050  29.980  13.510
 6929W        W72090  28.360  30.850   1.304
 6930W        W72091   6.538   5.426  11.042
 6931W        W72092  14.647   4.800  12.833
 6932W        W72093   0.851  11.928  10.325
 6933W        W72094  27.014   6.294   2.403
 6934W        W72095  33.690   0.408  10.186
 6935W        W72096  41.407  12.838   4.728
 6936W        W72097  35.564  15.619   3.265
 6937W        W72098  43.752  43.840   0.799
 6938W        W72099  33.080   0.763   3.586
 6939W        W72100  27.625  41.061   3.665
 6940W        W72101  35.878  44.957   4.071
 6941W        W72102  19.749   9.255   0.605
 6942W        W72103  23.950  29.637  12.073
 6943W        W72104  44.089  28.580   1.666
 6944W        W72105  13.039  43.341   3.198
 6945W        W72106  12.152  26.186   2.725
 6946W        W72107  21.193   6.662  14.754
 6947W        W72108  26.725  14.763   4.153
 6948W        W72109  27.593  25.433   0.716
 6949W        W72110  40.306  13.730  13.979
 6950W        W72111  23.655  33.313   0.710
 6951W        W72112  32.201  17.664  11.533
 6952W        W72113  35.328  15.467  13.501
 6953W        W72114   8.280   7.266   4.517
 6954W        W72115  19.809  30.843   4.644
 6955W        W72116  21.144  31.110  13.857
 6956W        W72117   1.364  12.392  14.469
 6957W        W72118  31.911   8.771  13.415
 6958W        W72119  41.380  17.293  10.527
 6959W        W72120  21.032  37.854   3.123
 6960W        W72121   0.307   3.361  13.416
 6961W        W72122  13.815  24.626  10.632
 6962W        W72123  23.997   9.268   4.459
 6963W        W72124  24.466   3.429   3.346
 6964W        W72125   5.974  22.100   1.880
 6965W        W72126   9.366  12.661  10.774
 6966W        W72127  20.138  11.868  12.345
 6967W        W72128   7.460   3.463   1.819
 6968W        W72129   7.968  19.759  11.171
 6969W        W72130   0.364   8.498   4.717
 6970W        W72131  35.903  18.059   3.243
 6971W        W72132   9.959  26.063   4.635
 6972W        W72133  10.634  15.978  12.861
 6973W        W72134  26.814  33.366   1.682
 6974W        W72135  11.377   6.890   4.138
 6975W        W72136   4.761   1.067   2.249
 6976W        W72137   6.032  33.530  12.007
 6977W        W72138   1.492   6.193  10.627
 6978W        W72139  25.018   8.653  14.518
 6979W        W72140  28.299  44.928   3.294
 6980W        W72141  14.261   5.944  13.016
 6981W        W72142  23.639   6.635   4.003
 6982W        W72143  35.347  43.927  12.450
 6983W        W72144  22.431  13.839  13.271
 6984W        W72145  15.849   2.814  10.869
 6985W        W72146   2.266  19.778   0.228
 6986W        W72147  40.960  23.834   2.402
 6987W        W72148  23.269  19.952   2.318
 6988W        W72149  43.565  40.657   9.543
 6989W        W72150  31.003  13.415   3.165
 6990W        W72151  25.943  10.262  11.440
 6991W        W72152   5.943   4.662  14.010
 6992W        W72153  36.563  41.277  11.417
 6993W        W72154  31.297  22.169  12.496
 6994W        W72155  16.326  22.237  13.516
 6995W        W72156   1.531  12.568  10.673
 6996W        W72157  25.307  41.556  13.712
 6997W        W72158  28.818   9.880   3.573
 6998W        W72159  16.136  25.231   4.158
 6999W        W72160  18.264   8.307   4.115
 7000W        W72161  15.112  11.373   3.306
 7001W        W72162   8.287  39.591  13.477
 7002W        W72163  12.823  14.874   2.230
 7003W        W72164  43.917  29.906  11.130
 7004W        W72165  38.123   0.649   3.186
 7005W        W72166  40.999  31.039  14.429
 7006W        W72167  22.565  16.261  13.985
 7007W        W72168   1.732  22.145   2.704
 7008W        W72169  38.445   2.841   3.273
 7009W        W72170  40.060   6.326  12.014
 7010W        W72171  22.720  34.029   1.266
 7011W        W72172  27.104  43.953  10.864
 7012W        W72173  39.969   3.819  11.960
 7013W        W72174  36.936  28.483   0.429
 7014W        W72175   9.472  36.981   4.444
 7015W        W72176   8.599  20.287  12.746
 7016W        W72177  34.953  40.737   1.824
 7017W        W72178  39.501  18.396   1.839
 7018W        W72179  41.382  29.182   1.239
 7019W        W72180   9.915   3.672  11.618
 7020W        W72181  29.379   3.278   3.197
 7021W        W72182  24.006  31.043   1.884
 7022W        W72183  40.973   0.358  12.322
 7023W        W72184  18.388  37.010  12.068
 7024W        W72185  43.710  23.705  10.829
 7025W        W72186  11.458  42.389  11.745
 7026W        W72187   4.767  10.167   0.876
 7027W        W72188  44.874  44.025  10.422
 7028W        W72189   5.317  15.871  12.962
 7029W        W72190  36.817  25.174  14.358
 7030W        W72191   6.247   1.325   3.656
 7031W        W72192  32.655  11.865   2.858
 7032W        W72193  40.434  22.810   2.709
 7033W        W72194   8.993  21.456  12.142
 7034W        W72195  11.194  29.440   0.368
 7035W        W72196  10.071  10.377  11.601
 7036W        W72197  37.886   5.050  14.885
 7037W        W72198  36.685  38.542   4.606
 7038W        W72199  20.559  42.910   9.784
 7039W        W72200  38.043  37.948   2.955
 7040W        W72201  20.568  14.018  11.589
 7041W        W72202  16.062  42.309  12.986
 7042W        W72203   3.711  30.982   4.359
 7043W        W72204  34.621  32.702  13.914
 7044W        W72205  20.470   5.375  13.515
 7045W        W72206  23.197  38.635   5.136
 7046W        W72207  42.333   8.227  14.837
 7047W        W72208  13.141  35.966   2.149
 7048W        W72209  15.578  37.171   3.219
 7049W        W72210  27.168  38.878  13.128
 7050W        W72211  32.292  30.214   4.280
 7051W        W72212   7.506   1.147  11.152
 7052W        W72213  21.092  13.605  12.094
 7053W        W72214   9.576   0.357   2.248
 7054W        W72215  18.723  16.104   1.330
 7055W        W72216   4.503  42.359  10.333
 7056W        W72217   3.276   0.012   3.711
 7057W        W72218   9.014  43.477   4.131
 7058W        W72219  34.122  34.109  11.148
 7059W        W72220  37.721  35.695   4.636
 7060W        W72221  13.178  36.725   2.924
 7061W        W72222  27.013  16.812  10.486
 7062W        W72223  18.129  15.834   0.528
 7063W        W72224  21.875  26.468  12.596
 7064W        W72225  18.641   5.231   3.904
 7065W        W72226  40.961   3.747   4.964
 7066W        W72227  35.135  24.398   0.304
 7067W        W72228  17.173   2.417   2.131
 7068W        W72229  24.555  20.325  11.944
 7069W        W72230   5.195   5.274   4.085
 7070W        W72231  14.067  32.624  12.475
 7071W        W72232  22.185  35.106  14.365
 7072W        W72233  24.265   0.347   1.002
 7073W        W72234  33.063  39.979  13.547
 7074W        W72235  37.850  26.752   3.569
 7075W        W72236  41.849  32.817   1.330
 7076W        W72237  29.291   1.413  11.061
 7077W        W72238  36.135  14.181  11.709
 7078W        W72239  14.661  19.083  11.874
 7079W        W72240   8.371  35.415  11.990
 7080W        W72241  17.109   5.826  14.442
 7081W        W72242   1.285  23.010  11.040
 7082W        W72243  26.536  17.736  14.981
 7083W        W72244  31.925  12.239   2.461
 7084W        W72245  23.303   5.710   1.015
 7085W        W72246  11.796  17.299  12.093
 7086W        W72247  20.496  10.535  14.039
 7087W        W72248   5.768  36.510   0.556
 7088W        W72249  23.800   1.370   0.447
 7089W        W72250  15.642  40.565   3.060
 7090W        W72251  12.350  33.009  13.348
 7091W        W72252  26.970  36.061  14.380
 7092W        W72253  12.903   0.011  11.103
 7093W        W72254   3.383  41.712   4.042
 7094W        W72255  42.365  23.681  14.488
 7095W        W72256  23.900  17.815  11.195
 7096W        W72257  43.249  44.645   2.293
 7097W        W72258  11.722   9.692   5.087
 7098W        W72259   3.826  35.362  11.152
 7099W        W72260  41.270   3.708   4.093
 7100W        W72261  30.903  13.927   3.104
 7101W        W72262  26.922   1.477  10.664
 7102W        W72263  44.413  29.671   3.397
 7103W        W72264  24.760  19.451  13.473
 7104W        W72265  16.968  20.891   1.475
 7105W        W72266  23.611  15.255   0.668
 7106W        W72267  36.042   7.171  12.881
 7107W        W72268  28.962  19.486  12.731
 7108W        W72269  25.716   6.982  10.440
 7109W        W72270  41.423  42.394   2.662
 7110W        W72271  36.764  23.768  12.631
 7111W        W72272  40.098  40.061   1.360
 7112W        W72273   4.299  16.031   0.866
 7113W        W72274  41.412  33.389  12.485
 7114W        W72275  41.963  38.926  14.355
 7115W        W72276  21.278  35.912   4.146
 7116W        W72277  44.055  42.599   1.726
 7117W        W72278   9.367  33.646  14.824
 7118W        W72279  22.325   5.498   1.448
 7119W        W72280  19.535  12.828   1.152
 7120W        W72281  38.917  30.671   1.548
 7121W        W72282   6.006  38.262  11.113
 7122W        W72283  15.733  20.790  10.183
 7123W        W72284   3.331  44.989   4.702
 7124W        W72285   6.528  41.761  12.997
 7125W        W72286  40.236  41.972  13.272
 7126W        W72287  41.443  36.264  10.317
 7127W        W72288  27.645   4.454   3.087
 7128W        W72289  18.808  13.748   4.215
 7129W        W72290  30.886   8.147   3.138
 7130W        W72291   2.310   7.700  11.038
 7131W        W72292   1.497  34.728  14.321
 7132W        W72293  35.732   3.706  14.323
 7133W        W72294  31.639  18.381   4.705
 7134W        W72295  21.257  11.362   0.887
 7135W        W72296  12.098  14.377  14.359
 7136W        W72297  34.853  24.233  14.711
 7137W        W72298  41.498  37.462  13.363
 7138W        W72299   5.362  41.792  11.333
 7139W        W72300  32.149   1.049   0.200
 7140W        W72301  27.570  29.971  13.350
 7141W        W72302  41.975  10.848   4.136
 7142W        W72303  43.807  18.170  10.621
 7143W        W72304  35.143  38.858   1.677
 7144W        W72305  32.199  38.313  13.582
 7145W        W72306  42.458   2.335   0.611
 7146W        W72307   3.386  36.944   4.016
 7147W        W72308  11.908   8.757  13.958
 7148W        W72309  40.479  26.858   2.853
 7149W        W72310  44.159  15.306   2.793
 7150W        W72311  18.996   7.282  11.278
 7151W        W72312  28.392  15.192  13.129
 7152W        W72313  10.731  29.030   1.900
 7153W        W72314  22.005   2.734  14.515
 7154W        W72315  38.565  43.377   3.708
 7155W        W72316   4.876  32.936   4.556
 7156W        W72317  21.379  39.514  10.173
 7157W        W72318  40.411   6.638   3.097
 7158W        W72319  14.747  30.243   1.355
 7159W        W72320  29.561  35.137  11.988
 7160W        W72321  34.727   8.497  12.009
 7161W        W72322  26.465  12.127  12.863
 7162W        W72323  36.585  10.152   0.303
 7163W        W72324  24.223  13.818   1.573
 7164W        W72325  26.802  22.455   0.655
 7165W        W72326  23.647  29.045   0.468
 7166W        W72327  43.073  28.555   3.284
 7167W        W72328   9.855  41.947  11.484
 7168W        W72329  30.015  10.828  10.884
 7169W        W72330   6.719   1.287   4.744
 7170W        W72331  30.687  41.482   0.310
 7171W        W72332   7.249  29.142  11.090
 7172W        W72333  37.445  10.993  12.449
 7173W        W72334   0.675   7.120   0.868
 7174W        W72335  33.363  40.662  13.116
 7175W        W72336  28.631  19.750  14.952
 7176W        W72337  35.943  31.092   3.128
 7177W        W72338   7.219  27.215   1.786
 7178W        W72339  12.569  37.781  14.338
 7179W        W72340  26.949  25.645  14.931
 7180W        W72341  32.885  12.328   2.710
 7181W        W72342   7.629   5.617   1.109
 7182W        W72343  34.280  24.395   4.969
 7183W        W72344  44.326  20.014   1.020
 7184W        W72345  44.729  25.204  12.389
 7185W        W72346  33.128  36.246  13.142
 7186W        W72347  20.533  40.845  13.486
 7187W        W72348  40.463  21.251  12.822
 7188W        W72349  19.832  36.127   4.135
 7189W        W72350   3.314  13.290  13.742
 7190W        W72351  35.787  13.722  13.063
 7191W        W72352   2.370  15.865   3.651
 7192W        W72353  39.362  13.707   2.791
 7193W        W72354  22.657   7.833   2.917
 7194W        W72355  38.385  14.260  11.012
 7195W        W72356   1.393  28.440  11.172
 7196W        W72357  39.279  22.140  11.958
 7197W        W72358  17.121  20.426   1.261
 7198W        W72359  23.309  20.299   2.764
 7199W        W72360   2.984  19.803   4.962
 7200W        W72361   3.727  23.712   1.198
 7201W        W72362  24.616   6.779  11.187
 7202W        W72363  34.052  44.297  10.258
 7203W        W72364  10.808  12.840   4.775
 7204W        W72365  28.065  30.795  12.392
 7205W        W72366  36.461  41.348  11.928
 7206W        W72367  12.321  16.608   3.591
 7207W        W72368  39.634  12.750  12.358
 7208W        W72369   5.738  10.140   2.876
 7209W        W72370  20.225  14.156  11.233
 7210W        W72371  23.375   3.918  13.896
 7211W        W72372   7.079  21.048   2.216
 7212W        W72373  25.176  12.714  12.886
 7213W        W72374  37.063  38.050   1.759
 7214W        W72375  27.717  39.446   2.394
 7215W        W72376  29.194  30.381  12.937
 7216W        W72377  13.276  25.994   4.228
 7217W        W72378   3.191  38.028  13.522
 7218W        W72379   1.709  25.513   1.696
 7219W        W72380   3.854  27.836  13.893
 7220W        W72381  32.145   2.368  13.343
 7221W        W72382  42.486  36.600  13.448
 7222W        W72383  20.567  36.009   3.688
 7223W        W72384   6.194  25.304  12.492
 7224W        W72385  44.289   2.774  12.951
 7225W        W72386  37.186   9.286   5.172
 7226W        W72387   6.298  12.183   4.106
 7227W        W72388  35.535  29.016  14.322
 7228W        W72389  29.588   0.245   0.850
 7229W        W72390  32.897  38.031  13.771
 7230W        W72391   3.410   0.379   0.326
 7231W        W72392   7.816  36.091  14.782
 7232W        W72393  12.282  36.803  14.457
 7233W        W72394   7.632  37.907  12.378
 7234W        W72395  16.563   0.313   1.571
 7235W        W72396   5.878  13.259  13.975
 7236W        W72397  37.375  39.488  13.337
 7237W        W72398  19.202  38.915   3.951
 7238W        W72399  11.465  33.503   0.067
 7239W        W72400   6.274  34.447   3.586
 7240W        W72401  30.102   6.781   2.289
 7241W        W72402  14.752  41.887   4.551
 7242W        W72403   6.891  27.047   2.881
 7243W        W72404  25.470  13.804   2.221
 7244W        W72405  25.476  13.710  10.794
 7245W        W72406   2.710  15.237   2.439
 7246W        W72407  15.111  41.503   3.234
 7247W        W72408  42.958   1.708  12.459
 7248W        W72409   3.244  39.770   3.090
 7249W        W72410  19.258  25.254   2.213
 7250W        W72411  21.233   7.178   2.391
 7251W        W72412  12.198  26.563   0.185
 7252W        W72413  10.908  21.223  10.675
 7253W        W72414  44.378   4.644   2.093
 7254W        W72415  41.403   2.411   2.241
 7255W        W72416  25.009  14.661  14.037
 7256W        W72417  28.928  39.770   2.369
 7257W        W72418  11.186  20.297   4.440
 7258W        W72419  29.090  20.319  13.946
 7259W        W72420  28.508  34.813  13.092
 7260W        W72421  38.519  29.278  12.571
 7261W        W72422   0.030  38.000  12.237
 7262W        W72423  40.567   6.900  12.897
 7263W        W72424  41.350  21.559   0.345
 7264W        W72425  39.508  30.135  13.814
 7265W        W72426  44.962  32.098  14.503
 7266W        W72427  29.265  36.835   4.217
 7267W        W72428  43.480   4.161  13.387
 7268W        W72429  42.525  29.724  12.582
 7269W        W72430  42.397  39.689  12.133
 7270W        W72431  44.105   3.379   9.776
 7271W        W72432  21.474  36.283   0.195
 7272W        W72433  36.098  31.624   2.191
 7273W        W72434  35.194  28.166   4.142
 7274W        W72435  43.935  19.195  11.585
 7275W        W72436  28.894   0.973  14.693
 7276W        W72437  19.439  35.677  11.452
 7277W        W72438   3.531  42.596  11.581
 7278W        W72439  18.439   4.812   3.248
 7279W        W72440   4.464  31.487   1.784
 7280W        W72441  29.796  39.913   4.582
 7281W        W72442   3.866  17.825  13.375
 7282W        W72443  32.028   4.234  10.611
 7283W        W72444   4.458  11.063   1.149
 7284W        W72445  11.755  34.151  13.089
 7285W        W72446  44.301  10.647   0.087
 7286W        W72447  21.744  38.459   2.675
 7287W        W72448  12.690  20.786   1.425
 7288W        W72449  35.847  39.280  14.908
 7289W        W72450  12.797  14.799  13.777
 7290W        W72451  12.894  34.318  12.487
 7291W        W72452  27.819  10.719  11.994
 7292W        W72453  21.578   3.010  14.494
 7293W        W72454   9.466  37.969   3.261
 7294W        W72455   4.548  30.771  13.039
 7295W        W72456  25.463   5.661  12.940
 7296W        W72457   3.332  11.602   4.665
 7297W        W72458  30.959  14.685   1.830
 7298W        W72459  37.944  12.365   0.362
 7299W        W72460  18.753  37.443  13.726
 7300W        W72461   6.673   3.298   2.780
 7301W        W72462  18.615   2.974   4.147
 7302W        W72463  42.933  10.552  11.486
 7303W        W72464   3.778  21.578   0.481
 7304W        W72465   7.405  44.553  12.410
 7305W        W72466  20.527   1.477  13.490
 7306W        W72467  42.861  25.450   3.272
 7307W        W72468  19.162  18.410  12.185
 7308W        W72469   5.656  10.371  14.943
 7309W        W72470  37.987  30.613   2.309
 7310W        W72471  43.381  22.184   3.655
 7311W        W72472  41.232  22.858   0.793
 7312W        W72473   5.822  36.653   3.794
 7313W        W72474  25.303  31.507   1.775
 7314W        W72475  24.368  17.531   4.639
 7315W        W72476  39.691   6.332  13.915
 7316W        W72477  23.262  24.501   1.367
 7317W        W72478  25.503  30.613  12.024
 7318W        W72479   8.764  17.273   0.777
 7319W        W72480  35.135  27.634  10.689
 7320W        W72481  31.345  40.075  13.300
 7321W        W72482  20.765  34.410  14.826
 7322W        W72483  25.381  20.243  13.586
 7323W        W72484  22.582  40.070  10.557
 7324W        W72485  19.143  12.735   2.696
 7325W        W72486  11.076  18.808  13.025
 7326W        W72487  24.997   5.282   0.330
 7327W        W72488  43.319  31.611  11.552
 7328W        W72489  21.678  43.469   1.708
 7329W        W72490  42.939  34.935   0.363
 7330W        W72491  10.739   8.427  14.771
 7331W        W72492  24.141  44.402  12.182
 7332W        W72493  43.607  10.106   0.273
 7333W        W72494  21.703  35.907  13.236
 7334W        W72495  30.052  21.058   2.636
 7335W        W72496  25.862   3.655  14.749
 7336W        W72497  13.549  20.060   3.132
 7337W        W72498   5.725  23.489  11.978
 7338W        W72499   8.786  44.359  13.404
 7339W        W72500  19.352  40.128   9.569
 7340W        W72501  41.166  12.084  11.017
 7341W        W72502   7.513   1.419  12.374
 7342W        W72503  17.680  11.652   4.071
 7343W        W72504  25.485  32.022   3.204
 7344W        W72505  43.728  34.864  13.095
 7345W        W72506  28.116   6.830   2.312
 7346W        W72507  38.183  24.991   2.818
 7347W        W72508  33.988  42.000   0.241
 7348W        W72509   6.237   6.012  12.072
 7349W        W72510  38.050  37.547  13.819
 7350W        W72511  23.079  11.914  12.547
 7351W        W72512  40.567  28.985   4.410
 7352W        W72513  17.624   7.075   0.976
 7353W        W72514  10.219  19.168   2.251
 7354W        W72515  30.368  42.916   2.233
 7355W        W72516  32.312  40.396  10.195
 7356W        W72517  36.607  30.712  11.720
 7357W        W72518  43.698  40.089  11.188
 7358W        W72519  34.879   3.262  14.008
 7359W        W72520  14.044  41.475  12.855
 7360W        W72521  43.326  28.970  14.382
 7361W        W72522  20.354   5.882   1.661
 7362W        W72523   2.410  35.109   3.400
 7363W        W72524  11.076  18.189  11.082
 7364W        W72525  33.937  15.817  11.896
 7365W        W72526  16.961   7.669   0.522
 7366W        W72527  25.326  31.252   0.862
 7367W        W72528   2.223   7.422   0.900
 7368W        W72529  16.254  20.996  12.909
 7369W        W72530  11.283   2.739   4.657
 7370W        W72531   6.320   8.389  11.920
 7371W        W72532  23.213  24.249   3.644
 7372W        W72533   4.768   1.039   0.282
 7373W        W72534  12.837  38.547  10.324
 7374W        W72535  29.488  34.368  13.494
 7375W        W72536  14.460  41.030   4.664
 7376W        W72537  12.793  20.951  12.107
 7377W        W72538  12.591  26.313  14.627
 7378W        W72539  30.614  33.853  11.195
 7379W        W72540  23.980  10.172  11.551
 7380W        W72541  17.717   6.402  14.552
 7381W        W72542  32.374   6.015   2.700
 7382W        W72543  14.838  25.672   4.507
 7383W        W72544  22.234  17.439  12.572
 7384W        W72545  23.096  14.283  13.444
 7385W        W72546  20.628  30.109   1.407
 7386W        W72547  40.321  11.281  12.541
 7387W        W72548  28.715  13.326   1.821
 7388W        W72549   0.961  38.068   0.084
 7389W        W72550  29.560  23.699   0.347
 7390W        W72551  17.719  23.489   1.287
 7391W        W72552  10.909  25.058   2.289
 7392W        W72553  32.590  31.957  14.121
 7393W        W72554   9.285  16.178   0.549
 7394W        W72555  17.227   9.691  12.542
 7395W        W72556  20.220   9.364  11.460
 7396W        W72557  25.604  40.430   1.280
 7397W        W72558  27.706  35.093   0.995
 7398W        W72559  12.379  42.091  13.433
 7399W        W72560   5.132  28.256   5.061
 7400W        W72561  16.749   3.375  11.203
 7401W        W72562   9.448   0.306  12.466
 7402W        W72563  44.296   7.473   4.893
 7403W        W72564  41.444  32.445  11.142
 7404W        W72565  44.902  26.371   4.714
 7405W        W72566   7.531  27.730  11.354
 7406W        W72567  25.517  44.949   0.376
 7407W        W72568  39.121  34.526   1.447
 7408W        W72569  22.124   3.895  12.324
 7409W        W72570  30.896  15.723   1.679
 7410W        W72571  41.568  43.561   1.946
 7411W        W72572  33.560  30.523  12.738
 7412W        W72573  25.563  28.016  14.114
 7413W        W72574  37.896  26.047  13.972
 7414W        W72575  36.027  33.620  10.509
 7415W        W72576   0.014   1.661  14.975
 7416W        W72577   4.856  22.717  10.965
 7417W        W72578  32.233  23.494   2.183
 7418W        W72579  25.219   8.866  14.090
 7419W        W72580   1.954  21.704  13.793
 7420W        W72581  28.636  37.094  12.426
 7421W        W72582  23.371  43.943  12.602
 7422W        W72583  22.140   7.307   3.470
 7423W        W72584  32.659  39.891   1.385
 7424W        W72585  32.030  10.882   2.878
 7425W        W72586  32.624   8.858  14.307
 7426W        W72587  38.439  13.051   1.235
 7427W        W72588  21.299   5.213   3.754
 7428W        W72589  10.227  16.025  11.550
 7429W        W72590  13.380  13.701  14.521
 7430W        W72591   6.755  34.277   3.648
 7431W        W72592  37.896  24.913   2.383
 7432W        W72593  18.430  36.183   3.609
 7433W        W72594   2.345   6.168  14.050
 7434W        W72595  16.193   0.361   3.369
 7435W        W72596   6.924  22.964  11.496
 7436W        W72597  30.042  17.148   2.394
 7437W        W72598  21.153  31.467   4.294
 7438W        W72599  16.146  35.768   1.779
 7439W        W72600  27.788  30.013   0.232
 7440W        W72601  20.538  11.051   0.545
 7441W        W72602  37.268  24.049  13.872
 7442W        W72603  38.576  28.096   0.225
 7443W        W72604  42.895  26.172  13.781
 7444W        W72605  11.653  31.066   0.667
 7445W        W72606  10.844  43.982  14.408
 7446W        W72607   3.469  24.819  12.039
 7447W        W72608  14.185  35.024   4.592
 7448W        W72609  35.487  38.492   1.798
 7449W        W72610  38.405  34.912  10.619
 7450W        W72611  36.056  43.298   2.286
 7451W        W72612  18.491  13.740   1.349
 7452W        W72613  27.129   3.322   5.048
 7453W        W72614  20.824  17.793   1.881
 7454W        W72615  18.994   6.273  13.087
 7455W        W72616  29.031   6.736  12.687
 7456W        W72617   4.268  37.844   0.893
 7457W        W72618  36.016  33.912  14.448
 7458W        W72619  42.829   0.395  10.716
 7459W        W72620  23.666   5.814   2.694
 7460W        W72621  40.878   8.811  13.837
 7461W        W72622  27.551   3.571   0.441
 7462W        W72623  12.615  13.104   0.373
 7463W        W72624  21.236  19.560  12.450
 7464W        W72625  38.849  40.001   1.896
 7465W        W72626  27.470  21.763   3.863
 7466W        W72627   4.975   3.149  12.979
 7467W        W72628  39.524   4.831   1.777
 7468W        W72629  20.088  35.584   1.309
 7469W        W72630  16.155  11.947  14.430
 7470W        W72631  35.641  38.111  14.549
 7471W        W72632  29.997  24.131   1.427
 7472W        W72633  44.528  22.710   2.247
 7473W        W72634  29.636  20.629   4.660
 7474W        W72635  38.063  13.513  12.488
 7475W        W72636  33.476   6.662  14.498
 7476W        W72637  40.629  28.930  11.793
 7477W        W72638  10.423   7.453   3.263
 7478W        W72639  11.309  40.150  12.281
 7479W        W72640  10.822  36.053  14.955
 7480W        W72641   5.916   1.258   3.112
 7481W        W72642  34.466  12.238   2.694
 7482W        W72643  21.000   9.413   4.537
 7483W        W72644  12.148  12.883   2.277
 7484W        W72645  41.279  32.531   2.891
 7485W        W72646  31.468  40.871  13.650
 7486W        W72647  37.993  28.135  13.406
 7487W        W72648   1.977   3.063   3.932
 7488W        W72649  39.496  22.279   1.888
 7489W        W72650  25.707   8.655  12.300
 7490W        W72651  31.668  11.669   0.839
 7491W        W72652  20.708  35.129   4.197
 7492W        W72653  18.149  44.053  14.426
 7493W        W72654  33.270  22.636  10.661
 7494W        W72655  31.710  18.555  14.015
 7495W        W72656  29.186  10.732   4.516
 7496W        W72657  25.315  16.502  13.518
 7497W        W72658  27.034  22.738  13.447
 7498W        W72659  22.205  31.899  13.500
 7499W        W72660  11.232  30.925   3.194
 7500W        W72661  17.601  39.541  13.482
 7501W        W72662  30.172   7.159   2.638
 7502W        W72663  26.175  20.980   3.143
 7503W        W72664  27.981   7.859  12.740
 7504W        W72665  14.139  24.684  14.287
 7505W        W72666   2.618   0.243  14.090
 7506W        W72667   2.343  39.781  13.405
 7507W        W72668   7.249  23.099   1.312
 7508W        W72669  34.334  33.788   1.409
 7509W        W72670  33.978  31.399   3.902
 7510W        W72671  23.634  27.273  12.065
 7511W        W72672  18.806  34.400  14.799
 7512W        W72673  11.454  35.768   1.832
 7513W        W72674   0.507  17.063  14.409
 7514W        W72675  25.537   9.556  13.928
 7515W        W72676  31.821   7.891   1.749
 7516W        W72677  24.193   9.366  14.843
 7517W        W72678  40.031   4.917   0.253
 7518W        W72679  42.808  40.113  14.219
 7519W        W72680   6.986   2.017   2.926
 7520W        W72681  14.338  42.977  13.482
 7521W        W72682  12.932  17.109  10.686
 7522W        W72683  20.635  33.416   3.255
 7523W        W72684  41.799  37.961  14.424
 7524W        W72685  41.521   1.698  10.689
 7525W        W72686   7.329  13.353   2.276
 7526W        W72687  22.291   8.069  12.441
 7527W        W72688  26.362   7.913  11.029
 7528W        W72689   9.502  22.032   3.260
 7529W        W72690  36.784  31.595  11.527
 7530W        W72691   4.709  10.134   2.358
 7531W        W72692  38.470  11.060  14.635
 7532W        W72693  24.402  34.477  11.206
 7533W        W72694  23.221  40.596  14.898
 7534W        W72695  34.170   5.836  14.759
 7535W        W72696   4.304   2.045   4.671
 7536W        W72697  12.880  41.213  11.788
 7537W        W72698  20.232  11.891  10.557
 7538W        W72699  28.175  26.619   0.901
 7539W        W72700   8.172  32.129   0.329
 7540W        W72701  37.112  26.128  14.360
 7541W        W72702  33.454  12.312  13.898
 7542W        W72703  42.503  43.183  11.982
 7543W        W72704  16.278   6.797   1.438
 7544W        W72705  19.647  34.485   4.053
 7545W        W72706  28.706  18.526  12.889
 7546W        W72707  11.808   7.873   0.038
 7547W        W72708  18.660   1.941  10.312
 7548W        W72709  27.637  19.102  14.491
 7549W        W72710   2.309  11.582  14.387
 7550W        W72711  39.355  12.092   2.751
 7551W        W72712   2.639  16.814  14.523
 7552W        W72713  24.518  40.434   0.287
 7553W        W72714  18.135  14.009   1.819
 7554W        W72715  34.429  14.575   2.600
 7555W        W72716  15.243  35.355   2.866
 7556W        W72717  24.452  39.552   0.702
 7557W        W72718  33.364   5.446   4.000
 7558W        W72719  23.069   9.688  14.947
 7559W        W72720  43.932  29.086   0.787
 7560W        W72721  15.294  41.736  13.552
 7561W        W72722  26.043   7.400  12.948
 7562W        W72723  36.325   4.496   2.631
 7563W        W72724  41.023  32.570   4.526
 7564W        W72725  14.885  23.106   4.171
 7565W        W72726  39.925  32.548   3.944
 7566W        W72727  21.239  44.383  13.831
 7567W        W72728  26.507  37.523  14.335
 7568W        W72729   6.746  18.123  11.520
 7569W        W72730   9.553  10.597  13.895
 7570W        W72731  23.152  16.248   3.227
 7571W        W72732  13.729  43.763   3.179
 7572W        W72733   0.088   3.320  10.487
 7573W        W72734  33.637  18.546   4.011
 7574W        W72735  25.958  15.036   0.814
 7575W        W72736  28.872   7.356   4.169
 7576W        W72737   5.657  31.126   0.464
 7577W        W72738  16.853  35.980  11.126
 7578W        W72739  44.429  33.768   3.878
 7579W        W72740  10.422   0.872  12.953
 7580W        W72741  41.649  43.824   0.708
 7581W        W72742  31.982  14.766  13.741
 7582W        W72743  18.330  29.116   1.212
 7583W        W72744  20.987  14.799   2.179
 7584W        W72745  18.480  36.986  13.867
 7585W        W72746  35.870  16.118   1.396
 7586W        W72747   4.262  39.820  14.717
 7587W        W72748  15.884  10.305   1.711
 7588W        W72749  29.606  34.663  10.303
 7589W        W72750  34.968   1.860   0.376
 7590W        W72751  10.164  22.066  12.423
 7591W        W72752  11.321  20.441  13.537
 7592W        W72753  20.084  34.487   2.795
 7593W        W72754  26.032  42.954  14.516
 7594W        W72755  43.840  25.669   0.250
 7595W        W72756  12.776   7.464   4.491
 7596W        W72757  31.487  43.051  10.655
 7597W        W72758  14.594  36.894   3.413
 7598W        W72759  18.487  14.771  13.380
 7599W        W72760  26.742   8.196  11.220
 7600W        W72761  28.058   3.197  10.182
 7601W        W72762  38.858   3.236   0.307
 7602W        W72763  31.908  22.068  10.549
 7603W        W72764   9.803  20.529   4.471
 7604W        W72765  39.873  23.489  10.817
 7605W        W72766  17.972  12.045  11.566
 7606W        W72767   1.200   1.225  12.412
 7607W        W72768  30.767  39.190  12.886
 7608W        W72769  17.713  22.983  11.169
 7609W        W72770  41.639  27.633  11.093
 7610W        W72771  40.049  42.817   3.245
 7611W        W72772  42.611  17.673   1.163
 7612W        W72773  12.250  24.063   2.906
 7613W        W72774   1.297  36.634  13.727
 7614W        W72775  13.624  36.980   3.151
 7615W        W72776  19.596  20.587   0.341
 7616W        W72777  22.895  11.625   0.417
 7617W        W72778   7.703   7.486   0.943
 7618W        W72779  23.637  38.120  13.795
 7619W        W72780  41.412   4.960  13.767
 7620W        W72781  25.111   2.042  13.305
 7621W        W72782   6.200  41.368  14.516
 7622W        W72783  15.057  10.815  11.527
 7623W        W72784  14.316  18.045  13.573
 7624W        W72785  28.727  26.712  12.396
 7625W        W72786  27.188   0.214   4.331
 7626W        W72787   2.487  14.587   0.787
 7627W        W72788  27.126  24.951   1.473
 7628W        W72789  32.974  11.189   3.623
 7629W        W72790  32.805  19.744   3.092
 7630W        W72791   4.494  16.986  10.758
 7631W        W72792  11.565  36.192  14.362
 7632W        W72793  17.821   4.951   0.806
 7633W        W72794   1.304  35.021  10.726
 7634W        W72795  34.136  27.206  14.761
 7635W        W72796  32.039  14.274  13.910
 7636W        W72797   3.824  38.447   4.861
 7637W        W72798  31.409  31.033   2.335
 7638W        W72799  25.508  25.349  12.968
 7639W        W72800  19.305   8.349  10.756
 7640W        W72801  11.553  31.744   3.299
 7641W        W72802   2.126  10.538   2.783
 7642W        W72803   3.361  36.375   4.652
 7643W        W72804  23.190  15.176   2.088
 7644W        W72805   0.103  33.178  11.114
 7645W        W72806  11.924   2.935   3.804
 7646W        W72807  40.984   3.435   1.349
 7647W        W72808   8.219   7.858  12.798
 7648W        W72809   0.744  35.572  11.095
 7649W        W72810  12.647  14.828  13.235
 7650W        W72811  15.068  12.874   1.307
 7651W        W72812  22.027  30.106   4.066
 7652W        W72813  31.068   5.408  12.975
 7653W        W72814  16.559   0.429  13.453
 7654W        W72815  32.234   8.675  11.664
 7655W        W72816  23.035   8.245   2.859
 7656W        W72817  20.839   7.679  12.894
 7657W        W72818  27.951  42.940  11.178
 7658W        W72819  36.344  43.784  10.797
 7659W        W72820  33.185  20.653  14.905
 7660W        W72821  36.917   5.034  12.961
 7661W        W72822  28.972   9.657  12.419
 7662W        W72823  25.052  38.047   0.046
 7663W        W72824  34.007  13.885  10.662
 7664W        W72825  28.749  44.397   4.459
 7665W        W72826   3.310   0.918  13.953
 7666W        W72827  31.120  31.694   2.377
 7667W        W72828   8.822  31.718  11.874
 7668W        W72829  10.385  20.196   2.906
 7669W        W72830  38.801  30.097   2.196
 7670W        W72831   8.120  32.885  11.999
 7671W        W72832  22.119  33.381   3.317
 7672W        W72833   2.455  21.833   0.316
 7673W        W72834  40.063   8.458   3.918
 7674W        W72835  31.888  20.725   4.697
 7675W        W72836  26.881  17.279   2.310
 7676W        W72837  22.100  31.624   2.695
 7677W        W72838   3.723  16.148   2.271
 7678W        W72839  30.257  24.987  12.567
 7679W        W72840  41.709   8.256   3.158
 7680W        W72841  37.317  13.648   3.790
 7681W        W72842   5.256   3.200  11.120
 7682W        W72843  44.015   2.912  14.004
 7683W        W72844  28.992  28.796   1.629
 7684W        W72845   8.435  23.963   0.309
 7685W        W72846  21.207  12.686  14.947
 7686W        W72847  10.411  39.459  10.530
 7687W        W72848  38.711  12.618  14.426
 7688W        W72849  16.827  43.729  10.489
 7689W        W72850  16.727  36.563   3.264
 7690W        W72851  33.985   6.634   2.208
 7691W        W72852  33.448  42.448   3.246
 7692W        W72853  16.322  43.342   3.752
 7693W        W72854  26.171  24.598  10.766
 7694W        W72855  26.652  22.227  12.629
 7695W        W72856  23.071  36.878   1.397
 7696W        W72857  35.917  15.548   4.604
 7697W        W72858  30.892  39.254   3.706
 7698W        W72859  22.517  41.348   1.846
 7699W        W72860  35.188   1.971   2.846
 7700W        W72861  12.121  10.502  12.478
 7701W        W72862  15.681  35.518   1.724
 7702W        W72863  10.394  17.688   0.869
 7703W        W72864  12.622  23.052  11.599
 7704W        W72865   6.292  41.044   0.274
 7705W        W72866  24.522  31.333  12.385
 7706W        W72867   7.289  18.258  14.778
 7707W        W72868  37.858  27.586  14.497
 7708W        W72869  39.553   9.080  12.048
 7709W        W72870  20.779  35.652   4.874
 7710W        W72871  38.113  25.135  14.499
 7711W        W72872  14.998  26.477   0.773
 7712W        W72873  24.147  42.732  12.046
 7713W        W72874  42.385  30.895  10.932
 7714W        W72875  41.267  39.278  14.316
 7715W        W72876  38.657  34.493  10.760
 7716W        W72877  27.575  13.116  12.045
 7717W        W72878  11.048   8.830  14.754
 7718W        W72879  24.098  22.714   2.382
 7719W        W72880  43.530  14.252   4.721
 7720W        W72881  19.846   9.698   0.358
 7721W        W72882  35.618  11.172   0.048
 7722W        W72883   7.963   6.909  13.250
 7723W        W72884  36.998  36.535   0.955
 7724W        W72885  15.556  38.425   0.606
 7725W        W72886  17.344   6.280  10.660
 7726W        W72887  18.277  20.483  14.262
 7727W        W72888   4.280  34.940  12.438
 7728W        W72889   0.181  28.139  14.887
 7729W        W72890   1.381   5.860  10.998
 7730W        W72891  25.997  34.066  14.222
 7731W        W72892  16.191  35.915  14.764
 7732W        W72893  23.974  35.588  12.468
 7733W        W72894  17.296  12.994  12.731
 7734W        W72895   7.644  40.022   2.644
 7735W        W72896  35.886  24.122  13.818
 7736W        W72897  39.157  14.746   1.993
 7737W        W72898  40.478  25.184   3.725
 7738W        W72899  41.515  20.544   4.635
 7739W        W72900  22.471  20.090  14.463
 7740W        W72901  39.424  38.545   3.368
 7741W        W72902  42.190  14.758   0.392
 7742W        W72903  32.891  27.534  12.632
 7743W        W72904  10.386  36.524   4.839
 7744W        W72905  38.592  23.071   3.718
 7745W        W72906  37.855  34.744  13.577
 7746W        W72907  24.028  30.925   3.299
 7747W        W72908  31.345  22.633   0.905
 7748W        W72909   4.076  17.790   2.801
 7749W        W72910   3.745   4.434  14.984
 7750W        W72911  29.934  42.271   1.692
 7751W        W72912  16.758   5.362   0.524
 7752W        W72913  27.794  19.061   3.474
 7753W        W72914   2.913  14.724   4.085
 7754W        W72915  42.871  17.983   0.318
 7755W        W72916  11.341  44.594   0.310
 7756W        W72917  23.705  17.191  13.415
 7757W        W72918   3.162  30.465  11.486
 7758W        W72919  10.185  16.739  11.857
 7759W        W72920   2.440  38.609   3.899
 7760W        W72921  26.511  32.755   0.787
 7761W        W72922  26.941  15.106  12.583
 7762W        W72923  29.630  40.302   2.391
 7763W        W72924  11.572  14.293  12.710
 7764W        W72925  35.105  10.291  14.966
 7765W        W72926  16.461  15.623  11.578
 7766W        W72927  44.415   8.813   0.537
 7767W        W72928   0.945   6.534   5.129
 7768W        W72929  32.509  35.456  14.438
 7769W        W72930  33.377   4.092   2.760
 7770W        W72931   1.933  10.187  14.649
 7771W        W72932  18.771  39.165  11.497
 7772W        W72933  14.362  10.890   1.248
 7773W        W72934  26.935  23.721  11.077
 7774W        W72935  16.370  17.320   0.863
 7775W        W72936   0.496   8.807   3.283
 7776W        W72937  18.074  11.317  14.421
 7777W        W72938  29.310  16.669   0.771
 7778W        W72939  36.439  37.172  13.376
 7779W        W72940   5.414  13.477   4.215
 7780W        W72941  29.024  22.040  14.479
 7781W        W72942  21.930  38.514   0.523
 7782W        W72943   3.020  19.981   0.789
 7783W        W72944  28.070   2.214  13.145
 7784W        W72945  43.898  18.323  11.156
 7785W        W72946   4.468  20.129   3.244
 7786W        W72947  35.017  14.686  14.414
 7787W        W72948  29.686  16.486  12.586
 7788W        W72949   0.414  34.539  12.081
 7789W        W72950  34.524   3.551  13.796
 7790W        W72951  10.696   9.425  12.531
 7791W        W72952  18.509  21.102  12.552
 7792W        W72953  39.010  38.944  12.078
 7793W        W72954  35.820  43.919   1.421
 7794W        W72955  30.771  10.216  12.981
 7795W        W72956   7.193  16.788  10.703
 7796W        W72957  44.181  26.102  12.553
 7797W        W72958  23.403   4.249   0.258
 7798W        W72959  33.611  13.240   0.156
 7799W        W72960  13.307  11.925  11.331
 7800W        W72961   0.185  41.749  11.495
 7801W        W72962   9.711  11.254  10.564
 7802W        W72963   0.775  41.299  13.496
 7803W        W72964   6.184  34.499   3.081
 7804W        W72965  28.231  43.624   0.443
 7805W        W72966  29.051  23.013   3.560
 7806W        W72967  21.117  40.533  12.881
 7807W        W72968  18.039   1.170  11.233
 7808W        W72969  33.364  32.583   2.116
 7809W        W72970  34.412  30.693   3.332
 7810W        W72971  12.068   9.192  12.425
 7811W        W72972   7.328   8.159  12.920
 7812W        W72973  22.330  37.081  13.407
 7813W        W72974   0.257   7.442   0.944
 7814W        W72975  26.534  12.907   1.441
 7815W        W72976   0.263  13.763  14.750
 7816W        W72977  13.283  44.003  11.598
 7817W        W72978  25.255  13.090  11.558
 7818W        W72979  40.710  31.954   3.671
 7819W        W72980   0.430  24.023  11.911
 7820W        W72981  20.738  11.065   0.055
 7821W        W72982   3.552  44.760  12.316
 7822W        W72983   7.678   6.116   1.230
 7823W        W72984  30.005  34.495  12.988
 7824W        W72985  17.021  44.592   9.699
 7825W        W72986   0.792   7.603  11.270
 7826W        W72987   2.461  35.237  14.367
 7827W        W72988   9.676   8.401   1.714
 7828W        W72989  22.599  13.323   3.689
 7829W        W72990  22.000  11.243   1.412
 7830W        W72991  13.152  24.163   0.102
 7831W        W72992  24.996  10.323   3.019
 7832W        W72993  42.304  10.796   0.954
 7833W        W72994  32.144  34.387   0.015
 7834W        W72995  32.847  29.537   1.966
 7835W        W72996   6.236   0.791  10.706
 7836W        W72997  38.366  41.990   1.274
 7837W        W72998  43.851   7.986  10.682
 7838W        W72999  38.555  25.000   0.754
 7839W        W73000   1.312  20.577   2.772
 7840W        W73001  30.957  37.407   3.841
 7841W        W73002   6.198  28.616   2.813
 7842W        W73003  12.111  23.779  12.645
 7843W        W73004   4.705   6.218   0.784
 7844W        W73005  15.561  28.705   4.241
 7845W        W73006   4.287   5.979  13.844
 7846W        W73007  14.247   8.372   0.323
 7847W        W73008   6.567  27.069   2.448
 7848W        W73009  34.515  18.706   2.142
 7849W        W73010  33.436   2.703   3.233
 7850W        W73011  44.409  11.387  11.107
 7851W        W73012   7.613  36.455   1.789
 7852W        W73013  33.431  22.673   3.979
 7853W        W73014  21.762  19.632  11.045
 7854W        W73015  34.137  29.421   4.158
 7855W        W73016  18.020  13.419   3.815
 7856W        W73017  25.435  17.696  13.063
 7857W        W73018  14.197  20.640   3.802
 7858W        W73019  39.889   3.867  11.091
 7859W        W73020   2.118   9.696  14.006
 7860W        W73021  41.645  41.716  12.554
 7861W        W73022  38.622  34.368  11.617
 7862W        W73023   8.472  28.007   3.294
 7863W        W73024  14.692  37.918   0.739
 7864W        W73025  42.400   3.763  13.768
 7865W        W73026  40.408  20.954  14.347
 7866W        W73027  43.396  44.282   3.131
 7867W        W73028  23.710   8.566   3.970
 7868W        W73029  43.123   5.143  13.552
 7869W        W73030  24.329  38.828  13.038
 7870W        W73031  30.032  31.801   4.602
 7871W        W73032   6.909  20.053  10.758
 7872W        W73033  17.664  27.953  12.948
 7873W        W73034  14.464  15.249  11.853
 7874W        W73035  30.994  41.612   0.865
 7875W        W73036   9.865  15.096   0.339
 7876W        W73037   6.056  17.760  14.890
 7877W        W73038  34.494   1.626   2.280
 7878W        W73039  38.438   2.488  14.034
 7879W        W73040  21.521  34.275  12.084
 7880W        W73041  21.105  34.552   0.350
 7881W        W73042  37.602  35.367  10.739
 7882W        W73043  20.212  32.062   1.039
 7883W        W73044   1.025  43.364   4.055
 7884W        W73045  16.194  41.926   3.815
 7885W        W73046  17.522  44.520  14.592
 7886W        W73047  41.914   9.683  14.364
 7887W        W73048  22.638  33.537  10.112
 7888W        W73049  26.560  37.657  11.199
 7889W        W73050  33.002  42.557   2.604
 7890W        W73051  16.451  43.297   4.243
 7891W        W73052   3.728  36.179  12.455
 7892W        W73053   1.963  38.834  12.033
 7893W        W73054  35.436  42.289   1.321
 7894W        W73055  31.548   5.894   1.996
 7895W        W73056  15.079  33.358   0.753
 7896W        W73057  39.778   5.698   0.724
 7897W        W73058  42.976   8.608   3.008
 7898W        W73059  23.363   8.398  11.683
 7899W        W73060   8.436  15.056  14.044
 7900W        W73061  27.280  17.397  13.836
 7901W        W73062  30.181  19.097   2.699
 7902W        W73063  43.262   7.079  14.417
 7903W        W73064  26.592   9.217   4.072
 7904W        W73065  11.889  39.436  12.918
 7905W        W73066  30.036  37.889   4.246
 7906W        W73067   3.983  12.327   4.782
 7907W        W73068  22.664  44.223  14.467
 7908W        W73069  21.753  30.938  10.502
 7909W        W73070  24.345  10.340  11.179
 7910W        W73071  44.810  23.692   3.682
 7911W        W73072  20.212   8.946   3.906
 7912W        W73073   8.626   0.215  10.822
 7913W        W73074  42.485  42.472  11.304
 7914W        W73075  36.796   7.714  14.320
 7915W        W73076  14.759  11.924   3.526
 7916W        W73077   0.384  14.793   2.204
 7917W        W73078  36.076  18.068  10.944
 7918W        W73079  38.228   4.758   0.212
 7919W        W73080   5.091  28.688   4.064
 7920W        W73081  42.079  34.662  14.536
 7921W        W73082  28.809  10.367   0.553
 7922W        W73083  19.497  38.538  11.728
 7923W        W73084   0.757  35.651  10.282
 7924W        W73085   7.806  21.059   1.089
 7925W        W73086   8.260  24.283  12.546
 7926W        W73087  44.752  15.128  11.616
 7927W        W73088   3.400   0.038   1.945
 7928W        W73089  37.790  30.302   5.132
 7929W        W73090   0.842  15.688   0.737
 7930W        W73091  14.262  20.880   1.066
 7931W        W73092   9.584  42.374   1.656
 7932W        W73093  31.078   6.720  11.617
 7933W        W73094  25.501  10.042   4.699
 7934W        W73095   9.745  23.657   4.994
 7935W        W73096   1.684  22.767  13.876
 7936W        W73097  25.137   7.741   4.204
 7937W        W73098  20.861   8.878  11.139
 7938W        W73099  28.755  23.752  11.667
 7939W        W73100  32.218  22.011   3.589
 7940W        W73101  27.792   8.164   0.613
 7941W        W73102   5.997  16.691   1.873
 7942W        W73103  39.874  42.062  13.803
 7943W        W73104  38.755   7.341  10.865
 7944W        W73105  42.612  25.099   1.728
 7945W        W73106  33.921  35.409  11.349
 7946W        W73107  37.407   8.827   0.917
 7947W        W73108   5.284  36.067  13.535
 7948W        W73109  19.036  26.499   0.825
 7949W        W73110  32.088   0.673  12.518
 7950W        W73111   9.397   8.372  12.277
 7951W        W73112  32.643  12.185   4.571
 7952W        W73113   7.202   2.295  11.929
 7953W        W73114  20.191  29.896   1.246
 7954W        W73115  44.457   0.365  14.816
 7955W        W73116   0.373  42.314   1.679
 7956W        W73117  31.627  28.028  13.096
 7957W        W73118   2.522   7.988  14.000
 7958W        W73119   8.639  38.756  14.871
 7959W        W73120  23.029   6.366  14.054
 7960W        W73121   0.274  41.457  13.450
 7961W        W73122  40.594  36.001   2.829
 7962W        W73123   7.804  23.099  13.859
 7963W        W73124  39.961  25.939   0.766
 7964W        W73125  21.604   5.476   4.204
 7965W        W73126  31.038   9.572  14.489
 7966W        W73127  44.149  27.073   3.697
 7967W        W73128  23.613   7.844  14.497
 7968W        W73129   6.241  39.877   0.336
 7969W        W73130  43.374  31.809   4.861
 7970W        W73131  31.531  34.591   0.950
 7971W        W73132  21.640  38.991   1.258
 7972W        W73133  23.872  42.883   4.550
 7973W        W73134  31.299  17.654   1.193
 7974W        W73135  10.179  41.111   1.372
 7975W        W73136   8.847  29.583   1.966
 7976W        W73137  43.490   1.794   4.522
 7977W        W73138  26.251   3.192   0.987
 7978W        W73139  22.082  43.668   3.794
 7979W        W73140  43.265   2.305  11.921
 7980W        W73141  19.828  13.330   2.201
 7981W        W73142  41.080   7.313  11.178
 7982W        W73143  29.091  22.901   2.651
 7983W        W73144  44.755   3.996   4.683
 7984W        W73145  27.413  19.255  11.948
 7985W        W73146  23.891  26.710   3.634
 7986W        W73147  27.914   4.461  11.248
 7987W        W73148  39.091  12.032   3.240
 7988W        W73149  41.906  19.113   0.412
 7989W        W73150  25.872  23.182  14.930
 7990W        W73151  20.684   9.291   0.385
 7991W        W73152   1.138   4.260   3.603
 7992W        W73153  24.648  26.719   4.124
 7993W        W73154  26.697  28.645   3.776
 7994W        W73155   0.460   0.205  14.237
 7995W        W73156  28.834  10.254  13.543
 7996W        W73157  36.689  33.572   0.837
 7997W        W73158  12.861  19.742  12.376
 7998W        W73159   4.336  36.697   3.739
 7999W        W73160   3.853  28.576   0.542
 8000W        W73161  13.725  21.779   3.298
 8001W        W73162  13.862  35.885  10.649
 8002W        W73163  32.497  29.224  11.981
 8003W        W73164   6.723  31.869   0.982
 8004W        W73165  43.327   8.719   0.297
 8005W        W73166  32.429  20.683  11.664
 8006W        W73167   5.365  43.063   4.366
 8007W        W73168  13.749  13.628  14.100
 8008W        W73169  19.127  32.490  12.357
 8009W        W73170  14.151   2.969   3.426
 8010W        W73171  29.069   3.307  10.697
 8011W        W73172  16.637  30.890  12.633
 8012W        W73173  19.157  21.567   3.878
 8013W        W73174  34.495   5.972  11.832
 8014W        W73175  29.913   6.191   2.633
 8015W        W73176   3.735  19.755   1.700
 8016W        W73177  12.727   8.479  12.374
 8017W        W73178  18.251   5.241  11.889
 8018W        W73179   8.270  38.096  11.617
 8019W        W73180  12.764  37.310   4.563
 8020W        W73181  14.347  42.531  10.293
 8021W        W73182  28.965  20.128   4.663
 8022W        W73183  14.689  29.659  14.891
 8023W        W73184  33.178  36.948   3.330
 8024W        W73185  43.107  39.895   0.204
 8025W        W73186  10.858  15.279   1.915
 8026W        W73187  20.202  37.459  13.796
 8027W        W73188   6.348  24.304  12.354
 8028W        W73189  16.294  37.634  12.466
 8029W        W73190  15.223  18.201   2.652
 8030W        W73191  16.405  30.161  11.077
 8031W        W73192  11.670   5.770   0.836
 8032W        W73193  11.389  37.031   4.391
 8033W        W73194  21.124   4.404  13.451
 8034W        W73195   0.023  43.752   1.330
 8035W        W73196  21.213  26.348  10.134
 8036W        W73197   1.754   2.199  10.721
 8037W        W73198  43.520  17.722  10.696
 8038W        W73199  38.964  15.285  11.990
 8039W        W73200  23.502   4.407  12.601
 8040W        W73201   3.487  42.043   1.793
 8041W        W73202  21.791  11.241   0.886
 8042W        W73203  12.796  24.257   1.212
 8043W        W73204   6.110   0.522   0.059
 8044W        W73205  34.015  13.757   4.263
 8045W        W73206   1.385  34.477  14.851
 8046W        W73207  14.001  40.385   9.831
 8047W        W73208   5.212  38.413   4.753
 8048W        W73209  35.023  28.158  10.607
 8049W        W73210  24.919  34.634  13.517
 8050W        W73211  33.531  43.100  14.494
 8051W        W73212   8.333  44.483  14.298
 8052W        W73213  32.203  19.695  11.685
 8053W        W73214  20.573  28.725  14.960
 8054W        W73215  35.512   9.330   2.623
 8055W        W73216  18.770  37.039  14.292
 8056W        W73217  28.580  23.659  12.466
 8057W        W73218  17.778  37.474  14.588
 8058W        W73219  11.197  44.851  12.878
 8059W        W73220  43.382  34.865  12.116
 8060W        W73221  16.533  11.933  12.403
 8061W        W73222  15.728  35.573   0.374
 8062W        W73223  17.510  42.848   5.184
 8063W        W73224  27.543   7.281   2.567
 8064W        W73225  33.036  26.426  13.824
 8065W        W73226  39.544  30.959   4.184
 8066W        W73227  22.107  19.331   2.657
 8067W        W73228   5.940  31.533  10.650
 8068W        W73229  14.411  34.958   2.633
 8069W        W73230  35.327  37.832  11.104
 8070W        W73231  32.842  31.431   3.214
 8071W        W73232  26.098  11.620  14.914
 8072W        W73233  10.146   5.513   3.335
 8073W        W73234  31.423   7.726  13.112
 8074W        W73235  31.985  42.876   4.672
 8075W        W73236  19.762  20.047   2.108
 8076W        W73237  12.166  31.562  14.943
 8077W        W73238  26.741  23.187  13.412
 8078W        W73239  12.700   8.741  12.909
 8079W        W73240  44.207  43.145   4.174
 8080W        W73241   1.538  32.188  14.808
 8081W        W73242  32.366  41.448  12.032
 8082W        W73243  38.802  13.280   4.970
 8083W        W73244  16.730   7.422   4.203
 8084W        W73245  40.767  30.155   4.768
 8085W        W73246  35.385  34.868  12.990
 8086W        W73247  13.633   0.459  12.091
 8087W        W73248  41.364  25.569   3.111
 8088W        W73249   6.035  18.988   4.661
 8089W        W73250  27.034   2.677   3.300
 8090W        W73251  10.854  11.837  13.842
 8091W        W73252  35.829  36.670   1.449
 8092W        W73253  31.446  36.809   1.461
 8093W        W73254  26.212   2.737   0.740
 8094W        W73255  26.667  27.922  10.822
 8095W        W73256  31.666  34.474   1.432
 8096W        W73257  27.955  30.544   2.248
 8097W        W73258   1.711  29.574  13.292
 8098W        W73259  28.586  18.517  13.719
 8099W        W73260   0.339  33.634  12.508
 8100W        W73261  13.196  27.648   1.429
 8101W        W73262  13.343  14.171   2.055
 8102W        W73263   8.457   2.490  13.643
 8103W        W73264  10.417  14.083   1.034
 8104W        W73265  37.685  16.785  10.843
 8105W        W73266  28.777   8.344   0.455
 8106W        W73267   0.806   4.198  13.482
 8107W        W73268  30.945  35.861   3.675
 8108W        W73269  40.283  10.937   4.584
 8109W        W73270  34.964  18.069   1.633
 8110W        W73271  17.588  12.116   2.113
 8111W        W73272  13.323  26.175  13.467
 8112W        W73273   0.629   9.298  14.330
 8113W        W73274  22.141   3.731  11.345
 8114W        W73275  40.804  35.939   3.313
 8115W        W73276  20.344   4.614  13.102
 8116W        W73277  41.342  12.416  14.474
 8117W        W73278  34.431  41.803   4.910
 8118W        W73279  19.063  33.013  12.199
 8119W        W73280   7.872   2.516   4.204
 8120W        W73281  36.504   2.936   4.631
 8121W        W73282  42.578   2.844   2.713
 8122W        W73283  15.180  24.405   2.644
 8123W        W73284  11.168   3.391   3.678
 8124W        W73285  16.107  15.691  12.872
 8125W        W73286   2.766  28.681   2.390
 8126W        W73287  30.382  15.548  10.802
 8127W        W73288  35.495   4.451  14.315
 8128W        W73289  34.921  10.093   0.415
 8129W        W73290   8.344  20.646   2.126
 8130W        W73291  24.408  12.614  14.526
 8131W        W73292   4.724   7.370   3.728
 8132W        W73293   5.312  15.904  14.751
 8133W        W73294  40.041   1.397  12.964
 8134W        W73295  19.208  18.973   5.438
 8135W        W73296  41.152  31.592  12.834
 8136W        W73297  18.883  43.351   3.583
 8137W        W73298  20.267  43.036  11.042
 8138W        W73299  43.823   3.871  14.951
 8139W        W73300  26.953  35.766  10.348
 8140W        W73301  42.868  22.417  10.677
 8141W        W73302  22.722   6.858  12.072
 8142W        W73303  21.738  33.894   1.708
 8143W        W73304  31.505   1.903  11.160
 8144W        W73305   6.971  25.398   3.207
 8145W        W73306  34.994   6.286  11.161
 8146W        W73307  22.010  37.844   3.278
 8147W        W73308   8.203  27.611   2.358
 8148W        W73309  31.650   0.723   1.584
 8149W        W73310  13.603   1.443  12.963
 8150W        W73311  19.122  37.901   0.665
 8151W        W73312   6.517  19.062   3.646
 8152W        W73313  41.452   8.852   2.336
 8153W        W73314  15.711  33.547   4.652
 8154W        W73315  36.067  41.516   3.361
 8155W        W73316   8.141  38.733   1.652
 8156W        W73317  17.636   9.004   3.242
 8157W        W73318   6.324  33.427   0.251
 8158W        W73319  12.190   6.434  12.891
 8159W        W73320   1.432  17.561  13.527
 8160W        W73321   0.460  36.888   1.730
 8161W        W73322   8.283  33.641  12.571
 8162W        W73323  34.922  32.041   1.705
 8163W        W73324  14.290  36.984   4.362
 8164W        W73325  44.814  17.788   1.370
 8165W        W73326  31.376  17.157   3.838
 8166W        W73327   8.397   5.805  11.639
 8167W        W73328  10.269   3.758  14.556
 8168W        W73329  11.547  35.689   1.255
 8169W        W73330  44.282  22.203   0.901
 8170W        W73331  17.194  27.717   4.374
 8171W        W73332  28.037   7.293  11.415
 8172W        W73333  25.620   2.787   1.645
 8173W        W73334  38.426  31.172   2.956
 8174W        W73335  37.136  19.223   0.428
 8175W        W73336  22.961   5.449  11.070
 8176W        W73337  36.129   4.869  13.360
 8177W        W73338  13.653  13.339   4.706
 8178W        W73339  15.559  39.824   1.675
 8179W        W73340  13.054  20.165   0.985
 8180W        W73341  41.082  15.296   2.843
 8181W        W73342   2.829   5.166   4.068
 8182W        W73343  39.536  32.125   0.412
 8183W        W73344  25.758  41.162  13.335
 8184W        W73345  33.598  20.408  11.084
 8185W        W73346  29.428   7.870   0.783
 8186W        W73347  32.008  15.604  11.022
 8187W        W73348   2.377  12.268   3.633
 8188W        W73349  25.967  28.637   0.242
 8189W        W73350  22.060   5.204   4.068
 8190W        W73351  30.104  39.280  14.932
 8191W        W73352  18.052  41.085  12.562
 8192W        W73353   5.369  41.879   4.398
 8193W        W73354  17.128  29.921  11.711
 8194W        W73355  18.414  31.062   0.942
 8195W        W73356  12.142  10.658   2.170
 8196W        W73357   6.542  38.349  11.207
 8197W        W73358   0.055  34.931  14.750
 8198W        W73359   3.595  10.232  10.960
 8199W        W73360  30.048  22.216  13.483
 8200W        W73361   7.233  23.610   1.276
 8201W        W73362   5.277  38.309   2.878
 8202W        W73363  25.334  21.164  14.778
 8203W        W73364  27.648  22.080   1.273
 8204W        W73365  13.995   5.883  13.456
 8205W        W73366  24.327  23.457  12.344
 8206W        W73367  20.156  18.818  11.195
 8207W        W73368   4.434  17.620   0.919
 8208W        W73369  38.313   2.886  12.308
 8209W        W73370  26.192  27.154   1.517
 8210W        W73371  31.263  22.006   4.015
 8211W        W73372  14.149   0.461  11.063
 8212W        W73373  43.559  10.144  10.202
 8213W        W73374  40.312  16.071  11.372
 8214W        W73375  28.943   6.856   3.498
 8215W        W73376  32.688   4.929  10.982
 8216W        W73377  32.095  29.503  11.258
 8217W        W73378  22.431   6.861  14.734
 8218W        W73379  35.496  10.322   4.130
 8219W        W73380  33.622   4.767  10.906
 8220W        W73381  27.573   9.203  14.750
 8221W        W73382  13.790  41.503   0.411
 8222W        W73383   2.444  19.230  11.437
 8223W        W73384   0.872  43.544  12.903
 8224W        W73385  20.131  28.976  14.279
 8225W        W73386  35.741  37.547   0.334
 8226W        W73387  37.926  31.904  12.872
 8227W        W73388  42.294  44.302  14.044
 8228W        W73389  14.611   2.299   1.401
 8229W        W73390  33.910  10.660   3.587
 8230W        W73391   7.880   1.436   4.739
 8231W        W73392   7.885  23.165  14.771
 8232W        W73393  39.949  38.501   0.263
 8233W        W73394  13.696  42.354   3.296
 8234W        W73395  18.248  33.425   2.210
 8235W        W73396   6.983  24.052   1.398
 8236W        W73397   8.750  36.330   2.766
 8237W        W73398  14.801  31.208   0.439
 8238W        W73399  35.910  34.422  12.163
 8239W        W73400  37.660   1.327  10.495
 8240W        W73401   5.186   8.667   1.261
 8241W        W73402   2.999  37.795   9.847
 8242W        W73403  20.197  44.570  11.020
 8243W        W73404  36.494   6.960  13.845
 8244W        W73405  39.817  26.127  13.248
 8245W        W73406   9.685  14.646  11.652
 8246W        W73407   3.814  10.369   1.102
 8247W        W73408  39.980  31.993   4.682
 8248W        W73409  31.723   7.484  10.575
 8249W        W73410  20.031  40.983   0.438
 8250W        W73411  25.514  36.104  11.988
 8251W        W73412  13.602  41.279  13.088
 8252W        W73413  33.545  27.073  12.860
 8253W        W73414  17.177   8.749   1.330
 8254W        W73415  41.941  11.398  12.088
 8255W        W73416   1.001  27.048   4.129
 8256W        W73417  22.106  18.252  12.092
 8257W        W73418  34.243  23.166   3.876
 8258W        W73419  19.793  23.429   1.473
 8259W        W73420   4.440  11.654   0.444
 8260W        W73421   3.335  42.065  14.364
 8261W        W73422  21.815  32.804   0.829
 8262W        W73423  29.112  29.320   0.204
 8263W        W73424  16.134  12.033  12.052
 8264W        W73425  11.177  40.364   1.801
 8265W        W73426  17.543  44.763  12.841
 8266W        W73427   5.024  17.247   5.074
 8267W        W73428  32.044  36.334  13.413
 8268W        W73429  39.848  11.931   1.790
 8269W        W73430  11.008   9.708  14.565
 8270W        W73431  27.166  41.584  12.412
 8271W        W73432  44.060  41.830   2.339
 8272W        W73433  15.714  18.520   3.271
 8273W        W73434  27.221  38.275   3.058
 8274W        W73435  34.238  25.952  14.870
 8275W        W73436  25.203  14.901  13.581
 8276W        W73437  17.322  23.792   1.495
 8277W        W73438  14.396   7.105   4.876
 8278W        W73439  37.368  40.379   0.841
 8279W        W73440  28.213  33.345   1.308
 8280W        W73441  26.116  29.479  12.000
 8281W        W73442  35.486  21.651   0.883
 8282W        W73443  20.832  32.172  11.658
 8283W        W73444  22.585  25.389  11.591
 8284W        W73445  23.437  30.630   3.657
 8285W        W73446  12.203  29.675   3.712
 8286W        W73447  26.326   8.137  14.602
 8287W        W73448  38.070   0.521  12.860
 8288W        W73449  28.544  29.989  12.068
 8289W        W73450  32.529   0.951  12.619
 8290W        W73451  22.721  18.866  13.792
 8291W        W73452  24.476   6.448  12.850
 8292W        W73453  10.883  32.221   0.799
 8293W        W73454  18.404   0.287   1.391
 8294W        W73455  20.651  38.239   3.417
 8295W        W73456   3.900  35.544   2.427
 8296W        W73457  21.711   5.201   2.837
 8297W        W73458  34.284  30.965   1.336
 8298W        W73459  14.657  23.551  14.588
 8299W        W73460   1.663  29.108   3.547
 8300W        W73461  11.117  11.384   3.682
 8301W        W73462  14.170   4.315  13.306
 8302W        W73463  38.993   3.317  12.034
 8303W        W73464   5.908  20.068   2.255
 8304W        W73465  42.808  21.764  14.986
 8305W        W73466   6.425  22.763   4.956
 8306W        W73467  19.787  18.825  11.586
 8307W        W73468  33.946  43.729  12.553
 8308W        W73469  43.925  24.117   1.426
 8309W        W73470  18.815   0.989   4.164
 8310W        W73471  13.296   5.579   0.703
 8311W        W73472  13.837   3.430   2.266
 8312W        W73473  38.918  38.493  14.711
 8313W        W73474  34.643  15.152  14.011
 8314W        W73475  44.624   1.438  11.076
 8315W        W73476   2.952   7.681   2.814
 8316W        W73477   0.698  41.669  10.627
 8317W        W73478  42.931  10.835  11.054
 8318W        W73479  19.320  42.552   1.717
 8319W        W73480  27.538   9.803   0.453
 8320W        W73481   3.343  12.741   2.667
 8321W        W73482  42.917  29.502  11.728
 8322W        W73483   8.568  44.196   2.221
 8323W        W73484  13.718   5.827  13.939
 8324W        W73485  30.470  20.961  10.104
 8325W        W73486   2.524   0.067  12.581
 8326W        W73487  33.616   9.599  13.878
 8327W        W73488  37.219  38.852  10.208
 8328W        W73489  17.448   5.721   1.088
 8329W        W73490  13.290  12.792   1.849
 8330W        W73491  12.974  21.611  11.551
 8331W        W73492  21.564  22.271  13.181
 8332W        W73493  24.986  21.769  12.000
 8333W        W73494  26.522   8.228   0.095
 8334W        W73495  18.197  13.430  11.190
 8335W        W73496  33.538  14.205  13.637
 8336W        W73497  33.397  13.368  11.800
 8337W        W73498  15.382  34.385  14.987
 8338W        W73499  35.084  16.301   0.333
 8339W        W73500  21.216  14.348  13.785
 8340W        W73501  27.632  43.567  10.636
 8341W        W73502  42.140  11.815  10.739
 8342W        W73503  42.818  23.886   4.413
 8343W        W73504  12.130   1.941   4.549
 8344W        W73505  15.845  16.554  13.781
 8345W        W73506   9.656  37.805   3.716
 8346W        W73507  22.867  21.867   0.546
 8347W        W73508  36.094  25.323   0.901
 8348W        W73509  34.525  17.804  12.665
 8349W        W73510  40.468  13.603   3.733
 8350W        W73511  38.868  37.310  10.348
 8351W        W73512  44.027  43.586  13.976
 8352W        W73513   8.067  19.174   2.468
 8353W        W73514  17.262   9.576   1.961
 8354W        W73515   4.046  33.699   4.624
 8355W        W73516  30.472  40.522   3.718
 8356W        W73517  24.944  41.517  13.335
 8357W        W73518  26.710  31.456   2.035
 8358W        W73519  24.227  26.430  11.570
 8359W        W73520  44.335   3.804   3.800
 8360W        W73521   6.970   2.521   4.091
 8361W        W73522  44.441  35.532  11.164
 8362W        W73523   8.093  38.978  12.922
 8363W        W73524  29.957  18.393  11.958
 8364W        W73525  25.743   5.278   3.168
 8365W        W73526  26.964  21.604   4.028
 8366W        W73527   2.497  38.055   4.678
 8367W        W73528  22.109   9.264  11.684
 8368W        W73529  16.181  11.156  12.124
 8369W        W73530  22.312  13.686   0.042
 8370W        W73531   6.692   3.687  10.972
 8371W        W73532  33.890   8.263  12.438
 8372W        W73533  40.314   1.283   4.480
 8373W        W73534  18.908  37.969  12.815
 8374W        W73535  36.561  43.913  12.866
 8375W        W73536  15.813   6.521  14.183
 8376W        W73537  37.563   6.404  12.498
 8377W        W73538   4.315  10.723   0.278
 8378W        W73539   8.758   6.767  11.476
 8379W        W73540  22.468  35.828  12.883
 8380W        W73541   0.332  16.173  11.123
 8381W        W73542  31.052  30.700   4.986
 8382W        W73543  28.710  15.549   1.738
 8383W        W73544  30.347  43.927  14.878
 8384W        W73545  20.967  19.700   0.016
 8385W        W73546   8.570  34.327   1.212
 8386W        W73547  36.114  21.206  14.469
 8387W        W73548  29.587  39.087  11.755
 8388W        W73549  30.638   1.998   0.954
 8389W        W73550  11.196  36.011   4.684
 8390W        W73551   4.928  22.967   1.676
 8391W        W73552   5.219   9.206   1.398
 8392W        W73553   0.217  26.489  12.533
 8393W        W73554  42.786   5.622   3.751
 8394W        W73555  19.921  23.737   0.592
 8395W        W73556  35.827  12.637  13.915
 8396W        W73557  16.367  12.432  12.383
 8397W        W73558  16.304  19.710   3.265
 8398W        W73559  29.813  32.663   3.293
 8399W        W73560  26.705   0.873  14.852
 8400W        W73561   7.131   8.245   1.109
 8401W        W73562  32.966   4.617   0.481
 8402W        W73563  31.760  27.223  10.755
 8403W        W73564  12.925   7.288  11.673
 8404W        W73565  21.702  10.186   0.520
 8405W        W73566  14.596  24.248  13.432
 8406W        W73567   2.024  33.145  12.985
 8407W        W73568  10.403  40.758   4.230
 8408W        W73569  29.649  44.050  12.926
 8409W        W73570  34.603  28.577   2.694
 8410W        W73571  30.072  17.073  14.849
 8411W        W73572  32.877  11.066  12.564
 8412W        W73573  17.099  33.387  10.776
 8413W        W73574  36.370  38.450   0.967
 8414W        W73575   3.284  16.267  10.922
 8415W        W73576  30.983  21.773  10.629
 8416W        W73577  14.734   7.076   1.369
 8417W        W73578  27.384   6.208  12.642
 8418W        W73579  33.181  41.433  11.598
 8419W        W73580   6.324  12.301   0.176
 8420W        W73581   0.815  36.046   2.973
 8421W        W73582   9.911  41.945   1.435
 8422W        W73583  29.970  38.081   3.304
 8423W        W73584  44.504   2.813   2.751
 8424W        W73585  34.536  22.256  10.994
 8425W        W73586  19.003  28.953  14.316
 8426W        W73587   1.787  34.034  13.234
 8427W        W73588  25.731  41.771   4.673
 8428W        W73589  20.248  22.788  11.093
 8429W        W73590  42.164   9.473  11.098
 8430W        W73591  44.975  42.101  12.474
 8431W        W73592  17.627   0.479  10.482
 8432W        W73593   6.246  31.474  14.119
 8433W        W73594  31.623  19.308  10.977
 8434W        W73595  38.840  33.315  12.458
 8435W        W73596  11.732  17.390   1.845
 8436W        W73597  30.387  11.925  11.112
 8437W        W73598  40.705  29.448   0.286
 8438W        W73599  12.244  14.495   4.554
 8439W        W73600   1.906  26.128  12.537
 8440W        W73601  33.905  44.363  10.733
 8441W        W73602  25.406  40.847  10.648
 8442W        W73603  23.478   5.808   4.092
 8443W        W73604  40.257  38.388   0.815
 8444W        W73605  26.166  21.806  10.510
 8445W        W73606   4.253  42.224   3.115
 8446W        W73607   0.351  30.249  12.009
 8447W        W73608  43.223  13.433  13.396
 8448W        W73609  24.574  32.641  11.588
 8449W        W73610   6.777  27.511   2.286
 8450W        W73611  38.337  21.705  10.851
 8451W        W73612  39.185  32.855   5.104
 8452W        W73613  13.741   3.778   3.340
 8453W        W73614  22.915   6.534   4.150
 8454W        W73615   8.673  14.709  14.409
 8455W        W73616  40.699   9.211   2.987
 8456W        W73617   9.781   5.950  12.837
 8457W        W73618   9.690  14.179   3.916
 8458W        W73619   4.041  18.921   0.446
 8459W        W73620   2.332  38.237   4.211
 8460W        W73621  25.855  19.248  10.799
 8461W        W73622   8.603  36.495  12.017
 8462W        W73623  25.517  32.390  14.718
 8463W        W73624  33.764  40.926  14.714
 8464W        W73625  15.765  33.004   0.464
 8465W        W73626  38.068  22.528  13.167
 8466W        W73627  26.401  17.267  14.336
 8467W        W73628  16.060  20.006  12.712
 8468W        W73629  35.673   2.746   4.135
 8469W        W73630   3.984   3.347  12.157
 8470W        W73631  25.476  40.045   0.885
 8471W        W73632  13.056  16.986   0.386
 8472W        W73633  13.257  36.442  14.806
 8473W        W73634  21.210  44.953   0.412
 8474W        W73635   9.928  12.068   3.619
 8475W        W73636   0.016  14.484  14.073
 8476W        W73637  15.803  22.288  10.677
 8477W        W73638   1.880   7.449  11.205
 8478W        W73639  42.562  37.612   1.237
 8479W        W73640  18.266  24.706  13.476
 8480W        W73641  13.967  44.272   1.798
 8481W        W73642  28.024  17.060   1.451
 8482W        W73643   2.179  19.199   1.342
 8483W        W73644  34.609  34.705  11.918
 8484W        W73645  27.989  13.144  11.593
 8485W        W73646   8.675  39.262   2.274
 8486W        W73647  16.913  10.664  11.688
 8487W        W73648  28.406  39.560   9.856
 8488W        W73649   0.901   1.239   4.667
 8489W        W73650  28.260   0.024  14.273
 8490W        W73651  36.939  33.588  10.478
 8491W        W73652   8.090  39.004  10.506
 8492W        W73653  29.470  35.517   0.230
 8493W        W73654  39.137  18.225   5.079
 8494W        W73655  11.204  28.861   3.220
 8495W        W73656  38.209  10.244   3.778
 8496W        W73657  39.868  33.818  11.058
 8497W        W73658  41.238  24.984  12.029
 8498W        W73659  24.545  19.852  11.229
 8499W        W73660  27.598  44.326   2.132
 8500W        W73661   3.640  30.825   5.029
 8501W        W73662  38.434  15.267   4.592
 8502W        W73663  16.812   5.112  11.332
 8503W        W73664  27.729  19.200  13.352
 8504W        W73665  15.068  36.644  14.857
 8505W        W73666   7.334   4.798   2.212
 8506W        W73667  32.033  19.272   0.709
 8507W        W73668  17.825  43.294  11.136
 8508W        W73669  26.386  21.228   0.874
 8509W        W73670  38.895   5.132   0.832
 8510W        W73671   1.921  37.314  12.995
 8511W        W73672  15.701  28.742   2.243
 8512W        W73673   4.957   9.257   3.818
 8513W        W73674   1.313  31.148   1.480
 8514W        W73675  25.510  12.150   3.254
 8515W        W73676  23.539  38.180   4.129
 8516W        W73677  35.143  25.989   3.195
 8517W        W73678  10.789   1.699  13.914
 8518W        W73679  11.448  12.622  13.768
 8519W        W73680   1.736   5.671   3.697
 8520W        W73681  40.921  21.020  12.960
 8521W        W73682  44.541  13.632   2.643
 8522W        W73683  14.820  34.969   3.581
 8523W        W73684   5.356  15.138  11.320
 8524W        W73685   3.392   1.830  12.176
 8525W        W73686  33.105  15.590  12.700
 8526W        W73687  37.397  23.675  12.410
 8527W        W73688  19.168   8.993   4.044
 8528W        W73689  37.056  41.594   2.348
 8529W        W73690  33.026  28.143  13.451
 8530W        W73691  25.314  40.616   2.771
 8531W        W73692  38.387   4.222  13.418
 8532W        W73693  13.328  44.026  14.544
 8533W        W73694  23.746  40.940  13.977
 8534W        W73695  39.220  24.361   0.973
 8535W        W73696  33.288  41.991  12.807
 8536W        W73697   3.795  13.005   2.809
 8537W        W73698   2.194  16.625   0.834
 8538W        W73699  12.639  27.164  12.141
 8539W        W73700  32.927  10.307   2.166
 8540W        W73701   5.495   6.394  14.779
 8541W        W73702  36.455  21.999  11.453
 8542W        W73703  22.837  24.042  11.913
 8543W        W73704  35.093  32.998  10.788
 8544W        W73705  38.261  30.297   0.930
 8545W        W73706  26.360  11.657   0.384
 8546W        W73707   9.845  40.450   2.742
 8547W        W73708  12.559  23.915   4.209
 8548W        W73709  14.920  43.357  11.599
 8549W        W73710  34.963  38.383   5.659
 8550W        W73711   3.067   8.016   4.080
 8551W        W73712  37.555  21.428  13.557
 8552W        W73713  38.974   1.178  11.310
 8553W        W73714  34.537  20.098  12.519
 8554W        W73715  14.463  27.002   0.363
 8555W        W73716  15.299  10.613   0.942
 8556W        W73717  14.298  32.728   2.544
 8557W        W73718  43.225   1.891  11.136
 8558W        W73719   2.459  15.289   5.029
 8559W        W73720   2.043  39.337  11.968
 8560W        W73721  20.491  27.639   4.571
 8561W        W73722  19.180   2.447   1.495
 8562W        W73723  24.556  10.153  10.739
 8563W        W73724  38.812  37.500   0.014
 8564W        W73725  33.709  41.300   3.937
 8565W        W73726  37.213  33.665  11.259
 8566W        W73727  42.942  16.582   2.685
 8567W        W73728   6.326   4.344   1.327
 8568W        W73729  31.139  21.730  12.171
 8569W        W73730   5.902  27.751  12.346
 8570W        W73731  42.843  25.625  14.526
 8571W        W73732  11.255  44.358   0.791
 8572W        W73733  39.384  38.491   2.401
 8573W        W73734  18.040  31.509   0.866
 8574W        W73735  25.541  37.233   4.813
 8575W        W73736  23.505  20.766  12.477
 8576W        W73737   3.070  11.631   2.663
 8577W        W73738  11.906   2.814   3.312
 8578W        W73739   4.243   1.235  11.616
 8579W        W73740  24.438  44.416   0.922
 8580W        W73741  20.675  16.967  11.953
 8581W        W73742  11.831  21.247  12.260
 8582W        W73743  26.749  31.867  13.501
 8583W        W73744  15.517   4.722   5.124
 8584W        W73745   5.651  39.390   3.262
 8585W        W73746  24.463  34.938   4.802
 8586W        W73747   4.277  39.062  11.185
 8587W        W73748  26.046  34.841   1.326
 8588W        W73749  15.272  17.712   4.830
 8589W        W73750  17.248  13.502  12.880
 8590W        W73751  30.455  35.843  12.918
 8591W        W73752  20.454  43.960  11.111
 8592W        W73753  11.689   4.799  14.735
 8593W        W73754  11.789  10.806   4.013
 8594W        W73755  21.488  10.073   2.343
 8595W        W73756  29.685  39.370   2.342
 8596W        W73757   9.379  34.660   0.867
 8597W        W73758  16.890  23.613   4.720
 8598W        W73759  35.631   5.726   4.897
 8599W        W73760  22.122  12.773  11.534
 8600W        W73761  18.932  44.861  14.295
 8601W        W73762  33.502  37.104   0.888
 8602W        W73763  41.405  38.957   1.268
 8603W        W73764  13.148  23.699  14.861
 8604W        W73765   7.280  16.986  12.689
 8605W        W73766  20.817  26.113   1.756
 8606W        W73767  23.172  19.455  11.446
 8607W        W73768  31.603  40.535  11.568
 8608W        W73769  11.044   6.301   1.787
 8609W        W73770  34.435   2.411  12.990
 8610W        W73771   4.654  20.708  11.985
 8611W        W73772  14.326   1.272   2.815
 8612W        W73773  22.428  10.319   1.659
 8613W        W73774   1.768  25.135  13.531
 8614W        W73775  18.118  22.315  10.530
 8615W        W73776  35.099  34.817  11.049
 8616W        W73777  18.993  11.137   1.779
 8617W        W73778   3.840   2.047   2.986
 8618W        W73779   3.719  11.184  14.270
 8619W        W73780  12.374  21.249  12.361
 8620W        W73781  27.460  35.144   2.374
 8621W        W73782  43.288  21.135   2.884
 8622W        W73783   9.929  15.145   4.091
 8623W        W73784  10.504  29.183   3.965
 8624W        W73785  11.699   7.271  14.274
 8625W        W73786  19.795   5.231  12.127
 8626W        W73787  33.397  40.545  11.994
 8627W        W73788  31.398  13.769   3.237
 8628W        W73789  40.776  44.424   3.301
 8629W        W73790  16.756  14.519  13.948
 8630W        W73791  24.545   0.670   0.707
 8631W        W73792  40.845  35.820   0.901
 8632W        W73793  13.719  42.513   0.469
 8633W        W73794  16.273  33.156  14.822
 8634W        W73795  41.458  18.185  12.547
 8635W        W73796   7.828  28.293   0.994
 8636W        W73797  13.807   2.844   2.760
 8637W        W73798  10.761  12.161  12.028
 8638W        W73799   6.207  26.133  13.811
 8639W        W73800  15.613   9.327  13.917
 8640W        W73801  35.246   0.513  13.081
 8641W        W73802   8.174   8.344   0.821
 8642W        W73803  26.038  20.727  10.586
 8643W        W73804  37.665   9.551   2.453
 8644W        W73805  25.365  36.017  12.503
 8645W        W73806  33.078   6.560   4.663
 8646W        W73807  35.372  33.607  14.368
 8647W        W73808  20.212  33.324   1.863
 8648W        W73809  23.182  19.679  14.209
 8649W        W73810  35.041  20.748   0.982
 8650W        W73811  40.429   0.391  13.667
 8651W        W73812  19.230  41.561  10.973
 8652W        W73813  17.200   7.261   4.998
 8653W        W73814  12.266  15.618  12.429
 8654W        W73815  23.475  35.172   2.368
 8655W        W73816  22.188  10.101  12.549
 8656W        W73817   8.666  17.961  12.614
 8657W        W73818  25.459   1.875   0.384
 8658W        W73819  19.834  32.398   4.979
 8659W        W73820  16.691  12.381  11.576
 8660W        W73821  15.021  23.730   2.319
 8661W        W73822  15.534   0.797  14.079
 8662W        W73823  33.651  11.744  13.516
 8663W        W73824  41.474  24.155  11.240
 8664W        W73825  14.669  17.188   0.779
 8665W        W73826  31.793  25.673  14.358
 8666W        W73827   5.220  22.716   4.253
 8667W        W73828  19.623   6.299   1.877
 8668W        W73829  23.719  25.748  11.995
 8669W        W73830  12.248   8.736  10.748
 8670W        W73831  29.179  13.429   2.128
 8671W        W73832  36.562  26.705  14.558
 8672W        W73833  44.822  11.800   2.171
 8673W        W73834   0.367  39.575   0.661
 8674W        W73835  35.021  26.435   1.176
 8675W        W73836  41.918   0.735  11.550
 8676W        W73837  34.742  39.702   9.755
 8677W        W73838  14.403   9.284   2.968
 8678W        W73839  13.294   0.351  11.657
 8679W        W73840  29.617   9.370   0.944
 8680W        W73841  23.724   3.267  13.275
 8681W        W73842  13.698  37.944  11.279
 8682W        W73843  42.878  35.582   0.232
 8683W        W73844  25.268  33.040   3.637
 8684W        W73845  31.898   1.279   1.774
 8685W        W73846  31.161  39.997   3.349
 8686W        W73847  17.075  19.131  11.608
 8687W        W73848  21.237  11.076  11.136
 8688W        W73849  22.112  34.581  14.287
 8689W        W73850  33.210  10.935   0.856
 8690W        W73851  30.621   2.486   0.325
 8691W        W73852  24.998   6.179   4.223
 8692W        W73853  16.116   8.310   4.677
 8693W        W73854  26.201  22.480  12.823
 8694W        W73855  37.944  21.050  12.550
 8695W        W73856   3.787  26.977   3.464
 8696W        W73857  25.266   6.169   3.304
 8697W        W73858  37.799  32.720   4.091
 8698W        W73859  42.567  11.637  12.867
 8699W        W73860  17.328  40.723   2.624
 8700W        W73861  34.388  23.748   3.753
 8701W        W73862  37.135  38.564   9.772
 8702W        W73863  11.663  42.874  12.031
 8703W        W73864  24.490  24.581   1.737
 8704W        W73865   5.198  44.096   0.245
 8705W        W73866  27.117  18.752   3.042
 8706W        W73867  30.167   9.196   2.888
 8707W        W73868  27.163  20.100   0.179
 8708W        W73869   3.994  43.980  13.872
 8709W        W73870  44.518  13.714   3.152
 8710W        W73871  35.659  25.031   0.926
 8711W        W73872  43.912  19.975   1.318
 8712W        W73873  31.390   3.992  14.393
 8713W        W73874  40.882  35.363  14.209
 8714W        W73875   9.244  33.160   4.766
 8715W        W73876  13.112  20.595  13.904
 8716W        W73877  25.674  31.831  11.590
 8717W        W73878  34.800  42.448  10.398
 8718W        W73879  35.178  44.449  13.464
 8719W        W73880  21.549   6.409   3.719
 8720W        W73881  43.781  11.673  13.461
 8721W        W73882   0.958  13.799   2.929
 8722W        W73883  33.830   6.972   3.298
 8723W        W73884  19.641  34.185  12.869
 8724W        W73885   3.280   5.932   1.855
 8725W        W73886  14.171  23.186  10.682
 8726W        W73887  42.508  15.834  13.878
 8727W        W73888   0.780  13.315  12.611
 8728W        W73889   6.162  35.371  10.718
 8729W        W73890  36.880  39.367  13.460
 8730W        W73891  40.536  36.424   0.695
 8731W        W73892   6.947  41.252   4.158
 8732W        W73893  36.898  12.295  13.592
 8733W        W73894  22.635  23.041   2.222
 8734W        W73895   2.199  32.586   4.201
 8735W        W73896  43.297   5.140  14.496
 8736W        W73897  10.389  38.929  13.553
 8737W        W73898  44.289  27.745   0.119
 8738W        W73899  25.808  18.800  11.138
 8739W        W73900  31.964  35.895  13.714
 8740W        W73901   8.513  34.949   0.805
 8741W        W73902  32.089  39.952  10.387
 8742W        W73903  22.274  17.816   2.795
 8743W        W73904  24.454   2.664  10.644
 8744W        W73905  37.883  24.512   1.213
 8745W        W73906  13.172   4.372  11.747
 8746W        W73907  38.248  40.274   3.196
 8747W        W73908   4.756   8.563  10.720
 8748W        W73909  20.509  43.778  13.050
 8749W        W73910  31.083  15.764   0.305
 8750W        W73911   2.237  23.705  14.539
 8751W        W73912   8.482  28.558  14.430
 8752W        W73913   6.984  20.817   3.827
 8753W        W73914  40.746  41.519  10.688
 8754W        W73915  41.494   0.646   3.267
 8755W        W73916   6.365  24.219  11.539
 8756W        W73917   9.943   4.833   3.611
 8757W        W73918   2.581  37.008   4.630
 8758W        W73919  34.622  12.846   1.860
 8759W        W73920  25.659   3.683   2.729
 8760W        W73921  39.005   9.857   3.879
 8761W        W73922  17.221  12.742   3.872
 8762W        W73923   4.655  38.418   4.569
 8763W        W73924  32.110  11.063   4.657
 8764W        W73925  16.124  25.160  11.525
 8765W        W73926  37.072  44.013   1.122
 8766W        W73927  28.047   6.199  13.413
 8767W        W73928  37.261  36.225   2.255
 8768W        W73929  44.263  32.659  13.403
 8769W        W73930  28.353   2.364   0.624
 8770W        W73931  25.722  41.904   0.400
 8771W        W73932   7.327   4.410  11.919
 8772W        W73933  38.473   3.419   0.026
 8773W        W73934  34.583  15.224   4.695
 8774W        W73935  23.642   4.894   3.113
 8775W        W73936  12.027  29.129  13.390
 8776W        W73937  23.525  17.173  13.931
 8777W        W73938  25.065  20.524   3.363
 8778W        W73939  32.394  16.158   2.113
 8779W        W73940  34.898  33.118  12.605
 8780W        W73941  23.303  16.159  10.742
 8781W        W73942  37.879   7.766  11.541
 8782W        W73943   5.176  40.187   0.658
 8783W        W73944  44.976  33.705  11.928
 8784W        W73945  32.906  44.741   4.196
 8785W        W73946  26.446   4.845   1.899
 8786W        W73947  39.965  41.542   0.293
 8787W        W73948  24.821  41.992   1.413
 8788W        W73949   6.091   8.812   5.182
 8789W        W73950  32.916   2.874  12.517
 8790W        W73951  10.804  32.388  13.392
 8791W        W73952  32.537   1.859   0.495
 8792W        W73953  35.450  42.794   3.616
 8793W        W73954  37.452  38.535  13.614
 8794W        W73955  36.075  11.210   0.329
 8795W        W73956  15.095   7.410  12.415
 8796W        W73957   0.267  10.788  12.179
 8797W        W73958  29.401  25.910   1.037
 8798W        W73959   7.386   0.597  12.018
 8799W        W73960   6.653  37.580   4.044
 8800W        W73961  43.651  21.710   2.333
 8801W        W73962  41.805  29.160   0.382
 8802W        W73963   4.345   4.834   2.338
 8803W        W73964  38.065  10.014   3.054
 8804W        W73965  44.725  14.363   0.040
 8805W        W73966  35.429  28.353   0.575
 8806W        W73967   8.490   6.248  14.068
 8807W        W73968  25.203  16.200   5.467
 8808W        W73969  42.525  29.472   2.333
 8809W        W73970   6.964  39.277   4.215
 8810W        W73971  14.639  19.890   2.305
 8811W        W73972  18.249  20.648  12.547
 8812W        W73973   3.634   5.083  14.470
 8813W        W73974   2.166  24.619   4.088
 8814W        W73975  40.391  21.652  11.300
 8815W        W73976  41.327  40.394   2.788
 8816W        W73977  15.844  19.481  14.922
 8817W        W73978  12.825  12.929  12.457
 8818W        W73979  26.177  23.049   4.560
 8819W        W73980  16.466  28.263  12.032
 8820W        W73981  29.467  13.640   1.761
 8821W        W73982  36.050  13.089  13.784
 8822W        W73983  19.118   5.434   3.662
 8823W        W73984  25.553  21.289  12.600
 8824W        W73985  12.629   6.177  13.111
 8825W        W73986  22.227  13.237  12.013
 8826W        W73987  42.879  18.301  12.646
 8827W        W73988  24.746   3.666  14.156
 8828W        W73989   5.198  14.502  13.822
 8829W        W73990  19.750  14.313   0.184
 8830W        W73991  44.443  10.147   4.516
 8831W        W73992   8.232  32.571  14.948
 8832W        W73993  23.243  38.475  10.026
 8833W        W73994   5.318  35.355  14.653
 8834W        W73995  30.543  36.883   3.705
 8835W        W73996   3.412  37.842   1.864
 8836W        W73997  36.751  30.563  13.031
 8837W        W73998   7.375  29.051   1.787
 8838W        W73999  11.580  24.121   3.100
 8839W        W74000   3.549  31.638  13.438
 8840W        W74001  44.790  38.867  14.626
 8841W        W74002  29.620  11.220   2.801
 8842W        W74003   1.480  20.280   3.196
 8843W        W74004  33.912  28.934   4.100
 8844W        W74005  30.330   1.691   4.008
 8845W        W74006  43.568  41.720   2.174
 8846W        W74007  39.845  21.699   1.303
 8847W        W74008  26.557   5.006   0.910
 8848W        W74009  41.454  43.770  12.113
 8849W        W74010  42.718   7.654  10.579
 8850W        W74011  35.460  44.740  13.986
 8851W        W74012  40.263  17.649   1.981
 8852W        W74013  26.719  34.917  13.868
 8853W        W74014  15.135   3.932  14.756
 8854W        W74015  26.556  31.422   3.874
 8855W        W74016  13.270  40.380  14.229
 8856W        W74017  34.075  30.237   0.289
 8857W        W74018  10.602  16.153   1.865
 8858W        W74019  24.854  29.462   3.257
 8859W        W74020  36.631  26.466  13.036
 8860W        W74021  12.576  16.287  13.398
 8861W        W74022  19.202  43.461  14.969
 8862W        W74023   2.431  10.552  14.459
 8863W        W74024  36.937  35.289   2.634
 8864W        W74025  29.987  36.993   2.588
 8865W        W74026  16.799   0.005  14.678
 8866W        W74027  30.412  31.171   0.163
 8867W        W74028  16.309   6.198   0.186
 8868W        W74029  44.371  16.488  13.364
 8869W        W74030  18.742  42.489  14.912
 8870W        W74031   3.012  10.139   0.031
 8871W        W74032  30.120   3.360   0.944
 8872W        W74033  15.034  20.703  12.593
 8873W        W74034  13.929  32.444  14.436
 8874W        W74035  32.162  44.954   1.221
 8875W        W74036  39.915  21.011  10.736
 8876W        W74037   2.753  21.506   4.619
 8877W        W74038  13.786   8.907   4.174
 8878W        W74039  40.885   0.304   3.721
 8879W        W74040   2.688  42.023  11.177
 8880W        W74041   1.153   3.751  12.025
 8881W        W74042  19.728   7.932   3.284
 8882W        W74043  21.579  14.045  12.964
 8883W        W74044  18.200  36.032   4.081
 8884W        W74045  20.748  43.364  14.793
 8885W        W74046  32.868  37.964  11.541
 8886W        W74047  37.560   0.181   0.902
 8887W        W74048  21.796   3.705  10.460
 8888W        W74049   5.626  24.096  11.879
 8889W        W74050  28.121  29.334   3.048
 8890W        W74051  31.547  33.390  14.389
 8891W        W74052  36.628  12.485   3.135
 8892W        W74053  20.969  31.361  14.318
 8893W        W74054  36.395  35.542  11.560
 8894W        W74055  21.964  34.941   0.286
 8895W        W74056  41.085  19.781   2.283
 8896W        W74057  21.488  18.271   1.338
 8897W        W74058  21.821  42.653  11.128
 8898W        W74059   6.734  40.972  13.845
 8899W        W74060  28.444  31.592   3.176
 8900W        W74061  13.102  28.527  10.682
 8901W        W74062  14.274  34.523   4.729
 8902W        W74063  10.412  19.218   3.259
 8903W        W74064  18.768  36.599   0.974
 8904W        W74065   1.772  10.776   2.361
 8905W        W74066  15.294  26.060   0.835
 8906W        W74067  11.233  28.639   3.756
 8907W        W74068   4.189  11.187  12.012
 8908W        W74069  35.402   6.966  13.099
 8909W        W74070   8.111  37.466  14.922
 8910W        W74071  24.897  34.668  14.486
 8911W        W74072   9.933  43.392  11.415
 8912W        W74073   0.716  40.586   0.849
 8913W        W74074   3.648  33.660  12.587
 8914W        W74075   7.226   0.420  10.629
 8915W        W74076  41.341  39.437   2.756
 8916W        W74077  31.373  16.656   0.951
 8917W        W74078  30.961  19.708  10.383
 8918W        W74079   2.445   4.178  10.724
 8919W        W74080  32.983   6.164  12.856
 8920W        W74081  16.588  43.285  11.099
 8921W        W74082  40.883  36.481   3.194
 8922W        W74083  13.401  26.964   3.262
 8923W        W74084  11.526  33.347   2.699
 8924W        W74085   7.977   4.597  11.159
 8925W        W74086  38.589  26.608  10.946
 8926W        W74087  16.179  28.642   4.563
 8927W        W74088  17.546  30.051  12.007
 8928W        W74089  37.049  23.732   3.664
 8929W        W74090  34.131  12.894  13.463
 8930W        W74091  13.217  40.703   4.990
 8931W        W74092  31.648  14.428  13.582
 8932W        W74093  15.010  20.505   0.020
 8933W        W74094  22.755  25.110  13.947
 8934W        W74095  32.852  30.514   1.617
 8935W        W74096  22.122  16.569  13.844
 8936W        W74097  28.670  17.553  13.939
 8937W        W74098  32.913  11.393   2.641
 8938W        W74099   6.391  20.346   3.127
 8939W        W74100   9.048  10.185   1.892
 8940W        W74101  17.538  13.093   1.875
 8941W        W74102  37.069  31.697   0.534
 8942W        W74103  13.218  44.789  12.487
 8943W        W74104  41.558  17.905   4.000
 8944W        W74105   6.830  19.013   3.223
 8945W        W74106  23.402  26.722   3.810
 8946W        W74107  30.010   0.884   0.404
 8947W        W74108   4.432  41.877  13.337
 8948W        W74109  44.539   9.641   0.894
 8949W        W74110   7.757   1.490  13.483
 8950W        W74111  24.055  35.361   4.709
 8951W        W74112  41.980  33.062   3.423
 8952W        W74113  28.626   6.145  14.260
 8953W        W74114  30.458   4.884   0.601
 8954W        W74115  14.627   5.411   1.853
 8955W        W74116  43.438  20.724   2.185
 8956W        W74117  34.536  27.661   3.104
 8957W        W74118  10.748  35.327   4.091
 8958W        W74119  22.704  23.481   4.477
 8959W        W74120  12.633   4.431   0.684
 8960W        W74121  22.552  34.412  11.039
 8961W        W74122   9.051  43.519   3.242
 8962W        W74123   5.420   9.888   0.831
 8963W        W74124   2.920  31.162  11.212
 8964W        W74125  33.129  22.239  13.875
 8965W        W74126   1.412  29.062   2.560
 8966W        W74127  18.682  37.519  12.693
 8967W        W74128  31.408  38.063  11.607
 8968W        W74129  25.050  19.774  14.075
 8969W        W74130  36.896  43.434  13.022
 8970W        W74131  29.906  10.249  12.711
 8971W        W74132  29.763   8.350  12.618
 8972W        W74133   6.239  23.202   3.228
 8973W        W74134  16.326   1.900   1.175
 8974W        W74135   5.783  28.902   2.186
 8975W        W74136  37.162   7.176   0.093
 8976W        W74137  40.437   7.655   0.783
 8977W        W74138   6.461  26.626  10.561
 8978W        W74139  13.728  14.157  11.464
 8979W        W74140  42.829  14.363   2.298
 8980W        W74141  26.179   4.213  14.298
 8981W        W74142   0.562   5.570   1.905
 8982W        W74143  32.581   9.325   3.942
 8983W        W74144  13.809   7.308   4.298
 8984W        W74145  12.176  41.751  10.701
 8985W        W74146  17.980  18.784   3.155
 8986W        W74147   1.730  39.052   2.404
 8987W        W74148  33.583  31.081   4.619
 8988W        W74149   3.820  32.186   2.752
 8989W        W74150  32.937  36.569   2.622
 8990W        W74151  20.958  40.400   5.649
 8991W        W74152   1.261   9.056   0.453
 8992W        W74153  23.047  17.003  13.835
 8993W        W74154  16.597   9.940  13.462
 8994W        W74155  18.560  12.313  10.511
 8995W        W74156  12.808  41.016  10.801
 8996W        W74157  14.924   5.293  13.013
 8997W        W74158  40.399   4.164   4.274
 8998W        W74159  14.779  30.280  11.393
 8999W        W74160   6.099  37.751  10.692
 9000W        W74161  30.960   5.923  12.054
 9001W        W74162  34.025   5.359  12.476
 9002W        W74163  10.226   2.475  13.925
 9003W        W74164  20.809  27.862  12.663
 9004W        W74165  24.335  30.597  13.588
 9005W        W74166   9.765   8.374   3.586
 9006W        W74167  43.780   2.225   2.643
 9007W        W74168  25.600   6.146  12.677
 9008W        W74169   1.339   5.296   4.551
 9009W        W74170  31.453  42.458  10.673
 9010W        W74171  40.974   3.369   2.304
 9011W        W74172   7.413  31.875  12.618
 9012W        W74173  42.880  17.115  14.978
 9013W        W74174  37.506  33.636   2.769
 9014W        W74175  40.134  28.872  13.062
 9015W        W74176  24.287  15.789   4.024
 9016W        W74177   6.914  30.175   2.501
 9017W        W74178  21.873  40.801   2.802
 9018W        W74179   5.436  37.012   2.226
 9019W        W74180   5.266  33.942   1.705
 9020W        W74181   7.935   2.488   1.549
 9021W        W74182  32.935   7.375   2.948
 9022W        W74183  13.409  10.758  12.835
 9023W        W74184  44.028  43.421   4.590
 9024W        W74185  13.751   2.403  13.861
 9025W        W74186  11.250  39.582   2.234
 9026W        W74187  39.225  28.282  12.544
 9027W        W74188   1.783  43.089  11.162
 9028W        W74189   7.255  27.944   4.175
 9029W        W74190   8.178  12.000   3.216
 9030W        W74191  36.527  31.645  13.558
 9031W        W74192  32.425  39.098  14.807
 9032W        W74193  29.657  21.478   5.116
 9033W        W74194   3.219  37.242  11.457
 9034W        W74195  29.163  15.585  14.286
 9035W        W74196   6.684  16.361  11.000
 9036W        W74197  42.085  18.241  11.642
 9037W        W74198   6.672  37.921  11.536
 9038W        W74199  44.686  20.602   0.170
 9039W        W74200   4.271   1.539  11.196
 9040W        W74201  27.646  37.933   4.360
 9041W        W74202  39.965   3.369  12.921
 9042W        W74203  13.094  38.101  11.542
 9043W        W74204   3.286   2.886   0.804
 9044W        W74205  28.526  22.273   0.937
 9045W        W74206   6.438  41.975   0.369
 9046W        W74207  39.790  17.296   3.354
 9047W        W74208  29.322  31.364  11.483
 9048W        W74209  30.900   0.860  13.378
 9049W        W74210  29.574  18.612  13.787
 9050W        W74211  16.550  25.233  13.653
 9051W        W74212  40.425  43.247  10.512
 9052W        W74213  19.814  21.850  13.954
 9053W        W74214  44.960   9.671   1.923
 9054W        W74215  15.373   5.682  11.550
 9055W        W74216  39.055  10.185  13.802
 9056W        W74217  41.401  18.775   4.168
 9057W        W74218  19.919  29.126  10.621
 9058W        W74219  33.899  21.561  12.848
 9059W        W74220   9.277  11.595  13.257
 9060W        W74221  30.197  16.575  12.424
 9061W        W74222  22.543  10.731   1.931
 9062W        W74223   0.550  20.995  14.457
 9063W        W74224  33.558  42.340  13.109
 9064W        W74225  21.999  23.259   0.880
 9065W        W74226   3.253  44.508  10.566
 9066W        W74227   6.272  42.277  13.520
 9067W        W74228  44.424   5.703   4.073
 9068W        W74229  23.366  33.854  11.150
 9069W        W74230  39.967  17.641   0.238
 9070W        W74231   4.667   9.455  12.966
 9071W        W74232   5.720  28.485   1.861
 9072W        W74233  20.069  16.218   1.218
 9073W        W74234  15.542  42.559   1.877
 9074W        W74235   1.554   8.185   2.162
 9075W        W74236   0.726  23.788   3.735
 9076W        W74237  28.129   0.782  13.122
 9077W        W74238  39.968   7.731  10.463
 9078W        W74239  18.567  24.103  11.490
 9079W        W74240   6.629  35.004  12.998
 9080W        W74241  36.473  32.843   0.415
 9081W        W74242   3.985   5.429   4.642
 9082W        W74243  10.366   0.904   0.733
 9083W        W74244  32.674  30.415  12.504
 9084W        W74245   0.920  42.093   0.902
 9085W        W74246   1.665  33.428   3.224
 9086W        W74247  39.096  41.965   0.537
 9087W        W74248  11.640  28.319  12.663
 9088W        W74249  32.053  21.124   3.259
 9089W        W74250  32.979  16.589   3.694
 9090W        W74251  44.327  40.453   0.522
 9091W        W74252  20.037  33.189   3.733
 9092W        W74253  36.872  32.664  13.321
 9093W        W74254  12.080   0.915  11.582
 9094W        W74255  25.997   5.743   0.992
 9095W        W74256  22.866   0.092  14.334
 9096W        W74257   8.823  18.831   2.017
 9097W        W74258  29.892  33.346   2.258
 9098W        W74259  19.121  14.117   4.769
 9099W        W74260  42.821  18.665  11.783
 9100W        W74261  43.357  13.163  12.970
 9101W        W74262  12.651  21.798  10.645
 9102W        W74263  31.207  41.921   1.949
 9103W        W74264  44.384  14.718   4.464
 9104W        W74265  20.861  32.500  14.988
 9105W        W74266   8.089  32.584   2.678
 9106W        W74267  42.922  26.503  13.335
 9107W        W74268   4.112  26.469  12.204
 9108W        W74269  10.864  12.455   0.581
 9109W        W74270   5.408   2.944   4.315
 9110W        W74271  34.110  35.575   0.401
 9111W        W74272   3.191   7.840   0.729
 9112W        W74273  43.991  11.845  14.520
 9113W        W74274  10.656  11.255   0.027
 9114W        W74275  30.015   7.728   4.245
 9115W        W74276  37.229  37.965  11.917
 9116W        W74277  30.446  37.117   1.309
 9117W        W74278  22.034   0.693  13.880
 9118W        W74279  28.003  24.276  14.594
 9119W        W74280  15.658  21.167  13.792
 9120W        W74281  24.422  19.103   2.315
 9121W        W74282  42.834   5.493  14.807
 9122W        W74283   6.719  14.250   1.406
 9123W        W74284  24.213   4.472  13.463
 9124W        W74285  41.252  35.427   3.715
 9125W        W74286  11.081  23.080   1.028
 9126W        W74287   7.799  13.267  13.843
 9127W        W74288  20.961  35.542  13.706
 9128W        W74289  20.102  38.610  11.714
 9129W        W74290  25.849  10.290  10.947
 9130W        W74291  15.917   9.902  14.572
 9131W        W74292  20.790   4.851  10.509
 9132W        W74293  27.503   3.911   1.307
 9133W        W74294  24.533  33.003  14.917
 9134W        W74295   5.941   6.753   2.824
 9135W        W74296  29.114   4.324  14.829
 9136W        W74297  22.489  13.588   3.248
 9137W        W74298   7.663  24.254   1.873
 9138W        W74299   9.149  23.230   4.345
 9139W        W74300  24.505  29.580   0.881
 9140W        W74301  35.063  43.452  13.479
 9141W        W74302   7.553  27.037   0.028
 9142W        W74303  39.436  32.610  10.824
 9143W        W74304  35.019  42.628  11.539
 9144W        W74305  12.304  31.880  13.940
 9145W        W74306  43.258  34.842  14.387
 9146W        W74307  37.187  44.316   4.051
 9147W        W74308  17.607  44.744  10.914
 9148W        W74309  19.222   1.856  12.580
 9149W        W74310   7.795  16.274  13.873
 9150W        W74311   1.399  24.477   2.541
 9151W        W74312  32.801  24.768   4.189
 9152W        W74313  43.234  40.718  11.592
 9153W        W74314   1.873  39.115  13.495
 9154W        W74315   4.742   6.054   4.238
 9155W        W74316  29.917  39.062   0.373
 9156W        W74317   2.678  43.113   1.346
 9157W        W74318  40.098  39.484   3.670
 9158W        W74319  18.649  26.211   4.361
 9159W        W74320  35.767   0.061   2.717
 9160W        W74321  40.308  29.410   2.678
 9161W        W74322  31.478  25.151   0.803
 9162W        W74323  14.619  40.115  14.949
 9163W        W74324   8.270   1.994  12.954
 9164W        W74325  21.626  35.902  11.033
 9165W        W74326  11.258  20.110  10.407
 9166W        W74327   6.211   1.018   1.367
 9167W        W74328  23.564  32.553   3.207
 9168W        W74329  44.938  30.637  12.047
 9169W        W74330   0.817  34.973  13.076
 9170W        W74331  44.992   1.061   4.198
 9171W        W74332  19.652  43.148   1.248
 9172W        W74333   5.658  19.971   2.744
 9173W        W74334  37.486   1.180   0.994
 9174W        W74335  14.197  19.194  12.111
 9175W        W74336  43.021  29.013   3.555
 9176W        W74337   5.895  38.655   0.056
 9177W        W74338   6.731  44.334  10.765
 9178W        W74339  16.165   1.407  10.710
 9179W        W74340  35.349   9.755   2.851
 9180W        W74341   9.626  31.421   3.129
 9181W        W74342  31.935   2.414  13.993
 9182W        W74343   2.788  42.319   4.632
 9183W        W74344  26.438  27.230  12.391
 9184W        W74345   0.820  36.429   2.605
 9185W        W74346   6.263  27.105  11.812
 9186W        W74347  43.983  42.889  11.642
 9187W        W74348  24.125  20.966  10.370
 9188W        W74349  26.359   2.132   0.254
 9189W        W74350  21.296  41.305   1.213
 9190W        W74351   2.740  28.608   0.323
 9191W        W74352  32.837  36.909   2.237
 9192W        W74353   1.993  18.436   0.390
 9193W        W74354  11.109  23.201  14.108
 9194W        W74355  18.854  36.524  11.657
 9195W        W74356   0.932  11.795   0.535
 9196W        W74357  15.845  39.472   0.848
 9197W        W74358  41.251  17.586   1.765
 9198W        W74359  25.623  32.983   4.028
 9199W        W74360   3.311  44.912  13.289
 9200W        W74361  33.748  35.899   2.670
 9201W        W74362  27.457  16.011  12.940
 9202W        W74363  25.297  40.609  12.178
 9203W        W74364   6.176   9.930   3.616
 9204W        W74365  10.420  23.222  10.997
 9205W        W74366  11.201  19.826  12.181
 9206W        W74367  31.093   4.766  12.581
 9207W        W74368  27.508   2.949   3.273
 9208W        W74369  28.079  34.889  11.989
 9209W        W74370  31.742   4.704  14.891
 9210W        W74371  19.279  36.641  12.559
 9211W        W74372  25.645  41.218   3.777
 9212W        W74373  23.962   8.237   2.571
 9213W        W74374  13.735  41.820   4.581
 9214W        W74375  16.599  18.356   0.065
 9215W        W74376  40.849   0.020   3.284
 9216W        W74377   4.918  28.265  14.882
 9217W        W74378  24.116   0.466  11.303
 9218W        W74379  28.690  16.324  13.236
 9219W        W74380  33.454  26.043  13.093
 9220W        W74381  26.068  25.155   0.714
 9221W        W74382  30.060  34.762  11.050
 9222W        W74383  13.173  43.489  11.663
 9223W        W74384   9.050  25.044  13.120
 9224W        W74385  39.100  40.966   2.793
 9225W        W74386  16.579  28.600   1.470
 9226W        W74387  15.623  15.628  11.919
 9227W        W74388  33.359  40.140  13.161
 9228W        W74389  10.866  31.383   4.654
 9229W        W74390  36.726  31.469   3.237
 9230W        W74391  34.371  25.235  11.977
 9231W        W74392  13.272  26.605   0.223
 9232W        W74393  32.355  43.923   1.772
 9233W        W74394  10.303   9.712  13.398
 9234W        W74395  24.491  14.352  14.995
 9235W        W74396  14.960  20.681   4.572
 9236W        W74397   4.097  23.694   9.734
 9237W        W74398  26.454  39.453  12.916
 9238W        W74399   6.673  26.737   1.210
 9239W        W74400  14.041   8.930  12.934
 9240W        W74401  13.872  35.510  11.515
 9241W        W74402  43.594  17.242   2.221
 9242W        W74403  44.351  14.237  12.869
 9243W        W74404   8.995  15.714  14.356
 9244W        W74405  16.238  13.090   0.253
 9245W        W74406  15.796  20.829  13.138
 9246W        W74407  32.101  34.593  14.138
 9247W        W74408  40.929  29.335   3.223
 9248W        W74409   4.836  43.023  10.374
 9249W        W74410  12.825  12.119   2.226
 9250W        W74411  20.260  34.951   4.017
 9251W        W74412  22.487   1.887   4.246
 9252W        W74413  25.307  35.372   4.599
 9253W        W74414  39.966  26.930  13.915
 9254W        W74415  26.717  31.872  12.315
 9255W        W74416   2.789  35.112  12.563
 9256W        W74417  29.456   0.492  12.559
 9257W        W74418   4.981  35.294   4.630
 9258W        W74419  14.433   6.890  12.994
 9259W        W74420  16.075  34.397  11.924
 9260W        W74421   2.525  32.056  13.901
 9261W        W74422  18.154   1.231  13.138
 9262W        W74423  20.513  29.238  13.912
 9263W        W74424  13.649   4.443  11.969
 9264W        W74425  44.748  21.961   0.071
 9265W        W74426   5.904  11.010   3.654
 9266W        W74427   7.606  13.144   0.247
 9267W        W74428  29.502  44.762  11.995
 9268W        W74429  41.995  38.500  14.090
 9269W        W74430  29.075  10.244   4.374
 9270W        W74431  13.690  44.190   2.243
 9271W        W74432  44.907   5.896  14.738
 9272W        W74433   9.893  44.188   1.762
 9273W        W74434  38.039  39.016  12.096
 9274W        W74435   0.739   5.443  12.061
 9275W        W74436  41.054  12.396   1.104
 9276W        W74437  18.210  21.966  12.091
 9277W        W74438  44.249  44.052  13.295
 9278W        W74439   2.264  10.615   0.342
 9279W        W74440   0.179  40.508  10.171
 9280W        W74441  28.179  35.937   4.580
 9281W        W74442  30.472  18.219  11.887
 9282W        W74443  15.153  41.513  14.414
 9283W        W74444  44.910  44.728  12.214
 9284W        W74445  38.658  38.585   0.146
 9285W        W74446  41.217  41.679   3.066
 9286W        W74447   6.146  44.841  13.844
 9287W        W74448  35.519   7.744  10.741
 9288W        W74449  29.486   1.999  13.002
 9289W        W74450  19.752  26.026   2.129
 9290W        W74451  31.012  10.508   4.900
 9291W        W74452  11.211  22.753   2.170
 9292W        W74453  34.728  21.082  10.312
 9293W        W74454  43.893  40.444   0.241
 9294W        W74455  16.181  38.535  13.986
 9295W        W74456   1.333   5.545   1.663
 9296W        W74457  14.625   4.010  11.108
 9297W        W74458   3.848  30.567  12.478
 9298W        W74459  36.653   5.301  12.561
 9299W        W74460  38.790  24.680   4.508
 9300W        W74461   4.274  10.263   0.908
 9301W        W74462   2.868   6.268  13.490
 9302W        W74463   3.933  15.969   0.341
 9303W        W74464  37.572  11.699  12.808
 9304W        W74465  25.738  10.778  14.053
 9305W        W74466   2.177   4.794   2.336
 9306W        W74467  32.201  20.719  13.790
 9307W        W74468  28.102  19.251  14.732
 9308W        W74469  36.592  22.639   3.620
 9309W        W74470  28.368  16.279   0.003
 9310W        W74471  39.320  28.926   4.199
 9311W        W74472  15.273  20.534  12.146
 9312W        W74473  21.313  31.448  14.684
 9313W        W74474  41.340  15.093  14.502
 9314W        W74475  21.112   7.750   2.515
 9315W        W74476   2.844   5.918  10.524
 9316W        W74477  28.703  19.468   1.905
 9317W        W74478  16.816  15.820   4.012
 9318W        W74479  25.434  27.393  10.231
 9319W        W74480  17.692   3.765   0.320
 9320W        W74481  21.038   2.880   2.685
 9321W        W74482  30.014  35.625   4.678
 9322W        W74483   2.849  10.095  13.020
 9323W        W74484  12.533  40.856   4.956
 9324W        W74485  40.883  28.693  12.402
 9325W        W74486  23.141  17.757   2.931
 9326W        W74487  20.730  25.596  11.219
 9327W        W74488  13.267  11.673  12.834
 9328W        W74489  34.139  27.237  10.789
 9329W        W74490  12.899  35.282  12.406
 9330W        W74491  19.009  25.135  12.110
 9331W        W74492   8.823  32.116  12.546
 9332W        W74493   4.265  29.689  12.370
 9333W        W74494  22.759   2.303   2.945
 9334W        W74495   4.955  39.232   4.200
 9335W        W74496  38.426   4.233  10.696
 9336W        W74497  31.982  44.397  10.594
 9337W        W74498  34.723  14.282   0.442
 9338W        W74499  21.566  30.187  12.102
 9339W        W74500  21.226  32.355  11.061
 9340W        W74501  23.061  18.817   0.687
 9341W        W74502  36.718  11.708  11.614
 9342W        W74503  20.139  40.420  11.187
 9343W        W74504  12.373  40.735  10.696
 9344W        W74505  33.517  15.627  12.127
 9345W        W74506   4.167   3.214   1.467
 9346W        W74507  12.963  21.985   3.727
 9347W        W74508  44.465   5.951   3.639
 9348W        W74509   7.475  18.638  11.113
 9349W        W74510  31.159   8.354   1.322
 9350W        W74511   5.764   6.887  12.409
 9351W        W74512  29.959  29.201   0.738
 9352W        W74513   0.115  16.919   4.610
 9353W        W74514  42.014   4.883  14.921
 9354W        W74515   8.298  27.550  12.859
 9355W        W74516  30.492   2.723  12.080
 9356W        W74517  13.979  12.395  13.482
 9357W        W74518  26.821  27.453  10.638
 9358W        W74519  40.069  33.390   1.340
 9359W        W74520  10.301  13.359   3.405
 9360W        W74521  10.081  44.416   1.293
 9361W        W74522  12.855  20.622   1.876
 9362W        W74523  32.926  31.402  11.191
 9363W        W74524   0.286  34.299  13.994
 9364W        W74525  17.519  38.811   3.291
 9365W        W74526  43.029  23.595  12.844
 9366W        W74527  31.371  10.846   2.294
 9367W        W74528  20.512   5.949  13.951
 9368W        W74529  33.645  18.228   0.932
 9369W        W74530  23.952  19.463  12.715
 9370W        W74531  38.831   4.012   1.901
 9371W        W74532  22.295  10.423   4.072
 9372W        W74533  16.502  35.776  13.070
 9373W        W74534  34.044  34.949  13.011
 9374W        W74535  27.670  15.601   3.722
 9375W        W74536   4.374  17.874   1.903
 9376W        W74537  16.216   9.125  13.429
 9377W        W74538  18.068  24.035   3.918
 9378W        W74539  40.477  38.418   4.859
 9379W        W74540  21.928  15.646   1.665
 9380W        W74541  44.302  25.825  14.395
 9381W        W74542  41.610  36.473   5.418
 9382W        W74543  15.375   6.356   0.857
 9383W        W74544  30.868  44.840  10.502
 9384W        W74545   7.170  19.319   2.956
 9385W        W74546   1.453   9.200   1.327
 9386W        W74547  42.954  32.395   2.726
 9387W        W74548  16.346  23.712   1.867
 9388W        W74549  30.377  29.168   0.408
 9389W        W74550   4.624  39.298   3.376
 9390W        W74551  16.107  18.253  13.307
 9391W        W74552  39.573  21.714  13.547
 9392W        W74553  30.517  42.611  13.666
 9393W        W74554   2.221  43.010   4.983
 9394W        W74555  17.173  40.092  14.004
 9395W        W74556  33.991  19.368   2.322
 9396W        W74557  17.626  31.287   4.095
 9397W        W74558  35.163  20.667  14.519
 9398W        W74559  42.390   8.912  14.303
 9399W        W74560  12.798  39.960   1.821
 9400W        W74561  23.149  31.360   3.219
 9401W        W74562  22.265  26.057   4.088
 9402W        W74563   9.906  17.473  13.993
 9403W        W74564  29.169  30.890  12.858
 9404W        W74565  38.741  35.373   4.493
 9405W        W74566  20.164  11.401   3.968
 9406W        W74567   7.215   6.790   2.275
 9407W        W74568   1.307  11.408   3.215
 9408W        W74569  29.251  34.737   4.050
 9409W        W74570  23.704  41.906  14.538
 9410W        W74571   8.754  38.014   1.863
 9411W        W74572  14.823  34.283  12.129
 9412W        W74573  16.607   8.672   1.230
 9413W        W74574  30.819  25.824  10.353
 9414W        W74575  25.258  38.352   4.365
 9415W        W74576   3.515   5.447  12.533
 9416W        W74577   4.782  13.656  14.799
 9417W        W74578  33.779  39.489   1.176
 9418W        W74579  21.486   4.242   4.873
 9419W        W74580   9.205  41.769  14.916
 9420W        W74581  28.899  32.853   2.875
 9421W        W74582  21.533  23.548  12.815
 9422W        W74583  42.400  11.153   1.309
 9423W        W74584  15.046  39.368   1.407
 9424W        W74585  44.904  26.648  13.499
 9425W        W74586  38.312  41.029  12.482
 9426W        W74587   4.420   2.716  14.291
 9427W        W74588  26.260  28.971  10.375
 9428W        W74589   9.068  24.899  10.232
 9429W        W74590   6.453  16.816  14.090
 9430W        W74591  16.526  13.568   4.563
 9431W        W74592  36.368  24.453   4.177
 9432W        W74593   6.895  31.190  13.042
 9433W        W74594   3.273   0.029  11.986
 9434W        W74595   1.921  43.502  14.442
 9435W        W74596  12.779  25.494   0.256
 9436W        W74597  30.416   3.245   3.185
 9437W        W74598  33.047  11.435   2.151
 9438W        W74599  31.230  11.259  11.537
 9439W        W74600  36.153  31.872   0.575
 9440W        W74601  34.839  22.604  13.010
 9441W        W74602  42.984  22.802  13.432
 9442W        W74603  17.402  21.984  12.407
 9443W        W74604  43.696  16.313   3.959
 9444W        W74605  12.607   2.326   1.981
 9445W        W74606  38.811  43.870   2.440
 9446W        W74607  22.046  11.649   1.926
 9447W        W74608  27.694  44.070  12.547
 9448W        W74609  31.222  42.908  11.530
 9449W        W74610  21.792   4.005   3.604
 9450W        W74611  11.619  27.116  14.328
 9451W        W74612  28.744  11.046   2.720
 9452W        W74613   5.931   8.234  13.696
 9453W        W74614  14.244  44.713   1.849
 9454W        W74615   7.299  37.804  11.985
 9455W        W74616  38.815  19.856   3.135
 9456W        W74617  17.174  29.196  10.854
 9457W        W74618  11.592  25.612   1.040
 9458W        W74619  37.741  40.672   5.427
 9459W        W74620  12.279  10.234  12.901
 9460W        W74621  10.460  40.374  11.069
 9461W        W74622   2.943  33.494  10.594
 9462W        W74623  41.146  26.018   2.904
 9463W        W74624  43.657  22.573  14.008
 9464W        W74625   4.240  26.573  14.470
 9465W        W74626  33.189  13.677   1.860
 9466W        W74627   2.183   4.341  12.602
 9467W        W74628  23.127  19.106  14.013
 9468W        W74629   0.402  10.396   9.795
 9469W        W74630  22.639  21.547  11.135
 9470W        W74631   4.893  38.590  10.596
 9471W        W74632   6.934  40.512  14.022
 9472W        W74633  21.686   6.762   2.902
 9473W        W74634  38.786  38.165  12.633
 9474W        W74635  24.492   6.657   0.712
 9475W        W74636  38.529   2.659   2.689
 9476W        W74637  44.923  40.349  13.316
 9477W        W74638   7.258  27.706  12.275
 9478W        W74639  21.841  14.795   0.843
 9479W        W74640  10.136  33.797   2.259
 9480W        W74641  15.341  23.285   2.173
 9481W        W74642  31.638   4.306   4.039
 9482W        W74643   9.042  18.121   5.025
 9483W        W74644  30.604   3.852  14.784
 9484W        W74645   8.350  42.758  14.865
 9485W        W74646  23.966   7.909  11.297
 9486W        W74647  44.728  34.066  14.811
 9487W        W74648  29.704  35.421  11.603
 9488W        W74649  37.682  34.896   4.284
 9489W        W74650  20.263   0.496   1.179
 9490W        W74651  38.824  21.570  10.756
 9491W        W74652  16.113  42.904   1.222
 9492W        W74653  40.505   0.260  14.523
 9493W        W74654  13.710  16.335  14.269
 9494W        W74655  11.406  12.936  12.042
 9495W        W74656  40.475  30.887  14.376
 9496W        W74657  31.849  10.763  14.373
 9497W        W74658  21.313   0.543  10.281
 9498W        W74659  44.727  31.875  13.498
 9499W        W74660   9.207  14.693   0.889
 9500W        W74661  25.677  38.438  14.381
 9501W        W74662  24.756  32.058   1.142
 9502W        W74663  33.086   5.391  12.468
 9503W        W74664   4.980   9.885   3.352
 9504W        W74665   8.856  25.605  14.911
 9505W        W74666  13.245  32.189   5.009
 9506W        W74667  24.244   6.050  12.546
 9507W        W74668  10.404  35.360   4.502
 9508W        W74669  42.039  42.402   0.545
 9509W        W74670  15.397  16.292   5.022
 9510W        W74671  44.924  29.601   1.337
 9511W        W74672  17.395  27.889   4.828
 9512W        W74673  18.060  13.504   2.683
 9513W        W74674  24.571   5.692  14.540
 9514W        W74675  19.836  26.235   1.232
 9515W        W74676  13.799  39.359  12.927
 9516W        W74677  38.887  35.869  10.289
 9517W        W74678  18.166  32.451  13.120
 9518W        W74679  24.647   0.773  12.864
 9519W        W74680  36.765  17.345   0.223
 9520W        W74681  24.141  13.905   4.071
 9521W        W74682  34.299  12.789   0.442
 9522W        W74683  12.391  12.145  12.479
 9523W        W74684  19.743  27.883   4.754
 9524W        W74685  28.443  41.405   1.706
 9525W        W74686  25.649   7.488  10.290
 9526W        W74687  18.182   7.945   0.031
 9527W        W74688  14.905   6.438  14.945
 9528W        W74689  20.637  20.663  14.034
 9529W        W74690  28.071  25.248  12.941
 9530W        W74691  43.755   9.469   3.243
 9531W        W74692  33.679  41.684   0.887
 9532W        W74693  32.014  38.778  11.401
 9533W        W74694  37.062   3.401   3.345
 9534W        W74695  35.970  21.760  11.538
 9535W        W74696  26.152  12.313  10.550
 9536W        W74697  19.549  10.126   1.639
 9537W        W74698  13.285  35.805  11.439
 9538W        W74699  34.083  21.504   3.696
 9539W        W74700  40.740  19.131  14.419
 9540W        W74701  28.523  43.536  10.449
 9541W        W74702  10.680  40.563  14.858
 9542W        W74703  12.513  38.333   3.146
 9543W        W74704  40.835  21.826   0.305
 9544W        W74705  35.174  31.950  12.050
 9545W        W74706  23.605  32.849   0.943
 9546W        W74707  33.132   7.713  13.884
 9547W        W74708  11.342  21.376   2.047
 9548W        W74709  44.961  11.780   5.107
 9549W        W74710   9.623  38.384  12.168
 9550W        W74711  40.515  43.226   4.633
 9551W        W74712  35.890  39.082   4.136
 9552W        W74713   3.044  31.648   4.183
 9553W        W74714  25.971  22.227   3.574
 9554W        W74715  21.802  18.218  14.070
 9555W        W74716  41.407  17.580  13.399
 9556W        W74717  32.351   0.470  12.948
 9557W        W74718  34.890  10.330  14.443
 9558W        W74719   1.684  16.003   1.868
 9559W        W74720  40.199  17.311   0.547
 9560W        W74721  30.438  19.966  13.418
 9561W        W74722  33.827  16.230  10.522
 9562W        W74723   8.671  31.091   2.888
 9563W        W74724   6.647  19.193  11.080
 9564W        W74725  30.065  16.756   0.396
 9565W        W74726  29.202  36.973   0.128
 9566W        W74727  28.468  26.770  10.605
 9567W        W74728  25.630  17.641   3.944
 9568W        W74729   4.631  15.846   1.273
 9569W        W74730   2.025  39.041  10.740
 9570W        W74731  33.282  18.547  12.443
 9571W        W74732   6.833  35.499   1.807
 9572W        W74733   0.402  30.463  10.742
 9573W        W74734  13.805  28.930  11.557
 9574W        W74735  31.235   0.956  14.943
 9575W        W74736   2.364  36.319  11.734
 9576W        W74737  12.388  40.539  12.018
 9577W        W74738  11.836   9.927  10.849
 9578W        W74739  18.161   6.185  13.384
 9579W        W74740   3.732  19.010   0.019
 9580W        W74741  19.079  42.709   3.129
 9581W        W74742  19.220  10.853   4.111
 9582W        W74743  37.056  16.843  13.568
 9583W        W74744  26.621  16.757  14.816
 9584W        W74745  40.330  38.027  12.463
 9585W        W74746  37.073   0.949   0.775
 9586W        W74747  14.883  35.582   0.518
 9587W        W74748  27.121  21.971   3.089
 9588W        W74749  17.010  31.397   2.252
 9589W        W74750   9.224  23.452   2.321
 9590W        W74751  41.729  24.290  14.823
 9591W        W74752  27.245  35.296  12.464
 9592W        W74753   1.484   7.319   3.195
 9593W        W74754  10.355  36.831   3.188
 9594W        W74755   8.134  40.496  12.221
 9595W        W74756  39.592   7.087   0.277
 9596W        W74757  30.494  26.077  10.016
 9597W        W74758  12.088   3.242  12.588
 9598W        W74759  29.199   9.919   3.221
 9599W        W74760   5.744  14.541   1.177
 9600W        W74761  38.518  11.809   2.388
 9601W        W74762   2.243  43.635  11.555
 9602W        W74763  18.367  43.484   2.672
 9603W        W74764  36.120  27.223  11.777
 9604W        W74765  36.873  30.011  13.871
 9605W        W74766   9.450  42.496  11.546
 9606W        W74767   2.433  33.126   4.957
 9607W        W74768  28.644  27.214   3.665
 9608W        W74769  11.151  23.694   4.835
 9609W        W74770   5.748   3.948   2.058
 9610W        W74771  39.867  31.016   0.261
 9611W        W74772   1.701  29.995  13.986
 9612W        W74773  30.369  21.750  11.108
 9613W        W74774   9.852  41.879  12.495
 9614W        W74775  10.308  26.792  12.713
 9615W        W74776  40.736  30.041  14.561
 9616W        W74777  38.289  41.020  10.345
 9617W        W74778  17.599  13.784  13.221
 9618W        W74779  12.824   9.311   3.277
 9619W        W74780  33.391  28.729   2.407
 9620W        W74781  36.830   2.572  11.468
 9621W        W74782  24.374  39.089  13.488
 9622W        W74783   5.245  25.932  11.128
 9623W        W74784  33.205  21.648   0.740
 9624W        W74785  32.413   2.756  14.470
 9625W        W74786  28.520  13.206  13.051
 9626W        W74787  34.218  26.198  14.417
 9627W        W74788  16.701  12.821  12.559
 9628W        W74789  17.081  29.599  13.449
 9629W        W74790  24.504  27.593   3.644
 9630W        W74791  38.973  19.025  10.609
 9631W        W74792   6.407  30.531  13.812
 9632W        W74793  15.523  12.376   3.618
 9633W        W74794   7.883  13.623  10.687
 9634W        W74795  32.031  28.667   3.724
 9635W        W74796  42.962  21.243   5.037
 9636W        W74797   6.995  35.525   2.296
 9637W        W74798  29.597  37.892   0.739
 9638W        W74799  38.579   5.490  13.534
 9639W        W74800  32.267   9.708   4.958
 9640W        W74801  18.561  16.167  12.088
 9641W        W74802  37.052   5.322   4.681
 9642W        W74803  34.520  18.475  10.529
 9643W        W74804  10.712  43.764  12.458
 9644W        W74805  28.740  10.260   1.035
 9645W        W74806   8.724   1.096  14.189
 9646W        W74807   8.350   8.389  14.497
 9647W        W74808  25.225  35.585  14.469
 9648W        W74809   3.703  39.896   1.441
 9649W        W74810  34.210   6.088   0.523
 9650W        W74811  35.000  26.866   1.714
 9651W        W74812  14.825  33.849   1.454
 9652W        W74813  29.056  28.663   4.589
 9653W        W74814   6.530  28.149  13.310
 9654W        W74815   0.760  23.953   1.916
 9655W        W74816  40.014  24.730  12.542
 9656W        W74817  25.695  10.232   9.986
 9657W        W74818   9.270   6.004  14.929
 9658W        W74819  43.383  37.796  12.849
 9659W        W74820  13.132  23.597  12.468
 9660W        W74821   1.906   4.693   2.796
 9661W        W74822  33.936  41.037  13.734
 9662W        W74823  23.473  36.525  13.374
 9663W        W74824  35.596   8.373   3.733
 9664W        W74825  21.935  11.111   0.386
 9665W        W74826  18.055  16.460   2.659
 9666W        W74827  31.085  29.896  12.525
 9667W        W74828  39.949  11.072  13.432
 9668W        W74829  39.782  10.583   3.301
 9669W        W74830  40.908  29.848  11.504
 9670W        W74831  34.420   2.914   1.613
 9671W        W74832   8.263   6.474  13.264
 9672W        W74833  24.144   4.830   0.243
 9673W        W74834  22.387  27.595  13.427
 9674W        W74835  31.651  40.157   3.359
 9675W        W74836  42.020  38.483   0.077
 9676W        W74837  32.795  13.353  14.789
 9677W        W74838  43.198  18.818  11.465
 9678W        W74839  10.336  37.718   1.901
 9679W        W74840  20.600  21.362  10.313
 9680W        W74841  40.369  11.931   0.483
 9681W        W74842   1.700  12.120  14.165
 9682W        W74843  25.074   6.739  14.893
 9683W        W74844  13.733   9.349  12.517
 9684W        W74845  20.323  29.228  10.908
 9685W        W74846   9.649  18.643  10.804
 9686W        W74847  40.244   4.290  11.078
 9687W        W74848   5.255  10.752  14.784
 9688W        W74849   8.671  12.745   3.213
 9689W        W74850  11.465  33.434  14.011
 9690W        W74851  17.089  14.831  11.812
 9691W        W74852  20.500   5.746   2.232
 9692W        W74853  18.647  41.156  12.100
 9693W        W74854   5.798   2.191  12.357
 9694W        W74855  13.904  23.777   0.277
 9695W        W74856  21.186   6.545   2.747
 9696W        W74857  24.990  28.654   2.568
 9697W        W74858  23.781  30.531   1.850
 9698W        W74859   5.894  36.656   2.256
 9699W        W74860  39.526   7.605   0.762
 9700W        W74861   9.860  41.365   3.175
 9701W        W74862  30.140   4.671  12.471
 9702W        W74863  16.566  38.888  10.786
 9703W        W74864  17.299  26.621  10.639
 9704W        W74865  18.059  43.398   4.038
 9705W        W74866  27.110  35.657   3.111
 9706W        W74867  26.645  21.771  10.313
 9707W        W74868  18.054  16.268  11.988
 9708W        W74869  25.994  29.782  12.390
 9709W        W74870  22.681  26.752  13.153
 9710W        W74871  41.245  24.650   4.578
 9711W        W74872   3.956  44.070  12.555
 9712W        W74873   0.824  40.766  13.535
 9713W        W74874  41.884  42.875   4.143
 9714W        W74875  31.437  24.158   2.362
 9715W        W74876   0.962  29.596   4.745
 9716W        W74877   6.521  44.808  10.694
 9717W        W74878  29.589   0.963  12.823
 9718W        W74879   8.705   6.950   0.727
 9719W        W74880   1.929  41.088   4.461
 9720W        W74881  43.508  20.484   3.452
 9721W        W74882   1.281   8.358  11.138
 9722W        W74883  23.115  41.861  10.600
 9723W        W74884  20.124  22.948  14.545
 9724W        W74885  25.918  24.411   0.351
 9725W        W74886  10.149  24.346  11.515
 9726W        W74887  17.044   8.937   3.753
 9727W        W74888  38.502  30.039  12.768
 9728W        W74889  34.484  44.016  12.337
 9729W        W74890  39.444  37.999   4.034
 9730W        W74891  19.126   4.466   4.692
 9731W        W74892  10.765  20.663  12.961
 9732W        W74893  20.429  43.262  14.336
 9733W        W74894  31.613  17.256  11.144
 9734W        W74895  30.408  17.090   1.180
 9735W        W74896  40.385  32.581   4.649
 9736W        W74897  19.939  12.835  11.966
 9737W        W74898  29.004  19.566  11.430
 9738W        W74899  14.247  18.561  13.508
 9739W        W74900  38.973  14.795  10.277
 9740W        W74901  15.092  40.266   1.732
 9741W        W74902  11.535  38.988   0.415
 9742W        W74903  34.773  32.627  12.507
 9743W        W74904  36.485  34.689  14.485
 9744W        W74905  24.951   1.019  12.096
 9745W        W74906  28.860  12.062   3.698
 9746W        W74907  27.187  28.972   3.311
 9747W        W74908  10.797  32.332   0.292
 9748W        W74909   5.977  16.438   3.677
 9749W        W74910  40.589  37.570  14.393
 9750W        W74911  39.105  12.764   1.644
 9751W        W74912  21.818   8.312  13.947
 9752W        W74913   8.992  22.827   4.619
 9753W        W74914  42.983  11.152  10.667
 9754W        W74915   3.463  41.660   3.131
 9755W        W74916   1.350  15.084   0.285
 9756W        W74917   2.107  24.446   1.075
 9757W        W74918  12.382  31.390  11.198
 9758W        W74919  17.579  31.667   0.406
 9759W        W74920  15.586   5.597   0.537
 9760W        W74921   2.427  33.119   0.718
 9761W        W74922  30.847  44.756  11.916
 9762W        W74923  17.327  24.596   3.329
 9763W        W74924  14.235  27.007   2.267
 9764W        W74925  35.168  20.682   4.564
 9765W        W74926  44.912   6.683   3.783
 9766W        W74927  30.145   7.201  13.354
 9767W        W74928  26.077  23.135  12.174
 9768W        W74929  39.042  10.240  12.496
 9769W        W74930  27.222  30.215   4.920
 9770W        W74931  29.269  28.695  13.932
 9771W        W74932   9.282   4.469   2.752
 9772W        W74933  38.491   5.879  13.892
 9773W        W74934  12.226  26.142   1.412
 9774W        W74935  24.293  16.720   4.329
 9775W        W74936  30.889  10.256   9.997
 9776W        W74937   7.163   4.460   1.804
 9777W        W74938  32.942  42.946  13.397
 9778W        W74939  26.295  44.416  13.539
 9779W        W74940   2.857  31.430   4.699
 9780W        W74941  13.764   9.460   0.825
 9781W        W74942  18.037  43.052   2.501
 9782W        W74943  31.549  12.678  14.555
 9783W        W74944  10.701   2.710  13.823
 9784W        W74945  31.983  13.978  10.736
 9785W        W74946  20.337  20.002  11.008
 9786W        W74947  36.395   7.782  12.463
 9787W        W74948  44.363  11.251  12.089
 9788W        W74949  30.543  28.197   0.430
 9789W        W74950  35.131  18.550   4.276
 9790W        W74951  17.304  24.627   1.492
 9791W        W74952  42.337  41.290  12.873
 9792W        W74953  22.216   8.839  14.045
 9793W        W74954   0.794  21.514   0.281
 9794W        W74955  26.097  14.264   5.013
 9795W        W74956  43.413  21.286  12.530
 9796W        W74957  18.056   0.916  12.729
 9797W        W74958  13.665  18.590   3.321
 9798W        W74959  41.373  26.039  10.818
 9799W        W74960  28.195  33.357   1.933
 9800W        W74961  18.994   3.061  14.747
 9801W        W74962  21.129  38.198   0.265
 9802W        W74963  30.185  17.265   3.955
 9803W        W74964   1.194   8.387   3.642
 9804W        W74965  43.919  31.787   0.210
 9805W        W74966  25.554  34.927   4.526
 9806W        W74967  36.582  30.654  13.512
 9807W        W74968  27.552   1.258   2.342
 9808W        W74969  29.115  29.762   0.489
 9809W        W74970  33.570  26.142  11.605
 9810W        W74971  41.834  35.997   3.306
 9811W        W74972   1.590   5.268  12.489
 9812W        W74973  34.794  15.313   0.340
 9813W        W74974   0.221  31.848  10.437
 9814W        W74975  34.943  19.315  13.010
 9815W        W74976  30.493  23.180   2.264
 9816W        W74977  33.480  31.636   2.676
 9817W        W74978  33.099   3.011   3.477
 9818W        W74979   0.995  28.669   1.659
 9819W        W74980  33.188  39.941   1.435
 9820W        W74981  29.623  15.782   2.341
 9821W        W74982  39.293  11.210   2.828
 9822W        W74983  30.192   2.851  10.596
 9823W        W74984  37.585  25.930  14.434
 9824W        W74985  22.455  27.650  13.987
 9825W        W74986   3.269  38.644  12.615
 9826W        W74987  41.774  35.137  14.519
 9827W        W74988  27.967  16.115   1.828
 9828W        W74989  12.802  28.175   4.074
 9829W        W74990  40.820  27.854   0.970
 9830W        W74991  35.176  23.499  11.155
 9831W        W74992  21.176  17.423  12.571
 9832W        W74993  37.849  21.982  12.052
 9833W        W74994  33.084   4.985   1.394
 9834W        W74995  43.020  11.075   3.489
 9835W        W74996  24.966  27.030   2.009
 9836W        W74997  20.197   2.361   2.925
 9837W        W74998  38.268  41.774  12.019
 9838W        W74999  12.834  33.444  14.395
 9839W        W75000  26.189  39.452   2.252
 9840W        W75001  32.405  34.036   3.665
 9841W        W75002  33.993  13.206   2.753
 9842W        W75003  31.924   3.330  14.452
 9843W        W75004  29.212  42.471   1.378
 9844W        W75005  16.644  28.908   4.588
 9845W        W75006  43.721  40.307   1.807
 9846W        W75007   6.730  30.888   5.529
 9847W        W75008   5.856  37.409  11.300
 9848W        W75009   8.234  34.157  12.477
 9849W        W75010  29.241   1.035  13.851
 9850W        W75011   4.307  13.428   1.187
 9851W        W75012  17.669  15.156   0.029
 9852W        W75013  18.083  44.245   0.327
 9853W        W75014  25.608  40.063   4.797
 9854W        W75015  35.572  33.392   2.007
 9855W        W75016   7.283  15.454  11.485
 9856W        W75017  15.390  41.337   2.701
 9857W        W75018  17.726  16.932   1.962
 9858W        W75019  41.739   8.748   4.144
 9859W        W75020  39.945  12.431   1.803
 9860W        W75021  32.146  39.272  11.297
 9861W        W75022  39.945  33.833   4.447
 9862W        W75023   8.899   8.857   2.716
 9863W        W75024  21.728  15.421  12.556
 9864W        W75025  22.125   8.991  10.500
 9865W        W75026   8.117  27.565   0.264
 9866W        W75027  42.306  25.880   4.338
 9867W        W75028  27.700  33.046   2.806
 9868W        W75029   5.540  10.411   0.852
 9869W        W75030   1.874  32.092   3.296
 9870W        W75031  22.114  42.169  11.197
 9871W        W75032  11.599  22.027   3.307
 9872W        W75033   5.793  18.258   2.066
 9873W        W75034  17.144  36.092  12.753
 9874W        W75035  39.585  27.491   1.837
 9875W        W75036   6.761  34.381  14.983
 9876W        W75037   3.976  15.793  11.474
 9877W        W75038  17.624  28.867  11.872
 9878W        W75039   1.761  40.607  11.691
 9879W        W75040  29.298   5.345   2.700
 9880W        W75041   7.973  33.199   2.304
 9881W        W75042  44.696   7.022   1.447
 9882W        W75043  31.168  34.933   3.785
 9883W        W75044  44.592  44.831   3.754
 9884W        W75045  11.694  35.163   4.988
 9885W        W75046  18.327  15.058  12.954
 9886W        W75047  34.337  35.888  13.419
 9887W        W75048  19.775  24.543  11.177
 9888W        W75049  43.245  22.103  10.820
 9889W        W75050  42.406  39.508   2.780
 9890W        W75051  24.784   1.188   0.312
 9891W        W75052  13.294  17.757   2.745
 9892W        W75053  32.534  20.619   4.056
 9893W        W75054   2.001  16.980   1.722
 9894W        W75055  31.632  23.915   2.794
 9895W        W75056  12.136   8.131  14.502
 9896W        W75057  34.084  22.099  10.613
 9897W        W75058  39.646  32.895  11.233
 9898W        W75059  33.565  39.515   4.049
 9899W        W75060  12.858  25.983  12.053
 9900W        W75061  16.483  27.049   0.930
 9901W        W75062  34.217  19.314   4.088
 9902W        W75063   0.684  12.762  11.983
 9903W        W75064  17.975   5.770  13.652
 9904W        W75065  23.164  17.640   0.343
 9905W        W75066   3.835   5.335   0.292
 9906W        W75067  24.016   3.288  14.551
 9907W        W75068   3.375  23.131  11.432
 9908W        W75069  38.554  31.347  13.307
 9909W        W75070   4.157  37.772  13.178
 9910W        W75071  20.033  22.085  12.015
 9911W        W75072  22.206   8.633   1.932
 9912W        W75073  33.836  35.349   0.813
 9913W        W75074  44.253  40.020   2.405
 9914W        W75075  27.127   6.437  13.098
 9915W        W75076  11.175   8.816  11.101
 9916W        W75077  43.715  40.895  11.674
 9917W        W75078   8.222  17.789   2.203
 9918W        W75079   8.905   2.334   4.690
 9919W        W75080   6.848   2.902  10.631
 9920W        W75081   0.867  39.886  11.105
 9921W        W75082  30.947  18.766  10.704
 9922W        W75083  30.948  22.431   3.927
 9923W        W75084  17.766   6.415  13.121
 9924W        W75085  36.344  17.295  13.316
 9925W        W75086   3.919  20.654  14.812
 9926W        W75087  20.187  23.750   4.505
 9927W        W75088  21.614  20.524  12.452
 9928W        W75089  30.717   2.877  10.607
 9929W        W75090   4.610  17.461  13.945
 9930W        W75091  31.624  32.208  13.530
 9931W        W75092   6.686  32.873  12.049
 9932W        W75093  10.748  14.626  10.967
 9933W        W75094  15.739  31.577   3.739
 9934W        W75095  41.309  35.965   4.720
 9935W        W75096   9.761  39.886  14.988
 9936W        W75097  41.905  13.349   2.873
 9937W        W75098  41.728  36.880   0.284
 9938W        W75099  15.749  20.176   5.000
 9939W        W75100  26.029  32.815  12.394
 9940W        W75101  22.043  27.508  12.020
 9941W        W75102  10.228  33.049  11.515
 9942W        W75103  34.871   3.582  14.427
 9943W        W75104   6.712  33.040  12.791
 9944W        W75105  35.832  35.365   0.970
 9945W        W75106  41.136  36.368  13.053
 9946W        W75107  42.031  37.496  14.506
 9947W        W75108   6.402  38.344  12.007
 9948W        W75109  41.299   9.411  10.694
 9949W        W75110  23.679  15.410  12.373
 9950W        W75111  35.599  26.400  11.203
 9951W        W75112   5.233  13.366   2.320
 9952W        W75113  33.324  15.313  10.985
 9953W        W75114  34.917  15.014  14.802
 9954W        W75115  29.190  42.825   1.745
 9955W        W75116  13.676  28.464   2.641
 9956W        W75117  18.994   3.249   1.795
 9957W        W75118  38.818  25.742  11.906
 9958W        W75119   2.550  32.484   1.338
 9959W        W75120   8.428  16.317   4.562
 9960W        W75121  20.423  22.212   0.116
 9961W        W75122  40.806  41.899   3.826
 9962W        W75123   8.436  24.093   1.135
 9963W        W75124  25.046   3.319  14.506
 9964W        W75125  41.075  24.597   0.357
 9965W        W75126  29.539  18.555   1.689
 9966W        W75127  21.055  43.218   4.674
 9967W        W75128   4.802  34.925  11.601
 9968W        W75129  16.817  33.478   0.101
 9969W        W75130  33.580  19.091  11.574
 9970W        W75131   7.538  22.182   1.783
 9971W        W75132   2.337  27.674   2.173
 9972W        W75133   9.548   5.408   0.262
 9973W        W75134  25.688  38.352   3.546
 9974W        W75135   4.340  40.845   0.761
 9975W        W75136  23.352  32.596   1.990
 9976W        W75137  10.281  12.265  13.315
 9977W        W75138  32.095  17.152  12.391
 9978W        W75139  41.864  26.230  13.928
 9979W        W75140   4.746  23.945   0.288
 9980W        W75141   0.540  27.942   1.327
 9981W        W75142  18.287  35.408  14.479
 9982W        W75143   0.010  39.435  11.988
 9983W        W75144  13.740   2.016   0.947
 9984W        W75145  18.095  34.568   4.235
 9985W        W75146  29.146  22.429   3.578
 9986W        W75147  40.911   2.478  11.571
 9987W        W75148   5.973   4.698  12.512
 9988W        W75149   0.028   2.230  13.011
 9989W        W75150  42.913   1.215   4.787
 9990W        W75151  22.139  22.526   0.247
 9991W        W75152  35.168  20.270   2.288
 9992W        W75153  15.044  33.824  11.941
 9993W        W75154  19.068  30.124   3.224
 9994W        W75155  21.082   8.449  13.537
 9995W        W75156  13.707  13.402  12.404
 9996W        W75157  33.158  35.112   2.485
 9997W        W75158   9.428  44.531   4.084
 9998W        W75159  11.917  25.717   3.275
 9999W        W75160  21.585  25.895  14.301
10000W        W75161   8.234  18.767  14.869
10001W        W75162  34.557  29.782   4.131
10002W        W75163  32.036  26.981  14.052
10003W        W75164  42.343  29.400  10.628
10004W        W75165  19.999  15.141   0.799
10005W        W75166  23.674  30.525  13.231
10006W        W75167  26.545  19.187  11.563
10007W        W75168  35.838  43.884  12.116
10008W        W75169  35.983  22.182  13.362
10009W        W75170  29.583  31.180   4.986
10010W        W75171  37.132  22.095  14.817
10011W        W75172  12.323   3.266  13.469
10012W        W75173  15.538  44.098  10.285
10013W        W75174   5.786  15.835  11.228
10014W        W75175  40.868  38.438   0.208
10015W        W75176   9.034  16.858   2.681
10016W        W75177  34.611   0.287  11.751
10017W        W75178  34.249  41.800  13.524
10018W        W75179  21.657  15.043   1.263
10019W        W75180  11.065  23.142  10.705
10020W        W75181   6.701   4.724   1.376
10021W        W75182  41.885  24.138   4.150
10022W        W75183  38.924  44.993   1.781
10023W        W75184  14.224   5.525   1.048
10024W        W75185  11.291  29.394  10.422
10025W        W75186  16.830  27.993  14.473
10026W        W75187  11.901  12.613   3.578
10027W        W75188   2.951  42.661   2.285
10028W        W75189  17.180  20.213   0.767
10029W        W75190   0.863  25.530  14.384
10030W        W75191  22.181  11.921  13.779
10031W        W75192  19.146  35.543  10.679
10032W        W75193  33.265   3.091   4.313
10033W        W75194  20.198  33.905   4.188
10034W        W75195  13.387   0.004  12.958
10035W        W75196  43.628  35.374  10.760
10036W        W75197  30.043  33.054  11.378
10037W        W75198  28.465  31.523  11.076
10038W        W75199  42.205   4.384  14.299
10039W        W75200  21.963  41.319  10.051
10040W        W75201  15.335  13.767  11.654
10041W        W75202  27.922   0.551   5.411
10042W        W75203  23.824  19.079  11.892
10043W        W75204  32.589  25.528  12.523
10044W        W75205  44.734  15.129   2.811
10045W        W75206  33.437   5.370   4.588
10046W        W75207  37.807  28.583  11.601
10047W        W75208  32.854  40.484  11.866
10048W        W75209  16.129  29.009  14.479
10049W        W75210  29.321  42.906   2.662
10050W        W75211   8.416   7.330   0.434
10051W        W75212   0.942  40.906  12.026
10052W        W75213   9.300  43.632  11.877
10053W        W75214  31.971   1.704   0.954
10054W        W75215  40.050  36.866   0.814
10055W        W75216  25.799  13.199   0.856
10056W        W75217  39.284  34.449   1.931
10057W        W75218  43.757  17.199   4.712
10058W        W75219  32.516   2.442   4.489
10059W        W75220  14.859   9.705  14.422
10060W        W75221  44.899  32.602   2.765
10061W        W75222   5.277  41.994  14.870
10062W        W75223  42.497   8.111  10.822
10063W        W75224  31.608  37.943   0.713
10064W        W75225  18.808   8.140   1.739
10065W        W75226  40.470  38.927   0.854
10066W        W75227  25.641  25.677  12.062
10067W        W75228   7.691  42.752  13.518
10068W        W75229  43.384  34.495  12.519
10069W        W75230  26.883  18.099  12.874
10070W        W75231  22.047  42.003   4.419
10071W        W75232   2.224  23.814   4.512
10072W        W75233  20.347  10.076   0.962
10073W        W75234  41.859  38.941  12.831
10074W        W75235   8.424   7.827  13.250
10075W        W75236  11.416  40.444   1.328
10076W        W75237  21.472   1.956  14.085
10077W        W75238  24.877  20.307  13.466
10078W        W75239   6.346   7.757   1.014
10079W        W75240  14.858   9.238   4.766
10080W        W75241   3.306  33.466  14.951
10081W        W75242  30.109  18.000   4.709
10082W        W75243  24.215  27.214  10.531
10083W        W75244  39.145  21.212   0.775
10084W        W75245   6.662  29.179   4.188
10085W        W75246  23.541  33.926   1.995
10086W        W75247  10.808  18.172   4.130
10087W        W75248  34.418   0.821  14.735
10088W        W75249  13.174  13.732   3.626
10089W        W75250   0.260  33.776  13.998
10090W        W75251  16.655  30.674   3.022
10091W        W75252  36.404  25.762  12.428
10092W        W75253  29.964  17.893  11.572
10093W        W75254  19.132  43.876   1.439
10094W        W75255  14.340  35.772   0.771
10095W        W75256   2.456  20.814  13.809
10096W        W75257  44.006   5.825   1.371
10097W        W75258  13.274   3.929  10.728
10098W        W75259  36.091   7.512   3.687
10099W        W75260  15.061  42.083   0.280
10100W        W75261  24.038  36.516  11.616
10101W        W75262   9.762  32.918   0.281
10102W        W75263  21.824  13.738  14.896
10103W        W75264  32.365   9.185   1.223
10104W        W75265  36.970  29.683   1.917
10105W        W75266   4.767   6.316   2.546
10106W        W75267  28.075   4.449   1.864
10107W        W75268  31.913  34.022   3.794
10108W        W75269   2.425  16.700  13.775
10109W        W75270  40.295  37.414   1.954
10110W        W75271   5.158   5.844  13.445
10111W        W75272  39.782  42.574  11.504
10112W        W75273  30.941  13.949   4.533
10113W        W75274  30.382  19.467   3.399
10114W        W75275  21.604  12.681  11.436
10115W        W75276  35.799   5.332   4.145
10116W        W75277  32.553   1.708   4.060
10117W        W75278  12.649  39.521   0.879
10118W        W75279  38.307  43.427  10.725
10119W        W75280   0.377  11.861   5.427
10120W        W75281  19.050  38.375   4.168
10121W        W75282   6.169  22.460   3.978
10122W        W75283   9.556  14.298   3.269
10123W        W75284  35.884  29.968   3.767
10124W        W75285  27.961  40.892  11.452
10125W        W75286   1.838  39.350  12.828
10126W        W75287   5.369  29.525  11.563
10127W        W75288   8.376  12.277   2.722
10128W        W75289  41.351  43.375   0.838
10129W        W75290  12.576  31.791  12.945
10130W        W75291  28.634  41.038   0.303
10131W        W75292   8.134   9.747   0.808
10132W        W75293   5.466  37.943   4.727
10133W        W75294  24.645  21.082   0.326
10134W        W75295  39.124  14.332   0.130
10135W        W75296   8.413  34.121  11.530
10136W        W75297  28.758  20.832   1.817
10137W        W75298  38.770  15.721   1.355
10138W        W75299  25.896  24.784   4.134
10139W        W75300  38.522  23.501   4.140
10140W        W75301  31.511  18.297  13.328
10141W        W75302  17.148  42.213  14.926
10142W        W75303   6.422  21.062  14.011
10143W        W75304  25.288  25.891   2.778
10144W        W75305  10.814  11.157   1.967
10145W        W75306  16.905  26.487   1.820
10146W        W75307  11.638  39.965   4.477
10147W        W75308  41.882  41.004   5.239
10148W        W75309  14.018  25.577   0.911
10149W        W75310  27.250  38.731  12.236
10150W        W75311  23.529  41.880  10.923
10151W        W75312  17.001  32.551  13.901
10152W        W75313  39.874   7.765  13.432
10153W        W75314   6.955  20.304   4.610
10154W        W75315  23.464  30.850  10.787
10155W        W75316  38.899  23.640   2.118
10156W        W75317  28.353  22.351  13.944
10157W        W75318  36.115  16.088   2.931
10158W        W75319   7.307  36.001   3.832
10159W        W75320  22.185   9.588  12.620
10160W        W75321  14.680  31.099   3.618
10161W        W75322  24.532  19.330   2.748
10162W        W75323  11.257   8.395  13.905
10163W        W75324   5.845  14.667   4.714
10164W        W75325  24.156  14.346  12.925
10165W        W75326   7.378  11.213   4.289
10166W        W75327  17.003   4.828   4.124
10167W        W75328  24.036  20.006  12.087
10168W        W75329  43.089  39.071   4.407
10169W        W75330  17.691  23.133   3.180
10170W        W75331  10.768   4.476  14.390
10171W        W75332  39.373  37.265   1.807
10172W        W75333  11.372  25.080   2.580
10173W        W75334   6.606  20.693  13.695
10174W        W75335  16.774  43.505  13.403
10175W        W75336  20.644  19.202  13.919
10176W        W75337  13.047   2.408   2.757
10177W        W75338  24.121  41.046   3.513
10178W        W75339  40.394   7.738  12.638
10179W        W75340   8.402  34.388   1.843
10180W        W75341  24.558   6.705   4.426
10181W        W75342  40.182   3.238   4.307
10182W        W75343  16.624   8.341  13.544
10183W        W75344  24.019  29.546   4.638
10184W        W75345  27.566  18.704  10.517
10185W        W75346   0.697  12.750  13.044
10186W        W75347  29.761  15.622   3.686
10187W        W75348  21.019  25.539  14.918
10188W        W75349  28.446   8.779   1.033
10189W        W75350  44.787  17.214  13.006
10190W        W75351  30.871  42.512  14.862
10191W        W75352   7.191  30.560  10.456
10192W        W75353  25.805  31.435  10.735
10193W        W75354  18.707  11.360   1.007
10194W        W75355   5.902  28.658   3.671
10195W        W75356  26.985   8.793   3.627
10196W        W75357  16.855  20.766  11.718
10197W        W75358  23.898   5.867  13.390
10198W        W75359  19.169   3.506  12.716
10199W        W75360   4.203  28.868   0.254
10200W        W75361  16.039  42.893  12.346
10201W        W75362  29.005  30.689   0.791
10202W        W75363  35.448   9.146   4.170
10203W        W75364  34.488  25.411  11.216
10204W        W75365  22.688  43.515   1.908
10205W        W75366  13.139  26.052  12.547
10206W        W75367  30.920   6.447  11.999
10207W        W75368  20.547  27.675  14.895
10208W        W75369  27.083  31.671   0.722
10209W        W75370  41.025  26.917  11.955
10210W        W75371  20.705  34.351  11.585
10211W        W75372  25.129  15.663  12.022
10212W        W75373  37.345  43.299   0.014
10213W        W75374  28.650  10.422  12.338
10214W        W75375  29.033   6.368   2.679
10215W        W75376  43.743  22.988  13.090
10216W        W75377  10.157  40.537  11.458
10217W        W75378  15.309  29.529   4.218
10218W        W75379  33.523  21.701  11.552
10219W        W75380  17.147  20.982   1.947
10220W        W75381  37.819  40.014  13.933
10221W        W75382   4.802  39.248  14.979
10222W        W75383   3.384  38.792  11.611
10223W        W75384  32.924  15.420  13.382
10224W        W75385   2.873  11.851   1.218
10225W        W75386   9.942  23.204   3.670
10226W        W75387  26.155   4.903   2.760
10227W        W75388  19.239  36.417   3.705
10228W        W75389  27.457  26.604   2.541
10229W        W75390  17.282  40.574  13.355
10230W        W75391  22.962  15.515   2.852
10231W        W75392   6.818  36.876   1.902
10232W        W75393   7.189   5.353   1.453
10233W        W75394  27.585  24.316   4.888
10234W        W75395  12.126  21.565  13.985
10235W        W75396  10.075  41.466  11.563
10236W        W75397   5.357  41.414   3.556
10237W        W75398  35.231  14.284   0.364
10238W        W75399  16.540  19.318   4.028
10239W        W75400   6.920  43.693  14.882
10240W        W75401   9.951  42.475  11.569
10241W        W75402   7.997  37.881  11.218
10242W        W75403  40.076   4.073   4.939
10243W        W75404  38.949  42.175   1.484
10244W        W75405   0.775  11.864   4.018
10245W        W75406  42.313  34.596   3.118
10246W        W75407  44.389  23.951   2.779
10247W        W75408  23.174  40.336   0.356
10248W        W75409  44.296  18.849  10.678
10249W        W75410  26.536  33.492  12.631
10250W        W75411   4.524  43.427   5.046
10251W        W75412  25.001  22.724  12.362
10252W        W75413   6.528   6.146   4.329
10253W        W75414  17.572   5.215   1.716
10254W        W75415  26.663  37.640   2.834
10255W        W75416  23.376  23.054   2.745
10256W        W75417   6.897  36.622  12.487
10257W        W75418   6.186  24.728   2.161
10258W        W75419   8.754  17.658   3.884
10259W        W75420  40.445   1.809   1.040
10260W        W75421  35.182  42.700   4.051
10261W        W75422  30.885  41.179  14.205
10262W        W75423  34.542  35.550  10.408
10263W        W75424  28.386  24.664   1.811
10264W        W75425   0.307  29.513   0.327
10265W        W75426  14.690  38.516  13.059
10266W        W75427  29.473   3.323  14.276
10267W        W75428   3.863   6.899   4.970
10268W        W75429  14.119  32.174   0.787
10269W        W75430   7.457   1.699   3.719
10270W        W75431  23.249  44.152   3.899
10271W        W75432  15.479   8.913   4.586
10272W        W75433  16.367  42.818   2.192
10273W        W75434  39.566  23.628   4.150
10274W        W75435  41.957  11.865  14.849
10275W        W75436  18.434  38.332  14.743
10276W        W75437  38.256  33.908  11.753
10277W        W75438  40.134  14.564  14.266
10278W        W75439  42.649   8.950  12.874
10279W        W75440   6.660  11.752  12.519
10280W        W75441  27.685   3.709   2.669
10281W        W75442   7.837   1.969   3.435
10282W        W75443  43.826  33.880  13.584
10283W        W75444  17.751  40.377  13.283
10284W        W75445  37.580   7.377   4.281
10285W        W75446  15.091  30.806  13.384
10286W        W75447   9.711  10.728   1.468
10287W        W75448  32.861   4.118  12.899
10288W        W75449  41.858  39.126   0.945
10289W        W75450  38.304  18.500  13.870
10290W        W75451  17.698  34.600   1.106
10291W        W75452  44.273  22.118  13.418
10292W        W75453  28.540   1.337  14.642
10293W        W75454   5.698  44.567   4.452
10294W        W75455  27.451  39.484  12.491
10295W        W75456  25.145  26.161   3.678
10296W        W75457  22.143  33.597   4.743
10297W        W75458  40.921  36.827  12.279
10298W        W75459  22.593   3.643   5.003
10299W        W75460  37.343   4.676  12.453
10300W        W75461  10.616  24.142  11.588
10301W        W75462  15.609   5.745  12.017
10302W        W75463   1.263   5.760  11.527
10303W        W75464  42.276  30.338  11.596
10304W        W75465  21.730  39.875   5.133
10305W        W75466  21.742   3.782   2.555
10306W        W75467  23.957  26.250  12.745
10307W        W75468  18.553  13.887  14.361
10308W        W75469   1.503  27.205  12.107
10309W        W75470  25.514   1.721  12.419
10310W        W75471  17.162  15.478  13.419
10311W        W75472   8.228   3.052   5.106
10312W        W75473  31.487   6.988  14.294
10313W        W75474   9.926  39.634   2.842
10314W        W75475  22.701   5.589  14.321
10315W        W75476   2.256  10.092   0.485
10316W        W75477  11.233  10.332   4.533
10317W        W75478  33.080  44.929  14.423
10318W        W75479  14.368  12.132  12.467
10319W        W75480  40.760  13.393   4.303
10320W        W75481  38.907  14.869   4.814
10321W        W75482  19.821   7.733  12.853
10322W        W75483  35.040  18.246   0.336
10323W        W75484   0.212  38.232  12.698
10324W        W75485  44.356  42.027  12.845
10325W        W75486  22.918   5.166   0.075
10326W        W75487  32.728  27.359  13.891
10327W        W75488  23.984  15.300   3.706
10328W        W75489  30.561  18.096  13.793
10329W        W75490  44.565   4.276   3.792
10330W        W75491  15.781  42.900   3.023
10331W        W75492  33.189  22.465   2.106
10332W        W75493  11.344  22.399   4.843
10333W        W75494  42.943   1.084   3.241
10334W        W75495  36.686  21.533  13.295
10335W        W75496   5.904   1.198   1.755
10336W        W75497  29.646  27.534   3.278
10337W        W75498  21.541  26.812   2.220
10338W        W75499   2.326  28.065   3.572
10339W        W75500  20.990   9.365  13.572
10340W        W75501   2.783   5.701   1.811
10341W        W75502  38.886   3.743  14.799
10342W        W75503   8.345  39.491   1.365
10343W        W75504  30.040   9.220   3.398
10344W        W75505  39.815  44.498  14.287
10345W        W75506   8.555  39.002  14.403
10346W        W75507  35.971  26.368   3.746
10347W        W75508   7.895   5.817  11.466
10348W        W75509  32.079  14.286  14.438
10349W        W75510  18.804  20.677  10.786
10350W        W75511  36.989   8.248   3.611
10351W        W75512  42.911  24.935  12.455
10352W        W75513  33.995  21.613  11.339
10353W        W75514  29.576  43.904  11.496
10354W        W75515  28.509   4.575  12.014
10355W        W75516  17.533  31.710   1.057
10356W        W75517  38.008  14.746  13.363
10357W        W75518  37.519  39.906   9.962
10358W        W75519  40.073  26.271   3.391
10359W        W75520  12.664  44.178  10.260
10360W        W75521  15.690   4.876  11.520
10361W        W75522  13.375  28.476   1.345
10362W        W75523  44.846  38.964  12.616
10363W        W75524  18.278  28.039  11.541
10364W        W75525  39.791  18.403  13.023
10365W        W75526  20.230  39.464   4.269
10366W        W75527  30.518  34.988  10.793
10367W        W75528  21.517   1.369   2.538
10368W        W75529  25.270  11.195  12.506
10369W        W75530  26.127   1.021   2.458
10370W        W75531  17.325  15.875   0.325
10371W        W75532  41.223   7.374   3.714
10372W        W75533  25.207   9.771  13.264
10373W        W75534  14.133  40.680   4.978
10374W        W75535  39.401  27.271   3.534
10375W        W75536  43.868   9.687   4.057
10376W        W75537  15.770  37.357  10.385
10377W        W75538  38.953  18.331   3.312
10378W        W75539  38.984   0.089  14.467
10379W        W75540  11.363  31.997  13.769
10380W        W75541  23.651  32.440   1.253
10381W        W75542  30.684  32.282   1.098
10382W        W75543  29.334   5.423  13.831
10383W        W75544  30.931   3.813   4.001
10384W        W75545  17.659  33.621  13.449
10385W        W75546  31.221  27.402  12.902
10386W        W75547  11.375  34.395  13.884
10387W        W75548   9.175  14.139  10.402
10388W        W75549  20.879   5.953   3.197
10389W        W75550  20.356  44.432   0.654
10390W        W75551  36.116  27.936  13.433
10391W        W75552  36.839   4.957   0.163
10392W        W75553  15.761   5.897   1.394
10393W        W75554  24.420  34.605  13.473
10394W        W75555  30.226  31.927   2.310
10395W        W75556   0.405  42.672   1.297
10396W        W75557  30.601  11.677  12.408
10397W        W75558  33.808  26.006  11.160
10398W        W75559   0.113  26.766  12.985
10399W        W75560  10.360  37.386  12.498
10400W        W75561  25.660   8.907   3.367
10401W        W75562  12.487  17.173   3.581
10402W        W75563   8.670  28.193  13.566
10403W        W75564   3.763  15.716   4.134
10404W        W75565  44.745   8.594   3.744
10405W        W75566  15.213  32.596  13.045
10406W        W75567   5.267  37.445   1.314
10407W        W75568  18.320  43.811   4.167
10408W        W75569   4.189  32.964   3.902
10409W        W75570   0.611  39.880   1.017
10410W        W75571  14.679  11.076  13.157
10411W        W75572   1.732   7.754  12.729
10412W        W75573   5.356  44.818  12.864
10413W        W75574   3.817  33.515   1.673
10414W        W75575  12.282  36.460   4.604
10415W        W75576   9.102  39.881  12.889
10416W        W75577  30.244  42.492   1.308
10417W        W75578  24.100  35.934  10.683
10418W        W75579  35.305  21.677  13.023
10419W        W75580  15.250  18.750   3.394
10420W        W75581  42.481  18.547   0.588
10421W        W75582   1.177  44.471  12.408
10422W        W75583  22.111   1.905  11.897
10423W        W75584  29.992  38.208   1.945
10424W        W75585  34.839  29.147  12.669
10425W        W75586  15.156  15.591   1.428
10426W        W75587   8.426  19.732   3.671
10427W        W75588   6.968  22.933   0.798
10428W        W75589   3.737  38.824  12.871
10429W        W75590   4.923  41.417  13.921
10430W        W75591  13.337  20.703  14.858
10431W        W75592  25.566  39.221  14.895
10432W        W75593   6.704  15.688  14.890
10433W        W75594  31.379  10.850  10.992
10434W        W75595   9.097   8.436  14.906
10435W        W75596   8.963  43.293   2.795
10436W        W75597  12.870  11.109  10.976
10437W        W75598  33.533  17.775   2.118
10438W        W75599  27.541  22.570   1.495
10439W        W75600  26.038  39.921  13.379
10440W        W75601  41.877  39.808   0.346
10441W        W75602  32.889  37.586   3.898
10442W        W75603  15.392   9.658   1.913
10443W        W75604   5.475   9.149   2.689
10444W        W75605  14.608  16.667  10.891
10445W        W75606  16.547  39.065  11.619
10446W        W75607  44.828  22.573  11.801
10447W        W75608  32.601  24.308   0.243
10448W        W75609  18.300  19.507   1.784
10449W        W75610  12.773   0.447  10.898
10450W        W75611  16.304  17.073   4.088
10451W        W75612  18.522  27.957   1.655
10452W        W75613   6.291  43.941  13.124
10453W        W75614  24.489  16.470  13.840
10454W        W75615  16.007  15.637   4.201
10455W        W75616  39.330  17.128   3.566
10456W        W75617  15.543  37.417  13.016
10457W        W75618  37.865  11.338   1.774
10458W        W75619  25.347  36.820   0.918
10459W        W75620  17.555  41.025   0.447
10460W        W75621   6.971   5.445  14.756
10461W        W75622  42.629  23.286  12.562
10462W        W75623   6.659  40.094  14.175
10463W        W75624  30.221   2.844   0.829
10464W        W75625  16.564  41.533   0.747
10465W        W75626  39.118  26.596  12.953
10466W        W75627  28.454  34.468  12.183
10467W        W75628  14.133  28.733   2.718
10468W        W75629  14.277  18.769  13.037
10469W        W75630  19.012  40.469   2.111
10470W        W75631  44.794   1.701  12.368
10471W        W75632  22.971   0.274   4.952
10472W        W75633   1.288  33.311  13.434
10473W        W75634   9.284  24.650  14.168
10474W        W75635  25.336  15.036   4.030
10475W        W75636  10.311  21.282   3.324
10476W        W75637  10.366  39.213  14.974
10477W        W75638  11.801  25.789  11.528
10478W        W75639   7.406  42.170  11.458
10479W        W75640  31.512  26.410   0.298
10480W        W75641  33.097   3.751  13.959
10481W        W75642  42.870  17.830   3.959
10482W        W75643  15.606  18.624   5.047
10483W        W75644  12.099   9.535   2.389
10484W        W75645  37.553  38.290   0.342
10485W        W75646  11.420  40.703  11.465
10486W        W75647  38.375  37.307  14.793
10487W        W75648   8.765  24.561   2.487
10488W        W75649  28.537  13.964  12.503
10489W        W75650   9.892   7.330   4.835
10490W        W75651  28.028   3.336   0.401
10491W        W75652  23.256  21.766  13.106
10492W        W75653  11.332   0.566   0.173
10493W        W75654   3.591  17.864  11.539
10494W        W75655  28.826   6.852   0.051
10495W        W75656  24.512  18.669  10.626
10496W        W75657  17.839  39.213   3.305
10497W        W75658  25.166  14.424  14.479
10498W        W75659  32.973  13.692  11.658
10499W        W75660  21.274  17.886  14.845
10500W        W75661  34.221   9.465   3.224
10501W        W75662  40.478   2.862   4.528
10502W        W75663  38.499  30.732   0.338
10503W        W75664  13.726  13.145  11.488
10504W        W75665  33.028   5.939   2.247
10505W        W75666  32.063  34.039   2.535
10506W        W75667  35.453  16.764   1.959
10507W        W75668  32.917  30.371  10.554
10508W        W75669  27.903   0.891  12.168
10509W        W75670   1.380  23.213  12.387
10510W        W75671  18.109  25.573  11.190
10511W        W75672   9.003  36.156   0.263
10512W        W75673   2.114  19.636  11.576
10513W        W75674  22.798  16.248  10.706
10514W        W75675  28.404  17.304   1.203
10515W        W75676  27.407  29.517  13.486
10516W        W75677   2.962  27.326   2.667
10517W        W75678  42.933  39.475  13.017
10518W        W75679   3.897   7.314  12.583
10519W        W75680   1.734   3.767   2.425
10520W        W75681  25.706  41.262  13.842
10521W        W75682   0.703  38.596   4.097
10522W        W75683  14.810  44.811  10.699
10523W        W75684   0.293  28.408   1.884
10524W        W75685   2.856  24.292   2.269
10525W        W75686  23.633  33.461   1.745
10526W        W75687  32.601  36.246  12.458
10527W        W75688  40.696  17.820  12.280
10528W        W75689  34.928  24.956   3.306
10529W        W75690   3.373   8.110   4.495
10530W        W75691  38.794  26.292  14.491
10531W        W75692  44.164  39.992  13.045
10532W        W75693  39.367  18.961   1.902
10533W        W75694   5.721  14.498  12.108
10534W        W75695  11.705  34.881   0.267
10535W        W75696   3.752  12.347  11.555
10536W        W75697  15.507  34.414   3.114
10537W        W75698  27.617  35.592  13.422
10538W        W75699  33.773  14.053   0.269
10539W        W75700  43.997   0.657   0.876
10540W        W75701  32.237  31.433  12.558
10541W        W75702   1.136  37.563  14.838
10542W        W75703  29.324  26.727   2.224
10543W        W75704   6.904   8.458   1.599
10544W        W75705  10.306   9.417  11.888
10545W        W75706   5.783  30.591   2.197
10546W        W75707  32.827  42.775   4.169
10547W        W75708  44.335   0.190  12.623
10548W        W75709   0.446  15.125  11.237
10549W        W75710  35.282  29.234   2.833
10550W        W75711  10.281   5.647  14.071
10551W        W75712  31.195   0.440  14.226
10552W        W75713   1.729  34.630  13.839
10553W        W75714  22.263  28.368   3.083
10554W        W75715   7.660   7.028   3.187
10555W        W75716  15.366  42.682  13.445
10556W        W75717   0.914  22.948   1.728
10557W        W75718  19.912  32.480  10.700
10558W        W75719  35.963  40.713  11.664
10559W        W75720   9.828  29.861  13.912
10560W        W75721  26.694   1.069  13.924
10561W        W75722  20.140  15.121   3.662
10562W        W75723  12.526  35.046   3.212
10563W        W75724  34.876  28.564   1.255
10564W        W75725  26.123  12.139   0.483
10565W        W75726  37.324  14.491   4.386
10566W        W75727  32.589  28.005  13.219
10567W        W75728   1.938  22.727   3.186
10568W        W75729  18.326  19.726  10.530
10569W        W75730  14.615  33.210  14.626
10570W        W75731  23.936  31.938  11.250
10571W        W75732   5.763  19.498  14.476
10572W        W75733  28.007   0.998  11.213
10573W        W75734   3.423  41.880   2.656
10574W        W75735  11.144  44.730  11.562
10575W        W75736  38.605  40.813  13.464
10576W        W75737  29.999   8.151  14.664
10577W        W75738  41.850  40.332  12.577
10578W        W75739  25.951  13.637  12.051
10579W        W75740  22.636  19.271  10.709
10580W        W75741   8.841   8.247   4.054
10581W        W75742  32.445  43.403  10.745
10582W        W75743  14.665  31.696  12.562
10583W        W75744  25.964   7.910   2.328
10584W        W75745   1.955  26.582  12.272
10585W        W75746  23.024   8.644  14.841
10586W        W75747   8.939  12.111   3.691
10587W        W75748   3.426  16.679  12.700
10588W        W75749  39.481  29.102   3.397
10589W        W75750   6.082   8.149   2.231
10590W        W75751  35.896  37.869  13.645
10591W        W75752  40.313  20.776  12.929
10592W        W75753  32.976  29.424  12.942
10593W        W75754   6.237  33.858  10.721
10594W        W75755  13.371   7.156  13.859
10595W        W75756  27.726  26.226   3.714
10596W        W75757  27.949  16.479   0.275
10597W        W75758  36.078  16.641  14.445
10598W        W75759  41.458  40.218  14.221
10599W        W75760  29.990  41.313  14.072
10600W        W75761  21.115   2.943   3.748
10601W        W75762  23.117   7.474   4.002
10602W        W75763  42.670  25.971   4.978
10603W        W75764   8.386  20.704   3.582
10604W        W75765  12.129   0.454  14.439
10605W        W75766  10.936   1.063  10.784
10606W        W75767  20.826  21.788   4.126
10607W        W75768  17.938  11.808  14.552
10608W        W75769   6.839  41.244   0.230
10609W        W75770  37.290  38.429   1.422
10610W        W75771  36.467  19.268   3.726
10611W        W75772   1.758  11.652  10.668
10612W        W75773  33.893  34.362   3.200
10613W        W75774  42.386   7.622   3.652
10614W        W75775   3.463   5.723  12.975
10615W        W75776  36.982  29.867   2.793
10616W        W75777   9.287  14.538  11.354
10617W        W75778   0.892  39.952   1.476
10618W        W75779  33.152   9.833  12.899
10619W        W75780  18.269   1.449   4.957
10620W        W75781   9.437  39.303   3.626
10621W        W75782  44.160  16.668  12.924
10622W        W75783   2.183  39.610   0.527
10623W        W75784   3.407   9.554  13.397
10624W        W75785  23.481  20.577  12.994
10625W        W75786  12.626  19.806   3.042
10626W        W75787  34.327  29.074   0.004
10627W        W75788  32.988   4.487  10.983
10628W        W75789  12.552  14.561  14.659
10629W        W75790  37.865  26.226   3.607
10630W        W75791   4.864  36.585  13.932
10631W        W75792  10.296  19.691   3.111
10632W        W75793   1.627  10.236   2.158
10633W        W75794  21.239   9.126   3.165
10634W        W75795   6.147  40.009  12.394
10635W        W75796  22.084  24.290   0.275
10636W        W75797  15.166  42.674  12.601
10637W        W75798  38.957   7.099  12.090
10638W        W75799   0.849  27.705  14.487
10639W        W75800   7.979  19.558   3.394
10640W        W75801  24.151  37.007  13.135
10641W        W75802  12.615  28.034   4.539
10642W        W75803  11.593  19.998  13.474
10643W        W75804  26.074  26.656  10.370
10644W        W75805   2.574  13.312  12.847
10645W        W75806  18.720  26.857   5.106
10646W        W75807   6.689  42.774  10.846
10647W        W75808  13.657  25.273   1.364
10648W        W75809  19.681  21.968   4.125
10649W        W75810  27.070   2.256  13.865
10650W        W75811   1.159  26.964   3.256
10651W        W75812  35.851   8.731  14.045
10652W        W75813  44.438  25.003  13.082
10653W        W75814  34.856  33.734   4.207
10654W        W75815  31.084  32.410   3.595
10655W        W75816  30.112  40.919  13.600
10656W        W75817  22.210  34.398  13.804
10657W        W75818   4.448  17.969  13.927
10658W        W75819   6.449  33.482   0.876
10659W        W75820   7.336  19.079   3.383
10660W        W75821  32.042  37.948   4.220
10661W        W75822  35.497  29.069   1.734
10662W        W75823  14.953  22.737  13.367
10663W        W75824  24.156   6.474   2.339
10664W        W75825  24.081  20.039   2.570
10665W        W75826  34.278  20.060  13.671
10666W        W75827  37.899  23.933   1.201
10667W        W75828  14.492  28.396   0.019
10668W        W75829  20.301  10.556   0.673
10669W        W75830   6.549  11.255  13.401
10670W        W75831  20.866  39.349   1.352
10671W        W75832  33.523  31.131  13.479
10672W        W75833  13.036  11.315   0.252
10673W        W75834  26.514  34.586   3.673
10674W        W75835  13.475  14.597  13.053
10675W        W75836  12.067  44.980  10.798
10676W        W75837  42.634  11.567  11.500
10677W        W75838  15.663  17.035   4.277
10678W        W75839  33.087  40.440  10.804
10679W        W75840  36.935  35.426  13.384
10680W        W75841   6.448  41.481  13.819
10681W        W75842  41.651  43.525  11.263
10682W        W75843  24.993  18.059  13.027
10683W        W75844  30.245  17.666  13.106
10684W        W75845  23.635  38.074   2.605
10685W        W75846   4.639  13.716  10.504
10686W        W75847  32.490  33.967  13.863
10687W        W75848  23.509   6.274   2.844
10688W        W75849  32.392  20.091  12.449
10689W        W75850  35.585  14.373  11.182
10690W        W75851  25.042  26.817   1.136
10691W        W75852  17.133  19.711  10.664
10692W        W75853  18.134  30.721   3.702
10693W        W75854  19.273  41.447  14.947
10694W        W75855  27.084  22.191  11.984
10695W        W75856  21.004  34.061   4.611
10696W        W75857  38.989   5.678  11.573
10697W        W75858  42.784   2.492   1.998
10698W        W75859  32.533  26.649   4.654
10699W        W75860  32.023  39.262   4.139
10700W        W75861  18.672  11.847   1.206
10701W        W75862  17.262  33.044   3.159
10702W        W75863  26.796  12.402   0.121
10703W        W75864  39.991  19.158   0.752
10704W        W75865  12.562  25.146  13.067
10705W        W75866   4.454   3.510  12.039
10706W        W75867  26.576  15.900   0.463
10707W        W75868  15.434   3.103   4.172
10708W        W75869  18.055  36.925   0.401
10709W        W75870  35.657   8.919   3.342
10710W        W75871  19.217  13.847   1.886
10711W        W75872   8.113  15.647   0.374
10712W        W75873   5.337  20.718   0.803
10713W        W75874  21.682  44.470  13.535
10714W        W75875  21.129   8.707  12.975
10715W        W75876  15.447  39.309   0.220
10716W        W75877  20.777  14.632  13.043
10717W        W75878  21.218  16.674   1.796
10718W        W75879  22.485  12.657  10.270
10719W        W75880  19.754   3.186   0.809
10720W        W75881  19.637  37.337  11.942
10721W        W75882  35.850   7.630   3.245
10722W        W75883  23.666  30.443   0.378
10723W        W75884  32.599   1.531   1.395
10724W        W75885   8.261  38.314  11.111
10725W        W75886   1.445  12.134   0.463
10726W        W75887  15.502  36.571   1.269
10727W        W75888  33.856  38.537  12.961
10728W        W75889   0.673   7.629   4.502
10729W        W75890  24.024  26.689   0.424
10730W        W75891   6.760  40.376  10.663
10731W        W75892  13.668  30.541   0.039
10732W        W75893  18.246  32.035  14.399
10733W        W75894  23.565  38.467  14.190
10734W        W75895  21.275   6.241   4.585
10735W        W75896  17.559  18.340   4.147
10736W        W75897  21.133  14.844   1.302
10737W        W75898  39.482  11.113  14.780
10738W        W75899  34.243  12.910  11.243
10739W        W75900   0.309  40.980   0.896
10740W        W75901  36.008   6.330  14.355
10741W        W75902   6.241  37.283   0.410
10742W        W75903  18.786  13.101   0.582
10743W        W75904  34.644   1.583   3.874
10744W        W75905  42.087  28.714  14.457
10745W        W75906   8.191  13.210   3.905
10746W        W75907  44.877  37.595   2.163
10747W        W75908   7.903  18.130   4.155
10748W        W75909   8.926   4.159  11.152
10749W        W75910  14.695  22.637   0.608
10750W        W75911  16.825  24.040  14.317
10751W        W75912   0.241  34.655   0.443
10752W        W75913  18.292  33.103  13.876
10753W        W75914  24.093  25.728   2.811
10754W        W75915   4.810  22.560  12.270
10755W        W75916   4.759   6.013   5.066
10756W        W75917   0.489  41.350  12.496
10757W        W75918  28.937  22.788   9.753
10758W        W75919  35.675   5.369  11.624
10759W        W75920  44.093  32.027  12.596
10760W        W75921  27.997   7.901   3.694
10761W        W75922  15.883  31.951   1.224
10762W        W75923  26.184   3.712  12.787
10763W        W75924  26.150  36.625  12.031
10764W        W75925  36.533  44.579   3.232
10765W        W75926   0.215  30.187  12.911
10766W        W75927  15.231  33.130   3.246
10767W        W75928  11.231  19.583  14.934
10768W        W75929  27.476  17.711   0.992
10769W        W75930  24.845  33.564   1.257
10770W        W75931  22.712  17.840  13.901
10771W        W75932  23.121  11.920   4.178
10772W        W75933   6.891  43.201  12.208
10773W        W75934  24.244  43.132  10.731
10774W        W75935  40.008  12.901  14.964
10775W        W75936  37.358  26.797   3.768
10776W        W75937   2.772   9.829  11.996
10777W        W75938  27.579  13.955   3.242
10778W        W75939  13.705  37.540   4.904
10779W        W75940   1.076  28.679  12.092
10780W        W75941  31.019  30.198  10.604
10781W        W75942  31.956  11.223   3.264
10782W        W75943   6.594   9.664   2.290
10783W        W75944   3.833   2.871  14.481
10784W        W75945   9.421  26.884   9.703
10785W        W75946  43.380  26.377   0.469
10786W        W75947  20.268  37.413  12.730
10787W        W75948  25.700   2.695  14.882
10788W        W75949  28.283   7.038  13.417
10789W        W75950  38.751  19.317  13.441
10790W        W75951  31.953  14.275  12.256
10791W        W75952  33.458  12.690  11.255
10792W        W75953  40.976  44.138   0.403
10793W        W75954  38.900   1.924  10.614
10794W        W75955  27.027   6.054   1.027
10795W        W75956  13.453  12.738   0.574
10796W        W75957   2.289  30.027   1.403
10797W        W75958  27.350  26.496   1.531
10798W        W75959  31.644  12.648  11.105
10799W        W75960  13.805  14.905   3.075
10800W        W75961  23.585  24.001   2.190
10801W        W75962  34.497  43.709  11.911
10802W        W75963  13.619   9.871  10.587
10803W        W75964   5.380  15.005   4.113
10804W        W75965  29.892  28.020  11.261
10805W        W75966  33.756  22.047  10.206
10806W        W75967  40.947  44.806  14.365
10807W        W75968  32.970  22.237   1.302
10808W        W75969  41.857  15.216   0.386
10809W        W75970  11.416  44.246  11.790
10810W        W75971  41.961  10.966  11.239
10811W        W75972   0.826  21.946  13.906
10812W        W75973  44.415  22.286  10.622
10813W        W75974  13.094  22.011   1.287
10814W        W75975  10.622  17.918  11.120
10815W        W75976   6.372  29.358   0.808
10816W        W75977   3.738  43.279  13.146
10817W        W75978  17.780  29.120  10.652
10818W        W75979  44.845   2.143  10.652
10819W        W75980  14.838  34.165  13.962
10820W        W75981   6.356  21.285  12.063
10821W        W75982  35.018  12.265  13.801
10822W        W75983  10.493   5.527  12.493
10823W        W75984  40.212  37.811   3.212
10824W        W75985  10.367  38.880  14.509
10825W        W75986  22.664  30.472   0.332
10826W        W75987  44.327   9.988   1.327
10827W        W75988  11.822  13.234   1.401
10828W        W75989   8.201   2.672   0.333
10829W        W75990  33.926  23.929  12.082
10830W        W75991  23.030  10.203   2.266
10831W        W75992  33.914  33.559   0.289
10832W        W75993  38.112  27.488  14.930
10833W        W75994   0.211  26.660   3.302
10834W        W75995  28.468  39.878   2.655
10835W        W75996  41.510  29.019  14.862
10836W        W75997  25.420  32.154  13.033
10837W        W75998   4.887  42.517   0.971
10838W        W75999  10.917   6.812   1.856
10839W        W76000   6.584  17.507  12.089
10840W        W76001  29.914  30.995   3.233
10841W        W76002   4.119   3.185  12.624
10842W        W76003  18.043  36.928   4.318
10843W        W76004   4.912  30.566   4.058
10844W        W76005  16.140  19.083  10.160
10845W        W76006  24.651  14.618  14.533
10846W        W76007   0.552   3.256  11.641
10847W        W76008  37.080  30.678   3.519
10848W        W76009  30.949  20.464   3.740
10849W        W76010   4.348  10.389  14.827
10850W        W76011  43.902  37.590   3.397
10851W        W76012  15.898  12.682   0.368
10852W        W76013  12.064  18.034   2.225
10853W        W76014  42.977  23.442  10.676
10854W        W76015   4.262   7.146   3.702
10855W        W76016   0.083  27.536  11.800
10856W        W76017  37.331  30.239  13.693
10857W        W76018  38.595  13.948  14.364
10858W        W76019  18.933  16.885   2.404
10859W        W76020  20.549  26.198   0.741
10860W        W76021  20.295  34.319  14.987
10861W        W76022  22.580  25.879   5.016
10862W        W76023  40.362  32.477   0.964
10863W        W76024   5.321  32.686   1.797
10864W        W76025  38.748  33.654   2.217
10865W        W76026  39.291   5.759   3.365
10866W        W76027  37.121  43.807   3.774
10867W        W76028   1.144  14.634  13.013
10868W        W76029  22.475  32.464  13.045
10869W        W76030  41.605  19.521   0.179
10870W        W76031   8.161  12.764  13.910
10871W        W76032  42.104  34.045   3.721
10872W        W76033  10.362  26.583   3.379
10873W        W76034  30.316  21.722   3.183
10874W        W76035  32.657  22.316  13.653
10875W        W76036  40.311   6.564   1.679
10876W        W76037  20.087  36.345   0.849
10877W        W76038  27.206  16.532  12.103
10878W        W76039  20.716  23.991  12.845
10879W        W76040  36.866  27.284  11.228
10880W        W76041  37.875  27.366  12.004
10881W        W76042   8.691  34.696  14.329
10882W        W76043  37.086  21.315  11.113
10883W        W76044  16.766   9.397   1.767
10884W        W76045  36.648  40.968  12.890
10885W        W76046  16.675  42.008  13.358
10886W        W76047  34.490  20.381  13.339
10887W        W76048  13.218  42.924   0.885
10888W        W76049   2.263  34.037   2.817
10889W        W76050  19.117  13.167  11.250
10890W        W76051  41.979   2.131   5.191
10891W        W76052  32.006  11.416  12.992
10892W        W76053  18.740  37.041  12.472
10893W        W76054  31.575  18.234  11.827
10894W        W76055  16.760  41.059  11.593
10895W        W76056  32.533  28.747   1.732
10896W        W76057  40.495  40.003  10.818
10897W        W76058   2.409  27.574   3.732
10898W        W76059  30.644   0.942  11.844
10899W        W76060  16.882  35.581  14.490
10900W        W76061  31.233  36.622  12.473
10901W        W76062   6.976  29.651   3.733
10902W        W76063   5.563  38.701  13.538
10903W        W76064  21.064  39.093  11.064
10904W        W76065   9.628  31.599  10.774
10905W        W76066  44.526  43.934   3.844
10906W        W76067   4.913  10.193  12.479
10907W        W76068  26.171   6.664  14.474
10908W        W76069  38.861  29.666  10.769
10909W        W76070  25.999  27.963  13.852
10910W        W76071  19.563  26.552   0.860
10911W        W76072  15.847  12.965   1.960
10912W        W76073   6.156   1.860  13.397
10913W        W76074  28.266  25.271  12.437
10914W        W76075  32.862  27.524  11.209
10915W        W76076  37.845  30.206   3.603
10916W        W76077   4.803   7.041   4.122
10917W        W76078  41.465  11.472  13.502
10918W        W76079  30.993  40.419   1.829
10919W        W76080  13.659  26.624  13.014
10920W        W76081  39.376  27.053   1.003
10921W        W76082  18.966  18.347   1.760
10922W        W76083  43.411  11.315  13.485
10923W        W76084  43.921  16.391   2.855
10924W        W76085  16.542  20.781  11.101
10925W        W76086  20.574  43.322   1.507
10926W        W76087   5.239  30.104   4.008
10927W        W76088  25.964   8.839  11.635
10928W        W76089  34.888  14.108  11.248
10929W        W76090   2.445   4.756   2.785
10930W        W76091  24.572  20.181  12.437
10931W        W76092  11.299  11.064   3.294
10932W        W76093  21.169  32.156  14.134
10933W        W76094  42.983  11.654   0.962
10934W        W76095  25.647  16.131   3.552
10935W        W76096  34.172  42.280   1.458
10936W        W76097  12.679  30.261  11.682
10937W        W76098  36.636   3.417   2.815
10938W        W76099   4.940  40.312  13.949
10939W        W76100  24.632  14.794   3.324
10940W        W76101  19.523  32.956   4.534
10941W        W76102  27.911  13.541   3.166
10942W        W76103  23.039  28.472  11.163
10943W        W76104  25.083   8.295   4.975
10944W        W76105  13.096  41.751   3.823
10945W        W76106  33.842  26.971  14.381
10946W        W76107  13.722  25.850   2.128
10947W        W76108  27.566  34.271  12.956
10948W        W76109  21.765   7.801  11.188
10949W        W76110  11.378  21.640   1.030
10950W        W76111   0.439   0.952   1.612
10951W        W76112  34.302   6.581  10.740
10952W        W76113   1.881  15.955   1.391
10953W        W76114  19.893  30.745  11.576
10954W        W76115  20.181  21.724   9.747
10955W        W76116  44.754  37.979   3.014
10956W        W76117   0.682  29.337   3.343
10957W        W76118  17.878   0.007  10.570
10958W        W76119  34.665  44.776   4.649
10959W        W76120   0.330   2.537   3.400
10960W        W76121  23.939  12.487   3.242
10961W        W76122  37.387  21.931  11.608
10962W        W76123  14.149  43.711   0.907
10963W        W76124  11.921  44.750  11.225
10964W        W76125  35.635   1.786   4.112
10965W        W76126  37.843  15.792   1.336
10966W        W76127  23.933   2.425  13.531
10967W        W76128  25.004   5.155  13.031
10968W        W76129  35.051  42.611  14.081
10969W        W76130   1.492  29.612  10.702
10970W        W76131  25.747  18.278  11.108
10971W        W76132  25.668  19.157   1.302
10972W        W76133  17.663   0.938  14.125
10973W        W76134  39.080  33.687   4.113
10974W        W76135  24.812   9.356   0.884
10975W        W76136  37.818  13.818   3.807
10976W        W76137   9.650  40.450  11.476
10977W        W76138   8.353  16.515   2.138
10978W        W76139  21.629  44.163   0.259
10979W        W76140   2.546  38.304  10.566
10980W        W76141   4.710   9.407  12.033
10981W        W76142   9.870  35.995   1.765
10982W        W76143  42.098  44.600   0.692
10983W        W76144  14.315  29.066   4.712
10984W        W76145  41.295   8.181   0.864
10985W        W76146  20.800  31.497   1.785
10986W        W76147  32.066  14.512  10.980
10987W        W76148  19.138   1.243  11.232
10988W        W76149  35.149  25.229   2.882
10989W        W76150  43.793  41.799   4.546
10990W        W76151  43.823  26.436  14.355
10991W        W76152  38.370  41.985  13.885
10992W        W76153   7.152  10.009  12.428
10993W        W76154  12.577  14.138  14.366
10994W        W76155  23.028  12.422   5.102
10995W        W76156  21.286  27.222   0.233
10996W        W76157   7.333  35.472  13.932
10997W        W76158   4.759  18.237   1.154
10998W        W76159   1.840  43.513   1.967
10999W        W76160  19.262   4.203  10.624
11000W        W76161  22.655  16.219   0.059
11001W        W76162  22.800   9.252   4.089
11002W        W76163  33.034  43.399   0.868
11003W        W76164  24.213  39.961   0.390
11004W        W76165   8.384  33.257  10.733
11005W        W76166  15.607  13.084   4.533
11006W        W76167  36.568  33.091   3.615
11007W        W76168  23.225  14.102  12.896
11008W        W76169   5.952  37.010  12.225
11009W        W76170  40.977   0.024   1.240
11010W        W76171   1.741  15.261  12.642
11011W        W76172  30.666  32.914   3.356
11012W        W76173  17.520  33.950   3.683
11013W        W76174  24.873  29.233  10.947
11014W        W76175  27.908  16.117  11.986
11015W        W76176  13.471  22.091   2.573
11016W        W76177  22.417  18.201   0.381
11017W        W76178  32.976  43.229  12.473
11018W        W76179  10.352  27.454   3.268
11019W        W76180  29.436  20.232  13.031
11020W        W76181   2.844  25.929  14.868
11021W        W76182  27.869  24.473   4.069
11022W        W76183  26.928   0.557   0.830
11023W        W76184  16.069  25.605  11.162
11024W        W76185  43.471  39.935   3.607
11025W        W76186  10.356  13.629  13.289
11026W        W76187   2.367  12.613  12.570
11027W        W76188   3.666  23.765  14.315
11028W        W76189  44.849  23.309  12.370
11029W        W76190  38.124  26.602  12.584
11030W        W76191  34.609  43.978   3.236
11031W        W76192  26.623  41.846   2.323
11032W        W76193  44.233  18.693  11.162
11033W        W76194   4.947  44.858   4.130
11034W        W76195  19.135   9.881  14.687
11035W        W76196  43.570  26.086   2.871
11036W        W76197  31.098  42.936  10.143
11037W        W76198  22.610  24.569  13.893
11038W        W76199  35.796   5.725  11.259
11039W        W76200  36.011  39.072   2.375
11040W        W76201  13.709   9.840  12.688
11041W        W76202   7.176  33.099  12.425
11042W        W76203   4.904  32.239   1.371
11043W        W76204  30.019  14.133  13.884
11044W        W76205  28.200  38.254   1.280
11045W        W76206  32.147   2.710  11.156
11046W        W76207  13.626  14.578   1.836
11047W        W76208  16.650  42.622   4.104
11048W        W76209   5.838  38.667  11.362
11049W        W76210   2.684  40.573  11.339
11050W        W76211  36.818  28.964  12.044
11051W        W76212  10.885  39.836   0.841
11052W        W76213  17.538  20.113   1.155
11053W        W76214  41.012  31.979  12.061
11054W        W76215  26.572  24.050  14.905
11055W        W76216   0.790  16.866  11.097
11056W        W76217   1.990  42.277   2.444
11057W        W76218  17.137  38.190  12.433
11058W        W76219  40.024  14.665   1.490
11059W        W76220   3.324  15.706  12.623
11060W        W76221   4.379  24.158   3.346
11061W        W76222  16.867  18.033   1.339
11062W        W76223  37.124   1.306  14.028
11063W        W76224   7.420   0.297   0.081
11064W        W76225  30.625  29.494   4.498
11065W        W76226   6.813  14.609   3.180
11066W        W76227  33.504  24.302   0.603
11067W        W76228  44.788  34.329   2.160
11068W        W76229   2.364  39.039   1.173
11069W        W76230  18.040  37.550   1.905
11070W        W76231  44.754  33.604  13.992
11071W        W76232  37.701  43.289  12.575
11072W        W76233  33.196  29.683   2.940
11073W        W76234  39.831  43.958  14.094
11074W        W76235  13.617  22.060  12.150
11075W        W76236  24.213  37.730   0.154
11076W        W76237  15.670  28.410   2.677
11077W        W76238  38.885  14.260  10.260
11078W        W76239  43.285  11.846  13.468
11079W        W76240  40.238  29.189  11.569
11080W        W76241  42.852  13.361  11.213
11081W        W76242  30.793  16.207   0.333
11082W        W76243  38.927  17.817   2.342
11083W        W76244  35.427  32.770   1.316
11084W        W76245  10.818   5.628  12.867
11085W        W76246  36.976  10.810   1.806
11086W        W76247  38.749  43.382   0.804
11087W        W76248  41.223  19.561  12.920
11088W        W76249   1.454  11.637  12.524
11089W        W76250  44.911  30.051   4.489
11090W        W76251   5.513  44.310  13.413
11091W        W76252  31.942  22.709  14.774
11092W        W76253   5.633   3.008   3.363
11093W        W76254  17.194  31.353   4.663
11094W        W76255  36.773  30.163  10.736
11095W        W76256  11.439  20.124  11.407
11096W        W76257  42.135  34.840   3.739
11097W        W76258  21.214   4.727   3.593
11098W        W76259  15.355  32.846   3.683
11099W        W76260  32.927  29.902  13.858
11100W        W76261   0.854   9.446   0.338
11101W        W76262  11.274  30.257  14.925
11102W        W76263  33.062  15.053  10.631
11103W        W76264  41.228  30.989  12.983
11104W        W76265  10.154  33.474   2.820
11105W        W76266  22.312  31.838   3.394
11106W        W76267  13.755   3.724   1.842
11107W        W76268  42.050  13.275  11.600
11108W        W76269  15.810  18.300  11.624
11109W        W76270   6.149  13.261   3.344
11110W        W76271   3.225  16.786   0.994
11111W        W76272   6.287   5.394   1.227
11112W        W76273  16.229  26.029   1.784
11113W        W76274   6.833  30.630  14.641
11114W        W76275   1.331  13.567   1.215
11115W        W76276  40.803  43.106  13.266
11116W        W76277   2.989   0.526   1.759
11117W        W76278   0.870  39.434   1.431
11118W        W76279  22.263  26.812  14.944
11119W        W76280   5.854  32.918  13.930
11120W        W76281   5.006  23.987   1.628
11121W        W76282   8.236  34.365  11.999
11122W        W76283  38.854  37.925   3.320
11123W        W76284  19.092  27.523  12.552
11124W        W76285   4.245  26.932   1.217
11125W        W76286  20.140  33.513  13.893
11126W        W76287  17.034   0.496   3.241
11127W        W76288  29.112  19.050   1.504
11128W        W76289   5.442  38.876   0.276
11129W        W76290   3.500  28.638  12.056
11130W        W76291  27.195  39.704   3.727
11131W        W76292  14.586  23.502   0.985
11132W        W76293  34.052  33.525  10.611
11133W        W76294  13.206  21.656   3.416
11134W        W76295  38.403  34.083  13.945
11135W        W76296  32.439  17.115  10.726
11136W        W76297  44.432  20.844   4.362
11137W        W76298  29.402  36.091  11.159
11138W        W76299   3.200  15.691   4.153
11139W        W76300   7.935  27.559   4.647
11140W        W76301  12.126  26.299  14.391
11141W        W76302  19.706  42.348  11.238
11142W        W76303  28.981  16.657   2.692
11143W        W76304   1.520  22.117   1.433
11144W        W76305  31.005  22.159  11.180
11145W        W76306  19.338  28.802  11.147
11146W        W76307  26.445  32.555   1.331
11147W        W76308   2.959  31.685  11.252
11148W        W76309  44.242  18.686   1.176
11149W        W76310  11.202  39.125  10.519
11150W        W76311  27.247  40.470   0.302
11151W        W76312  20.085  10.548  10.156
11152W        W76313  22.651   3.727  10.644
11153W        W76314  26.171  31.323  13.492
11154W        W76315  42.934  22.760   3.209
11155W        W76316  20.990   1.938  14.229
11156W        W76317  26.967  41.388   1.628
11157W        W76318  28.681  36.353  14.051
11158W        W76319   0.053  44.778   3.551
11159W        W76320  14.986  42.508  13.154
11160W        W76321  23.355  41.840  11.413
11161W        W76322   3.047   1.425  11.754
11162W        W76323   4.938  18.595  11.127
11163W        W76324  27.954  21.282   0.291
11164W        W76325  41.745  38.065   3.089
11165W        W76326  24.776  34.027  11.829
11166W        W76327  34.061  33.373   1.785
11167W        W76328  29.823  25.109   1.305
11168W        W76329  35.982  12.856   2.817
11169W        W76330  11.717  36.269   3.610
11170W        W76331   2.644  31.170  12.597
11171W        W76332   4.409   0.935  13.864
11172W        W76333  28.971  14.970  14.917
11173W        W76334  42.064  29.131  12.958
11174W        W76335  29.448  16.848  12.323
11175W        W76336  20.993   9.286  10.625
11176W        W76337  25.391  20.520   1.403
11177W        W76338  20.263  14.245  13.459
11178W        W76339  19.589  19.706   0.015
11179W        W76340   6.218   3.835   3.261
11180W        W76341  27.740   4.921  12.470
11181W        W76342  38.816   8.617  11.199
11182W        W76343  26.537  22.652   1.603
11183W        W76344  43.191  19.740   0.338
11184W        W76345   0.956  44.682   0.377
11185W        W76346  22.720  32.009   3.723
11186W        W76347  26.813  30.263   2.024
11187W        W76348   2.993  21.164   1.406
11188W        W76349  21.710  22.635  14.465
11189W        W76350  39.648   5.890   0.259
11190W        W76351   6.160  17.529   9.857
11191W        W76352  28.966  25.182   0.796
11192W        W76353  13.895   0.093   1.893
11193W        W76354  15.185  10.100   3.789
11194W        W76355   9.689   0.872  12.604
11195W        W76356  33.386  20.039   0.939
11196W        W76357  39.858  30.940  10.939
11197W        W76358  43.729  16.614  11.447
11198W        W76359  15.715  33.091  11.180
11199W        W76360   9.326  33.639   3.441
11200W        W76361  32.353  12.248  13.994
11201W        W76362  10.385  43.709   3.980
11202W        W76363   6.486  29.043   2.833
11203W        W76364  35.941  25.120   2.352
11204W        W76365  24.124  33.971   4.724
11205W        W76366  41.011  40.020   0.663
11206W        W76367  39.439  39.269  12.048
11207W        W76368  34.566  27.759   4.110
11208W        W76369  29.355  35.439   2.029
11209W        W76370  21.531  14.737  14.032
11210W        W76371  40.724  15.310   4.365
11211W        W76372  24.910  28.482  14.381
11212W        W76373  18.998  30.082  11.821
11213W        W76374  29.554  40.624  14.727
11214W        W76375  38.151  21.561   2.674
11215W        W76376  32.316  40.784   0.035
11216W        W76377  32.861  24.083  11.991
11217W        W76378  15.188  24.141  11.691
11218W        W76379  37.607  15.425  12.621
11219W        W76380  17.584  11.244  10.680
11220W        W76381  15.782  15.841  11.080
11221W        W76382  23.455   3.761   0.920
11222W        W76383  24.788   5.241   3.317
11223W        W76384   5.592   8.201   3.550
11224W        W76385  32.366  41.330   4.309
11225W        W76386  15.506  32.290   3.764
11226W        W76387  38.045  10.712   3.593
11227W        W76388  39.828  30.076   0.569
11228W        W76389  15.061  31.523  11.626
11229W        W76390  42.035   0.248  14.802
11230W        W76391  39.452   7.908   2.290
11231W        W76392  32.434  43.869   2.802
11232W        W76393  12.687  39.391  11.551
11233W        W76394   9.764   4.938  12.961
11234W        W76395   4.266  42.966   0.360
11235W        W76396  31.952  31.075   1.285
11236W        W76397  34.745  21.605   3.332
11237W        W76398  17.229  43.908  12.244
11238W        W76399   4.973  42.841  14.361
11239W        W76400   1.835  40.329   2.757
11240W        W76401  26.733  37.521  13.410
11241W        W76402   1.188  40.875   0.919
11242W        W76403  18.186  16.370   0.331
11243W        W76404  21.845  23.269  13.181
11244W        W76405   0.933  30.001  10.395
11245W        W76406  32.914  18.198   0.416
11246W        W76407   8.729  23.606   2.877
11247W        W76408  38.046  18.532   1.714
11248W        W76409   7.205   1.313   3.968
11249W        W76410   2.486   6.047  12.731
11250W        W76411   1.794  12.136  11.561
11251W        W76412  11.893  14.364   2.799
11252W        W76413  39.688  30.691   3.768
11253W        W76414   4.817   2.463  14.035
11254W        W76415  12.283  41.850   3.999
11255W        W76416  18.786   0.951  14.775
11256W        W76417  17.519  19.069  12.813
11257W        W76418  35.060  18.789  11.391
11258W        W76419   2.015  35.039   4.594
11259W        W76420  24.793  27.703  14.035
11260W        W76421  39.952  29.072   3.070
11261W        W76422   0.716  33.821   4.223
11262W        W76423  17.039  29.149   3.780
11263W        W76424   8.992  19.092  13.522
11264W        W76425  39.080   8.155  12.088
11265W        W76426  37.368  33.438   3.220
11266W        W76427  19.372   3.860  12.410
11267W        W76428  21.624   0.050   3.781
11268W        W76429  32.674  21.093   1.265
11269W        W76430  40.281  32.511  11.546
11270W        W76431  40.427  38.433  13.454
11271W        W76432   7.297  30.551  12.053
11272W        W76433  42.004  26.206  12.094
11273W        W76434  31.478  38.479  10.720
11274W        W76435  41.684  18.473   0.472
11275W        W76436   4.546  42.714   4.512
11276W        W76437  18.057  37.183   1.092
11277W        W76438  44.248   7.107  12.922
11278W        W76439  27.976  26.697   2.669
11279W        W76440   6.858  25.542   5.104
11280W        W76441  27.031  13.857  10.705
11281W        W76442  12.582  25.958  12.490
11282W        W76443  38.383  26.139  10.667
11283W        W76444  23.075  37.889   3.283
11284W        W76445  44.909  21.633  10.815
11285W        W76446  23.551   6.723  11.073
11286W        W76447  28.909  28.831   4.064
11287W        W76448  36.349  32.670   2.268
11288W        W76449  15.112   2.976  12.702
11289W        W76450  34.895  28.569  13.361
11290W        W76451  30.012  10.343  11.691
11291W        W76452  38.509   1.605  14.208
11292W        W76453  42.990   5.191  10.654
11293W        W76454   9.178  11.098   2.821
11294W        W76455  39.841  23.818   2.395
11295W        W76456   9.879   0.174  13.214
11296W        W76457  31.466   0.776  14.511
11297W        W76458  20.033  33.074   2.307
11298W        W76459   5.222  40.564   4.207
11299W        W76460  32.034  21.110   2.271
11300W        W76461  29.231   3.220  11.188
11301W        W76462  13.399  10.200   3.237
11302W        W76463   3.983  25.843   2.510
11303W        W76464  35.372  30.505   4.240
11304W        W76465  31.771  19.885  13.630
11305W        W76466  32.908  18.804  10.742
11306W        W76467  28.612   0.256   2.326
11307W        W76468  34.944  12.380   5.154
11308W        W76469  42.897  42.502  12.508
11309W        W76470  15.976  22.773   3.660
11310W        W76471   5.479  28.511   1.291
11311W        W76472  21.437  41.513  12.081
11312W        W76473  17.097   2.741   0.897
11313W        W76474  38.926  34.525   0.103
11314W        W76475  44.747  24.340   0.066
11315W        W76476   3.882  21.823   0.938
11316W        W76477  10.920  29.446   4.876
11317W        W76478  17.307  24.298   2.380
11318W        W76479   1.981  21.128  12.314
11319W        W76480  21.193  14.335   2.278
11320W        W76481  39.443   0.555  14.019
11321W        W76482  28.189  27.446  14.883
11322W        W76483  35.331  11.599  14.998
11323W        W76484   6.928  40.356   3.185
11324W        W76485  18.898  43.094  12.114
11325W        W76486   3.715  36.589   3.303
11326W        W76487  35.530  25.448  12.736
11327W        W76488  12.051  21.269  13.527
11328W        W76489  37.130  16.748  14.363
11329W        W76490  12.489  23.571  11.632
11330W        W76491  27.757  26.196  13.078
11331W        W76492   1.343  14.867  10.235
11332W        W76493  37.528  22.950   0.240
11333W        W76494  10.377  16.518   0.450
11334W        W76495  14.080  19.703   4.858
11335W        W76496  19.268  39.588  12.637
11336W        W76497   3.285  14.157  10.627
11337W        W76498  22.536  28.110   9.970
11338W        W76499  22.660  17.062   3.400
11339W        W76500  26.238   5.652   4.098
11340W        W76501  27.598  39.542   1.419
11341W        W76502  22.320  13.244  11.498
11342W        W76503   4.251  14.411   1.286
11343W        W76504  32.216  22.038  12.417
11344W        W76505  28.322  41.814   5.213
11345W        W76506  26.703  10.099  13.850
11346W        W76507  39.449  16.207  14.495
11347W        W76508   4.708   8.411   4.084
11348W        W76509  24.795  29.359  11.714
11349W        W76510  36.410   1.786  13.155
11350W        W76511  19.308  42.436   0.051
11351W        W76512  12.577  40.020  12.405
11352W        W76513  26.600  14.710   2.804
11353W        W76514  43.835  19.579  13.062
11354W        W76515  39.716   8.276  13.559
11355W        W76516  29.728   4.905  10.705
11356W        W76517  14.072  10.284   0.457
11357W        W76518  39.734  31.617   1.893
11358W        W76519  37.321  19.017  12.478
11359W        W76520  15.843  34.368  13.783
11360W        W76521   7.658  24.063   2.740
11361W        W76522  44.381  26.724  10.350
11362W        W76523  21.949  14.713   3.560
11363W        W76524  38.137  15.447   4.206
11364W        W76525  18.291  12.831  11.185
11365W        W76526  34.950  36.491   0.683
11366W        W76527  37.950  13.948   1.217
11367W        W76528  26.510  37.159   2.625
11368W        W76529  18.247  24.729   3.610
11369W        W76530   2.188   0.521  11.147
11370W        W76531  30.026   8.321   2.646
11371W        W76532  30.117  19.254  14.829
11372W        W76533  37.086   2.168  10.736
11373W        W76534  33.389  14.293   0.517
11374W        W76535  21.183  18.746   0.863
11375W        W76536  19.573  44.907   2.893
11376W        W76537  44.643   9.250   1.774
11377W        W76538   9.834  38.007  14.925
11378W        W76539   4.407  24.630   4.148
11379W        W76540  34.503   4.021  11.163
11380W        W76541   5.769   0.299   0.367
11381W        W76542  43.865  16.338  11.955
11382W        W76543  31.960  12.315  11.491
11383W        W76544  42.608  19.509   4.549
11384W        W76545  12.668  40.517   1.886
11385W        W76546  31.886  38.132  10.602
11386W        W76547  30.163  23.239   1.866
11387W        W76548   6.747  27.028  11.968
11388W        W76549   9.783  11.993   2.209
11389W        W76550  24.151   9.814  14.058
11390W        W76551  43.416  39.354  13.805
11391W        W76552  39.821  43.606   2.827
11392W        W76553  19.914  11.342  13.065
11393W        W76554  25.662   2.670  12.839
11394W        W76555  40.428  18.764   5.072
11395W        W76556  19.690  44.100  10.634
11396W        W76557  28.655  18.554  14.231
11397W        W76558  28.867  44.607  11.637
11398W        W76559   7.386  18.214   4.212
11399W        W76560  14.800  16.429   1.480
11400W        W76561  10.222  16.644  14.917
11401W        W76562  20.435  32.129   2.805
11402W        W76563  37.879  22.438  11.077
11403W        W76564  33.993   7.781   3.654
11404W        W76565   3.764  14.290  12.530
11405W        W76566  21.216  19.106   2.189
11406W        W76567  10.750  29.502  11.623
11407W        W76568  44.855  29.340   2.209
11408W        W76569  29.630  42.020   3.968
11409W        W76570   1.934  16.076   3.531
11410W        W76571  16.134  15.418   4.663
11411W        W76572  38.053  17.088  11.081
11412W        W76573  37.928  28.819   4.141
11413W        W76574  22.255  20.558   0.348
11414W        W76575  42.024   4.722  10.782
11415W        W76576   1.157  36.266  12.976
11416W        W76577  23.944  11.976   3.172
11417W        W76578   1.631  30.035  13.001
11418W        W76579  10.050  18.009  13.351
11419W        W76580   0.984  10.106  10.161
11420W        W76581   3.948  28.393  11.986
11421W        W76582  37.376  23.610   3.269
11422W        W76583  12.680  39.863  14.401
11423W        W76584  19.698  13.300  10.271
11424W        W76585  40.878  44.478   4.228
11425W        W76586  39.919  20.711  12.005
11426W        W76587  18.745  34.016   4.248
11427W        W76588  24.139  26.778   4.066
11428W        W76589  27.364  44.422   0.342
11429W        W76590   8.011  26.134  12.188
11430W        W76591  36.112  19.412  13.339
11431W        W76592  14.849  16.753  14.348
11432W        W76593   3.797  28.861  11.049
11433W        W76594  43.278  14.621   4.426
11434W        W76595   1.633  27.206   1.699
11435W        W76596  40.650  25.965  11.473
11436W        W76597   6.881  36.823  13.409
11437W        W76598  24.537  37.195   4.114
11438W        W76599   1.439  42.231   0.261
11439W        W76600   2.958  23.321   3.215
11440W        W76601  27.640   4.139   3.528
11441W        W76602  41.044  29.540  12.908
11442W        W76603  20.035   1.739  13.019
11443W        W76604   8.240  36.576  11.244
11444W        W76605  33.378  11.416  11.307
11445W        W76606  33.370   1.717   2.625
11446W        W76607  28.425  43.757   4.945
11447W        W76608   8.220   4.335  13.474
11448W        W76609  10.473  42.995  10.235
11449W        W76610  34.598  37.349   1.902
11450W        W76611  32.932   5.990   1.218
11451W        W76612   6.143  21.261   2.362
11452W        W76613  28.642  18.638   1.170
11453W        W76614  38.182  28.926  14.356
11454W        W76615  31.639  35.775   3.305
11455W        W76616  33.577  25.563  12.838
11456W        W76617  30.889  14.745  13.843
11457W        W76618  33.472  25.942   1.795
11458W        W76619  23.597   2.793   4.327
11459W        W76620  25.696  23.240   2.224
11460W        W76621  17.903  17.147   5.683
11461W        W76622  25.249  21.265   3.969
11462W        W76623  25.540  40.226   3.715
11463W        W76624  24.137  19.736   0.929
11464W        W76625   4.855  43.468   2.394
11465W        W76626  40.491  32.675   0.480
11466W        W76627  21.060  39.871   4.129
11467W        W76628  26.908  42.322  14.846
11468W        W76629   7.328  38.447  14.011
11469W        W76630   7.114  14.748   0.208
11470W        W76631  24.946  31.959   3.295
11471W        W76632  24.032   7.083  11.764
11472W        W76633  41.003  40.988   4.169
11473W        W76634  34.489   5.391   2.337
11474W        W76635  15.362   5.313   4.556
11475W        W76636  37.101  43.927  11.467
11476W        W76637  11.921  19.252   3.301
11477W        W76638  28.187  38.456  11.980
11478W        W76639  28.023  19.992  11.563
11479W        W76640  14.231  14.105   2.966
11480W        W76641  33.556  15.721   4.147
11481W        W76642  13.566   7.031  11.133
11482W        W76643   3.906  18.040   0.120
11483W        W76644   7.833  27.989   3.666
11484W        W76645  36.446  40.497   0.056
11485W        W76646  16.520  30.045   2.262
11486W        W76647  22.098  20.197  11.837
11487W        W76648  21.245  10.277  14.604
11488W        W76649  27.981  30.646   1.039
11489W        W76650  29.684  16.855  14.445
11490W        W76651  44.379  17.472   0.322
11491W        W76652  13.079   5.463   1.597
11492W        W76653   5.842  43.764   4.018
11493W        W76654   8.319   2.687   3.302
11494W        W76655  30.985  34.927  14.806
11495W        W76656  19.166  32.656   0.513
11496W        W76657  28.888  44.302   2.935
11497W        W76658  34.519  37.966  10.729
11498W        W76659  44.662   6.671   4.758
11499W        W76660  39.518  15.658   0.759
11500W        W76661   9.736   8.347   4.691
11501W        W76662  42.006  22.287   0.856
11502W        W76663  38.987  15.245   2.729
11503W        W76664  17.684  34.633   0.235
11504W        W76665  20.474  43.845   2.350
11505W        W76666  27.829  12.662  11.577
11506W        W76667  15.850  32.498  12.454
11507W        W76668  31.394  17.747  12.578
11508W        W76669  35.492   7.668  12.437
11509W        W76670  37.804  32.196   3.611
11510W        W76671  28.688  40.512   0.253
11511W        W76672  36.785   8.754   3.666
11512W        W76673  28.553  26.358  10.268
11513W        W76674  14.194   7.679  11.673
11514W        W76675  21.491  29.012   2.742
11515W        W76676  44.877  28.889  13.724
11516W        W76677  28.509   4.984   0.838
11517W        W76678   1.082  42.027  13.839
11518W        W76679   9.572   2.803   2.680
11519W        W76680  33.550  24.265   1.401
11520W        W76681  11.801  31.666  13.839
11521W        W76682  38.060  29.009  11.579
11522W        W76683  25.549  28.105   0.685
11523W        W76684  11.707   9.813  11.425
11524W        W76685  29.989  29.397  14.328
11525W        W76686  20.752  24.948   3.306
11526W        W76687   9.456  17.182  13.915
11527W        W76688  31.418  33.832  13.180
11528W        W76689  23.189  12.926   1.755
11529W        W76690   0.807  22.663  14.855
11530W        W76691  39.301  16.102  14.037
11531W        W76692  26.878  21.530   9.902
11532W        W76693  23.233   2.920   0.077
11533W        W76694  18.125  43.875   1.861
11534W        W76695  44.414  12.103  11.644
11535W        W76696  11.777  42.538   2.272
11536W        W76697  10.838  23.283   4.751
11537W        W76698  22.588  41.038  13.068
11538W        W76699  18.419  36.401   0.449
11539W        W76700  40.546  43.237   3.732
11540W        W76701   1.939  20.192   2.150
11541W        W76702  39.905  25.883   1.638
11542W        W76703   7.182  15.586   4.653
11543W        W76704  23.099  19.777  11.035
11544W        W76705  27.024  19.650  14.029
11545W        W76706  39.277   5.421  13.056
11546W        W76707   3.368  19.497  10.760
11547W        W76708  12.097  10.952  12.749
11548W        W76709  33.620   3.337  13.431
11549W        W76710  21.990  26.655  13.891
11550W        W76711  13.082   8.766   3.113
11551W        W76712  10.423  21.156   1.972
11552W        W76713  34.119   4.861  10.702
11553W        W76714  12.280   9.380  14.466
11554W        W76715  17.216  37.262  14.066
11555W        W76716  17.832   8.956  13.040
11556W        W76717  27.125   6.392   1.512
11557W        W76718  19.169   2.708  12.985
11558W        W76719  22.952  43.404   1.340
11559W        W76720  17.048  31.640   0.861
11560W        W76721  30.217   4.765   1.047
11561W        W76722  19.872   4.237   1.775
11562W        W76723  21.611  12.116  13.068
11563W        W76724   9.149  42.231   3.851
11564W        W76725  30.703  23.386  10.715
11565W        W76726  12.987  11.612  11.079
11566W        W76727  22.392  29.368  12.726
11567W        W76728  16.152  44.877   4.040
11568W        W76729   9.259  28.116   0.681
11569W        W76730  11.701  38.116   3.503
11570W        W76731  12.479  14.789  12.734
11571W        W76732   6.854  15.362   2.670
11572W        W76733  23.044  38.398  14.263
11573W        W76734  24.169  25.502  12.079
11574W        W76735  18.429  32.589  13.935
11575W        W76736   2.152  22.989   3.926
11576W        W76737  17.624   8.475   0.901
11577W        W76738  29.814  22.238   2.722
11578W        W76739   8.262  24.525   3.793
11579W        W76740  40.730   4.944  11.927
11580W        W76741  12.057  25.319  11.432
11581W        W76742  14.180  28.428   1.850
11582W        W76743  42.770  41.947   0.681
11583W        W76744  39.028  13.323   1.500
11584W        W76745  28.116  42.284  10.771
11585W        W76746   0.554  34.913   2.950
11586W        W76747  10.357   1.847  11.105
11587W        W76748  40.929  39.496   0.712
11588W        W76749  24.022   6.323   0.585
11589W        W76750  14.556  25.091  12.074
11590W        W76751  32.724  16.633   1.354
11591W        W76752  41.458  17.672  11.968
11592W        W76753   6.775   1.421  13.875
11593W        W76754  42.828  32.636   4.816
11594W        W76755  18.145  14.571  13.033
11595W        W76756   1.505  19.309  14.952
11596W        W76757  17.052  13.250   4.526
11597W        W76758  31.989  19.631   2.753
11598W        W76759  14.212   7.201   3.609
11599W        W76760  13.868  12.198   1.721
11600W        W76761   1.997  37.453   2.779
11601W        W76762  26.412  28.140   4.731
11602W        W76763  28.723  18.230   3.644
11603W        W76764  38.370  27.142   2.131
11604W        W76765  29.214   1.970   3.279
11605W        W76766  32.896  31.818  11.511
11606W        W76767   0.741  18.036  10.635
11607W        W76768   3.649  24.245  14.482
11608W        W76769  11.768  17.123   3.151
11609W        W76770   3.645  25.331  10.739
11610W        W76771  36.110  27.953  12.911
11611W        W76772  28.336  19.534   0.823
11612W        W76773  38.563   5.065   0.450
11613W        W76774   6.830  15.718   1.272
11614W        W76775  44.484  34.002   3.436
11615W        W76776  32.305  30.412  13.400
11616W        W76777  28.573  34.171   1.812
11617W        W76778   8.881  34.434   1.650
11618W        W76779   8.659  32.455  10.734
11619W        W76780   6.465  34.048   3.237
11620W        W76781  32.126  32.414  11.611
11621W        W76782   7.863  23.607   3.686
11622W        W76783  41.874  18.110  13.443
11623W        W76784  27.271  25.445  10.722
11624W        W76785  37.735  15.158  14.327
11625W        W76786  20.055  27.937  11.538
11626W        W76787  21.356   6.507   5.033
11627W        W76788  36.200  44.738   1.480
11628W        W76789  36.582   7.332   3.664
11629W        W76790   7.245  39.600  10.590
11630W        W76791  23.664  19.578  14.084
11631W        W76792  18.933   9.311   1.482
11632W        W76793  12.205  20.686   1.259
11633W        W76794   7.702  42.531  13.043
11634W        W76795  41.785  20.007   0.900
11635W        W76796   0.410  39.533  10.391
11636W        W76797  34.098   4.812   4.612
11637W        W76798  12.473  13.495   0.761
11638W        W76799  44.186  16.358   4.624
11639W        W76800  28.660  26.592  11.042
11640W        W76801  14.136   2.876   4.904
11641W        W76802  43.759  13.827  11.020
11642W        W76803  33.415  36.080   0.785
11643W        W76804  25.587  21.894   3.600
11644W        W76805  28.625  42.317  14.492
11645W        W76806  32.611  39.261  14.342
11646W        W76807  27.525  36.508   2.703
11647W        W76808  37.300   2.298  13.532
11648W        W76809  34.507  33.734   3.225
11649W        W76810   3.853  11.809  11.505
11650W        W76811  39.894  12.251  13.513
11651W        W76812  32.751  31.862   3.753
11652W        W76813  23.763  25.429  14.437
11653W        W76814  41.538  28.016   2.603
11654W        W76815   4.672  27.165  13.929
11655W        W76816  33.640  40.455   4.001
11656W        W76817  25.513  44.650   3.545
11657W        W76818  16.251  14.839   4.577
11658W        W76819  37.590   9.559  11.573
11659W        W76820  23.588   8.697   4.998
11660W        W76821  41.633  16.656  13.141
11661W        W76822  10.431  16.868   4.471
11662W        W76823  13.552  25.264  11.806
11663W        W76824   8.362  25.444  14.803
11664W        W76825  44.585  22.330   0.473
11665W        W76826  11.766  18.445   4.188
11666W        W76827  24.961  31.541  12.151
11667W        W76828  36.791  42.299   3.714
11668W        W76829  42.954  42.438  13.440
11669W        W76830  23.724  43.349  13.695
11670W        W76831   3.653  38.890  14.595
11671W        W76832  20.317  13.170  12.080
11672W        W76833  34.872  15.554  10.020
11673W        W76834  33.074  10.872   4.331
11674W        W76835   0.549  33.439  10.974
11675W        W76836  16.253  38.247   4.338
11676W        W76837  17.296  26.184   2.338
11677W        W76838  25.968   7.860   4.829
11678W        W76839   4.771  13.276   3.028
11679W        W76840   0.732  27.633   2.344
11680W        W76841  31.701  19.533  14.448
11681W        W76842  42.573  38.878   0.788
11682W        W76843  19.128  41.559  12.617
11683W        W76844   1.079  15.421   2.447
11684W        W76845  19.870  25.657  13.397
11685W        W76846  23.764  27.558   4.335
11686W        W76847  38.103  27.917   0.341
11687W        W76848   8.716  10.106  12.803
11688W        W76849   5.875  14.141   0.694
11689W        W76850  30.396  25.923  12.497
11690W        W76851  23.281  23.971   4.972
11691W        W76852   8.462  37.479   4.616
11692W        W76853  36.821  34.076  13.635
11693W        W76854   1.506  33.196   4.566
11694W        W76855  42.850  38.776  14.208
11695W        W76856  31.227  24.215  10.664
11696W        W76857  17.797  21.697   4.304
11697W        W76858  15.783  17.520   3.030
11698W        W76859  21.787   4.213   0.172
11699W        W76860  23.588  42.866  13.375
11700W        W76861  14.975  40.208   0.341
11701W        W76862   8.417  13.691   3.731
11702W        W76863  12.619  37.515   4.088
11703W        W76864  28.414   0.760  13.548
11704W        W76865  36.082   3.334  12.629
11705W        W76866  27.776   6.899   4.737
11706W        W76867   9.309  11.172  13.567
11707W        W76868  38.617  24.663  13.892
11708W        W76869  40.039  15.061   1.803
11709W        W76870  34.835  29.997   4.614
11710W        W76871  39.475  21.940   0.265
11711W        W76872   1.532  11.268  13.173
11712W        W76873  21.368  14.059  12.044
11713W        W76874   4.621  27.189   2.944
11714W        W76875   7.171   4.840   4.844
11715W        W76876  40.419  14.642  10.696
11716W        W76877  18.186   2.714   2.266
11717W        W76878  17.596  27.006  12.251
11718W        W76879  28.181  38.368   9.907
11719W        W76880  28.356  13.650  10.785
11720W        W76881  15.067  12.327   3.330
11721W        W76882  15.470  39.387  12.164
11722W        W76883  41.030  38.045   0.486
11723W        W76884  13.141  19.113   2.709
11724W        W76885  43.923  43.619   3.452
11725W        W76886  10.768  14.811   1.704
11726W        W76887  31.480  39.288  13.961
11727W        W76888  38.636   6.191   0.152
11728W        W76889  33.036  32.763   2.513
11729W        W76890  13.177  13.257   2.805
11730W        W76891  21.183  40.018   5.115
11731W        W76892  39.031  25.594  10.894
11732W        W76893  38.999  30.064   4.814
11733W        W76894  26.468   9.178  12.854
11734W        W76895  17.623   5.671   2.615
11735W        W76896  15.100  34.794   2.030
11736W        W76897  17.580  12.412   0.166
11737W        W76898   4.791  24.044   3.613
11738W        W76899  31.941   4.521  11.040
11739W        W76900  35.907  33.415  14.490
11740W        W76901  29.610  31.157  11.052
11741W        W76902   4.461  19.246   0.214
11742W        W76903  14.160  36.030   3.196
11743W        W76904  39.099  15.015  12.620
11744W        W76905   2.447   6.464   0.855
11745W        W76906  20.516  18.559   4.322
11746W        W76907  35.108  26.633   0.706
11747W        W76908  14.870   9.659   0.281
11748W        W76909  25.046  28.988  12.598
11749W        W76910  25.171  40.113   4.541
11750W        W76911  43.780  27.456  11.695
11751W        W76912  15.580  19.248  13.953
11752W        W76913  11.987  11.950  11.223
11753W        W76914  42.649   4.416   4.094
11754W        W76915  33.121  35.074  12.538
11755W        W76916  20.830   5.215  14.995
11756W        W76917  15.667   0.041   4.125
11757W        W76918   6.641  12.664  10.752
11758W        W76919  39.158  30.867   3.743
11759W        W76920  26.224  21.186   0.364
11760W        W76921  20.694   7.647   2.207
11761W        W76922  34.850   6.743   2.344
11762W        W76923   1.785   6.883   4.155
11763W        W76924  44.045  44.756  14.424
11764W        W76925  33.380  21.034   1.752
11765W        W76926  31.583  10.358   2.316
11766W        W76927  44.720  37.213   1.824
11767W        W76928  25.485  18.880  12.070
11768W        W76929  11.273  39.749  14.478
11769W        W76930  26.099  17.008  12.988
11770W        W76931  13.452  29.668  13.946
11771W        W76932  11.785  42.456   3.178
11772W        W76933  40.857   6.945  13.777
11773W        W76934  10.805  27.898  10.304
11774W        W76935  38.685  33.492   4.841
11775W        W76936  44.761  27.471  10.584
11776W        W76937   8.702  42.228   1.519
11777W        W76938  34.192  10.334   4.431
11778W        W76939   2.339  30.700  10.684
11779W        W76940  38.912  39.912  11.586
11780W        W76941  18.216   0.974   4.722
11781W        W76942   5.238  18.224   0.880
11782W        W76943  31.681  35.292   1.479
11783W        W76944   9.186  27.883   5.544
11784W        W76945  16.842  43.135   2.263
11785W        W76946  35.019  33.154   2.205
11786W        W76947   0.311  44.121  10.705
11787W        W76948  44.448  35.841  10.717
11788W        W76949  36.374  36.714   5.030
11789W        W76950  14.660  39.585   3.285
11790W        W76951   0.617  16.299  10.269
11791W        W76952  28.064  37.327  13.428
11792W        W76953  28.676  24.555   4.479
11793W        W76954  31.660   0.899  12.772
11794W        W76955   1.903  42.910  14.676
11795W        W76956  34.905  13.315  10.692
11796W        W76957  28.840   6.867  13.215
11797W        W76958  25.653  18.955  14.871
11798W        W76959   7.869   1.532   2.802
11799W        W76960  38.282   9.223  14.936
11800W        W76961  25.520   6.881  10.913
11801W        W76962  12.079  36.493  11.345
11802W        W76963  12.322  15.057   1.804
11803W        W76964   1.321  20.352  14.900
11804W        W76965  37.386  21.674  12.906
11805W        W76966  26.081   9.401  14.863
11806W        W76967   3.780   4.181   2.370
11807W        W76968  37.788  14.159   4.240
11808W        W76969   2.263  39.503   4.479
11809W        W76970  18.417   3.995  14.893
11810W        W76971   0.211  12.648  13.210
11811W        W76972  13.917  21.944   3.742
11812W        W76973  39.958   6.178   1.558
11813W        W76974  21.692  26.929  14.218
11814W        W76975  19.538   5.868  11.594
11815W        W76976  12.980  10.737   0.890
11816W        W76977  27.735   5.213  11.882
11817W        W76978   4.899  14.133  14.940
11818W        W76979  19.785  18.647   0.226
11819W        W76980  36.375  43.763   1.460
11820W        W76981  35.394   6.823  11.723
11821W        W76982  44.364  40.792   0.925
11822W        W76983  18.195  23.787  11.669
11823W        W76984  32.969  22.621  10.240
11824W        W76985   2.293   1.272   4.711
11825W        W76986   6.842  21.474  11.966
11826W        W76987  23.696  16.135   3.195
11827W        W76988  12.916  30.966   1.840
11828W        W76989  44.415  29.614  13.711
11829W        W76990  13.808  27.687   4.508
11830W        W76991  35.431  33.020  14.481
11831W        W76992  31.537  27.635  14.587
11832W        W76993  43.896  41.338   4.101
11833W        W76994   1.245  29.634   4.292
11834W        W76995  39.833  21.556  10.630
11835W        W76996  40.147  13.274  14.146
11836W        W76997  27.242  18.751  14.578
11837W        W76998  17.036   1.199   1.822
11838W        W76999  43.425  10.143  12.782
11839W        W77000  17.024  34.406  10.564
11840W        W77001   9.110  11.607  13.765
11841W        W77002  20.772  44.024  12.533
11842W        W77003  34.587  16.637   4.275
11843W        W77004  22.716  33.461   1.305
11844W        W77005   7.103  33.546  11.545
11845W        W77006  39.498  38.048  10.894
11846W        W77007  31.337   2.001  12.577
11847W        W77008  22.237  12.749   0.541
11848W        W77009  38.039  29.985   0.207
11849W        W77010  37.874  26.719   2.720
11850W        W77011   7.122  23.684  13.940
11851W        W77012   5.068  36.521  13.347
11852W        W77013   0.840  17.181   1.712
11853W        W77014  31.392  15.253  13.037
11854W        W77015   6.326  15.869   1.376
11855W        W77016  44.462  39.370   3.170
11856W        W77017   2.839  35.599  10.214
11857W        W77018   9.729  31.947  12.582
11858W        W77019   7.408  27.882  14.424
11859W        W77020  35.994   9.575  14.303
11860W        W77021  12.899  29.879  12.632
11861W        W77022   7.237  38.357   0.272
11862W        W77023  36.919  14.232  11.082
11863W        W77024  39.249  32.972   0.247
11864W        W77025  36.160  19.622   4.508
11865W        W77026  14.101  18.693  10.443
11866W        W77027  35.208  23.031  11.705
11867W        W77028  42.427  15.772   0.790
11868W        W77029   5.293  23.183   1.977
11869W        W77030  11.881  37.395  10.580
11870W        W77031  35.959  23.193   3.071
11871W        W77032   0.245  29.205   1.316
11872W        W77033  11.989  35.838   1.836
11873W        W77034   5.421  22.154  13.965
11874W        W77035   8.495  33.574   4.454
11875W        W77036  30.082  17.762  10.526
11876W        W77037  10.944  44.900   4.161
11877W        W77038  32.643  30.489  11.584
11878W        W77039   3.816  14.999   1.949
11879W        W77040  28.243  35.695   0.762
11880W        W77041  38.842  37.955   2.270
11881W        W77042  36.010  16.496   3.235
11882W        W77043  26.803   3.464  13.775
11883W        W77044  42.340  41.198   0.359
11884W        W77045  11.132  11.149   0.265
11885W        W77046  32.329   5.833   0.744
11886W        W77047  31.964   3.550   5.038
11887W        W77048  35.533  12.038  13.977
11888W        W77049   2.782  40.029   3.197
11889W        W77050   5.725  40.971  10.736
11890W        W77051  22.679   5.996   0.388
11891W        W77052  11.477  12.557   3.297
11892W        W77053  41.622  28.547   2.930
11893W        W77054  40.946  37.473   3.188
11894W        W77055  15.465  21.981  12.473
11895W        W77056  38.948  22.018  11.565
11896W        W77057   4.975  13.764   4.326
11897W        W77058   4.166  38.154  12.400
11898W        W77059  32.687  27.182  11.686
11899W        W77060  30.334   9.223  13.944
11900W        W77061  42.884  31.656  14.419
11901W        W77062  29.308  44.361   3.860
11902W        W77063  20.209  42.852  12.651
11903W        W77064  21.126   9.082   0.193
11904W        W77065   0.985   4.678  13.330
11905W        W77066  10.854  30.444  13.514
11906W        W77067  13.080   5.258   3.839
11907W        W77068  15.264  19.987  12.961
11908W        W77069  16.841   6.966  11.164
11909W        W77070   4.199  13.602  13.777
11910W        W77071  21.998  12.129   3.737
11911W        W77072  16.161   1.940  12.918
11912W        W77073  21.053  13.868  13.626
11913W        W77074  28.655   8.732  14.136
11914W        W77075  29.947  20.988  12.839
11915W        W77076   5.129  11.241   3.886
11916W        W77077  36.430   6.827   4.558
11917W        W77078  30.682  31.693   0.083
11918W        W77079  14.709  41.313   1.938
11919W        W77080  22.134  18.686   0.506
11920W        W77081  35.427   8.731  14.919
11921W        W77082  22.980  28.541   4.697
11922W        W77083  12.176   4.892   1.179
11923W        W77084  21.286  10.211   3.196
11924W        W77085  33.605  18.617   1.534
11925W        W77086  30.459  10.613  11.556
11926W        W77087  38.385  15.634  10.633
11927W        W77088  18.460  17.716   0.657
11928W        W77089   3.856  36.912   0.033
11929W        W77090   4.827  38.378  13.074
11930W        W77091  43.548  41.448  11.205
11931W        W77092   0.247  44.913   4.006
11932W        W77093  27.592  35.839  12.962
11933W        W77094  31.065  31.878   3.637
11934W        W77095  22.655  16.833   0.520
11935W        W77096  36.228  34.635   2.221
11936W        W77097   9.274  23.391  10.444
11937W        W77098  14.367  44.628  11.052
11938W        W77099  17.160  36.373   1.473
11939W        W77100  13.849  33.112  12.537
11940W        W77101  27.473   5.411   1.204
11941W        W77102  29.058  35.303   1.239
11942W        W77103   9.970  26.753   2.614
11943W        W77104  10.882  43.481  12.889
11944W        W77105  38.432  39.585  12.470
11945W        W77106  12.810  33.035  12.536
11946W        W77107  44.977   2.232   1.129
11947W        W77108  18.687   9.721  12.359
11948W        W77109  43.510  40.335   2.869
11949W        W77110  28.250  16.363   3.688
11950W        W77111  10.745  42.987   4.531
11951W        W77112  28.659  40.709   2.206
11952W        W77113  17.176  35.585  11.144
11953W        W77114  21.701  19.726  12.330
11954W        W77115  41.999  34.355  10.675
11955W        W77116   8.119  20.086   1.285
11956W        W77117  33.636  10.794  12.954
11957W        W77118  25.029   5.441   0.820
11958W        W77119  36.965   4.001   2.196
11959W        W77120  37.886  12.879   2.665
11960W        W77121  43.222  39.529  12.538
11961W        W77122   7.697  29.685  10.596
11962W        W77123   1.094  20.553  13.868
11963W        W77124   9.135  18.849   2.662
11964W        W77125   1.791  14.526  13.579
11965W        W77126  20.163  31.908   1.519
11966W        W77127  23.701  43.445  14.996
11967W        W77128  26.146  43.094   5.148
11968W        W77129  15.461  13.630  12.875
11969W        W77130  17.583  29.690   0.276
11970W        W77131  20.333  15.600  14.053
11971W        W77132  33.133  16.502  10.775
11972W        W77133  31.490  31.887   3.327
11973W        W77134  17.194  41.938  13.081
11974W        W77135  17.291  23.299   0.005
11975W        W77136   3.003   0.875  13.503
11976W        W77137  17.014  17.840   3.194
11977W        W77138  20.523  29.558  14.401
11978W        W77139   0.991  37.855  12.314
11979W        W77140  42.825  31.091   3.278
11980W        W77141  25.690   5.927   2.373
11981W        W77142   0.357  31.321  12.899
11982W        W77143  16.089  32.359  11.639
11983W        W77144  25.205  22.236   1.051
11984W        W77145  27.057  32.623   4.381
11985W        W77146  18.167  25.195   3.837
11986W        W77147  42.199  32.459  13.961
11987W        W77148  18.177  29.933  10.855
11988W        W77149  21.468  20.678  13.921
11989W        W77150  13.675   6.994   0.433
11990W        W77151   5.383  39.489   1.212
11991W        W77152  19.324  30.631   3.329
11992W        W77153  27.137  39.059   0.829
11993W        W77154  29.165  22.117  13.652
11994W        W77155  29.617   6.578   2.318
11995W        W77156  31.616  30.438  11.051
11996W        W77157  33.377  40.401   1.301
11997W        W77158  12.116  24.862  10.488
11998W        W77159  35.421   2.638   2.337
11999W        W77160  41.105  36.094  10.681
12000W        W77161  34.654  35.620   1.673
12001W        W77162  19.669  30.594  12.869
12002W        W77163  28.442  14.129  10.597
12003W        W77164   6.243  19.697   0.315
12004W        W77165  18.620  35.956  14.932
12005W        W77166  27.523  38.871  14.976
12006W        W77167  29.378   4.403   1.112
12007W        W77168  18.904  31.483   0.262
12008W        W77169  21.758  41.171  13.016
12009W        W77170  25.039  27.546  14.666
12010W        W77171  31.838   6.182  14.913
12011W        W77172  22.531  21.000   0.388
12012W        W77173  38.285  36.068  11.423
12013W        W77174  22.973  32.971   0.245
12014W        W77175   9.913  12.630  14.438
12015W        W77176  40.562  40.224  13.662
12016W        W77177  26.014  28.509  13.738
12017W        W77178  14.814  13.259   1.619
12018W        W77179  39.716  44.080  14.597
12019W        W77180  21.061  13.250   3.089
12020W        W77181  18.618  19.550  12.535
12021W        W77182  32.509   3.925  11.576
12022W        W77183  26.061   4.862   0.663
12023W        W77184   3.498  39.038  14.121
12024W        W77185   6.329   9.775   0.803
12025W        W77186   3.347  37.533  13.349
12026W        W77187  26.814  19.578   2.054
12027W        W77188   1.967   3.496  11.096
12028W        W77189  41.978  24.113   4.657
12029W        W77190  10.638   5.556   3.505
12030W        W77191  29.225  29.117   2.324
12031W        W77192  21.343  30.631   0.860
12032W        W77193  23.045  14.258   1.014
12033W        W77194  34.569  41.074   4.184
12034W        W77195  41.014   2.549   3.645
12035W        W77196   0.823   5.186   3.830
12036W        W77197  12.164  29.987  14.295
12037W        W77198  23.042  25.561   2.008
12038W        W77199   8.892  40.449   4.693
12039W        W77200  16.407  13.408  13.216
12040W        W77201  19.505  36.646  13.063
12041W        W77202  37.463  28.449  12.406
12042W        W77203   7.923  26.278  13.348
12043W        W77204   9.363  23.511   0.298
12044W        W77205  11.719  18.805  10.745
12045W        W77206   8.341  32.517   3.653
12046W        W77207  20.661   0.440  11.448
12047W        W77208  24.234  43.365   3.792
12048W        W77209  16.816   7.185  14.313
12049W        W77210  10.455  44.424  12.945
12050W        W77211  25.631  43.007   1.311
12051W        W77212  27.076   4.901  11.673
12052W        W77213  44.578  44.374   1.952
12053W        W77214  22.011   1.848  13.049
12054W        W77215  42.548  19.532   2.236
12055W        W77216  42.615  12.442   0.292
12056W        W77217  12.550  21.083  12.948
12057W        W77218  39.368  42.124  12.493
12058W        W77219   7.195  22.554   1.920
12059W        W77220  11.329   3.183   4.958
12060W        W77221  31.554  32.457   4.218
12061W        W77222  12.801  44.357   1.117
12062W        W77223   3.065  44.941  12.453
12063W        W77224  44.231  26.710  12.362
12064W        W77225  23.495  37.319  10.713
12065W        W77226  24.555  37.245  10.222
12066W        W77227  21.237  16.851  13.813
12067W        W77228  12.493  23.128  14.226
12068W        W77229  43.470  38.254  10.675
12069W        W77230  25.972  37.819   3.337
12070W        W77231  12.756   2.438   1.485
12071W        W77232  21.990   1.125   2.587
12072W        W77233  27.563   6.180  12.156
12073W        W77234  14.642  25.166   4.517
12074W        W77235   2.999  41.924   1.819
12075W        W77236  25.229   8.869   3.097
12076W        W77237  37.592  43.729  12.327
12077W        W77238  23.860  39.750   1.581
12078W        W77239  25.078   6.149  12.044
12079W        W77240  10.612   4.204   3.675
12080W        W77241  39.003  17.206  12.928
12081W        W77242  32.092  31.923  12.027
12082W        W77243  27.133  24.267   0.849
12083W        W77244  35.135  32.652  13.394
12084W        W77245  26.956  28.656  13.451
12085W        W77246   5.806  14.472  11.187
12086W        W77247  15.846  42.048   4.284
12087W        W77248  33.372   0.423  12.902
12088W        W77249  13.048  20.227  10.648
12089W        W77250  26.480   9.153  14.282
12090W        W77251  20.678  10.368   1.916
12091W        W77252   3.177  11.449   0.933
12092W        W77253   0.857  24.136  14.284
12093W        W77254  16.966  20.032  11.566
12094W        W77255   6.744  23.100   1.409
12095W        W77256  30.069   0.924   4.501
12096W        W77257  38.382  41.905   4.213
12097W        W77258   4.356   4.767   1.812
12098W        W77259  25.271  39.909   0.397
12099W        W77260  43.211  22.952   9.992
12100W        W77261  19.018   7.238   3.218
12101W        W77262  37.475  21.912  13.373
12102W        W77263  30.579  14.568  12.879
12103W        W77264  40.410  20.843  10.700
12104W        W77265  20.578  25.713   1.987
12105W        W77266  17.257  29.241  13.072
12106W        W77267  16.267   5.623  12.845
12107W        W77268  31.115  18.729  11.570
12108W        W77269  14.072  25.127  14.034
12109W        W77270  22.608  12.406   0.339
12110W        W77271  11.329  39.875  11.310
12111W        W77272  42.718   9.632  13.045
12112W        W77273  42.795  33.977   1.066
12113W        W77274  10.624  22.677  13.067
12114W        W77275  44.991  23.300  12.898
12115W        W77276  16.055   2.235   5.054
12116W        W77277  33.013   3.153   4.771
12117W        W77278  33.496  15.812   0.522
12118W        W77279   4.126   4.701  12.570
12119W        W77280  15.632  25.477   4.054
12120W        W77281  11.722  34.759  10.172
12121W        W77282  18.813  19.838  13.939
12122W        W77283  30.880  20.268  14.414
12123W        W77284  15.021  23.220   0.911
12124W        W77285   6.085  17.563  12.125
12125W        W77286  16.795  37.339   5.274
12126W        W77287   1.468  11.162   1.602
12127W        W77288  28.988  37.900   1.371
12128W        W77289  10.955  44.223  11.539
12129W        W77290   7.149  22.010   0.010
12130W        W77291  20.089  16.504   2.717
12131W        W77292  41.719  41.385  11.432
12132W        W77293  33.150  15.233   3.488
12133W        W77294   5.003   2.882   2.648
12134W        W77295   1.952   0.131  12.627
12135W        W77296  31.502  34.313   3.677
12136W        W77297  27.514   2.979  10.733
12137W        W77298  14.795  13.316  10.441
12138W        W77299  36.510   9.180   4.142
12139W        W77300  36.965  22.033   2.666
12140W        W77301  14.602  24.771  14.771
12141W        W77302  42.299  38.547   1.403
12142W        W77303   8.108  21.334   0.783
12143W        W77304  16.567   3.812  13.914
12144W        W77305  42.406   0.352   3.594
12145W        W77306  34.569  21.495  10.569
12146W        W77307   3.107  16.186  13.965
12147W        W77308  10.147   3.131   1.286
12148W        W77309   3.260  14.234   0.418
12149W        W77310  15.300  18.473   1.731
12150W        W77311  43.299  43.002   3.355
12151W        W77312  42.957  28.004   2.289
12152W        W77313  18.391   1.646  14.435
12153W        W77314  30.557  11.318  13.031
12154W        W77315   1.883  27.689   1.384
12155W        W77316  10.355  13.743   9.779
12156W        W77317  29.056   8.288  14.852
12157W        W77318   8.634   3.508  11.488
12158W        W77319  11.893  25.033   1.866
12159W        W77320  34.736   4.391   1.483
12160W        W77321  28.217  28.709  13.904
12161W        W77322  23.966   6.316  13.914
12162W        W77323  39.718  10.172   5.096
12163W        W77324  10.081  31.167   4.094
12164W        W77325  31.070  25.522   3.149
12165W        W77326  29.153   9.748   2.707
12166W        W77327  20.993  43.846   2.401
12167W        W77328  40.971  18.630   3.216
12168W        W77329  36.091   8.245  10.669
12169W        W77330  43.439  31.112  12.234
12170W        W77331  42.021  34.139   4.673
12171W        W77332  36.569  17.679   4.586
12172W        W77333  13.866  32.503   0.345
12173W        W77334   3.702  42.429  12.585
12174W        W77335  24.477  35.453   0.846
12175W        W77336  11.808  37.032   4.078
12176W        W77337  37.380  10.013   1.827
12177W        W77338  10.767   8.509  10.352
12178W        W77339  31.566   8.351   3.918
12179W        W77340  31.155  27.345   3.590
12180W        W77341   9.915  35.324  11.921
12181W        W77342  19.981  42.274  13.337
12182W        W77343   7.860  21.480  10.593
12183W        W77344  44.237  37.797  10.407
12184W        W77345   3.758  37.094  10.842
12185W        W77346  35.924  25.045  13.825
12186W        W77347  40.294  43.380   4.190
12187W        W77348  27.758  43.558  11.538
12188W        W77349  40.317  17.038  13.270
12189W        W77350   4.412  19.338   2.836
12190W        W77351  40.487  16.375   1.538
12191W        W77352  44.139  41.256   1.874
12192W        W77353  44.595  41.734   4.111
12193W        W77354  34.422  14.666  11.486
12194W        W77355  15.542  36.907  10.600
12195W        W77356  36.022  20.260   1.905
12196W        W77357  37.108  15.379  12.473
12197W        W77358  23.574   5.681   0.296
12198W        W77359  37.011  39.871  13.392
12199W        W77360   7.262  31.609   4.247
12200W        W77361  25.453  32.945   2.266
12201W        W77362  38.535  38.556   3.294
12202W        W77363  13.741   1.516  13.461
12203W        W77364  22.088  29.178   0.492
12204W        W77365  25.529   7.527  12.955
12205W        W77366  40.506  28.047   2.252
12206W        W77367  37.928  32.407  13.093
12207W        W77368  44.399  19.761   4.149
12208W        W77369  36.367   2.754   3.251
12209W        W77370  12.661  10.177  14.456
12210W        W77371  29.344  33.095  14.371
12211W        W77372  25.616  15.786  11.135
12212W        W77373   7.437  33.115   4.955
12213W        W77374  30.568  25.969   1.678
12214W        W77375   3.410   0.775   3.255
12215W        W77376  26.142  15.436   2.499
12216W        W77377  36.917   0.837  11.930
12217W        W77378  14.899  29.446   1.905
12218W        W77379  16.094  35.370   1.432
12219W        W77380  40.872   5.270  12.902
12220W        W77381  13.869  39.958  13.679
12221W        W77382  13.114   0.323  12.132
12222W        W77383  26.522   3.312  10.390
12223W        W77384  39.638  27.162  11.654
12224W        W77385   3.918  16.520   1.890
12225W        W77386  20.149  33.334  14.771
12226W        W77387  18.114  35.043  13.422
12227W        W77388  20.167  25.972   3.767
12228W        W77389  39.925  44.100  11.533
12229W        W77390  11.700  19.854   1.111
12230W        W77391  36.241  13.892   3.506
12231W        W77392  37.464  34.474  12.446
12232W        W77393  34.911  17.242   3.694
12233W        W77394  25.346   1.226  12.387
12234W        W77395  16.327   5.450  14.535
12235W        W77396  23.970  41.022  11.700
12236W        W77397  37.942   2.458  12.876
12237W        W77398  27.025  11.143   0.220
12238W        W77399  42.064  22.037  12.503
12239W        W77400   9.488  21.056  11.968
12240W        W77401  16.715  10.180  13.996
12241W        W77402  37.476  33.516  13.344
12242W        W77403   7.198   5.892   1.255
12243W        W77404  39.788  31.732  11.159
12244W        W77405   2.663  12.240   3.188
12245W        W77406  20.235   1.312   0.213
12246W        W77407  12.429  44.193  11.087
12247W        W77408  34.904   8.801  13.770
12248W        W77409  25.993  31.520  11.205
12249W        W77410  43.953   3.227   0.945
12250W        W77411  12.379  40.863  13.429
12251W        W77412   0.862  16.337   3.192
12252W        W77413  42.716  38.137  10.624
12253W        W77414  42.958  22.313  13.553
12254W        W77415  35.325   8.988  14.476
12255W        W77416  38.539  14.225   1.767
12256W        W77417  43.400  40.573   0.391
12257W        W77418  27.188  13.307   1.722
12258W        W77419  30.108  44.338  13.268
12259W        W77420  18.863   5.562   2.218
12260W        W77421  30.050   7.715   2.391
12261W        W77422  25.585  40.042   5.308
12262W        W77423   6.851  11.510   0.552
12263W        W77424  16.402  20.224   2.661
12264W        W77425   0.395  12.717  14.923
12265W        W77426   8.593   0.539  11.200
12266W        W77427  44.213  11.176   3.647
12267W        W77428  11.270  26.591   4.968
12268W        W77429  30.902  22.512  12.590
12269W        W77430  33.372   2.284  13.962
12270W        W77431  38.568  12.746   1.649
12271W        W77432   9.408  27.145   2.504
12272W        W77433  23.952   2.018  11.495
12273W        W77434  10.848  26.977   1.039
12274W        W77435  44.513  30.480  14.247
12275W        W77436  42.768  28.014  12.546
12276W        W77437  15.724  11.584   3.169
12277W        W77438   8.788  39.134   3.115
12278W        W77439  37.308  40.829  13.488
12279W        W77440  10.140  13.086  14.325
12280W        W77441  23.098  41.003   2.438
12281W        W77442  30.791  32.531  11.439
12282W        W77443  23.052   8.414   1.742
12283W        W77444  30.721  27.274   4.474
12284W        W77445  23.710  32.322   3.714
12285W        W77446  27.990  23.036  10.232
12286W        W77447   5.976  42.990   1.255
12287W        W77448  39.553  30.151   0.998
12288W        W77449  37.634  12.288  14.944
12289W        W77450  24.135  27.199   4.350
12290W        W77451  16.046  23.520  13.934
12291W        W77452  21.746  36.859   1.706
12292W        W77453  39.137  22.494  11.436
12293W        W77454   9.218  41.493  12.621
12294W        W77455   7.229  41.773  14.964
12295W        W77456  43.311  35.298   0.272
12296W        W77457  36.917  20.347  11.033
12297W        W77458  31.787  28.052   4.582
12298W        W77459  38.312  39.453   1.393
12299W        W77460  41.833  24.626   9.726
12300W        W77461  36.214  13.860   2.863
12301W        W77462  38.840   3.312   2.126
12302W        W77463   0.283  15.477   1.302
12303W        W77464  15.925  43.346   4.225
12304W        W77465  34.957  16.138   3.232
12305W        W77466  40.207  23.537  11.647
12306W        W77467  10.098   9.598   2.341
12307W        W77468   9.293  22.548  12.755
12308W        W77469  31.524   3.257  10.741
12309W        W77470  10.377  14.278   1.499
12310W        W77471  19.193  23.654  11.694
12311W        W77472  10.569   5.575  11.545
12312W        W77473  15.121  42.321   3.021
12313W        W77474  31.258  16.533   3.286
12314W        W77475  15.603   2.190   1.847
12315W        W77476  26.017   8.071   3.852
12316W        W77477  26.270  21.538  13.030
12317W        W77478  29.726  23.485  13.432
12318W        W77479   6.439  27.714   5.072
12319W        W77480   5.645  33.365  13.780
12320W        W77481  25.945  21.997   4.026
12321W        W77482  13.280  19.930  14.462
12322W        W77483   1.857  36.431  11.639
12323W        W77484   7.070  14.670  13.882
12324W        W77485   0.049  34.472   3.867
12325W        W77486   5.785  25.859  13.579
12326W        W77487  43.619   5.076  13.553
12327W        W77488  32.360   9.126   0.711
12328W        W77489  29.486  26.041   0.075
12329W        W77490  11.695  29.646  10.675
12330W        W77491   4.536  28.527  13.029
12331W        W77492   1.099  10.408   1.835
12332W        W77493   3.338   6.859   4.857
12333W        W77494   9.891  43.440   2.641
12334W        W77495   0.356   4.838  12.626
12335W        W77496   1.586   9.551  14.048
12336W        W77497   0.985  30.058   0.557
12337W        W77498   9.669  21.928  14.438
12338W        W77499   0.792  27.174  12.506
12339W        W77500  13.124  25.877  10.557
12340W        W77501  17.054  12.608   2.360
12341W        W77502   4.377  11.984  11.557
12342W        W77503  29.199  17.539  13.083
12343W        W77504  43.209  15.834  14.447
12344W        W77505  30.889  15.135   4.048
12345W        W77506  38.041  18.257   3.100
12346W        W77507   0.196   1.035  11.435
12347W        W77508  26.064   2.757   3.323
12348W        W77509   5.216  12.800  12.313
12349W        W77510  33.832   5.970   1.715
12350W        W77511  35.995   9.299   2.808
12351W        W77512   8.224  38.471   1.178
12352W        W77513  26.989  36.540   4.428
12353W        W77514   2.756   7.408  10.778
12354W        W77515  23.822  31.616   0.786
12355W        W77516  18.507  26.003   1.761
12356W        W77517  39.644  32.579   2.624
12357W        W77518  16.094  15.276  12.577
12358W        W77519  16.161  18.803   3.307
12359W        W77520  22.548   3.425   4.533
12360W        W77521  24.972  30.040   0.352
12361W        W77522   8.690  39.892   2.692
12362W        W77523  43.918  18.324  13.005
12363W        W77524   7.779  29.612   0.775
12364W        W77525  23.390  33.017   2.372
12365W        W77526  29.869  30.710   4.079
12366W        W77527   6.771  18.714   2.607
12367W        W77528   4.918   2.759  10.857
12368W        W77529  22.457  31.964  10.329
12369W        W77530  28.586  12.726   2.634
12370W        W77531  19.139  33.272   2.287
12371W        W77532  43.458  43.503   2.679
12372W        W77533  10.809  12.701  13.251
12373W        W77534  23.258  17.319  12.463
12374W        W77535   6.350   3.258   2.380
12375W        W77536  33.919   2.579   4.622
12376W        W77537  13.772  25.700   0.426
12377W        W77538   7.221  20.699   1.772
12378W        W77539  29.696  12.193  11.572
12379W        W77540  29.740  28.700  11.769
12380W        W77541   0.867  41.878  12.021
12381W        W77542  36.290  38.995  12.287
12382W        W77543  27.808  10.890  10.311
12383W        W77544  27.495  42.565   3.520
12384W        W77545  28.477  35.491   3.011
12385W        W77546  37.864  13.739   0.481
12386W        W77547   0.832  26.373  10.699
12387W        W77548  17.669  37.127   3.244
12388W        W77549  17.995  32.545   0.715
12389W        W77550  25.978  31.532  12.081
12390W        W77551  39.031  41.338   3.682
12391W        W77552   9.201  23.669   4.119
12392W        W77553   8.382  16.531  11.418
12393W        W77554  22.158   2.324  12.842
12394W        W77555  34.769  28.964  13.659
12395W        W77556  38.266  35.459   1.278
12396W        W77557  30.146  37.871   1.575
12397W        W77558  44.674  32.407  11.134
12398W        W77559  21.738  26.682   4.717
12399W        W77560   7.519  39.479   0.017
12400W        W77561  19.239  24.691   2.119
12401W        W77562  21.456  34.878   0.184
12402W        W77563  14.032  27.912   1.140
12403W        W77564  29.062  11.878   4.151
12404W        W77565  12.249   5.654   2.852
12405W        W77566   3.332  21.369   2.675
12406W        W77567  19.657   0.416  11.176
12407W        W77568  24.108  31.947   3.645
12408W        W77569   1.903  32.528  11.588
12409W        W77570   5.353  38.001   4.208
12410W        W77571  20.256  28.031  13.773
12411W        W77572  42.980   3.785  12.569
12412W        W77573  10.390  32.902  14.318
12413W        W77574   1.015   4.473   0.098
12414W        W77575  13.203  25.255   1.133
12415W        W77576  39.865  44.813   2.315
12416W        W77577  29.519  19.350  10.780
12417W        W77578  24.538   8.225   1.678
12418W        W77579  33.970  42.483   0.538
12419W        W77580   0.649  39.180  12.532
12420W        W77581   1.777  42.714  13.810
12421W        W77582  20.559  31.014  14.985
12422W        W77583  43.771  17.048   1.640
12423W        W77584  15.917  18.823   2.835
12424W        W77585   6.248  39.902   1.229
12425W        W77586   0.873  42.926   4.285
12426W        W77587   6.775  10.691  13.971
12427W        W77588  33.279  22.207   4.245
12428W        W77589  27.363  14.113   3.666
12429W        W77590  29.054  12.400   4.307
12430W        W77591   3.153  27.467   1.686
12431W        W77592  11.064  17.051   0.746
12432W        W77593  18.086  37.075   2.085
12433W        W77594  33.293  30.557  11.841
12434W        W77595  10.598  22.180  11.501
12435W        W77596   0.464  36.404   1.230
12436W        W77597   4.372  14.189  13.774
12437W        W77598   3.929   7.252   4.101
12438W        W77599   5.458  33.566   4.558
12439W        W77600   3.470  20.579   4.684
12440W        W77601   5.499   1.813  14.228
12441W        W77602  11.993  14.864   0.967
12442W        W77603  27.970  28.045   4.952
12443W        W77604   6.324  20.290   1.447
12444W        W77605  18.543  15.518   0.522
12445W        W77606  20.837  13.854   1.304
12446W        W77607  22.305  15.066  10.649
12447W        W77608   4.790  34.863  12.408
12448W        W77609  16.570  19.292  12.628
12449W        W77610   3.933  11.329  12.421
12450W        W77611  25.687  13.617   2.664
12451W        W77612  10.974  21.530  11.512
12452W        W77613  22.054  10.837  14.894
12453W        W77614  19.517  16.159  14.731
12454W        W77615  22.571  36.155   0.416
12455W        W77616   0.793  31.165   1.302
12456W        W77617  15.746  19.749  13.942
12457W        W77618  15.700  29.805  10.783
12458W        W77619  20.333   9.366   3.259
12459W        W77620  36.637  40.046   9.703
12460W        W77621  31.070  19.655   2.259
12461W        W77622  41.491  31.411   0.790
12462W        W77623  37.860   2.070   2.940
12463W        W77624   9.302  23.026   0.502
12464W        W77625  39.383  43.710   1.800
12465W        W77626  43.624  13.618   4.155
12466W        W77627  37.546  29.274  13.437
12467W        W77628  39.920  44.389  10.523
12468W        W77629  15.784  23.527   0.328
12469W        W77630  12.643  29.557  12.948
12470W        W77631  38.211  21.209  10.685
12471W        W77632  29.413  26.032  11.488
12472W        W77633  26.210  16.873   0.402
12473W        W77634  27.232  42.117   3.341
12474W        W77635  39.316  28.614   4.621
12475W        W77636   0.779  30.085   1.057
12476W        W77637  39.496  14.140  14.839
12477W        W77638  32.257  24.028  14.911
12478W        W77639  42.930  44.419   3.341
12479W        W77640  16.336  27.543   2.158
12480W        W77641  39.906  37.615   2.321
12481W        W77642  27.455  13.095  11.554
12482W        W77643  33.426  30.084  12.021
12483W        W77644  33.644  24.510  12.044
12484W        W77645  26.580  14.310   0.890
12485W        W77646   8.857  23.708  13.171
12486W        W77647  28.863   4.892  14.550
12487W        W77648  11.619  42.441  12.338
12488W        W77649  22.320  34.020   4.494
12489W        W77650  16.075  23.859  14.938
12490W        W77651  27.087  20.468   0.894
12491W        W77652  29.164  24.722   0.935
12492W        W77653  23.166   5.866   4.562
12493W        W77654  32.058  12.811   0.208
12494W        W77655  39.942  40.333  11.318
12495W        W77656   5.442  16.650   1.899
12496W        W77657   3.848   2.812   4.532
12497W        W77658   3.819  21.809   4.091
12498W        W77659   3.282  34.793   4.129
12499W        W77660  19.919  37.995   2.360
12500W        W77661  27.635  28.129  10.611
12501W        W77662  35.217   8.322  11.989
12502W        W77663  40.662   1.216   0.436
12503W        W77664  40.402  20.532   4.580
12504W        W77665  29.121  21.724   1.734
12505W        W77666  10.795   7.093   2.306
12506W        W77667   1.848   9.198   2.412
12507W        W77668  22.727  22.976   0.770
12508W        W77669  36.531   9.373  12.896
12509W        W77670  26.337  28.933  13.917
12510W        W77671  21.963  25.889   4.619
12511W        W77672  12.629  23.039  10.759
12512W        W77673  28.441  37.786   1.220
12513W        W77674  20.826  33.509   0.795
12514W        W77675   4.985  31.640   0.742
12515W        W77676  31.658  10.028  13.501
12516W        W77677   7.364   7.329  14.221
12517W        W77678  21.673  25.984  10.959
12518W        W77679  36.263  30.084  14.399
12519W        W77680   7.190  11.753  14.776
12520W        W77681  33.185  24.581  13.917
12521W        W77682  41.856   6.752   2.667
12522W        W77683  35.617   6.846  12.190
12523W        W77684  37.906  19.958  14.281
12524W        W77685  38.564   4.676   3.264
12525W        W77686  35.147  31.901  12.925
12526W        W77687  40.750  17.785   1.826
12527W        W77688  11.132  15.105  11.142
12528W        W77689  33.057   6.192  10.628
12529W        W77690  43.958  27.286   2.508
12530W        W77691  44.707   9.223   3.200
12531W        W77692  23.768  19.543  12.235
12532W        W77693   3.593  44.354   1.184
12533W        W77694  14.453  35.043  12.494
12534W        W77695   1.946  41.519   4.158
12535W        W77696  13.583  20.255  14.734
12536W        W77697  24.987  12.097   3.298
12537W        W77698   4.535  41.743   3.809
12538W        W77699  14.288  19.363   1.570
12539W        W77700  13.261  10.680   4.121
12540W        W77701   0.576  43.088   3.330
12541W        W77702  32.365  30.624   1.424
12542W        W77703   4.746   4.894   0.113
12543W        W77704  38.302  26.532   3.624
12544W        W77705  25.533  27.275  12.022
12545W        W77706  18.660   5.368  10.705
12546W        W77707   7.889   8.129   2.296
12547W        W77708   1.829  22.264  12.973
12548W        W77709   4.997  18.611   2.321
12549W        W77710   8.693  25.830  14.474
12550W        W77711  26.120  44.985   0.808
12551W        W77712  16.170  34.891   0.324
12552W        W77713  16.759   7.888  13.199
12553W        W77714  17.811  35.079   0.914
12554W        W77715  21.880  19.544   4.943
12555W        W77716  44.727   7.876  13.949
12556W        W77717  37.657  23.141  11.137
12557W        W77718  43.972   5.812   4.344
12558W        W77719  43.906  23.181   4.685
12559W        W77720  37.849   7.599   1.802
12560W        W77721  15.034   8.729   3.448
12561W        W77722  38.485  17.547   4.077
12562W        W77723   9.255  18.044   1.271
12563W        W77724   9.749  27.562   4.712
12564W        W77725  13.672  13.038  10.786
12565W        W77726  20.759  31.460   2.322
12566W        W77727  32.919  38.543   2.742
12567W        W77728  22.644  17.130   3.889
12568W        W77729   9.415  39.331   4.150
12569W        W77730  35.069   4.259  12.547
12570W        W77731  24.888  30.714   4.861
12571W        W77732  31.567   2.515   0.878
12572W        W77733  26.691  26.919  13.349
12573W        W77734   2.360  37.837  12.375
12574W        W77735  13.984  24.072   2.340
12575W        W77736  10.232   8.727  14.082
12576W        W77737  20.735  15.226   2.157
12577W        W77738  31.188  25.998   2.930
12578W        W77739  26.590  42.250   2.016
12579W        W77740  18.012   1.860   3.681
12580W        W77741  32.398  26.318   3.385
12581W        W77742  18.653  30.214  14.180
12582W        W77743  30.097  11.644  12.362
12583W        W77744   6.594  31.692  13.834
12584W        W77745  15.356   3.657  13.529
12585W        W77746  20.470  42.728   4.263
12586W        W77747   7.944   2.990   3.132
12587W        W77748  35.624  44.577   2.686
12588W        W77749  10.316  14.608   1.887
12589W        W77750  38.891  21.819  14.488
12590W        W77751  18.145  21.238   3.263
12591W        W77752  14.311  15.176   0.527
12592W        W77753   8.197  26.697  10.708
12593W        W77754  29.953  37.621   1.963
12594W        W77755  41.366  12.453  10.713
12595W        W77756  14.261  42.075   1.455
12596W        W77757  30.381   1.230  12.228
12597W        W77758  42.073  12.877  11.974
12598W        W77759  44.349  25.645   4.560
12599W        W77760   9.287  20.114   2.133
12600W        W77761  15.273  23.478  13.382
12601W        W77762  10.694  26.686   2.126
12602W        W77763  24.701  22.549  14.503
12603W        W77764  24.976  28.089   4.622
12604W        W77765  13.247  42.019   1.909
12605W        W77766  13.221  25.646   1.535
12606W        W77767  39.943  30.834   1.449
12607W        W77768  37.409  34.591   1.415
12608W        W77769  11.212  31.123  11.973
12609W        W77770   4.248  27.438  13.971
12610W        W77771  22.113   9.443   2.648
12611W        W77772  43.573  15.829   3.298
12612W        W77773  39.548  20.012   2.142
12613W        W77774  28.513   0.872   2.244
12614W        W77775  28.510  32.399   1.998
12615W        W77776  11.979   6.163   5.053
12616W        W77777   9.839   4.462  13.133
12617W        W77778  44.338  31.171   2.615
12618W        W77779  34.147  44.452  13.043
12619W        W77780  23.970   1.844   0.675
12620W        W77781  18.996   7.010   4.441
12621W        W77782  31.369  34.185  11.318
12622W        W77783  11.371  14.320   0.495
12623W        W77784   9.739  30.685  11.179
12624W        W77785   4.028   0.464  14.531
12625W        W77786  30.070   3.601   1.883
12626W        W77787  24.589  26.118   0.779
12627W        W77788  17.648  37.695  11.941
12628W        W77789  15.589  38.360  12.117
12629W        W77790   2.861  15.018  12.160
12630W        W77791  39.363  34.273  11.185
12631W        W77792   1.940  21.261  11.008
12632W        W77793  25.006  42.051   3.650
12633W        W77794  15.388  26.541  12.291
12634W        W77795  22.166  28.438   2.225
12635W        W77796  22.666  17.616   5.482
12636W        W77797  38.784  39.482   3.727
12637W        W77798  30.992  31.017  13.116
12638W        W77799  18.180  26.740  11.141
12639W        W77800  36.590  17.490   3.667
12640W        W77801  28.463   1.813  14.313
12641W        W77802  33.581   6.369   4.481
12642W        W77803  16.547   7.952   1.791
12643W        W77804  31.035  32.776   0.753
12644W        W77805  12.608   5.436  14.029
12645W        W77806  33.573  32.012   3.202
12646W        W77807   4.700  13.917  14.379
12647W        W77808  25.159  10.214   1.305
12648W        W77809   6.767  42.855   0.877
12649W        W77810  44.290   3.496  12.513
12650W        W77811  32.386  35.856   2.703
12651W        W77812  29.917  28.894   0.269
12652W        W77813   7.321  44.041  12.412
12653W        W77814  35.433  12.491   0.552
12654W        W77815  26.414  37.336   0.915
12655W        W77816  34.813  26.705  14.790
12656W        W77817  32.282  28.047   4.506
12657W        W77818  39.507   7.605  12.456
12658W        W77819  16.839  21.041   3.668
12659W        W77820  19.039  44.946  12.998
12660W        W77821  11.866  25.026   3.985
12661W        W77822  12.453  12.159  11.172
12662W        W77823  30.027   5.416  11.964
12663W        W77824  43.217  36.890  11.663
12664W        W77825  27.559  32.384   1.773
12665W        W77826  22.596   2.527   0.048
12666W        W77827  19.022  10.936  13.416
12667W        W77828  33.697  12.165   3.098
12668W        W77829   5.407  44.170   3.138
12669W        W77830  28.500   3.713  11.198
12670W        W77831  29.671  44.737   0.867
12671W        W77832  38.005  20.639   4.306
12672W        W77833  28.269  27.458   2.880
12673W        W77834  20.700   3.528  11.086
12674W        W77835   5.337  10.615  13.782
12675W        W77836  39.494  34.448   4.675
12676W        W77837  31.876  39.532  13.553
12677W        W77838  39.018   4.986  12.710
12678W        W77839   9.901  11.784  11.494
12679W        W77840  18.463   8.851   0.509
12680W        W77841  24.655  34.973   2.766
12681W        W77842  20.100  22.614   4.988
12682W        W77843  24.966  29.270  14.030
12683W        W77844  29.132   7.798  11.589
12684W        W77845  27.721  41.537   0.450
12685W        W77846  44.022  23.460   2.379
12686W        W77847  33.489  27.492   0.963
12687W        W77848  34.310  26.009   4.559
12688W        W77849  28.084  28.531   1.516
12689W        W77850  21.175   2.488   2.060
12690W        W77851  40.560   9.942  10.722
12691W        W77852  15.281  14.650  12.660
12692W        W77853  37.887  16.509   1.931
12693W        W77854  23.182   5.788  10.696
12694W        W77855  22.928  37.868   1.761
12695W        W77856   4.749  43.187  12.581
12696W        W77857  25.785  27.566  14.338
12697W        W77858  32.423   7.453   3.619
12698W        W77859   2.753   8.172   2.678
12699W        W77860  40.339  24.056   0.328
12700W        W77861   8.779  41.015  12.521
12701W        W77862  22.804  20.615   1.710
12702W        W77863  40.806  30.554   3.071
12703W        W77864  35.896  11.712  11.208
12704W        W77865  30.702  36.875  11.112
12705W        W77866  17.531   0.778   3.639
12706W        W77867  17.311  12.803  14.973
12707W        W77868  18.041  28.200   3.776
12708W        W77869  28.462  37.562   9.874
12709W        W77870  13.790  25.397  14.411
12710W        W77871  31.970  25.708   3.677
12711W        W77872  44.052  16.725  13.702
12712W        W77873  10.312  23.989   1.193
12713W        W77874  26.956  43.845  13.378
12714W        W77875  11.315  13.853  13.566
12715W        W77876  26.088  37.806  13.083
12716W        W77877  13.874   6.451   1.322
12717W        W77878  15.880  24.536  13.951
12718W        W77879   7.464  44.191   4.574
12719W        W77880   2.058  16.310  13.833
12720W        W77881  25.091  18.870  11.425
12721W        W77882   0.503  25.737   3.252
12722W        W77883  12.575  10.252  13.388
12723W        W77884  32.972   5.801   4.080
12724W        W77885   9.970  29.211   3.915
12725W        W77886  14.761  20.616  12.162
12726W        W77887  14.336  13.246  10.676
12727W        W77888  30.043  27.963   4.487
12728W        W77889  33.240  30.992  11.211
12729W        W77890   4.555   0.827  11.469
12730W        W77891  15.160  24.718  13.409
12731W        W77892  16.865  19.277   3.630
12732W        W77893  42.494   3.206  13.122
12733W        W77894  44.040  38.055  11.234
12734W        W77895   2.665  30.747  13.805
12735W        W77896  12.417  31.001   1.149
12736W        W77897   3.759  12.565  13.971
12737W        W77898   4.840  37.131   0.426
12738W        W77899  15.509  37.498  12.112
12739W        W77900   6.449  11.801  12.009
12740W        W77901   0.009  28.091   2.209
12741W        W77902  16.894   6.762   3.073
12742W        W77903  36.368  32.389  12.464
12743W        W77904  28.990  16.463   3.168
12744W        W77905  15.354  32.371   1.942
12745W        W77906   6.753  11.752   2.465
12746W        W77907   3.855  44.586  12.692
12747W        W77908  11.716  32.845   4.323
12748W        W77909   7.411   7.703  13.813
12749W        W77910  31.000   6.807   2.705
12750W        W77911  12.491  26.277   1.846
12751W        W77912   4.683  39.086   1.322
12752W        W77913   5.318  19.564   1.163
12753W        W77914  33.298  11.447   0.891
12754W        W77915  24.032   8.608  12.496
12755W        W77916   7.633  20.075   1.095
12756W        W77917  10.317  16.643  12.359
12757W        W77918  44.551  32.086   2.681
12758W        W77919  44.253  43.312  14.373
12759W        W77920   4.400  29.828   1.683
12760W        W77921   9.748  15.381   0.862
12761W        W77922  44.628  10.273  14.445
12762W        W77923  21.430  13.845   0.177
12763W        W77924  20.948  41.312   3.418
12764W        W77925  28.726  16.254   2.300
12765W        W77926  13.912  36.573   3.379
12766W        W77927   1.650   0.823  11.581
12767W        W77928  27.372   8.458   3.202
12768W        W77929  37.892  31.349   0.502
12769W        W77930  21.182  39.615   1.842
12770W        W77931  29.369  39.094   0.474
12771W        W77932  42.474  37.391   1.713
12772W        W77933   9.965   1.827  12.396
12773W        W77934  39.641  41.826   2.784
12774W        W77935  27.199  35.994  11.599
12775W        W77936  39.544   3.333  14.223
12776W        W77937  10.555  13.106  13.932
12777W        W77938  30.898   6.768  13.045
12778W        W77939  32.080  23.564  13.317
12779W        W77940  20.708   6.357   2.899
12780W        W77941  23.950   4.262   1.163
12781W        W77942  10.142   6.546   3.275
12782W        W77943  29.033   4.704   3.305
12783W        W77944  10.275   2.739   2.317
12784W        W77945  17.592  30.337  14.773
12785W        W77946  21.848  13.989   5.151
12786W        W77947  27.763  39.600   1.907
12787W        W77948   2.394  36.883  11.987
12788W        W77949   6.014   4.907   5.289
12789W        W77950  13.042  15.584   2.198
12790W        W77951  35.512  14.784   2.274
12791W        W77952   4.393  35.971   0.785
12792W        W77953  19.176  14.666  11.930
12793W        W77954  37.293  42.395   3.631
12794W        W77955  10.518  26.119   4.683
12795W        W77956  42.335  21.322  14.408
12796W        W77957  34.118  18.005   2.773
12797W        W77958  17.287  12.580   0.987
12798W        W77959  12.221  35.939   4.745
12799W        W77960  44.999  11.691   3.567
12800W        W77961  11.873  18.297   2.941
12801W        W77962  25.482   0.356  14.036
12802W        W77963  39.811  11.565   4.319
12803W        W77964  28.067  18.368   2.355
12804W        W77965  19.144  35.929  10.335
12805W        W77966  15.232   8.929  11.638
12806W        W77967  39.842  39.572  13.786
12807W        W77968  13.218  34.586   4.515
12808W        W77969  39.869   0.640  11.475
12809W        W77970  39.806  18.034  13.496
12810W        W77971  38.843   4.198  11.063
12811W        W77972  34.063   4.706   3.708
12812W        W77973  44.463  11.293  14.977
12813W        W77974  42.389  26.295  11.739
12814W        W77975  38.461  32.886   0.785
12815W        W77976   7.963  34.773  11.426
12816W        W77977  23.779  22.837  10.281
12817W        W77978  32.541  32.040  14.630
12818W        W77979  37.600   1.892   3.786
12819W        W77980  12.561   0.881  14.439
12820W        W77981   5.329   9.749   1.312
12821W        W77982  29.035  26.302  14.978
12822W        W77983  10.961  44.362  13.093
12823W        W77984  36.336  34.921   4.746
12824W        W77985  18.505  10.752  14.936
12825W        W77986  42.943   4.478  13.911
12826W        W77987  15.968  42.443   1.022
12827W        W77988  30.491  43.812   1.675
12828W        W77989  24.004  36.091   4.594
12829W        W77990  20.312  20.704  11.604
12830W        W77991  32.878  16.305   2.146
12831W        W77992   1.976   6.284   1.913
12832W        W77993   3.761  30.599   0.253
12833W        W77994  37.420  32.692  13.264
12834W        W77995  22.308  18.521  12.482
12835W        W77996   8.509  29.057   0.758
12836W        W77997  37.990   2.234  14.347
12837W        W77998  42.697  27.577   2.171
12838W        W77999   5.543  26.751   1.405
12839W        W78000  12.271  20.640   0.216
12840W        W78001  37.841  21.306  13.965
12841W        W78002  40.885  42.686   0.570
12842W        W78003  43.445  39.448   4.538
12843W        W78004  23.552  36.440  14.723
12844W        W78005  11.352  22.084  13.452
12845W        W78006  40.200  39.405   2.697
12846W        W78007   5.651  13.745   2.223
12847W        W78008  21.918   0.970  11.503
12848W        W78009  18.517  25.616   0.335
12849W        W78010  11.700  43.833  12.705
12850W        W78011  22.006  34.335  11.673
12851W        W78012  31.229  19.479  13.111
12852W        W78013  40.102  15.796  13.029
12853W        W78014  33.543  33.945   2.310
12854W        W78015  18.127  12.573  13.972
12855W        W78016   8.264  13.800  12.349
12856W        W78017  28.398  43.498   3.022
12857W        W78018   3.292  36.421  12.582
12858W        W78019  33.581   4.328   0.300
12859W        W78020  17.747  27.650  13.900
12860W        W78021  24.763   0.203   0.814
12861W        W78022  24.596   5.656   4.437
12862W        W78023  28.073   3.763  13.903
12863W        W78024   7.142  43.412  11.726
12864W        W78025   0.657   2.125   3.362
12865W        W78026  25.982  31.134   2.219
12866W        W78027   3.106   5.972   4.171
12867W        W78028   9.543   7.804   2.397
12868W        W78029   0.339  18.705   2.814
12869W        W78030  39.771  36.914  14.535
12870W        W78031  30.197  26.042  11.052
12871W        W78032  17.609  29.383  14.849
12872W        W78033  41.721  35.202   3.682
12873W        W78034  38.788  10.322   4.713
12874W        W78035  39.514  18.339  12.609
12875W        W78036  41.525  15.051   2.346
12876W        W78037   2.318  29.872   3.831
12877W        W78038  20.154  32.581  12.632
12878W        W78039  35.603  11.639   2.359
12879W        W78040  18.706  27.147  13.855
12880W        W78041   8.526  23.925  12.241
12881W        W78042   0.945   4.349  14.589
12882W        W78043  10.093  19.155   4.009
12883W        W78044  14.989   8.772   4.554
12884W        W78045   0.404  20.611  11.182
12885W        W78046   3.858  14.774  12.376
12886W        W78047  11.243   5.185  11.782
12887W        W78048   9.417  15.245   3.364
12888W        W78049  26.418   1.571   1.671
12889W        W78050  40.373  40.026   4.509
12890W        W78051  42.872   8.714   2.462
12891W        W78052  32.376  19.817   4.705
12892W        W78053  20.158   2.279  10.997
12893W        W78054  40.519  38.085  14.257
12894W        W78055  19.024   5.989  10.738
12895W        W78056  32.240  20.874  10.622
12896W        W78057  18.736   2.205   4.725
12897W        W78058   3.409  18.492  12.596
12898W        W78059  34.408  11.831  14.028
12899W        W78060   1.120   7.339  13.007
12900W        W78061  41.484   7.611   1.747
12901W        W78062  18.768  15.332  11.569
12902W        W78063  16.079  41.280   0.759
12903W        W78064   6.274  43.345  11.430
12904W        W78065  10.125  39.529  13.956
12905W        W78066   7.869   5.456  14.563
12906W        W78067  15.614   6.837  12.616
12907W        W78068  21.099   0.863   0.330
12908W        W78069  17.802  42.296   3.252
12909W        W78070  28.190   2.732  11.595
12910W        W78071  30.420  28.501   1.832
12911W        W78072  43.423  39.191  11.600
12912W        W78073  23.094   1.296  12.919
12913W        W78074  14.278  22.705  14.825
12914W        W78075  36.606  34.239  14.258
12915W        W78076   5.643  37.593   4.131
12916W        W78077  21.633  35.629  14.939
12917W        W78078   1.240  15.889   2.102
12918W        W78079  22.172  14.517   1.816
12919W        W78080  22.608   2.339  12.392
12920W        W78081  39.887  29.324   1.322
12921W        W78082  14.639   9.887   3.758
12922W        W78083  42.649  19.232   0.933
12923W        W78084  30.101  21.933  12.101
12924W        W78085  23.251  25.192  10.440
12925W        W78086  27.679   1.826  11.547
12926W        W78087  35.493  27.705   3.588
12927W        W78088  29.615  17.053   3.700
12928W        W78089  14.658  23.588  11.179
12929W        W78090  41.261  34.930   3.827
12930W        W78091  38.412  43.369   4.203
12931W        W78092  25.927  20.557  14.246
12932W        W78093   9.573  33.495   4.962
12933W        W78094  31.415  10.362   3.228
12934W        W78095  19.999  19.514   3.254
12935W        W78096  12.977   5.871  13.393
12936W        W78097  28.993  28.227  13.851
12937W        W78098  36.803  21.122   3.419
12938W        W78099  24.235   2.761   2.197
12939W        W78100   2.721  37.768   0.412
12940W        W78101  33.026  25.660  10.647
12941W        W78102  27.009  23.063  14.857
12942W        W78103  20.577  17.408  12.235
12943W        W78104  30.596  25.707   3.321
12944W        W78105  41.077  33.224   0.287
12945W        W78106  43.856  28.026   4.166
12946W        W78107  41.779   6.765  13.653
12947W        W78108  19.619  41.194   4.097
12948W        W78109  35.426  43.751   3.219
12949W        W78110  25.683  17.242   4.571
12950W        W78111  19.454  35.458   0.485
12951W        W78112  24.432  38.481   0.932
12952W        W78113  17.804   6.414   3.904
12953W        W78114  27.442   0.151  11.602
12954W        W78115   6.381   1.230  11.579
12955W        W78116  19.731  38.946  11.541
12956W        W78117  22.573  12.076  12.610
12957W        W78118  31.979  29.918   1.686
12958W        W78119  21.760   9.154  13.386
12959W        W78120   3.628  41.066  11.965
12960W        W78121  10.400  36.339   1.277
12961W        W78122  18.472   0.805  13.007
12962W        W78123  41.532  44.298  10.900
12963W        W78124  35.911  10.714   0.145
12964W        W78125  14.542  22.625  12.597
12965W        W78126  18.075  21.265   3.834
12966W        W78127  17.493  43.801   4.620
12967W        W78128  33.916   9.681  11.471
12968W        W78129  26.033  39.990   4.524
12969W        W78130  35.097  39.781   1.921
12970W        W78131  16.730   0.028   9.789
12971W        W78132   5.106  35.660  13.295
12972W        W78133   2.164  36.836   0.912
12973W        W78134  37.805   5.608   2.325
12974W        W78135  25.681  12.548  13.896
12975W        W78136  39.329  15.942   2.289
12976W        W78137  21.976  10.221   3.701
12977W        W78138  34.049   2.191   0.741
12978W        W78139  30.677  23.559   1.316
12979W        W78140  41.364  31.050  11.942
12980W        W78141  21.279  26.058   3.840
12981W        W78142  24.610   2.742   0.874
12982W        W78143  34.754  30.898  14.475
12983W        W78144  35.198  36.029   4.119
12984W        W78145  14.112  18.542  11.400
12985W        W78146   5.720  16.790   1.343
12986W        W78147  44.532  43.295  13.525
12987W        W78148  20.532  35.416  13.454
12988W        W78149  32.906   2.409   1.378
12989W        W78150  20.086  43.513   2.296
12990W        W78151   5.725  15.990   0.101
12991W        W78152  15.381  26.191  13.908
12992W        W78153  22.225   0.749  11.120
12993W        W78154  38.749  44.447  12.995
12994W        W78155  32.164  31.033   3.616
12995W        W78156  11.861  15.952  14.873
12996W        W78157  38.048  41.013  13.837
12997W        W78158   3.410  34.540   2.697
12998W        W78159  11.228  30.840   2.348
12999W        W78160  10.620  22.026   0.697
13000W        W78161  40.956  31.205   4.818
13001W        W78162  11.034  14.729  13.068
13002W        W78163  42.033   1.033   0.429
13003W        W78164   8.163  20.571   0.397
13004W        W78165  22.975  43.491   3.223
13005W        W78166  37.331  31.426  12.496
13006W        W78167  39.361  29.583   3.129
13007W        W78168  40.438   9.568  11.098
13008W        W78169  25.925  12.379   2.359
13009W        W78170  18.783  19.064   3.377
13010W        W78171  38.612  24.994  14.340
13011W        W78172  15.125  18.215   1.192
13012W        W78173  16.058   1.810  11.640
13013W        W78174  28.798   1.003   1.828
13014W        W78175   0.980   9.738   2.739
13015W        W78176   6.278   5.897   3.969
13016W        W78177  21.971  11.881   0.670
13017W        W78178  28.867  38.719  13.841
13018W        W78179  39.799  27.024   0.660
13019W        W78180  13.755   3.865   3.855
13020W        W78181  11.490  43.219  11.583
13021W        W78182  32.442  10.181   4.393
13022W        W78183  23.770  42.062   1.486
13023W        W78184  22.136  38.262   2.398
13024W        W78185  40.563  12.101   3.653
13025W        W78186  14.913  16.294  10.678
13026W        W78187  16.445  44.217   5.304
13027W        W78188  34.511   9.392   4.152
13028W        W78189   6.370   2.854   0.056
13029W        W78190  11.354  36.442   2.261
13030W        W78191   7.512  30.405  11.335
13031W        W78192  22.063  31.034  14.692
13032W        W78193  22.071   2.761   4.390
13033W        W78194  40.028  36.806   3.821
13034W        W78195  21.952  11.775  11.420
13035W        W78196   7.781  15.281   2.776
13036W        W78197  14.478  32.583   0.751
13037W        W78198   3.326   4.604   0.257
13038W        W78199  42.539  32.909  11.886
13039W        W78200   2.584  23.720   4.898
13040W        W78201  41.468  23.558  10.940
13041W        W78202  18.093  27.813   2.444
13042W        W78203  44.520   0.843  13.822
13043W        W78204  27.242  39.472   2.200
13044W        W78205  42.316   1.811   2.708
13045W        W78206  42.237  38.012  10.423
13046W        W78207  33.892  23.658   4.496
13047W        W78208  34.587  12.133  11.092
13048W        W78209  13.745  24.144   2.798
13049W        W78210  21.508  13.227   0.722
13050W        W78211  14.375  29.015  13.085
13051W        W78212  36.361   7.383  10.701
13052W        W78213   4.915  19.750  12.583
13053W        W78214  42.493  16.759   4.269
13054W        W78215  35.900  23.775  12.431
13055W        W78216  27.145  31.909   3.202
13056W        W78217  40.405  39.014  14.229
13057W        W78218  16.651   2.352  14.040
13058W        W78219   3.918  14.670  14.935
13059W        W78220  26.263  11.913  14.507
13060W        W78221  38.859   0.161  10.729
13061W        W78222   6.323   4.756   0.039
13062W        W78223  30.724  31.377  11.177
13063W        W78224   2.911  34.600   4.423
13064W        W78225  24.269  10.686  13.943
13065W        W78226  28.237   0.985   4.208
13066W        W78227   7.425  25.111  12.984
13067W        W78228  43.064  44.767   3.701
13068W        W78229  14.265  40.702  10.150
13069W        W78230  16.674   8.016  14.546
13070W        W78231  13.242  28.428   4.134
13071W        W78232   7.798  43.772  12.145
13072W        W78233  18.203  17.623  13.853
13073W        W78234  44.344  16.785  10.703
13074W        W78235   8.168  22.023   2.764
13075W        W78236  13.239  15.470   0.421
13076W        W78237  25.460   2.660  14.425
13077W        W78238  41.977  18.227   4.686
13078W        W78239  35.206  35.038   2.242
13079W        W78240  25.231  19.606   2.229
13080W        W78241  11.139   2.318  14.553
13081W        W78242   9.317  30.196   1.247
13082W        W78243  23.945  17.217   2.199
13083W        W78244   8.891  29.546   1.465
13084W        W78245  15.923  13.098   4.110
13085W        W78246  18.325  18.263   0.244
13086W        W78247  20.279   4.907   4.532
13087W        W78248   4.211  14.122   2.803
13088W        W78249  16.826  44.432   1.417
13089W        W78250  39.713   1.659   0.439
13090W        W78251  41.431   8.482   2.759
13091W        W78252  13.560  36.880  14.810
13092W        W78253  34.665  42.939   3.175
13093W        W78254  31.399  32.914  12.062
13094W        W78255  12.729  34.023   3.299
13095W        W78256  42.187   4.892   2.829
13096W        W78257  37.761  44.929  12.057
13097W        W78258   7.280  40.932  13.903
13098W        W78259  13.796  21.718   4.184
13099W        W78260  33.057   9.856   2.837
13100W        W78261   7.817  15.237  12.616
13101W        W78262  36.104   5.771  12.196
13102W        W78263  15.537  14.265  10.069
13103W        W78264  41.957  24.106   1.649
13104W        W78265  10.313  11.358  11.123
13105W        W78266   0.803   6.923  14.287
13106W        W78267  36.875  38.575   1.717
13107W        W78268  27.140  25.545   0.434
13108W        W78269  42.491  36.902  14.939
13109W        W78270  19.962  44.045  10.183
13110W        W78271  11.387  25.129   5.237
13111W        W78272  35.209   5.892   1.300
13112W        W78273  43.396   9.885   2.423
13113W        W78274  19.272  13.245   2.776
13114W        W78275  36.449  25.400   2.359
13115W        W78276  11.155   1.158   1.728
13116W        W78277  21.216   0.277  14.970
13117W        W78278  40.322  12.450   0.567
13118W        W78279  33.081  37.294  13.159
13119W        W78280  43.652   1.164  11.963
13120W        W78281  15.131   8.128   2.646
13121W        W78282  23.706  11.077   1.577
13122W        W78283  11.690  29.520   0.502
13123W        W78284  39.523  44.725   0.231
13124W        W78285   7.945  37.626  13.027
13125W        W78286  23.308  33.127  13.819
13126W        W78287  14.158  39.321   3.149
13127W        W78288  18.370  21.023   4.666
13128W        W78289   7.310  40.525  13.082
13129W        W78290  41.326  43.922   2.807
13130W        W78291   3.958  36.094   0.510
13131W        W78292  29.997  37.268  10.676
13132W        W78293  32.502  21.165  11.418
13133W        W78294  28.093  17.450  13.757
13134W        W78295  10.306   3.623   2.331
13135W        W78296  33.605  15.657   5.051
13136W        W78297  22.080  28.174   3.526
13137W        W78298  43.022  16.563  13.605
13138W        W78299  40.814  25.508  11.715
13139W        W78300  16.238  44.309   4.260
13140W        W78301  40.992  22.682  13.213
13141W        W78302  42.988  27.140   2.180
13142W        W78303   8.695  36.782   0.935
13143W        W78304  22.529  31.273   3.348
13144W        W78305  44.559  33.592  14.520
13145W        W78306  44.710  14.074   2.372
13146W        W78307  11.458   2.882   2.518
13147W        W78308  40.849  42.601  13.435
13148W        W78309  27.630  30.581  12.124
13149W        W78310  20.752  31.979   3.784
13150W        W78311  28.547  21.599  13.402
13151W        W78312  43.788  24.484   0.478
13152W        W78313  26.733  43.354  14.844
13153W        W78314  37.848  34.885  11.568
13154W        W78315  13.029  30.005   0.899
13155W        W78316  34.916  39.954  13.928
13156W        W78317  30.388   6.819   4.667
13157W        W78318   8.021  26.109   2.773
13158W        W78319  12.286  11.278   4.434
13159W        W78320  14.718  39.053  13.018
13160W        W78321  32.822   6.688  12.880
13161W        W78322  22.026  12.155  10.940
13162W        W78323   1.717  38.448   3.954
13163W        W78324  22.508   7.700   0.651
13164W        W78325  33.194  40.182   0.656
13165W        W78326  23.756  35.040   3.825
13166W        W78327  12.680  22.680   3.266
13167W        W78328  33.507  24.411   4.649
13168W        W78329   3.212  38.145  12.448
13169W        W78330  33.896  17.061   3.624
13170W        W78331  44.274  41.495   1.435
13171W        W78332  17.297  11.593  12.515
13172W        W78333  16.885  21.742   2.911
13173W        W78334  24.594  25.754   3.364
13174W        W78335   5.290  11.911   0.842
13175W        W78336  24.901  34.974   3.985
13176W        W78337   3.990   2.302   1.603
13177W        W78338  37.396  24.983   1.193
13178W        W78339  30.043  25.678  12.065
13179W        W78340  12.840  32.034  13.914
13180W        W78341  25.263  41.538   1.783
13181W        W78342  36.158  40.337  12.640
13182W        W78343  41.348  13.894   4.630
13183W        W78344  24.136   4.006   4.868
13184W        W78345  31.117  21.915   0.491
13185W        W78346  15.095  19.770  13.400
13186W        W78347   9.533  12.658   4.247
13187W        W78348  24.503  44.837  10.613
13188W        W78349   4.311  19.910  13.870
13189W        W78350  42.828  24.109  12.909
13190W        W78351  18.076   4.951   1.312
13191W        W78352  34.877  30.067  12.972
13192W        W78353   0.309  24.079  11.417
13193W        W78354  14.689  10.556   3.292
13194W        W78355  41.976  19.313  13.968
13195W        W78356  44.338   0.879   0.518
13196W        W78357  43.461  16.301  14.498
13197W        W78358  31.568  40.502   1.963
13198W        W78359  17.071  36.086   4.562
13199W        W78360   5.202   2.774   3.207
13200W        W78361  28.935   4.921  13.125
13201W        W78362   8.958   9.793  12.057
13202W        W78363  37.849  31.980   3.148
13203W        W78364  19.017  14.443   3.247
13204W        W78365  17.903  15.725  12.540
13205W        W78366  29.606  23.274  13.876
13206W        W78367  42.376  43.256  13.785
13207W        W78368  16.039  19.769   3.711
13208W        W78369   8.360  41.383   3.031
13209W        W78370   7.333  16.601   1.391
13210W        W78371   6.708   3.752   2.514
13211W        W78372  18.717  29.078   3.080
13212W        W78373  15.099  12.494  14.119
13213W        W78374  28.781  21.060   2.295
13214W        W78375  35.538  12.612   2.815
13215W        W78376  44.960  21.143   0.334
13216W        W78377  40.061  41.924   1.791
13217W        W78378  21.850  13.668   1.342
13218W        W78379  32.376  44.438   4.532
13219W        W78380  18.110  23.816  10.770
13220W        W78381   0.887  39.868  14.064
13221W        W78382  13.310  12.196  10.643
13222W        W78383  36.544  24.665   4.617
13223W        W78384  35.408  36.418  12.364
13224W        W78385  24.320  10.706  12.557
13225W        W78386  38.780  38.669   4.023
13226W        W78387  44.503  24.976   2.771
13227W        W78388  25.825  26.535   2.785
13228W        W78389  39.765  20.486   1.941
13229W        W78390  17.585  19.526  13.195
13230W        W78391  17.700  13.724   0.204
13231W        W78392  13.269  38.876   3.565
13232W        W78393   2.387  38.335  11.609
13233W        W78394   7.444  25.893  14.804
13234W        W78395  16.885  22.182   3.209
13235W        W78396  37.593  42.446   2.105
13236W        W78397  15.864  30.878  11.773
13237W        W78398  31.995  36.005  11.541
13238W        W78399  41.367  36.374   4.414
13239W        W78400  14.795   1.400   2.595
13240W        W78401  15.128   2.995   2.002
13241W        W78402  35.684  20.280   2.315
13242W        W78403  33.491  37.365  11.010
13243W        W78404   8.452  43.300  13.119
13244W        W78405  33.829  26.665  13.644
13245W        W78406  29.629   3.615   5.120
13246W        W78407  29.173  40.478   9.855
13247W        W78408   8.411  41.731  14.041
13248W        W78409  20.541   5.423   1.825
13249W        W78410  14.140   8.721   2.601
13250W        W78411  19.591  12.533   2.072
13251W        W78412   4.105   3.523   1.902
13252W        W78413   1.471  29.549   1.217
13253W        W78414  40.929   3.655  12.006
13254W        W78415   7.277  39.875  11.150
13255W        W78416  28.844  33.085   2.021
13256W        W78417  30.599   8.499  13.386
13257W        W78418   5.268  12.994   4.279
13258W        W78419   4.204  19.532  10.761
13259W        W78420  39.604  22.169  11.537
13260W        W78421  16.276   1.184  13.816
13261W        W78422  26.489   9.652  10.335
13262W        W78423  35.782  41.158  11.129
13263W        W78424   1.730   0.796  10.746
13264W        W78425  43.671   1.464   4.136
13265W        W78426  26.603  39.496  14.055
13266W        W78427  26.678  28.503   2.210
13267W        W78428   6.185   2.290  13.753
13268W        W78429  40.574   1.996  13.889
13269W        W78430   6.729  42.479  13.476
13270W        W78431   4.495  43.489   0.935
13271W        W78432  23.757  20.433  14.364
13272W        W78433  22.407   8.865   0.492
13273W        W78434  27.377  13.742   0.542
13274W        W78435  32.847  11.727  12.976
13275W        W78436   9.795  28.582   4.905
13276W        W78437   7.353  43.435   1.326
13277W        W78438  35.577  11.768  14.530
13278W        W78439   8.623   5.442   0.386
13279W        W78440   5.383  23.658   1.789
13280W        W78441   9.285  44.950  11.222
13281W        W78442  36.103   8.703   1.304
13282W        W78443  11.761  24.694   3.289
13283W        W78444  14.740   4.105   1.302
13284W        W78445   2.976  12.383   2.804
13285W        W78446  43.471   2.248   1.369
13286W        W78447   1.780  20.204  14.762
13287W        W78448  40.074  32.524   1.685
13288W        W78449   1.778   6.234   2.411
13289W        W78450  40.399   4.480  14.940
13290W        W78451   2.192  15.138  14.320
13291W        W78452  31.153  33.530   0.169
13292W        W78453  43.258   9.781  14.987
13293W        W78454  28.036  30.832   3.160
13294W        W78455  20.078   0.388  10.628
13295W        W78456  44.418  18.442  12.868
13296W        W78457  32.432   3.911  14.007
13297W        W78458  38.905   3.998  12.628
13298W        W78459  15.142  26.895   3.914
13299W        W78460  37.304   7.124   4.787
13300W        W78461   2.898  27.846   2.860
13301W        W78462  18.769  24.567  12.430
13302W        W78463  17.317  35.592  13.094
13303W        W78464  20.502  39.520   2.781
13304W        W78465  22.756  14.574   4.143
13305W        W78466  12.827  24.021   3.770
13306W        W78467  42.320  30.584  12.416
13307W        W78468   2.445   2.027  13.862
13308W        W78469  39.728  11.641  14.619
13309W        W78470  24.539  28.971  12.853
13310W        W78471  44.371  12.695  14.772
13311W        W78472   2.194  17.826  11.186
13312W        W78473  16.401  34.689  14.925
13313W        W78474  42.071   4.216  10.885
13314W        W78475  27.948  21.723  10.862
13315W        W78476  26.439  25.590  14.822
13316W        W78477  15.900  10.124   5.009
13317W        W78478  18.237  26.087   2.226
13318W        W78479  12.853  36.250   1.378
13319W        W78480  33.528  43.036   1.356
13320W        W78481  25.946  36.985  12.319
13321W        W78482   5.664  33.027   3.725
13322W        W78483   0.471   8.736  12.518
13323W        W78484  42.240  43.679  11.132
13324W        W78485  37.064  39.543  12.047
13325W        W78486  43.009  42.501   4.615
13326W        W78487  39.002   0.124   3.674
13327W        W78488  24.386  41.974  11.448
13328W        W78489   2.913  30.096  13.542
13329W        W78490   8.929   5.932  12.273
13330W        W78491  17.097  19.673   4.562
13331W        W78492  29.995  11.166  12.183
13332W        W78493  23.356  34.043  13.621
13333W        W78494  14.721  17.046  12.066
13334W        W78495  28.427  14.266   0.444
13335W        W78496  20.052  36.292  10.194
13336W        W78497  16.900  31.827  14.486
13337W        W78498  40.355  19.100  10.662
13338W        W78499  30.965   9.190  11.086
13339W        W78500  17.627  44.535   0.094
13340W        W78501  29.468   3.027  12.987
13341W        W78502  43.888   3.898  11.473
13342W        W78503  32.071  31.626  11.197
13343W        W78504   3.338  25.769   9.606
13344W        W78505  37.139   5.739  13.273
13345W        W78506  35.220   2.542  14.527
13346W        W78507  41.371  31.855  13.446
13347W        W78508   2.713  40.979   4.005
13348W        W78509  20.958  35.582  13.196
13349W        W78510  10.733  37.367  14.577
13350W        W78511  38.734  17.674   3.559
13351W        W78512   5.455  36.062  10.620
13352W        W78513  37.504  35.552   0.224
13353W        W78514   0.571  17.157   3.324
13354W        W78515  13.165  15.435  13.391
13355W        W78516   8.627  34.970  11.971
13356W        W78517   5.672  22.783  10.612
13357W        W78518  29.474  42.410   2.358
13358W        W78519  38.372  29.465   2.150
13359W        W78520   9.798  34.677  12.660
13360W        W78521  15.823  12.236   4.041
13361W        W78522  11.240  31.036  13.794
13362W        W78523  34.860  24.262  10.676
13363W        W78524  13.615   3.753  13.100
13364W        W78525   0.385   6.938   2.731
13365W        W78526  28.897   0.313  11.626
13366W        W78527  21.074   8.651   2.953
13367W        W78528  24.961   2.774  14.379
13368W        W78529   5.958   7.231  13.917
13369W        W78530   4.961  17.213  10.743
13370W        W78531   4.754  14.364  12.424
13371W        W78532  22.946  39.682   5.385
13372W        W78533  13.102  35.959  12.965
13373W        W78534  30.747  42.384  11.925
13374W        W78535  36.501   4.747  12.084
13375W        W78536   6.601  38.332  14.560
13376W        W78537  43.653  15.229   2.720
13377W        W78538  29.766  36.219   1.207
13378W        W78539  38.633  15.289  12.579
13379W        W78540  10.294  34.957  11.864
13380W        W78541  11.880  31.397  11.260
13381W        W78542   4.415   3.913   1.964
13382W        W78543   2.416  34.120  14.023
13383W        W78544  31.120  12.603   4.772
13384W        W78545  24.208  11.140   1.428
13385W        W78546  28.677   7.291   3.692
13386W        W78547   2.757   8.251  13.575
13387W        W78548  38.834  42.486  11.633
13388W        W78549  43.579  27.028  11.868
13389W        W78550  44.117  12.852  13.839
13390W        W78551  24.554  14.300  11.562
13391W        W78552   7.845  37.513   2.899
13392W        W78553  28.167  36.309   2.098
13393W        W78554   5.299  32.612   4.153
13394W        W78555  31.086  14.736   4.328
13395W        W78556  40.209  38.425   1.974
13396W        W78557  16.366  32.327  12.454
13397W        W78558  19.805  24.893   1.374
13398W        W78559  12.799  35.040   2.786
13399W        W78560  40.864  31.349   2.320
13400W        W78561  14.257   7.268  12.559
13401W        W78562  12.311  24.707   1.898
13402W        W78563  23.503  41.563   1.943
13403W        W78564  40.316  15.273  14.793
13404W        W78565   8.200  26.646   5.029
13405W        W78566  16.602  18.540   3.241
13406W        W78567  34.505  42.012  11.142
13407W        W78568  11.275  36.652  12.855
13408W        W78569   3.432   1.920  10.137
13409W        W78570  44.848   2.920  13.862
13410W        W78571  18.213  31.331   2.246
13411W        W78572  13.639  27.141  13.016
13412W        W78573  15.582  37.923   2.857
13413W        W78574  12.778  17.439   1.918
13414W        W78575  19.318  35.594  12.400
13415W        W78576  40.829  24.713  11.258
13416W        W78577  20.673  39.906   9.707
13417W        W78578  36.013   3.630  14.736
13418W        W78579  44.728  44.308  11.998
13419W        W78580  25.521  29.909  13.515
13420W        W78581  34.976  29.538   4.864
13421W        W78582  27.987  42.221   2.705
13422W        W78583  11.147   9.657  12.190
13423W        W78584   6.681  35.943   2.182
13424W        W78585  21.269  15.886  13.879
13425W        W78586  33.650  27.572   0.060
13426W        W78587  37.140   2.548  14.754
13427W        W78588   8.432  17.376  13.029
13428W        W78589  27.504  11.480   3.265
13429W        W78590  24.980  25.390  13.819
13430W        W78591  25.853  30.081  11.108
13431W        W78592  24.935   3.913  11.070
13432W        W78593  14.191  22.025   0.387
13433W        W78594  35.822   0.611   2.667
13434W        W78595   2.890  21.994   1.326
13435W        W78596  37.941  38.846   2.252
13436W        W78597  12.089   8.690   3.589
13437W        W78598  42.067   3.494  13.072
13438W        W78599  41.428  27.041  13.951
13439W        W78600   9.847  10.900  13.566
13440W        W78601   5.929  33.543   0.772
13441W        W78602  24.616  27.051  11.133
13442W        W78603  24.396  23.603  11.637
13443W        W78604  22.680  39.576  12.247
13444W        W78605  29.360  16.067  14.013
13445W        W78606  11.399  34.034  14.382
13446W        W78607  28.835  34.606  11.867
13447W        W78608   1.299   0.730  12.402
13448W        W78609  42.599  34.419  11.858
13449W        W78610   8.791   5.844  11.296
13450W        W78611  21.209  29.053  12.898
13451W        W78612  10.125  30.923   4.569
13452W        W78613  42.745  12.889   3.702
13453W        W78614  16.677  15.704  11.102
13454W        W78615   9.371  43.721  12.381
13455W        W78616  24.827  14.545  13.541
13456W        W78617  37.576  26.482  10.259
13457W        W78618  25.907   0.809  12.084
13458W        W78619  11.864  18.282   5.186
13459W        W78620  33.170  13.340   2.300
13460W        W78621  11.691   7.295  12.883
13461W        W78622  44.510   4.362  12.966
13462W        W78623  40.782   5.551  13.316
13463W        W78624  21.149  27.108   2.932
13464W        W78625  26.094  38.962   2.486
13465W        W78626  32.708  32.610  12.958
13466W        W78627  17.557  39.595   1.427
13467W        W78628   8.092  21.531  11.075
13468W        W78629  31.724  13.884  11.999
13469W        W78630   2.057  38.527   3.567
13470W        W78631  21.037  37.472  12.199
13471W        W78632  31.686  22.179   2.690
13472W        W78633  17.823  30.977   2.287
13473W        W78634  29.208  16.914  14.169
13474W        W78635  16.331  28.128   0.729
13475W        W78636   0.229   5.246   3.222
13476W        W78637   9.127  36.548  14.018
13477W        W78638  33.518  42.062  13.571
13478W        W78639  20.464  36.923   3.688
13479W        W78640  31.413  16.089  12.684
13480W        W78641  34.922  34.018  10.651
13481W        W78642  11.280  33.567  13.549
13482W        W78643  36.147  26.241  12.534
13483W        W78644  20.580  12.868   3.220
13484W        W78645  22.893  29.447  12.833
13485W        W78646  30.526  29.862   1.010
13486W        W78647  43.377   1.030   0.363
13487W        W78648  32.917   5.259  14.930
13488W        W78649  15.513  19.810   3.670
13489W        W78650  42.526  10.221  11.316
13490W        W78651  22.012   8.783   3.653
13491W        W78652  14.688  24.099  10.553
13492W        W78653  14.788   4.748  14.377
13493W        W78654  14.343  12.045  10.612
13494W        W78655  40.843   7.965  13.624
13495W        W78656  24.951   2.041  12.801
13496W        W78657   1.008  18.136   2.313
13497W        W78658   8.880   5.629  13.118
13498W        W78659  15.860  16.962  14.626
13499W        W78660  29.871  19.836   4.550
13500W        W78661  20.688  37.389   5.050
13501W        W78662  41.302  32.069   2.604
13502W        W78663  33.588  13.912   4.504
13503W        W78664   7.913  10.596   4.180
13504W        W78665  39.328  14.879   3.671
13505W        W78666   2.963   7.095   1.753
13506W        W78667  42.347   1.998  10.502
13507W        W78668  42.260  23.221  10.742
13508W        W78669  44.919   3.244  13.063
13509W        W78670  20.170   4.210   3.851
13510W        W78671  32.714  32.868  10.733
13511W        W78672  19.716  13.385   0.295
13512W        W78673  36.284  14.705  12.910
13513W        W78674  27.756   1.968   1.844
13514W        W78675  11.915  27.479   0.094
13515W        W78676  24.074  10.745  14.423
13516W        W78677  29.584  30.122   0.235
13517W        W78678  24.221  42.394   2.685
13518W        W78679  22.490  23.443   0.846
13519W        W78680   8.602  22.508  11.149
13520W        W78681  41.207  43.211   5.026
13521W        W78682  23.703  33.909  10.786
13522W        W78683  10.886  15.814  12.109
13523W        W78684  41.817  42.349   1.512
13524W        W78685  20.623  44.100  10.650
13525W        W78686  38.030  24.078  11.232
13526W        W78687  33.390   3.932   5.045
13527W        W78688  34.146  19.290  13.673
13528W        W78689  39.270  15.697   2.765
13529W        W78690  32.443  18.055  13.299
13530W        W78691  39.920  36.939  11.796
13531W        W78692  41.429  20.144  10.696
13532W        W78693  44.150  33.931   1.519
13533W        W78694  32.576  22.508  11.184
13534W        W78695  22.751  35.291  14.165
13535W        W78696   2.584  32.987   1.213
13536W        W78697  38.973  26.166   1.901
13537W        W78698  18.118  23.020  12.017
13538W        W78699  10.733  36.008  13.373
13539W        W78700  39.036   5.250   2.410
13540W        W78701  29.362   8.525   1.761
13541W        W78702  24.478  42.374   3.133
13542W        W78703  18.947  15.617   5.442
13543W        W78704  25.304  16.262   2.410
13544W        W78705   8.740  19.753   2.308
13545W        W78706  25.201  23.059  10.691
13546W        W78707  22.053  30.362  13.830
13547W        W78708  38.728  43.319  14.124
13548W        W78709   5.524  35.930   3.643
13549W        W78710  11.914  37.736   3.768
13550W        W78711  36.566  40.951   1.402
13551W        W78712   6.223  20.432  11.086
13552W        W78713   2.396  13.377  10.723
13553W        W78714  39.382  44.921   4.506
13554W        W78715  35.859  12.119  10.575
13555W        W78716   9.602  24.986   3.267
13556W        W78717   4.160  34.715   0.860
13557W        W78718  15.141  18.985  13.849
13558W        W78719  13.593  32.674  12.683
13559W        W78720   0.438  13.871  14.272
13560W        W78721  43.036  32.961  13.900
13561W        W78722  40.375  39.029  10.755
13562W        W78723  22.605  40.088  12.125
13563W        W78724  19.099  21.285   0.206
13564W        W78725  14.557  10.813  14.911
13565W        W78726  23.548  33.832  12.733
13566W        W78727   7.791  28.499  10.625
13567W        W78728  39.331  18.609   2.270
13568W        W78729  11.750  16.027   2.284
13569W        W78730   1.391  15.199   1.245
13570W        W78731  31.071  34.512  11.640
13571W        W78732  36.997  38.527  12.263
13572W        W78733   1.541   8.670  12.750
13573W        W78734   0.730  12.002   1.367
13574W        W78735   3.952  17.186  12.536
13575W        W78736  22.917  30.562  11.996
13576W        W78737  22.188  10.183  10.700
13577W        W78738   7.862   6.734  11.032
13578W        W78739  36.620  17.671  12.506
13579W        W78740   8.644  25.645  12.443
13580W        W78741  11.362  42.396   4.974
13581W        W78742  15.177  28.576   3.890
13582W        W78743  25.082  37.515   2.206
13583W        W78744  36.445  14.666   1.983
13584W        W78745   8.545   7.247  10.817
13585W        W78746  14.657   2.821   2.194
13586W        W78747   7.166  34.430   0.397
13587W        W78748  10.430  22.711   3.081
13588W        W78749  31.143   1.635  12.876
13589W        W78750  44.349  24.041   1.806
13590W        W78751  24.529  16.597   3.673
13591W        W78752   2.923   6.455   4.183
13592W        W78753   3.347   4.748  13.692
13593W        W78754   3.801  40.340   3.530
13594W        W78755  14.433   4.920   1.869
13595W        W78756   3.705  27.443  13.599
13596W        W78757  21.136  34.895   1.382
13597W        W78758   3.512   1.224   0.339
13598W        W78759  12.637  18.812  13.872
13599W        W78760  35.683  31.844  12.912
13600W        W78761  17.214   5.275   1.345
13601W        W78762  12.289  35.399   1.750
13602W        W78763  18.723  32.182   4.162
13603W        W78764   7.246  26.522   2.358
13604W        W78765  27.192  12.149  13.610
13605W        W78766   3.869  39.053   0.891
13606W        W78767  37.862  38.328   2.063
13607W        W78768   2.407  19.056  13.910
13608W        W78769  24.471  19.376   4.406
13609W        W78770  29.482  39.305   0.953
13610W        W78771  42.037   6.483  10.057
13611W        W78772  10.550  40.746  10.681
13612W        W78773  22.209  37.381   3.370
13613W        W78774  42.505  22.967   4.684
13614W        W78775  37.592   8.901  13.365
13615W        W78776  40.447  32.163   0.458
13616W        W78777  40.387  28.426  12.975
13617W        W78778  13.445  21.106   2.286
13618W        W78779  11.288  12.867  13.354
13619W        W78780  39.083  24.245  11.096
13620W        W78781   6.624  18.182   1.853
13621W        W78782  29.978  24.059  14.004
13622W        W78783  10.187  22.016  14.472
13623W        W78784   9.014  23.757  12.156
13624W        W78785  42.247  12.605   0.627
13625W        W78786  23.607  39.918  14.321
13626W        W78787  28.477  33.573  11.883
13627W        W78788  23.092   1.010   4.197
13628W        W78789   9.647  42.866  14.556
13629W        W78790  13.303  39.467  12.160
13630W        W78791   8.689  44.146  12.963
13631W        W78792   3.911  42.988  14.246
13632W        W78793  17.827  43.484   2.682
13633W        W78794  22.955  17.641   9.582
13634W        W78795  27.386  44.282  11.155
13635W        W78796  18.265  42.527   4.186
13636W        W78797  30.936  26.643  13.510
13637W        W78798   0.884  31.690  13.602
13638W        W78799  23.432   2.316   3.677
13639W        W78800  18.975   5.957   1.409
13640W        W78801  17.157  29.379  12.607
13641W        W78802  40.572  42.357   3.115
13642W        W78803  43.300   1.307  12.907
13643W        W78804   7.731  19.635  12.628
13644W        W78805  27.948  27.527   1.220
13645W        W78806  35.893  34.914   3.160
13646W        W78807  40.525  17.987   2.765
13647W        W78808   7.831  29.150   4.032
13648W        W78809  38.978  34.107   0.948
13649W        W78810  43.556  44.299  10.603
13650W        W78811  18.773  26.377  14.264
13651W        W78812  24.047   4.516  14.815
13652W        W78813   1.644  41.846   1.496
13653W        W78814  27.930   9.466   1.656
13654W        W78815  12.978  28.937  12.229
13655W        W78816   9.840  27.047   0.766
13656W        W78817   6.883   0.065  11.512
13657W        W78818  30.389   0.956  13.289
13658W        W78819  16.858  30.357   3.754
13659W        W78820  12.746   4.610  11.982
13660W        W78821  41.546   2.986   4.444
13661W        W78822  31.956  11.312  10.568
13662W        W78823  21.244  21.739  12.108
13663W        W78824   5.234  25.789   1.212
13664W        W78825  21.167  36.797  12.499
13665W        W78826  15.753  39.366   1.804
13666W        W78827  10.175   7.265  13.923
13667W        W78828  28.128  42.785  10.714
13668W        W78829  10.962  35.967   0.449
13669W        W78830   1.536   1.735  11.471
13670W        W78831  31.883  10.762   2.357
13671W        W78832   5.919  39.430  14.419
13672W        W78833  35.326  38.840   2.867
13673W        W78834  27.452   7.177  12.992
13674W        W78835  44.731  24.472   4.404
13675W        W78836  42.268  38.120  14.292
13676W        W78837   4.246   1.506   3.816
13677W        W78838  24.486  24.870   1.303
13678W        W78839   3.431  13.530  12.864
13679W        W78840  25.511  37.053   1.449
13680W        W78841   7.381  28.698  14.861
13681W        W78842   7.314  11.035  10.239
13682W        W78843  11.140  29.143  12.514
13683W        W78844  22.969  40.952  13.414
13684W        W78845  17.471  16.239   1.624
13685W        W78846  23.117   3.256   0.523
13686W        W78847  16.518  19.805  13.452
13687W        W78848  36.264   8.753  13.750
13688W        W78849  34.511  34.923  13.277
13689W        W78850   5.836  38.577   3.713
13690W        W78851  39.109  38.826   0.277
13691W        W78852  31.391  17.398  14.787
13692W        W78853  14.718  13.964  11.145
13693W        W78854  22.006  18.806   2.888
13694W        W78855  27.268   9.166   3.846
13695W        W78856  26.290  29.043  12.221
13696W        W78857  20.576  10.225   2.801
13697W        W78858  18.867   1.683   3.321
13698W        W78859  38.323  42.909   2.361
13699W        W78860   7.723  35.158  11.686
13700W        W78861  11.184   6.533  11.907
13701W        W78862  16.722  12.084  11.164
13702W        W78863  43.313  35.931  13.586
13703W        W78864  31.503  23.111   2.882
13704W        W78865  15.834  27.956  10.625
13705W        W78866  39.535   3.554  13.231
13706W        W78867  43.741   0.472  11.184
13707W        W78868  27.163   5.806  12.220
13708W        W78869  40.326  24.954  10.334
13709W        W78870  21.499  33.968  14.707
13710W        W78871  33.016   4.656   1.010
13711W        W78872   7.564  19.295  12.295
13712W        W78873   5.225   9.272  13.986
13713W        W78874   2.774  37.971   4.231
13714W        W78875  40.007  23.060   4.723
13715W        W78876  17.250   7.669  13.392
13716W        W78877   6.440  20.206  10.690
13717W        W78878   5.247   4.874   4.402
13718W        W78879  33.601  27.470   2.762
13719W        W78880  38.103   9.756   4.029
13720W        W78881  33.590  40.029  11.687
13721W        W78882  30.002  33.015  14.506
13722W        W78883  29.592  44.235   0.920
13723W        W78884  11.495   2.287   5.228
13724W        W78885  27.447  36.939   4.951
13725W        W78886   7.500  24.935  10.684
13726W        W78887  26.048  35.363   1.500
13727W        W78888  44.869  23.893  12.218
13728W        W78889  22.410  18.703  12.937
13729W        W78890  31.502  26.426   1.489
13730W        W78891  37.656  24.433  11.228
13731W        W78892  25.278  43.274  10.722
13732W        W78893  28.978  33.194  11.160
13733W        W78894   6.660   3.709   3.559
13734W        W78895  22.484  32.489  13.934
13735W        W78896  42.425  25.205  12.497
13736W        W78897  43.727  41.970  13.535
13737W        W78898  24.242  33.969  14.067
13738W        W78899  18.334  42.251   0.661
13739W        W78900  37.708  20.038   0.734
13740W        W78901   4.178  33.232   3.437
13741W        W78902   5.216  22.725   0.749
13742W        W78903   1.612  25.007   0.255
13743W        W78904  15.518  20.968   5.049
13744W        W78905  18.734   5.962  13.887
13745W        W78906  17.154  43.822  12.744
13746W        W78907  13.540  13.097   4.220
13747W        W78908  13.976  41.611  14.337
13748W        W78909   7.261  17.041  11.141
13749W        W78910  32.795  43.333  13.024
13750W        W78911  38.973  27.256   2.842
13751W        W78912   7.451   4.687  14.775
13752W        W78913  13.917  20.901   3.206
13753W        W78914  14.617  11.853   2.587
13754W        W78915  11.696  32.689   0.655
13755W        W78916  10.103  32.903  13.881
13756W        W78917  31.124  29.899  14.420
13757W        W78918  39.621  12.657  11.767
13758W        W78919  21.696  15.546   1.237
13759W        W78920  16.057  21.002   0.432
13760W        W78921  39.136  38.074  14.384
13761W        W78922  30.070  33.531  14.317
13762W        W78923   2.767  16.041   0.986
13763W        W78924  25.176   4.378  14.471
13764W        W78925  17.349  19.999   1.631
13765W        W78926  16.767  43.004  14.958
13766W        W78927  29.855  40.396  10.639
13767W        W78928  30.095   6.320  10.786
13768W        W78929  42.351  33.604  12.914
13769W        W78930   2.339  26.076  14.957
13770W        W78931  36.586  24.131   0.454
13771W        W78932   8.869   3.644  12.482
13772W        W78933  10.846  22.364   2.985
13773W        W78934  42.908  39.361  13.517
13774W        W78935  22.263  18.340   2.854
13775W        W78936   3.452  27.942   2.415
13776W        W78937  16.100   7.303  13.245
13777W        W78938   3.452  23.443   3.304
13778W        W78939  34.375  34.576  12.349
13779W        W78940  42.023   0.135  13.785
13780W        W78941  33.346  35.550   0.702
13781W        W78942  27.258  17.693   2.255
13782W        W78943   5.837  36.927   1.825
13783W        W78944   7.772  41.795  12.098
13784W        W78945  23.774   0.428   3.248
13785W        W78946   0.631  42.197  10.544
13786W        W78947  32.154  29.192   0.343
13787W        W78948  18.475   7.423  11.377
13788W        W78949  20.890  32.016   1.881
13789W        W78950  33.906   8.333   4.368
13790W        W78951   0.681  34.014  13.053
13791W        W78952  41.945  35.379  13.285
13792W        W78953   7.808  40.310  11.843
13793W        W78954  19.334  22.541  10.763
13794W        W78955  18.293  18.653  11.402
13795W        W78956  15.597   9.426   2.339
13796W        W78957   4.231  30.758   2.394
13797W        W78958  37.000   1.768  11.885
13798W        W78959  43.860  28.054  13.468
13799W        W78960   9.186  36.538   2.959
13800W        W78961  23.042  33.615  13.444
13801W        W78962  30.622  21.156   4.908
13802W        W78963   5.418  27.574   1.497
13803W        W78964  14.836   5.960  10.930
13804W        W78965  43.861  13.164  14.197
13805W        W78966   2.310  16.522   2.060
13806W        W78967  41.601  27.392  12.735
13807W        W78968  31.048  18.672  12.495
13808W        W78969  18.619   8.298   4.588
13809W        W78970   8.834  33.971   1.895
13810W        W78971  26.539  29.690  14.858
13811W        W78972  40.204  32.877   4.235
13812W        W78973  32.625  22.625   1.384
13813W        W78974  30.864  21.105   1.537
13814W        W78975  30.130   4.330  11.854
13815W        W78976  43.045  35.465  12.051
13816W        W78977  27.116  44.521   1.902
13817W        W78978  25.563  24.778  13.811
13818W        W78979  27.674  42.099   0.416
13819W        W78980  38.903  37.374   3.439
13820W        W78981   9.903  41.546   2.221
13821W        W78982  29.969  13.112  13.410
13822W        W78983  25.278  19.054   1.985
13823W        W78984  33.924  25.969  12.853
13824W        W78985  15.190  12.173  14.520
13825W        W78986   5.118   9.764  13.831
13826W        W78987  24.700  43.399  13.444
13827W        W78988  25.487  38.862  11.723
13828W        W78989  41.988   8.252  13.845
13829W        W78990  19.412  40.084  13.440
13830W        W78991  42.013  42.965  13.037
13831W        W78992  12.128  37.439   4.127
13832W        W78993  12.065  18.676   3.469
13833W        W78994  16.201   6.276  11.172
13834W        W78995  28.883  10.154   2.849
13835W        W78996  22.314  20.690  11.700
13836W        W78997   0.535  13.456   1.253
13837W        W78998  28.951  34.349  10.573
13838W        W78999  41.426  17.159  11.915
13839W        W79000  29.042  10.668  12.822
13840W        W79001  12.889  41.914  12.637
13841W        W79002  30.624   3.585  13.924
13842W        W79003  36.597   8.172  14.934
13843W        W79004   6.441  18.051  13.059
13844W        W79005  11.071  31.876   3.447
13845W        W79006   3.917  12.731  12.552
13846W        W79007  29.782  16.294   0.358
13847W        W79008  22.140  23.604   1.805
13848W        W79009  13.272   2.930  11.891
13849W        W79010  11.347  44.989   1.296
13850W        W79011  30.423  37.553  10.712
13851W        W79012  36.290  39.674   9.819
13852W        W79013  28.603  44.812   4.138
13853W        W79014  26.430  21.695  11.726
13854W        W79015  43.372  31.996  11.962
13855W        W79016  27.062   4.186  13.359
13856W        W79017  37.175  20.770   0.294
13857W        W79018  39.264  36.968  14.559
13858W        W79019  38.960  13.381   2.915
13859W        W79020  31.985  20.617  10.967
13860W        W79021  24.161  16.469   3.307
13861W        W79022  21.020  38.041   0.756
13862W        W79023  40.258   4.195  12.803
13863W        W79024  23.395   3.428   1.349
13864W        W79025  29.581  37.614  13.528
13865W        W79026  37.951  16.670  12.320
13866W        W79027  22.574   3.711   1.022
13867W        W79028   9.795   2.794  13.874
13868W        W79029  14.165  43.022   1.347
13869W        W79030  17.904  20.217  14.772
13870W        W79031   7.331  32.507  10.776
13871W        W79032   1.494  30.065   0.456
13872W        W79033   1.303  14.377   0.745
13873W        W79034  11.238  17.710   2.710
13874W        W79035  19.557   8.321  14.133
13875W        W79036  27.766   5.739   1.470
13876W        W79037  35.179  34.928   0.387
13877W        W79038  20.030  16.621   0.908
13878W        W79039   1.352  12.138   9.638
13879W        W79040  16.814  22.737  11.589
13880W        W79041  21.551  10.765  12.544
13881W        W79042  25.746   9.371   1.389
13882W        W79043   7.753   3.801   1.048
13883W        W79044  13.836  10.997  13.412
13884W        W79045  29.068  27.757   2.017
13885W        W79046  39.030   9.608  11.968
13886W        W79047  38.164  40.856  11.656
13887W        W79048  24.780  28.188   2.702
13888W        W79049  26.106   4.078  10.627
13889W        W79050  37.036  18.544  14.571
13890W        W79051  22.505   0.472  10.777
13891W        W79052  31.716  25.679  12.018
13892W        W79053   3.495  17.955  12.043
13893W        W79054   0.051  33.411  14.387
13894W        W79055  21.573   9.111   0.501
13895W        W79056  15.819  35.367  13.329
13896W        W79057  17.279  19.937  12.439
13897W        W79058  29.431  29.141   4.714
13898W        W79059  36.323  11.456   0.774
13899W        W79060  31.871   2.550   1.279
13900W        W79061  15.769  31.057   0.152
13901W        W79062  14.602  34.170  12.590
13902W        W79063   2.242  26.270  13.643
13903W        W79064  34.644  37.967   0.862
13904W        W79065  32.166  22.189   1.794
13905W        W79066  36.055  41.818  11.624
13906W        W79067  22.214   4.971  10.725
13907W        W79068   6.591  37.984  12.451
13908W        W79069  29.694  14.863  13.347
13909W        W79070  28.714  19.240   4.748
13910W        W79071  13.264   3.159   5.136
13911W        W79072  12.838   7.750  14.844
13912W        W79073  33.425  37.656   4.548
13913W        W79074   3.374  23.359   2.800
13914W        W79075   2.131  35.839  11.756
13915W        W79076  14.275  43.948   4.718
13916W        W79077  18.277  30.461  12.556
13917W        W79078  29.976  41.677  11.049
13918W        W79079  34.967   4.717  11.698
13919W        W79080  26.824  23.266   0.306
13920W        W79081  38.522   5.927  12.445
13921W        W79082   1.015   7.398  14.262
13922W        W79083   5.614  11.570   9.721
13923W        W79084   3.641   5.580  14.405
13924W        W79085  14.375  23.657   3.629
13925W        W79086  36.639  13.987   9.955
13926W        W79087   7.097   7.205  12.064
13927W        W79088   5.205  30.045  13.426
13928W        W79089  37.158  41.084   2.313
13929W        W79090  19.150  39.230   4.516
13930W        W79091  17.302  16.676   0.282
13931W        W79092  16.880   8.959  12.112
13932W        W79093  30.902  20.168  10.605
13933W        W79094  16.252  41.316  10.725
13934W        W79095  44.020  33.351   3.304
13935W        W79096  11.299   7.737   1.262
13936W        W79097  27.263   5.172   3.282
13937W        W79098  40.370  40.490   1.702
13938W        W79099   0.753   8.359   0.421
13939W        W79100   2.840  21.666  12.788
13940W        W79101   9.690  41.394  12.401
13941W        W79102  25.869  10.543   4.079
13942W        W79103  26.815  16.352   2.925
13943W        W79104  22.059  31.756   1.273
13944W        W79105  36.952   2.191   1.687
13945W        W79106   4.408   8.621  11.122
13946W        W79107   7.631   4.961  14.356
13947W        W79108  31.039  24.651   4.510
13948W        W79109  43.457   8.201   0.312
13949W        W79110  11.482  41.822  13.066
13950W        W79111  32.068  41.480   2.848
13951W        W79112   5.371  19.735   3.858
13952W        W79113  11.842  28.701   1.447
13953W        W79114   1.097   3.493   0.973
13954W        W79115  44.969  27.798  14.515
13955W        W79116  14.591  42.448  11.198
13956W        W79117   0.653  21.028   3.733
13957W        W79118  30.506  31.951  12.063
13958W        W79119  31.409  17.306  13.491
13959W        W79120  38.493  13.006   4.007
13960W        W79121   5.276  33.116   4.273
13961W        W79122  38.297  14.911   2.227
13962W        W79123  36.134  28.738  12.407
13963W        W79124   9.865   1.908  10.897
13964W        W79125  26.972  35.881   1.719
13965W        W79126  28.540  19.581  12.378
13966W        W79127   5.926  19.057  13.574
13967W        W79128  12.282  25.171  13.604
13968W        W79129   5.241  34.580  12.157
13969W        W79130  33.947  33.585  11.934
13970W        W79131  12.348  13.705  12.573
13971W        W79132   4.106   6.327   0.178
13972W        W79133  33.583  18.016  11.561
13973W        W79134   5.520  17.572   4.578
13974W        W79135   6.711  43.140  11.687
13975W        W79136   3.025  22.112  11.097
13976W        W79137  36.432  23.927   2.955
13977W        W79138  13.071  31.645  12.866
13978W        W79139   8.953   1.875  14.019
13979W        W79140  20.544  25.707   0.968
13980W        W79141  37.944  35.475  14.943
13981W        W79142  23.966  37.861   2.927
13982W        W79143  12.294  10.116   0.002
13983W        W79144  18.584  31.992   4.853
13984W        W79145  21.239   9.056  12.105
13985W        W79146  32.576  39.577  12.416
13986W        W79147  35.477  35.168  11.032
13987W        W79148   6.310   5.628   1.708
13988W        W79149  31.399  19.562  10.608
13989W        W79150   3.995  39.819   2.901
13990W        W79151  22.292  41.570   0.315
13991W        W79152  31.982  35.809   0.703
13992W        W79153   5.004  22.683   4.834
13993W        W79154  32.487  36.355   2.809
13994W        W79155  24.635  37.206   0.932
13995W        W79156  22.702  37.731   2.771
13996W        W79157  36.562  38.224   1.439
13997W        W79158   3.725   8.386  14.993
13998W        W79159  18.111  12.263   1.464
13999W        W79160   8.461  12.324  13.857
14000W        W79161  35.932  13.352  12.248
14001W        W79162  39.926   5.008  11.175
14002W        W79163   3.548  14.263  11.601
14003W        W79164  29.149   8.707   0.382
14004W        W79165  28.207  18.271  13.369
14005W        W79166   0.195   0.052   2.509
14006W        W79167  43.812  20.793  14.908
14007W        W79168   4.303  43.737  12.345
14008W        W79169   2.590   0.837   2.691
14009W        W79170   8.340  17.378   1.066
14010W        W79171  23.554  33.531  13.410
14011W        W79172  44.291  10.592   4.241
14012W        W79173  29.103  43.509  12.333
14013W        W79174   0.584   7.264  13.973
14014W        W79175  36.014  29.868  11.161
14015W        W79176  29.160   0.509  11.249
14016W        W79177  39.018  13.159   0.498
14017W        W79178  13.124   4.948  14.931
14018W        W79179  11.298   6.599  13.330
14019W        W79180  28.496  34.491   0.893
14020W        W79181  29.001  29.470  13.397
14021W        W79182  11.921  36.046   2.767
14022W        W79183  15.321  10.199  13.950
14023W        W79184  38.845   2.806  13.987
14024W        W79185  44.430  33.187   0.304
14025W        W79186   3.372  32.552   3.653
14026W        W79187  20.713  16.025  13.355
14027W        W79188  21.690  21.791  14.979
14028W        W79189  12.244   2.764  13.475
14029W        W79190   6.320  41.207  11.627
14030W        W79191  11.154  14.004  14.504
14031W        W79192   7.955  33.119   3.201
14032W        W79193  20.255  41.809  11.646
14033W        W79194  25.176   1.793   3.377
14034W        W79195  32.416  32.199   3.048
14035W        W79196  39.664  24.591  11.404
14036W        W79197   9.714  29.882  14.742
14037W        W79198   8.419  26.421  12.939
14038W        W79199  38.839  30.158  13.162
14039W        W79200  20.477  28.270   2.123
14040W        W79201  30.664  34.835   3.645
14041W        W79202  31.340  11.380  12.569
14042W        W79203  13.327   4.821   4.615
14043W        W79204  22.712  12.682   1.091
14044W        W79205   6.680   9.157   1.157
14045W        W79206   1.836  36.518   4.787
14046W        W79207  31.330  13.061  10.947
14047W        W79208  43.949   6.967   4.233
14048W        W79209   5.687  19.213   1.310
14049W        W79210   6.894   6.483  11.811
14050W        W79211  42.293  30.423  10.714
14051W        W79212  31.024  10.132   2.974
14052W        W79213   3.714  23.578  10.945
14053W        W79214  35.584   0.824  12.086
14054W        W79215   5.476   5.875   2.901
14055W        W79216  24.229  32.210  10.936
14056W        W79217  41.455  36.418  14.484
14057W        W79218  35.571  34.567   3.731
14058W        W79219   5.446  12.428  10.667
14059W        W79220  31.194  19.122  12.276
14060W        W79221  12.080  35.122  12.474
14061W        W79222   8.124  28.378   0.364
14062W        W79223  42.718   0.936   3.716
14063W        W79224  11.762  18.281  10.750
14064W        W79225   5.214  14.280   0.331
14065W        W79226   5.207  21.724  14.253
14066W        W79227  13.133  40.566   1.658
14067W        W79228  30.698  38.062  12.932
14068W        W79229  41.449   8.763   3.236
14069W        W79230  15.364  11.298  10.703
14070W        W79231  26.636  28.978   2.394
14071W        W79232  18.267  38.488  13.045
14072W        W79233  35.215   3.922   2.731
14073W        W79234  40.920  26.168  14.006
14074W        W79235  22.491  29.199   2.818
14075W        W79236   7.419  35.464   1.991
14076W        W79237  12.734   2.222  13.982
14077W        W79238  35.912  29.128  12.671
14078W        W79239   8.706   2.395  12.001
14079W        W79240  30.430  10.095  10.732
14080W        W79241  17.313   6.683   3.669
14081W        W79242  21.854   4.672   2.954
14082W        W79243  19.752  18.986  14.277
14083W        W79244  34.413  25.895  13.981
14084W        W79245  40.253  13.844  11.656
14085W        W79246   4.459  34.465  13.520
14086W        W79247   9.108  17.676  11.523
14087W        W79248  20.648  38.127  13.585
14088W        W79249   2.850  19.044  11.119
14089W        W79250   0.731  10.563  10.190
14090W        W79251  27.517  40.207   4.861
14091W        W79252   1.843   4.901  13.860
14092W        W79253  40.859  32.607   2.596
14093W        W79254  41.328  36.574  11.403
14094W        W79255  21.271  41.088  13.958
14095W        W79256   4.662  10.341   0.389
14096W        W79257  27.098  23.767   0.718
14097W        W79258  11.398  27.457  13.424
14098W        W79259  28.097  22.522   0.774
14099W        W79260   4.233   1.721   2.852
14100W        W79261  17.156  11.077  10.417
14101W        W79262  30.639  43.898  12.380
14102W        W79263  10.128  44.671   3.624
14103W        W79264   5.820  28.546  14.775
14104W        W79265   6.067  26.986   2.545
14105W        W79266  30.547  43.654   3.344
14106W        W79267   8.842  23.781   2.401
14107W        W79268   0.722  37.305   1.929
14108W        W79269  43.733  18.618   0.300
14109W        W79270  30.720  42.115  10.222
14110W        W79271  25.223  31.084  12.106
14111W        W79272  26.086  16.272  11.671
14112W        W79273  37.296  35.929  14.081
14113W        W79274  44.864  39.868  10.455
14114W        W79275  39.751  32.698   2.122
14115W        W79276  39.051  10.726  13.888
14116W        W79277   2.689   7.980  11.576
14117W        W79278  40.943   7.211  14.214
14118W        W79279  18.578   3.866   4.130
14119W        W79280   4.739   5.372  12.357
14120W        W79281   6.711   8.619   4.193
14121W        W79282  23.109  17.521  13.854
14122W        W79283  21.088  27.425  11.715
14123W        W79284  13.823  12.862   4.620
14124W        W79285  20.200  28.755  13.042
14125W        W79286   0.481  20.149   0.920
14126W        W79287  15.558  31.540   1.370
14127W        W79288  41.516  27.945  10.693
14128W        W79289  11.250  40.795  12.864
14129W        W79290  30.613   6.643   1.346
14130W        W79291  11.230   3.529   4.160
14131W        W79292  36.935   4.281   3.725
14132W        W79293  37.054   2.377  13.058
14133W        W79294  22.016  31.005   0.253
14134W        W79295   1.832   9.163   4.532
14135W        W79296  30.481   8.988   2.289
14136W        W79297  37.873   7.277   2.257
14137W        W79298   4.308   0.257  12.629
14138W        W79299   8.850  42.902   0.925
14139W        W79300  23.485  15.401   2.689
14140W        W79301  20.980  37.501  14.319
14141W        W79302  31.028   8.232  11.066
14142W        W79303  32.929  12.412  12.537
14143W        W79304  11.684  19.006   3.697
14144W        W79305  26.287  43.042  12.471
14145W        W79306  24.994  43.387  14.115
14146W        W79307  24.442  36.088  14.479
14147W        W79308  19.255  11.845  14.484
14148W        W79309  40.016  39.094   3.325
14149W        W79310  25.155  22.173   0.548
14150W        W79311  18.603  14.278  12.587
14151W        W79312  29.127   5.315  14.295
14152W        W79313  34.615  24.609  11.993
14153W        W79314  17.837  27.023   1.221
14154W        W79315   3.517   4.253  11.632
14155W        W79316  34.107  15.570   3.318
14156W        W79317   2.406  10.268   9.849
14157W        W79318  16.580  16.253  12.494
14158W        W79319  35.617  36.729  14.339
14159W        W79320  36.730   8.421   1.751
14160W        W79321  30.212  35.963   3.169
14161W        W79322  32.513  23.678   3.571
14162W        W79323   0.996  19.229   3.123
14163W        W79324  26.186  17.987  11.147
14164W        W79325  14.955   8.725   2.161
14165W        W79326  10.407  28.986  13.839
14166W        W79327  44.688  35.906   4.108
14167W        W79328  10.410  24.156  11.094
14168W        W79329  35.626  14.174  11.661
14169W        W79330  33.616  39.890  13.527
14170W        W79331  37.350  20.532  14.845
14171W        W79332  41.765   5.795   2.793
14172W        W79333   0.463  11.548   2.730
14173W        W79334   4.836  36.095  13.125
14174W        W79335  42.746  20.043   3.661
14175W        W79336  11.231   1.173  12.067
14176W        W79337  23.648   7.631   2.873
14177W        W79338  26.556  24.294   0.424
14178W        W79339  36.551  39.572   1.796
14179W        W79340  28.516   1.757  13.785
14180W        W79341   2.166   6.684  13.954
14181W        W79342  25.314   7.402   2.994
14182W        W79343  38.793  27.940   3.568
14183W        W79344  13.367  22.933   2.189
14184W        W79345  29.980  27.928   0.344
14185W        W79346   7.864  14.881   0.702
14186W        W79347  42.702   2.151  10.841
14187W        W79348  19.520  41.333   0.517
14188W        W79349  14.064  36.535   2.241
14189W        W79350  32.832  44.866  14.915
14190W        W79351  43.805  16.231   1.864
14191W        W79352  31.733  32.744  11.693
14192W        W79353  11.754  18.426  14.151
14193W        W79354  14.584  31.528  13.428
14194W        W79355  10.369  25.040   4.145
14195W        W79356   8.139  37.548   3.358
14196W        W79357  18.197  32.610   1.815
14197W        W79358  37.549  31.096  12.151
14198W        W79359  43.917  12.899  10.130
14199W        W79360  21.093  10.690  13.854
14200W        W79361  32.061  11.871   1.670
14201W        W79362  33.569   2.846  14.098
14202W        W79363  10.928   7.591   0.399
14203W        W79364  21.283  17.253  11.569
14204W        W79365  16.870   7.916   4.113
14205W        W79366  21.803  39.459  13.495
14206W        W79367  19.200  15.056  11.483
14207W        W79368  16.396   0.207  12.492
14208W        W79369  25.573   1.411   3.090
14209W        W79370  15.157  26.203  10.968
14210W        W79371  36.631  15.118   1.372
14211W        W79372  13.595  10.264   2.349
14212W        W79373  29.502  33.850  11.819
14213W        W79374  17.867  22.251  12.401
14214W        W79375  40.933   7.169   2.603
14215W        W79376   3.764  15.543  13.970
14216W        W79377   4.730  14.113   2.682
14217W        W79378   7.592  14.197   4.726
14218W        W79379  18.048  11.676  14.032
14219W        W79380  30.437  20.736  12.434
14220W        W79381  13.216  33.055   1.122
14221W        W79382  38.877  31.091  13.614
14222W        W79383   6.464   9.076   2.918
14223W        W79384  28.083  10.324   2.230
14224W        W79385  20.596   7.681  11.651
14225W        W79386  27.551  37.872   3.862
14226W        W79387  10.764  39.756   4.131
14227W        W79388   8.370  22.680  10.671
14228W        W79389   8.602  19.775  12.931
14229W        W79390  14.718  37.757  12.156
14230W        W79391  30.239   5.773   1.308
14231W        W79392  38.984   7.855   2.706
14232W        W79393  25.038  41.375  12.826
14233W        W79394   5.024   8.026   4.198
14234W        W79395  36.466  13.860  11.913
14235W        W79396   9.293   3.088   4.294
14236W        W79397   2.649  31.562  13.716
14237W        W79398  14.332  40.870  14.501
14238W        W79399  18.524  42.325   2.811
14239W        W79400  12.353  36.405  13.328
14240W        W79401  35.328  11.708   0.866
14241W        W79402  37.169   2.427   0.638
14242W        W79403   0.009  42.875   5.376
14243W        W79404  13.556  23.644  13.910
14244W        W79405  21.311  21.228  12.016
14245W        W79406  14.630  43.292   1.274
14246W        W79407  34.951  13.155  12.331
14247W        W79408  41.559   4.336   0.933
14248W        W79409  23.159  12.607   1.340
14249W        W79410   8.233  17.595  13.480
14250W        W79411  20.532   6.846   0.297
14251W        W79412  20.121  39.139  12.228
14252W        W79413  21.622  33.798  13.448
14253W        W79414  38.468  42.507  13.892
14254W        W79415  36.857  38.578   1.186
14255W        W79416  20.612  44.797   2.827
14256W        W79417  16.243  24.327   2.715
14257W        W79418  35.825  14.574  12.730
14258W        W79419  38.286   3.862   0.246
14259W        W79420  35.344  27.116  12.206
14260W        W79421  23.200  10.420  14.401
14261W        W79422  18.812  15.299   4.163
14262W        W79423  26.572  18.572  11.595
14263W        W79424  24.572  34.926  12.411
14264W        W79425   3.862   8.890   4.265
14265W        W79426  16.389   7.827  13.571
14266W        W79427  11.326  21.338  13.780
14267W        W79428  37.999   6.762   2.309
14268W        W79429  31.136  30.269   2.616
14269W        W79430  29.159  41.383   4.661
14270W        W79431   6.349  12.793   1.851
14271W        W79432  44.032  29.167  11.555
14272W        W79433  18.699  11.873   2.806
14273W        W79434  44.022  17.177  14.964
14274W        W79435  30.593   4.552  13.160
14275W        W79436  20.077  38.850   3.814
14276W        W79437  12.758  17.573   2.810
14277W        W79438  22.954  28.890  14.798
14278W        W79439   5.858  34.194   0.437
14279W        W79440  28.045   9.629   0.837
14280W        W79441  15.916  28.021   2.904
14281W        W79442  32.650   0.981   3.414
14282W        W79443  31.060  24.401  12.936
14283W        W79444  23.963  17.143   4.026
14284W        W79445   4.731  39.866  13.790
14285W        W79446  17.555  30.518   2.811
14286W        W79447  14.165   4.637   2.277
14287W        W79448  17.570  25.020   3.157
14288W        W79449  26.995  21.019  12.855
14289W        W79450  16.834  16.629   0.658
14290W        W79451  24.093  14.378   0.815
14291W        W79452   5.916  38.913  11.892
14292W        W79453  11.565  34.861  13.827
14293W        W79454  24.308  21.205  14.927
14294W        W79455  41.949  11.250   3.376
14295W        W79456  10.807  43.473  10.943
14296W        W79457   7.426  41.503   2.636
14297W        W79458   0.188  36.958  12.166
14298W        W79459  10.680  29.991   3.709
14299W        W79460  22.427  21.750   2.871
14300W        W79461  36.303  13.550  13.710
14301W        W79462  12.374  33.393   1.390
14302W        W79463  15.352   4.953   1.732
14303W        W79464   0.411  44.835  12.128
14304W        W79465  27.928   5.554  10.210
14305W        W79466  36.346  23.240  10.799
14306W        W79467  32.910  16.501   4.214
14307W        W79468   4.834  13.076   2.573
14308W        W79469   2.200  27.790  11.670
14309W        W79470   7.213  16.789   4.145
14310W        W79471  18.205   2.533   4.860
14311W        W79472   4.307   6.866   4.132
14312W        W79473  14.784  40.562   3.090
14313W        W79474   2.858  34.405  13.907
14314W        W79475   2.348   0.014  11.004
14315W        W79476  14.810   3.611   1.224
14316W        W79477  24.058  28.948   2.823
14317W        W79478  40.009  36.370  14.844
14318W        W79479  19.202  41.127  10.696
14319W        W79480  36.957  32.900   1.312
14320W        W79481  20.540  24.078   4.303
14321W        W79482  43.328  21.987   0.946
14322W        W79483  44.323  34.881  11.930
14323W        W79484   2.558  31.635   4.273
14324W        W79485  17.070  30.977  11.913
14325W        W79486  40.504  32.065  11.432
14326W        W79487  22.200  28.651  14.272
14327W        W79488  33.915  35.457  12.740
14328W        W79489  44.800   0.723   3.664
14329W        W79490   0.978  13.357   0.302
14330W        W79491   5.228  25.537  13.664
14331W        W79492  39.368  25.535  14.301
14332W        W79493  28.003   2.343  14.879
14333W        W79494  33.396  10.683   1.630
14334W        W79495  34.597  39.992  13.415
14335W        W79496  11.876  34.571   2.279
14336W        W79497  21.849  14.013  10.738
14337W        W79498  25.515  24.554   2.097
14338W        W79499  37.147  36.859   1.374
14339W        W79500   2.946  33.414   3.725
14340W        W79501  14.795  14.670   0.691
14341W        W79502   6.356  20.739   1.167
14342W        W79503  17.203   3.370  10.930
14343W        W79504   6.161   4.232  14.374
14344W        W79505  30.137  11.737  13.352
14345W        W79506  17.274  18.116   4.550
14346W        W79507  21.753  36.459   4.826
14347W        W79508   0.395  12.010  14.319
14348W        W79509  32.859  32.620  11.857
14349W        W79510  39.342  41.121  14.720
14350W        W79511  20.993  44.724   1.391
14351W        W79512  24.093  18.501   1.206
14352W        W79513  24.643  38.610   2.704
14353W        W79514   0.630   4.714  10.742
14354W        W79515   7.869  37.566   1.607
14355W        W79516  35.360  30.815   0.661
14356W        W79517  14.821  10.325  11.665
14357W        W79518  32.240  35.147   3.320
14358W        W79519   4.891  42.986  10.882
14359W        W79520  43.485  37.223   1.354
14360W        W79521  28.165  26.060   1.324
14361W        W79522  36.873  33.311   3.277
14362W        W79523   8.871  34.553   0.752
14363W        W79524  39.832  24.578   4.068
14364W        W79525  24.220  40.816  13.083
14365W        W79526  41.810  20.728   0.679
14366W        W79527  17.821  21.217   2.768
14367W        W79528  25.033   5.473   3.709
14368W        W79529  26.452  22.960   5.422
14369W        W79530  16.140   4.871  12.787
14370W        W79531  26.616  16.521  10.629
14371W        W79532  26.462   7.296  11.138
14372W        W79533  40.758  26.605  13.358
14373W        W79534  26.182  41.873   2.110
14374W        W79535  29.400  13.244  10.279
14375W        W79536  43.699  12.743  11.221
14376W        W79537  21.954  38.850   3.770
14377W        W79538  30.067  17.914  12.078
14378W        W79539  31.643  37.327   1.557
14379W        W79540  13.206  39.648   2.312
14380W        W79541   7.932  11.798  14.259
14381W        W79542  23.511  36.585  11.624
14382W        W79543  20.230  30.100  13.929
14383W        W79544  40.088  31.857   1.137
14384W        W79545  24.564  25.969  10.483
14385W        W79546   4.454   7.893  14.483
14386W        W79547  16.822   5.230  13.398
14387W        W79548  25.918  36.425   0.026
14388W        W79549  42.796  28.500  13.858
14389W        W79550   3.328  38.936  13.135
14390W        W79551  44.047  18.176  12.516
14391W        W79552  28.646  26.060   2.245
14392W        W79553  28.621   8.234   2.803
14393W        W79554   9.653  18.621  12.980
14394W        W79555  29.638   6.116  14.336
14395W        W79556  44.689   3.448   3.563
14396W        W79557  35.418  26.287   3.804
14397W        W79558  28.245  16.074   2.259
14398W        W79559   5.445  40.830  12.031
14399W        W79560  38.142  12.208  14.879
14400W        W79561  21.958   2.697  11.181
14401W        W79562  40.257  18.113  12.276
14402W        W79563  22.067  31.665   4.188
14403W        W79564  14.106   4.259  10.579
14404W        W79565  43.771  42.348  14.411
14405W        W79566  13.710  20.686   2.455
14406W        W79567   6.303   4.589   2.709
14407W        W79568  22.683   0.788   4.535
14408W        W79569  42.617  33.395  12.515
14409W        W79570   4.322   5.821   4.061
14410W        W79571   7.330  11.762  11.500
14411W        W79572   4.893  34.395  13.030
14412W        W79573  43.769  15.541  11.480
14413W        W79574  41.290  35.007   4.857
14414W        W79575  41.324  27.663   0.269
14415W        W79576  21.266  18.190  12.636
14416W        W79577  16.570   6.922   4.212
14417W        W79578  15.525  40.563  11.991
14418W        W79579  40.733  42.321  11.632
14419W        W79580  18.597  37.078   1.750
14420W        W79581  44.686  26.950  14.382
14421W        W79582  39.615   0.424   4.443
14422W        W79583  36.299  23.648   0.349
14423W        W79584   9.166  31.452   4.114
14424W        W79585   1.493  31.662  14.593
14425W        W79586   8.691  16.033   3.390
14426W        W79587  20.147  22.721  13.685
14427W        W79588  32.404  39.744  14.294
14428W        W79589   6.455  32.114   4.155
14429W        W79590  10.413  27.545   1.285
14430W        W79591  20.123  40.965   3.183
14431W        W79592  12.653  28.412  13.540
14432W        W79593  43.465   6.494  12.921
14433W        W79594  17.327   2.887  13.526
14434W        W79595  38.497  23.986   3.425
14435W        W79596  32.200  14.564  10.114
14436W        W79597  18.740  14.299  11.648
14437W        W79598  30.721  12.880  11.038
14438W        W79599  20.062   7.816  10.669
14439W        W79600   2.284  31.060   1.795
14440W        W79601  18.873  43.624   2.719
14441W        W79602  44.964  16.078   4.133
14442W        W79603  30.889  28.122   4.200
14443W        W79604   5.772  24.168  14.752
14444W        W79605  20.854  40.434  13.415
14445W        W79606  42.811   6.833  14.292
14446W        W79607  16.528  30.943  13.514
14447W        W79608   4.906  30.133  11.133
14448W        W79609   9.260  41.337   4.433
14449W        W79610  10.185   9.903   4.122
14450W        W79611  32.888  12.111   1.294
14451W        W79612  42.002  38.302  12.090
14452W        W79613  29.093  26.404   3.576
14453W        W79614  36.553  26.050   3.166
14454W        W79615   7.784  25.083  14.202
14455W        W79616  10.669  22.485  12.023
14456W        W79617  31.064  41.968  12.580
14457W        W79618  13.147  29.521  13.001
14458W        W79619  35.124  30.842   1.713
14459W        W79620  35.299  17.659   1.700
14460W        W79621  26.084  11.436  11.536
14461W        W79622  42.214  18.098  12.114
14462W        W79623   8.216   8.119   3.352
14463W        W79624   9.791  34.990   3.033
14464W        W79625   0.286  44.570   2.294
14465W        W79626  25.032  33.630  11.498
14466W        W79627  17.839  32.013   0.753
14467W        W79628  44.460   7.987   3.599
14468W        W79629  30.340  20.158  14.284
14469W        W79630  28.963   1.531   3.242
14470W        W79631  21.632  21.921  12.517
14471W        W79632  38.389  25.013   4.887
14472W        W79633   8.764  42.826  11.860
14473W        W79634  43.542  40.438   3.778
14474W        W79635   9.623  40.769  11.944
14475W        W79636  15.586  41.608   4.159
14476W        W79637  11.156  10.554  13.020
14477W        W79638  27.893  35.474   4.627
14478W        W79639  20.229  12.408   4.222
14479W        W79640   4.142  30.432   3.705
14480W        W79641   6.194   3.781  14.625
14481W        W79642  37.368   9.380   4.218
14482W        W79643  43.367   2.355   4.555
14483W        W79644  11.327  30.759   0.886
14484W        W79645  32.326  14.232  11.908
14485W        W79646  14.646   8.554   2.544
14486W        W79647  20.279   7.445   2.470
14487W        W79648  17.795  26.320   2.043
14488W        W79649  10.330  22.236   5.073
14489W        W79650   0.463  18.051   2.292
14490W        W79651  30.431  20.457   3.605
14491W        W79652  38.877   8.689  13.863
14492W        W79653  24.358  27.519   2.689
14493W        W79654  35.356  19.559   0.731
14494W        W79655  13.508  13.423   2.240
14495W        W79656  23.473   6.178  13.825
14496W        W79657  43.467  13.468   5.321
14497W        W79658  13.021  22.109   3.231
14498W        W79659   5.680  38.103  12.504
14499W        W79660  37.798  10.275   3.407
14500W        W79661  23.992  14.987  10.038
14501W        W79662  17.687  44.219  10.165
14502W        W79663   7.269  43.194   4.654
14503W        W79664   4.928  40.892  11.931
14504W        W79665  35.487  17.539   4.333
14505W        W79666  37.881  21.592  12.854
14506W        W79667  18.703   8.713  14.232
14507W        W79668   0.286  24.514   0.355
14508W        W79669  12.769   0.129   3.288
14509W        W79670  25.155   4.714   0.287
14510W        W79671  18.521  44.539   0.200
14511W        W79672   7.885  24.053  11.743
14512W        W79673  33.918  19.609  12.048
14513W        W79674  14.178   6.307  14.418
14514W        W79675  32.927  20.616  13.083
14515W        W79676   3.235   3.357  13.812
14516W        W79677  30.533  27.482  12.424
14517W        W79678   7.762   8.355   3.639
14518W        W79679  38.232   8.446   2.885
14519W        W79680   5.651  37.087   1.348
14520W        W79681  19.949  25.037  11.044
14521W        W79682   4.645  33.343  11.512
14522W        W79683  31.179  44.504  11.117
14523W        W79684  32.955  40.421   1.602
14524W        W79685  31.655  24.240  14.122
14525W        W79686  41.395  30.347   0.880
14526W        W79687  26.434   0.294   1.721
14527W        W79688  15.947  14.378   1.801
14528W        W79689  12.093  27.996   2.154
14529W        W79690  24.606   2.195   0.935
14530W        W79691  43.979  28.933  13.861
14531W        W79692  12.131  31.839   0.812
14532W        W79693  19.043  21.260   0.711
14533W        W79694  21.043  14.006  10.759
14534W        W79695  42.249  32.870   1.017
14535W        W79696  44.577  19.245   0.482
14536W        W79697  36.620  25.432  14.933
14537W        W79698  16.223  43.014  10.743
14538W        W79699  40.355  22.230   1.839
14539W        W79700  44.957   9.615   3.459
14540W        W79701  26.283  30.423  13.659
14541W        W79702  23.788   8.941  11.142
14542W        W79703   5.046   6.924   1.256
14543W        W79704  33.673  22.129   1.517
14544W        W79705  31.509  37.720  11.229
14545W        W79706  11.161  31.656  12.582
14546W        W79707  31.952   9.181  11.020
14547W        W79708  37.428  28.467  14.105
14548W        W79709  34.082  25.731   3.164
14549W        W79710  27.730   1.849  13.337
14550W        W79711  38.454  11.428  12.758
14551W        W79712  30.993  15.603   2.172
14552W        W79713  20.261  12.906  11.576
14553W        W79714   6.449   6.820   2.739
14554W        W79715  27.169  26.409  11.674
14555W        W79716  24.684  32.042  10.730
14556W        W79717  11.349   7.630  14.698
14557W        W79718  15.513  27.951  12.093
14558W        W79719  11.640  23.345  11.610
14559W        W79720  35.213  28.982   0.256
14560W        W79721  28.396  30.002  10.397
14561W        W79722  35.531  18.218   0.940
14562W        W79723  30.462   8.147   2.851
14563W        W79724   5.028  44.378   0.737
14564W        W79725   7.441  12.345   3.681
14565W        W79726  41.391  25.990  13.925
14566W        W79727   5.800   0.220   3.270
14567W        W79728  32.478   6.418   3.583
14568W        W79729  36.865   9.108   1.433
14569W        W79730  42.393  10.909  12.569
14570W        W79731  10.646  21.975   2.151
14571W        W79732  21.962  42.325   0.981
14572W        W79733   0.481  28.047  11.573
14573W        W79734   3.436  40.963   0.871
14574W        W79735  28.482   7.819   4.397
14575W        W79736  35.930  44.929  13.873
14576W        W79737  23.094   0.982   2.255
14577W        W79738   7.410  36.535  12.606
14578W        W79739  17.961  39.905  13.323
14579W        W79740  19.262   6.157  14.536
14580W        W79741  37.864  35.283   3.134
14581W        W79742  21.669   0.735  14.482
14582W        W79743  44.041  19.840  12.075
14583W        W79744  44.531   7.359  10.103
14584W        W79745  30.674  41.393   1.667
14585W        W79746  24.136  31.673   2.246
14586W        W79747   4.728  37.110   1.347
14587W        W79748  27.583  38.512   0.486
14588W        W79749  26.413  18.305  10.310
14589W        W79750  17.290   3.161   2.710
14590W        W79751   6.858  38.475   2.379
14591W        W79752  25.636  40.812  10.198
14592W        W79753  31.882  33.371   4.515
14593W        W79754  29.476  35.152   3.266
14594W        W79755   9.996   7.196  11.805
14595W        W79756  36.878  43.661   1.445
14596W        W79757  22.654  30.055   2.317
14597W        W79758  34.672  11.556   2.926
14598W        W79759  32.585   2.227  10.570
14599W        W79760  36.562  33.167   2.237
14600W        W79761  42.830  32.067  11.153
14601W        W79762  24.734  12.693   2.676
14602W        W79763  18.120   4.440   1.365
14603W        W79764  43.992  13.617  12.464
14604W        W79765  34.650  12.224  13.064
14605W        W79766  24.683   8.687  11.965
14606W        W79767  32.915   4.411  13.365
14607W        W79768  23.505  28.603   4.778
14608W        W79769  34.483  31.065   0.867
14609W        W79770  12.089  14.664   4.095
14610W        W79771  33.161  23.684   9.708
14611W        W79772  31.694  22.071  13.507
14612W        W79773  15.660  38.808  11.454
14613W        W79774   2.025  24.449   1.776
14614W        W79775  28.207   3.264   4.030
14615W        W79776  37.359   6.113   0.931
14616W        W79777  29.527   9.387   3.304
14617W        W79778   2.428  37.014  13.926
14618W        W79779  30.620  21.686  12.040
14619W        W79780  24.123  38.033   1.904
14620W        W79781  14.208  44.005   1.360
14621W        W79782  16.765   4.326   3.256
14622W        W79783  21.936  22.039   0.392
14623W        W79784  15.989  31.505   3.253
14624W        W79785  30.165  12.612   2.479
14625W        W79786   0.215   4.052  11.978
14626W        W79787  20.810  30.199   2.853
14627W        W79788  19.290  26.618   0.365
14628W        W79789  15.756  40.462  13.791
14629W        W79790  15.378  25.544   4.522
14630W        W79791   6.471  15.833  13.424
14631W        W79792  13.298   1.712  14.491
14632W        W79793  30.637  44.540  11.117
14633W        W79794  34.036   7.307  10.762
14634W        W79795  15.015  37.846   1.687
14635W        W79796  23.605  20.971  13.346
14636W        W79797   0.018  18.142  12.714
14637W        W79798   2.795   4.305  14.548
14638W        W79799  33.270  11.136   1.333
14639W        W79800   8.776  18.303  13.120
14640W        W79801  40.000  20.697  14.542
14641W        W79802  15.554   0.709   1.480
14642W        W79803   5.208  31.113   5.575
14643W        W79804  43.775  23.386  11.233
14644W        W79805  16.554   6.698   0.136
14645W        W79806  12.097  41.342   5.231
14646W        W79807  36.467  32.163  14.473
14647W        W79808   8.577  37.957  13.502
14648W        W79809  29.020  13.792  13.119
14649W        W79810  35.737  33.024   3.220
14650W        W79811  16.683  41.901   2.796
14651W        W79812  40.084  42.823  12.647
14652W        W79813  40.809  29.605   0.796
14653W        W79814   6.748   6.586  12.394
14654W        W79815  17.251  38.950   2.337
14655W        W79816  27.401  32.739   0.952
14656W        W79817  37.861  38.689   4.780
14657W        W79818  39.422  10.792   3.626
14658W        W79819  14.070  28.451  10.735
14659W        W79820  19.412  12.669  10.388
14660W        W79821  31.669  23.093   1.701
14661W        W79822  18.648  27.353  14.338
14662W        W79823   7.799   2.897   1.211
14663W        W79824  40.416  18.801  11.190
14664W        W79825   7.183   5.441  13.518
14665W        W79826  21.676  12.667  10.554
14666W        W79827   1.367  11.610   0.325
14667W        W79828  44.384   3.058   4.285
14668W        W79829  11.840  12.792  11.394
14669W        W79830  28.156  19.960  14.923
14670W        W79831  27.657  24.162   2.359
14671W        W79832  43.348   4.708  12.611
14672W        W79833   7.396  42.581  11.772
14673W        W79834  17.313  37.045  12.389
14674W        W79835  42.075  18.382  13.858
14675W        W79836   7.147  33.513  14.016
14676W        W79837   5.330  23.747  10.604
14677W        W79838   0.723  24.105   2.427
14678W        W79839  23.833   9.098  13.336
14679W        W79840  26.011  12.232  12.644
14680W        W79841  15.480  14.694  14.370
14681W        W79842  41.019  39.080  12.972
14682W        W79843  17.690  33.630   0.402
14683W        W79844  10.229  23.001  14.374
14684W        W79845  32.343  24.042  11.926
14685W        W79846  11.842  10.060   1.686
14686W        W79847  40.993  10.498   2.458
14687W        W79848  33.705  22.441   4.359
14688W        W79849  25.078  12.405   2.281
14689W        W79850  20.036  28.079   3.281
14690W        W79851   2.536   1.751  11.663
14691W        W79852   6.212  41.364   3.683
14692W        W79853  20.579  20.116   3.553
14693W        W79854  27.542   6.654  12.408
14694W        W79855   1.002  28.003  11.595
14695W        W79856  36.807   6.419  10.715
14696W        W79857   4.048  40.898   2.837
14697W        W79858  41.576  21.176   2.419
14698W        W79859  18.736  15.163  10.632
14699W        W79860   7.153   2.750   3.301
14700W        W79861  16.386  18.025   1.610
14701W        W79862  31.037  27.674   4.444
14702W        W79863  36.424  40.022   4.284
14703W        W79864   0.890  30.112   4.861
14704W        W79865  31.301  39.806   2.635
14705W        W79866  22.165  20.746  13.107
14706W        W79867   2.216   5.669   1.757
14707W        W79868  18.240  37.669  14.469
14708W        W79869  10.494  37.611   3.665
14709W        W79870  14.097  34.944  14.714
14710W        W79871  28.060   4.432   4.561
14711W        W79872  35.095  30.054   4.178
14712W        W79873   3.457  27.172   2.538
14713W        W79874   0.882  12.526  14.909
14714W        W79875  35.539  18.605   0.554
14715W        W79876  13.270  28.436  12.034
14716W        W79877  24.798  41.604   3.810
14717W        W79878  15.552  21.746  14.091
14718W        W79879  17.010  14.802   3.211
14719W        W79880  30.972  17.206  10.561
14720W        W79881   4.221  39.986   1.335
14721W        W79882  23.987  28.530   1.817
14722W        W79883  22.195   3.819  13.966
14723W        W79884  27.952  33.540  11.957
14724W        W79885  30.595  44.020   2.132
14725W        W79886  26.726  28.073  14.301
14726W        W79887  21.533  26.582   0.101
14727W        W79888   1.924  25.417   0.321
14728W        W79889  10.616   2.150   3.191
14729W        W79890  13.235   1.966  13.054
14730W        W79891  13.935  38.004  12.542
14731W        W79892  19.350  37.334   4.347
14732W        W79893  34.329   4.401   4.843
14733W        W79894  26.713  37.237  11.449
14734W        W79895  35.580  34.061   0.782
14735W        W79896  28.861  32.502   4.489
14736W        W79897  35.440  21.108   2.662
14737W        W79898  43.393  41.802  13.974
14738W        W79899   9.602   4.439   3.671
14739W        W79900  15.724  34.868   2.182
14740W        W79901  37.510  29.417   1.297
14741W        W79902  30.113  27.392   1.238
14742W        W79903  26.488  26.817   1.729
14743W        W79904  26.127  42.936   0.766
14744W        W79905  22.953   5.926   4.103
14745W        W79906  31.637  23.746   0.410
14746W        W79907  24.549   7.174  13.980
14747W        W79908  16.855  39.296  13.095
14748W        W79909  15.791  21.068   2.670
14749W        W79910  12.342  21.139  14.995
14750W        W79911   2.758  32.955  11.049
14751W        W79912  42.376  42.861   3.924
14752W        W79913  39.827  30.440  12.965
14753W        W79914  21.021  30.365   1.180
14754W        W79915   2.848  17.798  10.408
14755W        W79916  44.605   0.340  13.753
14756W        W79917  10.744  28.522   4.062
14757W        W79918   4.929  25.230  12.740
14758W        W79919  27.051  27.158  14.649
14759W        W79920  37.839   8.489  13.542
14760W        W79921  34.653  36.062  10.605
14761W        W79922  27.719  31.036  12.685
14762W        W79923  19.737  42.271   0.807
14763W        W79924  33.842  24.110   2.940
14764W        W79925   1.507   0.898  14.749
14765W        W79926   8.361  12.783   1.852
14766W        W79927   5.326  30.981   1.455
14767W        W79928   9.210   9.507  14.923
14768W        W79929  33.178  37.073  14.148
14769W        W79930  20.704   6.465  14.971
14770W        W79931  16.801  32.390   1.405
14771W        W79932  28.737  20.047  13.608
14772W        W79933  39.993  31.112  12.415
14773W        W79934  34.494  23.485   2.438
14774W        W79935  36.476  40.432  11.447
14775W        W79936   2.325  35.422   2.115
14776W        W79937  13.280   3.989  11.262
14777W        W79938   2.820   3.191   2.885
14778W        W79939  36.355  36.416  12.956
14779W        W79940  34.958  37.035   4.154
14780W        W79941   1.745  14.750   3.222
14781W        W79942  30.563   2.269   3.229
14782W        W79943  32.162  22.627  13.112
14783W        W79944   5.515  28.066  12.453
14784W        W79945  20.144  40.586   3.553
14785W        W79946  22.347  28.612  10.618
14786W        W79947  26.124  31.539   0.919
14787W        W79948   2.739   2.245   0.393
14788W        W79949   0.928  41.338   3.125
14789W        W79950  19.092  37.353  11.221
14790W        W79951  15.184  40.910  14.875
14791W        W79952   5.246  43.336  10.683
14792W        W79953  34.611  10.854   2.190
14793W        W79954  41.508   9.172  12.102
14794W        W79955  33.994  17.813  14.812
14795W        W79956  15.681  42.901   0.921
14796W        W79957  16.364  40.843   2.201
14797W        W79958  18.366  28.488  13.539
14798W        W79959   7.854   8.641  11.054
14799W        W79960  16.539  16.098  13.696
14800W        W79961  23.575  29.122   0.998
14801W        W79962  27.932  29.077  14.732
14802W        W79963  27.887  12.290   2.169
14803W        W79964   2.890  39.103  10.520
14804W        W79965   0.856  29.137  13.320
14805W        W79966  43.916  38.512   0.923
14806W        W79967   0.405  10.250   3.217
14807W        W79968  18.029   6.680  13.516
14808W        W79969  41.919  36.381   5.020
14809W        W79970  44.418  24.010   3.652
14810W        W79971   0.426  40.992  13.233
14811W        W79972   5.634  25.467   1.175
14812W        W79973   2.425  30.648   2.756
14813W        W79974  33.447  44.826  14.063
14814W        W79975   5.308   7.380  11.565
14815W        W79976  41.444  36.015  13.709
14816W        W79977  10.718  23.269   0.337
14817W        W79978  39.378  24.440   2.942
14818W        W79979  37.278  24.735   0.412
14819W        W79980  38.575  29.617  11.183
14820W        W79981  23.549  44.739  11.000
14821W        W79982  33.357  33.792  11.453
14822W        W79983  21.373  20.044  13.598
14823W        W79984  37.587  33.097  10.450
14824W        W79985  31.547   7.830  12.196
14825W        W79986   8.118  43.651   2.532
14826W        W79987  12.683   0.380  14.513
14827W        W79988   1.270  32.019  13.825
14828W        W79989   5.846  38.871  13.125
14829W        W79990  21.677  20.550  12.945
14830W        W79991  15.261  22.038   4.509
14831W        W79992  32.601  11.779   4.171
14832W        W79993   7.929  37.957  14.871
14833W        W79994  21.174  15.548   0.533
14834W        W79995  37.998  15.377  14.796
14835W        W79996  29.958   0.550   1.824
14836W        W79997   3.509  10.062  13.529
14837W        W79998  14.712   6.916  14.974
14838W        W79999  13.838   7.495   3.803
14839W        W80000   9.238  35.844   2.205
14840W        W80001  41.476   9.202   0.798
14841W        W80002  11.191   4.882   0.563
14842W        W80003  18.025  10.273   3.601
14843W        W80004  38.367  25.699   0.309
14844W        W80005  32.700   2.896   2.730
14845W        W80006  43.861  16.682   4.839
14846W        W80007  22.109  18.224   0.791
14847W        W80008   7.916   6.597  12.022
14848W        W80009  44.448  43.858  11.845
14849W        W80010  29.650  32.045  12.662
14850W        W80011  21.749   1.701  11.144
14851W        W80012  36.253  16.549  11.143
14852W        W80013   2.233  24.324  11.399
14853W        W80014  25.997  32.111   2.121
14854W        W80015  30.562  11.180  14.443
14855W        W80016  24.814  32.391   1.820
14856W        W80017  18.246  21.704   1.309
14857W        W80018  19.555  40.982   1.410
14858W        W80019  17.036  11.846   3.907
14859W        W80020  43.924  36.666  13.944
14860W        W80021   9.379  38.782   3.714
14861W        W80022  23.977  41.006   2.547
14862W        W80023  30.865  27.247   2.771
14863W        W80024   7.902  42.879  10.713
14864W        W80025  32.225   9.398   2.998
14865W        W80026  30.895  42.816  12.853
14866W        W80027   6.978  21.108   2.717
14867W        W80028  27.615  25.767  13.489
14868W        W80029  10.289  29.916  12.025
14869W        W80030  35.973  43.492  14.776
14870W        W80031  24.643  23.212  14.410
14871W        W80032  22.629  21.320  12.377
14872W        W80033  43.272  38.845  13.902
14873W        W80034  28.999  20.680  12.440
14874W        W80035  24.701  16.112  14.743
14875W        W80036  41.233  16.190   1.931
14876W        W80037  25.264  43.287   3.903
14877W        W80038  11.399  30.426  13.506
14878W        W80039   7.586  27.016  12.952
14879W        W80040  26.200  20.203   4.744
14880W        W80041   8.725  17.492  11.191
14881W        W80042  19.255   1.220  10.745
14882W        W80043  36.386   7.775  11.773
14883W        W80044  24.514  14.828   4.249
14884W        W80045  23.988  41.044  13.501
14885W        W80046  33.041  18.778   1.306
14886W        W80047  10.727  44.639   4.951
14887W        W80048  39.903  18.022  12.625
14888W        W80049  26.951  18.998   0.229
14889W        W80050  36.917  34.336   3.021
14890W        W80051  19.299  12.814   3.610
14891W        W80052  13.162  23.181  14.822
14892W        W80053   1.928  12.265   0.658
14893W        W80054  21.093  10.682   1.809
14894W        W80055  12.629  35.959  10.886
14895W        W80056  10.697   6.518   1.469
14896W        W80057  31.115  36.959   2.826
14897W        W80058  20.543  29.374  12.500
14898W        W80059   9.648   3.766  13.022
14899W        W80060   3.326  42.448   3.561
14900W        W80061  32.155   0.864   1.589
14901W        W80062  24.159   3.467  13.514
14902W        W80063  23.553  15.794  13.829
14903W        W80064  43.256   7.382  13.022
14904W        W80065  42.704  12.219  14.446
14905W        W80066  16.571  29.517  13.435
14906W        W80067  33.526   5.926  14.992
14907W        W80068  41.993  30.883   3.704
14908W        W80069  31.189   0.650   1.823
14909W        W80070  43.069  11.361   0.538
14910W        W80071  23.332   4.506  11.111
14911W        W80072  42.275  24.903  13.612
14912W        W80073  40.895  30.210  12.794
14913W        W80074  27.435   0.550   1.792
14914W        W80075   7.240  38.810  12.545
14915W        W80076  23.949  35.103   1.996
14916W        W80077   1.407  11.115   2.627
14917W        W80078  10.309   0.181  14.418
14918W        W80079   7.839   4.228  11.965
14919W        W80080  24.044   9.156   2.625
14920W        W80081  14.786  11.328   1.900
14921W        W80082  22.924  16.784  13.334
14922W        W80083  22.602  20.007  12.561
14923W        W80084  14.790  35.106   1.775
14924W        W80085  15.837  38.400  10.210
14925W        W80086  40.920  37.606  14.813
14926W        W80087  42.262  42.502  13.149
14927W        W80088  37.660  14.425  12.471
14928W        W80089  27.927  32.583   4.972
14929W        W80090  42.299  20.283  14.247
14930W        W80091  33.556  37.720   5.433
14931W        W80092  34.398  19.369  10.941
14932W        W80093  41.510   8.864   1.238
14933W        W80094  13.123   3.934  13.071
14934W        W80095  34.380  24.994  14.092
14935W        W80096  42.416  44.471  11.595
14936W        W80097  22.672   4.222  10.531
14937W        W80098  30.894  11.112   3.168
14938W        W80099  28.744   2.299   0.958
14939W        W80100   4.823  14.876  12.463
14940W        W80101   4.384  27.239   0.837
14941W        W80102  41.834  17.323  13.892
14942W        W80103  41.585   7.113   1.734
14943W        W80104  32.337  11.815  13.015
14944W        W80105  29.911  21.220  13.288
14945W        W80106  27.542  33.461  10.280
14946W        W80107  20.099  29.097  12.343
14947W        W80108  21.276   8.300   1.187
14948W        W80109  19.826   0.005  13.443
14949W        W80110  12.362  12.858  11.490
14950W        W80111  31.156  36.381   0.165
14951W        W80112  29.576  14.698   0.240
14952W        W80113  28.169   2.288   1.861
14953W        W80114  23.469  14.347   2.655
14954W        W80115  18.677  17.984   1.482
14955W        W80116  25.049  36.323   4.564
14956W        W80117  11.111  15.717   0.297
14957W        W80118  36.336  44.431   4.492
14958W        W80119  28.521  30.394  14.398
14959W        W80120  29.094   6.726  12.170
14960W        W80121   8.294  25.630   3.066
14961W        W80122  32.958  17.490  11.030
14962W        W80123  42.631   5.315   1.995
14963W        W80124  25.742  32.272   4.539
14964W        W80125  42.023  16.132   0.455
14965W        W80126  40.339   9.489   4.557
14966W        W80127  31.477   8.856  11.558
14967W        W80128  35.339  26.679  11.597
14968W        W80129  15.102  17.179  13.441
14969W        W80130  12.192  14.226  13.494
14970W        W80131   5.445   9.225   1.854
14971W        W80132  20.996  35.466  11.572
14972W        W80133  20.914  34.072   1.116
14973W        W80134   5.849   4.572   1.132
14974W        W80135  10.149  22.501  12.112
14975W        W80136  20.768  32.734  14.531
14976W        W80137  17.145  28.082   2.126
14977W        W80138   7.687  30.029  13.065
14978W        W80139  24.784  26.170  12.026
14979W        W80140  43.133  12.701   4.063
14980W        W80141  14.759  28.432  12.343
14981W        W80142   8.929  26.443  13.040
14982W        W80143   6.709  34.513   3.190
14983W        W80144   1.653  43.517  13.346
14984W        W80145  25.464   3.998  14.853
14985W        W80146  25.432  26.282  12.028
14986W        W80147  44.465   2.900   1.661
14987W        W80148   0.914  44.300   3.063
14988W        W80149  24.186  28.961  10.192
14989W        W80150  43.774  12.022   1.751
14990W        W80151  16.525   4.485   3.689
14991W        W80152  33.130  43.803  14.029
14992W        W80153  38.436  25.980  14.869
14993W        W80154  26.439  19.334  12.057
14994W        W80155  22.304   0.185  11.175
14995W        W80156  23.805   2.741   0.324
14996W        W80157  14.830   5.661   1.440
14997W        W80158  31.084  39.497   3.289
14998W        W80159  16.548  19.091  11.712
14999W        W80160  12.109  26.602   1.745
15000W        W80161  43.798   5.128  14.370
15001W        W80162  36.050  17.225  12.856
15002W        W80163  16.305  29.085   3.226
15003W        W80164   7.996  22.179   2.101
15004W        W80165  21.178  15.378   4.648
15005W        W80166   9.752   2.992   3.763
15006W        W80167  24.183  15.221  14.924
15007W        W80168  23.494  20.272  12.577
15008W        W80169  39.654  15.112   3.348
15009W        W80170  14.121  43.924  13.286
15010W        W80171  14.228  43.069   4.267
15011W        W80172   8.360  11.119  14.828
15012W        W80173  39.343  41.095  11.521
15013W        W80174  18.073  30.882  11.193
15014W        W80175  34.616  16.336   3.637
15015W        W80176  29.456  27.165   4.791
15016W        W80177   4.197  32.564   2.101
15017W        W80178  28.005  43.188  13.161
15018W        W80179  23.644  38.091   1.342
15019W        W80180   7.517  32.542   2.665
15020W        W80181  12.116  19.774   4.240
15021W        W80182  41.421  12.726   3.439
15022W        W80183  35.137  38.195  10.750
15023W        W80184  32.458  19.855  12.898
15024W        W80185  10.589  33.036  14.778
15025W        W80186  38.006  16.827  13.458
15026W        W80187  18.091   7.326  13.884
15027W        W80188  21.174  31.806  10.377
15028W        W80189  20.593  44.881  12.149
15029W        W80190   0.706  17.555  11.662
15030W        W80191  14.046  41.476  13.381
15031W        W80192   5.682  31.638   2.291
15032W        W80193  37.095   9.686  11.637
15033W        W80194   2.840  44.518   2.657
15034W        W80195  15.141  12.844   3.323
15035W        W80196  41.239  16.681  11.712
15036W        W80197  43.287  23.455   9.922
15037W        W80198  40.167  15.753  10.035
15038W        W80199  28.956   5.233   0.821
15039W        W80200  12.701   4.887   4.111
15040W        W80201  33.139   5.016   3.772
15041W        W80202   8.407  15.587  14.443
15042W        W80203   8.796  23.951   4.188
15043W        W80204  40.210  38.688  11.606
15044W        W80205  29.239  14.447   4.171
15045W        W80206  41.315  26.524   4.417
15046W        W80207   9.852   0.491   1.830
15047W        W80208  25.285  37.684  12.731
15048W        W80209  15.299  28.549   0.486
15049W        W80210  23.714  18.706   3.630
15050W        W80211  15.459  30.662   0.294
15051W        W80212   5.570  25.295  14.816
15052W        W80213  15.684  18.011   3.150
15053W        W80214  23.567  38.867  14.971
15054W        W80215  44.178  35.516   0.782
15055W        W80216  31.147  24.133   2.813
15056W        W80217  36.083  30.996   4.253
15057W        W80218   5.398  11.270   1.927
15058W        W80219  16.688  40.665   4.148
15059W        W80220   8.085   4.257   1.503
15060W        W80221  32.306  44.851   1.773
15061W        W80222  44.960  42.096  11.081
15062W        W80223   5.786  42.595  11.693
15063W        W80224  30.539  13.322   0.381
15064W        W80225   2.806   1.276   4.600
15065W        W80226  37.947   4.071  14.773
15066W        W80227  20.604  21.597   1.439
15067W        W80228   7.778  10.907  11.012
15068W        W80229   4.790  13.277   1.064
15069W        W80230  22.978  38.383   3.351
15070W        W80231  26.958  35.835  11.143
15071W        W80232  37.591   7.781  11.980
15072W        W80233  11.616  10.371  13.156
15073W        W80234   2.888  14.181  13.454
15074W        W80235  35.993  32.001  12.467
15075W        W80236  12.219  34.670  13.416
15076W        W80237  37.777  20.797   0.848
15077W        W80238  20.553  21.385  11.121
15078W        W80239  30.872  13.180   3.877
15079W        W80240  33.915  35.534  14.031
15080W        W80241  14.625   7.773  10.447
15081W        W80242  28.649   9.659  11.457
15082W        W80243  14.459  17.575  13.748
15083W        W80244  44.538   4.540  11.539
15084W        W80245  43.752  17.067  13.948
15085W        W80246   3.409  44.006  10.541
15086W        W80247  35.010  23.293   2.283
15087W        W80248   7.854  14.125   1.276
15088W        W80249  20.766  15.382   3.634
15089W        W80250   9.643  28.225  13.230
15090W        W80251  32.420  33.130   3.641
15091W        W80252  23.089  19.554  10.571
15092W        W80253  29.463  29.995   3.747
15093W        W80254  28.954  31.681  11.086
15094W        W80255   7.776  29.135   0.513
15095W        W80256  35.063  41.547   4.605
15096W        W80257  19.624  28.264  11.611
15097W        W80258  24.525   3.751   0.984
15098W        W80259  12.686  39.539  13.324
15099W        W80260  22.228   4.923   3.669
15100W        W80261  35.839  30.064  11.588
15101W        W80262  18.957  13.800   0.199
15102W        W80263  28.701  40.854   1.706
15103W        W80264   5.650  26.680  14.810
15104W        W80265  33.886   7.332  12.513
15105W        W80266  40.155  27.118  11.588
15106W        W80267  42.777  11.363   2.939
15107W        W80268  24.467   9.833   0.975
15108W        W80269  43.892  34.014  12.118
15109W        W80270  16.790  10.614   4.790
15110W        W80271  17.535  25.211   2.684
15111W        W80272   0.724  36.430   1.691
15112W        W80273  24.974  26.954   4.855
15113W        W80274  32.859  15.233   4.726
15114W        W80275  22.290  30.691   0.634
15115W        W80276  44.783  28.499  12.248
15116W        W80277  13.844   8.984   3.603
15117W        W80278  17.088   2.994  14.958
15118W        W80279  26.890  30.746  14.827
15119W        W80280  12.381   4.696  11.521
15120W        W80281  35.397  18.274  10.557
15121W        W80282  42.463  42.393  13.619
15122W        W80283  32.503   5.244   4.500
15123W        W80284  32.987   4.217  11.416
15124W        W80285  14.556  25.000   1.405
15125W        W80286  22.210  22.321   0.740
15126W        W80287  30.491   6.175  11.962
15127W        W80288  44.223  21.217  10.722
15128W        W80289  39.967   4.399  14.521
15129W        W80290  17.576  21.477  13.594
15130W        W80291  11.641  25.323   9.974
15131W        W80292  24.425  26.478  10.360
15132W        W80293  44.814  18.752  10.744
15133W        W80294  14.395   1.094   2.282
15134W        W80295  41.583   7.477   3.353
15135W        W80296   9.746  19.373   2.326
15136W        W80297  34.422  30.792   0.438
15137W        W80298  40.405  39.949   0.503
15138W        W80299   9.635  33.560   4.399
15139W        W80300   5.926   4.485  13.531
15140W        W80301  32.632  11.147   0.202
15141W        W80302  24.907  21.910   1.410
15142W        W80303  20.125  38.176  10.443
15143W        W80304   2.406  13.727   3.086
15144W        W80305   9.073  25.616  12.137
15145W        W80306  38.146  38.163   1.664
15146W        W80307   0.591   8.745  10.666
15147W        W80308  32.434   6.939   3.603
15148W        W80309   7.318  25.263  14.006
15149W        W80310  14.283  29.923   1.416
15150W        W80311  17.981  16.245   1.429
15151W        W80312  43.001  39.490  11.622
15152W        W80313  11.797  43.954   1.894
15153W        W80314  35.136   9.338   1.744
15154W        W80315  38.839  19.871  13.488
15155W        W80316   1.707  29.092   4.489
15156W        W80317  20.961   0.250  12.049
15157W        W80318  37.137  24.563  12.487
15158W        W80319  11.222  19.841   0.375
15159W        W80320  27.534  39.810   4.114
15160W        W80321  44.801  28.933   3.605
15161W        W80322   4.947  38.056   3.702
15162W        W80323   8.762   1.737   3.338
15163W        W80324  12.832  22.522  14.447
15164W        W80325  34.011  30.852  11.601
15165W        W80326   1.169  26.060   2.800
15166W        W80327  44.843  29.448   3.657
15167W        W80328  37.029   8.716  12.551
15168W        W80329  12.730  19.610   2.210
15169W        W80330  34.176  39.856   2.398
15170W        W80331  21.749  43.356  14.821
15171W        W80332  37.193  39.271   3.585
15172W        W80333  29.445  12.115  14.220
15173W        W80334  37.560  19.940  10.444
15174W        W80335  40.533   0.517   2.394
15175W        W80336  30.393  33.972   1.397
15176W        W80337  11.386  20.211   3.959
15177W        W80338  31.341  13.315  14.816
15178W        W80339  15.462  17.875  11.001
15179W        W80340   5.925   1.918   4.223
15180W        W80341  44.522  25.507   2.840
15181W        W80342   9.147  36.931  11.147
15182W        W80343  43.413   9.168   3.804
15183W        W80344  44.782  28.777  14.323
15184W        W80345  41.895  35.961  14.975
15185W        W80346  14.547  23.705  12.190
15186W        W80347  39.873  40.393  12.553
15187W        W80348   6.951   8.954   0.754
15188W        W80349  38.878   4.456   4.195
15189W        W80350  43.852  32.789  11.332
15190W        W80351  38.150  30.383  11.616
15191W        W80352   6.788  32.085   2.773
15192W        W80353  22.656   4.262   5.040
15193W        W80354  13.163  19.220   1.636
15194W        W80355  22.931  22.693  14.009
15195W        W80356  18.210   9.787  12.518
15196W        W80357  43.277  26.697  12.843
15197W        W80358   1.215  30.973  13.882
15198W        W80359  39.549  29.969  11.527
15199W        W80360   8.288  17.270   2.276
15200W        W80361  18.320  43.415   1.708
15201W        W80362  37.398  40.273  12.922
15202W        W80363  23.781   2.339   4.093
15203W        W80364  10.134  18.432   0.168
15204W        W80365  20.678   6.366   3.415
15205W        W80366  13.186  28.011   4.497
15206W        W80367  28.720  26.850   5.207
15207W        W80368   2.448  41.917   4.871
15208W        W80369  26.071  27.128   4.595
15209W        W80370   8.390  36.842  11.672
15210W        W80371  16.224   2.345   0.248
15211W        W80372   7.905   9.788  13.802
15212W        W80373  30.647   3.986   3.606
15213W        W80374  13.549  21.813  13.535
15214W        W80375  14.099  30.124  12.026
15215W        W80376  33.111  14.302  13.308
15216W        W80377   3.680  31.918   1.816
15217W        W80378  41.173   8.859   4.859
15218W        W80379   1.171  31.987   1.714
15219W        W80380  28.589   1.064  13.126
15220W        W80381  22.780  36.873  12.116
15221W        W80382  10.591  36.977  14.860
15222W        W80383  43.396   6.372  10.699
15223W        W80384  26.749  27.982   2.730
15224W        W80385  10.542  41.516  13.449
15225W        W80386   4.382  11.102   2.666
15226W        W80387   6.651  35.598  13.542
15227W        W80388  41.729  18.449   3.903
15228W        W80389  18.339  19.540  14.367
15229W        W80390   4.825  42.609  11.569
15230W        W80391  15.754  30.331  10.742
15231W        W80392  27.537  35.657   2.400
15232W        W80393  44.441  20.432  12.531
15233W        W80394  17.313  32.827   2.701
15234W        W80395  36.867  18.647  12.621
15235W        W80396  28.610  23.250   0.013
15236W        W80397  19.233  17.945   0.335
15237W        W80398  33.633  26.135   1.320
15238W        W80399  10.317  38.749  12.721
15239W        W80400  23.777  31.879  10.760
15240W        W80401   7.694  28.422   3.407
15241W        W80402   3.301  39.887  10.609
15242W        W80403  31.555  25.706   3.211
15243W        W80404  25.047  27.921  11.106
15244W        W80405  43.437  23.920   1.339
15245W        W80406  10.409  26.563   4.391
15246W        W80407  28.648  33.565   2.108
15247W        W80408  30.140  26.438   2.287
15248W        W80409  16.992   5.920  13.945
15249W        W80410   0.768  21.979   0.826
15250W        W80411   8.878  15.240   3.299
15251W        W80412  36.220  35.585  12.047
15252W        W80413  41.306  31.598  11.548
15253W        W80414  25.661  38.024  13.427
15254W        W80415  31.424  36.841  12.909
15255W        W80416  27.076  33.457   0.542
15256W        W80417  40.058   6.236   3.675
15257W        W80418  13.867  14.286  12.912
15258W        W80419   8.813  42.990   4.393
15259W        W80420   8.352  27.699   1.661
15260W        W80421  29.120  44.400  13.426
15261W        W80422  26.756  26.701   0.278
15262W        W80423  22.650  13.445  11.123
15263W        W80424  40.482  43.912   2.328
15264W        W80425   3.226  38.488   0.272
15265W        W80426  14.015   9.350  11.143
15266W        W80427   7.678  29.243   1.430
15267W        W80428  20.071  41.074   1.538
15268W        W80429  37.918  14.188  14.246
15269W        W80430  31.498  21.299  14.806
15270W        W80431  31.534   3.923  11.971
15271W        W80432  30.343  15.194   0.345
15272W        W80433   9.763   3.219  14.850
15273W        W80434  33.037  43.873   0.525
15274W        W80435   5.466  22.484   4.693
15275W        W80436  38.735  22.251  11.137
15276W        W80437  44.903   1.253   2.404
15277W        W80438  20.651   9.776  14.814
15278W        W80439  38.120  38.855  14.308
15279W        W80440  28.759  40.721  11.116
15280W        W80441  15.290   7.923  14.387
15281W        W80442   1.512   8.617  11.511
15282W        W80443  34.424  11.182   3.654
15283W        W80444   4.239  24.115  11.239
15284W        W80445  41.559  44.920  13.789
15285W        W80446   1.375  23.288   3.370
15286W        W80447   1.420  36.990   3.121
15287W        W80448  32.178  13.128  13.205
15288W        W80449  21.615  18.286   2.220
15289W        W80450  29.854   4.691  14.415
15290W        W80451  28.582  38.824  10.313
15291W        W80452   5.386  16.926  14.783
15292W        W80453  14.501  31.645   3.172
15293W        W80454  34.478  31.954   1.506
15294W        W80455   6.928   8.940   4.561
15295W        W80456  31.324  42.730   2.652
15296W        W80457  39.959  27.187   2.174
15297W        W80458   4.324  10.614   4.696
15298W        W80459  39.888  11.855  11.647
15299W        W80460  10.384   6.285   3.661
15300W        W80461  37.552  29.937   1.709
15301W        W80462  43.657  32.080  10.702
15302W        W80463   1.950  36.115   0.436
15303W        W80464  10.211  30.528  10.391
15304W        W80465  30.147   8.293   0.170
15305W        W80466  15.498  33.800  10.683
15306W        W80467  10.323   6.651   4.824
15307W        W80468  25.062   4.340   4.692
15308W        W80469  26.645  15.237   1.248
15309W        W80470  33.188   1.789  13.907
15310W        W80471  34.603  38.950  14.503
15311W        W80472   0.928  33.964  12.075
15312W        W80473  19.290  25.090   0.371
15313W        W80474  29.536  21.124  12.543
15314W        W80475  27.974  32.166   4.664
15315W        W80476  28.173  32.980  14.706
15316W        W80477   3.375  22.436  14.392
15317W        W80478  29.940  14.931   1.762
15318W        W80479  35.475  30.168   2.394
15319W        W80480   2.438  21.930  11.521
15320W        W80481  17.366  16.669  12.630
15321W        W80482  25.643  15.651   3.342
15322W        W80483  23.067  21.867   3.684
15323W        W80484  36.902  22.324   4.883
15324W        W80485  44.325   1.180  11.410
15325W        W80486  13.199  33.196  10.556
15326W        W80487  16.704  35.499  11.818
15327W        W80488  13.723   2.418   0.621
15328W        W80489  39.324  41.924  13.991
15329W        W80490   5.293  36.496  11.891
15330W        W80491  30.606  44.177   3.354
15331W        W80492  23.601  43.941  13.071
15332W        W80493  36.273  37.409   0.423
15333W        W80494  25.642  10.610   0.486
15334W        W80495  11.575  16.383  14.508
15335W        W80496   4.328  44.510   1.774
15336W        W80497  35.372   5.824  12.827
15337W        W80498  25.458  23.442  13.688
15338W        W80499  11.761  26.084   0.833
15339W        W80500  28.882  41.034   1.259
15340W        W80501   1.245  18.106  10.704
15341W        W80502   3.284   0.806   4.142
15342W        W80503  15.813  37.473   2.282
15343W        W80504  29.395  39.331  12.590
15344W        W80505  27.064   0.831   1.450
15345W        W80506  24.886  33.866   1.979
15346W        W80507  27.079  40.255  12.068
15347W        W80508  25.581  33.726  14.121
15348W        W80509  10.302  19.244  13.115
15349W        W80510  13.636  28.255   0.826
15350W        W80511  29.539  25.563  12.866
15351W        W80512  11.143  34.442  11.649
15352W        W80513  27.469  30.880  13.596
15353W        W80514  25.009   7.932  14.088
15354W        W80515  20.703  16.851   2.895
15355W        W80516  34.806  19.775  12.847
15356W        W80517  44.738  12.206  11.069
15357W        W80518   7.010  44.053   0.256
15358W        W80519  31.801  43.389   2.368
15359W        W80520   5.718  44.572   9.877
15360W        W80521  23.732  22.708  13.618
15361W        W80522   3.210   8.905  14.773
15362W        W80523   9.318  40.358   2.829
15363W        W80524  29.636  44.431   2.317
15364W        W80525   2.403  39.027  11.132
15365W        W80526  18.019   5.120   3.297
15366W        W80527  38.424  29.139   3.305
15367W        W80528   3.678   2.313  10.966
15368W        W80529  24.031  18.167  12.143
15369W        W80530  12.605   5.940  11.216
15370W        W80531  10.764  42.003   0.045
15371W        W80532  18.590  35.390  12.288
15372W        W80533  15.193  15.173   0.847
15373W        W80534  27.270  30.976   1.766
15374W        W80535  10.570   9.886  14.355
15375W        W80536  15.251  23.448   0.502
15376W        W80537  13.606  36.418   3.828
15377W        W80538  23.594  21.269   3.578
15378W        W80539  33.368   6.752   4.132
15379W        W80540  26.014  33.599  13.876
15380W        W80541  25.133  39.618  13.838
15381W        W80542   7.888  16.570  10.664
15382W        W80543  17.331  24.562  14.499
15383W        W80544   7.797  22.129   4.653
15384W        W80545  41.851  11.652  12.547
15385W        W80546  25.312  41.843   3.992
15386W        W80547  28.684  38.729   4.546
15387W        W80548  25.458  44.730  14.456
15388W        W80549  34.005  21.042  12.911
15389W        W80550  10.231   4.910   1.884
15390W        W80551  44.963  34.415   4.723
15391W        W80552  44.776  42.461  12.046
15392W        W80553  11.412   0.812   0.967
15393W        W80554  36.467  16.856  14.911
15394W        W80555   7.656  10.114  12.518
15395W        W80556  15.725  23.289   2.544
15396W        W80557   8.483  15.562   3.402
15397W        W80558   0.806  35.762   3.431
15398W        W80559  44.503  39.884  11.283
15399W        W80560  32.455  10.126   2.166
15400W        W80561  42.883   4.029   2.227
15401W        W80562  21.863  33.789  12.981
15402W        W80563  43.402  28.443  10.830
15403W        W80564  31.096  19.993  13.993
15404W        W80565  26.215  12.052   1.494
15405W        W80566   5.674  39.059  13.907
15406W        W80567  34.871  38.450  13.155
15407W        W80568  27.104  35.352   0.166
15408W        W80569   4.378  29.357   0.368
15409W        W80570  22.005  11.190  14.267
15410W        W80571  23.902  35.116   1.421
15411W        W80572  13.811  39.185   5.085
15412W        W80573  34.498  26.758   3.285
15413W        W80574  31.901   9.185   1.020
15414W        W80575  24.810  21.499  10.522
15415W        W80576  34.073  42.840  13.870
15416W        W80577  28.680   8.156  12.973
15417W        W80578  32.597  11.669  11.526
15418W        W80579  25.430  13.434  11.239
15419W        W80580  23.969  40.829   3.055
15420W        W80581  36.968  27.215   2.268
15421W        W80582  13.619  41.431   3.459
15422W        W80583   3.618  41.230   2.838
15423W        W80584  14.715  41.999   0.634
15424W        W80585  31.445  19.626  14.913
15425W        W80586  29.714  34.943   5.251
15426W        W80587   9.855  30.456   4.618
15427W        W80588  34.072  21.581   0.183
15428W        W80589  43.253  22.756   2.289
15429W        W80590   4.371   6.763  10.668
15430W        W80591  32.495  13.540   3.776
15431W        W80592  39.434  24.157   0.435
15432W        W80593  37.485   1.900   2.254
15433W        W80594  24.019  44.729  13.091
15434W        W80595  24.806  41.098   2.222
15435W        W80596  20.341  38.077   1.306
15436W        W80597  44.774  32.873  11.389
15437W        W80598  16.763   0.039   4.197
15438W        W80599  28.971  16.355   4.550
15439W        W80600  30.709  24.131  10.698
15440W        W80601  31.465  41.366  11.023
15441W        W80602  24.035  29.984  10.682
15442W        W80603  14.215  30.526  10.732
15443W        W80604  27.203  17.770   3.108
15444W        W80605  13.068  26.184   0.437
15445W        W80606  12.899  19.745  14.887
15446W        W80607  35.798  10.272  10.451
15447W        W80608  28.698  25.892  11.975
15448W        W80609  10.147  16.823   1.383
15449W        W80610  39.949  30.514   4.177
15450W        W80611  31.038  27.858  14.513
15451W        W80612  43.600  35.690  13.931
15452W        W80613  14.229   6.200   2.290
15453W        W80614  27.743   3.321  12.178
15454W        W80615  13.727   9.131  14.442
15455W        W80616  18.255  39.927   3.210
15456W        W80617   3.341   7.313  13.959
15457W        W80618   2.911  21.056   0.470
15458W        W80619  23.987  20.011  12.623
15459W        W80620   1.297  21.395   4.551
15460W        W80621  36.884  22.468   2.282
15461W        W80622  29.523  36.824   2.294
15462W        W80623  12.234  15.483   3.275
15463W        W80624  40.439  24.969  14.542
15464W        W80625  16.105  12.130  13.483
15465W        W80626   6.244   1.947   1.417
15466W        W80627  17.242  37.993  11.975
15467W        W80628  22.132   5.288  13.349
15468W        W80629  33.361   8.145   2.993
15469W        W80630  22.230   8.729  13.001
15470W        W80631  43.021   9.769  12.636
15471W        W80632   0.383   6.878  10.900
15472W        W80633   1.452  11.209   5.009
15473W        W80634  17.127  19.348   4.086
15474W        W80635  20.006  31.117   2.270
15475W        W80636  43.265  16.269   1.828
15476W        W80637  18.550   2.776   3.664
15477W        W80638  27.138  28.488   4.554
15478W        W80639  19.249  22.973  14.471
15479W        W80640  17.686   2.325   3.669
15480W        W80641  23.108  15.732   2.349
15481W        W80642  34.070  35.987  11.616
15482W        W80643  41.807  28.474  13.540
15483W        W80644  21.527  38.426  12.521
15484W        W80645  38.563  29.425  12.085
15485W        W80646  12.441  21.561  12.791
15486W        W80647  43.504   5.309  12.237
15487W        W80648  29.017  39.056   4.326
15488W        W80649  42.452  12.824   4.596
15489W        W80650  33.196   7.341  14.917
15490W        W80651  39.522  28.540   1.189
15491W        W80652   9.813  22.749  13.489
15492W        W80653   9.211  25.069   9.749
15493W        W80654   9.198   2.293   3.038
15494W        W80655  44.766   6.707   3.286
15495W        W80656   5.919  37.553   3.698
15496W        W80657   0.596   5.023  10.336
15497W        W80658  14.533   1.924   3.405
15498W        W80659   7.521  10.561   2.764
15499W        W80660  44.689  13.209   0.974
15500W        W80661  44.918  20.268   2.323
15501W        W80662  11.136   0.421   3.197
15502W        W80663  29.573  35.975  14.404
15503W        W80664  17.843   4.197   2.801
15504W        W80665  30.911  14.577  14.852
15505W        W80666   1.348  20.093  10.924
15506W        W80667  41.877  41.831  11.252
15507W        W80668   3.718  17.136   1.207
15508W        W80669   2.597  29.111  12.101
15509W        W80670  22.706  14.840  11.366
15510W        W80671  33.899  24.746   0.528
15511W        W80672  32.926  16.062  11.010
15512W        W80673  16.651   3.316  13.994
15513W        W80674  41.427   6.945   0.345
15514W        W80675  33.000  35.520  10.954
15515W        W80676  26.911   6.000   9.880
15516W        W80677  35.517  21.715  12.113
15517W        W80678  44.583  30.952   3.439
15518W        W80679  36.540  31.990  12.111
15519W        W80680  14.496  39.768  11.413
15520W        W80681   2.558  22.418  11.550
15521W        W80682  26.784   0.435   4.081
15522W        W80683  24.574  36.517  10.277
15523W        W80684  42.062  31.572   2.747
15524W        W80685  14.852  27.905   0.874
15525W        W80686  11.422  40.392   0.347
15526W        W80687  42.570   8.247   1.820
15527W        W80688  12.603  38.806   3.918
15528W        W80689  44.243  11.708   0.919
15529W        W80690  35.140   6.276   0.950
15530W        W80691  23.716  36.106  11.523
15531W        W80692  13.217  42.882   1.893
15532W        W80693  36.056  15.668   2.151
15533W        W80694  34.821   8.021   1.763
15534W        W80695  12.795  10.671  14.551
15535W        W80696  29.819  35.050  12.777
15536W        W80697  25.781  31.344  11.631
15537W        W80698  11.920  29.621  11.649
15538W        W80699  10.827  10.328  11.189
15539W        W80700  24.062  21.708   2.006
15540W        W80701   9.848  19.608   1.294
15541W        W80702  18.699  11.602   0.174
15542W        W80703  11.641  44.538   1.210
15543W        W80704  19.715  43.613  10.782
15544W        W80705  19.171  14.597   4.100
15545W        W80706  22.832   1.436  13.919
15546W        W80707   5.857  35.354   4.189
15547W        W80708  11.568  26.267  11.590
15548W        W80709  26.306  10.129  10.631
15549W        W80710   1.754  31.110   2.694
15550W        W80711  25.648  39.460  12.394
15551W        W80712  36.962   6.220   2.542
15552W        W80713  22.445  23.301  12.503
15553W        W80714  41.550  11.535  14.963
15554W        W80715  27.151  34.362   0.257
15555W        W80716  33.446  26.453   1.898
15556W        W80717  37.403  28.369  14.615
15557W        W80718  20.129  42.004  11.051
15558W        W80719  18.129  16.777  14.749
15559W        W80720   0.311  17.713   4.137
15560W        W80721  40.297  18.819   2.980
15561W        W80722   6.940  31.893   3.279
15562W        W80723   3.259  23.541   1.379
15563W        W80724   6.954  16.701  13.983
15564W        W80725  16.784  31.595   3.654
15565W        W80726  29.409  22.539  12.433
15566W        W80727   2.061  22.137   0.492
15567W        W80728  34.923   2.836  14.859
15568W        W80729  42.593  12.749  13.641
15569W        W80730   2.639  14.905   0.366
15570W        W80731  43.184  13.232  14.719
15571W        W80732  13.594  24.719  11.599
15572W        W80733   5.591  25.873  14.491
15573W        W80734  12.398  35.971  14.004
15574W        W80735  15.728  31.034   2.652
15575W        W80736  26.369  32.030  12.669
15576W        W80737  19.979  24.449   4.104
15577W        W80738  29.651  23.188   0.404
15578W        W80739  40.268  29.128   2.212
15579W        W80740  14.199  15.526  11.533
15580W        W80741  27.773  38.473   2.116
15581W        W80742  20.529  25.804   4.576
15582W        W80743  29.624  25.933  11.944
15583W        W80744  15.967  16.488   9.853
15584W        W80745   5.742  20.787   4.238
15585W        W80746   3.689  39.228   1.356
15586W        W80747   5.948  40.845  12.130
15587W        W80748  12.322  20.274  14.261
15588W        W80749  44.332   8.255  13.744
15589W        W80750  44.054  19.592   0.643
15590W        W80751  43.759  16.074  11.505
15591W        W80752  13.316   2.239   4.621
15592W        W80753  30.554  15.722   0.397
15593W        W80754  32.154   9.620   0.690
15594W        W80755  38.369  31.920   0.806
15595W        W80756   3.129  11.403  12.799
15596W        W80757  38.151   0.805  14.377
15597W        W80758   7.235  11.304   3.697
15598W        W80759  32.760  36.569  11.636
15599W        W80760  34.339  15.885   3.680
15600W        W80761  25.492   8.178  14.937
15601W        W80762  40.586  12.587   3.787
15602W        W80763  15.732  11.615  14.420
15603W        W80764  24.387  14.191   1.226
15604W        W80765   9.691  20.564   3.054
15605W        W80766   3.400  18.153   0.307
15606W        W80767  30.064  15.866  11.666
15607W        W80768  43.032  13.196   1.794
15608W        W80769  18.635  33.084   2.319
15609W        W80770  28.961   4.512   3.798
15610W        W80771  26.187  25.133   3.670
15611W        W80772   0.276   6.492   2.311
15612W        W80773  24.599   3.674   4.158
15613W        W80774  34.776  39.891   3.235
15614W        W80775  18.042  30.703   2.761
15615W        W80776  38.632  20.787  13.565
15616W        W80777  32.507   6.612   0.694
15617W        W80778  44.229  38.535   1.356
15618W        W80779   3.549  18.934  12.242
15619W        W80780   4.427  40.049   2.694
15620W        W80781  24.403  38.038   3.147
15621W        W80782  15.146  17.031  13.999
15622W        W80783   0.228  13.798  10.667
15623W        W80784  18.834  29.231  11.513
15624W        W80785   3.143  43.484  11.660
15625W        W80786  42.490  23.653  10.633
15626W        W80787  14.807  12.849   4.602
15627W        W80788  26.730  17.768   0.482
15628W        W80789  29.169  10.281  11.951
15629W        W80790  42.162  13.874  14.081
15630W        W80791  26.922   5.407  10.601
15631W        W80792  22.671   0.986  11.260
15632W        W80793   4.783   4.838  11.344
15633W        W80794  43.987  43.188  12.058
15634W        W80795   8.737   9.349   5.145
15635W        W80796  19.049  17.305   3.648
15636W        W80797  26.553  26.091  11.369
15637W        W80798  41.472  16.212   0.438
15638W        W80799  16.215   8.880   3.171
15639W        W80800  25.540  41.050  12.007
15640W        W80801   9.230  26.017   4.037
15641W        W80802  31.205  24.022  10.189
15642W        W80803  26.213  20.289   3.808
15643W        W80804  40.977  22.963  12.480
15644W        W80805  23.573  28.880  12.648
15645W        W80806  27.988  10.096  13.979
15646W        W80807   7.783  11.675   3.153
15647W        W80808  43.374  15.378   3.116
15648W        W80809   4.346  43.286  10.581
15649W        W80810  16.649  14.665  11.513
15650W        W80811  44.351  31.915   1.150
15651W        W80812   3.245  43.117   4.988
15652W        W80813   6.226   6.891   4.083
15653W        W80814  35.566  17.841  11.475
15654W        W80815  39.029  20.130  14.850
15655W        W80816  22.326  23.877  14.477
15656W        W80817  25.566  42.822  10.923
15657W        W80818  21.537  11.040  10.721
15658W        W80819   7.221  36.555   3.214
15659W        W80820  40.787  18.242   3.644
15660W        W80821  20.068  44.975  12.990
15661W        W80822  10.275  23.503  14.123
15662W        W80823  29.713  20.167   2.813
15663W        W80824  17.018   0.490   2.318
15664W        W80825  24.581  13.313   2.454
15665W        W80826  32.044   9.602   0.151
15666W        W80827  28.520  44.885  13.846
15667W        W80828  33.386  10.189  10.568
15668W        W80829   5.345  18.743  11.990
15669W        W80830  17.748  31.494   3.491
15670W        W80831   7.317   8.429   2.275
15671W        W80832   2.183  24.494  10.277
15672W        W80833  37.615  14.604  14.376
15673W        W80834   7.682  35.204   4.169
15674W        W80835  29.592  15.832  14.440
15675W        W80836  17.748  28.640   1.935
15676W        W80837  44.165   5.950   2.866
15677W        W80838   9.166  26.000  14.416
15678W        W80839  25.232  27.790  12.894
15679W        W80840   1.662  23.617   1.004
15680W        W80841  36.515  28.301  11.528
15681W        W80842  16.363   6.289   0.679
15682W        W80843   9.914  29.132  10.699
15683W        W80844  29.141  13.686   2.580
15684W        W80845  39.953   9.735   3.856
15685W        W80846  23.969  28.363  13.950
15686W        W80847  35.384  24.441   2.825
15687W        W80848   4.465  24.939  10.740
15688W        W80849  19.799  17.547   2.821
15689W        W80850  42.558  20.512   4.461
15690W        W80851  14.086  33.157  14.775
15691W        W80852  25.521  44.814  10.736
15692W        W80853  27.639  16.224  13.385
15693W        W80854   3.475  18.621  13.172
15694W        W80855  17.083  36.460  12.116
15695W        W80856  15.044   6.361   1.697
15696W        W80857  39.431  25.731  11.239
15697W        W80858  35.009   5.537   2.318
15698W        W80859   9.323   7.114  13.593
15699W        W80860  40.365  13.933   2.773
15700W        W80861  37.108  12.200  14.048
15701W        W80862  16.992  44.738  12.012
15702W        W80863   4.618   4.699  13.831
15703W        W80864  11.212  27.612   1.268
15704W        W80865  37.666  34.415  12.914
15705W        W80866  34.856  18.472  13.414
15706W        W80867  13.149  30.639   0.082
15707W        W80868   2.371  29.961   3.332
15708W        W80869  32.574  28.911  12.463
15709W        W80870  24.741  44.475   3.605
15710W        W80871  16.500   7.784  10.749
15711W        W80872   1.782  40.412  11.195
15712W        W80873  40.445  15.783   2.178
15713W        W80874  39.788  27.329  14.201
15714W        W80875  29.082   8.599  13.850
15715W        W80876   3.999  11.891   0.480
15716W        W80877  28.399  30.356  13.631
15717W        W80878  13.667  17.101  14.863
15718W        W80879   5.765  40.360   2.295
15719W        W80880  23.196   0.961  14.438
15720W        W80881  26.078  19.671  10.542
15721W        W80882  44.068   2.712   0.766
15722W        W80883   6.983  17.254  11.923
15723W        W80884  44.492  16.567  12.526
15724W        W80885  32.961  12.595   4.555
15725W        W80886  10.594  29.997  13.497
15726W        W80887  16.624  39.771   0.976
15727W        W80888   5.909  14.010  12.094
15728W        W80889  44.109  19.926   1.812
15729W        W80890  16.635  22.646   3.261
15730W        W80891  24.426  11.435  13.189
15731W        W80892   9.884  31.367   0.293
15732W        W80893   7.259   3.071  14.319
15733W        W80894  41.024  10.705   0.327
15734W        W80895  27.010  40.469   0.783
15735W        W80896  21.823  26.579   0.867
15736W        W80897  41.420   7.385  14.250
15737W        W80898  28.696  11.740  12.761
15738W        W80899  22.683  14.659   1.816
15739W        W80900  11.593   0.857   1.946
15740W        W80901  22.449  43.475   3.230
15741W        W80902  25.598  14.311  11.187
15742W        W80903  29.947   1.539   2.372
15743W        W80904  24.102   9.401   0.356
15744W        W80905  39.054  22.540   1.836
15745W        W80906  17.243  31.616   1.779
15746W        W80907  15.406  28.502  14.055
15747W        W80908   7.610  29.084   3.567
15748W        W80909  22.534  28.981  14.495
15749W        W80910   2.062  17.835   3.653
15750W        W80911   7.458  42.776   3.446
15751W        W80912  24.716   0.855  14.244
15752W        W80913  30.633  26.426   1.905
15753W        W80914  15.140  13.834   2.698
15754W        W80915  19.125   5.196   4.115
15755W        W80916  18.668  32.028  14.720
15756W        W80917  20.631  40.029   4.993
15757W        W80918  12.158  38.099   0.515
15758W        W80919  15.266  21.097   4.559
15759W        W80920   9.607  43.306   1.617
15760W        W80921  42.377  18.313  10.782
15761W        W80922  26.742  10.787   1.914
15762W        W80923   4.492   9.880   1.782
15763W        W80924  32.340   1.780  12.241
15764W        W80925   2.307   0.835   3.169
15765W        W80926  23.406  43.500   4.092
15766W        W80927  43.346  14.921   1.798
15767W        W80928   2.430   5.263   2.015
15768W        W80929   0.383  15.748  14.007
15769W        W80930  37.601   7.366   0.982
15770W        W80931  24.197   2.288  13.077
15771W        W80932  42.194  11.260   0.785
15772W        W80933  37.542  19.714   4.233
15773W        W80934  43.976  24.175  13.974
15774W        W80935   0.813  19.599   3.990
15775W        W80936  27.904  32.092   5.179
15776W        W80937  14.309  17.657  13.209
15777W        W80938  29.618   3.710   3.369
15778W        W80939  34.034  25.050   4.357
15779W        W80940   2.797  10.353  14.124
15780W        W80941  33.567   2.278  12.104
15781W        W80942  11.050  13.569   4.846
15782W        W80943  20.042  33.562  12.536
15783W        W80944  29.986  20.613   0.978
15784W        W80945  35.468  30.719  14.299
15785W        W80946   3.529  30.188  14.993
15786W        W80947  23.868  44.062  14.375
15787W        W80948  34.910  19.091   2.781
15788W        W80949  21.104   5.381   1.852
15789W        W80950  12.149  41.026  13.916
15790W        W80951  36.187  38.649   4.576
15791W        W80952  30.060  30.199  11.827
15792W        W80953  29.969   2.008   3.832
15793W        W80954  28.218  41.364   0.323
15794W        W80955   4.258  12.621  10.713
15795W        W80956  19.178  44.413   2.764
15796W        W80957  36.739  30.289  14.371
15797W        W80958  12.576  32.062  14.357
15798W        W80959   0.328   5.951   0.013
15799W        W80960   8.701  20.115  11.421
15800W        W80961  29.580  36.058   2.756
15801W        W80962   1.701  35.682   3.270
15802W        W80963  14.572   4.275   2.292
15803W        W80964  16.741  29.340  11.252
15804W        W80965  38.340  12.492  13.622
15805W        W80966   6.379  38.732   4.425
15806W        W80967  24.640  18.736  14.497
15807W        W80968  19.036   2.746   1.919
15808W        W80969  40.347   7.199  12.504
15809W        W80970  30.159  43.051   3.111
15810W        W80971  28.551  34.353  14.040
15811W        W80972  25.017  34.529   0.500
15812W        W80973  10.092  15.536   4.974
15813W        W80974  23.242  21.111   5.438
15814W        W80975  24.452   1.911   2.832
15815W        W80976  21.179   7.124   4.866
15816W        W80977  15.236  40.231   3.036
15817W        W80978   9.742   6.886  12.156
15818W        W80979  10.144   9.992   3.264
15819W        W80980  21.946  24.775   0.821
15820W        W80981   4.722  19.273  12.512
15821W        W80982   4.257  14.959   4.591
15822W        W80983   9.527  29.130  12.371
15823W        W80984  37.435  31.713  12.903
15824W        W80985  30.957  12.283  14.926
15825W        W80986  24.978  21.146  14.397
15826W        W80987  37.399  19.598   1.002
15827W        W80988  13.841  35.004  11.587
15828W        W80989  34.092  26.432   1.282
15829W        W80990  39.422  11.301   4.956
15830W        W80991  21.775  13.056  11.829
15831W        W80992  20.748  16.621  13.524
15832W        W80993  19.096  26.580   2.181
15833W        W80994   2.711  42.469  14.256
15834W        W80995  41.459   3.168   1.397
15835W        W80996  15.657  39.861  12.158
15836W        W80997  19.937  43.172  13.025
15837W        W80998  27.251   5.837   1.449
15838W        W80999  21.707  17.198   4.476
15839W        W81000   0.358  21.836   4.300
15840W        W81001  33.830  33.956   1.481
15841W        W81002  30.890   7.216  11.621
15842W        W81003  30.005   0.410  11.787
15843W        W81004   1.708  25.273   1.241
15844W        W81005   9.179   2.683   1.844
15845W        W81006  15.166  10.929   4.252
15846W        W81007  18.778   9.396   3.173
15847W        W81008  32.442  44.447   3.512
15848W        W81009  44.810  12.771   2.193
15849W        W81010  23.975  20.741   2.384
15850W        W81011  13.652  10.242   1.387
15851W        W81012  11.335  13.141   1.173
15852W        W81013  24.233  15.923  14.380
15853W        W81014   3.760   8.762   1.361
15854W        W81015  11.573  39.112   9.987
15855W        W81016  10.156  14.583  12.396
15856W        W81017  41.121  17.598   4.128
15857W        W81018  30.112  42.431  14.420
15858W        W81019  33.818   3.623   4.964
15859W        W81020  20.665  35.296   1.813
15860W        W81021  11.712  43.908  13.654
15861W        W81022  39.048   3.450   3.026
15862W        W81023   5.970  36.167   3.764
15863W        W81024  37.702  39.272   2.602
15864W        W81025  13.339  33.643   2.333
15865W        W81026  22.013  15.889   2.637
15866W        W81027   5.584  39.849  10.785
15867W        W81028   2.326  16.256   1.210
15868W        W81029  27.887  42.601   4.808
15869W        W81030  30.418  35.851  10.646
15870W        W81031  39.388  20.015  14.468
15871W        W81032  29.451  13.268   4.615
15872W        W81033  34.157  34.430   2.766
15873W        W81034   0.666   4.067   3.231
15874W        W81035  43.353  40.992  14.412
15875W        W81036  29.636   3.379   4.184
15876W        W81037  23.090  25.163  11.485
15877W        W81038  41.406  27.776   1.668
15878W        W81039   3.035   2.926   4.150
15879W        W81040   2.020   1.330   3.255
15880W        W81041   6.136  19.538   4.470
15881W        W81042  11.629  10.892  10.158
15882W        W81043   8.299   5.860  11.129
15883W        W81044  25.272  44.714   1.279
15884W        W81045  29.483  11.145  10.375
15885W        W81046  12.588  11.611   4.179
15886W        W81047  31.988  14.366   0.294
15887W        W81048  43.999  30.354  11.975
15888W        W81049   5.904   5.296  10.886
15889W        W81050   3.024  18.613  10.825
15890W        W81051  39.543  22.069   3.196
15891W        W81052  26.081  14.169   3.780
15892W        W81053  44.027  24.431  11.219
15893W        W81054  41.729  44.748   3.143
15894W        W81055  21.215  14.041   2.729
15895W        W81056  31.626  27.906   1.714
15896W        W81057   9.253   0.738  11.685
15897W        W81058  44.802   6.355  12.844
15898W        W81059  25.258   9.811   0.232
15899W        W81060  33.833  10.054  13.812
15900W        W81061  40.342  41.821  14.907
15901W        W81062  36.525  10.182   2.749
15902W        W81063  18.774  42.390   4.293
15903W        W81064  11.720  20.142   1.542
15904W        W81065   2.359  15.435  12.951
15905W        W81066  29.566  39.756   4.147
15906W        W81067  12.952  27.718   2.332
15907W        W81068  22.109  16.721  12.067
15908W        W81069   3.046   4.306   4.110
15909W        W81070  20.307  26.235   3.323
15910W        W81071   9.127   0.418  14.887
15911W        W81072  26.416   4.872   4.503
15912W        W81073  30.649  38.877  13.279
15913W        W81074   1.316  21.487   0.403
15914W        W81075   7.177  36.365   0.550
15915W        W81076  26.737  43.256   1.902
15916W        W81077  13.168  15.203   1.378
15917W        W81078  26.547  39.952   2.124
15918W        W81079  29.692  42.483  13.965
15919W        W81080  36.629   6.762   3.726
15920W        W81081  20.105  40.881  11.993
15921W        W81082  28.601   9.601   4.315
15922W        W81083   9.881  27.982  12.843
15923W        W81084  28.861  25.160  10.750
15924W        W81085  33.909  19.107  12.167
15925W        W81086   9.146  43.989   2.326
15926W        W81087  44.351  28.656   1.202
15927W        W81088  17.364  33.353   2.717
15928W        W81089  22.571  33.325   4.226
15929W        W81090  11.831  16.624   1.029
15930W        W81091  15.777  27.879   4.661
15931W        W81092   4.778  13.126  14.776
15932W        W81093  11.564  22.962   0.852
15933W        W81094  23.244  25.193  14.046
15934W        W81095  29.808   9.629  12.272
15935W        W81096   4.964  37.344   1.750
15936W        W81097  14.703  42.451   2.230
15937W        W81098   0.567   0.343   3.229
15938W        W81099   7.068  28.702  13.916
15939W        W81100  44.288  27.000   4.557
15940W        W81101  10.306  10.433  11.134
15941W        W81102  15.238  34.908   1.057
15942W        W81103  31.198   1.987  10.356
15943W        W81104  16.786  40.547  11.584
15944W        W81105  37.889  20.004   3.718
15945W        W81106  14.815  35.851   3.609
15946W        W81107  43.907   0.974  11.153
15947W        W81108   2.701  20.805   3.149
15948W        W81109  10.874  13.527   4.355
15949W        W81110  40.541   7.281   0.316
15950W        W81111   8.948  10.340   4.250
15951W        W81112  25.892  18.725  13.449
15952W        W81113  25.974  25.116  11.620
15953W        W81114   4.785  35.550   1.330
15954W        W81115  24.399  13.164  10.929
15955W        W81116   6.732  24.032  14.946
15956W        W81117  29.023  13.307   1.221
15957W        W81118  43.603  31.979  12.454
15958W        W81119  23.084   3.846   1.322
15959W        W81120   5.388   6.914   1.702
15960W        W81121  16.703  40.660   3.266
15961W        W81122   1.240  33.554  12.973
15962W        W81123  18.184  22.786   4.538
15963W        W81124  35.715   0.375  12.321
15964W        W81125   5.178   7.032  14.116
15965W        W81126  33.092  26.966  13.933
15966W        W81127  40.665  27.080   0.500
15967W        W81128  17.033  31.646  13.995
15968W        W81129  26.235  31.836  13.430
15969W        W81130   4.877  21.975  13.065
15970W        W81131  44.355   1.613   4.618
15971W        W81132  41.417  40.595   4.466
15972W        W81133  19.180   0.062  13.869
15973W        W81134  19.531   1.063  11.489
15974W        W81135   9.737  10.168   0.057
15975W        W81136  31.397  32.597   2.755
15976W        W81137  16.090   3.243  10.670
15977W        W81138   0.840  38.126   4.030
15978W        W81139   5.365  37.462   4.939
15979W        W81140   7.228   5.186  11.407
15980W        W81141  14.769  43.892   1.962
15981W        W81142   2.465  42.503   3.207
15982W        W81143  21.946  27.440  14.241
15983W        W81144  24.805   1.362   4.099
15984W        W81145  30.923  22.089  10.229
15985W        W81146  34.947   3.371  10.719
15986W        W81147  24.915  35.893   2.521
15987W        W81148  35.087  11.114   2.181
15988W        W81149  20.790  36.962   3.182
15989W        W81150  25.607  33.860   3.638
15990W        W81151  19.676  23.500  11.888
15991W        W81152  11.186  11.758   1.530
15992W        W81153  43.849   8.441   3.321
15993W        W81154  31.194  41.334  13.800
15994W        W81155  42.244  14.887  12.435
15995W        W81156  10.648  14.215   4.361
15996W        W81157  33.938   3.467   2.695
15997W        W81158   3.681  16.621   4.343
15998W        W81159  14.231  36.612  13.340
15999W        W81160  27.212   3.310  12.054
16000W        W81161  21.693  12.807  13.247
16001W        W81162  23.144  33.802  10.698
16002W        W81163  11.143  22.684  11.954
16003W        W81164  39.272  29.372  14.153
16004W        W81165   1.963  13.968   2.871
16005W        W81166  44.162  22.694  14.033
16006W        W81167  33.541  34.356  13.327
16007W        W81168  22.564   9.333   0.292
16008W        W81169  16.819  38.224  11.788
16009W        W81170   2.790   3.328  10.639
16010W        W81171   1.414  23.482  10.889
16011W        W81172   5.904   2.977   2.450
16012W        W81173   2.327   4.535  13.136
16013W        W81174  21.549  25.602   1.720
16014W        W81175  25.644  43.111   4.202
16015W        W81176  28.019  33.257  10.263
16016W        W81177  37.051  39.854   2.732
16017W        W81178   0.921  24.941  13.676
16018W        W81179  44.193  36.191   1.195
16019W        W81180   1.605  16.070  12.386
16020W        W81181  42.277  35.622   9.662
16021W        W81182  28.646  12.213  11.572
16022W        W81183  21.475  24.239  13.394
16023W        W81184   3.479  24.144  11.439
16024W        W81185  14.378  36.504   3.142
16025W        W81186  36.483  33.691   2.193
16026W        W81187  24.623  24.917   3.706
16027W        W81188  26.421  42.516   0.776
16028W        W81189   5.205  24.621  10.379
16029W        W81190  20.145  18.884   4.149
16030W        W81191  19.547  21.423   9.766
16031W        W81192  34.800  43.331   1.746
16032W        W81193   4.757   9.644   2.165
16033W        W81194  27.037  26.495  13.481
16034W        W81195  10.901   3.820   0.731
16035W        W81196  26.464  31.018   4.259
16036W        W81197  13.208  13.514   4.105
16037W        W81198  14.253  35.562  12.411
16038W        W81199  12.886   9.909  12.448
16039W        W81200  13.532   7.673  11.314
16040W        W81201  16.876  34.854  12.914
16041W        W81202  40.060  14.215  12.800
16042W        W81203   6.379  31.401   0.021
16043W        W81204  16.800  18.392   3.699
16044W        W81205  38.750  41.364  11.644
16045W        W81206  42.192  35.873  11.018
16046W        W81207  19.784  17.179  10.709
16047W        W81208  23.710  41.600  14.970
16048W        W81209  32.657  32.874  12.462
16049W        W81210  27.460  44.797   4.780
16050W        W81211   4.938  32.239   4.130
16051W        W81212  32.529  18.811  11.136
16052W        W81213   3.386  31.635  12.941
16053W        W81214   8.917  32.553  12.155
16054W        W81215  40.320  26.298  13.535
16055W        W81216  28.211  35.395  11.979
16056W        W81217  34.863   4.300  10.567
16057W        W81218   1.775   4.356  13.896
16058W        W81219  44.306  26.081   4.241
16059W        W81220   8.519   8.709   3.019
16060W        W81221  44.274  39.243   3.734
16061W        W81222  11.430  10.516  12.059
16062W        W81223  10.345  15.232   3.761
16063W        W81224  16.784   0.997   3.162
16064W        W81225  15.681   6.183   4.133
16065W        W81226  42.353   1.904  11.984
16066W        W81227  40.735  21.695   4.120
16067W        W81228  40.344  15.848  13.850
16068W        W81229  12.127   7.694  14.156
16069W        W81230   3.272  29.876   3.841
16070W        W81231   0.835   5.868   0.107
16071W        W81232  31.163  35.207  10.934
16072W        W81233   7.633  15.756   1.651
16073W        W81234  36.041  11.832   0.367
16074W        W81235   4.733  24.450   5.004
16075W        W81236   5.928  29.842   4.515
16076W        W81237  37.976  41.941   0.918
16077W        W81238  36.826  27.481   1.271
16078W        W81239   7.209  17.148  14.033
16079W        W81240   9.054  40.813   3.777
16080W        W81241  16.411   1.273   0.315
16081W        W81242  26.204  44.754   1.280
16082W        W81243   0.166   5.638   2.855
16083W        W81244  25.336  18.580  11.077
16084W        W81245  10.772  19.559   2.898
16085W        W81246  10.340  20.393  12.111
16086W        W81247   2.147  35.472  13.047
16087W        W81248  14.516  34.585   3.366
16088W        W81249  21.020  12.113  14.943
16089W        W81250  19.586   9.186  14.313
16090W        W81251  24.228  26.000  13.691
16091W        W81252  11.103  23.329  14.604
16092W        W81253  42.550   3.466  12.055
16093W        W81254  38.054  16.292  13.540
16094W        W81255  15.284  38.831   1.524
16095W        W81256  39.499  35.392   2.388
16096W        W81257  31.413  23.268  13.941
16097W        W81258  15.608  19.673   0.895
16098W        W81259  28.165  22.785  14.554
16099W        W81260   7.179  12.730   3.961
16100W        W81261  37.766  35.175   4.708
16101W        W81262  29.421  33.220  14.966
16102W        W81263  27.101  24.194  10.166
16103W        W81264   9.722  32.016   3.660
16104W        W81265   0.367  26.402  11.222
16105W        W81266  21.645   8.331  11.387
16106W        W81267  12.956  18.067  12.197
16107W        W81268  42.837  44.497  13.279
16108W        W81269  41.519   6.424  10.408
16109W        W81270  29.172  38.576  14.237
16110W        W81271  22.519  17.688  12.930
16111W        W81272   7.336  43.175   3.793
16112W        W81273  39.967  15.428  10.828
16113W        W81274  44.284  12.150   4.511
16114W        W81275  26.174  14.326   1.881
16115W        W81276  17.088   4.256   0.785
16116W        W81277  23.766   1.653  12.145
16117W        W81278  13.403  34.207  10.737
16118W        W81279  38.869  30.653  14.825
16119W        W81280  34.271  22.755   1.810
16120W        W81281   4.304  19.773  11.195
16121W        W81282  40.306  33.612  14.824
16122W        W81283  13.074  41.812   0.930
16123W        W81284  19.456   6.167   1.382
16124W        W81285  35.085   2.365   3.659
16125W        W81286  30.985  12.366   1.339
16126W        W81287  28.752  38.954   3.124
16127W        W81288  19.633  14.231  11.614
16128W        W81289   2.230  12.124  12.483
16129W        W81290  25.592  40.778   1.682
16130W        W81291  41.412   5.498   4.102
16131W        W81292  16.706  15.547   2.188
16132W        W81293   8.224  10.388   1.013
16133W        W81294  13.368  15.197   2.851
16134W        W81295  30.514  26.684  12.014
16135W        W81296  26.687  31.343   0.519
16136W        W81297  15.157  42.832   0.722
16137W        W81298  32.136  11.915   2.799
16138W        W81299  20.330   3.843  12.005
16139W        W81300  33.488  44.458   3.536
16140W        W81301   3.001   1.259   0.249
16141W        W81302  41.082  33.426   1.482
16142W        W81303  44.811  21.250  13.929
16143W        W81304   6.313  32.529  12.060
16144W        W81305  26.264  35.846  13.793
16145W        W81306  10.640  10.248  11.670
16146W        W81307  25.162  10.416  11.974
16147W        W81308   1.191  18.624   2.455
16148W        W81309  18.344  15.099   3.084
16149W        W81310  34.879  31.088  10.574
16150W        W81311  39.957  37.747  13.784
16151W        W81312  40.121  30.978   1.910
16152W        W81313  25.259   3.941  12.415
16153W        W81314  26.790  27.346   3.936
16154W        W81315  30.301  29.907   1.882
16155W        W81316   7.765  21.156  11.876
16156W        W81317   0.880  38.405   2.894
16157W        W81318  11.567   2.542   3.743
16158W        W81319  14.250  38.520  13.682
16159W        W81320  37.497   5.912   3.600
16160W        W81321  43.790  42.493   3.116
16161W        W81322  43.270  23.832   0.003
16162W        W81323  30.425   1.996  13.058
16163W        W81324  43.934  13.283   9.751
16164W        W81325   7.120  13.131  13.448
16165W        W81326  11.185  23.517   3.129
16166W        W81327  13.323  27.453   3.349
16167W        W81328  44.927  30.579   3.313
16168W        W81329  36.677  21.979   3.151
16169W        W81330  27.703  24.693  11.759
16170W        W81331  12.959  35.029   4.459
16171W        W81332  30.469  27.076   3.089
16172W        W81333  39.804   1.461  12.487
16173W        W81334  13.873  20.308  13.875
16174W        W81335   9.371  21.800   1.549
16175W        W81336  21.796   9.893  12.826
16176W        W81337  36.427  25.291   2.864
16177W        W81338  17.200  37.629   2.846
16178W        W81339  18.619  40.438  12.245
16179W        W81340   5.381   9.025   0.409
16180W        W81341  40.356  14.082  14.420
16181W        W81342  24.066  16.869  12.461
16182W        W81343   3.519  39.944   4.704
16183W        W81344  15.785   5.738  13.029
16184W        W81345  44.796  29.489   0.465
16185W        W81346  21.205  31.944  11.401
16186W        W81347  43.487  37.393   2.125
16187W        W81348  39.763  40.931   1.431
16188W        W81349  36.856  13.194  12.838
16189W        W81350  32.679  30.401   4.550
16190W        W81351  17.476  17.508   3.225
16191W        W81352  19.777  18.170   2.131
16192W        W81353  13.362   0.443   2.230
16193W        W81354   2.352  31.641  14.543
16194W        W81355   4.441   6.651   3.679
16195W        W81356  23.386  11.531   0.301
16196W        W81357  32.987  37.602   4.933
16197W        W81358  34.333  40.070  12.056
16198W        W81359  29.663  35.007   1.791
16199W        W81360  30.446   3.017  13.037
16200W        W81361  13.896  32.177  13.868
16201W        W81362  42.805  30.197   4.438
16202W        W81363   1.684  18.177   3.584
16203W        W81364  32.049  28.605  13.578
16204W        W81365  17.144  29.099   2.863
16205W        W81366  44.451   6.457   3.666
16206W        W81367  29.539   8.615  14.102
16207W        W81368  12.518  21.453  13.322
16208W        W81369  44.715  16.545   4.406
16209W        W81370   0.276  25.561   3.695
16210W        W81371  21.490   4.727   4.655
16211W        W81372  27.586  40.468   2.667
16212W        W81373   0.831   4.441  14.061
16213W        W81374   8.842  44.283   2.640
16214W        W81375  10.915   9.130   0.294
16215W        W81376  40.503  42.400  12.118
16216W        W81377  22.280  23.643  11.738
16217W        W81378   2.082  43.476   4.205
16218W        W81379  26.140   0.728   1.478
16219W        W81380  32.494  32.604   4.372
16220W        W81381   4.019  38.051   4.544
16221W        W81382  10.550  18.067  13.521
16222W        W81383  31.888  39.464   0.445
16223W        W81384  37.133  19.931  10.755
16224W        W81385  10.059  37.093   1.378
16225W        W81386   8.548  13.173   0.153
16226W        W81387   1.728  27.894   4.213
16227W        W81388  26.129  14.908  11.821
16228W        W81389  23.505  37.292  14.429
16229W        W81390  17.475  37.931   4.834
16230W        W81391   2.328  23.518  14.070
16231W        W81392  32.294  19.535   1.834
16232W        W81393  38.618  26.580   3.224
16233W        W81394  23.653  23.641   5.399
16234W        W81395  42.917  37.652   1.936
16235W        W81396   6.394  21.566  13.836
16236W        W81397  40.713   2.337   0.377
16237W        W81398  23.466  42.982   1.924
16238W        W81399   2.932  17.698  10.905
16239W        W81400  26.933  43.022  11.194
16240W        W81401  28.518   0.917  11.050
16241W        W81402  31.612  30.016   2.592
16242W        W81403  23.203   8.762   2.662
16243W        W81404  36.792  37.506  14.266
16244W        W81405   0.260  11.525   1.172
16245W        W81406  13.675  21.574   0.036
16246W        W81407   0.155  26.723   4.199
16247W        W81408   8.737  39.816   1.303
16248W        W81409  22.719  29.588   1.225
16249W        W81410  44.225  17.016   1.233
16250W        W81411   7.080   4.233   3.719
16251W        W81412  19.299  39.441  12.165
16252W        W81413  20.567  21.615  11.583
16253W        W81414   1.890  31.955  10.592
16254W        W81415   5.757  20.163   1.276
16255W        W81416  36.627  35.904  12.570
16256W        W81417   1.840  14.812  11.197
16257W        W81418  23.027  37.473   4.111
16258W        W81419  43.299  19.239  10.483
16259W        W81420   9.930   4.710  11.536
16260W        W81421  15.744  24.909  13.607
16261W        W81422  20.752  38.691   2.752
16262W        W81423  22.231   0.966   0.839
16263W        W81424  30.682   1.003  11.353
16264W        W81425  13.674  24.734   3.657
16265W        W81426  10.860  27.934   0.676
16266W        W81427  40.758  13.200  14.928
16267W        W81428   3.992  12.074  11.915
16268W        W81429  26.565  33.487  12.124
16269W        W81430   4.725  21.089   0.775
16270W        W81431  42.376  35.449   0.269
16271W        W81432   9.191   0.135   0.335
16272W        W81433  21.338  40.469  11.988
16273W        W81434   5.173  17.270  12.975
16274W        W81435  13.276   0.474   1.261
16275W        W81436  42.319  40.113   1.948
16276W        W81437  39.272  17.162   4.087
16277W        W81438  22.671  19.804   4.182
16278W        W81439  22.684  20.967  12.762
16279W        W81440  25.186  15.671  12.531
16280W        W81441  38.827  13.780   4.230
16281W        W81442  36.075  37.727  12.573
16282W        W81443  20.773  26.822  10.705
16283W        W81444  11.698   5.393  14.055
16284W        W81445  43.980  34.668  14.011
16285W        W81446  40.874  42.609  14.756
16286W        W81447  33.572  38.424  14.761
16287W        W81448  15.517  43.420  13.093
16288W        W81449  28.142   7.034  13.979
16289W        W81450   9.375  22.833   1.535
16290W        W81451  28.609  36.340  14.566
16291W        W81452  28.862  16.438   0.815
16292W        W81453  21.515  27.112  11.235
16293W        W81454  38.488  17.537   4.623
16294W        W81455  25.082  43.109  10.267
16295W        W81456  28.917  42.953   1.334
16296W        W81457   2.938  29.209  12.532
16297W        W81458  15.219  33.937  13.710
16298W        W81459  42.338  11.427  12.464
16299W        W81460   0.038  34.818  12.490
16300W        W81461  44.425  43.192   0.779
16301W        W81462   6.303  34.988  13.402
16302W        W81463  23.961  39.086  12.432
16303W        W81464  42.570  28.928   3.015
16304W        W81465  17.734   2.178   1.922
16305W        W81466   9.802  15.276  12.323
16306W        W81467  40.280  37.397  10.593
16307W        W81468  23.925  44.450   3.229
16308W        W81469   0.276   8.746   4.277
16309W        W81470  11.264   0.959  14.844
16310W        W81471  39.483  25.497   3.747
16311W        W81472   0.803  28.251   3.667
16312W        W81473  39.939  23.553   1.959
16313W        W81474   9.750  25.485   3.310
16314W        W81475  31.854   2.073   2.646
16315W        W81476  29.033   4.682   2.405
16316W        W81477  30.526  35.429  13.847
16317W        W81478  44.254   0.607   4.452
16318W        W81479   6.143  35.306  12.686
16319W        W81480  40.767   6.496  14.998
16320W        W81481  38.258   2.879   1.782
16321W        W81482   8.459   8.373   1.266
16322W        W81483   6.964  16.619  14.954
16323W        W81484  14.535   6.377  12.983
16324W        W81485   4.931   7.171  14.571
16325W        W81486   9.603   5.742  10.690
16326W        W81487  30.486  24.801  11.215
16327W        W81488  36.531  11.344  13.502
16328W        W81489  35.852  16.804  10.933
16329W        W81490  34.301  40.159   1.609
16330W        W81491  12.816  44.414  11.742
16331W        W81492  38.958  42.850   4.637
16332W        W81493  16.733  13.184  14.016
16333W        W81494   5.998  44.211   0.445
16334W        W81495   7.398  27.731  10.863
16335W        W81496  32.675  24.487   1.896
16336W        W81497   6.805  42.920   1.723
16337W        W81498   9.433  25.066   2.780
16338W        W81499  12.564   7.724  11.931
16339W        W81500  29.766   3.567  14.958
16340W        W81501  34.098  20.804   0.840
16341W        W81502  22.515  10.330  12.875
16342W        W81503  22.517  36.864   4.791
16343W        W81504  36.650  18.033   3.744
16344W        W81505  39.845  16.117  12.600
16345W        W81506   1.316  29.147   4.031
16346W        W81507   0.756  27.998  14.898
16347W        W81508  17.488  33.742  11.664
16348W        W81509  31.691   4.880   3.769
16349W        W81510   4.773  39.041   2.402
16350W        W81511  30.725  18.170  14.987
16351W        W81512   5.420  21.875   4.694
16352W        W81513  20.885  10.135  10.036
16353W        W81514  20.695  26.760   2.816
16354W        W81515  24.203   4.465   4.633
16355W        W81516   2.773  32.919   1.704
16356W        W81517  19.478  24.358   4.202
16357W        W81518   0.733   9.626  12.871
16358W        W81519  21.669  43.647   0.292
16359W        W81520   4.242   1.236   2.319
16360W        W81521  39.858  43.580  11.604
16361W        W81522  16.353   7.808   2.293
16362W        W81523  41.774   6.765  10.916
16363W        W81524  24.800  21.252   1.759
16364W        W81525  39.392  42.583  13.272
16365W        W81526  13.245  39.682   1.799
16366W        W81527  44.977  32.099  11.991
16367W        W81528  40.332  41.027  13.150
16368W        W81529  16.705  10.249  12.098
16369W        W81530   6.916  37.656   1.688
16370W        W81531   4.434  41.542   2.767
16371W        W81532   5.968  23.617  12.427
16372W        W81533  29.034  15.213  10.796
16373W        W81534  35.610  37.041   3.356
16374W        W81535  24.608  42.102  10.443
16375W        W81536   6.312  30.563   2.068
16376W        W81537  32.980  35.905  13.536
16377W        W81538  22.672  39.630   2.797
16378W        W81539  13.820  35.117   0.300
16379W        W81540  23.044  17.314  14.308
16380W        W81541  17.934   3.547   2.283
16381W        W81542   9.836  13.965   4.911
16382W        W81543   5.834  32.127   0.418
16383W        W81544  17.015   9.346  11.209
16384W        W81545  39.903  23.068  11.636
16385W        W81546   6.179  44.708   1.808
16386W        W81547  25.494  34.022   4.540
16387W        W81548  26.227  32.498  11.230
16388W        W81549  12.296  34.710   4.168
16389W        W81550   4.942  23.665   3.315
16390W        W81551  18.046   2.968   0.806
16391W        W81552  31.026  21.791  11.674
16392W        W81553  21.655  36.085  11.522
16393W        W81554  25.666   5.379  10.776
16394W        W81555  12.390   3.971   3.358
16395W        W81556  42.948  22.932   3.899
16396W        W81557  43.928  12.460   0.813
16397W        W81558  18.584  16.020   0.448
16398W        W81559  24.172  28.508   4.251
16399W        W81560  42.770  18.709   0.988
16400W        W81561   4.528  23.485   4.069
16401W        W81562  12.803  21.437   0.780
16402W        W81563   8.116   9.204   2.665
16403W        W81564  11.287  28.316   3.323
16404W        W81565   2.065  12.973  14.514
16405W        W81566  11.834   8.140  11.134
16406W        W81567  19.305  32.523   2.698
16407W        W81568  43.391   0.780   4.283
16408W        W81569  20.547  29.083   2.435
16409W        W81570  33.423   5.480  11.128
16410W        W81571  27.965  36.610  11.597
16411W        W81572  19.002  36.831  14.709
16412W        W81573  37.737  23.012   1.708
16413W        W81574  22.697  24.251   1.295
16414W        W81575  33.190   6.356  12.034
16415W        W81576   5.244  16.116  11.624
16416W        W81577  23.466  15.794   0.272
16417W        W81578  18.197  16.618  13.740
16418W        W81579  37.101  10.897   3.634
16419W        W81580  13.286   7.182  10.295
16420W        W81581  15.348  44.923  10.721
16421W        W81582  41.287   8.000   2.565
16422W        W81583  29.179  11.638   3.657
16423W        W81584  30.320  11.932  11.997
16424W        W81585  42.845  32.215   1.709
16425W        W81586  41.422  35.546  12.033
16426W        W81587  16.348   9.121   4.374
16427W        W81588  29.553  28.427  14.280
16428W        W81589   2.904  14.678  14.856
16429W        W81590  35.444  36.105   3.665
16430W        W81591  15.347  27.491  11.885
16431W        W81592  17.579  41.488   1.813
16432W        W81593   8.831  20.756  10.502
16433W        W81594  37.499  31.550   1.747
16434W        W81595  40.419  16.088   4.605
16435W        W81596  24.764  36.342   9.812
16436W        W81597  41.952   0.445  11.983
16437W        W81598  15.578  14.775   3.355
16438W        W81599  38.294  43.996  11.940
16439W        W81600   0.246  25.159  14.540
16440W        W81601   3.196  41.306  12.032
16441W        W81602  43.753   2.116  12.041
16442W        W81603   3.255  12.835   1.744
16443W        W81604   2.849  31.129   1.421
16444W        W81605   4.656  29.089   3.087
16445W        W81606   0.430  27.018  14.785
16446W        W81607  43.313  22.303   4.518
16447W        W81608  18.670  20.265   3.734
16448W        W81609  20.520  41.575   2.679
16449W        W81610  26.167  26.601   3.186
16450W        W81611  19.693  20.978   3.197
16451W        W81612  30.381   5.745   0.461
16452W        W81613  11.675   8.930  11.440
16453W        W81614  21.898  43.934  10.780
16454W        W81615  32.452  28.061   2.905
16455W        W81616  35.021  10.334   2.910
16456W        W81617  24.262  19.785   0.430
16457W        W81618  31.526  14.217  14.047
16458W        W81619  21.418  40.774  11.555
16459W        W81620  14.856  23.116   2.894
16460W        W81621  26.102   3.289   3.308
16461W        W81622  20.312  25.738   3.260
16462W        W81623   6.836  22.967  14.883
16463W        W81624  41.009  35.563  14.879
16464W        W81625  37.296  34.655  11.986
16465W        W81626   0.814  31.538  12.725
16466W        W81627  26.679  34.509   2.077
16467W        W81628  37.860   3.182  13.866
16468W        W81629  42.540  29.017  13.951
16469W        W81630  15.957  19.024  10.628
16470W        W81631   8.898  12.781  11.603
16471W        W81632   2.909  23.144   0.844
16472W        W81633   5.079  36.333   4.151
16473W        W81634  36.709   5.516  13.044
16474W        W81635  11.343   1.307   2.710
16475W        W81636   6.650  12.080   3.350
16476W        W81637  35.435   8.851   1.726
16477W        W81638  27.052   7.160  12.540
16478W        W81639  19.695  33.924  14.244
16479W        W81640  44.791  37.645  12.569
16480W        W81641  21.689  16.975   0.403
16481W        W81642   0.013  21.563   0.986
16482W        W81643  39.056  36.129   2.138
16483W        W81644  16.998   2.632  11.994
16484W        W81645   1.265  44.872   0.738
16485W        W81646  34.969  19.206  10.377
16486W        W81647   5.746  30.819  12.270
16487W        W81648  38.425   4.305  14.944
16488W        W81649  31.508   5.666   2.959
16489W        W81650  42.494  37.930   2.682
16490W        W81651   5.982  31.402  13.046
16491W        W81652  10.844  18.267  10.634
16492W        W81653   0.560   3.337  10.729
16493W        W81654  38.003  22.938   4.544
16494W        W81655  44.487   0.265  10.202
16495W        W81656   1.443  20.249   2.338
16496W        W81657  12.331  28.471  11.317
16497W        W81658  41.546   1.846  13.466
16498W        W81659  22.277  44.265   4.569
16499W        W81660  37.498   4.567   3.167
16500W        W81661   4.761  20.213   3.651
16501W        W81662  25.509   2.494   4.473
16502W        W81663  29.658  15.036  10.773
16503W        W81664   9.234  12.299  14.387
16504W        W81665  37.449  19.077  10.441
16505W        W81666  20.268   4.354   0.961
16506W        W81667   9.010  10.604   1.614
16507W        W81668   9.426  34.367   1.815
16508W        W81669  18.899  22.446   4.159
16509W        W81670   4.397  10.874  13.900
16510W        W81671   1.845  17.037  12.364
16511W        W81672  26.515  10.183   3.300
16512W        W81673  14.503  22.856  14.384
16513W        W81674  38.659  16.662  14.240
16514W        W81675  12.748   1.454   2.666
16515W        W81676  17.589  25.061  11.801
16516W        W81677  15.676  29.426   0.848
16517W        W81678  25.723  31.214   1.669
16518W        W81679  28.577  42.078  10.783
16519W        W81680  37.069  14.467   4.835
16520W        W81681  18.346  18.643  12.405
16521W        W81682  43.288  31.969   0.945
16522W        W81683   1.287  13.324  14.883
16523W        W81684  37.338  35.114   1.242
16524W        W81685  39.066  24.461  12.402
16525W        W81686  29.528  38.042   3.593
16526W        W81687  31.705  28.036   0.844
16527W        W81688  22.098  42.085  11.889
16528W        W81689  27.719  29.945  14.320
16529W        W81690  36.635  40.056   3.601
16530W        W81691  29.352   4.329   0.303
16531W        W81692  21.303  42.924  11.952
16532W        W81693  30.229  10.636   3.861
16533W        W81694  10.002  34.564   4.679
16534W        W81695  43.945  34.348  10.006
16535W        W81696  20.114   9.642  11.907
16536W        W81697  28.120  39.984   5.003
16537W        W81698  10.901  30.547   4.795
16538W        W81699  32.062   0.276  11.597
16539W        W81700   7.946  17.189  14.693
16540W        W81701  44.860   3.677   0.816
16541W        W81702  31.694  36.368   2.247
16542W        W81703   1.009  39.438  13.801
16543W        W81704  30.946  19.335  10.771
16544W        W81705  21.723   9.321  12.031
16545W        W81706  37.053  13.238   3.640
16546W        W81707  28.752  44.056  13.281
16547W        W81708  17.764  36.042  10.663
16548W        W81709  42.797  43.456  14.429
16549W        W81710   1.517   8.607  10.757
16550W        W81711  37.282  40.577   2.228
16551W        W81712  20.621   2.524   3.202
16552W        W81713  17.624  21.164   1.797
16553W        W81714  21.576  12.325   0.762
16554W        W81715  33.498  18.781   4.890
16555W        W81716  42.993  18.547   1.789
16556W        W81717   9.146   7.040   2.409
16557W        W81718  20.087  10.827  10.600
16558W        W81719  17.089   3.747   0.770
16559W        W81720   2.174   7.966  12.606
16560W        W81721  42.564  31.008  12.579
16561W        W81722  44.310   6.368  11.936
16562W        W81723  44.046  25.228   3.837
16563W        W81724  22.048  35.063   0.818
16564W        W81725  39.640  23.940   1.821
16565W        W81726   6.217  12.285  11.644
16566W        W81727   5.873   7.476   4.276
16567W        W81728  20.794  32.534   2.696
16568W        W81729   7.469  33.123   2.262
16569W        W81730   2.393  17.373   4.807
16570W        W81731  12.146  44.968  11.628
16571W        W81732   2.216  43.296   0.260
16572W        W81733   3.379  28.284  13.359
16573W        W81734   3.677   6.761   2.358
16574W        W81735   9.687  23.523   2.159
16575W        W81736  12.594  32.523   1.468
16576W        W81737  18.051  11.408   0.353
16577W        W81738  29.161   0.237  14.324
16578W        W81739  35.513  21.106  14.484
16579W        W81740   8.785  27.361  12.879
16580W        W81741  43.897   3.861   3.015
16581W        W81742  26.706  31.494   4.382
16582W        W81743  15.112  17.409   0.890
16583W        W81744  42.857   9.157   4.675
16584W        W81745  38.871  14.365  13.345
16585W        W81746  42.641  12.660   4.155
16586W        W81747   0.840   7.611   0.935
16587W        W81748  32.071  28.362  13.125
16588W        W81749   0.993  43.331   3.544
16589W        W81750   1.786  16.525   0.010
16590W        W81751  21.594  36.491   3.168
16591W        W81752   4.656   1.494  10.396
16592W        W81753  11.221   2.810  13.262
16593W        W81754  35.548  35.611   3.514
16594W        W81755  20.965  28.709  12.108
16595W        W81756  37.189  38.483  11.799
16596W        W81757  35.951  33.397  11.187
16597W        W81758  19.809  14.738  13.843
16598W        W81759  25.712  35.122   3.657
16599W        W81760  26.442  38.955   3.601
16600W        W81761   8.254  25.225   0.943
16601W        W81762  32.420   1.213  14.671
16602W        W81763  41.439  10.120   1.425
16603W        W81764  33.184  17.831   0.164
16604W        W81765  37.534   9.050   1.791
16605W        W81766  31.693   8.080  12.637
16606W        W81767  26.660  32.407  14.458
16607W        W81768  22.303   2.197   1.279
16608W        W81769   8.482  30.931   0.961
16609W        W81770  32.697  34.005   4.660
16610W        W81771  44.860  42.773  13.032
16611W        W81772  37.894  36.057  12.660
16612W        W81773  41.858  37.800  11.158
16613W        W81774  16.314  38.650  12.537
16614W        W81775  39.566  38.984   3.085
16615W        W81776  31.863  41.333  12.930
16616W        W81777  10.128  20.116  13.495
16617W        W81778   2.448  39.483  14.574
16618W        W81779   7.648   0.473  14.613
16619W        W81780  36.300  37.234   5.091
16620W        W81781  29.070  11.932  14.957
16621W        W81782  13.349  30.520  14.607
16622W        W81783   3.287  23.873   2.836
16623W        W81784  34.571  15.595  14.916
16624W        W81785  25.146  43.964  12.920
16625W        W81786  34.457  39.453   3.226
16626W        W81787   1.265  37.420  12.518
16627W        W81788  16.325  39.545   3.210
16628W        W81789  43.158  21.896   3.266
16629W        W81790   0.734  14.486  14.393
16630W        W81791   7.208  13.574  14.419
16631W        W81792  22.773  38.019   3.706
16632W        W81793   0.750  12.807  12.498
16633W        W81794  26.541  43.333  13.311
16634W        W81795  40.335  32.840  13.821
16635W        W81796   9.181   9.339   4.869
16636W        W81797  35.121   6.233  12.970
16637W        W81798  20.718  13.311   4.265
16638W        W81799  17.887  42.207   4.134
16639W        W81800   9.642  20.371   2.570
16640W        W81801  37.944  36.332  10.622
16641W        W81802   2.287  11.421   3.981
16642W        W81803  35.819  15.259  11.203
16643W        W81804  18.128  11.380   1.871
16644W        W81805   2.666  34.896   1.738
16645W        W81806   4.164  27.643   1.731
16646W        W81807   8.185  28.502   1.745
16647W        W81808   4.863  14.241   3.164
16648W        W81809  23.078  24.143   3.162
16649W        W81810  41.466  14.425   1.883
16650W        W81811  21.464  16.724   0.788
16651W        W81812  23.105  14.226   0.402
16652W        W81813  32.296  36.293  12.901
16653W        W81814  39.372  19.569   1.824
16654W        W81815  30.689  12.198  11.721
16655W        W81816  18.769  41.753   1.664
16656W        W81817  33.201  35.606   1.754
16657W        W81818  30.881  28.227  11.012
16658W        W81819   5.919   3.851   4.599
16659W        W81820  29.134  43.492  11.509
16660W        W81821  26.879  40.059  12.509
16661W        W81822  19.357  39.865  10.471
16662W        W81823   3.198   9.446  12.954
16663W        W81824   1.290  17.144   2.666
16664W        W81825  28.920  17.878   2.831
16665W        W81826  21.076  31.007  14.838
16666W        W81827  23.527   7.895   0.036
16667W        W81828   4.875  11.905  13.633
16668W        W81829  42.559  23.142   1.809
16669W        W81830  38.077   9.389  14.483
16670W        W81831  41.596  26.134   4.711
16671W        W81832  11.887  26.112  14.837
16672W        W81833  27.588  40.914  12.155
16673W        W81834  26.266   5.128   4.045
16674W        W81835   4.073  26.608  11.703
16675W        W81836   2.164  30.584  12.932
16676W        W81837  10.992  10.477  10.737
16677W        W81838  41.374  18.686   4.677
16678W        W81839  32.493  14.794  11.037
16679W        W81840  16.824  30.526   0.209
16680W        W81841  34.063   8.713  14.276
16681W        W81842  31.093  12.715   3.789
16682W        W81843  14.015  43.321   1.888
16683W        W81844  40.682  16.249   1.983
16684W        W81845  22.827  13.267  11.576
16685W        W81846  20.262  43.414  14.980
16686W        W81847  17.055  38.535  13.824
16687W        W81848  12.035  35.188  11.121
16688W        W81849  34.035  22.107  12.968
16689W        W81850   9.111  17.099   5.076
16690W        W81851  24.140  18.718  14.370
16691W        W81852  34.664   9.307  13.741
16692W        W81853  39.444  18.072  10.763
16693W        W81854  39.938  22.739   1.268
16694W        W81855   3.816   4.960  14.935
16695W        W81856   4.053  35.265   4.301
16696W        W81857  30.081  15.903  14.300
16697W        W81858  40.041  16.037   1.904
16698W        W81859  15.250   1.170  13.885
16699W        W81860  12.847  16.785  13.502
16700W        W81861  43.174  34.975  11.331
16701W        W81862  14.114   1.442  13.831
16702W        W81863  36.778  21.279   4.773
16703W        W81864  17.522  25.068  14.814
16704W        W81865  28.508  36.319  12.888
16705W        W81866  38.940  26.079  13.624
16706W        W81867  33.627  14.367  13.143
16707W        W81868  12.411  27.490   3.388
16708W        W81869   2.740  23.661   0.842
16709W        W81870  39.125  14.161   2.593
16710W        W81871   2.461  38.714  12.160
16711W        W81872  41.075   1.950   4.472
16712W        W81873   3.624   5.188  11.382
16713W        W81874   0.958  30.587   2.712
16714W        W81875  24.316  40.377  11.962
16715W        W81876  17.034  21.203  11.978
16716W        W81877  10.819  27.496   0.951
16717W        W81878  13.143  32.539   0.889
16718W        W81879  25.982  27.011  10.729
16719W        W81880  15.557  28.685  11.557
16720W        W81881  15.874   2.170   3.360
16721W        W81882  24.958   8.444   0.735
16722W        W81883  21.356   7.546   2.953
16723W        W81884  28.312   0.055  11.098
16724W        W81885  10.920   9.712  13.125
16725W        W81886  15.195  20.833   1.494
16726W        W81887  41.684  17.135   1.971
16727W        W81888   2.033  36.995   2.274
16728W        W81889  34.634   5.443   2.827
16729W        W81890   3.847  11.592  11.985
16730W        W81891  29.051  38.043  14.369
16731W        W81892  34.950  18.429  14.850
16732W        W81893  20.098   2.247  12.970
16733W        W81894  27.196  22.729   0.834
16734W        W81895  40.308   9.705  13.387
16735W        W81896  32.245  37.204   0.384
16736W        W81897  15.112   9.232   4.285
16737W        W81898   2.881  43.005   3.827
16738W        W81899  26.211   7.776   3.348
16739W        W81900  14.814  32.086  12.899
16740W        W81901   2.728   4.242   4.506
16741W        W81902  33.776   9.462  11.035
16742W        W81903   7.445  34.565  14.023
16743W        W81904  28.942  18.692  13.348
16744W        W81905  13.365  22.782  12.861
16745W        W81906   0.806  44.502   5.480
16746W        W81907  32.202  27.047   1.868
16747W        W81908   4.183  44.729   2.234
16748W        W81909  22.320  29.643  11.366
16749W        W81910  20.994  33.557  12.959
16750W        W81911   6.386  30.481   2.564
16751W        W81912  22.096  26.215   0.619
16752W        W81913  32.427  21.033   3.672
16753W        W81914   0.493   9.917  13.251
16754W        W81915  30.194  33.179  13.471
16755W        W81916  33.585  12.774  13.560
16756W        W81917   5.873   9.520  14.758
16757W        W81918  20.125  33.117   2.843
16758W        W81919   0.150  30.561   1.269
16759W        W81920  11.127   3.005   1.270
16760W        W81921  29.721   5.771  10.478
16761W        W81922   7.851  30.931  10.488
16762W        W81923   9.683  28.892   3.233
16763W        W81924  31.723   6.661   0.249
16764W        W81925   5.463   9.828  14.742
16765W        W81926   3.930   2.271   0.640
16766W        W81927   7.604   5.314   2.917
16767W        W81928  36.142  28.023   2.869
16768W        W81929  31.426  37.100   3.721
16769W        W81930  11.225  25.243  12.052
16770W        W81931  39.140  19.742   1.371
16771W        W81932  36.066   1.347  10.573
16772W        W81933  13.941  25.911  14.405
16773W        W81934   3.153  42.531  14.482
16774W        W81935   7.870  41.686   4.172
16775W        W81936  11.577  19.645   2.116
16776W        W81937  31.182   7.325   2.647
16777W        W81938  23.371   0.238   4.570
16778W        W81939  27.592   6.974  10.396
16779W        W81940  31.660  20.526  14.040
16780W        W81941   7.103  25.301  12.610
16781W        W81942  37.019  19.762   4.289
16782W        W81943  19.368   1.703   3.379
16783W        W81944  40.104  25.196  14.233
16784W        W81945   4.754   7.378  10.179
16785W        W81946  11.212  21.334  12.893
16786W        W81947  28.024  25.411   2.837
16787W        W81948   2.836  35.041   4.096
16788W        W81949  33.135  33.787  14.834
16789W        W81950  10.533  13.334   0.427
16790W        W81951   3.818   4.766   4.090
16791W        W81952  18.963  44.302  14.993
16792W        W81953   8.257  40.243  14.915
16793W        W81954  44.450   9.155  14.799
16794W        W81955  35.951  20.948   5.101
16795W        W81956  19.937  12.326  12.446
16796W        W81957  38.225  10.572  14.772
16797W        W81958  16.190   8.130   0.812
16798W        W81959  43.440  37.470  12.440
16799W        W81960  41.867  18.722   4.846
16800W        W81961  11.308  16.579  13.374
16801W        W81962  20.098  19.308   2.748
16802W        W81963   2.946   3.055  14.357
16803W        W81964  42.644  28.445  12.860
16804W        W81965  31.330  12.601  10.106
16805W        W81966  37.217   8.804  11.252
16806W        W81967  39.503  27.559   2.689
16807W        W81968   4.472  35.060   1.284
16808W        W81969  37.570  43.977  10.637
16809W        W81970  27.003  37.022  14.768
16810W        W81971  33.318  35.916   2.335
16811W        W81972   5.278  38.772  14.015
16812W        W81973   5.255  30.770   0.354
16813W        W81974  43.355  38.871   2.371
16814W        W81975  31.589  34.556  11.575
16815W        W81976  20.229  24.734   3.171
16816W        W81977  35.941  34.682   0.440
16817W        W81978   1.247  24.498   1.342
16818W        W81979  31.750  35.273   3.296
16819W        W81980   5.832  20.559   2.414
16820W        W81981  11.759  32.497  13.712
16821W        W81982  29.293  17.541   0.717
16822W        W81983  11.727  28.083  10.327
16823W        W81984  17.349  28.223   3.984
16824W        W81985  44.405  38.561  14.439
16825W        W81986  32.523  42.651  10.112
16826W        W81987  24.879  11.480  12.249
16827W        W81988   7.751   9.675  10.855
16828W        W81989  33.706  32.611  13.313
16829W        W81990  17.098  14.272   4.758
16830W        W81991   3.664   1.028  11.612
16831W        W81992  25.381  22.999  14.949
16832W        W81993  15.878   5.764   3.643
16833W        W81994  27.379   2.526   1.563
16834W        W81995  20.541   3.527   1.755
16835W        W81996  21.100   4.673  11.109
16836W        W81997  19.831   7.231   4.197
16837W        W81998   0.008  34.367   2.624
16838W        W81999  27.787  42.917   3.248
16839W        W82000  35.760  19.998  11.561
16840W        W82001   5.450  44.226  11.960
16841W        W82002  19.051  27.476   0.043
16842W        W82003   2.917   5.129   0.892
16843W        W82004  32.616  23.185  13.793
16844W        W82005   3.811  10.166  13.939
16845W        W82006  35.658  19.229   3.397
16846W        W82007   3.360  35.947  10.503
16847W        W82008  29.434  14.032  12.397
16848W        W82009  20.123  40.084   5.031
16849W        W82010   4.672  37.892   3.276
16850W        W82011  38.242  14.636   0.513
16851W        W82012  25.096  11.329   2.944
16852W        W82013  31.597  30.154  11.671
16853W        W82014  11.340  11.615  13.763
16854W        W82015   0.983  35.166   0.950
16855W        W82016  33.406  37.366   9.974
16856W        W82017  21.240  25.539  11.404
16857W        W82018  25.458   5.186   3.603
16858W        W82019  14.796   5.947  10.412
16859W        W82020  35.031  23.499   0.132
16860W        W82021   3.289   9.382   4.241
16861W        W82022  28.110  15.872   4.622
16862W        W82023  37.438  29.409  14.940
16863W        W82024  33.711  28.997   0.256
16864W        W82025  21.127  17.613  10.100
16865W        W82026  37.862  44.083   0.784
16866W        W82027  37.798  26.028   4.621
16867W        W82028   8.175  33.123  12.560
16868W        W82029  26.821  43.868  12.399
16869W        W82030  43.384  24.204  13.533
16870W        W82031  26.949  15.831  13.976
16871W        W82032  21.185  38.065   1.249
16872W        W82033   3.960  35.816  12.047
16873W        W82034  14.788  30.667   3.388
16874W        W82035   5.413   5.075  10.029
16875W        W82036  24.983  27.176  11.999
16876W        W82037  11.614  23.667   3.367
16877W        W82038  25.797  11.659  14.479
16878W        W82039  13.016  41.547  11.434
16879W        W82040  10.206  14.382   2.352
16880W        W82041  21.411   5.877   3.158
16881W        W82042  36.395  10.340  12.313
16882W        W82043  38.091  27.295   4.245
16883W        W82044  34.938  41.906   4.972
16884W        W82045   6.360  26.725   0.316
16885W        W82046   9.665  15.722   3.262
16886W        W82047  44.873  36.304  14.912
16887W        W82048  19.964   2.834  14.324
16888W        W82049  41.969  25.431  12.549
16889W        W82050  33.140  44.428  14.922
16890W        W82051  17.020  43.584   3.201
16891W        W82052   2.969  43.543   3.875
16892W        W82053  18.788  30.581  11.810
16893W        W82054  43.235  25.478   3.660
16894W        W82055  14.820  41.656  11.852
16895W        W82056  34.723  29.651   0.772
16896W        W82057  28.208  23.715   3.217
16897W        W82058  16.560  21.989   1.352
16898W        W82059  24.488   9.422   4.595
16899W        W82060  12.305  24.102  10.990
16900W        W82061  24.501  41.878   1.891
16901W        W82062  19.616  27.631  12.450
16902W        W82063  15.602  43.774   1.337
16903W        W82064  10.748  24.295   0.439
16904W        W82065  35.036  41.974   1.417
16905W        W82066  32.528  31.732  12.895
16906W        W82067  32.838  19.290   0.498
16907W        W82068  24.569  18.583   2.480
16908W        W82069  29.113  17.389   2.838
16909W        W82070  34.359  15.722  13.406
16910W        W82071  32.061   3.557  12.775
16911W        W82072  39.228  12.737  11.457
16912W        W82073  27.512  22.354   2.895
16913W        W82074  11.208   8.722  11.601
16914W        W82075  32.021  40.523   0.441
16915W        W82076   7.783  19.791  13.442
16916W        W82077  41.979   5.849  12.559
16917W        W82078  10.296  19.852  13.950
16918W        W82079  43.953   7.505  10.821
16919W        W82080  19.094  28.642   4.734
16920W        W82081   8.134  38.383   2.109
16921W        W82082  16.045  38.114  10.701
16922W        W82083  19.061  11.756   1.958
16923W        W82084   2.673  28.848  14.467
16924W        W82085  10.916  26.021   1.233
16925W        W82086   6.143  37.460   3.234
16926W        W82087   2.825  16.354  10.641
16927W        W82088  40.637  34.071   0.194
16928W        W82089  10.781   8.104   0.196
16929W        W82090  15.614  41.305  13.475
16930W        W82091   3.889  41.723   1.909
16931W        W82092   6.303   6.547  10.076
16932W        W82093  39.135   4.204   3.811
16933W        W82094  26.535  33.103  12.985
16934W        W82095   2.797  26.911  14.949
16935W        W82096  31.130  31.348   3.695
16936W        W82097  17.208  33.860  13.411
16937W        W82098  35.106   7.311   4.061
16938W        W82099  25.583  28.030   0.142
16939W        W82100  32.421  34.512   4.448
16940W        W82101  10.478  26.058   2.643
16941W        W82102   4.190   7.256  14.994
16942W        W82103  33.755   9.212   3.161
16943W        W82104  14.228  25.108  14.551
16944W        W82105  43.380  30.654   3.485
16945W        W82106  22.477  32.948   0.429
16946W        W82107  30.673   1.715  14.456
16947W        W82108   9.359  12.759   1.691
16948W        W82109  14.292  16.156   1.302
16949W        W82110   5.835  40.424  14.802
16950W        W82111  38.676  37.250  11.929
16951W        W82112  28.559  29.813  12.540
16952W        W82113  10.815  11.442  10.284
16953W        W82114  43.303  37.825  11.978
16954W        W82115  20.829  21.116   1.616
16955W        W82116  38.643  17.296  12.078
16956W        W82117  24.896  41.462   4.825
16957W        W82118  11.680  32.757   1.203
16958W        W82119  35.982  20.524  12.113
16959W        W82120  25.982  31.182  12.475
16960W        W82121  14.124  30.762  12.487
16961W        W82122  15.481   7.886  10.699
16962W        W82123  27.533  31.016   3.238
16963W        W82124  23.532  20.070   1.827
16964W        W82125   6.293  28.926   1.775
16965W        W82126  39.975   0.911   4.486
16966W        W82127  38.040  40.898   0.641
16967W        W82128  22.955  26.646  11.149
16968W        W82129  43.913  27.708  13.070
16969W        W82130  14.171  21.725  14.968
16970W        W82131  18.007   5.269  14.530
16971W        W82132  38.816  44.962  12.968
16972W        W82133   8.729  13.238  14.283
16973W        W82134  44.359  24.099  10.978
16974W        W82135  37.523   5.113   4.591
16975W        W82136  12.108  14.168  12.607
16976W        W82137   0.963   5.333   0.178
16977W        W82138   2.383  19.209  10.929
16978W        W82139  30.814  18.780   4.031
16979W        W82140  23.022   4.933  11.046
16980W        W82141  12.729  34.912   1.888
16981W        W82142  40.950  20.167  14.539
16982W        W82143  10.837  21.989  11.960
16983W        W82144   1.145  36.033   2.567
16984W        W82145   5.229  23.214   0.944
16985W        W82146  18.383   1.765  10.713
16986W        W82147  33.846  10.375  12.020
16987W        W82148   1.431  44.572   2.686
16988W        W82149  27.516   5.881  10.947
16989W        W82150  17.222  11.078  12.434
16990W        W82151  27.704  37.270  11.361
16991W        W82152   9.907  34.563   2.720
16992W        W82153  19.612   7.716   2.822
16993W        W82154   2.338  21.105  11.890
16994W        W82155  16.833  35.393  12.303
16995W        W82156  40.779  40.378  12.675
16996W        W82157  14.291   8.239  10.956
16997W        W82158   6.859  29.530  13.353
16998W        W82159  19.633  21.489  11.438
16999W        W82160  33.994  28.537   0.346
17000W        W82161  25.943  16.247   1.012
17001W        W82162  14.682  28.436   1.762
17002W        W82163  25.108   8.783   2.611
17003W        W82164  12.332  31.096  10.748
17004W        W82165   1.333  38.805   2.193
17005W        W82166  25.644  21.131   2.407
17006W        W82167  13.025   3.864  11.724
17007W        W82168  28.527  26.750   3.900
17008W        W82169  44.371  28.579  11.946
17009W        W82170  39.581  28.961  14.241
17010W        W82171  42.537  32.613  14.363
17011W        W82172  17.005  10.161  14.421
17012W        W82173  36.037   7.766  10.838
17013W        W82174  41.329   4.514   4.519
17014W        W82175  17.375  22.323   3.640
17015W        W82176  17.651   2.846   3.833
17016W        W82177  23.498  33.406  10.727
17017W        W82178   0.522  14.104  12.890
17018W        W82179  38.936  29.477   3.421
17019W        W82180  33.455  36.586  12.072
17020W        W82181  18.204  42.073  12.918
17021W        W82182  27.023  30.847   3.090
17022W        W82183  25.543  15.677  11.667
17023W        W82184  25.061   0.174   0.355
17024W        W82185  19.818   3.812   3.882
17025W        W82186  32.490  34.819  11.521
17026W        W82187  28.554  38.256   4.845
17027W        W82188  38.566  36.553   1.729
17028W        W82189   3.325  10.430   1.783
17029W        W82190  38.688  35.772   4.867
17030W        W82191  23.997  28.062   3.326
17031W        W82192  21.957   4.850  12.133
17032W        W82193  26.536  22.755  13.649
17033W        W82194  25.648  10.340   3.645
17034W        W82195   5.304   3.880   1.807
17035W        W82196  15.566  25.493  14.344
17036W        W82197  11.138  44.401   2.166
17037W        W82198  19.025  15.218  13.907
17038W        W82199  12.613  28.016  13.884
17039W        W82200   5.663  13.818  11.638
17040W        W82201  39.272  24.010  14.474
17041W        W82202  43.427  26.624   4.452
17042W        W82203  11.027   7.432  13.420
17043W        W82204  24.017  23.184  13.638
17044W        W82205  23.153   7.751   2.841
17045W        W82206  21.461  32.793   3.828
17046W        W82207  20.168  31.557  13.631
17047W        W82208   6.265  35.711  14.861
17048W        W82209   7.440  34.618   4.548
17049W        W82210  21.093  26.437  14.864
17050W        W82211  22.057  40.861   0.808
17051W        W82212  34.989  42.182  14.537
17052W        W82213  23.246   8.688  13.926
17053W        W82214  13.584  22.642   4.368
17054W        W82215  37.873  42.398   2.931
17055W        W82216  18.787  33.553  12.953
17056W        W82217   0.796  44.768   1.822
17057W        W82218  38.088   2.820   0.866
17058W        W82219  19.772  44.081   4.883
17059W        W82220  29.247  14.734   4.595
17060W        W82221  15.141   5.912   0.703
17061W        W82222   4.130  39.140  12.837
17062W        W82223  28.413  19.610   5.078
17063W        W82224  16.553  24.245  14.951
17064W        W82225  31.681  34.151  13.497
17065W        W82226   7.736   8.767   0.303
17066W        W82227  22.162  16.175  14.881
17067W        W82228  12.337  13.361  10.601
17068W        W82229   9.834  41.800  10.986
17069W        W82230  42.432  39.006   2.680
17070W        W82231  37.921  30.625  14.768
17071W        W82232  43.545  32.039   0.505
17072W        W82233  34.360   0.571   3.624
17073W        W82234   8.549  26.163   1.248
17074W        W82235  14.883  20.818  10.505
17075W        W82236   3.049  33.002  14.883
17076W        W82237  28.544   1.905   1.232
17077W        W82238  24.519   7.415  14.451
17078W        W82239  21.271  15.297   3.587
17079W        W82240   8.144  11.336   0.908
17080W        W82241  34.627  13.067  13.552
17081W        W82242   8.757  42.082   1.994
17082W        W82243  24.125  21.714   1.510
17083W        W82244  19.513   1.795  13.006
17084W        W82245  35.013   1.485  12.095
17085W        W82246  10.781  18.333  11.514
17086W        W82247  22.552   1.900  13.111
17087W        W82248  31.793  34.579   0.345
17088W        W82249   1.054  16.444  14.039
17089W        W82250  13.978  14.394  11.072
17090W        W82251   8.348   3.716  11.859
17091W        W82252  16.598  16.648   1.693
17092W        W82253  15.992   4.786  12.302
17093W        W82254   0.309  31.035   1.158
17094W        W82255   7.885  27.680  14.433
17095W        W82256  24.023   7.399   3.650
17096W        W82257   2.822  33.937   3.683
17097W        W82258  20.275  35.593   4.615
17098W        W82259  39.900  27.980   1.130
17099W        W82260  42.528  41.719  14.030
17100W        W82261  19.611   9.090   1.948
17101W        W82262  14.230  16.853  11.233
17102W        W82263  30.320   3.441  14.947
17103W        W82264  29.034  20.337  11.161
17104W        W82265  15.590  19.840  10.964
17105W        W82266  22.744  28.157   0.951
17106W        W82267  31.378  27.171  12.072
17107W        W82268  28.504   9.148  10.685
17108W        W82269  31.269   9.685   4.518
17109W        W82270  22.197   5.367  14.395
17110W        W82271  14.888  30.928   4.503
17111W        W82272   0.805  31.423   1.892
17112W        W82273  19.181  39.417  11.680
17113W        W82274  16.002   3.113  13.472
17114W        W82275   1.478  43.276   3.789
17115W        W82276   5.768   4.715   1.634
17116W        W82277   9.400  42.723   4.477
17117W        W82278  13.720  29.717  11.963
17118W        W82279  34.291  30.488  13.831
17119W        W82280   3.209  33.520   3.282
17120W        W82281  39.137  23.064  14.255
17121W        W82282   6.862   3.324   5.437
17122W        W82283  17.334  44.340  11.977
17123W        W82284  37.581  39.520   3.848
17124W        W82285   6.824  26.641   2.593
17125W        W82286  35.607  43.658   2.753
17126W        W82287  31.241  28.219  11.393
17127W        W82288  16.222   9.669   1.038
17128W        W82289   6.282  13.443  12.815
17129W        W82290  13.824  43.113   4.611
17130W        W82291   1.556   8.689  14.374
17131W        W82292  36.971  23.671   2.187
17132W        W82293   2.732  43.849  11.596
17133W        W82294  30.007  40.498  14.497
17134W        W82295  22.977  32.101   0.213
17135W        W82296  40.442   6.682  12.443
17136W        W82297  27.459  44.905   0.162
17137W        W82298   8.687  11.197  10.740
17138W        W82299  41.483  33.943  12.862
17139W        W82300  18.709  10.058  14.393
17140W        W82301   4.942  11.980   1.947
17141W        W82302  21.621   1.946  10.713
17142W        W82303  30.024   5.648   0.844
17143W        W82304  14.801  38.441  11.590
17144W        W82305  14.858  15.748   9.879
17145W        W82306  28.440  21.069   4.279
17146W        W82307  38.393  26.469  14.764
17147W        W82308  11.787   7.819   4.470
17148W        W82309   7.678  38.535   1.834
17149W        W82310   1.830   4.346   3.272
17150W        W82311  43.379  34.497  11.195
17151W        W82312  41.573  28.035  11.457
17152W        W82313  16.856  28.716  13.912
17153W        W82314  41.501  42.871   2.258
17154W        W82315  40.629  18.599   1.675
17155W        W82316  26.251   9.431   1.249
17156W        W82317  13.198   8.843  12.929
17157W        W82318   7.610  11.244   0.944
17158W        W82319  29.706  35.140  11.183
17159W        W82320  17.641  17.440   1.980
17160W        W82321  11.211  26.251  12.951
17161W        W82322  11.253  42.790   5.278
17162W        W82323  43.439  18.246  12.783
17163W        W82324  14.586  41.066   0.605
17164W        W82325   0.957  18.207   9.843
17165W        W82326  44.776  14.600  13.330
17166W        W82327  15.786  41.821  11.443
17167W        W82328  31.783  19.023   1.726
17168W        W82329  44.646  33.389   4.569
17169W        W82330  10.076  27.438  11.597
17170W        W82331  34.259  20.675  10.536
17171W        W82332  31.215  35.392   2.281
17172W        W82333  38.301  39.961  12.822
17173W        W82334  38.969  12.304  11.587
17174W        W82335  10.357  23.551   3.682
17175W        W82336  18.436  16.537   1.194
17176W        W82337  30.039  30.392   0.300
17177W        W82338   1.896   3.245  10.651
17178W        W82339  17.049  13.748   3.745
17179W        W82340  20.074  26.474   0.733
17180W        W82341  41.335  41.872   4.738
17181W        W82342   9.682  28.434  13.717
17182W        W82343  41.818  17.581   1.748
17183W        W82344  12.620  18.632   4.167
17184W        W82345  31.220  31.367  11.036
17185W        W82346  22.420  29.985   1.311
17186W        W82347  35.560  14.214  13.597
17187W        W82348  16.082   0.798   1.473
17188W        W82349  14.176   2.885  11.791
17189W        W82350  23.219  31.772  11.602
17190W        W82351  12.733  19.040  14.346
17191W        W82352  27.542  23.578   0.560
17192W        W82353  36.984  23.737  13.488
17193W        W82354   5.750  36.644  14.110
17194W        W82355   8.789  44.687   5.170
17195W        W82356  42.772  24.984  14.411
17196W        W82357  30.861  31.063  14.881
17197W        W82358   1.321  33.090   1.707
17198W        W82359   1.410   2.431   2.844
17199W        W82360  17.260   4.858   4.572
17200W        W82361  26.459  25.403  12.367
17201W        W82362  26.218  29.045  11.706
17202W        W82363  43.324   8.453  10.382
17203W        W82364  39.064  21.544   2.718
17204W        W82365  11.816  40.055  13.177
17205W        W82366  17.180   1.927   3.061
17206W        W82367  17.538  14.276  13.034
17207W        W82368   8.392   2.884  14.421
17208W        W82369  20.257  38.208   3.733
17209W        W82370  31.657  43.769  14.397
17210W        W82371   5.753  12.351   2.407
17211W        W82372  35.808  32.983   4.151
17212W        W82373  18.701   4.767   3.698
17213W        W82374  36.542  20.694   2.637
17214W        W82375  35.328  32.350   0.434
17215W        W82376  38.590  36.414  11.618
17216W        W82377  16.789   4.334   4.113
17217W        W82378  36.541  29.710   4.681
17218W        W82379   5.682  41.047  13.805
17219W        W82380   8.911  28.850  14.289
17220W        W82381  28.062  18.084  11.448
17221W        W82382  39.877  30.955  11.458
17222W        W82383  26.632  36.648   2.380
17223W        W82384  23.258   1.185   3.362
17224W        W82385  10.493   5.151  10.281
17225W        W82386  13.120  19.937   2.312
17226W        W82387  37.070  29.472   2.383
17227W        W82388  21.318  10.350   0.886
17228W        W82389  31.918  26.546   1.107
17229W        W82390  39.955  10.587  13.596
17230W        W82391  15.923  21.498   4.370
17231W        W82392  20.144   8.460   3.710
17232W        W82393   6.799   8.583  14.918
17233W        W82394  15.973  18.244   0.254
17234W        W82395  29.476   9.166   0.471
17235W        W82396  36.116  11.900   4.318
17236W        W82397  28.194  34.445  11.223
17237W        W82398   8.772  43.053   3.887
17238W        W82399  14.058   2.000  14.001
17239W        W82400  21.665  43.969   3.153
17240W        W82401  11.259   1.980   3.307
17241W        W82402  20.490   5.627  14.932
17242W        W82403  23.228  13.082   0.290
17243W        W82404  42.942  12.853  14.437
17244W        W82405  11.925  41.621   4.794
17245W        W82406   2.508  24.662  11.132
17246W        W82407  12.132  32.403   2.889
17247W        W82408  13.473  10.236   0.478
17248W        W82409   0.487  23.151   1.459
17249W        W82410  42.856  18.144  10.848
17250W        W82411  13.627  37.469   1.449
17251W        W82412  27.768  20.981  10.766
17252W        W82413  43.335  44.786   0.945
17253W        W82414  31.084   5.662  14.375
17254W        W82415  42.550  44.416   2.971
17255W        W82416  24.298  15.712  13.037
17256W        W82417  12.501  32.526  14.561
17257W        W82418  23.050  15.483  10.202
17258W        W82419   2.670  44.890  14.484
17259W        W82420  32.148  36.680   2.119
17260W        W82421  13.285  27.929   3.083
17261W        W82422  29.603  18.505   0.821
17262W        W82423  20.665  16.929   3.443
17263W        W82424  18.533  10.136   3.767
17264W        W82425   3.695   6.764  13.809
17265W        W82426   7.719  36.228   4.078
17266W        W82427  26.386  22.560   4.600
17267W        W82428  37.169  41.760   0.506
17268W        W82429  27.549  23.931   0.985
17269W        W82430  32.627  25.245   1.258
17270W        W82431   1.641  42.873  11.621
17271W        W82432  39.338  24.657  12.793
17272W        W82433  28.206  43.934   3.210
17273W        W82434  11.040  41.530  11.081
17274W        W82435   6.857  30.136  14.850
17275W        W82436  33.685  17.551   3.584
17276W        W82437  10.844  15.182   3.861
17277W        W82438   9.349  41.990  12.646
17278W        W82439  36.566  19.647  13.353
17279W        W82440   4.921   5.366   3.624
17280W        W82441  35.458  17.945   2.581
17281W        W82442  29.621  13.722  10.282
17282W        W82443  25.598   6.641  13.817
17283W        W82444  36.864  35.135   0.346
17284W        W82445   2.113  39.884  14.530
17285W        W82446  20.253  19.786  11.791
17286W        W82447  39.117  14.019  14.391
17287W        W82448  42.603  33.012   0.630
17288W        W82449  19.002  22.975  12.350
17289W        W82450  39.440  30.738  11.202
17290W        W82451   3.474   3.821  13.764
17291W        W82452   7.107  10.015  14.658
17292W        W82453  14.977  16.291   9.907
17293W        W82454  25.516   0.049   2.659
17294W        W82455  23.081  19.535   3.327
17295W        W82456  27.391  18.737  12.481
17296W        W82457  30.022  35.415  14.026
17297W        W82458  32.052  33.134  13.495
17298W        W82459  11.358  35.016  10.443
17299W        W82460  38.739  37.633  10.738
17300W        W82461  12.723  13.855  12.890
17301W        W82462  25.961  40.524   0.914
17302W        W82463  41.254   1.396  12.338
17303W        W82464  43.421  18.018  13.759
17304W        W82465  28.121  44.555  13.664
17305W        W82466  29.544  20.976  13.561
17306W        W82467   9.620  14.328   0.893
17307W        W82468  25.585   3.359   2.346
17308W        W82469  17.681  30.485   0.773
17309W        W82470  16.932  10.680   3.884
17310W        W82471   3.154  40.786   2.288
17311W        W82472  20.182   3.650   0.168
17312W        W82473  22.556  30.875   2.980
17313W        W82474   1.932  12.829  11.455
17314W        W82475  34.622  23.078  13.054
17315W        W82476   4.826   9.858   0.270
17316W        W82477  21.702  21.888  14.088
17317W        W82478  38.880  39.093  13.916
17318W        W82479  20.403   0.785   3.796
17319W        W82480  13.260  10.397  14.951
17320W        W82481  22.830   5.382  10.255
17321W        W82482  20.903   4.201  11.149
17322W        W82483  32.573  43.500  12.598
17323W        W82484   7.794  23.187   0.874
17324W        W82485  14.353   8.345  12.125
17325W        W82486  22.284   3.203   4.147
17326W        W82487  44.944  30.809  13.456
17327W        W82488  39.172  19.176   4.763
17328W        W82489  28.505  27.947  11.989
17329W        W82490   7.403   4.625   3.591
17330W        W82491  33.592  35.812  11.607
17331W        W82492  32.382  31.962   1.120
17332W        W82493  28.132  13.132  10.703
17333W        W82494  32.438   7.671   4.095
17334W        W82495  30.894  27.433   0.566
17335W        W82496  14.696   0.908   2.677
17336W        W82497  40.117  25.492   0.058
17337W        W82498   6.138  41.807  10.809
17338W        W82499  38.730  31.067  14.096
17339W        W82500  14.296  29.055  14.727
17340W        W82501   0.057  24.357  12.045
17341W        W82502  44.270  12.317  10.858
17342W        W82503  27.593  44.452  13.836
17343W        W82504  14.559  40.120  12.128
17344W        W82505  11.710  39.070  10.670
17345W        W82506  27.834  14.065   2.313
17346W        W82507  34.330  39.562  11.975
17347W        W82508  15.820  12.291  11.616
17348W        W82509  13.245  39.977  11.977
17349W        W82510   3.319  43.516  10.705
17350W        W82511  20.592   5.172   0.900
17351W        W82512  32.107  19.887  14.350
17352W        W82513   5.058  29.504   1.136
17353W        W82514  12.154  40.697  12.900
17354W        W82515  17.686  10.959  14.397
17355W        W82516  35.029  10.042   2.479
17356W        W82517  37.392  11.571   1.841
17357W        W82518  41.483  10.981  13.397
17358W        W82519  40.617  17.522   2.954
17359W        W82520  41.258   5.874  11.506
17360W        W82521  18.759  22.616  12.647
17361W        W82522  35.857  16.608   1.676
17362W        W82523  37.343  37.393  11.063
17363W        W82524  35.380  38.562  13.099
17364W        W82525  42.816   6.481   2.309
17365W        W82526  14.394  42.824  14.325
17366W        W82527  11.794  12.563   0.012
17367W        W82528  13.692  13.820   3.791
17368W        W82529  28.678  39.995   1.119
17369W        W82530  22.332  41.797  11.545
17370W        W82531  22.834  39.363  14.319
17371W        W82532  33.350  14.803   0.393
17372W        W82533  29.550  20.012   3.303
17373W        W82534  30.075  20.580  14.584
17374W        W82535  29.662  34.362   3.931
17375W        W82536  26.237  10.634   1.896
17376W        W82537  39.035  32.049   0.957
17377W        W82538  32.832   2.010  12.152
17378W        W82539  19.983  20.001  11.369
17379W        W82540  23.730  17.830   3.292
17380W        W82541   9.306  27.533  12.023
17381W        W82542  28.819  42.318  11.364
17382W        W82543  11.232  26.689  10.702
17383W        W82544  26.121  40.473  14.156
17384W        W82545  17.312  41.991  14.087
17385W        W82546  35.779  13.940  10.964
17386W        W82547   0.503  37.540  12.860
17387W        W82548  27.087  30.446  10.881
17388W        W82549  17.560  21.964   2.246
17389W        W82550  24.137  23.749  14.970
17390W        W82551  24.200  43.546  13.547
17391W        W82552  40.695  11.742   4.711
17392W        W82553  21.655  25.976  13.781
17393W        W82554   4.915  13.814   4.834
17394W        W82555  29.466  40.805  14.262
17395W        W82556  43.702  17.266   4.125
17396W        W82557   4.394  13.622   3.669
17397W        W82558  30.540  21.150   2.417
17398W        W82559  19.458  31.715  12.109
17399W        W82560  20.710  29.164  12.956
17400W        W82561   1.506  32.026   2.104
17401W        W82562   9.795  24.519  13.368
17402W        W82563   6.008   3.021  14.703
17403W        W82564  28.133  19.623   2.694
17404W        W82565  37.344  27.141   0.850
17405W        W82566  18.209  13.303   1.311
17406W        W82567  25.848   3.218   0.050
17407W        W82568  26.507   6.729  13.983
17408W        W82569   7.695  38.397   4.909
17409W        W82570  32.186  32.669   0.339
17410W        W82571  35.106  33.929  13.962
17411W        W82572  15.896  29.494   1.756
17412W        W82573   6.195  18.529   1.729
17413W        W82574  30.476  20.383   3.074
17414W        W82575  13.502  37.392   0.278
17415W        W82576  36.372   0.518   1.766
17416W        W82577   3.616  10.659  12.532
17417W        W82578  36.234  23.161  11.625
17418W        W82579  38.906   3.914  10.650
17419W        W82580  34.407  23.160  11.393
17420W        W82581   4.444  43.880  10.597
17421W        W82582  43.820  26.626   0.342
17422W        W82583  42.907  40.368   0.227
17423W        W82584  18.804  34.908  14.000
17424W        W82585  25.057  28.000  14.377
17425W        W82586  15.169  11.231   4.770
17426W        W82587  27.960  31.597   0.984
17427W        W82588  37.386   1.409   2.512
17428W        W82589  44.675  43.902  12.296
17429W        W82590  20.847  42.432   1.753
17430W        W82591  40.891  15.179   0.703
17431W        W82592   8.722  12.418   1.608
17432W        W82593  43.522  15.991  11.059
17433W        W82594   2.584  17.616   0.509
17434W        W82595   2.331  41.979  14.764
17435W        W82596  29.006  19.570   1.486
17436W        W82597  32.494  10.602   4.775
17437W        W82598  40.365  34.423  13.979
17438W        W82599  31.420   6.513   3.626
17439W        W82600  36.629  20.206  10.624
17440W        W82601  11.761  37.053   0.421
17441W        W82602   6.224   1.346   2.691
17442W        W82603  35.764  28.201  13.698
17443W        W82604  17.535   8.594  11.198
17444W        W82605  16.201  39.022   5.307
17445W        W82606   6.409  39.935  10.199
17446W        W82607   4.421   5.862  12.898
17447W        W82608  33.484  30.145   3.578
17448W        W82609  29.617   2.839  14.338
17449W        W82610  23.091  25.714  14.074
17450W        W82611  17.086  19.716   3.726
17451W        W82612  10.139  39.239  11.328
17452W        W82613  41.824  31.857  10.299
17453W        W82614  12.279  42.742   3.270
17454W        W82615  25.430  41.557  13.178
17455W        W82616  40.221   7.799  11.291
17456W        W82617   6.656  40.695  12.471
17457W        W82618   4.056   4.387  11.766
17458W        W82619  23.783  21.686   3.281
17459W        W82620   7.306  36.092   4.935
17460W        W82621  14.125   7.142   1.809
17461W        W82622  16.413  44.115   0.229
17462W        W82623  11.140   1.270   3.200
17463W        W82624  25.279  23.283  14.500
17464W        W82625   7.150   3.972   2.801
17465W        W82626  16.239  29.120  11.924
17466W        W82627  22.188  16.931   0.304
17467W        W82628  12.883  31.550   0.613
17468W        W82629   8.619  21.178   0.830
17469W        W82630  25.787   0.746  13.948
17470W        W82631   9.246   9.372  12.051
17471W        W82632  19.871   8.880  13.007
17472W        W82633  30.667  23.972   3.691
17473W        W82634  24.471  41.639   0.662
17474W        W82635  28.592   2.661   3.659
17475W        W82636  14.815  12.602  11.101
17476W        W82637  32.506  34.884   2.182
17477W        W82638  31.935  20.238  10.612
17478W        W82639  36.054  37.653  11.297
17479W        W82640  43.063   8.441  12.177
17480W        W82641  35.911   7.405  10.454
17481W        W82642   0.014  32.837   3.734
17482W        W82643  31.380  31.480  13.997
17483W        W82644  31.639  35.143  14.609
17484W        W82645   6.248   9.532  12.486
17485W        W82646   6.461  23.174   2.420
17486W        W82647  13.816  22.175  13.851
17487W        W82648  13.674   3.215  12.530
17488W        W82649  15.842   4.278  11.757
17489W        W82650   8.240  32.748  10.703
17490W        W82651  44.709   7.879  12.989
17491W        W82652  43.281   8.354  13.011
17492W        W82653   4.992  37.553   3.563
17493W        W82654   7.900  16.224  11.897
17494W        W82655  35.535   9.448  11.093
17495W        W82656  41.759  11.486  11.244
17496W        W82657  26.892   5.332  11.466
17497W        W82658  34.132  10.281   3.899
17498W        W82659  28.964  19.537   2.359
17499W        W82660  22.507  43.382   0.440
17500W        W82661  19.684  27.074  13.923
17501W        W82662   1.195  30.098  11.068
17502W        W82663   4.185  16.665   1.441
17503W        W82664  24.473  20.238  14.832
17504W        W82665  29.812  29.436   1.433
17505W        W82666  26.392  21.448   3.185
17506W        W82667  41.473  20.030  12.941
17507W        W82668  34.884  31.572  12.302
17508W        W82669  36.282   1.398   3.130
17509W        W82670  14.759  25.975   3.178
17510W        W82671  10.651  12.665  12.261
17511W        W82672  33.097  12.880   3.669
17512W        W82673  28.960  14.698  10.677
17513W        W82674  42.791  39.932   1.957
17514W        W82675  21.125  32.988  12.275
17515W        W82676  30.474   2.309   1.368
17516W        W82677   2.884  19.550  10.932
17517W        W82678  35.500  10.733   4.440
17518W        W82679  31.130  12.331  10.506
17519W        W82680   7.063  30.084  13.801
17520W        W82681  42.844  38.522  11.492
17521W        W82682   1.044   5.873  11.995
17522W        W82683  23.007  34.630   4.163
17523W        W82684  26.610  25.500   1.766
17524W        W82685  41.923  25.539   1.381
17525W        W82686  12.410  14.397  13.940
17526W        W82687  28.968  24.950  12.986
17527W        W82688  34.522  11.759   2.477
17528W        W82689  27.597  34.600   1.087
17529W        W82690   2.687  19.000  14.381
17530W        W82691  42.878   2.217   4.633
17531W        W82692  20.117  33.191  11.188
17532W        W82693  42.885   8.898  14.500
17533W        W82694  27.211  37.754  10.371
17534W        W82695  41.933   6.275   2.411
17535W        W82696  36.297  31.052  10.977
17536W        W82697  32.434  12.575  14.465
17537W        W82698  17.717  44.825  11.457
17538W        W82699  32.379  12.385   0.405
17539W        W82700  20.794   8.886  14.825
17540W        W82701  18.669  42.540  13.537
17541W        W82702   1.751   8.766   1.321
17542W        W82703   1.795  28.192  13.021
17543W        W82704  27.928  29.615  14.848
17544W        W82705  37.634  19.879  11.559
17545W        W82706   2.537  13.594  12.428
17546W        W82707   0.768  41.375  12.070
17547W        W82708  43.993  29.920   0.357
17548W        W82709   1.733  21.094   3.634
17549W        W82710  42.714   9.556   0.710
17550W        W82711  37.970   3.942   4.893
17551W        W82712  25.850  15.364   2.965
17552W        W82713  29.922   7.165  14.491
17553W        W82714  16.208  18.549  14.679
17554W        W82715  20.370   0.004   3.295
17555W        W82716  10.020  21.525  11.560
17556W        W82717  20.980   0.152   2.698
17557W        W82718  19.461  26.594  13.924
17558W        W82719  23.326  43.461  10.776
17559W        W82720   1.956  17.734  12.111
17560W        W82721  15.538  30.666  11.066
17561W        W82722  42.008  27.725   2.925
17562W        W82723  11.231   6.621  13.848
17563W        W82724  38.831  27.194  14.753
17564W        W82725   9.092  15.096   4.702
17565W        W82726  25.170  22.022  13.496
17566W        W82727  31.259  21.673  10.187
17567W        W82728  31.183  14.590  13.405
17568W        W82729  20.693   3.183   4.144
17569W        W82730   0.288  12.822  12.725
17570W        W82731  42.826   8.820   3.875
17571W        W82732  43.439   5.147   2.773
17572W        W82733   0.182  30.958  10.735
17573W        W82734  20.922  41.374  12.137
17574W        W82735   8.888  33.872   2.896
17575W        W82736  25.233  26.492   3.300
17576W        W82737  31.316   3.768   1.120
17577W        W82738  17.332  11.369  11.122
17578W        W82739   7.401  38.481   0.992
17579W        W82740  27.504   9.182   1.587
17580W        W82741  32.662  39.541   2.659
17581W        W82742   6.461   0.276   1.867
17582W        W82743  13.634  12.411   2.166
17583W        W82744  40.130  20.137  11.203
17584W        W82745  21.135  39.465  13.918
17585W        W82746  15.717  25.800   3.103
17586W        W82747  12.364  32.143  11.663
17587W        W82748  21.065  28.912   4.315
17588W        W82749  31.503  25.899   3.695
17589W        W82750  23.171  11.423   1.847
17590W        W82751  23.158  34.975  13.051
17591W        W82752  35.976  43.340  10.906
17592W        W82753  36.988   4.007  14.478
17593W        W82754  23.792  24.220  12.168
17594W        W82755  31.216  18.676   1.004
17595W        W82756  12.563  17.106   0.255
17596W        W82757  42.403  20.136  11.530
17597W        W82758  37.804   7.248   4.722
17598W        W82759  25.403  18.414   3.241
17599W        W82760  33.287  15.699  13.622
17600W        W82761   6.494  15.101   0.868
17601W        W82762  25.933   6.958   4.763
17602W        W82763  44.325  22.292   4.591
17603W        W82764   0.497  31.982   3.759
17604W        W82765  42.014   4.690   0.895
17605W        W82766  37.582  34.167   1.828
17606W        W82767   5.723   3.514   4.923
17607W        W82768  10.600   8.887  13.440
17608W        W82769  35.559  10.739  10.499
17609W        W82770   1.232  15.738   4.999
17610W        W82771  28.938  15.672   4.202
17611W        W82772  24.164   4.322   3.828
17612W        W82773  44.781  44.643  13.389
17613W        W82774  19.763  25.609   1.059
17614W        W82775  19.561  13.758   1.454
17615W        W82776  34.561  37.126   0.664
17616W        W82777  13.176  25.054   3.671
17617W        W82778  17.864  28.939  14.795
17618W        W82779  20.531  21.696  10.692
17619W        W82780  43.620  11.368   4.729
17620W        W82781  25.782  19.849  11.965
17621W        W82782  12.956   3.011  12.905
17622W        W82783  36.098  29.050  14.373
17623W        W82784  38.724   7.209   5.141
17624W        W82785  24.314  11.739   3.460
17625W        W82786   4.873   6.129  13.886
17626W        W82787   0.021  25.491  14.901
17627W        W82788  23.198  33.488   0.927
17628W        W82789  25.137  10.904   2.160
17629W        W82790  31.833  44.293   2.862
17630W        W82791  16.024  34.490   3.219
17631W        W82792  29.181   7.955  13.453
17632W        W82793  35.419  17.385  14.015
17633W        W82794  17.253  20.480  14.397
17634W        W82795   4.289   9.822  14.977
17635W        W82796  42.348  41.261   1.260
17636W        W82797  12.222  30.919  12.979
17637W        W82798  44.041  23.378   3.312
17638W        W82799  39.118  16.382  11.152
17639W        W82800  10.934  41.538  12.099
17640W        W82801  30.878  28.414  12.658
17641W        W82802  30.943   0.226  12.265
17642W        W82803  18.106   9.835   3.348
17643W        W82804  39.161  25.596  13.811
17644W        W82805  35.904  37.027  12.964
17645W        W82806  22.702   9.308   1.710
17646W        W82807   8.690   8.133   1.739
17647W        W82808  20.707   5.649   4.337
17648W        W82809  25.449   4.306  11.542
17649W        W82810  36.943   6.887  12.933
17650W        W82811   1.480  43.435   4.302
17651W        W82812  30.131  40.470   0.986
17652W        W82813  20.557  26.101  12.396
17653W        W82814  11.854  32.022  14.866
17654W        W82815  26.699  18.084  13.326
17655W        W82816   0.847   4.905   4.416
17656W        W82817  25.709  39.957   1.473
17657W        W82818   9.832  25.177  11.106
17658W        W82819  25.882   9.952  14.827
17659W        W82820  21.166  19.315  14.703
17660W        W82821   1.318  36.196  11.633
17661W        W82822  23.513  28.631   0.877
17662W        W82823  35.001  18.052   4.326
17663W        W82824   0.818  19.780   4.460
17664W        W82825   2.187  20.293   0.334
17665W        W82826  28.254  33.674  12.387
17666W        W82827   6.760  31.600   1.446
17667W        W82828  33.483   4.225   4.622
17668W        W82829   4.282   7.663   3.732
17669W        W82830  32.347  13.265  13.981
17670W        W82831   4.323  17.571  13.275
17671W        W82832  44.322   6.167   2.325
17672W        W82833  42.469   1.997   4.407
17673W        W82834  26.310  41.370   2.684
17674W        W82835  11.197  13.820  10.544
17675W        W82836  28.548  10.763  14.109
17676W        W82837  36.823  23.998  14.107
17677W        W82838  35.376  16.874  13.977
17678W        W82839  23.747  42.429  13.607
17679W        W82840  28.690   7.368  13.316
17680W        W82841  42.437  27.172   4.478
17681W        W82842  15.296   7.415  14.325
17682W        W82843   7.150  20.239   2.769
17683W        W82844  36.015  33.386   0.008
17684W        W82845   3.362  40.009   3.539
17685W        W82846   0.218  30.957   2.951
17686W        W82847   8.582   9.995   4.645
17687W        W82848   8.209   1.282   0.877
17688W        W82849  11.619  31.552  14.866
17689W        W82850  36.403  29.590   4.186
17690W        W82851  33.435  16.736   3.456
17691W        W82852  37.327  21.628  12.370
17692W        W82853   8.001  23.959  12.242
17693W        W82854  23.169   5.078   2.790
17694W        W82855  12.887  14.109   0.484
17695W        W82856  26.986  26.141   1.667
17696W        W82857  43.247  15.786   1.250
17697W        W82858  26.892  11.922   1.462
17698W        W82859  20.163   4.183   3.304
17699W        W82860  13.416   8.692   3.667
17700W        W82861   8.352  35.482  13.799
17701W        W82862  22.931  42.854  13.477
17702W        W82863  24.536  18.735  13.037
17703W        W82864   6.348   5.183  12.291
17704W        W82865  28.796  39.993   3.175
17705W        W82866   9.864  32.980  14.345
17706W        W82867  33.841  36.507  13.822
17707W        W82868  43.958  36.334  14.914
17708W        W82869  34.782  39.520  13.708
17709W        W82870  39.390  31.664  10.486
17710W        W82871  38.907  24.762  14.735
17711W        W82872  11.350  34.538   1.384
17712W        W82873  42.529   4.960  11.480
17713W        W82874  10.214  21.535   3.793
17714W        W82875  33.591  37.606  11.970
17715W        W82876   4.760  20.702   1.133
17716W        W82877  27.402  11.645   0.516
17717W        W82878  34.628  25.154   2.906
17718W        W82879  44.202  34.974   4.610
17719W        W82880   9.774  36.100  14.876
17720W        W82881  44.900  10.876   1.200
17721W        W82882   9.068  28.966  12.115
17722W        W82883  10.730  40.178   3.804
17723W        W82884  14.525  41.355  12.645
17724W        W82885   5.480  14.553   0.710
17725W        W82886  33.544  32.476   9.980
17726W        W82887  22.586  38.402  14.493
17727W        W82888  39.792  14.203  12.355
17728W        W82889   5.719  29.141  13.087
17729W        W82890  17.713   7.635  14.001
17730W        W82891  43.554  18.115  12.018
17731W        W82892  32.475  11.315  12.817
17732W        W82893  43.403  17.084  12.959
17733W        W82894  16.163  14.297   0.688
17734W        W82895  23.333   1.484  10.652
17735W        W82896  17.075  41.393  14.813
17736W        W82897  19.041  38.956  14.789
17737W        W82898  28.587  20.109  12.193
17738W        W82899  36.411   5.861  10.110
17739W        W82900  42.481   6.181  13.968
17740W        W82901   5.104  44.353  14.335
17741W        W82902  40.614  32.120   4.537
17742W        W82903  10.381  32.802   2.320
17743W        W82904  28.537  30.846  12.233
17744W        W82905  21.512  15.257  11.269
17745W        W82906  29.609  32.100   1.426
17746W        W82907  29.495  38.263   4.101
17747W        W82908  23.334   2.852  10.440
17748W        W82909  19.274   2.160  12.176
17749W        W82910   9.886  39.997  14.065
17750W        W82911  34.946   5.858   2.698
17751W        W82912  16.567  35.269   2.909
17752W        W82913  34.111  12.243  14.303
17753W        W82914  14.769   5.025   0.091
17754W        W82915  44.470  19.730   1.459
17755W        W82916  18.947  23.594  12.961
17756W        W82917   2.797   6.501   2.376
17757W        W82918  39.449  13.178   3.721
17758W        W82919  32.995  16.202   1.231
17759W        W82920  24.764  43.818   0.372
17760W        W82921  18.633  20.802  12.148
17761W        W82922   1.754  17.820   2.275
17762W        W82923   5.736  33.130   4.529
17763W        W82924   3.998  12.812   9.731
17764W        W82925  31.231  14.267   1.045
17765W        W82926  10.237  33.738   1.318
17766W        W82927  38.401  36.044  12.559
17767W        W82928  38.503  19.446   4.039
17768W        W82929  35.739   8.466  12.095
17769W        W82930   9.088  13.136   3.758
17770W        W82931  27.716  41.334  11.895
17771W        W82932  32.505  14.253   5.032
17772W        W82933  19.649  36.912   2.672
17773W        W82934  27.332  34.597  14.366
17774W        W82935   6.941  10.440  11.883
17775W        W82936  20.965  11.352  12.875
17776W        W82937  41.828  26.526   4.455
17777W        W82938  42.757   3.709   4.375
17778W        W82939  44.201  21.713   1.397
17779W        W82940  20.687  19.161   2.118
17780W        W82941  16.834  29.561  12.997
17781W        W82942   3.500  19.060   3.193
17782W        W82943  27.762  20.498  13.268
17783W        W82944  24.693  28.472   4.407
17784W        W82945   3.566  31.050  11.193
17785W        W82946  43.414  27.965   2.637
17786W        W82947   2.743  23.406   1.300
17787W        W82948  17.361  20.786   4.102
17788W        W82949  34.699  41.916   0.759
17789W        W82950  15.659  15.341  11.178
17790W        W82951  33.964  32.187  10.142
17791W        W82952  25.692  30.871   0.737
17792W        W82953   1.411  10.037   4.416
17793W        W82954   0.778  20.169   5.002
17794W        W82955  20.358  27.560  13.588
17795W        W82956  36.416  14.540   4.308
17796W        W82957  20.330  34.023  11.477
17797W        W82958   9.408   2.173  13.540
17798W        W82959  22.606  20.641  11.244
17799W        W82960  44.742  25.442  14.030
17800W        W82961   7.662  38.629   0.459
17801W        W82962  26.202  32.343   4.836
17802W        W82963  37.753  36.318   2.326
17803W        W82964  28.643  16.312   4.057
17804W        W82965   3.641  14.963   0.232
17805W        W82966  35.361  29.913   2.851
17806W        W82967  23.978   0.681  14.014
17807W        W82968  24.790   6.993   1.018
17808W        W82969  38.464  30.320   2.969
17809W        W82970  28.150  31.983  11.632
17810W        W82971  11.307   6.399  14.350
17811W        W82972  21.040  33.015  14.894
17812W        W82973  27.553  26.710   3.892
17813W        W82974  18.554  32.957   1.359
17814W        W82975   2.428  21.719   3.688
17815W        W82976  22.545  41.904   4.528
17816W        W82977  40.896  38.237  13.794
17817W        W82978  28.006   6.180   1.336
17818W        W82979  38.371  40.219  11.046
17819W        W82980  27.361  38.491   3.507
17820W        W82981  27.262  11.728  11.620
17821W        W82982  20.594  44.526  12.515
17822W        W82983  19.513  31.319   1.705
17823W        W82984  32.091   1.941   4.026
17824W        W82985  10.712  22.256   3.836
17825W        W82986  21.914  11.235   9.481
17826W        W82987  13.103  41.045  11.282
17827W        W82988  11.987  18.699  11.609
17828W        W82989   8.566  24.767  12.497
17829W        W82990  27.238  42.111  12.384
17830W        W82991  18.126  31.639  13.108
17831W        W82992  20.117  10.336  11.495
17832W        W82993  35.329   2.238   4.097
17833W        W82994  30.105  38.328  11.296
17834W        W82995   6.405  20.257   2.229
17835W        W82996  17.623   8.699  12.527
17836W        W82997   2.249   7.040  12.858
17837W        W82998   6.443  44.491  11.996
17838W        W82999   8.634  44.299  11.167
17839W        W83000   6.453   9.350   1.861
17840W        W83001  30.470   6.314   3.323
17841W        W83002  23.601  15.136  10.330
17842W        W83003  20.603  33.427  13.428
17843W        W83004  28.162  39.383  10.587
17844W        W83005  31.429  44.996  14.955
17845W        W83006  33.447  37.890   1.432
17846W        W83007  26.204   9.967  11.111
17847W        W83008  22.035  39.431   0.363
17848W        W83009  23.026  17.154   0.285
17849W        W83010  23.933  36.004  13.332
17850W        W83011  40.550  30.807   3.582
17851W        W83012  13.163  39.530   0.812
17852W        W83013  23.321  12.727   2.729
17853W        W83014   1.854  10.888  13.032
17854W        W83015   7.119  17.508   3.351
17855W        W83016  41.717  43.385   4.143
17856W        W83017   4.630  26.924   0.248
17857W        W83018  19.783   3.347  14.518
17858W        W83019  34.076   9.903   1.505
17859W        W83020  31.084  13.276  14.039
17860W        W83021   4.378  25.605   1.200
17861W        W83022  42.767  11.851   4.605
17862W        W83023  37.448  17.716  13.995
17863W        W83024   5.437  27.994  14.791
17864W        W83025   5.224   2.344  10.836
17865W        W83026   8.401  32.789  14.470
17866W        W83027  12.130  44.179   3.733
17867W        W83028  14.229  44.229  14.826
17868W        W83029   6.945  20.160   2.270
17869W        W83030  37.931  20.249  10.689
17870W        W83031  10.216  30.711  11.382
17871W        W83032  31.360  32.013  13.128
17872W        W83033  37.322  35.544   1.642
17873W        W83034  41.457  40.276   1.330
17874W        W83035  43.539  31.401   4.457
17875W        W83036  34.488  25.001  13.500
17876W        W83037   9.011  41.588  13.398
17877W        W83038   8.110  18.025   1.758
17878W        W83039   7.999   2.442   2.279
17879W        W83040  11.870  38.112   4.117
17880W        W83041  14.197   8.647  10.067
17881W        W83042  33.135  14.221   2.508
17882W        W83043  19.302  38.213  10.768
17883W        W83044   6.861  31.684  11.441
17884W        W83045  31.563  28.483   4.821
17885W        W83046   8.824  29.509  11.613
17886W        W83047  25.107  33.712  14.840
17887W        W83048  31.136  37.431  10.370
17888W        W83049  36.954  36.827  13.621
17889W        W83050  42.918   8.355  11.073
17890W        W83051  11.845  36.664  10.921
17891W        W83052  42.213  30.905  14.960
17892W        W83053  34.979  32.431  12.057
17893W        W83054  28.174  29.451  12.476
17894W        W83055  44.402  27.681  14.594
17895W        W83056   6.841   4.584  12.161
17896W        W83057  22.701   2.348  12.893
17897W        W83058   2.471   4.350   2.462
17898W        W83059  20.348   6.845  11.221
17899W        W83060  42.829  31.415  14.901
17900W        W83061  17.558  32.184   0.324
17901W        W83062  23.705  35.585   2.168
17902W        W83063  43.831  39.369   2.793
17903W        W83064  22.265  38.454   1.894
17904W        W83065  44.002  14.192  10.704
17905W        W83066  11.575  27.633  10.511
17906W        W83067  14.646   2.454  14.525
17907W        W83068   0.619  29.696   0.701
17908W        W83069  11.581  19.007  11.670
17909W        W83070  27.494  26.267  13.514
17910W        W83071  21.646  38.030   2.351
17911W        W83072   9.478  23.605   4.552
17912W        W83073   8.964  26.709   3.261
17913W        W83074  34.968   0.203   2.451
17914W        W83075  17.333  28.020  14.552
17915W        W83076  32.491  27.902  11.453
17916W        W83077  35.943  25.690  12.129
17917W        W83078  23.293  19.952  11.490
17918W        W83079  33.644  23.492  12.010
17919W        W83080  25.670  37.099  13.408
17920W        W83081  29.882  41.959  14.238
17921W        W83082  33.632  44.257  12.042
17922W        W83083   6.464  33.382  13.386
17923W        W83084  35.946  28.507  12.010
17924W        W83085  31.010  24.130  11.131
17925W        W83086   7.745  17.706  14.425
17926W        W83087  24.045   3.980  13.426
17927W        W83088  42.274  11.950  12.499
17928W        W83089   7.411  30.299   0.352
17929W        W83090  17.587  21.260   4.138
17930W        W83091  11.551   2.593   2.986
17931W        W83092  34.721  30.324  13.483
17932W        W83093  21.734  25.996  10.419
17933W        W83094  11.982  35.490  13.347
17934W        W83095  11.245  17.788  14.232
17935W        W83096  32.494  22.081  10.551
17936W        W83097  36.749  20.120  12.762
17937W        W83098  39.011  29.070  10.328
17938W        W83099  20.989  40.755   3.024
17939W        W83100  22.820   1.399  10.513
17940W        W83101   2.455  26.244  11.104
17941W        W83102  44.322  10.699   3.347
17942W        W83103   4.703  24.466   4.507
17943W        W83104  27.095   7.464  11.574
17944W        W83105  35.341   1.259   2.353
17945W        W83106  36.264  21.269  10.714
17946W        W83107  12.511  36.942  13.942
17947W        W83108   6.704  22.334  13.710
17948W        W83109  32.444   1.992  13.556
17949W        W83110   9.629  21.193  11.441
17950W        W83111   8.555   2.299   2.479
17951W        W83112  31.140  12.361   3.332
17952W        W83113  18.865  23.560   3.680
17953W        W83114  15.584  42.086   2.792
17954W        W83115  22.723  37.119   2.524
17955W        W83116  35.847  29.679   0.247
17956W        W83117  29.396  24.184   3.346
17957W        W83118  32.545  34.265  11.264
17958W        W83119   8.856  32.261  11.704
17959W        W83120   3.895  14.066   1.518
17960W        W83121   9.432  29.963  11.241
17961W        W83122  24.689  38.458  14.263
17962W        W83123  39.917   4.889   2.703
17963W        W83124  18.513   9.724  14.045
17964W        W83125  16.588   9.139   0.292
17965W        W83126   1.286  19.524   3.744
17966W        W83127  10.702  43.862   0.242
17967W        W83128  38.595  44.813   0.690
17968W        W83129  42.991  43.791   1.313
17969W        W83130  35.993  38.758  14.833
17970W        W83131  35.409  44.739   0.456
17971W        W83132  14.170  18.501   1.488
17972W        W83133   9.882  29.976   4.335
17973W        W83134  33.585   5.838   3.244
17974W        W83135  35.560  40.397  11.684
17975W        W83136   0.687  42.598   3.642
17976W        W83137  43.023  15.602  12.036
17977W        W83138  12.360   0.726  11.143
17978W        W83139  32.814   0.224   1.271
17979W        W83140   9.421  37.215  12.118
17980W        W83141  20.701  40.401   0.892
17981W        W83142  31.029  43.882  12.063
17982W        W83143   5.294  18.977  11.043
17983W        W83144  39.376  17.346   4.557
17984W        W83145  34.950  24.680   4.608
17985W        W83146  17.548  36.647  12.077
17986W        W83147  19.186  12.289   4.304
17987W        W83148   8.401  28.881   3.576
17988W        W83149  21.818  32.478   1.727
17989W        W83150  12.141  22.570   2.497
17990W        W83151  11.681  10.681   1.221
17991W        W83152  33.743  44.932  13.649
17992W        W83153   2.386  39.047   0.480
17993W        W83154  12.859  15.103   1.776
17994W        W83155  26.512   5.274  13.853
17995W        W83156  35.352   6.143   1.908
17996W        W83157  11.099   7.671  10.582
17997W        W83158  30.078  29.916  14.380
17998W        W83159  31.515  22.980  14.363
17999W        W83160  19.587  24.195   9.801
18000W        W83161  28.138   1.734  10.602
18001W        W83162  14.377   2.350   2.415
18002W        W83163  25.331   5.695   0.429
18003W        W83164  40.664   2.773  13.944
18004W        W83165  32.251  28.218   3.826
18005W        W83166  27.900  30.799   4.088
18006W        W83167  26.654   8.906  12.426
18007W        W83168  23.494  17.610   4.347
18008W        W83169  36.188  15.315  12.178
18009W        W83170  24.497  14.187  13.349
18010W        W83171  40.329   5.310   0.429
18011W        W83172   7.807  19.125   3.152
18012W        W83173  21.662   0.551  14.989
18013W        W83174  37.219  28.915   0.316
18014W        W83175  42.596  37.575   0.367
18015W        W83176  30.446  11.381  12.023
18016W        W83177  34.486  18.876   1.331
18017W        W83178   0.867  40.151  11.543
18018W        W83179   0.139  31.666   4.719
18019W        W83180   1.408  19.545  12.971
18020W        W83181  21.074   6.724  10.750
18021W        W83182   8.551  19.272   2.170
18022W        W83183   4.763  30.110   4.202
18023W        W83184   5.676  16.725  12.136
18024W        W83185  31.508  14.324   0.097
18025W        W83186   8.196  14.617  14.252
18026W        W83187  10.679  37.415  12.050
18027W        W83188  24.840  17.093  11.214
18028W        W83189  19.620   0.888   1.450
18029W        W83190  38.410   7.753  13.129
18030W        W83191   9.984   4.868   1.143
18031W        W83192   3.294  23.682  10.068
18032W        W83193   7.482   2.261  13.881
18033W        W83194   6.309   3.825   2.172
18034W        W83195  34.718  13.698   1.836
18035W        W83196  25.077  24.114   0.069
18036W        W83197  36.506  24.781   0.872
18037W        W83198  41.281  39.091  14.795
18038W        W83199  35.772  35.475  12.264
18039W        W83200  39.574  25.945  14.552
18040W        W83201   1.964  38.764  11.169
18041W        W83202  29.140  16.132   4.124
18042W        W83203   2.020  19.378   3.211
18043W        W83204  39.002  42.740   1.344
18044W        W83205  37.337  33.945  13.626
18045W        W83206  12.072  29.278   0.752
18046W        W83207   8.532   4.501   5.037
18047W        W83208   7.153  40.473  11.078
18048W        W83209  27.053  35.045  12.887
18049W        W83210  34.081  18.811   4.093
18050W        W83211  30.554  34.512  12.896
18051W        W83212  10.252   2.534   3.249
18052W        W83213  18.836  43.625  12.090
18053W        W83214  37.507  42.047  12.504
18054W        W83215  27.380  17.202   2.417
18055W        W83216  33.598  38.109  12.056
18056W        W83217  21.055  31.343  12.874
18057W        W83218  35.023  10.723  11.227
18058W        W83219  12.818  36.314   1.882
18059W        W83220   3.372  42.840  13.015
18060W        W83221  18.581   5.177  11.177
18061W        W83222  31.484  15.389  12.151
18062W        W83223  32.155  37.820  12.009
18063W        W83224  15.340   8.138  11.161
18064W        W83225  27.516  28.036  12.865
18065W        W83226  33.215  27.071   4.193
18066W        W83227  38.406  27.546  10.878
18067W        W83228  29.987  12.333  11.990
18068W        W83229  27.034  10.822  14.232
18069W        W83230  20.062  19.508   0.856
18070W        W83231  15.876   9.320   4.548
18071W        W83232  24.932  28.956   3.899
18072W        W83233  36.802   0.017  10.569
18073W        W83234  32.986   0.355   3.916
18074W        W83235   1.501   8.921   1.756
18075W        W83236  43.979  43.378   2.161
18076W        W83237  36.330  42.709  11.636
18077W        W83238  13.153   9.444  14.947
18078W        W83239  19.131  37.980   3.209
18079W        W83240  26.618  14.743   1.970
18080W        W83241  14.856  23.364   0.097
18081W        W83242  19.109   8.420   3.256
18082W        W83243  30.441   4.515  14.195
18083W        W83244  41.853   3.768  11.775
18084W        W83245  16.017  26.093  10.423
18085W        W83246  41.679  11.374   2.952
18086W        W83247  43.286  29.877  12.402
18087W        W83248  30.420  40.025   3.739
18088W        W83249  14.776  10.584  11.177
18089W        W83250  43.890  14.219  13.780
18090W        W83251  33.026   1.335  11.587
18091W        W83252   0.222  30.934   4.137
18092W        W83253  36.664   3.962  13.289
18093W        W83254   3.907  33.891   2.175
18094W        W83255  23.529  35.926   3.723
18095W        W83256  34.896  16.723  11.985
18096W        W83257  15.356  16.267   3.098
18097W        W83258  35.186   6.264   2.401
18098W        W83259  38.892  36.035   1.121
18099W        W83260  43.048   1.101   2.319
18100W        W83261  11.184  43.301   4.497
18101W        W83262  34.322  20.751   3.183
18102W        W83263   9.185  10.465   5.208
18103W        W83264  32.415   2.267  12.906
18104W        W83265  25.071  13.338   0.335
18105W        W83266  32.448  12.017   0.771
18106W        W83267   4.338  30.224   0.785
18107W        W83268  22.630   7.792  14.765
18108W        W83269  27.903  21.264   1.170
18109W        W83270  38.274   8.529  13.298
18110W        W83271  36.286  24.552   0.463
18111W        W83272  24.959   5.667  12.992
18112W        W83273  26.450   9.611  14.000
18113W        W83274  25.901   0.841  10.967
18114W        W83275   0.451  10.381   4.931
18115W        W83276  19.310  40.962  12.996
18116W        W83277  15.031  24.227   0.835
18117W        W83278  38.841  20.771  11.092
18118W        W83279   5.716   8.490   4.350
18119W        W83280  19.497   4.216  13.412
18120W        W83281   3.227  33.836  11.536
18121W        W83282  26.320  15.562   2.023
18122W        W83283  30.437  37.652   2.707
18123W        W83284  16.484  17.621   4.225
18124W        W83285  35.140  12.329  11.913
18125W        W83286  39.059  41.245   2.324
18126W        W83287  28.432  13.148  11.896
18127W        W83288  10.723   6.781  13.875
18128W        W83289   0.941  13.284  13.931
18129W        W83290  15.585  23.725   0.794
18130W        W83291  43.812  16.665   1.233
18131W        W83292  32.450  26.596  11.601
18132W        W83293  43.894  33.338  11.540
18133W        W83294  32.644   5.668   4.807
18134W        W83295  39.433  21.465   2.353
18135W        W83296  27.140   3.854  12.868
18136W        W83297  41.434  15.682  13.201
18137W        W83298  44.366  18.044  11.206
18138W        W83299  33.665  23.781   2.291
18139W        W83300   5.582   1.370  12.011
18140W        W83301  15.098  14.635   1.568
18141W        W83302  31.454   3.723  10.950
18142W        W83303  43.858  34.623   2.048
18143W        W83304   4.441  40.575  13.978
18144W        W83305  14.813  34.180  11.002
18145W        W83306  28.518  14.695  14.203
18146W        W83307  11.886  33.127   0.855
18147W        W83308  33.833   3.993  11.887
18148W        W83309  42.853  33.710  12.858
18149W        W83310  29.544  10.737   0.839
18150W        W83311   4.187  26.665  13.528
18151W        W83312   0.205  24.865  12.005
18152W        W83313  15.619  32.225  14.151
18153W        W83314  41.040  32.632  13.091
18154W        W83315  23.526  30.769   4.699
18155W        W83316   6.704  25.074   0.731
18156W        W83317  19.639  35.800   1.433
18157W        W83318  24.060  31.579  14.895
18158W        W83319  30.661  14.023  12.774
18159W        W83320  24.930  14.152   2.648
18160W        W83321   3.251  32.940   4.393
18161W        W83322  14.599   8.398  11.642
18162W        W83323  24.046  30.944   0.428
18163W        W83324  32.119  11.152  11.036
18164W        W83325   4.149  38.545   4.466
18165W        W83326  37.479  30.898   1.434
18166W        W83327  13.810  14.190   4.768
18167W        W83328   5.134  22.444   1.496
18168W        W83329  22.196  18.518   1.948
18169W        W83330  28.656  21.077   2.812
18170W        W83331  12.354  15.861   4.195
18171W        W83332  10.884  17.189  10.631
18172W        W83333  20.814  29.972   2.376
18173W        W83334   3.717  10.138  12.613
18174W        W83335  22.346  10.405  14.797
18175W        W83336  22.119  38.609  14.415
18176W        W83337  41.204  18.436   0.305
18177W        W83338  28.094   5.259  13.350
18178W        W83339  12.123  41.959   2.709
18179W        W83340  18.789   2.321   0.207
18180W        W83341  14.507   6.744   3.345
18181W        W83342  17.274  31.614  13.140
18182W        W83343  40.458   6.902   1.295
18183W        W83344  28.973  20.844  11.222
18184W        W83345  28.918  11.731   0.411
18185W        W83346   8.769  33.431  12.825
18186W        W83347  42.447   0.734  11.236
18187W        W83348  31.853  32.854  14.880
18188W        W83349  35.964  43.777  11.173
18189W        W83350  35.039  34.939  13.476
18190W        W83351   3.775  40.896  12.424
18191W        W83352  12.289  36.532   3.134
18192W        W83353  31.908  29.230   3.203
18193W        W83354  32.418  33.844  12.927
18194W        W83355  20.591  40.691  10.061
18195W        W83356  28.160  30.874  12.924
18196W        W83357  23.448  21.079   3.119
18197W        W83358  11.723  31.507  10.785
18198W        W83359  43.779  35.858  13.386
18199W        W83360  13.687  27.652   4.019
18200W        W83361  18.567  21.077  13.452
18201W        W83362  24.058  10.637   1.731
18202W        W83363  25.455   4.165   2.703
18203W        W83364  42.814  12.220   1.952
18204W        W83365  15.851  16.107  13.042
18205W        W83366  13.788   1.366  14.338
18206W        W83367  42.950  14.881  11.511
18207W        W83368  30.056  27.125   0.798
18208W        W83369   3.754  18.352  11.583
18209W        W83370   4.179  21.939   2.901
18210W        W83371  22.633   0.587   2.881
18211W        W83372  17.804   3.893  13.394
18212W        W83373  41.015  16.535   2.260
18213W        W83374  34.298  31.814  14.097
18214W        W83375   8.403  39.192  11.208
18215W        W83376  14.355  36.105   4.640
18216W        W83377  30.010   4.845  12.019
18217W        W83378  42.972  19.288  13.503
18218W        W83379   6.505  18.458  12.583
18219W        W83380  29.912  34.659   1.332
18220W        W83381   5.687  19.384   4.732
18221W        W83382  28.353  39.935  12.081
18222W        W83383  19.858   0.773   3.930
18223W        W83384  20.295  25.962  10.699
18224W        W83385   0.672  28.931  12.876
18225W        W83386  36.955  29.241   0.029
18226W        W83387  28.086  22.780   0.325
18227W        W83388   1.826  17.208  13.271
18228W        W83389   8.117   6.968  10.641
18229W        W83390  36.393   3.430  11.124
18230W        W83391  29.644  30.617  10.430
18231W        W83392   6.898  18.107  12.458
18232W        W83393   3.737  20.902   9.866
18233W        W83394  41.957   6.045   1.137
18234W        W83395   3.721   8.276   4.848
18235W        W83396  23.184  13.730   1.243
18236W        W83397  31.104  25.183   5.649
18237W        W83398  25.717  31.081  12.057
18238W        W83399   7.253  34.120   3.679
18239W        W83400  27.652  23.158  13.804
18240W        W83401  36.383   2.715  13.828
18241W        W83402  22.616   4.014   2.392
18242W        W83403  42.639   6.262   2.734
18243W        W83404  41.829  20.746  10.777
18244W        W83405  14.494  19.746   2.817
18245W        W83406  21.079   7.898  14.398
18246W        W83407  28.267  11.047  10.092
18247W        W83408  20.490  19.743   4.217
18248W        W83409   1.610  17.095   0.429
18249W        W83410  14.221   2.550   0.458
18250W        W83411  17.576  30.606  13.894
18251W        W83412  19.531   7.105  12.325
18252W        W83413  15.647  31.569  10.419
18253W        W83414   0.355   2.273  12.492
18254W        W83415  20.340  44.239  12.882
18255W        W83416  36.087   9.211   0.948
18256W        W83417  40.513   4.752  13.921
18257W        W83418  26.759  28.549   3.241
18258W        W83419  11.657  20.810  14.498
18259W        W83420  19.480  43.278  14.537
18260W        W83421  17.856  33.358  14.720
18261W        W83422  43.488  29.140   2.223
18262W        W83423   7.773  17.171   2.336
18263W        W83424  12.187  14.528   0.015
18264W        W83425  35.504  35.361   1.350
18265W        W83426  21.537  29.640  13.352
18266W        W83427   1.729  27.704   1.900
18267W        W83428   1.945   6.664   3.725
18268W        W83429  17.969  41.460  13.802
18269W        W83430  25.085   9.973   2.641
18270W        W83431   5.365  44.745   2.261
18271W        W83432  13.131  42.807  11.453
18272W        W83433  11.328  26.495   0.362
18273W        W83434  42.915  20.487   3.472
18274W        W83435  18.767   5.177   3.394
18275W        W83436  37.026  33.986  14.473
18276W        W83437  38.855   4.208  13.099
18277W        W83438  32.033  15.054  14.966
18278W        W83439  43.106  15.090  11.951
18279W        W83440  25.609  32.222   0.692
18280W        W83441  10.796   9.536   0.625
18281W        W83442  10.967  39.918   2.931
18282W        W83443   3.238  11.690   3.552
18283W        W83444  25.466  24.001   2.731
18284W        W83445  17.775  43.976  12.094
18285W        W83446  33.283   4.717   1.850
18286W        W83447  44.325   8.832   4.970
18287W        W83448  17.188   9.012   5.101
18288W        W83449   5.199   3.121  14.407
18289W        W83450   9.672  19.166   1.549
18290W        W83451  39.552  42.371   4.854
18291W        W83452   3.978  34.622  13.424
18292W        W83453   6.455   8.787   4.778
18293W        W83454   3.628  11.190   0.825
18294W        W83455   8.651  30.503  13.908
18295W        W83456   7.755  31.625  12.924
18296W        W83457  14.895  44.967  11.185
18297W        W83458   7.644  24.910   3.548
18298W        W83459  30.601  42.981   4.728
18299W        W83460   5.332  22.413  10.885
18300W        W83461  41.456  34.038   4.592
18301W        W83462   1.910  42.761   5.336
18302W        W83463  33.511  43.439  12.438
18303W        W83464  17.732  41.387   5.038
18304W        W83465  40.605  30.272  10.141
18305W        W83466  30.938  14.847  12.441
18306W        W83467  37.943  24.444   2.184
18307W        W83468  21.677  30.941   3.057
18308W        W83469  31.600  20.701  11.740
18309W        W83470   2.723  26.423  13.352
18310W        W83471  41.070  17.566   3.201
18311W        W83472   7.424  26.439  11.663
18312W        W83473  38.276  27.004  12.007
18313W        W83474  20.038  23.860   1.184
18314W        W83475  26.539  13.565   0.490
18315W        W83476  18.245  20.924  11.830
18316W        W83477  39.638  20.286  11.126
18317W        W83478  13.887  25.536  13.113
18318W        W83479  11.850  32.889  10.678
18319W        W83480  43.057   9.912  11.303
18320W        W83481  43.944  27.438   4.491
18321W        W83482   3.819   5.679   2.230
18322W        W83483  11.800  21.124  13.979
18323W        W83484  11.869  25.760  10.215
18324W        W83485  18.182  29.075   4.534
18325W        W83486   3.294  36.228  13.916
18326W        W83487  16.723  11.252  14.571
18327W        W83488  44.499  21.563   1.828
18328W        W83489  13.444  26.537  11.723
18329W        W83490  43.924  15.256   0.897
18330W        W83491  29.603  17.112  11.388
18331W        W83492  21.089  27.665  10.724
18332W        W83493   1.559  22.444   0.455
18333W        W83494  22.954  10.190  11.402
18334W        W83495  10.874  20.118   4.074
18335W        W83496  25.804  20.455   0.659
18336W        W83497   6.834  41.629   1.234
18337W        W83498  36.991  20.444  13.098
18338W        W83499   0.128  32.745   3.231
18339W        W83500  19.421  17.657   3.725
18340W        W83501  30.323   1.318   4.747
18341W        W83502  33.005  31.591  12.888
18342W        W83503   9.730  28.786   2.293
18343W        W83504  21.101   5.187   0.468
18344W        W83505   8.397   2.868  10.978
18345W        W83506  34.477   9.652  13.396
18346W        W83507  19.528  35.989   1.905
18347W        W83508  12.221  29.108   4.563
18348W        W83509  24.095  22.015  14.624
18349W        W83510  40.777  11.362  11.672
18350W        W83511   4.996  21.769   5.002
18351W        W83512  23.101  23.061  12.617
18352W        W83513  13.271  43.552  13.621
18353W        W83514  39.845  41.674  13.471
18354W        W83515  44.106  24.357   0.970
18355W        W83516   1.019  15.302   3.322
18356W        W83517  20.953  23.738  11.157
18357W        W83518  40.053  21.677  12.160
18358W        W83519  19.960   6.701  13.540
18359W        W83520  26.571   6.859   3.289
18360W        W83521  38.905  26.896  11.238
18361W        W83522  11.642  10.737  11.506
18362W        W83523  40.075   8.665  11.466
18363W        W83524  23.104  39.928  12.715
18364W        W83525  25.794  11.077   4.517
18365W        W83526   9.352   7.486   1.206
18366W        W83527   5.840   6.889   0.416
18367W        W83528  10.087  34.475  13.068
18368W        W83529   0.443   3.763  12.406
18369W        W83530  18.099  36.625  11.274
18370W        W83531  39.622   8.819   1.104
18371W        W83532   4.947  10.674  12.702
18372W        W83533  43.436  24.093   3.855
18373W        W83534   1.689  44.912   2.406
18374W        W83535  32.205  13.724   1.891
18375W        W83536   1.441   5.956   0.738
18376W        W83537  33.185  30.105  13.429
18377W        W83538  14.756  41.943  13.770
18378W        W83539  20.888  30.427  13.280
18379W        W83540  12.417  23.677   3.666
18380W        W83541  15.710   8.550   3.269
18381W        W83542  29.474  24.499  11.860
18382W        W83543  33.031  22.117  12.868
18383W        W83544   8.885  38.592  14.394
18384W        W83545   1.718  44.321  14.927
18385W        W83546  32.985  40.333   3.142
18386W        W83547   0.229  21.594   2.384
18387W        W83548  36.000  34.054  10.762
18388W        W83549  19.193  16.342   1.352
18389W        W83550  11.643  37.146  10.956
18390W        W83551  28.204  42.814  13.506
18391W        W83552   1.537   6.709   0.751
18392W        W83553  38.969  42.296  12.126
18393W        W83554   1.417  43.366  12.056
18394W        W83555  24.163   7.949  13.780
18395W        W83556  44.776  13.786   1.663
18396W        W83557  31.574  21.622   1.793
18397W        W83558  42.314   5.813   0.834
18398W        W83559  44.155  19.722  11.578
18399W        W83560  41.310  44.839   2.153
18400W        W83561  43.797  44.884   1.270
18401W        W83562  15.881   6.375   0.817
18402W        W83563  33.033  15.039   2.834
18403W        W83564  34.743  32.921   4.098
18404W        W83565  39.839   8.653   2.264
18405W        W83566  43.542   1.377   3.127
18406W        W83567  33.452  11.097  10.354
18407W        W83568  40.003  32.081   0.172
18408W        W83569  25.995  24.498  13.866
18409W        W83570   4.222  20.806   3.993
18410W        W83571  38.427  41.693   0.841
18411W        W83572   3.785  33.993   3.117
18412W        W83573   2.547  10.259  11.088
18413W        W83574  25.066  10.125   3.500
18414W        W83575  39.375  18.669  14.273
18415W        W83576   6.706  23.219  13.308
18416W        W83577  31.950  12.153  12.431
18417W        W83578  17.919  36.193   3.634
18418W        W83579  19.928  28.615   0.834
18419W        W83580  11.316  17.313  14.034
18420W        W83581  42.300  33.018  13.358
18421W        W83582  19.264   4.325   0.948
18422W        W83583  32.757  16.544  14.622
18423W        W83584  31.032  29.412  14.544
18424W        W83585  20.946  10.306  11.656
18425W        W83586  32.636  13.071  14.373
18426W        W83587  17.074  26.679   2.276
18427W        W83588   0.681   3.398   1.438
18428W        W83589   2.191  22.600  12.430
18429W        W83590  18.575  10.798   2.946
18430W        W83591   8.580  44.129  14.011
18431W        W83592  18.598  43.708  12.927
18432W        W83593  24.654  29.414   5.041
18433W        W83594  22.942  44.836   3.317
18434W        W83595  33.184   8.171   2.531
18435W        W83596  32.022  42.752  14.545
18436W        W83597  27.246  13.477  13.418
18437W        W83598  22.129  14.156  14.806
18438W        W83599  40.278  26.777  10.237
18439W        W83600  24.739  38.786  12.709
18440W        W83601  20.069  24.019  11.534
18441W        W83602  43.407  20.052   2.685
18442W        W83603  36.076  31.429   3.929
18443W        W83604  44.961  24.127   0.481
18444W        W83605  18.953  16.693   3.219
18445W        W83606  32.394  33.428  14.043
18446W        W83607  32.381  41.325   2.453
18447W        W83608   4.409  23.312  12.490
18448W        W83609  36.966  25.564  11.279
18449W        W83610  44.491  40.830   3.889
18450W        W83611  10.724   4.555  12.948
18451W        W83612   0.783  26.414  11.555
18452W        W83613   9.707   9.765   3.589
18453W        W83614  40.487  23.041  12.417
18454W        W83615  21.752  44.336  14.025
18455W        W83616  14.752  39.120   3.499
18456W        W83617  18.126  29.516  11.144
18457W        W83618  10.039  42.873  13.742
18458W        W83619  15.658  43.972  12.405
18459W        W83620  37.440   9.133  13.787
18460W        W83621  31.197  24.654   5.583
18461W        W83622   1.086   8.093   0.054
18462W        W83623   9.868   2.219   4.199
18463W        W83624  11.333   3.921   1.008
18464W        W83625  42.471   4.924   0.714
18465W        W83626  28.002   5.038   0.488
18466W        W83627  34.712  35.921  11.097
18467W        W83628  22.724   8.403   0.243
18468W        W83629   3.479  27.567  13.032
18469W        W83630  21.175  27.691   3.619
18470W        W83631  36.889   2.609  13.743
18471W        W83632  14.609   0.923  14.072
18472W        W83633  30.923  25.502   4.637
18473W        W83634   0.455   4.848  13.634
18474W        W83635  30.439  40.448   4.590
18475W        W83636  11.600  21.619   4.919
18476W        W83637   0.788  20.138  13.943
18477W        W83638  10.391   4.693   4.560
18478W        W83639  40.605   2.692  12.946
18479W        W83640   4.759  24.992   1.367
18480W        W83641   4.114  31.592   3.341
18481W        W83642   9.444  17.727  14.124
18482W        W83643  17.136  36.168   1.010
18483W        W83644   6.294  28.566   4.683
18484W        W83645  39.476  42.486  14.766
18485W        W83646  43.039  33.530  14.290
18486W        W83647  34.458  15.081   0.003
18487W        W83648  19.490   6.308  12.981
18488W        W83649   4.406  17.769   3.831
18489W        W83650   4.824  10.279   1.853
18490W        W83651   3.870   3.708   0.667
18491W        W83652   8.682  35.814   4.130
18492W        W83653   3.903  20.679  13.373
18493W        W83654  13.053   6.389  13.335
18494W        W83655  39.578   0.339   2.307
18495W        W83656   3.681  20.709  12.877
18496W        W83657   7.779  27.479  12.984
18497W        W83658  37.594  17.536   1.271
18498W        W83659   0.868  20.227   4.192
18499W        W83660  39.784  24.673   2.752
18500W        W83661  33.797  21.167  10.216
18501W        W83662  19.167   2.196  12.988
18502W        W83663  17.421  25.032   4.348
18503W        W83664  12.189   0.460   0.338
18504W        W83665   3.576  33.937  14.835
18505W        W83666   1.948   4.978  14.707
18506W        W83667  40.336  31.002  13.845
18507W        W83668  38.947   2.971  12.462
18508W        W83669  38.707  23.556   1.630
18509W        W83670   2.845  41.590   1.401
18510W        W83671  39.560   6.294   3.377
18511W        W83672   7.207  24.050   1.874
18512W        W83673  16.125   5.881  13.664
18513W        W83674   3.031  43.961   4.151
18514W        W83675  27.532  13.354  13.852
18515W        W83676  10.141  33.454  12.804
18516W        W83677  27.419  12.696  14.264
18517W        W83678  25.123  24.472  14.000
18518W        W83679  34.027  30.800   0.914
18519W        W83680  34.262  24.941   2.466
18520W        W83681  29.090   9.157  12.947
18521W        W83682  36.023  32.930   3.670
18522W        W83683  36.637  31.895   4.627
18523W        W83684  33.056  20.642  12.080
18524W        W83685  27.979   2.843  12.064
18525W        W83686  13.059  11.263  10.028
18526W        W83687   0.495  39.595  13.812
18527W        W83688  27.968   3.284   2.646
18528W        W83689  39.298  40.393   0.885
18529W        W83690   1.792   2.832  14.185
18530W        W83691  24.288  17.325  12.518
18531W        W83692  26.523  11.649  14.101
18532W        W83693  10.179  31.044   1.809
18533W        W83694   5.246  14.383   9.940
18534W        W83695  21.638  12.131  10.581
18535W        W83696  33.062   5.705   3.223
18536W        W83697  25.316  37.675   4.571
18537W        W83698  17.171   4.381   1.783
18538W        W83699  44.517  30.045   1.993
18539W        W83700  17.844   2.291   2.672
18540W        W83701  10.740  15.582  10.715
18541W        W83702   7.221   0.491   1.404
18542W        W83703  32.713   7.175  14.809
18543W        W83704  13.845   2.370  14.625
18544W        W83705  37.068  29.506   0.990
18545W        W83706  37.089  23.760   1.673
18546W        W83707  38.422  35.302  14.957
18547W        W83708  15.587  23.454  12.964
18548W        W83709  32.461  37.291  11.025
18549W        W83710  24.446  29.003  13.348
18550W        W83711  17.984   3.230  13.255
18551W        W83712  19.107  23.570  14.739
18552W        W83713  13.148  14.934  13.427
18553W        W83714   9.975  37.916   1.398
18554W        W83715  19.984   8.015  14.010
18555W        W83716   3.718  41.436   4.363
18556W        W83717  10.160  16.515  11.401
18557W        W83718  23.489  42.916   4.892
18558W        W83719  37.429  41.442  13.416
18559W        W83720  39.967   1.687   0.915
18560W        W83721  25.897   8.826   0.550
18561W        W83722   2.373  31.567   3.803
18562W        W83723  21.954   2.390   2.631
18563W        W83724  33.957  19.872   2.362
18564W        W83725  24.803  19.774   4.501
18565W        W83726  33.913  15.265   4.163
18566W        W83727  30.750  27.428   0.071
18567W        W83728  23.548  12.600  14.274
18568W        W83729   6.721  44.195  11.263
18569W        W83730  16.667  37.634   4.096
18570W        W83731  19.514   9.833  12.939
18571W        W83732  23.436  20.519   4.693
18572W        W83733  13.332  15.288   4.580
18573W        W83734   9.860  43.193   3.117
18574W        W83735  10.210  24.225  14.829
18575W        W83736  19.563  19.570   1.403
18576W        W83737  37.460  26.156   1.812
18577W        W83738  43.690  23.614   0.223
18578W        W83739  28.234  14.111  14.020
18579W        W83740  18.132  14.413  10.922
18580W        W83741  38.561   0.838   0.278
18581W        W83742   2.175  23.951   1.868
18582W        W83743   1.445  33.717  14.384
18583W        W83744  34.557  18.684  12.494
18584W        W83745  25.147  21.271   0.269
18585W        W83746  27.035  32.671   4.937
18586W        W83747  31.141  32.183   4.051
18587W        W83748  18.280  39.407   3.158
18588W        W83749  37.089  13.224  11.145
18589W        W83750  38.826  10.524   3.062
18590W        W83751  14.596   9.588  13.990
18591W        W83752  29.220  40.581  11.257
18592W        W83753  12.628  42.374  12.430
18593W        W83754  17.905   3.119   3.191
18594W        W83755  27.963  43.629  13.910
18595W        W83756  22.656  16.022   3.173
18596W        W83757   0.224  40.074   3.110
18597W        W83758  25.139   2.951  11.707
18598W        W83759  36.780  22.573  12.493
18599W        W83760  13.883  34.057   2.714
18600W        W83761  27.267  34.261   0.914
18601W        W83762   7.271   6.411   1.308
18602W        W83763  23.542  22.759   3.600
18603W        W83764  38.926  18.834   3.170
18604W        W83765   2.351  19.277   0.335
18605W        W83766  23.967  26.492  11.147
18606W        W83767  37.584   9.198  12.927
18607W        W83768   2.916  22.926  12.149
18608W        W83769  28.881  35.533   3.726
18609W        W83770  43.755  43.894   3.036
18610W        W83771  25.005   0.392   3.650
18611W        W83772   0.576  30.118   1.964
18612W        W83773  28.719  17.191   4.259
18613W        W83774   5.313  21.453  10.709
18614W        W83775  37.815  34.655  12.066
18615W        W83776  28.089  12.590  12.425
18616W        W83777  29.180   6.876   1.434
18617W        W83778  23.025  22.245  13.771
18618W        W83779   0.404   8.416  11.120
18619W        W83780  31.138  42.309  11.569
18620W        W83781  14.874  41.913  13.271
18621W        W83782   8.163  37.897   1.252
18622W        W83783  43.753  21.990   4.650
18623W        W83784  27.083   3.948  10.733
18624W        W83785  34.018  41.285  11.387
18625W        W83786  10.084  30.893   0.308
18626W        W83787  12.717  38.254   4.656
18627W        W83788  14.074   7.416  12.085
18628W        W83789  37.660  14.136   0.208
18629W        W83790  36.783   3.669   0.359
18630W        W83791  27.666   0.216   3.731
18631W        W83792  25.052  14.701  13.098
18632W        W83793  12.648   4.786  12.802
18633W        W83794  17.117  28.914   0.399
18634W        W83795  12.858  14.742   3.176
18635W        W83796  11.236  10.093   3.657
18636W        W83797  12.524  16.376   1.908
18637W        W83798  20.377  36.862  11.108
18638W        W83799  37.056   8.441  14.959
18639W        W83800   8.729  20.490   2.838
18640W        W83801   1.688  41.435  14.372
18641W        W83802  13.180  26.880  12.935
18642W        W83803  10.075  42.418  13.394
18643W        W83804  31.846   0.006  12.153
18644W        W83805  27.880  37.029  14.859
18645W        W83806   8.327   9.871   0.345
18646W        W83807  32.559  33.049   2.562
18647W        W83808  28.629  31.982   2.318
18648W        W83809  30.031  19.203  14.323
18649W        W83810  39.140  33.513  11.511
18650W        W83811  35.867   0.526   1.863
18651W        W83812  26.047   9.442  10.122
18652W        W83813  37.923  18.796   1.282
18653W        W83814  11.363  28.449   1.411
18654W        W83815  33.018  13.434  13.458
18655W        W83816  10.897  29.134  10.725
18656W        W83817  29.482  31.055  12.466
18657W        W83818  16.853  10.683  11.182
18658W        W83819  34.989  30.431   1.416
18659W        W83820  38.032  12.127   3.106
18660W        W83821  16.625  33.039   0.286
18661W        W83822  22.521  17.658  14.341
18662W        W83823  44.917  33.308  13.582
18663W        W83824   1.845  34.154  12.028
18664W        W83825  40.483  37.960   4.058
18665W        W83826  30.269  23.737  11.470
18666W        W83827  29.734  15.757  11.284
18667W        W83828  38.108  38.865  11.156
18668W        W83829  27.902   0.244   0.916
18669W        W83830  29.543  32.408   2.317
18670W        W83831  19.474   9.151  10.358
18671W        W83832  36.033  19.887   0.408
18672W        W83833  10.701  39.727  13.791
18673W        W83834  13.294  18.484  10.347
18674W        W83835  42.831  33.514   4.032
18675W        W83836  27.858  28.383   1.986
18676W        W83837  40.868  23.222   0.979
18677W        W83838  44.941  27.286  14.701
18678W        W83839  17.704  30.219  11.545
18679W        W83840   9.189  40.061   4.809
18680W        W83841  25.280  18.772   4.629
18681W        W83842   7.828  34.720  14.399
18682W        W83843  32.587   8.372  12.984
18683W        W83844  16.560  15.879  14.716
18684W        W83845  32.994  31.523  12.012
18685W        W83846  39.329   8.628  11.954
18686W        W83847  32.636   0.378  14.339
18687W        W83848  11.751  12.230  14.008
18688W        W83849  25.323  42.835   2.348
18689W        W83850  17.727  32.168  10.206
18690W        W83851  15.577  26.023   0.394
18691W        W83852  35.421   9.028  11.351
18692W        W83853  35.330  11.171  12.906
18693W        W83854  33.414  25.530   0.210
18694W        W83855  25.914   6.347  14.991
18695W        W83856  28.679  27.179  13.400
18696W        W83857  11.678   1.847  12.863
18697W        W83858  41.866  25.614   4.521
18698W        W83859  25.103  13.321   2.660
18699W        W83860  21.464  21.809  13.610
18700W        W83861  24.949  16.688  13.841
18701W        W83862  41.810  35.877  10.182
18702W        W83863  44.704  16.509   3.880
18703W        W83864  24.632  24.086  14.371
18704W        W83865   4.938  11.388   3.197
18705W        W83866   3.215  24.629   4.010
18706W        W83867   3.889   4.672   0.899
18707W        W83868  18.629  24.233   0.039
18708W        W83869  21.260  15.764   4.997
18709W        W83870  32.328   0.296  10.679
18710W        W83871  33.393  40.011  14.531
18711W        W83872   0.915   9.102   0.869
18712W        W83873   1.020   3.232  11.039
18713W        W83874   0.837   5.836  13.459
18714W        W83875   1.388  41.812  12.302
18715W        W83876  22.163  13.263  10.192
18716W        W83877  33.467  29.404   3.279
18717W        W83878  11.741  23.877  14.073
18718W        W83879   2.985   4.942  11.940
18719W        W83880  43.354  26.221   3.328
18720W        W83881   4.835  11.625  14.989
18721W        W83882  14.832  40.618   0.664
18722W        W83883  43.025  39.763  13.841
18723W        W83884  33.237  22.501   5.618
18724W        W83885  27.463  26.498  11.031
18725W        W83886  35.617   2.284   2.711
18726W        W83887  32.976  33.478  11.635
18727W        W83888  43.536   9.646   3.670
18728W        W83889  18.426  42.070  11.237
18729W        W83890  21.290   2.966  12.424
18730W        W83891  29.052  38.338   3.301
18731W        W83892  25.661  31.239   3.866
18732W        W83893  41.261  14.884   0.149
18733W        W83894  20.595  11.872   1.707
18734W        W83895  39.906  26.620   0.307
18735W        W83896   1.969  17.651  13.555
18736W        W83897  43.413   9.867  14.490
18737W        W83898  25.501   6.816   0.249
18738W        W83899  39.436  23.227  10.741
18739W        W83900  43.299   5.672  12.549
18740W        W83901   1.453  21.628   0.882
18741W        W83902  19.536  28.176  10.723
18742W        W83903   6.246  17.158   1.808
18743W        W83904  16.206  29.095  13.060
18744W        W83905  25.983  23.073   3.628
18745W        W83906   6.726  11.601  13.010
18746W        W83907  35.158  24.619  14.830
18747W        W83908  34.866  26.643   2.881
18748W        W83909  29.902  24.581   1.723
18749W        W83910   7.257   9.851   1.133
18750W        W83911  39.526   3.742  14.649
18751W        W83912  33.412  31.857  11.582
18752W        W83913  20.393  19.332  13.505
18753W        W83914  11.846  43.557  11.447
18754W        W83915  19.697  27.900  14.644
18755W        W83916  37.881  13.207   2.191
18756W        W83917  29.815  26.251  10.778
18757W        W83918  24.709  13.670   2.808
18758W        W83919   6.098  31.508  13.559
18759W        W83920  39.484   1.240   1.284
18760W        W83921   8.820   6.223   1.880
18761W        W83922   8.464  10.617  11.950
18762W        W83923  19.839  11.250   2.101
18763W        W83924  24.685  18.470  14.921
18764W        W83925  32.994  19.081  13.115
18765W        W83926  26.162  26.078   2.323
18766W        W83927  32.724  17.699   3.554
18767W        W83928  34.150  19.091   0.990
18768W        W83929   8.235  36.163   2.845
18769W        W83930  16.391   4.912  11.148
18770W        W83931  18.322  14.059  11.795
18771W        W83932  12.853  13.733  11.848
18772W        W83933  26.476  44.420   4.272
18773W        W83934  10.633  11.660  12.109
18774W        W83935   4.733  39.280   1.825
18775W        W83936   0.792  25.651   1.648
18776W        W83937   9.053  14.632  10.510
18777W        W83938  33.139  44.901   3.716
18778W        W83939  41.902  31.125  13.494
18779W        W83940  39.047  11.123   2.293
18780W        W83941  16.183  37.431   2.708
18781W        W83942  21.824   8.221   0.285
18782W        W83943  17.797  21.226  14.977
18783W        W83944  29.924  29.700   4.066
18784W        W83945  22.564  44.767   0.299
18785W        W83946  10.328  13.337   4.306
18786W        W83947  16.249  18.323  10.954
18787W        W83948   9.062  29.497  10.689
18788W        W83949   4.004   8.948  11.137
18789W        W83950  21.538  25.609   4.691
18790W        W83951  29.014  36.872  13.781
18791W        W83952  37.901  37.108  14.086
18792W        W83953  41.750  31.179   2.745
18793W        W83954  18.146   5.539  10.622
18794W        W83955   8.702  28.510  11.607
18795W        W83956  34.142   6.544  12.199
18796W        W83957   7.778  36.796  13.552
18797W        W83958  36.259   4.403  11.138
18798W        W83959   3.793  34.520  11.518
18799W        W83960  20.770   7.212   4.406
18800W        W83961  36.939  43.641  10.576
18801W        W83962  37.230   8.822  13.012
18802W        W83963  26.734  30.987   0.893
18803W        W83964  25.262  44.308   1.626
18804W        W83965  13.462  31.755  10.274
18805W        W83966   3.255  16.013   1.235
18806W        W83967  20.687  15.231   4.464
18807W        W83968   8.679  44.938   0.444
18808W        W83969   3.989   9.729   0.394
18809W        W83970  30.097  18.991   4.224
18810W        W83971  24.602  17.980  14.820
18811W        W83972  36.356  16.624  13.996
18812W        W83973   6.328  43.845  13.630
18813W        W83974   4.400  27.913  12.676
18814W        W83975   3.788  22.281  10.697
18815W        W83976  37.480  33.648   4.512
18816W        W83977  28.181  16.773  14.930
18817W        W83978  25.244  11.877   1.746
18818W        W83979   7.134   6.105   3.650
18819W        W83980   4.679   6.806   2.264
18820W        W83981  26.565  16.068   3.281
18821W        W83982  21.262  20.725   1.364
18822W        W83983  21.480  20.086   0.329
18823W        W83984  12.771  40.304   1.402
18824W        W83985  14.120  12.253   4.499
18825W        W83986  42.430   0.228  11.026
18826W        W83987  35.532  43.988   1.864
18827W        W83988  26.418   5.390  10.640
18828W        W83989   7.000  39.466   0.098
18829W        W83990  11.620  34.851   3.279
18830W        W83991  17.506  28.581  11.479
18831W        W83992   7.886  26.943  12.524
18832W        W83993   2.905   8.568   3.441
18833W        W83994   3.803  42.686   3.706
18834W        W83995  41.036  42.497  12.886
18835W        W83996  13.810  24.764   0.263
18836W        W83997   0.420  19.714   0.430
18837W        W83998   2.283  30.146   2.321
18838W        W83999   7.383  14.094  11.967
18839W        W84000  14.260  42.489  12.059
18840W        W84001   1.180  35.017   3.724
18841W        W84002  19.816  13.077  12.686
18842W        W84003  36.508  33.732  14.296
18843W        W84004  20.385   0.064  13.387
18844W        W84005  44.240  27.314   0.385
18845W        W84006   4.014   0.782  13.544
18846W        W84007  20.683  19.228  12.778
18847W        W84008   3.848  36.845   3.811
18848W        W84009   1.416   8.209  13.421
18849W        W84010  20.148  18.984  14.922
18850W        W84011  31.723  16.808  12.417
18851W        W84012   7.062   9.365   4.158
18852W        W84013  16.761  10.436  13.551
18853W        W84014  34.952  18.840   1.892
18854W        W84015  18.305   9.975  10.516
18855W        W84016  22.998  30.361   3.529
18856W        W84017  11.765  33.575   5.011
18857W        W84018  44.431  28.701  13.944
18858W        W84019  15.041  13.295  12.897
18859W        W84020  34.325   2.750  12.435
18860W        W84021  33.900  36.153  14.857
18861W        W84022  40.714  20.133   4.713
18862W        W84023  44.035  14.805  14.979
18863W        W84024  39.035  23.851   1.231
18864W        W84025  43.799  13.304  11.200
18865W        W84026   4.224  43.757   3.333
18866W        W84027  16.239  16.298   0.964
18867W        W84028  36.268  20.001   4.165
18868W        W84029  26.120  21.031  14.408
18869W        W84030  15.851  35.857  10.913
18870W        W84031  31.983  29.607  13.617
18871W        W84032  17.634  24.678  10.975
18872W        W84033  19.058   7.858  11.573
18873W        W84034  31.647   8.733  13.002
18874W        W84035  15.165  42.326  14.827
18875W        W84036  14.682  37.130   2.393
18876W        W84037  22.190  25.972  12.139
18877W        W84038  20.435  11.233   3.072
18878W        W84039   3.800  38.023   2.677
18879W        W84040  38.443  34.033  10.783
18880W        W84041   0.944  18.550  11.544
18881W        W84042  30.869   7.717   2.834
18882W        W84043  17.347  36.662  11.154
18883W        W84044  42.354  13.000   0.974
18884W        W84045   9.348   2.645   3.426
18885W        W84046  37.488  40.519  14.828
18886W        W84047  13.279  28.122  14.710
18887W        W84048  16.800  36.851  12.295
18888W        W84049  24.015   6.207   2.776
18889W        W84050  32.196   5.383   4.086
18890W        W84051   5.622  15.635   4.685
18891W        W84052   8.742   4.745  10.289
18892W        W84053  36.302   0.702  14.083
18893W        W84054  30.565  25.197   4.948
18894W        W84055  37.569  33.527  11.604
18895W        W84056   9.824  21.819   3.618
18896W        W84057   9.759  19.817  13.307
18897W        W84058  37.478  27.056   3.345
18898W        W84059  28.204  39.399  14.478
18899W        W84060  11.166  39.775  12.603
18900W        W84061  21.623  23.584   3.143
18901W        W84062  16.875   4.077   2.791
18902W        W84063   5.463   1.437   4.222
18903W        W84064  38.554  30.369  13.529
18904W        W84065  24.900   3.854   4.540
18905W        W84066   3.739  19.683  12.443
18906W        W84067   1.139  18.518   3.769
18907W        W84068  30.077   1.338  10.758
18908W        W84069  40.160  32.628   2.459
18909W        W84070   3.723  30.120  12.205
18910W        W84071  17.999   8.898   2.361
18911W        W84072  41.204   3.645  11.023
18912W        W84073   3.482  38.312   3.288
18913W        W84074  39.279  18.671  13.760
18914W        W84075  38.649  44.685   1.206
18915W        W84076   2.838  13.627   2.795
18916W        W84077  14.802  16.159  12.156
18917W        W84078   5.490  35.914   3.138
18918W        W84079  26.991  23.730  11.964
18919W        W84080  18.967  15.171   0.654
18920W        W84081   2.006   1.948  14.662
18921W        W84082  16.672  13.694  14.183
18922W        W84083   1.791  34.498   0.204
18923W        W84084  34.979   1.833   3.570
18924W        W84085  23.692   6.975   0.011
18925W        W84086  13.419   3.601  14.506
18926W        W84087  34.427  35.392  11.416
18927W        W84088  35.704  30.407  13.271
18928W        W84089  29.557  17.268  10.915
18929W        W84090  22.169  34.123  11.233
18930W        W84091  40.321  20.679   1.659
18931W        W84092  39.819  29.176   0.824
18932W        W84093  13.891  16.898  10.460
18933W        W84094   8.719  43.482   3.627
18934W        W84095  23.418   2.303  13.411
18935W        W84096  10.409  24.006  13.987
18936W        W84097  15.817  19.785   1.814
18937W        W84098   1.477  38.765  11.387
18938W        W84099  21.242  12.191   2.117
18939W        W84100  44.360  36.577  12.425
18940W        W84101  21.362  39.003   4.381
18941W        W84102   0.228   9.596  14.261
18942W        W84103  36.918  32.152  13.398
18943W        W84104   5.254  40.926  11.549
18944W        W84105   5.853   0.928  13.092
18945W        W84106  22.466   0.465   4.871
18946W        W84107  31.884   7.739   2.623
18947W        W84108  25.277  29.913   1.697
18948W        W84109  11.758   9.304   0.703
18949W        W84110  36.502  37.989  12.417
18950W        W84111  17.050  30.957  13.556
18951W        W84112   0.774  27.974  10.755
18952W        W84113  19.541  26.117  12.600
18953W        W84114  11.614  14.158   2.395
18954W        W84115  39.730  31.491  11.611
18955W        W84116  30.051  15.415   1.898
18956W        W84117   8.266  25.406   1.767
18957W        W84118  24.763  43.815   4.091
18958W        W84119   1.899  25.546  11.855
18959W        W84120  24.977  10.269  13.099
18960W        W84121  30.376  42.978   3.779
18961W        W84122  12.288  16.632   0.763
18962W        W84123  39.080  41.533  14.504
18963W        W84124  44.784  38.914   5.310
18964W        W84125  31.601  33.648   3.678
18965W        W84126  36.164   8.152  12.044
18966W        W84127   2.263  37.740   4.261
18967W        W84128  20.202  42.250  10.586
18968W        W84129  39.647  18.331  11.696
18969W        W84130   6.396  23.680  12.802
18970W        W84131  23.283  10.767   0.357
18971W        W84132  26.286  24.066  13.782
18972W        W84133  30.085  38.742   5.135
18973W        W84134  34.098  17.000  11.286
18974W        W84135  10.554  33.669   2.574
18975W        W84136  36.653  42.881  11.982
18976W        W84137   1.285   4.623   4.351
18977W        W84138  24.224  32.979   3.667
18978W        W84139   1.108  10.454  13.393
18979W        W84140  41.361  37.880  14.117
18980W        W84141  26.646  40.672  13.382
18981W        W84142  44.661  33.125  11.931
18982W        W84143   0.827  12.764   3.070
18983W        W84144  39.078  32.381   0.494
18984W        W84145  19.447   9.269   1.464
18985W        W84146  29.197  25.602   3.309
18986W        W84147   4.836  11.092  14.912
18987W        W84148  43.561  28.308   3.363
18988W        W84149  43.358  26.708   3.512
18989W        W84150  30.225  41.143  11.870
18990W        W84151  14.353  34.913  11.059
18991W        W84152   4.723  24.390   9.687
18992W        W84153  44.356  35.986   2.175
18993W        W84154  39.615  28.382  12.204
18994W        W84155  25.725   8.315   0.475
18995W        W84156   8.458  39.996   3.589
18996W        W84157   1.283  36.526  14.906
18997W        W84158  43.273  13.111   3.160
18998W        W84159  32.516  18.183   4.358
18999W        W84160  25.508  29.811  14.394
19000W        W84161  18.278  11.088   0.931
19001W        W84162  43.519  15.699  13.887
19002W        W84163   7.336  25.525   4.184
19003W        W84164  40.459  31.694   1.454
19004W        W84165  26.235  23.172   0.787
19005W        W84166  42.088   5.924  13.049
19006W        W84167   4.265   0.874  12.392
19007W        W84168   0.206  29.264   1.842
19008W        W84169   9.864  20.771   0.866
19009W        W84170  27.748   6.868  14.996
19010W        W84171  23.582  21.173   0.251
19011W        W84172   3.197  18.600   1.825
19012W        W84173   6.834  20.142  14.357
19013W        W84174  37.730  29.515   3.013
19014W        W84175   9.212  35.487  14.701
19015W        W84176  42.825  25.741  11.174
19016W        W84177   4.071  40.038  13.424
19017W        W84178  30.822   7.977  12.042
19018W        W84179   8.216  20.177  11.233
19019W        W84180  33.636   1.758  11.120
19020W        W84181  41.885  15.949  13.078
19021W        W84182   3.844  44.102  11.644
19022W        W84183   6.831  43.678  12.028
19023W        W84184  13.401  25.602   4.520
19024W        W84185  21.301   5.909  11.087
19025W        W84186  44.703  39.444  13.406
19026W        W84187  16.183  36.183  12.762
19027W        W84188  39.198  23.725   1.701
19028W        W84189  16.849   0.061  10.773
19029W        W84190   6.343  28.716   3.329
19030W        W84191  14.900  31.064  10.860
19031W        W84192   0.179   6.922   0.934
19032W        W84193  32.635  28.033   0.927
19033W        W84194  32.567  26.096   0.463
19034W        W84195   9.800  30.945   1.388
19035W        W84196  32.879  29.341  10.205
19036W        W84197  14.119  22.746   1.109
19037W        W84198  21.546  35.902  14.239
19038W        W84199  10.317  26.166  14.802
19039W        W84200  31.875  16.260  12.548
19040W        W84201  37.111  35.011   0.780
19041W        W84202   3.478  14.346   0.876
19042W        W84203   9.203  44.666   4.523
19043W        W84204  28.467  39.178  13.402
19044W        W84205  42.341  25.420   3.621
19045W        W84206   5.759  37.400   2.176
19046W        W84207  43.892  14.719   5.436
19047W        W84208  18.248  18.514   3.545
19048W        W84209  30.846   6.321   2.586
19049W        W84210  20.128  43.050   5.181
19050W        W84211  41.777  22.654  12.425
19051W        W84212   0.288  13.258  12.471
19052W        W84213  28.580  28.807  14.833
19053W        W84214   3.459  37.004   3.505
19054W        W84215  28.568  14.095  11.098
19055W        W84216  43.413  43.517   3.638
19056W        W84217  32.098  24.916   4.877
19057W        W84218  21.158  12.142  11.133
19058W        W84219   1.995  33.407  10.718
19059W        W84220  42.402  16.143   2.497
19060W        W84221  14.430   3.455   0.286
19061W        W84222   5.645  42.327   4.408
19062W        W84223  39.870  36.635   2.887
19063W        W84224  19.205  11.701   2.985
19064W        W84225  11.894  33.163  14.201
19065W        W84226   9.134   6.147  13.605
19066W        W84227   9.219  10.614  12.919
19067W        W84228  41.457  36.014  12.416
19068W        W84229  10.728  43.573   2.334
19069W        W84230  33.537  22.690  11.544
19070W        W84231  34.992  12.813  10.736
19071W        W84232   4.054  33.106  12.009
19072W        W84233  17.206  10.236   2.722
19073W        W84234  37.991  16.546   0.489
19074W        W84235  24.478  34.474  11.705
19075W        W84236  31.673   3.875  10.505
19076W        W84237  29.848   1.161   4.934
19077W        W84238  12.371  18.791   1.846
19078W        W84239  23.456  37.988   5.099
19079W        W84240  42.429  39.095  13.429
19080W        W84241  27.445  11.606  12.098
19081W        W84242   4.672  32.444   4.530
19082W        W84243  26.638  37.333   5.015
19083W        W84244  37.634  36.925   0.446
19084W        W84245  14.886  22.215  11.689
19085W        W84246  19.487  30.693  13.827
19086W        W84247  35.239  21.181  10.387
19087W        W84248   8.177  11.255  12.392
19088W        W84249   7.630   6.795  10.510
19089W        W84250  44.166   6.214   4.070
19090W        W84251  32.890  16.662  13.792
19091W        W84252  23.876   8.152  12.342
19092W        W84253  34.335  13.378   3.621
19093W        W84254  11.527   0.507   4.709
19094W        W84255  44.845  24.632   2.990
19095W        W84256  19.607  35.694  10.475
19096W        W84257  44.368   3.895   0.707
19097W        W84258  18.665  36.221   2.598
19098W        W84259   6.379  37.485  13.539
19099W        W84260  40.282  12.765   4.146
19100W        W84261   6.529  32.343  11.632
19101W        W84262  41.444  15.284   3.690
19102W        W84263  38.343  11.608   2.857
19103W        W84264   3.434  19.984  14.508
19104W        W84265  33.535  28.127  13.058
19105W        W84266  19.975  42.364  12.811
19106W        W84267   7.180  27.522  12.788
19107W        W84268  31.438   5.151  14.907
19108W        W84269   4.604  21.577  12.064
19109W        W84270   4.438  29.465   3.785
19110W        W84271  23.665  24.721  12.082
19111W        W84272  44.344  20.212   0.101
19112W        W84273  13.540   4.267   2.674
19113W        W84274   5.439   1.075   2.954
19114W        W84275  20.191  39.081   1.533
19115W        W84276  28.504  14.291  14.916
19116W        W84277   1.856  30.792   3.623
19117W        W84278   2.822  16.313   1.414
19118W        W84279  11.328   7.830  13.706
19119W        W84280  41.314  35.997   3.358
19120W        W84281  21.009  44.990  14.533
19121W        W84282  32.935  40.438  13.271
19122W        W84283  29.871  27.212  11.973
19123W        W84284  36.102  17.579   1.443
19124W        W84285  24.090  42.138   4.859
19125W        W84286  22.321  14.669  11.083
19126W        W84287   3.128  38.060   0.580
19127W        W84288  33.052  17.471  11.972
19128W        W84289  27.164  18.304  13.413
19129W        W84290  10.336  21.924   1.410
19130W        W84291  24.229   1.739  11.919
19131W        W84292  14.276  14.097  14.843
19132W        W84293  18.616  21.735  10.626
19133W        W84294  25.018  26.648  12.027
19134W        W84295  37.931   4.988  10.687
19135W        W84296  36.570   5.921  10.663
19136W        W84297  32.413  29.941   3.305
19137W        W84298  25.467  33.266   4.453
19138W        W84299  43.373  10.813  14.379
19139W        W84300  16.293  32.458   3.986
19140W        W84301  25.098   9.305   0.252
19141W        W84302  42.365  29.720   2.794
19142W        W84303   1.983  18.647  10.722
19143W        W84304  21.987  28.246   9.788
19144W        W84305  40.789  28.527   3.579
19145W        W84306  15.317   4.865   0.086
19146W        W84307  24.757  27.721   0.731
19147W        W84308   5.377  30.596  10.625
19148W        W84309  43.280  37.669  13.368
19149W        W84310  13.263  34.409   4.998
19150W        W84311   0.110  44.871  13.064
19151W        W84312  32.857  25.122  13.025
19152W        W84313  22.157  25.505   3.366
19153W        W84314  38.539  17.195  11.208
19154W        W84315  25.533  43.370  11.150
19155W        W84316  23.361  34.724   3.778
19156W        W84317  22.054  30.363   1.422
19157W        W84318  19.415  11.176  13.181
19158W        W84319  15.688  35.442   3.153
19159W        W84320  17.157  15.900  12.043
19160W        W84321  21.107  36.905  14.998
19161W        W84322  38.724   3.431   4.488
19162W        W84323   9.878  27.563   0.896
19163W        W84324  23.076  17.806  12.572
19164W        W84325  30.521  40.442   2.298
19165W        W84326  24.701  18.010  11.111
19166W        W84327  44.456  40.117  12.639
19167W        W84328  40.509  13.723   2.296
19168W        W84329  13.656  10.754   4.498
19169W        W84330  44.550   2.480   0.909
19170W        W84331  25.342   3.596  11.064
19171W        W84332   0.340  41.797   3.691
19172W        W84333   3.248  30.551   2.201
19173W        W84334  33.209  16.855   1.279
19174W        W84335  37.001   9.048   4.031
19175W        W84336   9.137  19.662  13.810
19176W        W84337  14.956   3.753  14.302
19177W        W84338   5.202  18.486  12.458
19178W        W84339  39.850  15.391   4.649
19179W        W84340  44.779  18.213  10.743
19180W        W84341   3.661  28.359  11.145
19181W        W84342  28.736  40.244   2.403
19182W        W84343   2.318   0.654   4.224
19183W        W84344  19.047  33.032   4.730
19184W        W84345  16.623  15.564   3.570
19185W        W84346  29.133   5.269   0.321
19186W        W84347  36.405  18.130  12.596
19187W        W84348   4.320   8.259  10.651
19188W        W84349  28.040  28.396   3.205
19189W        W84350  42.577  31.549   2.807
19190W        W84351  18.094  37.155  10.627
19191W        W84352  35.843   2.501  12.954
19192W        W84353  11.822  33.677  14.403
19193W        W84354  36.963  30.912   1.278
19194W        W84355  38.578  13.203   0.214
19195W        W84356   3.456  39.841   0.862
19196W        W84357   2.452   2.709  13.027
19197W        W84358  26.401  30.635  14.956
19198W        W84359  43.144  19.083   0.969
19199W        W84360  40.962  14.703   1.468
19200W        W84361  21.523   9.979  13.815
19201W        W84362  31.402  37.504   4.110
19202W        W84363  12.385  19.117   4.186
19203W        W84364  26.243   3.848   1.794
19204W        W84365  29.676  17.335  12.367
19205W        W84366   5.938  31.245  12.103
19206W        W84367  16.297  25.768  14.950
19207W        W84368  30.798  28.889   3.785
19208W        W84369  11.773  37.856  12.303
19209W        W84370  10.862  10.143   3.311
19210W        W84371  42.759  23.412  14.233
19211W        W84372   3.724  36.038   2.226
19212W        W84373  23.098  30.288   2.210
19213W        W84374  13.547   8.240  14.683
19214W        W84375  11.245  41.471  14.077
19215W        W84376  42.799  26.443   1.775
19216W        W84377   7.339  25.725  10.264
19217W        W84378  28.697  27.839   1.420
19218W        W84379  12.156   1.565  12.013
19219W        W84380  22.088  19.839   2.716
19220W        W84381  11.685  36.554  12.114
19221W        W84382  14.823   7.648   2.213
19222W        W84383  23.047  20.554  12.713
19223W        W84384  14.318  25.153  12.529
19224W        W84385  24.725   7.123  12.918
19225W        W84386  32.588   1.976   4.977
19226W        W84387   5.263  24.663   5.050
19227W        W84388  11.334   0.432  12.758
19228W        W84389   3.964  25.913   3.833
19229W        W84390   7.282  28.166  12.561
19230W        W84391   7.065   3.908  13.031
19231W        W84392   9.751  11.634   3.126
19232W        W84393  31.659  41.996   1.738
19233W        W84394   9.897  39.113   1.982
19234W        W84395  22.064  20.754  12.596
19235W        W84396  14.250   2.438  12.376
19236W        W84397   8.479  25.921   3.457
19237W        W84398  13.802  37.771   0.121
19238W        W84399  11.270  35.338  11.732
19239W        W84400  12.312  12.709  14.782
19240W        W84401  11.292   7.910   2.858
19241W        W84402  39.065   0.984   1.576
19242W        W84403  27.631   9.686  13.926
19243W        W84404  12.504  15.036  12.064
19244W        W84405   4.498   5.669   1.415
19245W        W84406  34.576  22.984   2.354
19246W        W84407  38.661  38.980   4.669
19247W        W84408  36.301  17.655   1.947
19248W        W84409  28.683  13.913  13.863
19249W        W84410  23.819   3.686   4.614
19250W        W84411  36.117  26.711   0.855
19251W        W84412   8.940  10.213   2.859
19252W        W84413  29.190  27.601   0.877
19253W        W84414  32.165  44.703  13.427
19254W        W84415  13.586   0.974   3.877
19255W        W84416  28.948  30.172   1.797
19256W        W84417  24.360  44.891   0.701
19257W        W84418   1.991   6.338  12.316
19258W        W84419  33.168  30.294   1.252
19259W        W84420  39.412   0.413  11.605
19260W        W84421  14.251  23.207  12.082
19261W        W84422  40.189  24.287  13.814
19262W        W84423  23.171  26.947  14.788
19263W        W84424  29.315  33.474  10.890
19264W        W84425   4.460  14.652   1.961
19265W        W84426  24.631   6.751   4.951
19266W        W84427   5.309  15.821   3.592
19267W        W84428  44.274  36.723   1.280
19268W        W84429  11.942   3.821   3.162
19269W        W84430   0.836   9.926   3.204
19270W        W84431  30.143  39.292  10.545
19271W        W84432  34.095   5.770  13.394
19272W        W84433  21.654  36.622  12.535
19273W        W84434   4.185  32.107   3.665
19274W        W84435  11.240   5.618  14.139
19275W        W84436   0.827  32.574   2.724
19276W        W84437  31.876  21.899   0.288
19277W        W84438  43.910  38.468  13.818
19278W        W84439  25.016  42.387  12.970
19279W        W84440  41.108  36.398  12.508
19280W        W84441  39.106  26.028   4.522
19281W        W84442   5.215  34.865   3.808
19282W        W84443  29.363  10.914   1.296
19283W        W84444  43.131  21.152  13.325
19284W        W84445   0.582  21.602  12.623
19285W        W84446   8.034  31.916   0.796
19286W        W84447  17.750   4.288  12.588
19287W        W84448  35.148  44.108  11.487
19288W        W84449  17.228  24.725  12.190
19289W        W84450  21.301  23.396   1.885
19290W        W84451   2.787  17.905   2.254
19291W        W84452  21.773  42.803   2.359
19292W        W84453  32.520  20.373  12.869
19293W        W84454  32.658  33.902  11.964
19294W        W84455  42.617  10.322  14.319
19295W        W84456  41.501  12.717   1.070
19296W        W84457   7.687  40.728   1.365
19297W        W84458  11.575  27.656   2.047
19298W        W84459  30.017   5.168  12.428
19299W        W84460   2.717   0.724   1.376
19300W        W84461  30.474  14.189   2.314
19301W        W84462  13.067  29.926  12.110
19302W        W84463  38.158  10.187  13.995
19303W        W84464  24.557  24.250  14.857
19304W        W84465  24.520  15.943  13.835
19305W        W84466  34.175  20.362   2.327
19306W        W84467  36.741  34.182   0.438
19307W        W84468  43.774  25.042  14.369
19308W        W84469   2.369   9.030   0.860
19309W        W84470  30.522  11.821   5.093
19310W        W84471  15.747  29.985   4.460
19311W        W84472   7.799   2.983   1.704
19312W        W84473  37.745  41.070   9.599
19313W        W84474  15.165  23.484  14.537
19314W        W84475  28.018  43.924   4.661
19315W        W84476  31.861  22.687   0.910
19316W        W84477  20.229  11.205  11.935
19317W        W84478  31.516  35.958  14.539
19318W        W84479  11.257   2.826  13.779
19319W        W84480   4.311  10.534  14.321
19320W        W84481   6.489  34.879  11.148
19321W        W84482   1.397  35.648  11.614
19322W        W84483  24.560  18.535  14.029
19323W        W84484  20.049  15.634  13.413
19324W        W84485  40.397   2.084  12.049
19325W        W84486  10.877  18.133   2.868
19326W        W84487  30.762  29.929   2.367
19327W        W84488   4.431  11.164  11.554
19328W        W84489  15.330  22.887   4.148
19329W        W84490  43.068  26.677   1.416
19330W        W84491  15.637  44.498   2.727
19331W        W84492  33.604  37.387  11.503
19332W        W84493  18.607  30.870   3.612
19333W        W84494  23.573  44.149   0.837
19334W        W84495  27.879  40.510   1.725
19335W        W84496  43.341   9.774   4.604
19336W        W84497  41.386  32.097   1.563
19337W        W84498  36.545  16.266  13.330
19338W        W84499   1.918   0.327  14.949
19339W        W84500  37.470  25.185  12.156
19340W        W84501  21.100  10.896   3.837
19341W        W84502  42.959  38.445   3.210
19342W        W84503  13.070  26.899  12.052
19343W        W84504  18.697   4.342   2.413
19344W        W84505  20.693  17.100  10.632
19345W        W84506  17.137  15.636   1.171
19346W        W84507  23.233  39.829   0.088
19347W        W84508  35.367  39.068   0.022
19348W        W84509  26.270  13.587  13.320
19349W        W84510   2.490   0.934  11.200
19350W        W84511   8.641  33.364  14.840
19351W        W84512  22.110  10.709   3.646
19352W        W84513  20.547  37.426  12.307
19353W        W84514  40.533   2.658   1.687
19354W        W84515  37.957  17.324   2.455
19355W        W84516  24.062  29.145  12.851
19356W        W84517  15.214   5.287   0.345
19357W        W84518   5.960  24.523   2.618
19358W        W84519   8.077  28.740   0.726
19359W        W84520  14.615   7.913   1.781
19360W        W84521  42.415  44.254  13.135
19361W        W84522  32.873  18.717  14.757
19362W        W84523  24.184   5.539  10.665
19363W        W84524  40.474  34.813  12.095
19364W        W84525  30.090  21.610  14.869
19365W        W84526  34.367  40.291   2.110
19366W        W84527   9.796   4.027   0.344
19367W        W84528  44.441  31.540  11.688
19368W        W84529  26.087  12.136  14.966
19369W        W84530  26.434   3.879   3.128
19370W        W84531  27.089  18.326  12.483
19371W        W84532  23.557  35.589  11.493
19372W        W84533  28.330  16.045  14.155
19373W        W84534  33.523  42.341  10.330
19374W        W84535  23.157   2.309   1.795
19375W        W84536   6.075  14.215   4.658
19376W        W84537  21.058  10.863   2.308
19377W        W84538  19.281  28.747   3.247
19378W        W84539   5.887  35.899   4.591
19379W        W84540  10.165  35.526  14.797
19380W        W84541  43.954  28.077  10.364
19381W        W84542  26.611  28.421  14.946
19382W        W84543  12.886   5.928   0.806
19383W        W84544   9.824  13.403   0.840
19384W        W84545  12.640   4.387  12.490
19385W        W84546  21.718  26.923  13.530
19386W        W84547  28.253  32.534  13.039
19387W        W84548  12.097  24.134   4.793
19388W        W84549  38.985  39.794   1.419
19389W        W84550  44.628  41.046   5.098
19390W        W84551  43.536   5.900  12.945
19391W        W84552  24.527  18.673   1.466
19392W        W84553  27.579  35.572   0.205
19393W        W84554  43.115  36.853   1.358
19394W        W84555   7.796  31.541   3.464
19395W        W84556  18.632  38.840   4.834
19396W        W84557  30.570  26.681  14.218
19397W        W84558  39.278  23.659   0.440
19398W        W84559   6.280  17.639   3.341
19399W        W84560  11.638  29.402   4.500
19400W        W84561  10.742  44.512  10.613
19401W        W84562   5.697  24.274   9.828
19402W        W84563   4.232  31.195   3.647
19403W        W84564  14.344   8.940   2.185
19404W        W84565  20.435   4.499  11.234
19405W        W84566  28.974   2.767  11.142
19406W        W84567  15.361  38.813   4.596
19407W        W84568  38.747  26.815   3.665
19408W        W84569  16.319  35.815   4.177
19409W        W84570  35.139   5.349   2.773
19410W        W84571  28.979   4.160   2.898
19411W        W84572  15.646   7.466  13.906
19412W        W84573  13.690  23.383   0.537
19413W        W84574  13.292  41.976   2.950
19414W        W84575  35.409  33.300   1.197
19415W        W84576  33.495  21.469   4.351
19416W        W84577   7.750  44.789   2.295
19417W        W84578   1.389   8.899  11.898
19418W        W84579  27.666  14.715   2.726
19419W        W84580  20.050  35.434   3.139
19420W        W84581  36.981  10.392   0.002
19421W        W84582  21.633  42.089   3.468
19422W        W84583  23.674  14.251   4.498
19423W        W84584   8.688  42.959  11.354
19424W        W84585  44.671  14.711   1.686
19425W        W84586  38.835  27.393   3.725
19426W        W84587  20.534  27.019   1.798
19427W        W84588  10.801   0.028   3.184
19428W        W84589   7.999  40.834  10.967
19429W        W84590  37.026   4.485   0.572
19430W        W84591  16.036  41.359  14.866
19431W        W84592  39.049   2.862   3.793
19432W        W84593   7.451  17.592  11.944
19433W        W84594   7.308  36.871   1.725
19434W        W84595   3.456  10.765   3.589
19435W        W84596  41.158  29.501  13.805
19436W        W84597  38.942  31.490  12.871
19437W        W84598  17.143   1.395   1.165
19438W        W84599  31.126  21.295  14.326
19439W        W84600  35.083  38.731   2.192
19440W        W84601  43.891  42.395  11.561
19441W        W84602   6.729  32.222   3.697
19442W        W84603  29.079  17.192  13.498
19443W        W84604   0.637  22.219   3.090
19444W        W84605  12.758  13.381  12.696
19445W        W84606  43.849  44.538  10.971
19446W        W84607  29.072  29.605   3.576
19447W        W84608  44.286  31.923   4.174
19448W        W84609   0.764  38.295  12.525
19449W        W84610  13.182  24.589  13.396
19450W        W84611  24.902   7.449   3.845
19451W        W84612   7.644  39.149  13.107
19452W        W84613  31.504   6.874  12.101
19453W        W84614  36.090  33.892   3.671
19454W        W84615  31.197  13.786   1.805
19455W        W84616  31.298  29.883   3.986
19456W        W84617  25.925   6.359  10.980
19457W        W84618  40.501  22.875  10.340
19458W        W84619  27.427  25.803   3.515
19459W        W84620   3.876  44.180  13.405
19460W        W84621   3.690  12.201   2.379
19461W        W84622  24.149  19.515  11.905
19462W        W84623   3.738   5.486   1.731
19463W        W84624   2.521  28.920  12.618
19464W        W84625  39.049  20.007  13.023
19465W        W84626   6.124  11.407  12.030
19466W        W84627  17.446  25.084  13.485
19467W        W84628  31.598   0.736  14.020
19468W        W84629  43.812  17.743   2.316
19469W        W84630  27.098  11.859  12.895
19470W        W84631  21.318  33.769   0.945
19471W        W84632  32.571  33.181  13.636
19472W        W84633   9.099  41.615  11.258
19473W        W84634   3.829  10.492  13.532
19474W        W84635  14.877   8.788  13.251
19475W        W84636  35.217  31.943   2.112
19476W        W84637   4.773   2.308   0.809
19477W        W84638  43.847  30.150  13.010
19478W        W84639  26.289   0.364   4.193
19479W        W84640   0.844  27.480   4.388
19480W        W84641  18.185  31.219   3.580
19481W        W84642  13.365  12.674   3.665
19482W        W84643  43.751  38.523  12.913
19483W        W84644  30.180  32.207  14.090
19484W        W84645  15.640  37.568   1.141
19485W        W84646  11.711  25.037  12.863
19486W        W84647  13.679  39.996   1.707
19487W        W84648   9.305  26.972  13.358
19488W        W84649   3.297   5.630  14.037
19489W        W84650  20.538  21.414   1.940
19490W        W84651  16.329   5.796  11.369
19491W        W84652  24.250  11.181  14.993
19492W        W84653  28.613  38.569   3.478
19493W        W84654   6.685  14.163  13.945
19494W        W84655  44.459   9.745   1.816
19495W        W84656  15.795  13.231  14.889
19496W        W84657  20.978  21.806   3.081
19497W        W84658   1.438  11.342   1.124
19498W        W84659   5.883  36.098  12.404
19499W        W84660  15.645  16.242   1.827
19500W        W84661  40.957  22.394  10.838
19501W        W84662  18.065   9.767   1.460
19502W        W84663  33.169  20.424   4.991
19503W        W84664   9.243  41.931   2.851
19504W        W84665  32.393  37.886   3.771
19505W        W84666  34.104  23.073   0.873
19506W        W84667   8.697  39.580  14.509
19507W        W84668   7.393  15.416   4.212
19508W        W84669  15.290  29.120   4.550
19509W        W84670  39.256  23.458   3.082
19510W        W84671   2.928  31.663   1.345
19511W        W84672  13.160   0.356  14.240
19512W        W84673  30.028   6.333  12.793
19513W        W84674  31.652  29.440   3.712
19514W        W84675  10.761   6.266   0.127
19515W        W84676  23.582   1.874   3.419
19516W        W84677   7.405  18.108  11.129
19517W        W84678   4.704  40.000   3.770
19518W        W84679  34.336   0.694  11.650
19519W        W84680  21.771  39.889   1.897
19520W        W84681   0.387  34.978   1.716
19521W        W84682   7.053  23.597  14.900
19522W        W84683   8.411  34.498   2.850
19523W        W84684  10.215  24.172   4.493
19524W        W84685  18.694   2.946   2.360
19525W        W84686   9.877  33.628  14.920
19526W        W84687  18.029   8.295   2.794
19527W        W84688   5.413  20.580   2.761
19528W        W84689  38.441  27.152   1.144
19529W        W84690  40.996   6.047   0.207
19530W        W84691  21.083  30.060  10.479
19531W        W84692  29.041   5.335  14.808
19532W        W84693   4.715  23.917   5.087
19533W        W84694  28.688  27.546   0.745
19534W        W84695   5.494  29.950   2.320
19535W        W84696  22.464  37.386   4.771
19536W        W84697  16.753  37.869  12.395
19537W        W84698  40.756  40.829  12.918
19538W        W84699  13.554  11.867   2.825
19539W        W84700  36.602   0.381   3.565
19540W        W84701   9.172  37.696   1.998
19541W        W84702  33.928  30.756   0.341
19542W        W84703  39.707  35.208  12.538
19543W        W84704  15.597   5.659   4.216
19544W        W84705  16.832  20.369  11.176
19545W        W84706  35.454  29.483  10.580
19546W        W84707  21.793  41.828   0.785
19547W        W84708  26.859  27.895   4.971
19548W        W84709  13.483  23.746   1.815
19549W        W84710   8.837  10.965  14.350
19550W        W84711  32.443  41.546   1.262
19551W        W84712  37.815  14.331   3.751
19552W        W84713  31.616  34.960  11.080
19553W        W84714   9.965  20.994  14.343
19554W        W84715  27.095  17.803  13.558
19555W        W84716  16.199  10.827   0.715
19556W        W84717   8.791   5.638   4.565
19557W        W84718  25.696   2.231  14.046
19558W        W84719  15.855  15.609   2.393
19559W        W84720  12.308   9.752  10.783
19560W        W84721  33.028   4.430   2.436
19561W        W84722   4.833   2.965  14.071
19562W        W84723  35.483  17.187  13.555
19563W        W84724  22.175   4.078  10.564
19564W        W84725   3.322  42.478   2.672
19565W        W84726  24.028   3.170   3.606
19566W        W84727   1.003  32.033   3.705
19567W        W84728  44.347  30.174  12.294
19568W        W84729  18.871   1.668  11.134
19569W        W84730  35.511  14.238   1.875
19570W        W84731   3.724  12.752  13.492
19571W        W84732   2.708  10.706  13.455
19572W        W84733  23.865  13.018   2.347
19573W        W84734  14.692   7.895   0.937
19574W        W84735   5.390  33.777  10.575
19575W        W84736  26.725  33.079   2.738
19576W        W84737   5.152  18.130   4.174
19577W        W84738  17.221  17.674   2.222
19578W        W84739  31.297  13.645  14.364
19579W        W84740  41.963  40.923   1.549
19580W        W84741  27.110  38.327  14.377
19581W        W84742  24.417  36.348   0.164
19582W        W84743  31.977  28.400   2.800
19583W        W84744  34.648  21.131  11.630
19584W        W84745  33.295  28.344   4.328
19585W        W84746  17.533  30.566   1.317
19586W        W84747  26.901  12.745  12.431
19587W        W84748  29.985  44.734  10.576
19588W        W84749  14.701  19.769  13.925
19589W        W84750  43.341  25.232  11.633
19590W        W84751  18.050  12.175   3.457
19591W        W84752   7.745   5.677   2.111
19592W        W84753   5.625   7.337  10.610
19593W        W84754   1.291  30.653  14.770
19594W        W84755  33.793  30.448  11.820
19595W        W84756  36.543  24.873  10.112
19596W        W84757  32.021  20.545   0.250
19597W        W84758  16.613   4.023   0.878
19598W        W84759  40.829  27.483  10.748
19599W        W84760   4.273   9.354  14.207
19600W        W84761   6.081  12.122  14.167
19601W        W84762   1.575  16.070   0.207
19602W        W84763  27.185   0.993   1.931
19603W        W84764  28.088   1.415  12.501
19604W        W84765  16.599  26.534  11.410
19605W        W84766  14.244   0.011   3.277
19606W        W84767  39.997  12.253   4.474
19607W        W84768   2.922  26.462   2.558
19608W        W84769  18.858  32.902  11.477
19609W        W84770  32.130  40.904  12.180
19610W        W84771  43.203  43.463  14.122
19611W        W84772  26.657   5.963   0.044
19612W        W84773  17.127   4.305  14.275
19613W        W84774  33.128  22.158   3.770
19614W        W84775  25.616  40.847  14.226
19615W        W84776   6.890  35.192  12.163
19616W        W84777  17.087   0.491  13.435
19617W        W84778  38.131   6.421  12.021
19618W        W84779   2.197   2.387   0.355
19619W        W84780  11.064  38.721   0.292
19620W        W84781  17.353  32.859   4.547
19621W        W84782  40.992   8.597   5.365
19622W        W84783   5.710   4.993   0.800
19623W        W84784  12.718  40.221  14.785
19624W        W84785  20.041  27.736   0.023
19625W        W84786   7.491   9.631  12.528
19626W        W84787   4.977   6.683  14.442
19627W        W84788  23.002  17.077  14.763
19628W        W84789  32.216   1.841  10.653
19629W        W84790  25.704   4.698   0.320
19630W        W84791  13.752  10.161   2.832
19631W        W84792   5.005  13.691   2.850
19632W        W84793  11.920   0.002  12.580
19633W        W84794  31.548  42.505   1.843
19634W        W84795  38.884  26.759   2.833
19635W        W84796   2.422  32.029   2.534
19636W        W84797  12.912  41.519  12.220
19637W        W84798   5.098   5.004  12.462
19638W        W84799  12.701  13.426  13.206
19639W        W84800  32.036  11.617   1.207
19640W        W84801  39.275  21.206   0.212
19641W        W84802   8.756  11.693   3.194
19642W        W84803  36.173  42.016   0.312
19643W        W84804  33.990   3.255  10.264
19644W        W84805  12.625  10.226   0.946
19645W        W84806   6.897   5.471   1.873
19646W        W84807  27.917  18.531   0.286
19647W        W84808  23.106  26.071  11.171
19648W        W84809  40.056  43.373  14.941
19649W        W84810   3.545  22.097   3.112
19650W        W84811  17.563  23.664   3.153
19651W        W84812  13.666  19.159  13.363
19652W        W84813  42.007  32.053   2.895
19653W        W84814  10.533  30.060   2.180
19654W        W84815  42.782  14.665  11.022
19655W        W84816   2.246   9.732   5.010
19656W        W84817   5.462  34.884  14.856
19657W        W84818   5.871  42.483   2.916
19658W        W84819   8.625  29.590   0.346
19659W        W84820  19.991  13.318  13.967
19660W        W84821  10.814  40.232  12.480
19661W        W84822  25.036  15.258   1.570
19662W        W84823  35.581   2.413   4.525
19663W        W84824   7.481   7.727  14.775
19664W        W84825   4.581   8.189   2.519
19665W        W84826  40.297  21.972   1.314
19666W        W84827  20.814  19.695  13.915
19667W        W84828  18.259  22.310  11.512
19668W        W84829  17.720   9.449  11.957
19669W        W84830  11.811   8.846  12.915
19670W        W84831  40.500  28.586   1.348
19671W        W84832  34.862  25.201   2.460
19672W        W84833  36.595  38.332   2.400
19673W        W84834  17.178   8.336  11.542
19674W        W84835  41.952   8.196  11.543
19675W        W84836  38.255  33.740   4.832
19676W        W84837  25.434  24.542   1.607
19677W        W84838  31.423  28.605   2.166
19678W        W84839   7.328  12.034  12.045
19679W        W84840   1.611  36.985   4.931
19680W        W84841   2.252  19.734   3.911
19681W        W84842  15.205  34.394   3.690
19682W        W84843  18.550  12.548  14.352
19683W        W84844  26.104  44.541  11.256
19684W        W84845  11.604   1.557   0.905
19685W        W84846   9.402  13.177   1.395
19686W        W84847  27.594  20.483  14.281
19687W        W84848  25.189  17.789  13.481
19688W        W84849  16.631  39.281   5.174
19689W        W84850   4.439  12.064  10.399
19690W        W84851  36.350   1.401   0.933
19691W        W84852  34.766  42.873  12.482
19692W        W84853   9.255  23.124   1.042
19693W        W84854  30.382  39.302  14.464
19694W        W84855  31.436  10.314  11.707
19695W        W84856  16.470  33.913   4.895
19696W        W84857  25.442   0.958  10.731
19697W        W84858  31.603  41.396  12.480
19698W        W84859  39.853   3.411  11.408
19699W        W84860  30.830  26.943   3.701
19700W        W84861  12.407  29.630   2.246
19701W        W84862  28.064  26.942  14.918
19702W        W84863  36.890  28.203  14.732
19703W        W84864  44.358  42.995   0.023
19704W        W84865  19.308  15.565   5.040
19705W        W84866   4.146  26.266   1.775
19706W        W84867  32.034   5.475  11.099
19707W        W84868  20.737   2.236   2.237
19708W        W84869  34.135  40.398   4.079
19709W        W84870  25.239   4.403  13.538
19710W        W84871   4.107  23.168   9.826
19711W        W84872  36.901  26.453  13.983
19712W        W84873  22.028   8.182   1.751
19713W        W84874  22.777  11.348  11.760
19714W        W84875  25.180  41.049   4.971
19715W        W84876  22.101  16.397   4.990
19716W        W84877  43.897  35.768   1.399
19717W        W84878  30.936  40.067  11.132
19718W        W84879   1.489  33.558  14.907
19719W        W84880  35.221  35.367   2.679
19720W        W84881  21.277  33.671  14.319
19721W        W84882  27.699  14.129  12.062
19722W        W84883   0.962  38.782  12.596
19723W        W84884  19.643  30.014   0.109
19724W        W84885  44.951  28.846   2.061
19725W        W84886  26.500  24.261   4.182
19726W        W84887  34.576  24.065   4.151
19727W        W84888  29.576  43.201   1.753
19728W        W84889  18.618  18.743  13.317
19729W        W84890  44.688  11.187  14.017
19730W        W84891   6.273  16.831   4.348
19731W        W84892   9.783  16.732  14.647
19732W        W84893   3.786   8.301  10.733
19733W        W84894   1.906  13.250  10.622
19734W        W84895  29.239  29.759   1.899
19735W        W84896  27.172   1.872  11.569
19736W        W84897  17.499  42.712   9.671
19737W        W84898  28.465  33.597  14.881
19738W        W84899  28.913  37.380  13.869
19739W        W84900   0.474   9.924   0.824
19740W        W84901  20.317  15.613   3.377
19741W        W84902  43.536  44.761   4.631
19742W        W84903  19.147  23.927  12.641
19743W        W84904  13.650  36.798   1.110
19744W        W84905  12.136  41.308  13.467
19745W        W84906   1.164  23.560  11.555
19746W        W84907  17.710  22.694  10.692
19747W        W84908  14.843   6.315   4.104
19748W        W84909  27.003  25.550   3.295
19749W        W84910  17.270  26.813   4.237
19750W        W84911  18.848  18.722  12.444
19751W        W84912  33.699  24.221  11.607
19752W        W84913   5.583  11.317  13.274
19753W        W84914  33.325  33.815  12.576
19754W        W84915  44.294  30.526  14.722
19755W        W84916   4.315  42.838  12.005
19756W        W84917  24.530  22.959   1.321
19757W        W84918  10.730   7.365   4.730
19758W        W84919   3.117  32.831  13.529
19759W        W84920  12.031  23.897   4.314
19760W        W84921  40.493  26.386   5.075
19761W        W84922  14.838  35.607  14.513
19762W        W84923   6.282  37.946   4.062
19763W        W84924  22.342   8.222   4.127
19764W        W84925  17.647   4.928  13.456
19765W        W84926  32.429  24.936   3.613
19766W        W84927   5.850  29.910  14.767
19767W        W84928  19.859  44.318   3.670
19768W        W84929  26.014   0.845  10.469
19769W        W84930   3.527  40.987  12.888
19770W        W84931  27.201   0.488  12.040
19771W        W84932  33.769   8.453   0.988
19772W        W84933  13.348  23.088  11.593
19773W        W84934  20.086  39.567   3.301
19774W        W84935   2.211   9.750  12.991
19775W        W84936  16.910  25.837   2.419
19776W        W84937  14.916  15.601   0.926
19777W        W84938  27.956  36.593   1.705
19778W        W84939  20.279  26.976   3.825
19779W        W84940   8.982  38.871  12.022
19780W        W84941   6.893  38.407  12.566
19781W        W84942   1.783  37.822  12.936
19782W        W84943  19.516  38.058  12.442
19783W        W84944   9.820  24.064   3.246
19784W        W84945  18.038  13.073   1.750
19785W        W84946  42.339  44.186  11.172
19786W        W84947  27.260  12.132   2.653
19787W        W84948  32.907  36.423   9.626
19788W        W84949   1.061  21.047   2.859
19789W        W84950   2.407  18.616   4.358
19790W        W84951  14.361  41.874   0.978
19791W        W84952  34.422  28.010  11.679
19792W        W84953  37.265  41.067   4.543
19793W        W84954  35.634  23.999  11.469
19794W        W84955  31.445  41.985   3.335
19795W        W84956  42.076   6.379  11.633
19796W        W84957  14.749   2.442   0.453
19797W        W84958  38.051  35.901   4.158
19798W        W84959   6.385  40.656   4.392
19799W        W84960   5.127  24.263  11.746
19800W        W84961  40.333  39.369  11.183
19801W        W84962  39.549  28.055  11.799
19802W        W84963  38.915  39.318  10.790
19803W        W84964   1.544   3.671   4.573
19804W        W84965  43.976  26.191   1.481
19805W        W84966  24.660  28.452   4.930
19806W        W84967   9.124  17.973   3.702
19807W        W84968  15.389  28.652  11.085
19808W        W84969  16.959  23.118   4.784
19809W        W84970  15.255  26.988  11.383
19810W        W84971  30.051  24.202  13.037
19811W        W84972  15.774  42.875  14.679
19812W        W84973  30.221  18.609  12.981
19813W        W84974   4.792  12.718  10.794
19814W        W84975  15.768  37.640   4.217
19815W        W84976  41.874  36.383   1.261
19816W        W84977  44.748   1.062  11.660
19817W        W84978  44.346   8.871   2.960
19818W        W84979  39.392   4.245  13.794
19819W        W84980  11.659  41.955   0.877
19820W        W84981  22.632   3.495   2.397
19821W        W84982  15.571  22.623   0.036
19822W        W84983  23.667  41.812   2.385
19823W        W84984   0.134   3.890  11.110
19824W        W84985  32.409  37.323  12.861
19825W        W84986  12.416  38.883  14.359
19826W        W84987   7.397  39.740   2.246
19827W        W84988  38.018  25.746  14.707
19828W        W84989  43.339  16.748   1.473
19829W        W84990  18.627  40.494  13.611
19830W        W84991  25.952  37.299   4.487
19831W        W84992   5.412  21.598  14.756
19832W        W84993  29.443  30.276   1.818
19833W        W84994  20.106  35.441   4.130
19834W        W84995  23.625  15.850   4.671
19835W        W84996   4.987   9.308  11.120
19836W        W84997  36.225  26.341   2.223
19837W        W84998  35.474  24.980   4.050
19838W        W84999  12.234  17.869  14.992
19839W        W85000  36.882  14.828   2.289
19840W        W85001  32.501  25.042  12.134
19841W        W85002   0.909  34.041  11.086
19842W        W85003  43.867  35.606   1.902
19843W        W85004  44.884  33.580  10.191
19844W        W85005  15.739  12.310  10.736
19845W        W85006  25.422  39.989  13.601
19846W        W85007  17.336  36.650   1.027
19847W        W85008  19.067  40.680  13.369
19848W        W85009  11.782  12.120   3.348
19849W        W85010  41.422   6.873  14.457
19850W        W85011  37.364  13.305   1.203
19851W        W85012  14.661   8.157  13.951
19852W        W85013   5.145  25.384   0.115
19853W        W85014  31.237   3.972  13.048
19854W        W85015  35.215   5.052   1.894
19855W        W85016  27.039   8.443  13.846
19856W        W85017  28.116  19.650   4.598
19857W        W85018  35.090  31.890   4.560
19858W        W85019   0.353   4.223  11.448
19859W        W85020  27.296  21.368  13.085
19860W        W85021  20.053   9.794  12.830
19861W        W85022  36.351  44.259   1.392
19862W        W85023  25.980   9.842   1.414
19863W        W85024  27.726   2.402  12.033
19864W        W85025   7.856  11.546  11.608
19865W        W85026  11.670  11.285  14.003
19866W        W85027  15.642   7.144  11.279
19867W        W85028  43.373  37.589   1.682
19868W        W85029   9.141  14.229  12.476
19869W        W85030  12.317   7.860   1.338
19870W        W85031  19.000   9.705  13.828
19871W        W85032  16.727   6.219  14.879
19872W        W85033   1.831  30.343  12.624
19873W        W85034  20.316   3.446   5.089
19874W        W85035  44.435  24.006   1.269
19875W        W85036  37.787  20.779  13.902
19876W        W85037  12.187  24.612  12.227
19877W        W85038  24.010   7.360  11.302
19878W        W85039   5.877  27.888  11.851
19879W        W85040  23.191  42.054   2.362
19880W        W85041   2.399  28.646   2.822
19881W        W85042  33.801  16.185   4.058
19882W        W85043   0.876  28.981  11.532
19883W        W85044  37.813  44.161  11.901
19884W        W85045  30.605  21.876   4.706
19885W        W85046   7.701  31.860  12.124
19886W        W85047  19.568  18.362  11.580
19887W        W85048  39.594  17.025  14.845
19888W        W85049  23.042   4.222   1.670
19889W        W85050   5.761  33.221  11.187
19890W        W85051  20.805  28.465  14.495
19891W        W85052  17.759  36.779   2.734
19892W        W85053   3.063  10.169  11.062
19893W        W85054  26.927  22.472   4.618
19894W        W85055   8.516  39.254  14.874
19895W        W85056   4.167   5.796  11.107
19896W        W85057  44.268  29.024   1.947
19897W        W85058  31.974   5.863   0.317
19898W        W85059  36.492  26.186   3.743
19899W        W85060  39.453   2.947   4.681
19900W        W85061  25.026  23.676   4.127
19901W        W85062  29.647   1.025   3.648
19902W        W85063   8.482  32.596   1.709
19903W        W85064  26.039   2.642  12.144
19904W        W85065  27.978  25.102  11.944
19905W        W85066  33.767  24.526   0.992
19906W        W85067  43.309  18.502  11.066
19907W        W85068  27.158  13.141   0.658
19908W        W85069  16.562  24.153   0.881
19909W        W85070   9.967  24.571   3.274
19910W        W85071   9.388  38.559   2.412
19911W        W85072   9.059  13.597  14.039
19912W        W85073  31.550  24.596  14.939
19913W        W85074   8.300  40.919   3.249
19914W        W85075  23.072   6.497  11.256
19915W        W85076  43.758  16.592   2.405
19916W        W85077  25.259  40.903   2.330
19917W        W85078  23.645   7.093  12.950
19918W        W85079  28.701  34.125   3.247
19919W        W85080  41.332  44.204  10.431
19920W        W85081  31.869  24.287  13.192
19921W        W85082  16.434  12.878  14.399
19922W        W85083   6.264  43.831  11.655
19923W        W85084  15.494  28.497  14.977
19924W        W85085  44.970  14.692   1.240
19925W        W85086   6.818   6.255  14.503
19926W        W85087  34.615  24.921   2.093
19927W        W85088  39.992  34.614  13.626
19928W        W85089  23.494   4.927  12.142
19929W        W85090  26.551  26.423  13.311
19930W        W85091   6.355   9.388  14.825
19931W        W85092   7.596  15.641   0.323
19932W        W85093  30.943  19.985  11.376
19933W        W85094  13.381  24.534  13.875
19934W        W85095  40.689  27.232  11.191
19935W        W85096  11.685  27.366  11.755
19936W        W85097   3.207  13.401   0.905
19937W        W85098  15.813  23.651   3.362
19938W        W85099  29.587  42.314  14.475
19939W        W85100  22.202   9.376  10.838
19940W        W85101  13.113  15.136  12.551
19941W        W85102  18.660   5.937  12.873
19942W        W85103  39.380  26.157   0.899
19943W        W85104   5.701  20.323   0.773
19944W        W85105  38.017  38.012  14.059
19945W        W85106   3.281  15.220  11.858
19946W        W85107  43.447  24.644   4.126
19947W        W85108   1.027  44.950  13.119
19948W        W85109  19.823  42.060  11.907
19949W        W85110  30.575  42.449  14.166
19950W        W85111  14.132  37.455   4.626
19951W        W85112  33.065  14.054  13.788
19952W        W85113  42.462  20.258  12.877
19953W        W85114   5.772  21.998  12.957
19954W        W85115   9.289  33.968   2.153
19955W        W85116  25.588  28.882  12.413
19956W        W85117  21.488  21.041   0.340
19957W        W85118   3.330   5.866  10.288
19958W        W85119  12.282   5.958  14.026
19959W        W85120  38.537   9.858   4.638
19960W        W85121  30.168   8.375   1.229
19961W        W85122   6.101  36.511  12.155
19962W        W85123  32.463  36.456  14.293
19963W        W85124  17.074   8.481   2.831
19964W        W85125  31.649  18.071  13.809
19965W        W85126   3.910  43.021   2.299
19966W        W85127  40.790  11.913   2.610
19967W        W85128  15.634  23.200  11.859
19968W        W85129  25.559   7.741  14.414
19969W        W85130  30.452  22.579  10.653
19970W        W85131  41.099  28.570  11.953
19971W        W85132  30.676  42.682   1.007
19972W        W85133   6.412  35.784   4.619
19973W        W85134   7.607  17.895   5.025
19974W        W85135  16.257  29.671  11.079
19975W        W85136  39.239  37.580   0.813
19976W        W85137   7.644  20.145  12.464
19977W        W85138  23.387  34.396   2.789
19978W        W85139   2.938  10.208   1.036
19979W        W85140  32.239  16.685  10.551
19980W        W85141  42.460   4.360  12.115
19981W        W85142  24.731   8.127  10.613
19982W        W85143  31.206  38.534   3.987
19983W        W85144  37.694  39.085  10.188
19984W        W85145  24.409  20.212   0.729
19985W        W85146  14.219  17.279  12.163
19986W        W85147  44.345  41.651   3.250
19987W        W85148   2.314  36.402   0.649
19988W        W85149   6.787  44.723  14.604
19989W        W85150  44.819   8.934   5.153
19990W        W85151  16.685  25.555  12.545
19991W        W85152  38.405  14.683   4.545
19992W        W85153  20.110  22.649   2.861
19993W        W85154   8.641  21.612  14.404
19994W        W85155  22.146  33.263  11.614
19995W        W85156  22.513  36.487   4.088
19996W        W85157  44.301  36.833   2.313
19997W        W85158  27.596  10.220  13.261
19998W        W85159  19.736  13.241  12.200
19999W        W85160   6.294  34.370  10.858
20000W        W85161  15.321   7.697   1.311
20001W        W85162   0.714  23.844  10.106
20002W        W85163   2.844  37.317   2.795
20003W        W85164   9.879   3.268  10.576
20004W        W85165  35.864   1.752  10.309
20005W        W85166  17.300   6.295   0.351
20006W        W85167  35.885  34.046  13.117
20007W        W85168  23.657   4.210   0.715
20008W        W85169  39.224  22.203  14.368
20009W        W85170   3.513  21.222  11.114
20010W        W85171  11.068   4.442   0.116
20011W        W85172  31.155  29.536   3.635
20012W        W85173  24.309   3.513  14.936
20013W        W85174  34.176  18.654   0.294
20014W        W85175  44.954  25.605   2.207
20015W        W85176   8.704  10.595  12.959
20016W        W85177  41.021  27.768   4.232
20017W        W85178  16.573  23.108   4.396
20018W        W85179  18.062  41.857  12.095
20019W        W85180  33.450  35.078   4.739
20020W        W85181   9.329  17.356  13.136
20021W        W85182   4.217  34.482   1.561
20022W        W85183  25.578  42.194   3.701
20023W        W85184   5.811  34.342   4.092
20024W        W85185  34.450  25.935  12.943
20025W        W85186  41.724  44.796   2.482
20026W        W85187  20.751  37.042  14.370
20027W        W85188   6.001  20.524   3.447
20028W        W85189  30.477   3.757   1.184
20029W        W85190  41.561  31.682   2.813
20030W        W85191  26.693  17.302   0.710
20031W        W85192  41.051  23.268  10.992
20032W        W85193  11.342   4.617   4.560
20033W        W85194  35.117  26.107  12.383
20034W        W85195  14.631  24.767  13.357
20035W        W85196  36.938  32.668  13.850
20036W        W85197  23.553   1.283  13.381
20037W        W85198  14.732  14.229  13.144
20038W        W85199   5.722  24.514  13.471
20039W        W85200  44.884   3.366  12.336
20040W        W85201  14.186  43.517   1.439
20041W        W85202  22.731   0.916  13.507
20042W        W85203  29.413  36.835  13.431
20043W        W85204   9.633   1.089   4.932
20044W        W85205  15.290   5.225   2.580
20045W        W85206  22.920   3.083   3.607
20046W        W85207  40.545  25.424   4.232
20047W        W85208   3.083  15.714   1.882
20048W        W85209  13.825   8.845  10.941
20049W        W85210  24.914  14.642   2.355
20050W        W85211  41.370   7.055   2.204
20051W        W85212  13.672   4.970   2.315
20052W        W85213  31.962  15.697   3.039
20053W        W85214  17.039  40.980  12.586
20054W        W85215  40.569  33.485  10.516
20055W        W85216   1.227  11.602  14.791
20056W        W85217  16.345   6.729  11.413
20057W        W85218   9.942  25.724   3.734
20058W        W85219  31.478  26.531  12.931
20059W        W85220   0.863  20.743   4.121
20060W        W85221  17.856  33.019   0.896
20061W        W85222  28.244   1.713  13.340
20062W        W85223  40.463  20.771   2.663
20063W        W85224  24.919  32.496   4.220
20064W        W85225   4.214   9.719   4.542
20065W        W85226  35.077   5.778  12.403
20066W        W85227  34.270  29.005   3.733
20067W        W85228  33.631  27.943   4.319
20068W        W85229  16.063  14.842  13.527
20069W        W85230  35.871  38.047  11.042
20070W        W85231   7.211  19.642  12.795
20071W        W85232  22.959  33.474  14.719
20072W        W85233   8.188  43.680  13.975
20073W        W85234  42.472  25.372   0.679
20074W        W85235  30.137  36.463  11.753
20075W        W85236  37.591  24.705   0.813
20076W        W85237  37.731  19.473   3.716
20077W        W85238   6.733  17.791   1.145
20078W        W85239  11.678   5.820   3.671
20079W        W85240  31.832   7.361   1.899
20080W        W85241  11.092  30.735  14.774
20081W        W85242  41.051  31.212  10.714
20082W        W85243  13.539  21.052  11.579
20083W        W85244   4.975   3.629   4.983
20084W        W85245  26.440   4.684  11.130
20085W        W85246   8.300  44.958   2.994
20086W        W85247   9.947  36.579  14.799
20087W        W85248  14.438  44.877   1.021
20088W        W85249  27.773  10.999  13.746
20089W        W85250  42.065  38.737   1.830
20090W        W85251  44.212  15.777  13.042
20091W        W85252  17.094   4.959   0.441
20092W        W85253  11.221  15.731   3.685
20093W        W85254   3.477  25.660   1.241
20094W        W85255  19.317   8.717   2.762
20095W        W85256  17.315   6.185   0.901
20096W        W85257  43.314  39.641  13.371
20097W        W85258  34.534  15.152  13.041
20098W        W85259  31.902  12.729  12.445
20099W        W85260  15.333   1.966  12.968
20100W        W85261  18.163  25.740  12.041
20101W        W85262  22.178  18.566  10.458
20102W        W85263  27.542   8.118   2.838
20103W        W85264  17.377  33.848   3.209
20104W        W85265  39.998   9.866  11.865
20105W        W85266  12.427  21.063  14.478
20106W        W85267  34.386  14.258  12.581
20107W        W85268   5.928  36.020   0.819
20108W        W85269  27.104   7.473   4.200
20109W        W85270  38.129  35.012   4.023
20110W        W85271  27.652  28.696  11.619
20111W        W85272  43.788  24.701   4.702
20112W        W85273  43.883  30.593  11.534
20113W        W85274  35.587  28.391  11.675
20114W        W85275  44.945  14.827   0.287
20115W        W85276  10.823   0.173   0.845
20116W        W85277  30.639  37.338  10.300
20117W        W85278  28.070  43.627   3.660
20118W        W85279   7.155  33.896   0.348
20119W        W85280  40.817  27.521   0.219
20120W        W85281  44.948   8.368   4.391
20121W        W85282  32.966  37.320  10.784
20122W        W85283   8.190  44.728  11.740
20123W        W85284  33.548  33.592   9.865
20124W        W85285   8.068  18.830  12.908
20125W        W85286  22.657  40.224   0.431
20126W        W85287  37.828  21.029   3.972
20127W        W85288  13.046  24.091   2.479
20128W        W85289   4.707  44.230   4.643
20129W        W85290  25.653  27.574  13.837
20130W        W85291  41.375  32.997   1.705
20131W        W85292  39.233  11.693  13.619
20132W        W85293  43.818  39.033   3.773
20133W        W85294  39.208  36.930   1.425
20134W        W85295  10.082  19.126  10.891
20135W        W85296  16.158  16.615   1.380
20136W        W85297  43.448  38.570   1.928
20137W        W85298  18.016  16.949   3.501
20138W        W85299  22.282  23.724   2.286
20139W        W85300   0.411   9.870   9.774
20140W        W85301  41.888  16.543   1.386
20141W        W85302  27.025   0.203  14.988
20142W        W85303  11.450   6.883  12.191
20143W        W85304  32.527  33.388  13.171
20144W        W85305  18.226  30.318   0.457
20145W        W85306  44.019   4.443  11.530
20146W        W85307  38.638   4.793  14.264
20147W        W85308  10.013   1.662   4.094
20148W        W85309  12.051   1.504  12.955
20149W        W85310  17.283  21.303  14.889
20150W        W85311  31.054  34.557  12.967
20151W        W85312  20.730  35.263   2.817
20152W        W85313  16.306  11.291   0.413
20153W        W85314  14.551  33.859  12.998
20154W        W85315  18.253  23.029   4.082
20155W        W85316  44.361   5.484   4.536
20156W        W85317   1.424  17.745  12.113
20157W        W85318  35.839  30.821  10.947
20158W        W85319  19.224  24.671  13.418
20159W        W85320  38.367  21.188  13.829
20160W        W85321  23.752  14.913   0.302
20161W        W85322  27.671   0.505  14.542
20162W        W85323  34.333  42.825  14.316
20163W        W85324  12.910  11.888   3.642
20164W        W85325  12.107  29.880  13.760
20165W        W85326  20.226   4.814   0.717
20166W        W85327  42.283   7.232   0.695
20167W        W85328   7.007  35.862  10.954
20168W        W85329  29.935  16.400   1.707
20169W        W85330  16.318  21.139   2.740
20170W        W85331  16.375  35.321  10.537
20171W        W85332  32.996  42.899  12.886
20172W        W85333  42.988  33.527   1.251
20173W        W85334  12.320  32.877   2.719
20174W        W85335  28.702  23.097  13.163
20175W        W85336   1.382  21.497   3.693
20176W        W85337  16.277  14.084   0.199
20177W        W85338  15.179   0.159  12.090
20178W        W85339  43.024   1.920  11.605
20179W        W85340   2.830   3.190  11.130
20180W        W85341  19.038  23.082   3.781
20181W        W85342   0.323   1.419   1.346
20182W        W85343   1.907   1.221   2.358
20183W        W85344   5.333  34.320  10.724
20184W        W85345  28.513   7.338   4.567
20185W        W85346   7.916  34.048   2.330
20186W        W85347  16.171  19.710  14.546
20187W        W85348  31.449  33.220  14.877
20188W        W85349  26.120  22.687  10.983
20189W        W85350  35.295  23.004   1.839
20190W        W85351  16.276   8.315   2.254
20191W        W85352  38.473  32.522  12.919
20192W        W85353  17.519  29.561   0.790
20193W        W85354  35.489  39.359  14.195
20194W        W85355  43.820  25.969   3.362
20195W        W85356  23.763  15.403   0.170
20196W        W85357  22.514  13.041   4.111
20197W        W85358  17.388  40.196   2.695
20198W        W85359  20.801   3.741  14.309
20199W        W85360   0.762  44.998  11.377
20200W        W85361  30.180  19.366   0.338
20201W        W85362   7.797  16.821   0.056
20202W        W85363   1.387  16.616  10.644
20203W        W85364  17.859   3.757  10.736
20204W        W85365  27.229   4.227   0.907
20205W        W85366  20.046   9.840  11.399
20206W        W85367  12.670  41.072   4.289
20207W        W85368  10.110  25.091   3.277
20208W        W85369  11.232   6.046  12.075
20209W        W85370  28.145   8.183   4.630
20210W        W85371  26.540  40.789  14.280
20211W        W85372   6.899  27.663   3.497
20212W        W85373  11.761  21.552   4.412
20213W        W85374  28.589   8.517   3.227
20214W        W85375  14.087  33.095  10.694
20215W        W85376   4.722   1.835  11.272
20216W        W85377   6.593  42.236   2.376
20217W        W85378  35.090   8.730   1.361
20218W        W85379  20.589  30.063  14.708
20219W        W85380  16.597  36.674   2.255
20220W        W85381  23.427  16.041  12.954
20221W        W85382   2.856  36.680  12.011
20222W        W85383  25.755  21.835  14.353
20223W        W85384   5.360  19.774   0.162
20224W        W85385  43.046   8.828   1.372
20225W        W85386  36.915  40.380   2.800
20226W        W85387  42.846  40.909   3.169
20227W        W85388   2.052  32.364   1.320
20228W        W85389  29.478   9.697  10.447
20229W        W85390  42.314  23.734   4.507
20230W        W85391  20.514  25.784  11.975
20231W        W85392  30.088  40.154  12.394
20232W        W85393  36.479  35.327   4.430
20233W        W85394  21.542  40.268  11.540
20234W        W85395  13.890  11.315  11.226
20235W        W85396   7.755  27.797   4.180
20236W        W85397  28.059   4.471  12.600
20237W        W85398  40.832  11.202  14.022
20238W        W85399  10.360   4.414   2.708
20239W        W85400  15.768   7.159   3.623
20240W        W85401  24.863  28.229   3.211
20241W        W85402  40.271  41.757   1.338
20242W        W85403  19.420  26.162   3.159
20243W        W85404  30.213  26.701   4.158
20244W        W85405  24.585  35.156   3.605
20245W        W85406  38.086  17.097  13.002
20246W        W85407  38.365   2.978  13.858
20247W        W85408   8.824  40.686   1.936
20248W        W85409  25.753   3.805  12.390
20249W        W85410   8.669   3.315   5.050
20250W        W85411  28.488  31.172  12.628
20251W        W85412  32.382  17.713   0.767
20252W        W85413  38.003  32.899  12.509
20253W        W85414  43.765  13.725  13.945
20254W        W85415  21.669  31.935   2.764
20255W        W85416  19.192  35.508   1.468
20256W        W85417  44.217  26.039  11.463
20257W        W85418   5.100  12.312  11.021
20258W        W85419  26.284  36.086  10.782
20259W        W85420  13.915   3.761  14.442
20260W        W85421   1.918  36.986  13.896
20261W        W85422  27.110  40.585  13.948
20262W        W85423  13.765   5.251  11.317
20263W        W85424  20.126  21.436   1.261
20264W        W85425  39.909  30.145  14.223
20265W        W85426   7.488  42.341  12.611
20266W        W85427  30.025   5.131   0.735
20267W        W85428  42.441   0.219  14.076
20268W        W85429  19.639  42.616   1.314
20269W        W85430  41.961  23.124   4.284
20270W        W85431  15.971  14.367  13.366
20271W        W85432  14.627  44.297   1.200
20272W        W85433  35.104   0.042  14.881
20273W        W85434  20.889  29.483   3.252
20274W        W85435  28.388  33.594  10.966
20275W        W85436   9.608  37.969  14.452
20276W        W85437  27.565  37.593   1.691
20277W        W85438  37.315  14.881  11.606
20278W        W85439  34.024  33.072  11.886
20279W        W85440  30.723   1.023  14.940
20280W        W85441   4.364  26.386  13.983
20281W        W85442  40.747   3.276   0.109
20282W        W85443  33.325  40.437  13.593
20283W        W85444  21.646   6.412   4.237
20284W        W85445  29.531  37.312   3.206
20285W        W85446  13.331  13.883  11.241
20286W        W85447  17.635  21.708   1.774
20287W        W85448  23.619   9.669  12.829
20288W        W85449  32.460   0.382   4.706
20289W        W85450  40.992   8.610   0.997
20290W        W85451  42.798  10.079  11.704
20291W        W85452   2.515  12.863   1.405
20292W        W85453   4.194   5.936   3.194
20293W        W85454  13.759  43.777   1.723
20294W        W85455  29.664  30.445   4.478
20295W        W85456  11.211  24.613   2.386
20296W        W85457  18.059   5.407   2.649
20297W        W85458  39.526  43.407  10.892
20298W        W85459   1.540  23.260  11.879
20299W        W85460   0.524  35.494  12.674
20300W        W85461   7.316  25.412  13.467
20301W        W85462   4.368  20.276  12.105
20302W        W85463   9.754   3.246   0.817
20303W        W85464   1.512  27.962  12.441
20304W        W85465   7.244   7.355  10.597
20305W        W85466  44.442  16.629   0.158
20306W        W85467  31.089  16.615  12.927
20307W        W85468   5.834  36.323   4.234
20308W        W85469  34.833  27.222  12.315
20309W        W85470   6.012  19.076   3.607
20310W        W85471  12.568  10.615  14.087
20311W        W85472  16.950  25.016  13.434
20312W        W85473  37.009  12.360   4.131
20313W        W85474   2.492  28.123   4.930
20314W        W85475  15.673   3.530  10.612
20315W        W85476   2.638  44.070  12.853
20316W        W85477  34.345  18.282  11.930
20317W        W85478  28.602  44.906  14.804
20318W        W85479  15.374  21.824  14.570
20319W        W85480  12.800  11.064  10.470
20320W        W85481  40.856  37.451  11.589
20321W        W85482  33.433  30.719   0.508
20322W        W85483  36.501  30.874  13.995
20323W        W85484  33.635  22.957  12.062
20324W        W85485  27.486  32.560   4.661
20325W        W85486  24.758  23.215  11.557
20326W        W85487  16.069  19.996   1.361
20327W        W85488  21.734  22.779  13.968
20328W        W85489  32.503  14.763   0.885
20329W        W85490   3.268  32.670   1.798
20330W        W85491  20.599   8.180   3.652
20331W        W85492  43.181  26.716   2.496
20332W        W85493  38.486  42.288   1.691
20333W        W85494   1.594   1.697  10.676
20334W        W85495  37.516  29.750  11.141
20335W        W85496   1.009  14.471  10.395
20336W        W85497   5.882  17.141  11.940
20337W        W85498  20.199  31.982   0.491
20338W        W85499  37.381  32.083   2.905
20339W        W85500  19.337  31.205  13.723
20340W        W85501  20.951  33.205  11.444
20341W        W85502  32.213   5.424  12.069
20342W        W85503  16.655  18.128  12.658
20343W        W85504  31.365  40.984   1.933
20344W        W85505  31.419  21.210   2.685
20345W        W85506  27.976   8.592   0.858
20346W        W85507  31.431  25.029  13.159
20347W        W85508  15.061  10.222  14.416
20348W        W85509  40.736   7.614  13.256
20349W        W85510  17.142  39.671  12.785
20350W        W85511   3.326  44.347   0.721
20351W        W85512  22.154   5.821   0.337
20352W        W85513   7.193  37.975  10.654
20353W        W85514  36.929  15.780   1.237
20354W        W85515  42.249  20.803  14.346
20355W        W85516  15.135  11.890  12.900
20356W        W85517  12.533  40.400  11.553
20357W        W85518  20.083  19.644  12.808
20358W        W85519   0.536  20.123  14.464
20359W        W85520  20.150  31.550  11.608
20360W        W85521  24.361  43.463  11.586
20361W        W85522  25.699  34.381   1.747
20362W        W85523  12.803  42.353  12.904
20363W        W85524  20.295  16.579  14.520
20364W        W85525  43.314   7.849  12.836
20365W        W85526   1.918  15.553   2.765
20366W        W85527  44.766   2.652  10.686
20367W        W85528  41.316  12.910  10.934
20368W        W85529  18.753  21.727  11.125
20369W        W85530  24.053   3.248   0.313
20370W        W85531  23.139  35.028  14.887
20371W        W85532  16.531  24.766  13.227
20372W        W85533   5.689  17.098   1.753
20373W        W85534   7.652   7.098   2.265
20374W        W85535  40.982  22.022   0.747
20375W        W85536   5.770  31.522  11.140
20376W        W85537   8.333  11.391   0.410
20377W        W85538  15.593  25.991   1.273
20378W        W85539  18.065  23.535  13.861
20379W        W85540  16.338  24.142  14.500
20380W        W85541  34.088  39.523   1.620
20381W        W85542  36.175   4.247   0.481
20382W        W85543  28.132   8.285   2.075
20383W        W85544  14.789  24.155  12.016
20384W        W85545  20.183  29.232  12.829
20385W        W85546  39.365  21.626   1.049
20386W        W85547  34.075  23.043  13.047
20387W        W85548  32.848  13.555   4.154
20388W        W85549  18.982   4.695   4.146
20389W        W85550   4.788  12.150   0.894
20390W        W85551  29.489  27.217   2.624
20391W        W85552  20.334  28.348   5.032
20392W        W85553  24.249  36.537  12.985
20393W        W85554  19.857   9.187   1.092
20394W        W85555  28.468  23.757   0.712
20395W        W85556  21.702  10.467   3.334
20396W        W85557  12.907   9.394  11.655
20397W        W85558  43.853  14.150   0.208
20398W        W85559  43.276  30.913  13.167
20399W        W85560  41.830  25.304  10.903
20400W        W85561  37.990  29.918   4.856
20401W        W85562   1.124  41.373  14.452
20402W        W85563  19.003  25.673   2.374
20403W        W85564  42.143   8.876  14.758
20404W        W85565  19.212  29.154   4.836
20405W        W85566  31.101  15.193   1.136
20406W        W85567  15.851  33.934  14.946
20407W        W85568  38.762  35.993  11.283
20408W        W85569  43.553   5.281   3.660
20409W        W85570  16.795  15.080  12.134
20410W        W85571  43.130   9.669   1.008
20411W        W85572  12.823  11.911   4.529
20412W        W85573  33.550  17.721   1.140
20413W        W85574  34.269  32.589   3.205
20414W        W85575   9.881  21.642  14.802
20415W        W85576   4.333  40.434  11.542
20416W        W85577  28.438  43.072  11.041
20417W        W85578  34.269   0.864  12.990
20418W        W85579  10.188  14.755   3.890
20419W        W85580   9.214  10.926   0.291
20420W        W85581  42.831  22.735   0.985
20421W        W85582   5.425  38.475  12.122
20422W        W85583  42.497  29.993   0.388
20423W        W85584  26.821  31.389  12.456
20424W        W85585  16.996  17.253  12.269
20425W        W85586  31.007   8.304  12.392
20426W        W85587  39.836   5.918  12.356
20427W        W85588   8.659  22.013   1.314
20428W        W85589  44.068  26.642   1.282
20429W        W85590  41.778  35.931  12.021
20430W        W85591   5.282  10.610   0.282
20431W        W85592  27.853  12.771   3.202
20432W        W85593   8.360  37.395   1.426
20433W        W85594  19.699  41.230  11.429
20434W        W85595  13.066   9.717   2.218
20435W        W85596   4.863  44.914   3.142
20436W        W85597  39.212  19.121   3.500
20437W        W85598  39.999  18.581   4.241
20438W        W85599  42.962   7.251   5.090
20439W        W85600  19.740  36.289   3.650
20440W        W85601  26.203  42.998  10.656
20441W        W85602  10.315   7.481  12.170
20442W        W85603  26.675   6.740   1.501
20443W        W85604  31.179  25.120   2.365
20444W        W85605  16.075   1.539   2.156
20445W        W85606  39.948   1.187   2.581
20446W        W85607   8.732  11.864  11.699
20447W        W85608  32.063  15.550   3.570
20448W        W85609  28.103  44.309  10.783
20449W        W85610  39.023  32.119  10.110
20450W        W85611   1.290  23.913  12.512
20451W        W85612  25.761   6.468   4.807
20452W        W85613   5.334  16.765   0.283
20453W        W85614   3.679  21.202  13.923
20454W        W85615  17.358  20.130   3.657
20455W        W85616   1.954  13.072  13.351
20456W        W85617  29.509   2.376   0.414
20457W        W85618  25.695  34.071  12.358
20458W        W85619  16.074  30.580  11.089
20459W        W85620   6.038   7.340   4.986
20460W        W85621  44.881  37.893   1.125
20461W        W85622  44.811  40.021  14.917
20462W        W85623  31.199   5.155  14.467
20463W        W85624  23.270  14.562  14.432
20464W        W85625  11.280  22.208   2.364
20465W        W85626   8.107  38.558  13.227
20466W        W85627  35.405  10.768   3.910
20467W        W85628  24.952  27.162  11.499
20468W        W85629  13.806   2.428   4.631
20469W        W85630  15.591  22.034  11.063
20470W        W85631  26.514   8.632   1.841
20471W        W85632  39.526  41.037   2.333
20472W        W85633  39.063  43.718  13.429
20473W        W85634   7.178  28.191   2.878
20474W        W85635  40.806   0.644   0.414
20475W        W85636  23.976  12.473  12.476
20476W        W85637  35.390  43.815   0.283
20477W        W85638   7.772   1.554  14.985
20478W        W85639  16.574  19.154   3.238
20479W        W85640   6.939  37.541  10.781
20480W        W85641  33.599  37.755  10.705
20481W        W85642  14.598  36.538  14.009
20482W        W85643  27.475   8.678  12.943
20483W        W85644  31.575  11.112   3.711
20484W        W85645  39.112  36.052  14.822
20485W        W85646  19.706   9.777  10.958
20486W        W85647   0.268  28.010  10.588
20487W        W85648  16.170   8.226  13.829
20488W        W85649  17.523   4.357   2.169
20489W        W85650  10.123   6.024   3.322
20490W        W85651   2.920   7.635   3.334
20491W        W85652   9.273  44.751   1.676
20492W        W85653  15.872  24.138  10.975
20493W        W85654   9.278   5.376  11.481
20494W        W85655  36.216  27.592  12.546
20495W        W85656  17.263  21.400   3.679
20496W        W85657  32.134  41.348  12.485
20497W        W85658  37.897  19.170   2.865
20498W        W85659  41.133  10.208   4.132
20499W        W85660  19.041   0.402   2.280
20500W        W85661   5.497   5.257  11.199
20501W        W85662  16.362  31.365  12.500
20502W        W85663  38.919   3.249   3.477
20503W        W85664   0.185   7.169  13.033
20504W        W85665  28.552  21.241   1.148
20505W        W85666   1.307  28.095   0.786
20506W        W85667  40.175  17.320  13.856
20507W        W85668  17.077  10.918   0.157
20508W        W85669  16.265  16.764  13.482
20509W        W85670  10.700   5.022   9.785
20510W        W85671  25.934  36.011   4.510
20511W        W85672  40.524   9.337  14.825
20512W        W85673  15.483  28.140  14.497
20513W        W85674  23.520  21.228  14.381
20514W        W85675  29.032  38.480   4.860
20515W        W85676   5.006   5.221  11.040
20516W        W85677  42.330  34.617   0.002
20517W        W85678  33.954  33.111  12.388
20518W        W85679  34.587  29.248   1.660
20519W        W85680  20.856  17.335   0.690
20520W        W85681   3.188  36.745  11.467
20521W        W85682   7.966  10.685   1.862
20522W        W85683  27.135  18.020   0.284
20523W        W85684  44.799  17.029   3.739
20524W        W85685  44.719  35.404  11.611
20525W        W85686  16.282  13.338  14.231
20526W        W85687  33.109  40.030  11.897
20527W        W85688  22.621  15.683  14.987
20528W        W85689   2.269  39.210   1.634
20529W        W85690  36.822  37.003   1.756
20530W        W85691  22.498  14.710   9.459
20531W        W85692  38.282  11.935   0.969
20532W        W85693  22.540   6.411  13.885
20533W        W85694  38.402  16.518   1.304
20534W        W85695   9.008  34.052  11.096
20535W        W85696   7.014   9.713   1.971
20536W        W85697  22.611  40.030  11.608
20537W        W85698  44.759   3.822   4.190
20538W        W85699  42.344   8.172  12.993
20539W        W85700  44.711   7.099  11.983
20540W        W85701   4.182  16.274  12.975
20541W        W85702  43.762  27.020  10.384
20542W        W85703  40.475  18.913  12.620
20543W        W85704   7.497  43.750  11.110
20544W        W85705  33.554   3.443   1.657
20545W        W85706  18.176  29.399   1.617
20546W        W85707  36.091   3.510   2.581
20547W        W85708   8.138  11.831   3.695
20548W        W85709  37.316   7.754   3.222
20549W        W85710  18.708   9.347   0.402
20550W        W85711   7.284   0.013  11.912
20551W        W85712   6.933  25.253   2.365
20552W        W85713  22.878  43.971  12.818
20553W        W85714  22.611   3.228   1.944
20554W        W85715  22.770  16.699   4.171
20555W        W85716  24.142  24.741   0.897
20556W        W85717  28.964  43.943   4.179
20557W        W85718  13.189  31.054   4.547
20558W        W85719  25.783  39.056  12.086
20559W        W85720  20.161  38.319  13.195
20560W        W85721  42.345  38.402  11.703
20561W        W85722  22.417   5.733   3.256
20562W        W85723  40.220  35.785  11.976
20563W        W85724  43.286  21.152   3.727
20564W        W85725  24.440   9.428  11.740
20565W        W85726  43.897  34.126  14.077
20566W        W85727   2.787  19.725  12.857
20567W        W85728  29.942  35.061  12.296
20568W        W85729  10.536  11.844   2.697
20569W        W85730  22.332  41.689  12.181
20570W        W85731  39.563   9.822  10.555
20571W        W85732  42.629  31.752  13.124
20572W        W85733  16.162   6.358   4.898
20573W        W85734   2.346   2.042   4.063
20574W        W85735  11.190   5.369   0.347
20575W        W85736  42.347   1.773   0.778
20576W        W85737  32.953  31.991   4.211
20577W        W85738  19.678  10.629   3.920
20578W        W85739  34.330  42.316   2.203
20579W        W85740  17.171  25.506   1.730
20580W        W85741  38.958  40.078   4.360
20581W        W85742   4.531   7.680  11.113
20582W        W85743   0.958  41.599  12.518
20583W        W85744   3.439  23.359  13.571
20584W        W85745  34.513  42.929  14.936
20585W        W85746  35.693   2.247  13.478
20586W        W85747  29.350  17.253   1.123
20587W        W85748   3.661   9.685   2.891
20588W        W85749  32.935  22.100   2.334
20589W        W85750  23.946  13.943   2.321
20590W        W85751  21.178  12.915  11.628
20591W        W85752   3.611  17.139  12.923
20592W        W85753  43.310  30.187  14.409
20593W        W85754  43.537  30.540  12.897
20594W        W85755   6.884  14.789  14.753
20595W        W85756  19.224  38.934  11.446
20596W        W85757  20.514  22.117   9.697
20597W        W85758   8.076  17.641   3.075
20598W        W85759   4.685  19.348  10.758
20599W        W85760  44.358  21.882   0.440
20600W        W85761  17.365  22.423  13.117
20601W        W85762  22.705  38.336   4.122
20602W        W85763  39.571  31.622   0.490
20603W        W85764  39.890  42.526   0.723
20604W        W85765  28.074  23.214   4.578
20605W        W85766  28.168  20.004  14.032
20606W        W85767   2.185  42.964   1.328
20607W        W85768  21.397   0.439   0.448
20608W        W85769  23.506  36.463  10.630
20609W        W85770  19.654   7.360   0.786
20610W        W85771  34.119   5.732   2.144
20611W        W85772  21.015   5.155   3.312
20612W        W85773  19.574  13.054   0.674
20613W        W85774  38.933  24.948   3.209
20614W        W85775  21.985  42.422  14.031
20615W        W85776  44.310   4.920   4.536
20616W        W85777  39.106  34.634  13.107
20617W        W85778   6.281  34.469   1.182
20618W        W85779  11.332  29.638  12.410
20619W        W85780  10.637   7.309   2.814
20620W        W85781  37.276  38.230   5.257
20621W        W85782  22.589   3.865  14.462
20622W        W85783   2.386  14.628  11.901
20623W        W85784  38.071  38.433   3.113
20624W        W85785   1.275   5.408  11.957
20625W        W85786  24.669  24.561  12.599
20626W        W85787  35.537  41.336  12.050
20627W        W85788  16.297  22.728  14.489
20628W        W85789   1.322  29.999   0.967
20629W        W85790  13.632   4.234  10.965
20630W        W85791  12.644  12.360  12.089
20631W        W85792   2.320  41.116   3.679
20632W        W85793  24.505  37.389   1.856
20633W        W85794  13.148  12.814  13.548
20634W        W85795   5.221  12.406  11.537
20635W        W85796   0.558  36.014  12.533
20636W        W85797  42.071  35.495  14.807
20637W        W85798  12.261  36.833   0.451
20638W        W85799  38.454  26.118  13.827
20639W        W85800  41.511  24.666   0.098
20640W        W85801  10.060  37.837   2.381
20641W        W85802  24.716   4.040  12.360
20642W        W85803  35.342  34.412   4.164
20643W        W85804  27.431  40.002   0.451
20644W        W85805  16.248  18.726   0.144
20645W        W85806  19.395  31.068  11.519
20646W        W85807  40.815   0.967  14.992
20647W        W85808  30.599   4.249   1.701
20648W        W85809  14.635  21.396   1.917
20649W        W85810  25.257  34.860   3.622
20650W        W85811   9.605  23.121  13.147
20651W        W85812  37.442  38.374  10.970
20652W        W85813  32.583  42.314   2.793
20653W        W85814  35.343  44.892  10.744
20654W        W85815   1.825  23.645  11.656
20655W        W85816  29.546   1.362  12.468
20656W        W85817   0.707  20.654   0.205
20657W        W85818  31.182  24.073   3.686
20658W        W85819   1.866  25.040  10.972
20659W        W85820  29.621  44.893   3.287
20660W        W85821  15.160   4.241  13.484
20661W        W85822  34.097  29.862  11.137
20662W        W85823  25.926   9.260  12.874
20663W        W85824  18.941  33.699   3.292
20664W        W85825  29.198  11.938   3.186
20665W        W85826  34.452   8.141   0.295
20666W        W85827  35.606  31.909   4.434
20667W        W85828   8.989  12.585  11.133
20668W        W85829  35.232  38.247   5.220
20669W        W85830  21.727   9.838   2.798
20670W        W85831  23.538  42.289  11.276
20671W        W85832   9.121  14.557   1.380
20672W        W85833   5.012  16.058  12.093
20673W        W85834  37.022  26.966   0.462
20674W        W85835  42.462  34.442   3.585
20675W        W85836  15.719  23.565  14.676
20676W        W85837  41.785  20.656   1.200
20677W        W85838  34.081  23.784   2.600
20678W        W85839  33.163  38.281  12.428
20679W        W85840  37.455  41.483  10.733
20680W        W85841   1.922  44.873  13.438
20681W        W85842  19.496  28.475   2.671
20682W        W85843  33.484  29.008  12.541
20683W        W85844  43.929  41.730  12.839
20684W        W85845   4.771  29.128   3.584
20685W        W85846  17.872  34.008   3.283
20686W        W85847  25.775  16.032  10.707
20687W        W85848  11.856   1.374  10.717
20688W        W85849  35.859  28.266  11.178
20689W        W85850  25.291  16.272   3.880
20690W        W85851  28.652  21.703   3.895
20691W        W85852  13.377   7.842   1.254
20692W        W85853  11.860  27.888  14.749
20693W        W85854  41.635  35.715   1.994
20694W        W85855  39.347  39.419   1.338
20695W        W85856  11.117   4.115   3.839
20696W        W85857  20.264  42.833   0.550
20697W        W85858  25.083  12.142   0.722
20698W        W85859  29.240  19.092   4.679
20699W        W85860  12.763  41.377   5.037
20700W        W85861   1.739   6.874   3.256
20701W        W85862  28.950  35.520  12.902
20702W        W85863  10.400  12.743  14.597
20703W        W85864  38.558  16.402  12.777
20704W        W85865  31.750  27.676   3.211
20705W        W85866  19.565   4.757   0.264
20706W        W85867  11.837  31.915  11.146
20707W        W85868   5.716  20.152  12.778
20708W        W85869  14.850  25.203   0.017
20709W        W85870  33.606  35.510  13.165
20710W        W85871  26.768   1.162   9.758
20711W        W85872  26.708   3.465   0.193
20712W        W85873  24.701   5.964   1.354
20713W        W85874  32.053  29.388  13.149
20714W        W85875   2.858  17.651   5.041
20715W        W85876  20.461   8.860   0.235
20716W        W85877  19.222  17.335  10.709
20717W        W85878   5.736   5.153   1.333
20718W        W85879  32.080  12.102  10.064
20719W        W85880  35.017  18.637  10.501
20720W        W85881  44.737  18.571  12.484
20721W        W85882  25.739   1.678  13.966
20722W        W85883  39.512  13.224  12.963
20723W        W85884  41.357   7.364  11.635
20724W        W85885  35.477   2.897  12.183
20725W        W85886  18.115  30.631   1.894
20726W        W85887  42.583  19.651   3.109
20727W        W85888  37.351  41.561  14.663
20728W        W85889   0.864  41.565  14.014
20729W        W85890  44.265  15.630   1.051
20730W        W85891  11.762   6.359  13.139
20731W        W85892  32.483   2.338   3.392
20732W        W85893  23.562  11.195   4.281
20733W        W85894  43.358  22.141  12.359
20734W        W85895  14.074  18.155   1.881
20735W        W85896  43.412  28.598  11.575
20736W        W85897   1.388   5.223   1.255
20737W        W85898  44.408  38.010   3.988
20738W        W85899  28.171   9.857   2.441
20739W        W85900  30.918  24.596   1.697
20740W        W85901  32.377  43.953  10.928
20741W        W85902  42.212  24.066  14.842
20742W        W85903  38.321   2.276  13.436
20743W        W85904  44.658  16.713  13.001
20744W        W85905  28.615  36.062  13.369
20745W        W85906  12.533  35.648   4.073
20746W        W85907   1.011  31.867  10.938
20747W        W85908   5.712   6.299   2.723
20748W        W85909  40.319  13.716  14.871
20749W        W85910  22.711   4.236  13.280
20750W        W85911  14.386  41.924  14.599
20751W        W85912  25.043  20.811  13.979
20752W        W85913  35.735  24.656   3.139
20753W        W85914  18.136  44.019   0.830
20754W        W85915   3.941  28.264   4.532
20755W        W85916  26.975  16.695   3.684
20756W        W85917  20.884  44.377  12.900
20757W        W85918  34.353  31.418   2.775
20758W        W85919  13.743  44.001  14.243
20759W        W85920  16.017   7.346   3.204
20760W        W85921  11.800  16.662  13.561
20761W        W85922  44.892   8.166   3.366
20762W        W85923  33.060   6.973  11.115
20763W        W85924  28.633  37.294   1.294
20764W        W85925  31.129   7.481   1.201
20765W        W85926   3.878  13.084   1.234
20766W        W85927  27.339  29.868   0.455
20767W        W85928  13.448  18.534  12.699
20768W        W85929  23.328  44.791  12.499
20769W        W85930  44.066  31.586   1.471
20770W        W85931  33.457  19.847  13.139
20771W        W85932   7.395  26.153  13.476
20772W        W85933  28.981   3.233  12.896
20773W        W85934   0.392  33.883  11.651
20774W        W85935  15.925  18.702   4.623
20775W        W85936  27.104  44.765  12.480
20776W        W85937   4.024  22.806   2.754
20777W        W85938  37.635  26.705   1.009
20778W        W85939  33.685  17.265  11.138
20779W        W85940  10.260  42.881  13.268
20780W        W85941  33.836  43.020  12.285
20781W        W85942   6.721  24.746  13.420
20782W        W85943  30.098  29.959   3.105
20783W        W85944   4.915  18.472  12.935
20784W        W85945  11.315  42.364  13.891
20785W        W85946  42.334   4.538   1.696
20786W        W85947  40.767  27.650  11.987
20787W        W85948  20.590   8.399   0.000
20788W        W85949   2.332  18.307  11.477
20789W        W85950   5.899   8.876   2.426
20790W        W85951  17.471   1.913  11.002
20791W        W85952  40.388  10.039   2.753
20792W        W85953  13.426  14.216  13.827
20793W        W85954  19.151  38.071   2.709
20794W        W85955  41.254   0.941   2.927
20795W        W85956  44.606  36.430  11.485
20796W        W85957  38.996  16.262   1.368
20797W        W85958  44.413   7.295  14.783
20798W        W85959  18.837  43.924  12.515
20799W        W85960  26.251  10.260  14.054
20800W        W85961   1.060  12.313  13.274
20801W        W85962  15.086  16.672  11.070
20802W        W85963   1.220  44.366  10.394
20803W        W85964  29.663  31.086  13.532
20804W        W85965  30.067  16.712   1.304
20805W        W85966   9.877  33.142   4.569
20806W        W85967  23.546  25.275   4.246
20807W        W85968   1.643  10.786   4.733
20808W        W85969  24.520   5.381   1.793
20809W        W85970  15.012  37.857  14.418
20810W        W85971   7.314  38.017   4.022
20811W        W85972  36.688   0.345  11.469
20812W        W85973  30.081  36.389  14.514
20813W        W85974  44.329   6.053  12.692
20814W        W85975  43.052  35.862   2.503
20815W        W85976   3.420  27.111  14.338
20816W        W85977  15.304  37.272   0.740
20817W        W85978   3.781  30.821  13.337
20818W        W85979  41.297  18.457   2.196
20819W        W85980   1.413  38.607  13.939
20820W        W85981  18.639   5.641   3.589
20821W        W85982  13.875   7.456  10.980
20822W        W85983   1.923  31.918   0.492
20823W        W85984  24.559  17.181  12.935
20824W        W85985  11.890  37.793   4.540
20825W        W85986  28.183  12.251   0.280
20826W        W85987   6.081  30.149   3.639
20827W        W85988  25.190  15.713   0.807
20828W        W85989   1.497  33.326  12.017
20829W        W85990  13.858  28.416  12.480
20830W        W85991  40.257  10.736  11.433
20831W        W85992  27.313   1.799  12.572
20832W        W85993  12.624  42.359  13.878
20833W        W85994   7.140  37.562   4.272
20834W        W85995  12.424  39.756   3.152
20835W        W85996  35.580  24.131   3.221
20836W        W85997  37.479  34.160   2.712
20837W        W85998  40.515  35.859   5.058
20838W        W85999  20.235  27.423  10.638
20839W        W86000  13.219  26.371  12.950
20840W        W86001  12.558  34.175  13.323
20841W        W86002  17.317  21.745   4.052
20842W        W86003  32.211  40.335  14.447
20843W        W86004  17.014  25.291   4.174
20844W        W86005   5.626  28.138   5.134
20845W        W86006  28.375  26.462   5.175
20846W        W86007  43.090  23.827  11.973
20847W        W86008  17.059  42.370  14.416
20848W        W86009  17.607  41.775  14.477
20849W        W86010  11.186  20.101  14.901
20850W        W86011   1.770  39.996   0.456
20851W        W86012  23.176   7.261  14.473
20852W        W86013  22.189   4.585  10.359
20853W        W86014   9.721  27.050   4.388
20854W        W86015   8.156  17.862   0.826
20855W        W86016  38.935  40.969   0.312
20856W        W86017   4.297  11.190  13.013
20857W        W86018  10.851  17.662   4.755
20858W        W86019  34.878  25.352   1.980
20859W        W86020   4.197  31.181   0.973
20860W        W86021  22.513  12.279  13.069
20861W        W86022  18.178  43.748  11.785
20862W        W86023   4.531   3.672  11.484
20863W        W86024   4.215  36.958  13.379
20864W        W86025   7.802  19.757  14.223
20865W        W86026  15.546  42.492   4.312
20866W        W86027  35.720  15.755  13.345
20867W        W86028  26.032  44.974  14.884
20868W        W86029  17.355  31.349  12.279
20869W        W86030   7.878  42.593  11.617
20870W        W86031  11.406  21.243  14.341
20871W        W86032  33.827  32.129   2.772
20872W        W86033  21.335  12.839   4.685
20873W        W86034  19.867  40.472   0.430
20874W        W86035  10.152   2.845   4.591
20875W        W86036  10.876  37.104   4.186
20876W        W86037  14.429  20.714   4.499
20877W        W86038  14.896   1.821  11.955
20878W        W86039  38.453   2.744   0.011
20879W        W86040  32.479  34.029   4.190
20880W        W86041   7.883   0.754  11.146
20881W        W86042  15.322  15.528   2.476
20882W        W86043   2.266  33.894  13.402
20883W        W86044   9.732   5.259  14.791
20884W        W86045   7.473   6.477   0.396
20885W        W86046   0.052  17.142  10.619
20886W        W86047  23.893  37.566   0.668
20887W        W86048   8.821  23.145   0.704
20888W        W86049  32.055   4.413   4.294
20889W        W86050  14.011  30.966   0.144
20890W        W86051  42.550  35.104  12.666
20891W        W86052  44.970  27.623   0.976
20892W        W86053  15.570  27.310   1.898
20893W        W86054  16.915  44.210   0.332
20894W        W86055   0.306  32.159   4.594
20895W        W86056  17.251  10.387   1.474
20896W        W86057   2.977  37.486   4.129
20897W        W86058  17.544   3.117  11.541
20898W        W86059  25.114  36.733   9.797
20899W        W86060  41.288   2.255   1.731
20900W        W86061  36.616  14.216   2.770
20901W        W86062   4.373  29.171  14.888
20902W        W86063   1.008  31.032   0.860
20903W        W86064  35.976  19.245  12.869
20904W        W86065  18.597  29.105  13.001
20905W        W86066  27.466  20.092  11.680
20906W        W86067  22.025  26.283  13.078
20907W        W86068  15.650   3.210  14.905
20908W        W86069  32.120  28.576  11.047
20909W        W86070  16.212  36.383   3.311
20910W        W86071  30.106  43.732  10.748
20911W        W86072   6.292  18.122   4.693
20912W        W86073  11.314  18.017  10.649
20913W        W86074   0.355  23.431   2.817
20914W        W86075  43.461   9.361   2.447
20915W        W86076   8.727  42.622  10.996
20916W        W86077  12.841  27.206   4.321
20917W        W86078  35.783  22.619  11.231
20918W        W86079  25.527  23.961  13.144
20919W        W86080  32.239  36.473  11.580
20920W        W86081  29.947  40.339  13.857
20921W        W86082  40.096  12.352  14.033
20922W        W86083  35.353  40.982   4.587
20923W        W86084  42.771  14.214   4.233
20924W        W86085  38.632   1.085  11.700
20925W        W86086  24.185  29.102  11.454
20926W        W86087  17.324  30.566  13.379
20927W        W86088  16.573  16.041   9.963
20928W        W86089  44.862  35.691   2.808
20929W        W86090   9.887   9.645  12.072
20930W        W86091   8.429  28.917   1.898
20931W        W86092  21.409  42.511   3.271
20932W        W86093  16.089  38.475   2.257
20933W        W86094   5.233  29.113   3.771
20934W        W86095  19.127   7.412   2.159
20935W        W86096  27.928  37.095  10.768
20936W        W86097  10.376  42.768  12.448
20937W        W86098  19.043  28.460  12.500
20938W        W86099  35.328  38.292   2.264
20939W        W86100  26.089  14.506   2.931
20940W        W86101  21.879  42.757   5.003
20941W        W86102  41.499  17.572   0.195
20942W        W86103  36.962  31.855  11.121
20943W        W86104  34.454  41.239   3.193
20944W        W86105  18.587  29.956   3.117
20945W        W86106  22.656  44.510  12.024
20946W        W86107  41.963  28.630   0.991
20947W        W86108  21.213  15.782   4.341
20948W        W86109  37.208  13.448  10.695
20949W        W86110  14.419   2.900   0.768
20950W        W86111  44.688  39.086   0.082
20951W        W86112  34.550  35.875  11.570
20952W        W86113  18.069  38.478   2.132
20953W        W86114  37.494  28.115   2.128
20954W        W86115  28.343  29.084  11.156
20955W        W86116  28.493   3.844   2.166
20956W        W86117  17.028  30.381   1.471
20957W        W86118   7.859  33.477   4.241
20958W        W86119   6.907  14.809   2.693
20959W        W86120  25.923   6.299   1.741
20960W        W86121  12.432  30.036  12.903
20961W        W86122   1.914  34.193   3.171
20962W        W86123  35.445   5.020   0.495
20963W        W86124  30.794  37.586   4.842
20964W        W86125  20.289  31.577   0.844
20965W        W86126  37.455  11.044   1.885
20966W        W86127  31.322  39.913  14.882
20967W        W86128  32.064  44.129   4.237
20968W        W86129  31.509   6.759   4.701
20969W        W86130  11.341  40.858  13.439
20970W        W86131   8.709  38.371  11.362
20971W        W86132  18.669  13.344   1.049
20972W        W86133  38.401  32.528   2.598
20973W        W86134   6.443  11.613   4.230
20974W        W86135  30.973  29.103   2.849
20975W        W86136  31.924  28.200   0.353
20976W        W86137   5.233  32.255  10.692
20977W        W86138  20.673  39.928  14.583
20978W        W86139  41.538  17.772   1.353
20979W        W86140   2.433  32.057  13.010
20980W        W86141  12.586   1.723   2.221
20981W        W86142  25.462   6.839   4.169
20982W        W86143  34.799  35.292  13.787
20983W        W86144  37.114  15.639  12.014
20984W        W86145   6.849   2.697  12.346
20985W        W86146  41.592   3.942   2.727
20986W        W86147  27.152  43.515   2.155
20987W        W86148  25.168  32.048  10.915
20988W        W86149   2.852  14.055  14.447
20989W        W86150  28.121  12.274   1.698
20990W        W86151  15.212  16.333  14.421
20991W        W86152   9.775  32.554  11.405
20992W        W86153  39.252  35.712   1.889
20993W        W86154  12.674  17.553  13.523
20994W        W86155  30.156  16.047  11.192
20995W        W86156   1.805  18.823   4.759
20996W        W86157  22.439  43.088   1.728
20997W        W86158   0.500   7.305  11.680
20998W        W86159   5.812  13.894   4.961
20999W        W86160  11.761  44.063  10.734
21000W        W86161   8.961  17.558   3.425
21001W        W86162   6.871  20.774   1.354
21002W        W86163  42.841  38.985  13.148
21003W        W86164   3.259  31.227   4.990
21004W        W86165  37.556  43.635   2.638
21005W        W86166  15.697  17.038  14.092
21006W        W86167  14.661  18.687   0.741
21007W        W86168  14.590  10.367  13.559
21008W        W86169   3.673   9.466   3.361
21009W        W86170   6.757  30.289  11.194
21010W        W86171   8.500  23.447   0.422
21011W        W86172  30.018  10.134   4.362
21012W        W86173  25.913  35.486  13.974
21013W        W86174  10.405  34.565  14.928
21014W        W86175  21.675  39.033   3.379
21015W        W86176  32.554   3.217   0.799
21016W        W86177  37.056   3.753   1.739
21017W        W86178  12.957  36.433  12.445
21018W        W86179  13.348  11.708  14.957
21019W        W86180  25.910   0.571   2.435
21020W        W86181  37.026   9.409  12.053
21021W        W86182  34.992  37.712  10.666
21022W        W86183  30.636  43.674   4.233
21023W        W86184  41.986  18.197  11.136
21024W        W86185  38.142  21.165   3.595
21025W        W86186  16.215  11.838   3.848
21026W        W86187  11.416  39.043  11.099
21027W        W86188  42.373  22.669   1.657
21028W        W86189  35.736  38.331   5.060
21029W        W86190  20.322  23.748   1.946
21030W        W86191  14.276   4.988   4.763
21031W        W86192   6.423  23.805  12.313
21032W        W86193  41.263  39.819   9.409
21033W        W86194  29.824   3.099   0.597
21034W        W86195   3.123  27.936   4.226
21035W        W86196  39.128  18.287   9.949
21036W        W86197   6.784  35.806   2.678
21037W        W86198  28.023   9.403   3.692
21038W        W86199  42.771  16.376   2.233
21039W        W86200   3.334  19.145  13.264
21040W        W86201  24.208   0.762   1.633
21041W        W86202  40.382  36.825  12.077
21042W        W86203  27.744  30.843  14.515
21043W        W86204  14.151  30.559  13.992
21044W        W86205   2.481  35.759   0.732
21045W        W86206  21.637   1.082   3.359
21046W        W86207  29.604  22.274  11.989
21047W        W86208  14.753  26.964  11.185
21048W        W86209   5.892  31.863  14.886
21049W        W86210   4.194  22.003   4.692
21050W        W86211  14.885  19.727  14.823
21051W        W86212  39.410  31.188   2.354
21052W        W86213  39.822   2.378   1.767
21053W        W86214  12.702  39.723   3.622
21054W        W86215  14.504  23.801   2.368
21055W        W86216  26.211  34.868  12.457
21056W        W86217  44.936  13.824   0.662
21057W        W86218  40.934  43.807  14.536
21058W        W86219   9.957  13.340  11.992
21059W        W86220   1.298  31.896   4.111
21060W        W86221  44.927   6.244   4.600
21061W        W86222  20.165   2.252  11.939
21062W        W86223   2.811  17.120  10.155
21063W        W86224  37.563   5.640   2.790
21064W        W86225   3.399  38.516   3.796
21065W        W86226  20.684  13.168  10.513
21066W        W86227  40.790  14.281   1.208
21067W        W86228  31.499  20.939  14.400
21068W        W86229   1.966  26.217   2.308
21069W        W86230  30.080  36.873  14.750
21070W        W86231  35.824  42.618   1.178
21071W        W86232   2.511   8.895   5.107
21072W        W86233  11.467  11.009  11.941
21073W        W86234  36.416  12.236  13.459
21074W        W86235   6.921   6.758  13.336
21075W        W86236  22.153  39.508  12.204
21076W        W86237  39.417  38.087  11.404
21077W        W86238   9.381  39.825  11.143
21078W        W86239  16.551  44.551   2.383
21079W        W86240  16.736  40.553   1.937
21080W        W86241  10.620  43.404   3.617
21081W        W86242  35.774  30.899   1.225
21082W        W86243  33.596  23.000   1.025
21083W        W86244  19.154   1.949   1.272
21084W        W86245  22.075  12.164  13.322
21085W        W86246  40.882  20.743  14.524
21086W        W86247   9.408  41.798   5.291
21087W        W86248  17.124  28.123   2.637
21088W        W86249  11.879   0.050  13.080
21089W        W86250  28.875  43.349  11.033
21090W        W86251  20.605  28.106   1.282
21091W        W86252   1.574  32.468  13.895
21092W        W86253  22.599  14.899   1.370
21093W        W86254  29.062  30.002   4.863
21094W        W86255  36.836  44.213   3.632
21095W        W86256   1.966   4.983  13.365
21096W        W86257  29.569  22.697   0.254
21097W        W86258  24.686   8.562   4.179
21098W        W86259  13.775  27.606  13.923
21099W        W86260  37.567  25.039   3.207
21100W        W86261   4.713  36.401   3.261
21101W        W86262  38.530  33.883   0.791
21102W        W86263  40.060  29.058   4.200
21103W        W86264  32.570  19.857  12.021
21104W        W86265  20.995  22.943   0.660
21105W        W86266  17.188  16.283  13.429
21106W        W86267   1.715  30.021  10.989
21107W        W86268  15.836  20.284   1.733
21108W        W86269  32.231   8.121  12.682
21109W        W86270  13.317  33.400  11.012
21110W        W86271   9.880  24.598  10.412
21111W        W86272   1.834  25.228   3.051
21112W        W86273  22.228  12.856   4.660
21113W        W86274  29.388  28.475  12.059
21114W        W86275  43.130  41.708   4.290
21115W        W86276   6.888  17.352   4.514
21116W        W86277  20.471  29.111  14.643
21117W        W86278  38.454   1.974   1.753
21118W        W86279  34.477  33.707  12.053
21119W        W86280  37.841  35.997  14.958
21120W        W86281  28.378  14.071   2.297
21121W        W86282  15.414   8.694  14.795
21122W        W86283   8.354  36.071   0.560
21123W        W86284   7.956   9.238   0.346
21124W        W86285   4.422  21.999   1.640
21125W        W86286   2.947   2.700  11.255
21126W        W86287   0.211  29.096  14.447
21127W        W86288  31.913  38.979  14.735
21128W        W86289  19.828  34.165  11.584
21129W        W86290  27.259   3.957  11.558
21130W        W86291  15.808  34.987   1.669
21131W        W86292   9.964  34.443   0.126
21132W        W86293   6.657   3.650  14.448
21133W        W86294  26.487  40.879   0.376
21134W        W86295   4.379  16.293   4.458
21135W        W86296   2.334   8.189   0.500
21136W        W86297  28.207  39.838   1.249
21137W        W86298  14.233  41.271   0.251
21138W        W86299  43.465   9.152   2.931
21139W        W86300   5.496  36.712   4.181
21140W        W86301  33.557  40.871   3.703
21141W        W86302  29.450  44.771   2.789
21142W        W86303  38.248  35.011   2.603
21143W        W86304   9.445   7.996  14.898
21144W        W86305  41.543  16.796   4.108
21145W        W86306   2.279  10.148   3.812
21146W        W86307  24.735   7.437   0.411
21147W        W86308  19.595   5.994  13.792
21148W        W86309  18.295  15.772  14.048
21149W        W86310   0.794  22.462   1.829
21150W        W86311  15.241  18.121  14.801
21151W        W86312   2.393   1.017   0.907
21152W        W86313  31.907  14.582  14.832
21153W        W86314  36.430   7.982   1.711
21154W        W86315  25.388   5.038  11.049
21155W        W86316  32.546  34.477   0.919
21156W        W86317   5.806  44.034  11.662
21157W        W86318  16.152  10.758  12.431
21158W        W86319   3.840  17.617  10.727
21159W        W86320  38.488  18.066   1.309
21160W        W86321  26.774  11.764  14.547
21161W        W86322  33.830  33.011  14.980
21162W        W86323   7.844   3.677  11.942
21163W        W86324  23.035  11.920   5.048
21164W        W86325  42.852  10.808  13.329
21165W        W86326  40.552  33.805   3.754
21166W        W86327  40.234  10.145  10.344
21167W        W86328  20.559   8.834   1.147
21168W        W86329  14.529   2.184  10.591
21169W        W86330  11.185  11.566   3.185
21170W        W86331   5.656  31.806  12.937
21171W        W86332  38.482  23.087   3.192
21172W        W86333  19.105   9.352   4.860
21173W        W86334  40.987  40.764   0.436
21174W        W86335   1.330  39.271  11.506
21175W        W86336  40.012  26.331   4.584
21176W        W86337  25.474  28.934  14.995
21177W        W86338   0.006  32.606   0.701
21178W        W86339  43.594  43.331  13.831
21179W        W86340  32.675  15.200  12.500
21180W        W86341   1.599  18.396  10.981
21181W        W86342  44.988  22.458  14.966
21182W        W86343  31.412   5.415   1.855
21183W        W86344  44.874   5.362   4.119
21184W        W86345  34.500  21.232   3.064
21185W        W86346  14.622  14.228  11.600
21186W        W86347  30.309   9.998  12.906
21187W        W86348  13.286  22.214  13.829
21188W        W86349  20.761  33.829  11.682
21189W        W86350   6.688   8.361  12.889
21190W        W86351  43.013  16.263   1.297
21191W        W86352  30.383  41.912   0.274
21192W        W86353   5.975  11.259   4.260
21193W        W86354  27.254  40.921   0.004
21194W        W86355  18.803  21.293  11.553
21195W        W86356  44.565  25.230  14.907
21196W        W86357  43.062  21.037  12.836
21197W        W86358  16.621  20.035  12.150
21198W        W86359  34.451  36.619   0.780
21199W        W86360  31.707  23.447   2.134
21200W        W86361  21.960  24.928  11.207
21201W        W86362  40.889  31.146   3.801
21202W        W86363  33.520  17.582  14.821
21203W        W86364  16.749  13.098   0.587
21204W        W86365  32.445  16.565  14.185
21205W        W86366  25.572  27.743  13.360
21206W        W86367  42.912  25.070   0.774
21207W        W86368  12.780  26.892  14.847
21208W        W86369   2.116   3.014  13.275
21209W        W86370   6.091   2.347   1.784
21210W        W86371  12.839   3.777   1.717
21211W        W86372  27.753  19.752  11.938
21212W        W86373  16.649  15.178   3.157
21213W        W86374  24.451  17.060   0.255
21214W        W86375   2.366   1.506   2.359
21215W        W86376   6.763   0.655  10.758
21216W        W86377   3.514  41.047   1.403
21217W        W86378  39.763  35.319   1.391
21218W        W86379   9.337  27.263   4.652
21219W        W86380  27.636  13.463  12.447
21220W        W86381  15.635  33.060  13.661
21221W        W86382  40.671  41.576  11.663
21222W        W86383  14.117   9.412   1.331
21223W        W86384  33.341  14.395  14.070
21224W        W86385  14.737  33.155  11.176
21225W        W86386  19.163  25.690   3.218
21226W        W86387  10.919  36.935   0.875
21227W        W86388  41.753   7.712  13.503
21228W        W86389  32.458   8.309   0.405
21229W        W86390  32.882  29.135  13.394
21230W        W86391  21.844  37.812  13.143
21231W        W86392  17.817  25.090   0.733
21232W        W86393  30.088   9.890  14.428
21233W        W86394  29.468  40.525  13.819
21234W        W86395  34.116   1.469  13.920
21235W        W86396  11.276  41.185  11.431
21236W        W86397  35.588  29.459   0.634
21237W        W86398   9.076  32.095  11.222
21238W        W86399  26.733   9.172   1.307
21239W        W86400   5.862  17.643   0.778
21240W        W86401  25.192  25.243   0.727
21241W        W86402  44.635   1.212   3.752
21242W        W86403  36.515  10.761  12.694
21243W        W86404  24.250  18.937  10.972
21244W        W86405   9.638   4.796   4.061
21245W        W86406  39.611  15.432   2.409
21246W        W86407  30.683   7.255   1.099
21247W        W86408  32.470  40.963  13.877
21248W        W86409   8.418   9.312   3.675
21249W        W86410  30.797  27.698  12.802
21250W        W86411   7.123  44.624   3.790
21251W        W86412  33.124  32.290  11.409
21252W        W86413   2.871  23.534   2.747
21253W        W86414   3.031  16.490  12.441
21254W        W86415   5.494  39.596  13.440
21255W        W86416  39.000  20.221   0.775
21256W        W86417  11.783  16.541   2.341
21257W        W86418  21.760  20.154  13.243
21258W        W86419   1.005  39.350  14.696
21259W        W86420  26.452  26.308   0.461
21260W        W86421  21.179  14.614   2.846
21261W        W86422  40.431  20.703  14.818
21262W        W86423  35.411  10.724   2.402
21263W        W86424  12.904   7.850   2.159
21264W        W86425   2.731   0.792   3.897
21265W        W86426  24.951  10.164  12.457
21266W        W86427  36.015  23.612  13.870
21267W        W86428   0.487  37.896   0.314
21268W        W86429   9.264   3.648   2.402
21269W        W86430  37.368  36.444  12.109
21270W        W86431  22.186   0.646   2.651
21271W        W86432   9.594  43.919  12.852
21272W        W86433   2.272  12.894  14.991
21273W        W86434  22.588  28.052   3.370
21274W        W86435  42.104   3.090   4.114
21275W        W86436  31.884  37.400   0.055
21276W        W86437  38.425   9.193  10.773
21277W        W86438  18.831  30.721   3.189
21278W        W86439  18.534  26.260  12.916
21279W        W86440   4.868  11.333   1.302
21280W        W86441  37.109  39.478   4.061
21281W        W86442   7.331  44.826  12.898
21282W        W86443   5.194  27.893  11.645
21283W        W86444  42.519  33.555  14.263
21284W        W86445  28.492  38.367  13.921
21285W        W86446   3.167  25.312   1.501
21286W        W86447  39.491  17.633   4.112
21287W        W86448   7.909  34.478   1.667
21288W        W86449  21.044  38.556   3.718
21289W        W86450   4.889   2.245  13.164
21290W        W86451  31.596  25.466   1.751
21291W        W86452  38.371  41.965   2.324
21292W        W86453  16.676  31.287   0.677
21293W        W86454  11.173   4.970   4.200
21294W        W86455  26.561   3.522   1.215
21295W        W86456  18.779  10.841  12.435
21296W        W86457   2.952  17.154   5.058
21297W        W86458  23.107  30.565   1.235
21298W        W86459  10.381   6.109   2.389
21299W        W86460  11.652  41.728   2.693
21300W        W86461   7.255  12.742   2.978
21301W        W86462   4.942  23.619  10.302
21302W        W86463   6.299   0.937  14.822
21303W        W86464  42.531   9.944   4.669
21304W        W86465  20.381  16.538   3.645
21305W        W86466  27.194   0.757   4.148
21306W        W86467  17.844  12.367   2.471
21307W        W86468   4.392  43.761  13.240
21308W        W86469   0.440  33.476  12.000
21309W        W86470  28.628  27.995   4.550
21310W        W86471  15.031  35.451   1.462
21311W        W86472  32.397  34.521  14.537
21312W        W86473  43.535  26.147   0.936
21313W        W86474  39.090   9.652   2.879
21314W        W86475  27.348   7.438   1.233
21315W        W86476  16.306  26.554  12.629
21316W        W86477  22.722  42.354  13.465
21317W        W86478  21.031   7.225   1.425
21318W        W86479   7.348  38.096  13.280
21319W        W86480  24.676   3.344   2.854
21320W        W86481  29.704  16.772  11.012
21321W        W86482  13.746  28.612   0.465
21322W        W86483  37.884  30.822   4.213
21323W        W86484  29.151   1.058   3.336
21324W        W86485  39.341   5.435   0.209
21325W        W86486   5.665  21.473  12.895
21326W        W86487  24.161  32.504  12.857
21327W        W86488   5.665  22.167  11.240
21328W        W86489  41.811   0.472   0.432
21329W        W86490  25.054  15.617  11.521
21330W        W86491  38.823  33.122  11.639
21331W        W86492  32.470  33.561   3.960
21332W        W86493  10.644   4.134   2.334
21333W        W86494  28.730   6.420  11.022
21334W        W86495  15.657  17.412  13.258
21335W        W86496  27.423  34.967   1.439
21336W        W86497  33.180  19.260  10.747
21337W        W86498  37.369  39.993  12.042
21338W        W86499   4.985  23.659  11.549
21339W        W86500   5.014  28.027  14.432
21340W        W86501   8.441  27.625  14.766
21341W        W86502  25.910   1.914   0.035
21342W        W86503  32.693  16.642   0.485
21343W        W86504  32.286  16.083  11.144
21344W        W86505  37.604  36.482  14.813
21345W        W86506  30.765  42.700  11.540
21346W        W86507  37.517  27.937  14.052
21347W        W86508  20.584   4.248   4.856
21348W        W86509  20.368  36.478   4.852
21349W        W86510   4.881  13.714   1.378
21350W        W86511  35.124  23.482  14.230
21351W        W86512   3.008  22.265   0.863
21352W        W86513  44.817  35.125   3.623
21353W        W86514  40.743   2.983  11.277
21354W        W86515  16.230   0.131  11.212
21355W        W86516  38.460  41.203   0.727
21356W        W86517  19.242  15.037   4.350
21357W        W86518   3.807  27.982   2.794
21358W        W86519   8.873  14.126  13.968
21359W        W86520  41.892  32.512  10.927
21360W        W86521   6.278  30.631   4.531
21361W        W86522  27.747  28.467   0.779
21362W        W86523  22.029  25.695  14.013
21363W        W86524  26.210  17.965   2.301
21364W        W86525  19.164   8.138  13.279
21365W        W86526  40.402  44.751   3.161
21366W        W86527  44.119  27.079  11.933
21367W        W86528  37.989   6.895  10.471
21368W        W86529  33.906  38.490   0.728
21369W        W86530  37.832   2.007   1.438
21370W        W86531   5.202  14.345   1.462
21371W        W86532  36.916  40.308   4.929
21372W        W86533  29.163  12.807  11.988
21373W        W86534   4.771  21.711  11.181
21374W        W86535  20.678  24.506   1.403
21375W        W86536  13.378  16.746  14.283
21376W        W86537  14.239  23.292  14.381
21377W        W86538  18.644   6.798  14.543
21378W        W86539   4.615  33.563   2.419
21379W        W86540  10.196  28.436   0.279
21380W        W86541  42.072  25.172  11.995
21381W        W86542  21.437  16.087  11.233
21382W        W86543  44.967  39.438   1.883
21383W        W86544  23.788   2.961  11.801
21384W        W86545  31.022  11.765   1.278
21385W        W86546   6.230  29.174  12.992
21386W        W86547  29.749  25.497  13.330
21387W        W86548  33.432  13.674  14.355
21388W        W86549  29.586  18.732   4.898
21389W        W86550  39.289  10.511  11.516
21390W        W86551  20.690  30.044  14.206
21391W        W86552  16.450  24.487   3.181
21392W        W86553   5.661  32.962   0.811
21393W        W86554  25.241  29.631   0.532
21394W        W86555  26.217  41.705   0.311
21395W        W86556   3.803   4.942   4.564
21396W        W86557  18.274   3.971   1.479
21397W        W86558   1.498  12.548  11.591
21398W        W86559  20.226   8.202   0.913
21399W        W86560  19.234  11.441  10.687
21400W        W86561   9.806  16.195   0.403
21401W        W86562  28.987  17.977   1.246
21402W        W86563  10.267   0.465  13.988
21403W        W86564  38.379  33.535   2.919
21404W        W86565  38.614  41.387  14.326
21405W        W86566  39.209  16.504   2.860
21406W        W86567  18.132  17.252   1.881
21407W        W86568   4.198  40.503   1.170
21408W        W86569  33.567  17.522  12.466
21409W        W86570  29.183  13.155   1.684
21410W        W86571   2.309  21.798   4.620
21411W        W86572  33.266  40.540  10.321
21412W        W86573   0.860   3.975   2.737
21413W        W86574  32.633   7.802   4.552
21414W        W86575  23.702  26.494  10.719
21415W        W86576   3.966  21.684  13.043
21416W        W86577  15.309  17.597  14.947
21417W        W86578  27.645   1.483  11.993
21418W        W86579  14.151  42.376   5.453
21419W        W86580   7.791   5.343  11.638
21420W        W86581  13.177  41.990  10.601
21421W        W86582  12.742  10.152  13.889
21422W        W86583   2.511  35.503  10.600
21423W        W86584  17.495  19.345  14.817
21424W        W86585  22.953  43.724  11.862
21425W        W86586  14.812  32.489   3.134
21426W        W86587  35.989  31.283  12.056
21427W        W86588  13.542  17.964  10.319
21428W        W86589  24.649   2.848   1.399
21429W        W86590  10.927   4.408   3.306
21430W        W86591  12.863   5.281  11.482
21431W        W86592  36.550  13.057   4.952
21432W        W86593  27.319  40.269  14.299
21433W        W86594  14.646   3.819  12.906
21434W        W86595  12.988  19.908  11.058
21435W        W86596  14.762  29.971   1.809
21436W        W86597  20.939  36.749   1.302
21437W        W86598   0.127  18.760   0.730
21438W        W86599  30.727  39.433   5.067
21439W        W86600  26.093  37.469  10.272
21440W        W86601   4.383  21.496   4.837
21441W        W86602  42.445  30.037   4.812
21442W        W86603  26.508  15.648  10.557
21443W        W86604  20.228  25.405   1.266
21444W        W86605   4.114  17.463   1.307
21445W        W86606  40.689  29.584  14.784
21446W        W86607   2.993   9.413  14.536
21447W        W86608   5.159  23.670   5.068
21448W        W86609   3.643  34.428   4.244
21449W        W86610  24.563  10.185   4.620
21450W        W86611  31.886  42.738  10.666
21451W        W86612  10.331   6.168  11.900
21452W        W86613  33.594  26.579  10.529
21453W        W86614  35.894  13.806  11.444
21454W        W86615  21.819  13.030  14.283
21455W        W86616  31.366  43.692  13.962
21456W        W86617  34.951  37.322   3.697
21457W        W86618  35.990  32.645  13.856
21458W        W86619  44.677  22.388  12.628
21459W        W86620  31.223  30.474  11.399
21460W        W86621  14.239  34.957   3.109
21461W        W86622  23.804  41.111   1.935
21462W        W86623  34.764  25.200   5.187
21463W        W86624   0.171  34.677   4.335
21464W        W86625   2.699  13.554  10.338
21465W        W86626  44.931  42.677  13.965
21466W        W86627  33.866  40.675   4.456
21467W        W86628  37.638  31.064   0.845
21468W        W86629  10.721   7.907   4.767
21469W        W86630   8.029  24.721   0.924
21470W        W86631   1.836   6.318  13.802
21471W        W86632  18.922  17.227   3.145
21472W        W86633  34.211  38.004  13.904
21473W        W86634  38.579  39.528  13.852
21474W        W86635  18.707  29.682   5.022
21475W        W86636  26.745  33.807   1.423
21476W        W86637   0.786  23.230  12.502
21477W        W86638  29.453   0.210   4.053
21478W        W86639  37.336  28.923   3.161
21479W        W86640  43.469  18.729   3.162
21480W        W86641  37.091  24.307   4.172
21481W        W86642   4.728  44.801  11.990
21482W        W86643  35.597  42.845   2.296
21483W        W86644  39.028  31.525  13.382
21484W        W86645  10.802  34.111   4.736
21485W        W86646  38.247  23.050   4.108
21486W        W86647  11.562  39.492   4.702
21487W        W86648  40.350  19.018   1.533
21488W        W86649  44.110  38.082   3.537
21489W        W86650  32.309   5.048   2.851
21490W        W86651  21.778   7.182   0.694
21491W        W86652  39.899  32.471   4.458
21492W        W86653  11.943  36.241   0.586
21493W        W86654  21.190   7.167  14.851
21494W        W86655  28.654  11.865  11.961
21495W        W86656  22.653  15.442   0.466
21496W        W86657  42.313   4.894   2.069
21497W        W86658  21.057  10.273   0.440
21498W        W86659  27.585  36.351  10.324
21499W        W86660  37.465  32.206  13.096
21500W        W86661  11.800  29.165  10.531
21501W        W86662   1.901  38.033  12.494
21502W        W86663   1.263  21.526   2.721
21503W        W86664   0.757   7.942   4.098
21504W        W86665  21.174  22.591   0.277
21505W        W86666  21.310  26.567  14.383
21506W        W86667  43.820  10.779  13.995
21507W        W86668  40.721   4.285  14.099
21508W        W86669   5.817  36.581   2.760
21509W        W86670  20.207  38.561   3.378
21510W        W86671  10.714  15.338  14.418
21511W        W86672   7.407  26.566  10.015
21512W        W86673  29.004  22.864   2.127
21513W        W86674  38.018  41.407  12.289
21514W        W86675   3.358  37.965   2.346
21515W        W86676   1.079  42.893   3.816
21516W        W86677   1.781  12.863   1.808
21517W        W86678   0.606  11.570  11.650
21518W        W86679  37.850  36.602  14.372
21519W        W86680  15.526  22.509   3.705
21520W        W86681  42.926  28.883  14.691
21521W        W86682   5.779  33.971   4.638
21522W        W86683  37.000   5.802   4.913
21523W        W86684  36.429  33.376   0.355
21524W        W86685  13.614  36.549   2.488
21525W        W86686   8.843   3.409  10.510
21526W        W86687  20.588  25.176   0.814
21527W        W86688   6.369  15.153   4.886
21528W        W86689  10.327  16.291  10.548
21529W        W86690  17.241  28.440   0.201
21530W        W86691  13.973  15.372   0.173
21531W        W86692  23.348  26.521   2.827
21532W        W86693  26.506  14.661  14.587
21533W        W86694   7.739  24.151  10.759
21534W        W86695  35.077   4.472  14.611
21535W        W86696  34.739   6.734   3.339
21536W        W86697  16.307  36.017   0.249
21537W        W86698  18.032   7.167   1.748
21538W        W86699   6.694  26.005   0.718
21539W        W86700  10.693  34.047  13.038
21540W        W86701  36.009  21.159   1.393
21541W        W86702   2.726  11.230   2.708
21542W        W86703  26.427  25.111   4.956
21543W        W86704   9.714  23.739  11.053
21544W        W86705  34.993  29.026   3.209
21545W        W86706   2.711   2.262  12.962
21546W        W86707  27.108  42.808   0.390
21547W        W86708  11.352  18.781   4.036
21548W        W86709  44.216  15.417   2.071
21549W        W86710  21.944  40.246   2.716
21550W        W86711  26.200  34.504  12.962
21551W        W86712   0.494  39.730   3.921
21552W        W86713  14.962   8.290   4.766
21553W        W86714  21.149  32.092   4.575
21554W        W86715  41.240  34.294  12.542
21555W        W86716  36.596  10.068  14.786
21556W        W86717   2.696   0.397  13.045
21557W        W86718  15.546   8.076   4.058
21558W        W86719   4.917  26.653  12.817
21559W        W86720  30.151  41.223   2.771
21560W        W86721   9.243  30.016  13.098
21561W        W86722  14.739  11.986   1.157
21562W        W86723   6.429  15.123  13.118
21563W        W86724  14.380  15.009  12.805
21564W        W86725  14.325   4.951   3.800
21565W        W86726  25.724  18.723  10.650
21566W        W86727   5.489   1.518   3.205
21567W        W86728  12.094  32.907  12.896
21568W        W86729  29.454  22.436   0.708
21569W        W86730  28.267  10.630  11.565
21570W        W86731  44.931   9.962   0.968
21571W        W86732  42.214  26.714  13.480
21572W        W86733   2.788  23.214   0.172
21573W        W86734  14.053  31.408   2.394
21574W        W86735  32.173  43.888  14.392
21575W        W86736   6.618  35.016   1.786
21576W        W86737  21.989  12.759  10.105
21577W        W86738   4.462   3.502   3.701
21578W        W86739  25.583  12.102  14.250
21579W        W86740   7.319  21.233  14.954
21580W        W86741  17.097  17.100  12.758
21581W        W86742   0.359  17.747  12.672
21582W        W86743  35.342  29.530   0.199
21583W        W86744  33.081  27.866  12.998
21584W        W86745  15.374   0.168  11.176
21585W        W86746  11.729  28.578   0.567
21586W        W86747  40.783   2.433  14.477
21587W        W86748  44.584   2.438  14.425
21588W        W86749  35.054  26.677   3.764
21589W        W86750   7.392  43.195  12.492
21590W        W86751  22.260  16.270   4.512
21591W        W86752  22.240  13.506   1.647
21592W        W86753  12.456   7.497   0.984
21593W        W86754   9.396  37.064   2.892
21594W        W86755  10.834  44.019  13.482
21595W        W86756  39.945  34.492  12.071
21596W        W86757   1.015  28.550  12.946
21597W        W86758  29.807  30.148   0.706
21598W        W86759  23.573  21.202   1.162
21599W        W86760   8.762  22.982  11.572
21600W        W86761   0.138  43.897   3.603
21601W        W86762  29.715  13.814   0.293
21602W        W86763  19.114  25.972   4.538
21603W        W86764  34.009   0.680  13.393
21604W        W86765  19.497  25.919  13.079
21605W        W86766  39.369  35.314  12.920
21606W        W86767  44.607   6.824  14.951
21607W        W86768   2.856  15.599   2.780
21608W        W86769  32.462  40.858   2.677
21609W        W86770  23.057   0.043  11.535
21610W        W86771  40.972   9.448  11.098
21611W        W86772  10.686   8.750  14.372
21612W        W86773  39.276   7.890   3.693
21613W        W86774  43.364  14.262  12.162
21614W        W86775  43.096   2.820   2.884
21615W        W86776  35.993   4.887  11.916
21616W        W86777  30.517   8.568   0.477
21617W        W86778  29.959   5.634   3.901
21618W        W86779   7.152  13.227  11.246
21619W        W86780  23.108  39.607   2.506
21620W        W86781   9.143  37.860   0.184
21621W        W86782  24.539  31.017   1.664
21622W        W86783  18.495   9.132  14.432
21623W        W86784  34.690   5.789   1.289
21624W        W86785   7.668   0.528  12.466
21625W        W86786  31.150  20.162   2.508
21626W        W86787   9.373  25.200  12.717
21627W        W86788   1.372  37.465   5.039
21628W        W86789  21.805  36.845   9.724
21629W        W86790  33.395  11.291   3.885
21630W        W86791  36.074   6.055   2.228
21631W        W86792  15.605  38.809  14.829
21632W        W86793   4.903   9.789   3.869
21633W        W86794  44.560   5.442   3.620
21634W        W86795  10.260   7.301   0.009
21635W        W86796  36.962  34.971   1.715
21636W        W86797   3.339  20.265  12.245
21637W        W86798  21.081  33.934  12.081
21638W        W86799   9.253  13.749  10.725
21639W        W86800  21.700   7.271   4.647
21640W        W86801  38.105  44.808   1.325
21641W        W86802  29.030  37.324   3.451
21642W        W86803  38.134  24.265   0.835
21643W        W86804   2.369   4.806  12.484
21644W        W86805  41.995  20.832   2.439
21645W        W86806   2.818  14.141   3.441
21646W        W86807   6.494  25.281  12.934
21647W        W86808  30.662   7.233  13.036
21648W        W86809  43.957  40.855   0.598
21649W        W86810  38.463  12.856   2.238
21650W        W86811  30.591  19.651   2.432
21651W        W86812   8.716  21.095  11.862
21652W        W86813  20.740  17.094   2.226
21653W        W86814   3.644  22.765  10.636
21654W        W86815  10.833  29.528   1.038
21655W        W86816   4.868  17.335   0.874
21656W        W86817  21.523  26.486   2.606
21657W        W86818   2.408  21.547   0.778
21658W        W86819  12.298  18.267  13.914
21659W        W86820  13.282  22.242   0.744
21660W        W86821  18.493  29.505   4.602
21661W        W86822  38.029  29.169  13.367
21662W        W86823  14.301  28.716  11.130
21663W        W86824  16.553   0.996  12.912
21664W        W86825   8.257  19.065   2.915
21665W        W86826  14.342  30.979  12.066
21666W        W86827  27.207  41.381   0.220
21667W        W86828  17.111  14.625  14.305
21668W        W86829  21.114  29.359   2.799
21669W        W86830   0.038  28.648   3.265
21670W        W86831  30.846   4.984  14.824
21671W        W86832   2.631  28.418   0.806
21672W        W86833   4.413   7.401   4.156
21673W        W86834   9.158  39.571  12.450
21674W        W86835  39.336  40.896   1.132
21675W        W86836   3.889  14.205   5.007
21676W        W86837   2.703   3.418  12.087
21677W        W86838  20.435  41.367   3.411
21678W        W86839  39.312   0.499  10.703
21679W        W86840   2.408  19.593  13.196
21680W        W86841  20.156  12.292  14.029
21681W        W86842  19.596   0.451   1.759
21682W        W86843  25.195  17.490  14.845
21683W        W86844  13.686  37.058   2.596
21684W        W86845   0.975   4.461  11.612
21685W        W86846   7.750  26.122   0.792
21686W        W86847  43.061   2.001   3.187
21687W        W86848  24.158  44.047  11.660
21688W        W86849   5.358   3.737   2.336
21689W        W86850   0.953   1.950   4.482
21690W        W86851   0.345   9.574   4.553
21691W        W86852   7.128  42.718   3.859
21692W        W86853   1.962   2.976  11.102
21693W        W86854  12.650  44.990   0.860
21694W        W86855   5.331   4.471   4.729
21695W        W86856  21.691  17.130   3.827
21696W        W86857  35.949   1.711  13.369
21697W        W86858  44.764  28.108   0.899
21698W        W86859  33.950  31.629   4.900
21699W        W86860  28.399  38.035  11.484
21700W        W86861  22.527  16.670   3.715
21701W        W86862  17.229  32.217  14.425
21702W        W86863  17.058  22.958   1.742
21703W        W86864   2.373  23.007  12.860
21704W        W86865  15.017  25.530   0.931
21705W        W86866  27.226   8.839  14.880
21706W        W86867  27.940   6.996   0.876
21707W        W86868  42.048  17.831  13.867
21708W        W86869   2.923  23.821   3.196
21709W        W86870  33.090  26.583   4.104
21710W        W86871  26.443  35.918   1.857
21711W        W86872  21.961  42.989  11.570
21712W        W86873  43.432  23.164   3.925
21713W        W86874  16.792   6.291   0.386
21714W        W86875  25.966  34.956   1.819
21715W        W86876  25.682  44.861  13.160
21716W        W86877  26.398  42.134  12.511
21717W        W86878  27.528  12.790   0.141
21718W        W86879  39.472  28.146   0.294
21719W        W86880  18.611  34.814   4.746
21720W        W86881  40.555  36.476   1.687
21721W        W86882  20.644   9.067   4.218
21722W        W86883  12.664  18.418  10.922
21723W        W86884  40.262  16.150  10.381
21724W        W86885  20.253  21.579  13.881
21725W        W86886  15.576   7.267  12.312
21726W        W86887   5.832  21.030   3.294
21727W        W86888  18.809  18.237   0.486
21728W        W86889  34.846   1.298   4.236
21729W        W86890  22.679  39.660  13.000
21730W        W86891  31.410  41.977   0.405
21731W        W86892   5.191  17.987  12.390
21732W        W86893  28.427  23.574   2.734
21733W        W86894  17.332  22.618   2.568
21734W        W86895  27.965  34.825   1.386
21735W        W86896  42.804  30.909  11.224
21736W        W86897   4.869  24.005   9.994
21737W        W86898  34.606   5.709  10.821
21738W        W86899   7.500  10.900  14.538
21739W        W86900  37.846  42.927   2.151
21740W        W86901  30.314   0.459   4.600
21741W        W86902  25.923  19.756  12.518
21742W        W86903  20.711  38.881   1.220
21743W        W86904  24.143  36.401   0.611
21744W        W86905   4.776   0.370  11.444
21745W        W86906   4.407  21.707   3.860
21746W        W86907   5.196  24.821  12.476
21747W        W86908  13.287  43.764  14.100
21748W        W86909   1.715  24.269   3.156
21749W        W86910  40.487  29.067  13.916
21750W        W86911  23.550  17.704  12.702
21751W        W86912  11.607   1.779   1.409
21752W        W86913  43.009  18.756   4.226
21753W        W86914  43.826  33.827  11.655
21754W        W86915  39.414  22.042   2.342
21755W        W86916  31.038  32.559  10.692
21756W        W86917  22.670  43.824   0.712
21757W        W86918  24.717  34.067   2.831
21758W        W86919  13.238  13.514   1.263
21759W        W86920  15.235   4.107   4.182
21760W        W86921  26.899   2.702  11.153
21761W        W86922  31.818  15.234   3.232
21762W        W86923  33.673  23.222   3.186
21763W        W86924  38.947  27.926   0.628
21764W        W86925  40.551  13.995  12.034
21765W        W86926  21.353  26.467  12.568
21766W        W86927  16.712  26.264   4.079
21767W        W86928  44.867   7.436  10.687
21768W        W86929  37.223  30.506  14.290
21769W        W86930  13.172  10.700  11.167
21770W        W86931  30.507  13.557   4.019
21771W        W86932  17.701   3.785  12.907
21772W        W86933   7.869  29.614   4.515
21773W        W86934  37.379  35.172   2.933
21774W        W86935   3.173  30.186  10.814
21775W        W86936   1.754  23.653   0.453
21776W        W86937  16.794   6.207   2.869
21777W        W86938  19.479  11.647  12.989
21778W        W86939   6.113  20.235  13.529
21779W        W86940  39.923   4.206  10.687
21780W        W86941   7.972  17.353  12.088
21781W        W86942  22.193   4.254  13.453
21782W        W86943  29.465  32.419  12.388
21783W        W86944   8.278  40.092  11.419
21784W        W86945  11.928   9.484  11.078
21785W        W86946  12.263  11.263   0.807
21786W        W86947   6.248  11.776   3.178
21787W        W86948  11.403  32.593   2.351
21788W        W86949   5.914   2.158   3.684
21789W        W86950  21.010   4.787   1.270
21790W        W86951  22.870  22.935   2.732
21791W        W86952  16.755  43.261  14.306
21792W        W86953  34.611   8.641   3.249
21793W        W86954  19.662  40.090   2.686
21794W        W86955  36.619  26.096  13.435
21795W        W86956   2.121  37.777  13.321
21796W        W86957  18.328  37.207   3.443
21797W        W86958  25.826   4.304   0.911
21798W        W86959  18.069  10.377  12.342
21799W        W86960  24.979  34.200   2.367
21800W        W86961  35.182  33.082  14.999
21801W        W86962  26.909  12.946   5.127
21802W        W86963  34.351  42.347  10.645
21803W        W86964  28.670  18.957   2.781
21804W        W86965   0.274   7.249  14.434
21805W        W86966  42.337  31.644   1.194
21806W        W86967  10.636  34.607  13.932
21807W        W86968  44.052  38.014   0.893
21808W        W86969  18.057  26.528  11.607
21809W        W86970  35.789  21.188  10.463
21810W        W86971  17.286  18.231  12.098
21811W        W86972   5.064  39.666  11.591
21812W        W86973  19.818  34.444   1.853
21813W        W86974  37.332  23.319   1.810
21814W        W86975  43.907  36.709   3.582
21815W        W86976  16.157  13.805  14.062
21816W        W86977  27.375  27.159   0.960
21817W        W86978   2.248  19.041   2.749
21818W        W86979   5.203  29.609  12.555
21819W        W86980  23.187  27.160  14.309
21820W        W86981  25.320  38.550  11.248
21821W        W86982  43.229  27.084  10.402
21822W        W86983   0.782  44.063   1.383
21823W        W86984  44.808  39.082   4.822
21824W        W86985  42.020  44.526   2.154
21825W        W86986  37.749  21.119   1.793
21826W        W86987  14.357  37.539   2.221
21827W        W86988   6.669  32.350   4.579
21828W        W86989   4.481  18.715   1.342
21829W        W86990  37.035  42.730  14.611
21830W        W86991  29.134  38.077   9.659
21831W        W86992  35.549  31.340  11.602
21832W        W86993  43.774  14.677  10.736
21833W        W86994  12.727  28.534  12.021
21834W        W86995  36.129  33.130  13.871
21835W        W86996  13.722  32.173  11.135
21836W        W86997   5.119  17.301  13.897
21837W        W86998  12.106  36.307  12.340
21838W        W86999   2.999  18.499   0.412
21839W        W87000  17.686  14.233  13.537
21840W        W87001  35.970   0.975   0.871
21841W        W87002  28.113  16.638  11.246
21842W        W87003  30.441  27.052   1.662
21843W        W87004  10.343  34.030  11.573
21844W        W87005  19.503  40.934  12.157
21845W        W87006  21.026  36.543   2.801
21846W        W87007  19.579  10.184   4.637
21847W        W87008  14.173  30.944  14.656
21848W        W87009   4.494  41.774  11.009
21849W        W87010  24.472  38.186   2.246
21850W        W87011   9.370  11.395  11.116
21851W        W87012  39.287  18.510   0.988
21852W        W87013  25.636  32.811  13.552
21853W        W87014  26.016  16.995  10.611
21854W        W87015  36.877  27.234   4.429
21855W        W87016  12.419   0.061  12.800
21856W        W87017  19.554  34.421  14.312
21857W        W87018  12.170  38.922  12.891
21858W        W87019   2.161  20.606  13.055
21859W        W87020  15.474  27.181   0.590
21860W        W87021   3.265  17.006  12.335
21861W        W87022  43.502   4.467   4.077
21862W        W87023   2.334  29.196  10.339
21863W        W87024  20.353   3.179  11.251
21864W        W87025  37.361  15.897   2.611
21865W        W87026   3.353  24.097   3.869
21866W        W87027  37.596  17.608   0.378
21867W        W87028  43.421   0.900   3.343
21868W        W87029  33.624  29.196  11.604
21869W        W87030  18.507  29.887  13.295
21870W        W87031  39.621  19.514   1.350
21871W        W87032  42.309  16.101  10.590
21872W        W87033   7.914  43.582  11.336
21873W        W87034  33.789  37.260   2.259
21874W        W87035  17.137  29.624   2.778
21875W        W87036  37.007  39.534  12.967
21876W        W87037  12.977  34.270  11.011
21877W        W87038   5.848  27.380  11.988
21878W        W87039  26.690   9.656   4.743
21879W        W87040  25.195  28.907  14.405
21880W        W87041   4.520  16.619  12.788
21881W        W87042  40.585  20.404  13.373
21882W        W87043  41.409  41.024  11.239
21883W        W87044  16.808  28.209   1.713
21884W        W87045  41.710  32.848  14.085
21885W        W87046  19.277  32.881  13.115
21886W        W87047   6.171  28.869  10.272
21887W        W87048  18.058  31.035  13.383
21888W        W87049  20.017  23.239  13.563
21889W        W87050  39.442  44.512  13.284
21890W        W87051  25.650   4.811   4.947
21891W        W87052  34.640  12.285  11.975
21892W        W87053   6.875   1.694   3.810
21893W        W87054   0.657  35.997  12.014
21894W        W87055   9.197   3.657   3.243
21895W        W87056  37.826   8.283  12.460
21896W        W87057  13.003   0.262  13.270
21897W        W87058  35.835   6.324   1.798
21898W        W87059  41.245  30.056  14.546
21899W        W87060  26.924  29.990   3.695
21900W        W87061  14.686  42.996  10.834
21901W        W87062  41.825  41.500  13.885
21902W        W87063  38.707  40.904   2.477
21903W        W87064   6.791  13.852   1.749
21904W        W87065  17.676   6.350  11.597
21905W        W87066  38.818  44.206   1.453
21906W        W87067   8.106  42.836  12.542
21907W        W87068   9.765  34.373  10.491
21908W        W87069  41.985  14.433  12.757
21909W        W87070  23.139  27.035   3.449
21910W        W87071  14.802  28.099  10.917
21911W        W87072  22.963  35.279   1.454
21912W        W87073  28.914  18.314  11.968
21913W        W87074  17.023  33.830   4.615
21914W        W87075  40.618  44.278   5.099
21915W        W87076   6.423   8.344  13.887
21916W        W87077  42.425  38.407   3.724
21917W        W87078   2.041  36.016   2.381
21918W        W87079   6.070  15.839   0.483
21919W        W87080  12.082  20.170  14.922
21920W        W87081   6.101  40.756  13.395
21921W        W87082  36.439  14.245   2.275
21922W        W87083  37.043  10.845   0.372
21923W        W87084  14.797  25.048   0.950
21924W        W87085  37.074  15.102   0.049
21925W        W87086  33.633   1.336  13.440
21926W        W87087  34.198   5.295   0.033
21927W        W87088  12.352  27.739  14.966
21928W        W87089  22.715  43.300   3.661
21929W        W87090  29.666  25.192  14.965
21930W        W87091  33.493  34.473   0.739
21931W        W87092   2.343  19.588  14.731
21932W        W87093   8.090   9.751  14.291
21933W        W87094  13.816  10.596   4.008
21934W        W87095   7.152  41.903  11.075
21935W        W87096  43.441   0.747   2.478
21936W        W87097   5.162  30.705   1.025
21937W        W87098  35.823  22.203   3.877
21938W        W87099  40.303  21.345  10.690
21939W        W87100   8.883  21.571  10.760
21940W        W87101  14.176   9.150   0.875
21941W        W87102  29.367  20.826   0.357
21942W        W87103  41.681  15.719   0.296
21943W        W87104   8.885  13.168   2.267
21944W        W87105  33.005   4.227   4.801
21945W        W87106  37.876  21.574   4.083
21946W        W87107  23.230   4.697  10.640
21947W        W87108  31.456  30.564   0.364
21948W        W87109  15.254  40.560  11.533
21949W        W87110  37.114  16.271   2.861
21950W        W87111  14.347  11.156   3.633
21951W        W87112  13.725  40.830  12.121
21952W        W87113  43.524   1.148  13.368
21953W        W87114  31.783  24.456  13.677
21954W        W87115  20.788  23.484   0.701
21955W        W87116   5.256  13.159   0.887
21956W        W87117  21.480  17.750  12.801
21957W        W87118   0.074  26.631  12.069
21958W        W87119  34.047  19.316  10.573
21959W        W87120  16.291  23.757  13.509
21960W        W87121   6.035  42.377   4.732
21961W        W87122   3.572  43.797  14.118
21962W        W87123  39.729  31.930  12.887
21963W        W87124  41.015  26.143  11.167
21964W        W87125  23.478  30.956   3.215
21965W        W87126  24.803  19.970  11.651
21966W        W87127  15.855  37.491   3.741
21967W        W87128  20.228  16.900  10.780
21968W        W87129  34.561  42.803   4.639
21969W        W87130   5.860   5.663   1.452
21970W        W87131   4.420  34.026   2.212
21971W        W87132   6.274   5.477  14.232
21972W        W87133  33.411  27.964   0.783
21973W        W87134  43.973  27.850  11.420
21974W        W87135  32.572   0.812  12.129
21975W        W87136  44.481  33.579  12.131
21976W        W87137   7.749  34.472   3.118
21977W        W87138  43.412   7.819   4.806
21978W        W87139  13.124  23.094  13.411
21979W        W87140   8.773  18.294  10.762
21980W        W87141  28.092  31.860   2.293
21981W        W87142  33.582  28.017  14.332
21982W        W87143  12.343  43.672  14.675
21983W        W87144  20.895  40.993  10.845
21984W        W87145  38.261  40.411   0.242
21985W        W87146  30.030  10.034   4.946
21986W        W87147  13.293  25.561   2.047
21987W        W87148   4.263  43.948   4.628
21988W        W87149  22.425  18.460   3.926
21989W        W87150  19.016  25.013  10.300
21990W        W87151  21.412   0.487  10.815
21991W        W87152  40.344   9.915  12.859
21992W        W87153  17.786   2.781  13.352
21993W        W87154   6.678  13.667   0.316
21994W        W87155  37.525  42.979   4.415
21995W        W87156  32.244   4.639  14.933
21996W        W87157   6.807  32.158  13.958
21997W        W87158   9.585   0.849   2.451
21998W        W87159  26.723   8.681  11.045
21999W        W87160  13.857  16.742   3.669
22000W        W87161   8.369  16.098  11.128
22001W        W87162  42.726  36.875  11.985
22002W        W87163   3.950  44.983   3.273
22003W        W87164  35.687  38.252   4.545
22004W        W87165   3.252   8.090  13.469
22005W        W87166  12.391  37.962   3.784
22006W        W87167  31.381  18.250   1.350
22007W        W87168   5.790  17.643  10.755
22008W        W87169  13.048  13.971  13.587
22009W        W87170  22.065  36.028   1.885
22010W        W87171  19.651   0.701  12.182
22011W        W87172  27.405   1.300  11.554
22012W        W87173  36.071   2.645  13.411
22013W        W87174  21.989  28.290  11.405
22014W        W87175  36.015  41.379  13.347
22015W        W87176  14.234  21.861   3.161
22016W        W87177  42.888  13.878  11.280
22017W        W87178   2.932  11.790   3.140
22018W        W87179  26.584   6.903   1.987
22019W        W87180  14.655  24.450  12.429
22020W        W87181  15.684  17.642   3.517
22021W        W87182  26.809  18.586  14.864
22022W        W87183  40.263  13.176   3.189
22023W        W87184  20.146   3.280  10.786
22024W        W87185  10.661   2.254  14.769
22025W        W87186  39.430  39.772  14.133
22026W        W87187  21.369  23.822   4.571
22027W        W87188  37.612   5.795  11.950
22028W        W87189   7.355  27.866  13.580
22029W        W87190  27.928  43.429   3.214
22030W        W87191  23.950  27.870   2.810
22031W        W87192  23.093   5.235  12.332
22032W        W87193   4.756   8.704  13.482
22033W        W87194   1.761  21.301  14.213
22034W        W87195   8.643   4.587  12.734
22035W        W87196   6.248  25.726  14.812
22036W        W87197   9.189  16.308   1.899
22037W        W87198  42.901   8.409   0.337
22038W        W87199  31.058  36.835  14.914
22039W        W87200  32.685  21.735  14.995
22040W        W87201  26.288  24.467   0.017
22041W        W87202  25.965  29.044   0.937
22042W        W87203  30.423  36.547  13.497
22043W        W87204  38.915  19.983  10.674
22044W        W87205  31.992  27.862   2.791
22045W        W87206  33.175  31.210   2.857
22046W        W87207  20.560  25.199  12.529
22047W        W87208  34.595  20.951   0.795
22048W        W87209  31.051  15.632  11.990
22049W        W87210  24.714  13.203  11.679
22050W        W87211   9.177  26.786   0.651
22051W        W87212  30.541  41.939  12.037
22052W        W87213  16.935   9.456   3.762
22053W        W87214   3.797   0.842   4.905
22054W        W87215  21.407  10.850   1.008
22055W        W87216  43.957   2.116   2.160
22056W        W87217  23.716  41.074  12.426
22057W        W87218  32.980   5.283   4.814
22058W        W87219  23.347  15.524  12.966
22059W        W87220  20.600  27.115   3.162
22060W        W87221  33.069  30.438  12.839
22061W        W87222  37.638   0.365  11.628
22062W        W87223  37.398  25.659   2.032
22063W        W87224  23.114  28.368  12.381
22064W        W87225  31.097   0.382   3.603
22065W        W87226  25.109  40.905  12.551
22066W        W87227  10.305  29.923  12.678
22067W        W87228  27.670  32.539  13.843
22068W        W87229  17.011  24.600  13.140
22069W        W87230  38.500  23.091  10.784
22070W        W87231   4.980  26.809  13.321
22071W        W87232  11.761  36.512   3.155
22072W        W87233  12.015  21.260   5.004
22073W        W87234  29.184   7.423   4.574
22074W        W87235  17.705   9.383   4.553
22075W        W87236  11.890  39.890   1.744
22076W        W87237  36.123  11.268   1.346
22077W        W87238  16.271  36.318   4.175
22078W        W87239  42.922  16.880   1.001
22079W        W87240   7.673  39.230   3.167
22080W        W87241   2.947  26.467   4.556
22081W        W87242  21.106  18.235   0.965
22082W        W87243  27.500  33.106   2.294
22083W        W87244  21.509  11.813   4.270
22084W        W87245   7.255   8.931   2.301
22085W        W87246   8.909  19.633   1.398
22086W        W87247  35.862   6.321  12.420
22087W        W87248  36.786  11.415  14.512
22088W        W87249  16.513   4.035  10.987
22089W        W87250  43.504  38.492  12.425
22090W        W87251  39.791   7.852   0.355
22091W        W87252  22.017  13.999   1.712
22092W        W87253  28.912  34.814   1.327
22093W        W87254  31.810  34.033  11.556
22094W        W87255  24.714  41.912  12.483
22095W        W87256  42.728  11.434   3.723
22096W        W87257  22.166  30.911  13.234
22097W        W87258  42.514   8.862  13.385
22098W        W87259  26.785  44.235  10.417
22099W        W87260  42.871  32.979  10.227
22100W        W87261  14.554  43.390   1.827
22101W        W87262   8.703  38.023   0.398
22102W        W87263  38.912  39.781   2.874
22103W        W87264  34.454  29.348  10.598
22104W        W87265   4.589  31.513  12.663
22105W        W87266  29.107  12.927   4.249
22106W        W87267  32.926   6.110   1.754
22107W        W87268  14.735   7.669   3.665
22108W        W87269   4.353   3.731   1.466
22109W        W87270  37.111  16.383   1.911
22110W        W87271  15.113  38.624  12.134
22111W        W87272  26.710  35.866   2.316
22112W        W87273   3.428  21.950  11.652
22113W        W87274  36.396  39.254   1.397
22114W        W87275  15.682  30.400  11.967
22115W        W87276  26.835   3.439  10.779
22116W        W87277  42.315  40.275   2.442
22117W        W87278  37.833  32.899   1.808
22118W        W87279  25.208  39.806   4.980
22119W        W87280  26.219  40.246   0.544
22120W        W87281  44.128  32.855   3.266
22121W        W87282  12.185  39.598  11.545
22122W        W87283   9.766  44.672  14.043
22123W        W87284  44.415  43.587   2.341
22124W        W87285  34.208  18.575  11.539
22125W        W87286  33.134  21.667   3.527
22126W        W87287  15.888   2.320  11.535
22127W        W87288  15.241  30.947   2.389
22128W        W87289  23.980  25.667   1.244
22129W        W87290  20.748  27.167   4.500
22130W        W87291  21.028  13.849  14.377
22131W        W87292   1.484   1.888  12.880
22132W        W87293  29.492  36.307  13.643
22133W        W87294  38.437  11.431  10.970
22134W        W87295  42.358  36.972   0.878
22135W        W87296  34.293  42.049   3.912
22136W        W87297  27.574  35.296  12.980
22137W        W87298   5.766  37.679  14.013
22138W        W87299   2.230  31.101  12.929
22139W        W87300  26.942  39.903   2.452
22140W        W87301  25.958   8.695  10.735
22141W        W87302  44.440  40.436  13.050
22142W        W87303  17.302  25.480   4.570
22143W        W87304   1.000  44.634  14.543
22144W        W87305  14.442  30.975   1.776
22145W        W87306   4.757   3.416  14.302
22146W        W87307   6.697  20.775   3.394
22147W        W87308  29.701   2.387   3.620
22148W        W87309  10.647  40.376   1.743
22149W        W87310  41.691   3.931   1.866
22150W        W87311   5.959  41.054  11.213
22151W        W87312   9.265  15.553   2.376
22152W        W87313  12.727  35.637   0.288
22153W        W87314  43.760  36.096   0.378
22154W        W87315  14.422  38.471   2.190
22155W        W87316   9.220  26.329   5.044
22156W        W87317   5.874   7.389   0.610
22157W        W87318  21.278   7.707  14.903
22158W        W87319  29.159  38.081   5.204
22159W        W87320  14.775  23.128  12.464
22160W        W87321  26.250  37.948  13.556
22161W        W87322  35.348   2.561  13.098
22162W        W87323  13.934  17.678   1.715
22163W        W87324  24.442   2.679   4.198
22164W        W87325   9.908  29.077   2.753
22165W        W87326   8.914  13.213   1.552
22166W        W87327  33.487   1.551  11.557
22167W        W87328  30.439  40.813  14.407
22168W        W87329  30.715  18.070  13.303
22169W        W87330  22.098  42.066   1.800
22170W        W87331  41.937  17.632   4.392
22171W        W87332  37.963  33.405  13.776
22172W        W87333   7.644  22.750   3.691
22173W        W87334  27.444  15.064   1.754
22174W        W87335  25.090   1.198  14.399
22175W        W87336  12.405  39.605   4.234
22176W        W87337  43.326  20.342  14.281
22177W        W87338  15.141  10.599  13.656
22178W        W87339   6.143   3.001   3.457
22179W        W87340  40.941  24.176  11.972
22180W        W87341  44.732  44.465   0.048
22181W        W87342  36.561  16.286  12.432
22182W        W87343  17.771  39.325   0.932
22183W        W87344  34.943  25.614  14.105
22184W        W87345   4.763  13.264   3.531
22185W        W87346  22.617   0.159  10.366
22186W        W87347  25.831   9.850  12.508
22187W        W87348  28.514  23.214   3.567
22188W        W87349  43.973  31.496   2.821
22189W        W87350  10.832  27.306   1.452
22190W        W87351  19.797   6.979  13.952
22191W        W87352  35.871  24.022   2.756
22192W        W87353  13.734  34.691  12.599
22193W        W87354   1.226  22.739   2.758
22194W        W87355  39.316  30.387   3.585
22195W        W87356  43.468   2.395  14.706
22196W        W87357  12.250  12.369   3.285
22197W        W87358  15.872  26.436   4.501
22198W        W87359  12.106  42.816   4.604
22199W        W87360  40.539  23.306   3.178
22200W        W87361   1.167  17.284   3.675
22201W        W87362  36.593  13.418   2.750
22202W        W87363  16.619  34.296   0.293
22203W        W87364   6.813   7.923  12.596
22204W        W87365  29.033  25.279   2.422
22205W        W87366   1.897  27.013   0.734
22206W        W87367  13.176  38.048   3.179
22207W        W87368   0.997  20.369  14.373
22208W        W87369  20.092   3.348  13.433
22209W        W87370  31.352   5.482  11.148
22210W        W87371  33.038  16.787   2.173
22211W        W87372  38.350  11.159   1.725
22212W        W87373  25.713  17.842  11.693
22213W        W87374  29.110  27.940  11.517
22214W        W87375  44.781  21.337   2.237
22215W        W87376  44.859   3.558   0.047
22216W        W87377  22.570  30.489   2.607
22217W        W87378  18.150  31.628  12.596
22218W        W87379  33.480  21.502  12.094
22219W        W87380  37.045  31.552  13.354
22220W        W87381  30.183  15.506  11.266
22221W        W87382  43.899  44.234   2.482
22222W        W87383   9.363  26.538   1.931
22223W        W87384  23.749  31.864  12.021
22224W        W87385  29.746   6.071   1.021
22225W        W87386  32.458  37.375   3.697
22226W        W87387   4.372  14.420  14.971
22227W        W87388  32.531  40.741  14.351
22228W        W87389  30.385  39.811  14.882
22229W        W87390   2.137  20.627   1.861
22230W        W87391  27.990   7.539  13.932
22231W        W87392  14.296   2.681  14.939
22232W        W87393   1.176   1.807  14.310
22233W        W87394  33.455  24.504   2.886
22234W        W87395   5.315   6.427   1.940
22235W        W87396   8.297  42.144  13.761
22236W        W87397  15.151  28.549   1.932
22237W        W87398  36.948  23.942  11.903
22238W        W87399  19.828  31.115   3.651
22239W        W87400   8.887   1.765   0.957
22240W        W87401   7.097  21.312   0.768
22241W        W87402   4.858   0.461  10.568
22242W        W87403   5.664   2.004   2.040
22243W        W87404   9.167  18.800   4.209
22244W        W87405  24.678   9.704  13.987
22245W        W87406  39.865   9.231  13.545
22246W        W87407  28.773  41.317   2.638
22247W        W87408  23.160  28.589  13.340
22248W        W87409  27.985   3.163   0.897
22249W        W87410  38.063  11.713  12.634
22250W        W87411   2.295  38.354  12.528
22251W        W87412  17.483   6.725  13.579
22252W        W87413  23.957  37.505   4.521
22253W        W87414   9.446   3.980   2.764
22254W        W87415   2.390   6.770   2.568
22255W        W87416  25.066  13.625  14.870
22256W        W87417  17.859  20.806   0.932
22257W        W87418  19.225   0.220  12.379
22258W        W87419   8.133  26.946   0.013
22259W        W87420  19.738  30.489  14.826
22260W        W87421  22.977  23.711  14.007
22261W        W87422  29.271  40.033  10.106
22262W        W87423  37.660   5.071  12.474
22263W        W87424   3.320   6.076  11.618
22264W        W87425  24.215  21.465   2.459
22265W        W87426  32.900   3.520  14.416
22266W        W87427  17.723   0.506  14.813
22267W        W87428  19.986  13.739  14.304
22268W        W87429  20.232  20.102   2.341
22269W        W87430   1.875  10.894   0.531
22270W        W87431  41.336   4.708   1.216
22271W        W87432   0.818  11.333  12.036
22272W        W87433  43.696  44.324  13.362
22273W        W87434   3.695   3.386   1.651
22274W        W87435  44.865  40.212   1.289
22275W        W87436  43.316  26.496  14.156
22276W        W87437  28.425  29.569   2.257
22277W        W87438  41.481  39.289  12.916
22278W        W87439  14.829  25.011   5.022
22279W        W87440   8.283  19.706  11.990
22280W        W87441  15.190  27.072  13.522
22281W        W87442   0.967  23.961  13.824
22282W        W87443  44.191  11.724   1.830
22283W        W87444   0.676  14.071  14.740
22284W        W87445  39.533  28.628  13.854
22285W        W87446  21.310  19.196   3.323
22286W        W87447  25.936  28.172  14.485
22287W        W87448  25.497  31.377  12.478
22288W        W87449  38.927  41.294  12.647
22289W        W87450  15.315  22.518  13.062
22290W        W87451  26.516  23.579   3.237
22291W        W87452  26.535  16.239  14.829
22292W        W87453  22.719   9.472  10.081
22293W        W87454  23.021   4.733   1.538
22294W        W87455  36.277   3.712   0.408
22295W        W87456  42.783  31.635   2.298
22296W        W87457   7.152  37.968   1.221
22297W        W87458  17.840  43.535  14.950
22298W        W87459  12.743  41.454   2.979
22299W        W87460  14.626  24.659   3.654
22300W        W87461  38.053  35.820  10.635
22301W        W87462  31.630  29.035  10.650
22302W        W87463  13.587  24.524  12.528
22303W        W87464  36.516  41.921   4.927
22304W        W87465   8.768  44.438   3.720
22305W        W87466  29.618  40.847   0.569
22306W        W87467  37.071  21.841  10.992
22307W        W87468   2.226  40.394   2.407
22308W        W87469  41.436  41.068  11.752
22309W        W87470   8.509   2.712  14.899
22310W        W87471   0.732  20.514  10.695
22311W        W87472  35.073   9.237  14.082
22312W        W87473  44.420  24.822   3.274
22313W        W87474  39.872   2.818  10.691
22314W        W87475  43.867  34.629   3.786
22315W        W87476  15.789  43.690   3.206
22316W        W87477  36.118  23.988  12.867
22317W        W87478  24.087  32.192   1.374
22318W        W87479  10.610  39.543   1.741
22319W        W87480   6.669  13.338  11.216
22320W        W87481   6.665  35.047  14.327
22321W        W87482  22.859  15.566  12.909
22322W        W87483   1.239  42.216  14.500
22323W        W87484  42.925  16.276  14.472
22324W        W87485  33.965  39.670   0.734
22325W        W87486   4.144  44.007   2.612
22326W        W87487  23.722  14.555   1.715
22327W        W87488   9.439  25.774   3.626
22328W        W87489   9.254   7.664   3.863
22329W        W87490  36.452  22.440   1.303
22330W        W87491   0.453  44.710  11.648
22331W        W87492   8.264  31.137   0.051
22332W        W87493  13.324  27.126  12.485
22333W        W87494  19.086  24.659  13.948
22334W        W87495   2.249  35.004  11.209
22335W        W87496  10.154  30.114   2.803
22336W        W87497  23.582  32.190  12.617
22337W        W87498  43.219  12.189  14.427
22338W        W87499  31.518  16.765  11.035
22339W        W87500   5.637   4.819   0.295
22340W        W87501  37.812  36.989  12.932
22341W        W87502  41.359  31.941  11.171
22342W        W87503  16.755   8.235   3.382
22343W        W87504  23.157  11.707   1.395
22344W        W87505  26.408  35.868  10.333
22345W        W87506  26.276  24.198  14.302
22346W        W87507  32.377  37.869  13.776
22347W        W87508  33.749  41.973   4.592
22348W        W87509  42.520  38.506  14.907
22349W        W87510  36.820  11.744  14.928
22350W        W87511  13.059  22.481   3.590
22351W        W87512  28.658  29.596  12.998
22352W        W87513  33.494  32.609   4.081
22353W        W87514   6.474  27.697   0.834
22354W        W87515  27.007  33.081  14.356
22355W        W87516  26.973  30.145   0.706
22356W        W87517  17.732  44.630  13.302
22357W        W87518  27.311  42.668  14.947
22358W        W87519   5.716  29.075   3.918
22359W        W87520  37.229  34.005   2.249
22360W        W87521  10.045  21.442  10.739
22361W        W87522  36.165  23.575   2.704
22362W        W87523  25.971  35.180  12.068
22363W        W87524  18.275  22.550  12.512
22364W        W87525  15.825  10.377   2.211
22365W        W87526  24.010  28.990  11.911
22366W        W87527  29.167   6.230   0.835
22367W        W87528  29.599  38.903  14.120
22368W        W87529  28.252  14.705  13.112
22369W        W87530  35.039  34.025  14.518
22370W        W87531   1.867   3.343   0.331
22371W        W87532  23.938   7.714   2.460
22372W        W87533   9.736  39.572  14.330
22373W        W87534  43.178  42.027  12.370
22374W        W87535  24.010  12.226  13.533
22375W        W87536  26.462   8.172  13.639
22376W        W87537   7.864  14.283  12.928
22377W        W87538   1.318  26.485  13.488
22378W        W87539  21.847  14.316   4.176
22379W        W87540  39.221  31.492  11.511
22380W        W87541  38.823  10.522  12.867
22381W        W87542  44.255   7.156  10.528
22382W        W87543  36.172   0.525   1.058
22383W        W87544   9.281  21.002   0.508
22384W        W87545  27.269  31.667  11.564
22385W        W87546  32.933  23.604  10.418
22386W        W87547  44.399  42.045  14.858
22387W        W87548  36.879  13.306   1.581
22388W        W87549  15.647   1.825   2.198
22389W        W87550  22.191  22.031  14.902
22390W        W87551   3.863  19.864  11.447
22391W        W87552  17.247  31.840  12.150
22392W        W87553  17.751   0.733  11.166
22393W        W87554  23.679  42.544   1.774
22394W        W87555  30.553   6.847  12.667
22395W        W87556  18.216  30.541   0.928
22396W        W87557   1.948   6.790   1.697
22397W        W87558  32.387   5.893  14.366
22398W        W87559  19.681  17.664  14.983
22399W        W87560  28.375  10.112  11.580
22400W        W87561  36.342  17.076  14.310
22401W        W87562  17.260   5.896  12.418
22402W        W87563  21.774  20.795  10.570
22403W        W87564  43.832  33.836  12.969
22404W        W87565  11.306  30.215   1.704
22405W        W87566  37.855   4.888  12.937
22406W        W87567  16.633  31.060   2.668
22407W        W87568   2.796   6.448   0.438
22408W        W87569   0.918  44.799  10.400
22409W        W87570   0.691  28.943   1.294
22410W        W87571  34.673   0.080  13.525
22411W        W87572  34.926  43.623  12.205
22412W        W87573  38.553  12.284   4.459
22413W        W87574  16.037  15.315  10.557
22414W        W87575  25.558  33.907  10.462
22415W        W87576  14.319  24.729   4.403
22416W        W87577  34.536  29.149  11.259
22417W        W87578  12.976  34.893  13.937
22418W        W87579  41.985  18.488  10.482
22419W        W87580  11.563   5.334   2.737
22420W        W87581  23.004  39.137  12.356
22421W        W87582  31.378  33.157   1.723
22422W        W87583   5.450  18.269  12.969
22423W        W87584  23.000  27.882   4.678
22424W        W87585  11.309  20.136   3.360
22425W        W87586  23.343  24.928   2.814
22426W        W87587  21.823  42.178  10.628
22427W        W87588  17.813  40.388  14.557
22428W        W87589  10.087  39.938  13.180
22429W        W87590  23.673   3.000  12.821
22430W        W87591  29.204   9.418   1.358
22431W        W87592  39.076  24.950   0.293
22432W        W87593   1.829  34.849  11.424
22433W        W87594  17.837  28.509  11.089
22434W        W87595  42.940  16.055   2.643
22435W        W87596   3.413  38.805   0.882
22436W        W87597  16.256  35.428  11.585
22437W        W87598  40.996  32.947   1.322
22438W        W87599  42.939  28.679   2.755
22439W        W87600   8.330  19.293  14.872
22440W        W87601  42.540   3.278   4.679
22441W        W87602  21.099   2.229  13.813
22442W        W87603  22.548  44.264   4.116
22443W        W87604  35.018  15.178  10.353
22444W        W87605   3.690  26.261  14.373
22445W        W87606  32.166   4.017   2.880
22446W        W87607  34.407  41.174  10.503
22447W        W87608  42.301  29.305   1.712
22448W        W87609  35.132  15.165   3.032
22449W        W87610  33.699  21.935   4.367
22450W        W87611  42.703  21.418   0.452
22451W        W87612  23.553  39.881  13.817
22452W        W87613  27.897  31.087   3.608
22453W        W87614  23.204  29.025   4.720
22454W        W87615  12.572  24.890   4.559
22455W        W87616  27.896  15.098  13.893
22456W        W87617  19.558  17.872   4.590
22457W        W87618  37.108  14.404  11.542
22458W        W87619  36.100  37.571   4.163
22459W        W87620  30.668  17.144   0.726
22460W        W87621  25.467  23.088  14.046
22461W        W87622   6.802  26.902  14.377
22462W        W87623   8.869   8.048   4.983
22463W        W87624  30.695   1.498   3.669
22464W        W87625   6.238   9.453   3.843
22465W        W87626  32.862  15.561  12.195
22466W        W87627  37.775  41.036  13.397
22467W        W87628  36.115  36.068  10.859
22468W        W87629  10.649  21.609   4.108
22469W        W87630  38.621   7.651   1.280
22470W        W87631  10.770   9.446   3.769
22471W        W87632  28.464  27.434   1.207
22472W        W87633  24.512  30.877   3.142
22473W        W87634  38.136  32.365   4.381
22474W        W87635  41.535  28.087  13.957
22475W        W87636   5.003  36.846   4.137
22476W        W87637  24.640  13.805  12.485
22477W        W87638   8.757   3.833   2.281
22478W        W87639  21.124  33.667  13.489
22479W        W87640  38.268   1.368   1.827
22480W        W87641  10.540  27.095   1.826
22481W        W87642   8.697   8.863  11.973
22482W        W87643   6.841   3.218  11.049
22483W        W87644  25.760  16.827  10.182
22484W        W87645  11.600  41.514  12.442
22485W        W87646  28.380  27.508  11.148
22486W        W87647  11.795  41.040  14.331
22487W        W87648   0.143  22.699   4.704
22488W        W87649  38.876  34.883   1.896
22489W        W87650  19.309  35.201   0.929
22490W        W87651  31.472  36.871  11.632
22491W        W87652   1.289  15.926   0.672
22492W        W87653  11.876   2.398   0.383
22493W        W87654  19.141  10.843   4.628
22494W        W87655  15.146  38.930   0.072
22495W        W87656   6.497  14.440  14.812
22496W        W87657   7.819  28.243   2.399
22497W        W87658  24.011  15.885   1.713
22498W        W87659  27.144  42.491   4.316
22499W        W87660  32.660  42.116   3.635
22500W        W87661  22.147  17.734  12.163
22501W        W87662  44.195   9.867   2.235
22502W        W87663  29.803  17.558   0.845
22503W        W87664  33.010  18.563   1.770
22504W        W87665  42.968  20.106  14.567
22505W        W87666  31.673  10.673   4.213
22506W        W87667  28.560  14.736   0.195
22507W        W87668  42.851   3.972  13.989
22508W        W87669  29.751   2.933   1.279
22509W        W87670   6.948  44.882   4.509
22510W        W87671  24.531  25.141   0.864
22511W        W87672  37.371  24.468   1.267
22512W        W87673  21.739  42.308  12.481
22513W        W87674  42.275  16.407  14.940
22514W        W87675   2.304   3.876   3.890
22515W        W87676  23.959  38.312   3.219
22516W        W87677  22.743  19.073  12.939
22517W        W87678  32.047  44.812  14.285
22518W        W87679   0.985   7.768   2.725
22519W        W87680  21.667   0.435   1.401
22520W        W87681  28.698  22.175   0.177
22521W        W87682  24.511   3.676  12.023
22522W        W87683   2.318   4.522   0.039
22523W        W87684  42.726   1.978   1.809
22524W        W87685  32.295  43.149  13.999
22525W        W87686   8.850  41.092   2.300
22526W        W87687   8.932  29.245   2.763
22527W        W87688  39.017  36.556  14.736
22528W        W87689  12.082  36.045  14.422
22529W        W87690   1.369  33.821  13.479
22530W        W87691  10.109  36.470  13.955
22531W        W87692  39.270   0.048  14.040
22532W        W87693  20.482  39.576  11.637
22533W        W87694  41.415   7.901   1.318
22534W        W87695  25.039  23.409  14.949
22535W        W87696   3.596  21.622  12.056
22536W        W87697   4.057  21.834  10.690
22537W        W87698  33.508   5.262  12.171
22538W        W87699   6.474  41.750   2.609
22539W        W87700  22.035  35.924   3.745
22540W        W87701  42.509  42.439  14.898
22541W        W87702  20.839   5.931   0.713
22542W        W87703  18.745  19.178   0.240
22543W        W87704  32.014  44.467   3.857
22544W        W87705  15.199  44.866  11.606
22545W        W87706  19.557  14.205   0.651
22546W        W87707  39.112  40.316  14.823
22547W        W87708  25.788  27.502  10.623
22548W        W87709  44.759  21.713   4.517
22549W        W87710  10.456  32.570   3.647
22550W        W87711   2.264  20.099   1.178
22551W        W87712  32.426  31.522   4.812
22552W        W87713  27.192  35.295  13.366
22553W        W87714  11.198  10.168  12.351
22554W        W87715   9.840   7.612   1.224
22555W        W87716  17.098  22.218   4.111
22556W        W87717  12.901  44.206   4.136
22557W        W87718  15.090   8.297   1.785
22558W        W87719   0.667  43.729  12.482
22559W        W87720  13.551  12.393  12.059
22560W        W87721  36.608  13.633  14.852
22561W        W87722  23.922  43.976  13.558
22562W        W87723  19.724  39.814   1.694
22563W        W87724  40.005  41.567  13.976
22564W        W87725   9.654   5.265  13.377
22565W        W87726  41.943  33.184   4.539
22566W        W87727   6.824   9.189  14.866
22567W        W87728   8.420  16.887  12.866
22568W        W87729  30.066  14.264   3.861
22569W        W87730   5.250  44.720  11.978
22570W        W87731  18.704  29.397   2.203
22571W        W87732   1.325  19.199   2.349
22572W        W87733  23.874  40.944   0.773
22573W        W87734   0.959  26.621   2.007
22574W        W87735  17.266  14.685  10.796
22575W        W87736   9.704  17.769   1.348
22576W        W87737  15.910  12.155  12.499
22577W        W87738  24.099  29.340   3.716
22578W        W87739  21.125  13.167   5.052
22579W        W87740  40.799   3.962  12.830
22580W        W87741  27.637  19.646  10.564
22581W        W87742  21.659  20.130   1.890
22582W        W87743  13.295  18.173   4.287
22583W        W87744   6.477  41.824  14.494
22584W        W87745  32.555  28.596   0.425
22585W        W87746   2.340  25.465   2.789
22586W        W87747   2.335  43.985   2.387
22587W        W87748  14.166  33.155   4.567
22588W        W87749  27.135   4.911   3.742
22589W        W87750   6.457  37.676   5.008
22590W        W87751  14.699  30.972   4.970
22591W        W87752  12.745   5.696  12.972
22592W        W87753  43.485  17.522  13.856
22593W        W87754  12.375  29.140  13.020
22594W        W87755  20.593  36.148  14.228
22595W        W87756  23.988  10.570   2.696
22596W        W87757  31.216  38.919  11.473
22597W        W87758   3.228  23.070   3.580
22598W        W87759  22.165  43.896   3.321
22599W        W87760  41.888  36.630   0.764
22600W        W87761  41.292   9.623  11.988
22601W        W87762  30.975  10.651   2.936
22602W        W87763   7.513  35.368   2.982
22603W        W87764   9.485  37.990   1.188
22604W        W87765  10.227  30.461   9.845
22605W        W87766  17.610   9.585  11.063
22606W        W87767  15.635  10.713   4.193
22607W        W87768  39.075   7.618   4.477
22608W        W87769  26.568  22.767  13.122
22609W        W87770  17.037   8.237  12.034
22610W        W87771  17.552  16.175  14.758
22611W        W87772  10.562   8.757   3.329
22612W        W87773  14.168   3.748  13.991
22613W        W87774  24.754  15.637   3.847
22614W        W87775  14.559  27.165  13.013
22615W        W87776  33.337   6.705  12.961
22616W        W87777  28.780  31.055   1.537
22617W        W87778  32.060   1.537  13.813
22618W        W87779  22.414   1.175   3.837
22619W        W87780   8.656  26.971   0.767
22620W        W87781  15.660  11.236   1.223
22621W        W87782  41.410  30.420  12.878
22622W        W87783  24.992  31.009   4.439
22623W        W87784  31.530  32.140   5.136
22624W        W87785  23.434  20.514   1.609
22625W        W87786  31.221  44.008   4.049
22626W        W87787  37.993  40.374  14.775
22627W        W87788  36.123  42.297  13.510
22628W        W87789  25.987  37.504  13.514
22629W        W87790  28.288   1.858   0.772
22630W        W87791  20.551  17.727   0.822
22631W        W87792  11.475   2.737  12.092
22632W        W87793   6.336  10.304   4.601
22633W        W87794  24.434  44.034  13.443
22634W        W87795  36.567  43.103   0.793
22635W        W87796  24.288   5.629   1.387
22636W        W87797  31.994  17.652  14.251
22637W        W87798  13.794  38.990   1.818
22638W        W87799  11.752  38.344   0.908
22639W        W87800  23.261  40.521  13.371
22640W        W87801  40.922  25.462   0.189
22641W        W87802  19.675  25.991   4.939
22642W        W87803  33.051  40.863   1.301
22643W        W87804  12.143   5.501  14.330
22644W        W87805  12.084  12.187  10.765
22645W        W87806  32.693   1.977   2.342
22646W        W87807  23.590  14.980   3.759
22647W        W87808  26.992  14.679  14.280
22648W        W87809  15.172  42.647   2.210
22649W        W87810   9.359  27.689   0.956
22650W        W87811  21.383  42.904   4.936
22651W        W87812  19.734  17.547  12.634
22652W        W87813  43.722  13.321  14.737
22653W        W87814   4.256  26.206  13.033
22654W        W87815  25.936  22.662   3.313
22655W        W87816  29.966   2.707   1.765
22656W        W87817  18.332  39.749  11.297
22657W        W87818  26.112  30.968   0.385
22658W        W87819  40.078  40.527  13.866
22659W        W87820   1.445   1.012  11.121
22660W        W87821  39.767  19.287  14.850
22661W        W87822   5.335  16.580   4.366
22662W        W87823  39.987  36.998   3.286
22663W        W87824  20.752   6.610  13.164
22664W        W87825  22.085  15.425   2.891
22665W        W87826   5.780  21.062  12.571
22666W        W87827  15.355  31.639  12.045
22667W        W87828   5.633  34.476  12.514
22668W        W87829  17.718  33.511   3.435
22669W        W87830  35.120   3.002   2.606
22670W        W87831  13.372   2.327  12.052
22671W        W87832  42.633  23.139  14.906
22672W        W87833  16.086   2.888  12.979
22673W        W87834   4.243  29.944   3.065
22674W        W87835  38.569  27.090   4.114
22675W        W87836  16.671  18.624  10.954
22676W        W87837   4.294  10.595   2.754
22677W        W87838  13.861  36.065   2.394
22678W        W87839  33.946  18.328  11.158
22679W        W87840   8.294  23.294   0.871
22680W        W87841  10.675  32.001  14.341
22681W        W87842  10.863   6.835  11.455
22682W        W87843  42.143  39.616  14.506
22683W        W87844  23.006  15.893   4.757
22684W        W87845   5.794  31.927   0.900
22685W        W87846  10.194  27.883  10.772
22686W        W87847  12.703   5.708  10.768
22687W        W87848   2.882   5.331   2.263
22688W        W87849  19.615  43.577   0.956
22689W        W87850   0.452   4.191  14.451
22690W        W87851  27.212  28.927  10.759
22691W        W87852  42.374  15.230   3.379
22692W        W87853  38.373  11.786   0.088
22693W        W87854  18.519   2.844   1.872
22694W        W87855  24.740  44.571  11.480
22695W        W87856   9.353   2.393  11.629
22696W        W87857  19.563  21.914  12.132
22697W        W87858  30.566  11.352   2.762
22698W        W87859  22.687   8.791  13.810
22699W        W87860  30.838  26.125  13.424
22700W        W87861  37.136  28.131  13.743
22701W        W87862  40.289  41.301  10.758
22702W        W87863   5.179  10.179   0.003
22703W        W87864  21.504  24.272  11.644
22704W        W87865  35.546  33.653  11.007
22705W        W87866  35.169  27.133  10.845
22706W        W87867  31.738   4.692  12.444
22707W        W87868   7.906  16.759  14.075
22708W        W87869   1.435   1.397   3.255
22709W        W87870  38.404  15.529  13.058
22710W        W87871  20.226   7.798   4.530
22711W        W87872  42.273   5.326   0.220
22712W        W87873   1.556   4.403   0.796
22713W        W87874  26.973  40.957  11.652
22714W        W87875  11.661  40.236  13.998
22715W        W87876   0.358   3.041  13.864
22716W        W87877  11.915  41.465  11.998
22717W        W87878  28.882  42.889   0.475
22718W        W87879  20.756  34.420  10.677
22719W        W87880  39.938  21.380  11.092
22720W        W87881  36.009  36.309   1.001
22721W        W87882  38.392  39.443  12.969
22722W        W87883  13.196  23.628  11.185
22723W        W87884  35.284   8.811  13.072
22724W        W87885  38.044  28.218   2.931
22725W        W87886  38.851  32.448   2.338
22726W        W87887  15.646  21.190   0.742
22727W        W87888  44.635  26.788   4.152
22728W        W87889  44.413  28.135  13.349
22729W        W87890  11.957  10.686   0.776
22730W        W87891  14.828  37.954   0.257
22731W        W87892  18.191  16.754   1.726
22732W        W87893  15.280   7.330   2.188
22733W        W87894  29.418  15.238   0.329
22734W        W87895  23.928  25.530   2.313
22735W        W87896  32.927  11.340   4.117
22736W        W87897  12.986  31.048   1.010
22737W        W87898  23.055  25.014   3.264
22738W        W87899   3.883   2.349   2.135
22739W        W87900   4.069  32.910  14.918
22740W        W87901  38.519  16.788  14.742
22741W        W87902  26.358   3.316   1.649
22742W        W87903  13.806   4.777  11.601
22743W        W87904  21.618  11.861  11.027
22744W        W87905  43.277  28.960   4.213
22745W        W87906   4.264  34.500   2.064
22746W        W87907  24.328  18.655   5.042
22747W        W87908   0.967   2.927  11.988
22748W        W87909  27.767  22.626   2.495
22749W        W87910   6.809  19.887  13.064
22750W        W87911  39.337   8.714   1.993
22751W        W87912   3.286  26.679   0.069
22752W        W87913  10.460  34.457  14.411
22753W        W87914  36.278  24.185   4.635
22754W        W87915   0.852   2.875  13.891
22755W        W87916  39.945  10.253   0.925
22756W        W87917   8.803   9.456   4.031
22757W        W87918  12.073  23.470  14.050
22758W        W87919  12.315   3.610   2.340
22759W        W87920   6.453   5.358   2.125
22760W        W87921  43.085  26.019  13.270
22761W        W87922  37.261  26.081   2.328
22762W        W87923  20.131  24.193   2.156
22763W        W87924  28.302  24.623   3.194
22764W        W87925   9.104  20.036  11.098
22765W        W87926  41.058   4.492   0.828
22766W        W87927  26.193   6.675  12.227
22767W        W87928  29.440   4.411  10.681
22768W        W87929  39.688  38.427   4.206
22769W        W87930  21.760   2.869  11.609
22770W        W87931  33.688   5.021  13.931
22771W        W87932  39.648  31.960   0.888
22772W        W87933  44.323  16.279  10.685
22773W        W87934  38.558   1.843  13.245
22774W        W87935   1.260  15.558   4.121
22775W        W87936  16.542  27.543  14.494
22776W        W87937   2.419  37.361   2.464
22777W        W87938  39.036  27.897   0.109
22778W        W87939  28.153  40.055  14.852
22779W        W87940  31.918   5.153   1.038
22780W        W87941  32.215  11.163   1.362
22781W        W87942  11.781  28.200  13.523
22782W        W87943  41.820  18.633   0.938
22783W        W87944  30.926  10.768  14.835
22784W        W87945  39.910   7.298   4.177
22785W        W87946  25.584  37.331   5.318
22786W        W87947   9.131   0.948   4.750
22787W        W87948  32.005  13.376   4.021
22788W        W87949  12.865  16.027  12.020
22789W        W87950  20.560   5.659  13.084
22790W        W87951  41.849  37.790  12.104
22791W        W87952  31.778  28.049  12.213
22792W        W87953   1.981   0.423  11.603
22793W        W87954   5.727  32.918  12.982
22794W        W87955  14.960  32.896   4.641
22795W        W87956  19.730  29.659   4.131
22796W        W87957   6.785  43.416   4.633
22797W        W87958  26.701  42.938  13.614
22798W        W87959   3.956  33.637   3.660
22799W        W87960  18.659   2.316  11.584
22800W        W87961  17.807  41.760  13.059
22801W        W87962  38.825   5.242  14.403
22802W        W87963   9.151  12.964  12.013
22803W        W87964  25.206  12.576   3.413
22804W        W87965  22.594  23.695  10.594
22805W        W87966  16.238  22.115  14.838
22806W        W87967  37.943  27.618  12.463
22807W        W87968  26.820  26.539   1.346
22808W        W87969  28.044   4.738  10.463
22809W        W87970  34.953  11.154  13.310
22810W        W87971  34.498  25.772   0.771
22811W        W87972  19.960   9.277   1.577
22812W        W87973  14.193  38.693  13.173
22813W        W87974  27.550  23.363   4.525
22814W        W87975  14.689   2.536  14.008
22815W        W87976   3.458  11.882   4.260
22816W        W87977  29.097  11.889   2.675
22817W        W87978  20.945   6.776   3.199
22818W        W87979   1.333  19.035   4.624
22819W        W87980  20.248  11.618  10.992
22820W        W87981  36.070  22.909  14.595
22821W        W87982  37.687  26.952   4.269
22822W        W87983  27.440  11.075  12.113
22823W        W87984   4.695   3.415   4.138
22824W        W87985  28.050  24.078   4.934
22825W        W87986  43.441  11.686   0.680
22826W        W87987  44.363   2.178  13.970
22827W        W87988  18.703   2.833  12.752
22828W        W87989  16.059  26.661   3.522
22829W        W87990  32.755  39.040   2.829
22830W        W87991  14.600   8.431   1.766
22831W        W87992  33.835   2.659  12.312
22832W        W87993   3.231  31.648   0.892
22833W        W87994   8.140   4.912   4.933
22834W        W87995  36.084  18.693   4.210
22835W        W87996  36.751   0.288   2.745
22836W        W87997  15.146  31.336   3.657
22837W        W87998  32.410  27.498   1.750
22838W        W87999  21.545   4.412   3.879
22839W        W88000  23.285  36.949   1.857
22840W        W88001  10.994   3.043   4.149
22841W        W88002  24.946  14.854   3.739
22842W        W88003  44.297  39.199   1.008
22843W        W88004   1.716  12.060  12.424
22844W        W88005  18.289  21.246  10.782
22845W        W88006  10.376  37.552  13.417
22846W        W88007  25.481  37.960   3.198
22847W        W88008  44.358  41.505  13.032
22848W        W88009   8.689  21.101  10.857
22849W        W88010  14.046  14.648  10.635
22850W        W88011  24.028  27.903  11.096
22851W        W88012  24.290  33.416  13.906
22852W        W88013  36.088  44.950  13.383
22853W        W88014  38.007  40.679   2.857
22854W        W88015  40.545   3.221   1.012
22855W        W88016  28.046   3.601  11.426
22856W        W88017  35.530  41.420   4.348
22857W        W88018  38.900  28.185  13.308
22858W        W88019  37.426  35.395  12.898
22859W        W88020   6.457  25.114  10.620
22860W        W88021  28.483  39.495   0.968
22861W        W88022  18.899  39.270   4.972
22862W        W88023  44.920   1.097  12.134
22863W        W88024   8.375   3.582   0.727
22864W        W88025  38.619  24.462   0.813
22865W        W88026  25.615  22.203   3.190
22866W        W88027  23.080  23.752   0.674
22867W        W88028  33.043   8.483   4.132
22868W        W88029  33.187  12.785   2.870
22869W        W88030  16.657   5.968   2.430
22870W        W88031  17.010  33.571  12.542
22871W        W88032   1.489  15.872  11.197
22872W        W88033  15.192  28.034   0.359
22873W        W88034  27.131  42.949  10.716
22874W        W88035  28.104  10.787   1.973
22875W        W88036   1.844  18.825  14.040
22876W        W88037  27.627  44.533   2.594
22877W        W88038  19.397  21.206  10.230
22878W        W88039  27.221  39.901  10.101
22879W        W88040  21.457  34.086   4.866
22880W        W88041  34.130   2.303   1.624
22881W        W88042  23.707   4.428  12.130
22882W        W88043  27.680  39.974  14.033
22883W        W88044   2.887  24.137   3.611
22884W        W88045  31.207  44.371  11.946
22885W        W88046  38.093  44.986  13.491
22886W        W88047  36.545  37.134   3.037
22887W        W88048  35.418  31.899   4.945
22888W        W88049   9.291   3.695   4.132
22889W        W88050   4.001  41.992  12.553
22890W        W88051   7.878  34.900   4.557
22891W        W88052  28.401  24.965  11.151
22892W        W88053  41.772  30.927  13.962
22893W        W88054  36.030  25.013   0.495
22894W        W88055  14.429  43.805   0.488
22895W        W88056   2.395  24.235   1.455
22896W        W88057  15.174  29.464   1.461
22897W        W88058  14.064  27.490  14.803
22898W        W88059  36.859  20.834   1.836
22899W        W88060  15.289   2.322  14.762
22900W        W88061  18.228   9.557  12.005
22901W        W88062  27.405  26.846  12.606
22902W        W88063  29.442  22.764  14.730
22903W        W88064  36.822   1.682  11.416
22904W        W88065   5.276  42.844  10.120
22905W        W88066  44.961  17.673  10.652
22906W        W88067  38.252  13.643  11.537
22907W        W88068   3.006  28.136   0.177
22908W        W88069  33.166   2.225  12.514
22909W        W88070  12.883  43.825  10.589
22910W        W88071   4.327  28.462  14.330
22911W        W88072  28.215  10.347  12.030
22912W        W88073   0.576  28.771  12.068
22913W        W88074  38.417  11.795   1.863
22914W        W88075  23.208   8.750  13.018
22915W        W88076   6.004   1.772   2.926
22916W        W88077   1.032  10.410  11.048
22917W        W88078   8.166  33.963  12.950
22918W        W88079   4.024  21.228  10.862
22919W        W88080   2.931  20.480   3.501
22920W        W88081   1.351  37.813  14.367
22921W        W88082   8.950   0.928  11.103
22922W        W88083  38.422   5.248  10.470
22923W        W88084  42.942  24.597   2.288
22924W        W88085  38.050  29.958  11.989
22925W        W88086  32.322  39.552   2.271
22926W        W88087  29.968  27.033   1.892
22927W        W88088  28.109  11.767  13.351
22928W        W88089   5.650  12.896  10.561
22929W        W88090   8.214  18.804   4.217
22930W        W88091  20.102  41.717  12.152
22931W        W88092  26.405   8.250   3.145
22932W        W88093  23.243  11.344   2.903
22933W        W88094  11.176  14.956   4.230
22934W        W88095  35.952  25.042   3.888
22935W        W88096  26.566  27.195  13.794
22936W        W88097   1.236  17.290  13.928
22937W        W88098  35.541  18.097   0.386
22938W        W88099  14.020  29.523   5.032
22939W        W88100  31.032  37.905   4.095
22940W        W88101  37.246  14.980  14.418
22941W        W88102  27.697  22.732  11.080
22942W        W88103  40.756  42.069  13.487
22943W        W88104  25.236  19.355  13.620
22944W        W88105  34.986  29.164  11.973
22945W        W88106   4.894  19.019  12.933
22946W        W88107  11.416  19.192   3.199
22947W        W88108  15.350  43.722  13.491
22948W        W88109  12.752  40.412  14.294
22949W        W88110  39.271  26.247  14.233
22950W        W88111  21.343  17.256   4.866
22951W        W88112  32.696  22.007  11.035
22952W        W88113   5.831  25.009   2.440
22953W        W88114  18.501  27.621  12.600
22954W        W88115   5.825  27.258   4.754
22955W        W88116  21.028  44.930  13.971
22956W        W88117  40.016  36.213   4.492
22957W        W88118  29.920   6.781  14.134
22958W        W88119  18.334  30.967  12.462
22959W        W88120  31.485  42.676  13.797
22960W        W88121  32.646   9.417  12.054
22961W        W88122  30.033  25.642   0.639
22962W        W88123  33.207  12.623   4.112
22963W        W88124  34.965  23.219  10.775
22964W        W88125  31.742   3.839   3.107
22965W        W88126  35.926   1.280  13.087
22966W        W88127  28.011   0.369   3.395
22967W        W88128  37.867  19.700  12.012
22968W        W88129  39.589   3.170  10.430
22969W        W88130  32.948  13.090   0.667
22970W        W88131  23.603  39.537   3.792
22971W        W88132  22.130  29.093  10.746
22972W        W88133  20.078  15.690   0.397
22973W        W88134  44.378  10.869  11.172
22974W        W88135  22.506  13.116   0.776
22975W        W88136  27.654  14.835   4.055
22976W        W88137  21.669  44.383   1.407
22977W        W88138  22.610  34.115   3.205
22978W        W88139   0.357  39.785   2.699
22979W        W88140  16.417  44.768   4.488
22980W        W88141  18.637   5.143  12.670
22981W        W88142   8.443  35.172   0.081
22982W        W88143   7.882  27.488   3.780
22983W        W88144  39.295  29.381  10.730
22984W        W88145  33.642  10.297  11.018
22985W        W88146  18.028   1.616   0.440
22986W        W88147  14.875  37.356   4.153
22987W        W88148  44.453   6.826  11.151
22988W        W88149  22.097  41.917   3.303
22989W        W88150  38.761   8.141   3.208
22990W        W88151   6.543  44.354  13.375
22991W        W88152  30.993  21.001   4.570
22992W        W88153   4.828  22.952   2.694
22993W        W88154   2.183  13.226  11.180
22994W        W88155  25.441  32.065  12.522
22995W        W88156  25.669  39.486   2.333
22996W        W88157  12.763  11.180   0.794
22997W        W88158  39.546  32.172   3.210
22998W        W88159  18.009  43.049  14.711
22999W        W88160   5.665   8.394  13.250
23000W        W88161   1.120  19.637  13.847
23001W        W88162  37.243  13.672   4.821
23002W        W88163  33.603  43.976  13.803
23003W        W88164  17.212  35.918   0.316
23004W        W88165   2.831  11.259  13.584
23005W        W88166  31.995  10.956  11.538
23006W        W88167   4.809  33.069  12.616
23007W        W88168  16.686   9.417  13.441
23008W        W88169   5.407  43.064  12.030
23009W        W88170  24.519   8.179   0.772
23010W        W88171  37.015  40.774  10.297
23011W        W88172  25.588   9.404   9.789
23012W        W88173  22.544  26.714  11.672
23013W        W88174  44.464  20.496   4.768
23014W        W88175   0.337  17.060   1.734
23015W        W88176   3.411  11.252   2.800
23016W        W88177  22.258  17.339   1.293
23017W        W88178  30.514  20.685   0.777
23018W        W88179  43.065  42.576   1.893
23019W        W88180   8.278  24.626   1.379
23020W        W88181  14.785  16.696  13.799
23021W        W88182  35.070  29.538   1.390
23022W        W88183  44.656  42.398   4.700
23023W        W88184   0.429  38.377  13.582
23024W        W88185  21.231  42.860  12.779
23025W        W88186  38.643  23.934  10.792
23026W        W88187  39.289  26.907  14.782
23027W        W88188   7.567  11.635   1.837
23028W        W88189  38.182  34.509  12.910
23029W        W88190   4.231   6.400  11.920
23030W        W88191  31.989  18.258  10.302
23031W        W88192  18.798  10.441  11.239
23032W        W88193  14.341  39.403   9.829
23033W        W88194  41.505   5.664  12.491
23034W        W88195  21.751  19.766  11.822
23035W        W88196   2.471  41.773  13.229
23036W        W88197  12.461  44.700  11.956
23037W        W88198  42.942  19.514  12.994
23038W        W88199  38.983  44.002   3.282
23039W        W88200   7.284  36.272   1.444
23040W        W88201  10.668  28.925   4.398
23041W        W88202  13.354  20.684   2.001
23042W        W88203  24.258   2.868  11.656
23043W        W88204  40.423  14.100   0.874
23044W        W88205  32.759  36.006   3.059
23045W        W88206  32.715  43.781  13.240
23046W        W88207  21.974  11.709   2.442
23047W        W88208  40.563  22.372   4.922
23048W        W88209  31.765  44.028  11.664
23049W        W88210   3.026  36.772   3.694
23050W        W88211  10.296  15.193  14.015
23051W        W88212  30.820  38.555   2.834
23052W        W88213  42.387  23.578  14.999
23053W        W88214  28.465  25.132  14.500
23054W        W88215  16.071  43.194  13.894
23055W        W88216  10.687   0.015   4.589
23056W        W88217  41.861   5.708  12.093
23057W        W88218  20.323   6.151   2.517
23058W        W88219   1.306  19.740   2.330
23059W        W88220  38.039   8.836  10.837
23060W        W88221  22.187  25.608   1.830
23061W        W88222  16.941  15.602   4.484
23062W        W88223  24.520  27.176  14.879
23063W        W88224  21.079  25.176  12.551
23064W        W88225  34.478  19.412   1.291
23065W        W88226  27.470  28.892  12.087
23066W        W88227  35.137   4.862  13.373
23067W        W88228  23.012   4.362   1.177
23068W        W88229   9.937  10.464   1.022
23069W        W88230  14.336  29.082  12.150
23070W        W88231  18.097  37.106   1.584
23071W        W88232  20.620  38.857  11.077
23072W        W88233  13.783   8.322  10.774
23073W        W88234  14.795   5.909   4.956
23074W        W88235  21.761  35.888   3.324
23075W        W88236   2.340  26.749   0.498
23076W        W88237  33.992   7.437   0.789
23077W        W88238  35.057  16.922  13.393
23078W        W88239  22.774  18.358  13.851
23079W        W88240   1.281  18.361   0.776
23080W        W88241  19.707   7.142   3.693
23081W        W88242  40.784  22.513  12.234
23082W        W88243  36.156  38.844   1.929
23083W        W88244  21.033  23.783  14.001
23084W        W88245  30.040   4.841  13.961
23085W        W88246  40.463  34.961   0.390
23086W        W88247  35.570   7.825   1.264
23087W        W88248  42.192  17.682  11.046
23088W        W88249  39.328  16.622   3.347
23089W        W88250  25.414  13.708  12.994
23090W        W88251  12.823  19.308   3.077
23091W        W88252   8.926  22.354   1.593
23092W        W88253  25.223  42.231  12.503
23093W        W88254  16.642  43.909  11.526
23094W        W88255  26.974  34.044   4.241
23095W        W88256  18.894  39.188   1.645
23096W        W88257  33.513   0.586  10.646
23097W        W88258  35.601  38.095  11.469
23098W        W88259  17.522   0.582   0.419
23099W        W88260  24.159  36.839  10.175
23100W        W88261   3.985  25.002   2.205
23101W        W88262  23.627  32.323  13.546
23102W        W88263  17.022  13.761   2.431
23103W        W88264  20.319   1.243  14.379
23104W        W88265   2.682  42.403  12.451
23105W        W88266  40.482  26.094  11.929
23106W        W88267  39.303  34.622  12.571
23107W        W88268  22.252  12.101   2.221
23108W        W88269  19.632  39.572   2.706
23109W        W88270  19.676   4.723   0.780
23110W        W88271  40.635  11.231  10.803
23111W        W88272  40.513   3.850  13.582
23112W        W88273   4.179   3.465  10.190
23113W        W88274  20.729  23.599  10.687
23114W        W88275   7.326  11.606   0.716
23115W        W88276   9.736  41.039  11.519
23116W        W88277  35.899  26.497   2.737
23117W        W88278  24.528  15.000  14.207
23118W        W88279  12.601  26.500  13.760
23119W        W88280  30.152  33.589   3.194
23120W        W88281  34.350   6.912   4.016
23121W        W88282  20.794   7.760   3.254
23122W        W88283  17.601  33.058   2.302
23123W        W88284  19.583  27.723  11.580
23124W        W88285  24.001  39.253   1.391
23125W        W88286  29.061  28.472  11.529
23126W        W88287  41.341   5.766   0.490
23127W        W88288  21.192  26.022  11.191
23128W        W88289   9.713  27.455   2.214
23129W        W88290  15.473  40.358   2.594
23130W        W88291   4.972  10.828   1.287
23131W        W88292  21.109  11.339  10.708
23132W        W88293  43.270   8.181   3.955
23133W        W88294   5.346  44.703   3.214
23134W        W88295   5.720  20.542  13.641
23135W        W88296  26.201  25.622   2.050
23136W        W88297   1.445  23.505   2.390
23137W        W88298  19.282  17.073   0.739
23138W        W88299  14.061  36.849   2.919
23139W        W88300  12.845  36.122   4.204
23140W        W88301   4.887  42.710  14.853
23141W        W88302  13.181  11.640   1.456
23142W        W88303  30.441  23.780  14.057
23143W        W88304  17.550  24.531  14.009
23144W        W88305  24.230  24.014   0.409
23145W        W88306  18.202  17.489   2.762
23146W        W88307  10.239   6.615   0.587
23147W        W88308  43.827   8.771   3.726
23148W        W88309  43.857   1.403   4.610
23149W        W88310   2.672  42.484  10.516
23150W        W88311  25.199  28.816  13.060
23151W        W88312  32.055  18.997  12.144
23152W        W88313   1.107  37.494  10.687
23153W        W88314   8.887  31.617   3.703
23154W        W88315   0.868  19.741   3.507
23155W        W88316  35.998  27.676   0.947
23156W        W88317   1.822  25.650  12.817
23157W        W88318   2.325  40.936  11.476
23158W        W88319  11.929  11.890  12.471
23159W        W88320  10.663  34.446  11.482
23160W        W88321  37.990  13.691   2.957
23161W        W88322  30.913  21.532   0.180
23162W        W88323   2.372   1.782   1.654
23163W        W88324   3.305   6.775   4.331
23164W        W88325  43.921  40.052   3.833
23165W        W88326  37.408  42.686  14.208
23166W        W88327  17.075  36.051  13.263
23167W        W88328  15.514   1.906   4.528
23168W        W88329  17.343  31.373  11.700
23169W        W88330   8.379   5.371   2.252
23170W        W88331   5.712  15.349  11.667
23171W        W88332  18.670  29.623  12.447
23172W        W88333  24.576  26.527   1.227
23173W        W88334   3.163  26.829   2.297
23174W        W88335  22.769   0.616  14.373
23175W        W88336  43.827  23.144   2.903
23176W        W88337  41.626  26.016  13.454
23177W        W88338   6.551   9.712  13.909
23178W        W88339  44.416  33.121   0.840
23179W        W88340   0.387  27.458  14.504
23180W        W88341  16.622   6.172   4.670
23181W        W88342  36.842  23.258   3.430
23182W        W88343  16.738   6.709  14.158
23183W        W88344   8.889  38.484   2.601
23184W        W88345   8.143  35.825   4.168
23185W        W88346  15.522  13.271  14.422
23186W        W88347  26.068  32.503   0.972
23187W        W88348  19.327   0.830   1.017
23188W        W88349   0.910  13.689  14.315
23189W        W88350  26.963  35.397  13.862
23190W        W88351  34.383   0.250   2.706
23191W        W88352  36.930  34.958  13.095
23192W        W88353  17.623  12.345   3.147
23193W        W88354  39.920  22.551   4.844
23194W        W88355  31.389  13.546  11.162
23195W        W88356  16.215  19.225  14.341
23196W        W88357   1.978  12.284  12.038
23197W        W88358   2.718   1.861   0.778
23198W        W88359  23.628  25.207  11.168
23199W        W88360  37.634  19.642  13.939
23200W        W88361  38.431  36.077  10.906
23201W        W88362  26.275   3.382  13.882
23202W        W88363  33.130  29.661   4.937
23203W        W88364  38.542  42.509   0.287
23204W        W88365  14.014  28.918  13.917
23205W        W88366  28.712  27.497  14.895
23206W        W88367  29.896  32.523   1.201
23207W        W88368  16.059  16.216  12.586
23208W        W88369  44.141  24.204  12.903
23209W        W88370   7.411  13.841  10.682
23210W        W88371  17.134  37.890   1.496
23211W        W88372  14.929  32.016   1.298
23212W        W88373  18.540   2.917  10.715
23213W        W88374   0.317  41.113   0.386
23214W        W88375   1.536  26.584   0.795
23215W        W88376   5.528   7.352  12.465
23216W        W88377   3.635  29.568   1.977
23217W        W88378  11.256  35.339   4.225
23218W        W88379  12.942  13.832   3.155
23219W        W88380  28.416  27.765   4.132
23220W        W88381   6.786   1.188  12.914
23221W        W88382  10.031  12.506   1.460
23222W        W88383  39.412  23.989  13.242
23223W        W88384  37.928   7.513  11.108
23224W        W88385   5.222   5.034  11.582
23225W        W88386  23.980  43.391   0.422
23226W        W88387  16.249  24.072  10.640
23227W        W88388   4.277  43.974  11.365
23228W        W88389  16.242  21.473  11.609
23229W        W88390  18.638  26.050   0.629
23230W        W88391  34.674  34.584   3.732
23231W        W88392  10.633   0.864   2.765
23232W        W88393   9.922  42.446   2.225
23233W        W88394  35.174  28.647  14.847
23234W        W88395  20.967  43.825  14.833
23235W        W88396  23.799   8.766  13.873
23236W        W88397  20.820  28.979  14.286
23237W        W88398   7.196   1.527   1.299
23238W        W88399  44.910  20.161   0.015
23239W        W88400  41.332  10.450   9.817
23240W        W88401  18.913  26.140   3.183
23241W        W88402   9.922  20.184  10.587
23242W        W88403   9.668  20.711  14.027
23243W        W88404  21.210   3.901  13.320
23244W        W88405  35.651  41.214  12.975
23245W        W88406  33.559  30.710   4.110
23246W        W88407   4.432  12.842   2.313
23247W        W88408  13.886   7.993   3.853
23248W        W88409  10.176  42.799  11.960
23249W        W88410  20.468   2.789   4.937
23250W        W88411  37.552  35.630  11.889
23251W        W88412  29.467   1.047  14.321
23252W        W88413   7.931  38.102   4.083
23253W        W88414  16.487  44.557   9.843
23254W        W88415  19.024   1.742   1.751
23255W        W88416  32.491  24.455  10.637
23256W        W88417  31.861  13.118  11.048
23257W        W88418  43.417  32.277  13.801
23258W        W88419  36.893   0.825  11.366
23259W        W88420  36.092  43.796  12.623
23260W        W88421  27.613   4.462   2.170
23261W        W88422  16.136  29.559   3.141
23262W        W88423  22.557  17.050   1.913
23263W        W88424   0.875  10.052  11.424
23264W        W88425  35.911  31.038  11.404
23265W        W88426  28.609  19.501   3.304
23266W        W88427  19.009  12.143   3.245
23267W        W88428   7.160  44.489   2.003
23268W        W88429  15.834  33.449  14.795
23269W        W88430   8.757  12.129  12.135
23270W        W88431  22.823  14.136  10.528
23271W        W88432   4.193  15.026   2.800
23272W        W88433  39.413  26.093   2.331
23273W        W88434  14.096  37.055   3.432
23274W        W88435  21.776  29.021   1.839
23275W        W88436  23.256  40.770   3.367
23276W        W88437  26.904   6.836   2.402
23277W        W88438  29.589  33.051   0.422
23278W        W88439   7.204  14.146  13.790
23279W        W88440  41.747  12.766   3.838
23280W        W88441  40.801  39.765   0.243
23281W        W88442  40.848  44.190   3.767
23282W        W88443  29.998  39.914  13.476
23283W        W88444   9.650   6.177  13.568
23284W        W88445  32.519  34.966   4.217
23285W        W88446  39.911  18.680   3.330
23286W        W88447  23.946  15.652  14.741
23287W        W88448  39.202  17.747  11.143
23288W        W88449  30.502  15.397   3.787
23289W        W88450  21.507  40.028  10.100
23290W        W88451  13.126   1.674  13.497
23291W        W88452  28.537  41.909   0.031
23292W        W88453  41.932  17.484  10.652
23293W        W88454  43.522  24.296   4.882
23294W        W88455   0.395  41.258   3.674
23295W        W88456  30.048  20.119   3.744
23296W        W88457  32.960  16.347  14.187
23297W        W88458  18.974  30.526   1.513
23298W        W88459  10.940  43.378   1.500
23299W        W88460  26.494  39.193  10.392
23300W        W88461  10.977   0.175  12.512
23301W        W88462  38.366   2.168   2.673
23302W        W88463  19.737  33.815  13.746
23303W        W88464  34.576  33.131  10.653
23304W        W88465  19.615  18.038   2.951
23305W        W88466  24.878  19.497   4.068
23306W        W88467  36.788  32.418   1.270
23307W        W88468  10.731  42.032  11.997
23308W        W88469   2.512   7.177  10.363
23309W        W88470  35.530  44.057   4.117
23310W        W88471  33.553  32.148   1.862
23311W        W88472  22.551  24.486   1.756
23312W        W88473  27.802   1.837  12.442
23313W        W88474  14.600  28.076   0.446
23314W        W88475  11.234  16.304   4.088
23315W        W88476  24.187  35.460   3.778
23316W        W88477   6.283  42.056  12.635
23317W        W88478  15.846  11.531  12.034
23318W        W88479  28.979  37.993   4.693
23319W        W88480  33.105  41.689  11.043
23320W        W88481  16.792   6.775   1.149
23321W        W88482  40.862  34.831  14.317
23322W        W88483  26.427   3.812  14.535
23323W        W88484  22.400  11.477   2.257
23324W        W88485  27.978  25.593  13.808
23325W        W88486  33.090   0.225  12.522
23326W        W88487  43.956  35.641  12.177
23327W        W88488  33.730  11.009   2.373
23328W        W88489  42.152   8.331   0.878
23329W        W88490  16.556  20.023   1.183
23330W        W88491  42.354  34.219  14.691
23331W        W88492  14.091  17.577   4.209
23332W        W88493  34.710  17.495  13.025
23333W        W88494  16.351   9.833  12.128
23334W        W88495  41.412  26.449  13.119
23335W        W88496  18.551  28.494   2.765
23336W        W88497  16.190  24.936   3.157
23337W        W88498  32.191   0.874  10.616
23338W        W88499   3.688  29.816   2.434
23339W        W88500  27.536  41.991   2.677
23340W        W88501   8.690  12.348  14.314
23341W        W88502  42.026   4.949   4.126
23342W        W88503   7.332  15.377   0.744
23343W        W88504  41.916  40.328  11.256
23344W        W88505  23.829  12.610  13.834
23345W        W88506  23.425  41.402  11.166
23346W        W88507   5.737  15.222  14.424
23347W        W88508  22.543  33.715   5.043
23348W        W88509  19.682  43.756  14.643
23349W        W88510  11.071  38.967   2.878
23350W        W88511  36.728  43.520   4.469
23351W        W88512  13.596  34.330   1.802
23352W        W88513  33.532  39.269  13.982
23353W        W88514   8.861   5.587   2.313
23354W        W88515   3.696   1.396  14.331
23355W        W88516  34.618  14.125   1.076
23356W        W88517  37.449  23.570  14.810
23357W        W88518  12.979  44.403  12.774
23358W        W88519  42.967   3.697   2.963
23359W        W88520   1.293   0.539   4.238
23360W        W88521  13.315  12.113   2.415
23361W        W88522   1.311   6.924  11.916
23362W        W88523  26.556  18.799   1.273
23363W        W88524  24.553   1.917   5.068
23364W        W88525  34.806  42.139   2.265
23365W        W88526  44.301  34.091   4.243
23366W        W88527  38.962   6.564  11.935
23367W        W88528  24.024  39.237  14.932
23368W        W88529  14.296  13.123  14.840
23369W        W88530  33.484  12.803   3.292
23370W        W88531   6.208  35.911   4.157
23371W        W88532  11.879  39.092  13.341
23372W        W88533   1.525  31.078  14.549
23373W        W88534  17.149  38.757   0.380
23374W        W88535  37.814  40.833   4.589
23375W        W88536  43.883  38.985  10.685
23376W        W88537  15.256   5.804   0.189
23377W        W88538   9.139  44.536  14.763
23378W        W88539  25.650  13.121  14.489
23379W        W88540   7.164  19.318   2.431
23380W        W88541  21.653  31.684  14.998
23381W        W88542  19.271  36.267   2.287
23382W        W88543  16.265  43.582  13.498
23383W        W88544   6.872  29.950  10.795
23384W        W88545  18.467   9.783   2.398
23385W        W88546  28.404  11.792   0.375
23386W        W88547  15.857  30.199   0.295
23387W        W88548  35.847  41.097  14.190
23388W        W88549  22.121  34.632   1.727
23389W        W88550   9.846   6.631   4.100
23390W        W88551  23.721  31.062  13.936
23391W        W88552  24.873  36.826   4.308
23392W        W88553  39.063   0.842   0.209
23393W        W88554   5.709  39.110   1.406
23394W        W88555  39.315  29.982  13.321
23395W        W88556  21.954   4.683   4.080
23396W        W88557  29.930  44.074  14.582
23397W        W88558  24.774  32.195   0.336
23398W        W88559  13.737   9.316  10.698
23399W        W88560  33.848  37.535   1.781
23400W        W88561  18.872  15.145  12.921
23401W        W88562  17.993  10.857   0.070
23402W        W88563  39.327  26.486   2.780
23403W        W88564  15.195   8.199   0.856
23404W        W88565  31.852  40.466   2.402
23405W        W88566   0.836  10.237   3.612
23406W        W88567  35.871  44.677   0.715
23407W        W88568  24.583  10.178   3.301
23408W        W88569  29.205  26.247   0.468
23409W        W88570  29.097  40.052  13.090
23410W        W88571  26.747   4.421   1.012
23411W        W88572  12.884  23.688   0.410
23412W        W88573  28.688  28.017  13.475
23413W        W88574  27.102   3.308   0.524
23414W        W88575  38.302   2.166   1.276
23415W        W88576  16.102  13.787   3.644
23416W        W88577  16.673  30.790   1.578
23417W        W88578   5.370  32.991  11.492
23418W        W88579  43.072  26.196   2.766
23419W        W88580   3.241  23.470  14.408
23420W        W88581   2.559  27.848   9.854
23421W        W88582  21.255  37.708  10.191
23422W        W88583  32.948   0.705  13.841
23423W        W88584   1.746  10.405  12.379
23424W        W88585  21.918  27.807  11.608
23425W        W88586   1.314   1.281  11.530
23426W        W88587  30.939  37.743  10.752
23427W        W88588  13.014  39.747  12.470
23428W        W88589  39.561  16.058  12.018
23429W        W88590  11.592  28.407   1.891
23430W        W88591  26.266   5.400  14.870
23431W        W88592  13.238  29.702   3.615
23432W        W88593  36.835   1.504  13.170
23433W        W88594   0.873   4.813   2.516
23434W        W88595  11.120  29.639  12.889
23435W        W88596   3.924   0.728   9.949
23436W        W88597  36.943  42.991   0.091
23437W        W88598  25.536  16.069  11.993
23438W        W88599  31.007  35.048   4.652
23439W        W88600  22.585  13.718  12.285
23440W        W88601  12.764  25.443  13.477
23441W        W88602  38.781   7.593   0.404
23442W        W88603  29.261  29.617   4.577
23443W        W88604  14.129  41.199  10.152
23444W        W88605  16.750  43.116  10.658
23445W        W88606  11.615  11.911  10.755
23446W        W88607  28.055  28.510  12.521
23447W        W88608  37.882  10.934  14.953
23448W        W88609  39.009  21.690  13.440
23449W        W88610  12.135   9.164   3.960
23450W        W88611  14.777  15.665  11.442
23451W        W88612   4.352  30.492   3.243
23452W        W88613  38.491  18.052   2.204
23453W        W88614  35.457   6.064   0.516
23454W        W88615  16.263  10.271  11.852
23455W        W88616  11.663  41.018  11.797
23456W        W88617  40.973   8.700   3.484
23457W        W88618  23.130  40.374   0.885
23458W        W88619  10.130  42.321  12.538
23459W        W88620  33.718  40.945  11.967
23460W        W88621  41.993  17.996  10.655
23461W        W88622   3.922  17.593  12.897
23462W        W88623  41.244  44.768   0.239
23463W        W88624  27.127  26.939   1.364
23464W        W88625  23.997   8.031  14.772
23465W        W88626   8.328  11.458   3.364
23466W        W88627  44.168  13.260   1.013
23467W        W88628   1.180  39.018  14.217
23468W        W88629  29.941   0.879  14.471
23469W        W88630  37.956  41.031   1.268
23470W        W88631   5.337  41.428  14.886
23471W        W88632  38.697   0.356   4.033
23472W        W88633  23.650  17.129   4.909
23473W        W88634  12.981   9.158  11.176
23474W        W88635  37.489  12.868   0.941
23475W        W88636  33.799   9.379   2.282
23476W        W88637  32.037  16.186   2.919
23477W        W88638  23.993  18.538  10.792
23478W        W88639   4.654  32.535   2.332
23479W        W88640   8.164   6.288   1.222
23480W        W88641  33.399  40.269   2.473
23481W        W88642  11.310  31.659  12.065
23482W        W88643  21.628  39.338   1.846
23483W        W88644  18.883  18.853   1.778
23484W        W88645  39.596  43.531   2.284
23485W        W88646   1.319   5.891   2.803
23486W        W88647  30.531  13.207  11.526
23487W        W88648  44.719   0.210  12.286
23488W        W88649   3.304  12.861   0.891
23489W        W88650   6.881   1.897  12.081
23490W        W88651  27.927  43.732   2.802
23491W        W88652   2.911  24.176   0.857
23492W        W88653  10.794   8.798   1.851
23493W        W88654  28.503  28.608  14.336
23494W        W88655   8.856  28.119   4.655
23495W        W88656  39.010   8.003   1.337
23496W        W88657  27.734   9.179   4.084
23497W        W88658  35.095   4.202  13.053
23498W        W88659  10.686  12.398   0.104
23499W        W88660  38.381  35.026   3.104
23500W        W88661   1.402  10.741   5.197
23501W        W88662   5.669  24.667  10.212
23502W        W88663   5.507  15.362   9.841
23503W        W88664   9.410  35.967   3.612
23504W        W88665  15.101  17.195   4.077
23505W        W88666  15.927  36.601  11.999
23506W        W88667  17.415  38.742   1.786
23507W        W88668  13.076  27.477  10.814
23508W        W88669   3.192   1.373  13.462
23509W        W88670  15.841   8.023   2.297
23510W        W88671  31.681  33.114  12.502
23511W        W88672  18.523  29.416   0.828
23512W        W88673  13.019  39.103  12.460
23513W        W88674  36.552  32.335   3.256
23514W        W88675  15.986  33.431  12.502
23515W        W88676  11.159  33.743   0.829
23516W        W88677  20.248  10.324   4.080
23517W        W88678  26.782  13.744  13.310
23518W        W88679   7.145  39.040  13.012
23519W        W88680  15.479  31.416   3.279
23520W        W88681  37.926  21.643   3.579
23521W        W88682  29.765  27.579   4.696
23522W        W88683   5.052  20.123   4.072
23523W        W88684  27.661  21.232  13.917
23524W        W88685  13.143   0.918   3.544
23525W        W88686   7.769  43.035   1.909
23526W        W88687  30.178   2.170   0.410
23527W        W88688  23.470  21.082  12.878
23528W        W88689  41.504  29.175   2.121
23529W        W88690  41.206   3.128  14.770
23530W        W88691  27.620  41.013   0.380
23531W        W88692  15.180   6.391   3.709
23532W        W88693  24.840  44.910  13.391
23533W        W88694   4.864  35.826  14.989
23534W        W88695  44.675  13.832   0.220
23535W        W88696  10.720  38.490   4.186
23536W        W88697  42.514   2.047   3.185
23537W        W88698   9.433  35.412  12.044
23538W        W88699  41.752  20.699  14.183
23539W        W88700  19.017  11.678  14.022
23540W        W88701  30.053  22.185   5.469
23541W        W88702  23.341  26.261  11.570
23542W        W88703  24.681  42.481  11.270
23543W        W88704  16.143  31.085   2.342
23544W        W88705  20.282  32.913   0.898
23545W        W88706  32.817  37.832  10.684
23546W        W88707   9.518  25.109  11.507
23547W        W88708  20.943   3.292  12.636
23548W        W88709  41.956  13.644  14.498
23549W        W88710  16.958  20.213  10.679
23550W        W88711  34.879  42.154  12.014
23551W        W88712   5.263  40.358  12.264
23552W        W88713   2.731  42.127  12.902
23553W        W88714  38.265   0.793  12.083
23554W        W88715  23.990  32.296   3.276
23555W        W88716  11.314  29.502  13.863
23556W        W88717  38.347  37.525   4.629
23557W        W88718  43.868  25.279  10.866
23558W        W88719  17.588   7.186  14.875
23559W        W88720  11.177   8.406   1.865
23560W        W88721   8.066  44.609  10.303
23561W        W88722  25.012   3.382  10.729
23562W        W88723   9.859  28.206   3.851
23563W        W88724  13.504  20.272   2.244
23564W        W88725  28.184  43.852  11.538
23565W        W88726  14.828  10.853   0.979
23566W        W88727   5.448   9.748   3.122
23567W        W88728  18.645  43.851   0.733
23568W        W88729  27.379  40.002  12.382
23569W        W88730  29.343  18.269  10.668
23570W        W88731   7.186  24.226  12.468
23571W        W88732   5.055   0.209  11.947
23572W        W88733  33.142  39.216  14.406
23573W        W88734  40.929   1.497   2.293
23574W        W88735   9.690  17.031   4.818
23575W        W88736  11.278  22.240  14.781
23576W        W88737  14.286  14.619  12.455
23577W        W88738  14.307  35.526   3.359
23578W        W88739   5.260  23.852   3.734
23579W        W88740  39.071  38.939   3.328
23580W        W88741   7.345  10.298   1.416
23581W        W88742  33.863  39.632   3.636
23582W        W88743  29.379  27.479   4.357
23583W        W88744  23.388  27.522  13.908
23584W        W88745  27.580  20.071   1.546
23585W        W88746  19.935   7.861   1.242
23586W        W88747  42.496   0.962   4.617
23587W        W88748  19.613  34.547   3.015
23588W        W88749  31.427  24.597   0.814
23589W        W88750  44.751  42.515  10.682
23590W        W88751  23.312  28.129   0.904
23591W        W88752  14.122   1.248   0.673
23592W        W88753  43.722  23.155   0.508
23593W        W88754  37.957   8.737   1.807
23594W        W88755  35.069  42.282   1.839
23595W        W88756  43.557  35.084   0.672
23596W        W88757  39.862  10.643   3.839
23597W        W88758   0.188  19.708  10.678
23598W        W88759  24.673  35.232  10.612
23599W        W88760  41.933   1.376  10.745
23600W        W88761  21.918  29.384   4.543
23601W        W88762  20.707   0.253   1.391
23602W        W88763  14.787   2.256  13.591
23603W        W88764   5.266  39.275   1.703
23604W        W88765  26.565  18.865   3.846
23605W        W88766  21.499  28.479   4.569
23606W        W88767  38.904  40.949   0.847
23607W        W88768  44.091  41.239   0.976
23608W        W88769   4.944  37.367   0.909
23609W        W88770  37.068  32.361   3.271
23610W        W88771  14.881  26.149   2.188
23611W        W88772   6.814   8.858  11.205
23612W        W88773  26.643   9.893  12.097
23613W        W88774   6.844  40.736   4.138
23614W        W88775  18.580  28.812   0.253
23615W        W88776  34.072  31.999   2.322
23616W        W88777   5.833   7.794  12.412
23617W        W88778  43.795  15.565   2.340
23618W        W88779  16.307  15.199   1.218
23619W        W88780  23.656  35.602   0.339
23620W        W88781   1.621  11.619  11.542
23621W        W88782  33.621  44.684  13.215
23622W        W88783   0.423  39.367   2.160
23623W        W88784  17.746  22.285  11.521
23624W        W88785  18.597  34.861  13.531
23625W        W88786   6.527  22.845  13.628
23626W        W88787  32.013  30.013  11.943
23627W        W88788   8.225   6.581   1.674
23628W        W88789  22.627   2.965  11.135
23629W        W88790   5.737  27.238  11.088
23630W        W88791  10.623  43.923  12.972
23631W        W88792  26.228   5.966   1.441
23632W        W88793  15.264  11.725  14.246
23633W        W88794   9.803  32.045  11.540
23634W        W88795  11.141   1.746   4.743
23635W        W88796  38.435  42.585  12.424
23636W        W88797   8.409   8.842  13.092
23637W        W88798  44.539  40.536   2.779
23638W        W88799  25.623  33.967  11.843
23639W        W88800   6.341   1.991   4.534
23640W        W88801   6.849   3.433  13.089
23641W        W88802  22.530  30.402  11.676
23642W        W88803  25.592   2.838  11.402
23643W        W88804  36.574   8.530   2.255
23644W        W88805  12.034  21.176   3.608
23645W        W88806  35.093  44.136   3.253
23646W        W88807   4.674   9.929   4.932
23647W        W88808  13.772  35.936   2.892
23648W        W88809  32.359  37.404  14.312
23649W        W88810  16.360   2.860   3.248
23650W        W88811  15.057  21.676  14.161
23651W        W88812  38.493  11.308   4.686
23652W        W88813   5.402  37.814   3.719
23653W        W88814  22.474  19.543   1.048
23654W        W88815  40.369  33.148  10.843
23655W        W88816  35.419  12.994   0.751
23656W        W88817  15.147  19.510  13.862
23657W        W88818   7.180  32.830  12.865
23658W        W88819  20.542   9.663   0.716
23659W        W88820  44.446  28.842  11.494
23660W        W88821  41.526  35.013  11.967
23661W        W88822  36.343   3.366   0.024
23662W        W88823   4.193  42.396  12.282
23663W        W88824  25.149   4.888  12.611
23664W        W88825  14.131  28.229   2.842
23665W        W88826  15.273  31.433   0.741
23666W        W88827   1.480  25.690   4.544
23667W        W88828  26.996  32.889   1.765
23668W        W88829   9.286  38.520  10.604
23669W        W88830  26.909  11.949   2.284
23670W        W88831  31.427  39.465   2.264
23671W        W88832  10.818  23.515   1.809
23672W        W88833  10.816  15.073  10.698
23673W        W88834  31.378  31.057  14.793
23674W        W88835  37.088  20.199   3.300
23675W        W88836  34.527   4.065  13.726
23676W        W88837  15.648  35.673   2.666
23677W        W88838  14.098   1.809   0.650
23678W        W88839  32.457  16.751  12.025
23679W        W88840   4.362  13.907   1.364
23680W        W88841  19.848  38.038   4.002
23681W        W88842  25.295  20.596   4.650
23682W        W88843  22.711  43.054  13.067
23683W        W88844  42.874   7.489   1.378
23684W        W88845  18.331  32.583  14.460
23685W        W88846   5.890  26.875  12.074
23686W        W88847  30.435  37.763  14.834
23687W        W88848  44.874  19.309  12.195
23688W        W88849  13.175   9.397  13.974
23689W        W88850   8.952  31.587  11.119
23690W        W88851  44.707  24.534  14.589
23691W        W88852  18.853  25.469  14.309
23692W        W88853   0.247  27.014   2.889
23693W        W88854  20.916   8.608   4.183
23694W        W88855  27.434   5.333  12.314
23695W        W88856  22.037   5.481   4.508
23696W        W88857   3.849   8.073  11.581
23697W        W88858  22.598  32.175   1.673
23698W        W88859   0.789  36.724  14.956
23699W        W88860  38.072  15.705   4.645
23700W        W88861  29.984   1.259  11.596
23701W        W88862  25.908  19.602   1.447
23702W        W88863  28.425  35.867  12.052
23703W        W88864  13.147  44.883  11.526
23704W        W88865  24.226  34.058  11.538
23705W        W88866  34.036  30.320   1.170
23706W        W88867   8.136  29.995   0.927
23707W        W88868  28.487   4.223   1.604
23708W        W88869  27.599  10.771  14.204
23709W        W88870  42.310  15.166  14.605
23710W        W88871  25.808  21.624   9.553
23711W        W88872  41.904  23.137   4.798
23712W        W88873  10.865  16.724   2.271
23713W        W88874  30.553   5.677   1.766
23714W        W88875  31.648  27.502   3.718
23715W        W88876  28.565  38.864  13.008
23716W        W88877  34.410  22.383  10.089
23717W        W88878  41.495  44.467  14.887
23718W        W88879  41.267  11.418  11.560
23719W        W88880   2.388  27.180  10.520
23720W        W88881  11.323  19.722  11.696
23721W        W88882  37.530   7.258  13.060
23722W        W88883  29.722   6.706   0.366
23723W        W88884  34.966   5.915   0.349
23724W        W88885  36.523  32.111  11.155
23725W        W88886  17.007   3.551   4.037
23726W        W88887  22.617  18.621  14.691
23727W        W88888  10.538  42.541  14.436
23728W        W88889  16.193  23.983   4.089
23729W        W88890  29.100  42.309   3.133
23730W        W88891  44.424  23.954  11.969
23731W        W88892   0.985  35.365  11.502
23732W        W88893  31.891   5.969  14.413
23733W        W88894  31.985   1.266  11.186
23734W        W88895  27.512   2.268  12.462
23735W        W88896  17.440   2.912  12.010
23736W        W88897  15.560  18.543   5.566
23737W        W88898  43.290  27.603  10.457
23738W        W88899  12.806  16.168   0.197
23739W        W88900   3.652   7.797  13.303
23740W        W88901  29.193  38.732   4.000
23741W        W88902  20.433   6.775   3.218
23742W        W88903  40.275  26.701  11.891
23743W        W88904   6.257  23.488  14.400
23744W        W88905  39.375  23.156  11.651
23745W        W88906  36.113  44.915   4.534
23746W        W88907  42.692  31.193   1.807
23747W        W88908  32.046  23.921  14.073
23748W        W88909  24.951  23.243  13.226
23749W        W88910  35.480  26.575   0.361
23750W        W88911  43.787  23.934   2.448
23751W        W88912   5.861   5.059  14.901
23752W        W88913   2.751  37.174   1.577
23753W        W88914  13.817  18.016  11.877
23754W        W88915  26.030  40.110   5.574
23755W        W88916  38.585  30.804  12.428
23756W        W88917  41.457   5.355   0.792
23757W        W88918   1.891  18.167  13.362
23758W        W88919  35.161  24.890   5.026
23759W        W88920  27.752   9.934  11.078
23760W        W88921  38.964  22.312   2.289
23761W        W88922  32.060   6.257  12.829
23762W        W88923  19.120  21.121   2.201
23763W        W88924  42.539   3.667  12.878
23764W        W88925  19.970  44.084  11.066
23765W        W88926  19.565  39.758  11.764
23766W        W88927  36.473  35.638  13.377
23767W        W88928   2.466   1.819  11.147
23768W        W88929   8.339  20.155  13.170
23769W        W88930   5.862  39.268   4.700
23770W        W88931  39.887  41.917   3.282
23771W        W88932  28.481  32.660  12.581
23772W        W88933  41.251   9.675  12.945
23773W        W88934  34.971  31.727  11.343
23774W        W88935  25.285  31.925   5.219
23775W        W88936   7.308  15.383  10.588
23776W        W88937   2.800   2.145   1.708
23777W        W88938  10.331  16.332   1.459
23778W        W88939  25.138   5.901   2.306
23779W        W88940  13.645   8.861  11.884
23780W        W88941  41.416  37.554  11.293
23781W        W88942  16.590  12.857   2.138
23782W        W88943  12.271  43.252   2.175
23783W        W88944   6.470  10.059   1.238
23784W        W88945  22.534  27.080   2.323
23785W        W88946  22.816   7.596  14.305
23786W        W88947  42.739  30.158  13.057
23787W        W88948   7.265  14.872  10.596
23788W        W88949  42.445  33.414   4.386
23789W        W88950  32.280  38.024  12.951
23790W        W88951   2.863  44.113  12.030
23791W        W88952  19.335   9.145  11.390
23792W        W88953  26.268  43.433   0.790
23793W        W88954   8.572  10.114   1.739
23794W        W88955  17.292  11.293  13.805
23795W        W88956   0.929  12.321   0.410
23796W        W88957  28.291  13.636   4.434
23797W        W88958  15.478  44.236  13.457
23798W        W88959  22.030   3.308  11.623
23799W        W88960  29.863  10.085  13.178
23800W        W88961  11.175  36.897   0.431
23801W        W88962   7.206  36.622   3.755
23802W        W88963   8.684  41.819  12.074
23803W        W88964   5.752  15.366   1.788
23804W        W88965  24.052  18.491   4.555
23805W        W88966  25.275  18.233   4.111
23806W        W88967  27.893  24.056  10.207
23807W        W88968  13.394  17.813  11.149
23808W        W88969  10.615  37.738   4.974
23809W        W88970  39.077  41.259   1.429
23810W        W88971  30.954  20.994  13.909
23811W        W88972   8.243   4.698  12.125
23812W        W88973  25.931  31.954  13.847
23813W        W88974  17.718  40.978   1.857
23814W        W88975   8.311  18.351  12.853
23815W        W88976  44.871   7.130  11.132
23816W        W88977  13.286  19.061   1.166
23817W        W88978   9.734  33.725   2.589
23818W        W88979  11.813  35.334   0.483
23819W        W88980  21.931  18.130   4.569
23820W        W88981  36.083  37.402   4.651
23821W        W88982  42.581   8.654  14.925
23822W        W88983   5.038   7.180   2.387
23823W        W88984   9.640  33.431   1.634
23824W        W88985   7.694  31.278  13.798
23825W        W88986  38.621  42.440   1.173
23826W        W88987  36.692  25.666   1.158
23827W        W88988   6.887  44.850   0.925
23828W        W88989  19.281  15.251   0.255
23829W        W88990   0.486  34.037   0.904
23830W        W88991  13.323  33.060  12.506
23831W        W88992  22.201  14.831   4.442
23832W        W88993   1.176  16.830  12.574
23833W        W88994  41.132   7.906  12.392
23834W        W88995   8.700  39.982   4.583
23835W        W88996  35.530  32.631  11.967
23836W        W88997  31.990  37.932  11.098
23837W        W88998  32.712  18.463   3.677
23838W        W88999  21.387  13.403  12.479
23839W        W89000   0.331  37.366   2.285
23840W        W89001  13.285   1.225   4.882
23841W        W89002   1.840  25.690  14.887
23842W        W89003  41.936  19.577   4.526
23843W        W89004  25.475  18.060  13.805
23844W        W89005   8.820  20.694   0.906
23845W        W89006  23.716   0.209   1.731
23846W        W89007  19.135  27.469   4.760
23847W        W89008  13.602  23.949  14.877
23848W        W89009  29.984  37.932   2.776
23849W        W89010  23.203   0.154   1.890
23850W        W89011   5.375  27.549   4.802
23851W        W89012  35.558  17.681  13.341
23852W        W89013  17.711  38.967   3.746
23853W        W89014   5.201  38.077   2.132
23854W        W89015  18.281   0.614   0.365
23855W        W89016   7.601   2.487  13.418
23856W        W89017  27.638   2.049  12.892
23857W        W89018  39.745  17.554  14.744
23858W        W89019  28.738   2.725   2.854
23859W        W89020  37.883  11.134   0.772
23860W        W89021  34.405  20.176   3.690
23861W        W89022  31.160   0.299   0.266
23862W        W89023  31.637   1.335  12.485
23863W        W89024   4.147  40.842   3.815
23864W        W89025  28.115   4.425  11.721
23865W        W89026  16.829  29.469  14.223
23866W        W89027  11.957  25.426  10.609
23867W        W89028  40.547  13.599  14.414
23868W        W89029  11.518   8.301   0.904
23869W        W89030  33.169  26.458  14.899
23870W        W89031  11.563   9.135  10.967
23871W        W89032  20.257  44.000   0.369
23872W        W89033  31.085  31.235  12.266
23873W        W89034  40.519  43.259  14.276
23874W        W89035  36.491  39.727   5.275
23875W        W89036  38.970  14.789  12.141
23876W        W89037  13.256  16.216   1.034
23877W        W89038  11.453  43.271   1.682
23878W        W89039  26.498  16.288  11.981
23879W        W89040  24.180  16.365   1.838
23880W        W89041   1.505   1.528  13.962
23881W        W89042  26.551  19.095  13.971
23882W        W89043   4.696  15.073   3.654
23883W        W89044  37.521  37.007  14.436
23884W        W89045   3.231   9.145   1.997
23885W        W89046  16.166  24.839  14.889
23886W        W89047   5.728  10.184  12.136
23887W        W89048  26.102  18.264   0.964
23888W        W89049  10.690  11.745   1.309
23889W        W89050  20.190  28.778   1.281
23890W        W89051   7.767  30.329  14.060
23891W        W89052  32.891   3.371   2.378
23892W        W89053  25.665   9.744  10.190
23893W        W89054   3.728   1.497  12.847
23894W        W89055  21.934  12.403  13.765
23895W        W89056  20.629  29.867  10.654
23896W        W89057  21.122   1.896   2.334
23897W        W89058  37.300  41.397   2.769
23898W        W89059  16.806  27.330   2.281
23899W        W89060  33.099  16.225   0.575
23900W        W89061  41.517  24.062   4.946
23901W        W89062  19.535   5.396  10.408
23902W        W89063   5.818  19.652  12.691
23903W        W89064  43.230  32.418  14.749
23904W        W89065   4.000  22.626   0.499
23905W        W89066  14.054  40.009  11.302
23906W        W89067  12.865  23.090   0.660
23907W        W89068  19.554  29.991  13.113
23908W        W89069  29.690   3.524  13.839
23909W        W89070   1.330  17.622  14.437
23910W        W89071  12.317  23.150  13.723
23911W        W89072  30.460  40.625  13.816
23912W        W89073  12.637  33.918   1.382
23913W        W89074   6.507  22.030  11.440
23914W        W89075   5.140  16.642   3.912
23915W        W89076  19.551  41.951  13.340
23916W        W89077  36.555   4.410  13.790
23917W        W89078  13.747  40.850  10.333
23918W        W89079  15.398   6.911  14.346
23919W        W89080  27.694  37.465   3.602
23920W        W89081  19.592  40.541  13.555
23921W        W89082  32.603   7.679  12.650
23922W        W89083  11.369  30.423  14.401
23923W        W89084  32.499  35.411   2.968
23924W        W89085  40.798  42.776  11.402
23925W        W89086  31.137  18.217  14.663
23926W        W89087  22.390  34.641   2.799
23927W        W89088  29.807   4.903  12.828
23928W        W89089  34.816   1.941  11.895
23929W        W89090  19.628  42.633   0.401
23930W        W89091   9.908  44.014   1.025
23931W        W89092  35.656  17.262   1.917
23932W        W89093  11.317  22.127   0.293
23933W        W89094   2.860   0.839  14.848
23934W        W89095   4.796  41.175  11.476
23935W        W89096  35.977  21.914  13.804
23936W        W89097  29.565  16.073   4.427
23937W        W89098   0.482   5.907   0.946
23938W        W89099   4.796   8.985   1.181
23939W        W89100   1.428   6.145  14.056
23940W        W89101   2.733  44.397   1.698
23941W        W89102  11.281  15.859   2.129
23942W        W89103  13.695  26.986   2.826
23943W        W89104   0.450  21.373   1.149
23944W        W89105   9.157  25.489   2.705
23945W        W89106  16.324  35.577   1.017
23946W        W89107  18.746  39.682  11.606
23947W        W89108   6.524  44.329  12.480
23948W        W89109  28.463   3.230   2.821
23949W        W89110  30.682  27.557  10.717
23950W        W89111   4.419  41.419  14.870
23951W        W89112  25.082  24.914  13.689
23952W        W89113  18.310  39.337  10.649
23953W        W89114  15.782  27.941   3.868
23954W        W89115  44.780  18.138   4.816
23955W        W89116  37.678  39.143  12.459
23956W        W89117  22.557   1.881   9.684
23957W        W89118  22.777  19.910  10.273
23958W        W89119  15.352  26.534   0.317
23959W        W89120  43.205  14.031   3.354
23960W        W89121  22.796  28.672  12.663
23961W        W89122  38.868  36.088   1.633
23962W        W89123   9.665  25.758   0.324
23963W        W89124  31.539  26.759  13.951
23964W        W89125  35.437  23.172   1.262
23965W        W89126  36.016  33.054   2.222
23966W        W89127  16.758  14.658  14.988
23967W        W89128  19.455  44.163  14.411
23968W        W89129  12.648  21.761   3.347
23969W        W89130  35.953  31.067   2.188
23970W        W89131  11.639   3.372   0.808
23971W        W89132  39.869  11.021  11.244
23972W        W89133  16.104   0.525   2.833
23973W        W89134   5.818  33.535   1.907
23974W        W89135   9.449   9.918  12.065
23975W        W89136  41.995  43.130   3.694
23976W        W89137  27.117  20.255   4.613
23977W        W89138  22.816  13.372   0.460
23978W        W89139  10.762   3.724  13.947
23979W        W89140  41.764  21.196   0.421
23980W        W89141   2.312  34.343   0.970
23981W        W89142  15.717  36.103   1.255
23982W        W89143  37.826   5.357   4.230
23983W        W89144  30.366   1.234   0.283
23984W        W89145   3.176  14.894  14.324
23985W        W89146  26.424   8.286  11.618
23986W        W89147  32.703  24.735   3.200
23987W        W89148   7.857  11.154   0.481
23988W        W89149   3.378  21.230   3.525
23989W        W89150  32.965  33.984   1.778
23990W        W89151  33.072  10.244   3.572
23991W        W89152  23.197   7.941   1.365
23992W        W89153  42.062   7.612   0.271
23993W        W89154  22.151  32.505  12.167
23994W        W89155  13.467  21.243   5.033
23995W        W89156  33.467  11.309   3.369
23996W        W89157  25.081  42.030   0.349
23997W        W89158  22.638  18.377   1.673
23998W        W89159  35.474  33.926  14.780
23999W        W89160   4.162   7.255  12.114
24000W        W89161  12.277  37.800   2.332
24001W        W89162   7.121  36.385  12.080
24002W        W89163   4.463  14.891  14.730
24003W        W89164   0.321  39.363   3.603
24004W        W89165  29.303  12.670   4.664
24005W        W89166  13.387   1.239   3.229
24006W        W89167   9.334  32.975  14.339
24007W        W89168  12.593  34.500  10.726
24008W        W89169  44.179  24.290  14.920
24009W        W89170   3.284  10.395  10.603
24010W        W89171  32.374   2.561  14.950
24011W        W89172  27.035  26.081  12.102
24012W        W89173  11.259  35.895  12.186
24013W        W89174   0.540  26.373  12.039
24014W        W89175  10.326   6.849  14.623
24015W        W89176   8.570  10.022   0.850
24016W        W89177  19.277  32.009  13.598
24017W        W89178  35.885  39.509  13.530
24018W        W89179  19.416  30.816   1.608
24019W        W89180  35.923   9.893   4.677
24020W        W89181  17.342  33.360   0.130
24021W        W89182  37.012   7.072   2.421
24022W        W89183   1.803  27.204   4.891
24023W        W89184  40.325  43.960   3.692
24024W        W89185  14.212  25.906  13.191
24025W        W89186   0.321  31.434   2.759
24026W        W89187  44.920  10.851  14.606
24027W        W89188  26.153  17.345  12.610
24028W        W89189  26.595  18.861  11.155
24029W        W89190  27.492  14.787  14.414
24030W        W89191  34.678  43.762   3.982
24031W        W89192  35.937   8.862  14.916
24032W        W89193  13.519   9.207  11.150
24033W        W89194  28.566  34.076  13.588
24034W        W89195  18.614  44.049  13.355
24035W        W89196   2.003  17.360   3.844
24036W        W89197  35.891   4.383  12.008
24037W        W89198  22.512   6.185   4.189
24038W        W89199  33.091   9.258   4.038
24039W        W89200  30.508  25.804  13.822
24040W        W89201   9.559   0.312  10.981
24041W        W89202  20.179  23.623  14.924
24042W        W89203   7.841  18.116   2.378
24043W        W89204   6.209   2.445   0.335
24044W        W89205   8.715   4.149  12.463
24045W        W89206   0.932  32.671  11.370
24046W        W89207   1.744  42.058  11.184
24047W        W89208  38.598  22.115   0.784
24048W        W89209   6.941  36.320  14.474
24049W        W89210  26.697  22.986   4.567
24050W        W89211  25.408  39.902  14.625
24051W        W89212  43.566  27.978  10.682
24052W        W89213  22.938  34.020  12.132
24053W        W89214  38.116  12.151  13.962
24054W        W89215  15.185  12.163  13.340
24055W        W89216  14.102  33.344   1.212
24056W        W89217  11.314  30.704   1.870
24057W        W89218  21.633  41.837   1.783
24058W        W89219  26.161  17.549   1.299
24059W        W89220  28.735  11.801   4.545
24060W        W89221   6.245  19.150  13.957
24061W        W89222  42.355  20.078   3.301
24062W        W89223   7.892  42.690   4.223
24063W        W89224  28.418  31.908   4.601
24064W        W89225  13.615  36.446   2.978
24065W        W89226  37.130  19.711  11.613
24066W        W89227  10.869   1.763   0.379
24067W        W89228  32.823  10.808  13.428
24068W        W89229  12.213  41.358   4.249
24069W        W89230  24.199  42.373   3.880
24070W        W89231  41.866  38.934  13.828
24071W        W89232  32.500   1.867   3.580
24072W        W89233   0.044   1.266   0.346
24073W        W89234   7.755  20.134  10.398
24074W        W89235   1.413  14.256  13.859
24075W        W89236   3.704  17.582  14.974
24076W        W89237  16.634  14.326  13.384
24077W        W89238  36.554  13.183   2.040
24078W        W89239  23.451  28.876  14.563
24079W        W89240  11.250  39.094   2.397
24080W        W89241  44.923  39.164   2.337
24081W        W89242  14.517  32.489   3.637
24082W        W89243  23.808  13.120  11.615
24083W        W89244  20.387  28.541  12.224
24084W        W89245  24.515  37.042   4.625
24085W        W89246  32.371  26.744   3.072
24086W        W89247  23.148  21.063   4.068
24087W        W89248  16.915  11.736   1.394
24088W        W89249   1.488   1.432   4.214
24089W        W89250   0.136  21.972  12.585
24090W        W89251  13.784  38.113  14.741
24091W        W89252  17.616  44.716   0.570
24092W        W89253  18.053  31.169   0.461
24093W        W89254  14.999  41.099   4.946
24094W        W89255  24.106  44.471   2.366
24095W        W89256  10.853  34.170  12.573
24096W        W89257  37.941   3.613  11.123
24097W        W89258  39.534  38.403  12.315
24098W        W89259  12.728   2.799   0.309
24099W        W89260   5.936  20.532  12.512
24100W        W89261   7.062   3.355   3.716
24101W        W89262  18.785   4.319   0.081
24102W        W89263  30.881   5.646  13.473
24103W        W89264  12.796  36.886  10.980
24104W        W89265  10.898  16.998  14.055
24105W        W89266  10.863  40.561   4.136
24106W        W89267  21.318  10.689  14.310
24107W        W89268   4.993  12.638   0.897
24108W        W89269  17.000  14.143  14.904
24109W        W89270  21.760  42.481  11.984
24110W        W89271  18.731  14.313  13.509
24111W        W89272  35.373  15.300   1.664
24112W        W89273   0.792  31.100   4.597
24113W        W89274  21.516   9.599  12.511
24114W        W89275   9.403  14.687   4.627
24115W        W89276  11.752  39.956  12.125
24116W        W89277  22.952   0.931  13.982
24117W        W89278   1.536  12.809  13.456
24118W        W89279   9.765  35.557   2.257
24119W        W89280  10.785  19.778  10.968
24120W        W89281   1.288   5.919   3.722
24121W        W89282  40.331   1.301   0.875
24122W        W89283  11.573   2.917   1.026
24123W        W89284  10.605  16.586  14.078
24124W        W89285  21.702  36.799  10.791
24125W        W89286  41.967   3.883   2.322
24126W        W89287  27.108  36.375   1.617
24127W        W89288  44.571   7.207   3.157
24128W        W89289   3.371   8.817  11.292
24129W        W89290  42.990  10.134   4.496
24130W        W89291  42.949  31.881   3.733
24131W        W89292  37.966  34.309  12.441
24132W        W89293  35.497  43.755   4.561
24133W        W89294   4.310  13.326   2.164
24134W        W89295   2.793  23.702  10.878
24135W        W89296   3.916  28.473   0.035
24136W        W89297  24.520   7.293   1.785
24137W        W89298  23.064  25.351   2.867
24138W        W89299  15.387  11.757   4.718
24139W        W89300   8.318  35.705   1.915
24140W        W89301  28.878  43.305   3.223
24141W        W89302  20.779  43.236  11.049
24142W        W89303  14.492  21.051   4.097
24143W        W89304  40.826  41.494   4.215
24144W        W89305  44.038   6.524  11.101
24145W        W89306  44.959   0.243   3.732
24146W        W89307  37.054   9.842   4.182
24147W        W89308  14.874   2.156  13.104
24148W        W89309  15.571  17.742  12.778
24149W        W89310  28.744  29.939  14.475
24150W        W89311  43.009   0.251   0.310
24151W        W89312  24.941  25.545  13.337
24152W        W89313  23.755   2.626  13.974
24153W        W89314  25.724  22.041  11.371
24154W        W89315  15.649  23.186   3.572
24155W        W89316  11.052  15.090   4.714
24156W        W89317  22.624  23.736   4.007
24157W        W89318  27.994   2.238   0.962
24158W        W89319  28.532   2.493  13.095
24159W        W89320  26.752  23.122   3.166
24160W        W89321  14.600   5.423   3.865
24161W        W89322   4.725   2.347  10.605
24162W        W89323   2.513   6.985   0.789
24163W        W89324  12.649  18.213   0.409
24164W        W89325  35.394  18.440   3.849
24165W        W89326  36.980  41.122   3.180
24166W        W89327  40.839  12.204   3.031
24167W        W89328  29.074  22.685  11.090
24168W        W89329  27.180  31.434  14.353
24169W        W89330  10.933  31.683  13.926
24170W        W89331  24.945  34.531   2.753
24171W        W89332  13.190  41.516   1.730
24172W        W89333  29.088  28.420  10.698
24173W        W89334  30.129   9.925   1.273
24174W        W89335  12.067  33.151   4.090
24175W        W89336  39.034   3.649  13.006
24176W        W89337  25.347  20.520   0.871
24177W        W89338   8.405  24.354  13.839
24178W        W89339   9.330  13.687   1.715
24179W        W89340  26.891  25.536  13.915
24180W        W89341  39.839   0.389  10.646
24181W        W89342  37.794  12.544   1.224
24182W        W89343  36.867   0.436  13.817
24183W        W89344  15.871  43.360  14.896
24184W        W89345  35.859  19.264  14.956
24185W        W89346  27.212  19.482   4.161
24186W        W89347  31.214  30.321   3.720
24187W        W89348  23.688   5.362  13.490
24188W        W89349  25.826  16.969  14.848
24189W        W89350  12.664  31.035  11.909
24190W        W89351  23.944  13.492  10.912
24191W        W89352  18.730  21.022   3.181
24192W        W89353  36.431  22.729   0.766
24193W        W89354  13.142  18.323  14.767
24194W        W89355  25.233   9.916  12.059
24195W        W89356  12.524   2.443   4.258
24196W        W89357  16.050  42.345  13.988
24197W        W89358  34.679  37.081  12.460
24198W        W89359  38.788  24.050   1.761
24199W        W89360   1.290  32.466  11.962
24200W        W89361   5.002   2.587   5.186
24201W        W89362  24.430   6.171  11.428
24202W        W89363  35.858   1.662  11.829
24203W        W89364  35.891  19.079  10.925
24204W        W89365   8.578  14.778  10.366
24205W        W89366  32.688   5.126   1.748
24206W        W89367  15.745  35.173   2.686
24207W        W89368  40.102  43.495   3.720
24208W        W89369   0.993  35.657   0.829
24209W        W89370   3.986  11.986   2.780
24210W        W89371  17.784   0.022   3.233
24211W        W89372  10.533   2.396   0.816
24212W        W89373   6.955  30.122  10.323
24213W        W89374   3.944  42.838  12.358
24214W        W89375  13.116  13.150   0.364
24215W        W89376   7.277  30.406   2.210
24216W        W89377  17.835  42.738   0.099
24217W        W89378   1.132   5.386  13.479
24218W        W89379  25.629   7.279  11.762
24219W        W89380  21.719  17.809  10.560
24220W        W89381  11.213  16.134  10.885
24221W        W89382  10.061  42.453   1.387
24222W        W89383  16.279  38.601  11.665
24223W        W89384   4.987  40.920   2.401
24224W        W89385  28.547  10.455  12.835
24225W        W89386   2.460  36.082  13.008
24226W        W89387  19.241   8.451   3.933
24227W        W89388  36.965  44.861   3.211
24228W        W89389  42.802  31.391  13.447
24229W        W89390  44.564  42.153   3.263
24230W        W89391  12.168   0.679   3.679
24231W        W89392  34.266  37.410   1.458
24232W        W89393   9.252  25.942   3.180
24233W        W89394   5.603  19.972  12.325
24234W        W89395  30.596  30.056  12.639
24235W        W89396  36.544  37.404   0.872
24236W        W89397  37.128   2.700   2.809
24237W        W89398  13.430   4.833   3.623
24238W        W89399  41.517  13.061   0.211
24239W        W89400  36.854  33.937   4.125
24240W        W89401  32.073  14.053   3.217
24241W        W89402  40.871  37.731  10.224
24242W        W89403  38.254  35.109  12.595
24243W        W89404  40.289  41.285   2.782
24244W        W89405  21.087  26.907  12.897
24245W        W89406  41.599  34.524  11.197
24246W        W89407  22.528  28.628   1.707
24247W        W89408  12.868  37.828   4.402
24248W        W89409  14.731   1.581   1.634
24249W        W89410   5.357  19.530  12.458
24250W        W89411  30.124  39.644   2.461
24251W        W89412   6.204  33.583   3.243
24252W        W89413  37.289  34.396   3.423
24253W        W89414  34.100  14.190   3.125
24254W        W89415  14.903  43.890   9.886
24255W        W89416   7.303  17.045   4.764
24256W        W89417  19.377  31.215   3.863
24257W        W89418  37.430   7.659  11.033
24258W        W89419  43.213  30.167  10.737
24259W        W89420  16.112  25.270   3.597
24260W        W89421  17.317  17.672   2.770
24261W        W89422  28.383  36.395   0.236
24262W        W89423  14.791  38.782   3.122
24263W        W89424  25.362  15.741   2.304
24264W        W89425  24.983   3.272   4.060
24265W        W89426  44.720  11.694  13.834
24266W        W89427  11.715  35.060  12.085
24267W        W89428  23.650  18.053  14.077
24268W        W89429  21.619  19.014  11.580
24269W        W89430  34.649  14.602   1.807
24270W        W89431  22.060  12.187  12.784
24271W        W89432  40.425  26.756  12.381
24272W        W89433  10.404  36.367  11.878
24273W        W89434  10.686   5.273   3.082
24274W        W89435  28.999  31.699  12.022
24275W        W89436  38.998  17.667  13.844
24276W        W89437  41.293  26.681   2.924
24277W        W89438  25.780  19.549   3.600
24278W        W89439  30.023   8.648  14.803
24279W        W89440   9.256  38.436   1.452
24280W        W89441  29.086  37.906   0.348
24281W        W89442  27.197   3.939   1.779
24282W        W89443   3.164  39.129  14.493
24283W        W89444   7.158  34.845   2.788
24284W        W89445  17.267  41.195   2.117
24285W        W89446  37.145   1.010   4.143
24286W        W89447  10.246  41.374   1.826
24287W        W89448  20.501  33.646  12.849
24288W        W89449  25.714  37.952   2.733
24289W        W89450   5.575  36.045  11.142
24290W        W89451  34.475  18.152   3.561
24291W        W89452  40.835  15.551   3.287
24292W        W89453   5.579  36.395   0.997
24293W        W89454   2.574  23.091   2.970
24294W        W89455  26.001  15.862   4.183
24295W        W89456  12.851  44.518  11.232
24296W        W89457   0.670  30.537   0.240
24297W        W89458   3.874  13.273  13.528
24298W        W89459  18.416  23.601  11.189
24299W        W89460   7.658   7.726  14.294
24300W        W89461  40.291  22.562  12.520
24301W        W89462  25.983  44.734   0.364
24302W        W89463  25.120   0.854  11.619
24303W        W89464  32.670   0.759  14.702
24304W        W89465  19.380  36.895  12.083
24305W        W89466  44.124   1.523  11.095
24306W        W89467  25.449  34.839   1.860
24307W        W89468  31.998  33.095  14.422
24308W        W89469   8.606  42.936   0.295
24309W        W89470   6.246  31.680   2.403
24310W        W89471  26.221  22.596   2.415
24311W        W89472  11.634   5.844  10.807
24312W        W89473  37.980  28.177   1.340
24313W        W89474  32.884  29.579   3.342
24314W        W89475  22.779   8.784   4.316
24315W        W89476  21.211  35.419   2.725
24316W        W89477  43.511  44.288   0.897
24317W        W89478  39.456  13.113   4.326
24318W        W89479  34.620  13.142   0.252
24319W        W89480  36.918  44.883  13.068
24320W        W89481   4.729   0.607  11.920
24321W        W89482  19.349  40.827   2.293
24322W        W89483  24.783  21.244   3.663
24323W        W89484  37.618   9.788  14.832
24324W        W89485   4.144  12.663   1.927
24325W        W89486  26.146   9.977  10.141
24326W        W89487   5.909  35.720  12.046
24327W        W89488  35.099  11.648  10.812
24328W        W89489  25.929  40.670  14.902
24329W        W89490  24.899  23.598   3.284
24330W        W89491  40.827  23.526  13.633
24331W        W89492  41.834  23.619   1.022
24332W        W89493  14.628   6.710  11.961
24333W        W89494  37.615  34.344   0.977
24334W        W89495   6.173  12.943  14.719
24335W        W89496  40.351  22.476   1.381
24336W        W89497  25.941   4.794  10.093
24337W        W89498  43.002  17.629  10.780
24338W        W89499  41.898  14.939  14.943
24339W        W89500  42.531   6.589   3.694
24340W        W89501  33.352  16.156  12.059
24341W        W89502  22.101  15.286  12.854
24342W        W89503  34.111  37.067   4.545
24343W        W89504  15.666  44.899   0.504
24344W        W89505  14.751  10.383   3.761
24345W        W89506   4.382  39.831   3.258
24346W        W89507  31.837  17.120   0.526
24347W        W89508  13.256  23.595  14.349
24348W        W89509  42.341   3.143   1.331
24349W        W89510  35.994  43.421  11.943
24350W        W89511  44.435  26.502   4.530
24351W        W89512  29.087  22.438  12.026
24352W        W89513  37.321  38.778  12.592
24353W        W89514   4.477  24.671  12.021
24354W        W89515  42.419   9.440   4.609
24355W        W89516  43.229  33.107   4.185
24356W        W89517  16.845  42.090   3.229
24357W        W89518  35.080   8.492  10.735
24358W        W89519  17.275  14.585  14.814
24359W        W89520  35.449   7.972  14.455
24360W        W89521  13.352   7.441   3.142
24361W        W89522  24.397  23.621   3.160
24362W        W89523  40.747  30.631   4.523
24363W        W89524  43.800  30.355  14.565
24364W        W89525   8.778  33.493   2.143
24365W        W89526  41.359  41.683  13.986
24366W        W89527  18.169  16.717  14.254
24367W        W89528   3.995  28.092  12.411
24368W        W89529  35.859  13.367  11.718
24369W        W89530  36.137  11.712  10.752
24370W        W89531  29.524  10.471  11.592
24371W        W89532  33.419  25.218   1.045
24372W        W89533   7.252  34.191  10.628
24373W        W89534  35.878  43.376   4.364
24374W        W89535  13.616   8.824   3.152
24375W        W89536   7.150   3.575  14.290
24376W        W89537   4.868   5.703   0.156
24377W        W89538  18.291  25.110   0.504
24378W        W89539  19.321  20.683  10.738
24379W        W89540  22.088   7.922  10.684
24380W        W89541  26.189  29.151   0.491
24381W        W89542  35.418  30.832  11.567
24382W        W89543   5.489   2.433  10.401
24383W        W89544  22.267   4.819   2.220
24384W        W89545  15.584  11.713  12.434
24385W        W89546  26.249  33.331  13.355
24386W        W89547  32.457   6.654   4.106
24387W        W89548   8.442  39.416   2.736
24388W        W89549  19.054  36.467   4.828
24389W        W89550  29.681  42.471  12.037
24390W        W89551  19.916  44.365   4.508
24391W        W89552   0.728  33.557  13.856
24392W        W89553  27.749   9.218  12.406
24393W        W89554   2.338  44.531   0.937
24394W        W89555  40.837  25.628   0.721
24395W        W89556  25.222   5.715   1.369
24396W        W89557  36.658   4.312  14.773
24397W        W89558  22.057   5.634  13.930
24398W        W89559  23.158  16.541   2.789
24399W        W89560  15.771  28.950   4.645
24400W        W89561  18.216  29.950  12.464
24401W        W89562  32.505   3.247   3.860
24402W        W89563  10.198  44.955  13.950
24403W        W89564  23.643  20.429  13.468
24404W        W89565   2.994  16.204  11.984
24405W        W89566  22.194  31.411   4.667
24406W        W89567  19.313  33.661   0.357
24407W        W89568  32.033   2.755   0.765
24408W        W89569  31.193  40.813  11.880
24409W        W89570  38.855  38.741  10.785
24410W        W89571  13.011  38.530   3.079
24411W        W89572   9.813  28.398   3.352
24412W        W89573  39.145  38.859   4.905
24413W        W89574  25.470  32.001   1.789
24414W        W89575  22.171  32.148   4.362
24415W        W89576  43.518  22.216  14.390
24416W        W89577   1.800  30.176   0.901
24417W        W89578  23.704  42.024   3.242
24418W        W89579   7.895  40.641   0.279
24419W        W89580   7.083  44.490  13.214
24420W        W89581  34.211  43.453  13.156
24421W        W89582   4.652  36.063   1.255
24422W        W89583  38.227  21.046  11.859
24423W        W89584  23.990   4.833   3.919
24424W        W89585  39.505  23.500   2.636
24425W        W89586  28.385  42.920  13.975
24426W        W89587  11.518  17.885   2.147
24427W        W89588  39.095   1.956   2.290
24428W        W89589  34.621  35.441  13.278
24429W        W89590  42.336   8.352   4.930
24430W        W89591   1.378  33.425   5.010
24431W        W89592   7.597   9.750  13.361
24432W        W89593   3.493  12.277  13.461
24433W        W89594  37.093  41.661  12.501
24434W        W89595  44.903  26.320  11.033
24435W        W89596  17.803  20.007   3.856
24436W        W89597  44.535  10.788   3.816
24437W        W89598  39.921   5.780  14.332
24438W        W89599  40.858  21.514   3.159
24439W        W89600  18.418  19.240   3.738
24440W        W89601  30.673  44.473   3.765
24441W        W89602  31.068  13.788   1.294
24442W        W89603  42.035   6.232   0.037
24443W        W89604  33.614  16.425   4.506
24444W        W89605  40.161  10.522  12.373
24445W        W89606  32.101  42.611  13.345
24446W        W89607   7.570   9.874   3.291
24447W        W89608   3.405  19.300   0.311
24448W        W89609  26.127  37.363  11.136
24449W        W89610  43.935  18.596   3.931
24450W        W89611  22.215  11.339   2.731
24451W        W89612  15.093  10.563   2.111
24452W        W89613  17.728  29.153  13.837
24453W        W89614  18.605  30.845   4.145
24454W        W89615  43.070  22.274   4.050
24455W        W89616  19.326  29.196   1.403
24456W        W89617  41.977  41.393  11.002
24457W        W89618  28.553  17.246  12.214
24458W        W89619  39.990  21.069   0.887
24459W        W89620   2.776  39.121  11.454
24460W        W89621  11.627  22.586   2.459
24461W        W89622  24.109   7.580  13.435
24462W        W89623  37.613  11.561   1.370
24463W        W89624   4.736  25.348  13.559
24464W        W89625  21.254  31.712   1.667
24465W        W89626  30.629  14.677   2.349
24466W        W89627  14.740  30.740   2.249
24467W        W89628  32.595   0.795   0.224
24468W        W89629  22.593  43.523  12.167
24469W        W89630  37.097   8.436   2.168
24470W        W89631  27.084  19.847  11.391
24471W        W89632  11.822  43.908   2.980
24472W        W89633  40.379  10.596  11.906
24473W        W89634  43.730  25.626   2.190
24474W        W89635  11.742  28.135   0.280
24475W        W89636  27.599  37.366  13.047
24476W        W89637  10.945   4.293   1.878
24477W        W89638  33.858  18.685   0.701
24478W        W89639  32.355  14.337  10.593
24479W        W89640   4.336  41.010  12.520
24480W        W89641  28.075  21.087  12.103
24481W        W89642   2.299  23.021   3.403
24482W        W89643  38.692   1.069   3.641
24483W        W89644  39.077  14.598  11.548
24484W        W89645   4.207  38.021   3.968
24485W        W89646  34.073  35.006  13.548
24486W        W89647  30.347  42.107  11.060
24487W        W89648  31.061   6.618   0.877
24488W        W89649  27.588  17.678   1.853
24489W        W89650  35.382  36.862  13.913
24490W        W89651  27.894   0.762  13.590
24491W        W89652  26.515  39.182  12.493
24492W        W89653  32.626  27.148  14.917
24493W        W89654  27.039   7.913   3.944
24494W        W89655  39.098  15.339   1.248
24495W        W89656  42.342  17.755   1.759
24496W        W89657  12.686  30.670   3.299
24497W        W89658   1.274  34.054  13.017
24498W        W89659   4.957   8.791  14.405
24499W        W89660  31.958  22.763  12.638
24500W        W89661  19.874  28.529  12.053
24501W        W89662  25.131  15.655   3.215
24502W        W89663  19.234  16.051   0.706
24503W        W89664  25.238   7.103  12.873
24504W        W89665   0.949  30.347   3.187
24505W        W89666   6.820  43.515  13.665
24506W        W89667   7.441  40.556   3.564
24507W        W89668  29.578  22.110   2.296
24508W        W89669  23.538  20.966   4.987
24509W        W89670   6.085  42.882   4.647
24510W        W89671  25.069  37.380  14.557
24511W        W89672   2.517  22.372   1.255
24512W        W89673   1.213  26.022  10.697
24513W        W89674  29.843  33.639  14.771
24514W        W89675   1.229  11.145   5.479
24515W        W89676  10.854  37.449   4.601
24516W        W89677   1.017   9.796  10.585
24517W        W89678  36.965  33.736  14.020
24518W        W89679  17.602  17.365   9.783
24519W        W89680  25.705  13.454  10.408
24520W        W89681  27.593   7.612  11.507
24521W        W89682  26.127  10.948  12.064
24522W        W89683  32.927  26.980   2.392
24523W        W89684  21.731  35.385   2.642
24524W        W89685  10.479  24.561  12.733
24525W        W89686  20.241   9.295  12.894
24526W        W89687  40.229  38.631   3.593
24527W        W89688   3.778  40.456   2.732
24528W        W89689   0.354  43.947  13.554
24529W        W89690  39.964  32.308   0.669
24530W        W89691  12.665  28.399   3.623
24531W        W89692  26.230  29.992   3.651
24532W        W89693  25.631  35.884  11.512
24533W        W89694  35.592  34.041   3.698
24534W        W89695  28.383  43.373  13.690
24535W        W89696  14.591  37.551   2.710
24536W        W89697  37.360  33.521  10.787
24537W        W89698   9.363  31.076   2.355
24538W        W89699   8.619  15.638   0.343
24539W        W89700  12.915  40.177  10.268
24540W        W89701  43.412  19.452  14.949
24541W        W89702  20.214  12.569   3.423
24542W        W89703   9.279  37.461   3.239
24543W        W89704  17.613  10.326  12.093
24544W        W89705   2.908  27.094   3.620
24545W        W89706   6.739   9.457  11.849
24546W        W89707  41.768  11.341   3.843
24547W        W89708  37.590  32.665  12.755
24548W        W89709   0.208   3.318   2.322
24549W        W89710   1.641  38.356   2.147
24550W        W89711  34.482   8.597  11.559
24551W        W89712  28.712  32.075  13.844
24552W        W89713  35.323   3.274   0.219
24553W        W89714   1.298  26.994  13.459
24554W        W89715  13.899  12.240   1.180
24555W        W89716  40.795  23.967  13.349
24556W        W89717   9.122  22.194   3.576
24557W        W89718   2.832  37.406  12.572
24558W        W89719  27.188  37.576   1.271
24559W        W89720  24.276  35.181  12.042
24560W        W89721  28.063  42.164  12.973
24561W        W89722  17.099  18.140   2.752
24562W        W89723  18.532  39.473   3.677
24563W        W89724   5.432  23.981   4.673
24564W        W89725   8.868  29.970   1.188
24565W        W89726   9.402  34.957   2.094
24566W        W89727  37.311  18.675   4.996
24567W        W89728   5.046  40.589  10.188
24568W        W89729   4.203  17.427   3.519
24569W        W89730  24.617  40.532   0.836
24570W        W89731  19.278  22.360   2.850
24571W        W89732  23.813  20.704   0.437
24572W        W89733  24.371   2.089  11.018
24573W        W89734  29.339  21.442   3.335
24574W        W89735  31.348   8.946   4.230
24575W        W89736   0.020  21.542   1.842
24576W        W89737   7.747  10.455   2.285
24577W        W89738   5.633  27.175   2.753
24578W        W89739  22.665  39.902  11.048
24579W        W89740  44.512  15.009   1.269
24580W        W89741  24.377  41.080  11.419
24581W        W89742   8.466   5.465   4.186
24582W        W89743  18.350  21.631   4.181
24583W        W89744  16.559  37.946   3.631
24584W        W89745   3.010   8.882   4.356
24585W        W89746  20.763  35.632  14.329
24586W        W89747   1.505  40.366  12.952
24587W        W89748  26.564  31.677  14.974
24588W        W89749  23.282  43.275  13.425
24589W        W89750  43.402  15.091  14.444
24590W        W89751  43.839  19.625   2.647
24591W        W89752  44.385   4.558   3.299
24592W        W89753  18.593  34.049  10.499
24593W        W89754  34.026  36.510  11.593
24594W        W89755   7.588  35.032  10.511
24595W        W89756  30.015  25.726   4.001
24596W        W89757  33.498  41.721   3.738
24597W        W89758  44.271  17.946  12.960
24598W        W89759  18.489  20.783  12.998
24599W        W89760  41.903  28.028   2.225
24600W        W89761  42.983  36.668  12.400
24601W        W89762  34.541  36.340  11.796
24602W        W89763  27.609  23.976   2.846
24603W        W89764  41.834   1.326  11.523
24604W        W89765  28.514  25.816  13.804
24605W        W89766  34.416  44.978  12.151
24606W        W89767  31.185  37.480   1.349
24607W        W89768  18.785  26.499   0.355
24608W        W89769  19.144  43.826   3.674
24609W        W89770   8.306  30.038   4.033
24610W        W89771  12.835   1.176   2.232
24611W        W89772  15.295  18.672   2.410
24612W        W89773  19.346  40.527   1.723
24613W        W89774   8.275   8.542   4.989
24614W        W89775  13.360   8.324   0.921
24615W        W89776  26.147   7.977  11.960
24616W        W89777  15.340  41.998   3.374
24617W        W89778  36.914  30.676  10.655
24618W        W89779   3.312  10.486   1.255
24619W        W89780  10.804  41.061   3.999
24620W        W89781  16.134   6.249   2.347
24621W        W89782  16.281  28.940   0.286
24622W        W89783  42.930  36.300  13.533
24623W        W89784  10.717   4.384   1.404
24624W        W89785  37.104  38.457   2.744
24625W        W89786   3.967  37.143  12.107
24626W        W89787  27.023   1.740   4.318
24627W        W89788  34.897  29.068   1.273
24628W        W89789  21.667  39.976  14.397
24629W        W89790  13.346   7.975   3.781
24630W        W89791  14.293   7.759  14.061
24631W        W89792  23.233  30.357   0.775
24632W        W89793  33.513  19.180   2.312
24633W        W89794  24.592   1.118   1.705
24634W        W89795  10.314  16.650  10.930
24635W        W89796  22.036  38.451  12.342
24636W        W89797  16.945  41.573   4.586
24637W        W89798  22.219  11.369   4.251
24638W        W89799  21.370  39.419   1.380
24639W        W89800  26.723  33.122   0.363
24640W        W89801  12.325  31.591   4.670
24641W        W89802  24.687  40.388  10.473
24642W        W89803  25.576  21.212   1.920
24643W        W89804  12.322  32.888   2.190
24644W        W89805   5.669  11.241  10.812
24645W        W89806  10.339  24.953   2.153
24646W        W89807  14.593  18.415  11.088
24647W        W89808  12.945  12.139  11.020
24648W        W89809   0.962  24.973  10.383
24649W        W89810  30.520  34.344   3.585
24650W        W89811  11.123  15.269   2.402
24651W        W89812  25.235  23.771  11.062
24652W        W89813  14.822  35.468  11.675
24653W        W89814  43.756  40.183  12.088
24654W        W89815  14.135   3.030   0.314
24655W        W89816  31.138  14.097  11.879
24656W        W89817  44.423  35.001  10.009
24657W        W89818  39.793  18.825  13.891
24658W        W89819  23.611   2.382  11.166
24659W        W89820  27.966  14.057  10.757
24660W        W89821   7.294  43.920   4.159
24661W        W89822  29.870  36.319   0.447
24662W        W89823  12.159  27.450  14.572
24663W        W89824  26.985  20.317  12.879
24664W        W89825  36.472  39.320   0.486
24665W        W89826  13.119  36.985  11.954
24666W        W89827  30.230  43.257  10.869
24667W        W89828  11.268  37.481  12.850
24668W        W89829  28.067  40.278   3.703
24669W        W89830   4.464  41.196   3.146
24670W        W89831  39.993  18.033  11.443
24671W        W89832   7.365  10.807  11.922
24672W        W89833  17.041  16.020  10.898
24673W        W89834   6.387   1.773  12.058
24674W        W89835   3.754  19.286   2.620
24675W        W89836   3.073  29.943   0.083
24676W        W89837  24.722   8.260   2.158
24677W        W89838  34.158  10.636   2.314
24678W        W89839  29.553  35.123   3.922
24679W        W89840  31.062  32.123   3.161
24680W        W89841  18.143  43.674  14.039
24681W        W89842  13.380  35.325  11.620
24682W        W89843  23.172  17.219   4.758
24683W        W89844  23.165  41.753  14.216
24684W        W89845  21.450  14.166  10.435
24685W        W89846  19.250  28.742   2.310
24686W        W89847   7.955  40.592  10.098
24687W        W89848  21.603  37.656  11.020
24688W        W89849   4.299   0.907  14.365
24689W        W89850  43.923  29.357   4.565
24690W        W89851  24.954  27.082   4.346
24691W        W89852   3.727  25.482   2.244
24692W        W89853  23.424  30.487   4.288
24693W        W89854  41.081  29.638  11.083
24694W        W89855   4.216  37.286  12.988
24695W        W89856  36.444  11.953   0.812
24696W        W89857  32.692  37.860   3.334
24697W        W89858  35.959  42.187  12.996
24698W        W89859  13.313  35.563  10.972
24699W        W89860   1.701   5.760   0.027
24700W        W89861  22.075  33.500  14.242
24701W        W89862   1.912  39.195   0.317
24702W        W89863  30.819  42.531   4.101
24703W        W89864  22.341  37.260   2.217
24704W        W89865  30.625  32.389   3.168
24705W        W89866  13.819  30.221   4.193
24706W        W89867  16.627   9.673  13.897
24707W        W89868  33.060  42.563   1.771
24708W        W89869  34.602   9.335   0.102
24709W        W89870  24.349  29.980  11.972
24710W        W89871  24.932  14.325  11.189
24711W        W89872  23.542   0.962   3.907
24712W        W89873  19.852  33.665   3.819
24713W        W89874  20.534  24.156   3.765
24714W        W89875  43.464  23.405   1.438
24715W        W89876  11.346  12.775   4.867
24716W        W89877  20.055  24.131   3.581
24717W        W89878   2.287  16.813  10.915
24718W        W89879  30.517  27.707   1.330
24719W        W89880  24.672  25.160   2.336
24720W        W89881  44.777  44.468  10.085
24721W        W89882  13.986  32.715   0.841
24722W        W89883  18.267  24.993  13.014
24723W        W89884   0.987   6.420   1.836
24724W        W89885  30.321  36.378   2.414
24725W        W89886  34.372  25.837  11.973
24726W        W89887   8.121  43.531  13.476
24727W        W89888   6.676  37.092   1.419
24728W        W89889   1.063  39.412  11.950
24729W        W89890  41.827  14.727  13.765
24730W        W89891   8.722   4.421  13.783
24731W        W89892  20.156  35.025  11.596
24732W        W89893  31.934  13.290   1.906
24733W        W89894  29.510  31.623   0.618
24734W        W89895  20.696  19.373   1.184
24735W        W89896  39.805  10.194   4.606
24736W        W89897  31.416  22.192  13.955
24737W        W89898   0.360  35.489  10.682
24738W        W89899  17.727  30.843  14.848
24739W        W89900  40.055  42.515  13.984
24740W        W89901  39.838   4.476   0.029
24741W        W89902  10.002  13.895  11.081
24742W        W89903  38.005  13.462  13.652
24743W        W89904  28.750  31.078   1.033
24744W        W89905  26.154  39.296  13.311
24745W        W89906  16.714   5.162   1.908
24746W        W89907   2.009  23.501  13.431
24747W        W89908   1.420  23.185  14.019
24748W        W89909  21.187  39.632   0.931
24749W        W89910   0.446  33.179   1.983
24750W        W89911   4.217  42.667   4.056
24751W        W89912  24.053  20.685   3.170
24752W        W89913   2.474   8.744  11.534
24753W        W89914  42.519   2.136  14.708
24754W        W89915  10.293  43.688  12.165
24755W        W89916  33.202   2.237   3.203
24756W        W89917  41.773   8.891   2.831
24757W        W89918   9.770  26.022   3.275
24758W        W89919  36.042  40.215  11.758
24759W        W89920  24.315  30.574  10.762
24760W        W89921   2.726  30.377   4.946
24761W        W89922  26.138  39.364  14.229
24762W        W89923  31.437   1.009   3.352
24763W        W89924  36.589  29.261  14.266
24764W        W89925  41.876   1.511   2.737
24765W        W89926   6.854  10.091   4.188
24766W        W89927  30.618  33.008   0.526
24767W        W89928  42.272  10.008  10.357
24768W        W89929  22.529  25.430   0.761
24769W        W89930  32.223  32.927  13.950
24770W        W89931   3.292  39.582   1.303
24771W        W89932   8.852  41.566   4.201
24772W        W89933   7.363  20.181  13.587
24773W        W89934  18.604  19.532   1.063
24774W        W89935   2.271  14.818   4.556
24775W        W89936   9.672   6.541   0.419
24776W        W89937  35.048   8.116  11.544
24777W        W89938  29.235   3.578  14.851
24778W        W89939  19.028  10.720  14.859
24779W        W89940  11.214  29.694   4.523
24780W        W89941   2.988  19.737  13.795
24781W        W89942  15.562  35.975   3.065
24782W        W89943   6.191   2.860  14.099
24783W        W89944  21.333   7.094  11.573
24784W        W89945  28.022   7.179   4.363
24785W        W89946  27.076  22.821   0.351
24786W        W89947  39.273  11.420  12.954
24787W        W89948  25.111   1.721  10.362
24788W        W89949  14.461  20.977   3.202
24789W        W89950  23.030  44.578  14.428
24790W        W89951  24.178  28.515  14.885
24791W        W89952  16.660  13.540   0.910
24792W        W89953  36.337  42.851  13.482
24793W        W89954  22.310   2.464  11.993
24794W        W89955  32.073  24.947   3.230
24795W        W89956  19.199  17.341   1.168
24796W        W89957   0.614   8.154  13.775
24797W        W89958  16.133  35.082   3.820
24798W        W89959   9.170  16.291  10.531
24799W        W89960  24.635  15.628   4.358
24800W        W89961  15.521  34.574   1.793
24801W        W89962  20.465   7.886   1.243
24802W        W89963  26.073   4.292   0.419
24803W        W89964  21.589  10.404   1.921
24804W        W89965  13.422  26.093   1.771
24805W        W89966  31.303   3.906   2.829
24806W        W89967  25.939  18.295  14.667
24807W        W89968  26.468  10.893  13.438
24808W        W89969  38.354  19.686  13.403
24809W        W89970  38.341  34.380  11.176
24810W        W89971   5.191  15.819  13.926
24811W        W89972  18.787  26.419  13.333
24812W        W89973   3.897   7.484   0.907
24813W        W89974  22.556  34.941   1.591
24814W        W89975  42.497  35.939   0.152
24815W        W89976   3.284  31.137   0.862
24816W        W89977  14.582  26.637  12.997
24817W        W89978  27.044  34.795   3.852
24818W        W89979  38.159  36.853   1.613
24819W        W89980  44.301  10.568  13.851
24820W        W89981  43.514  13.327   4.572
24821W        W89982  36.540   3.737   2.397
24822W        W89983  32.481  31.601  12.075
24823W        W89984   4.838  44.852   0.638
24824W        W89985  20.614   4.182   4.117
24825W        W89986  37.620  43.431   0.424
24826W        W89987   0.990  42.856   2.159
24827W        W89988  31.064   8.491   0.299
24828W        W89989  17.574  26.615   2.390
24829W        W89990  19.780  10.262  12.979
24830W        W89991  22.868  35.757  11.924
24831W        W89992  30.438  19.976  11.450
24832W        W89993  30.546  44.886  12.304
24833W        W89994   1.193  35.800  13.329
24834W        W89995  16.848  10.394  14.917
24835W        W89996   2.929   5.683   2.633
24836W        W89997  24.259  10.662  14.902
24837W        W89998  25.164   7.832   2.737
24838W        W89999  42.826   1.896  13.007
24839W        W90000   8.339   1.256   4.541
24840W        W90001  27.155   5.667   3.235
24841W        W90002  36.072  19.509   3.505
24842W        W90003  13.364  41.014  14.860
24843W        W90004   0.794  22.121  14.932
24844W        W90005   4.167   9.657   2.734
24845W        W90006  18.393   4.128   0.430
24846W        W90007  44.581  41.913   2.303
24847W        W90008  43.273  18.285   4.416
24848W        W90009  20.974   3.500   4.416
24849W        W90010  26.622  37.597   0.504
24850W        W90011  26.990  33.090   2.255
24851W        W90012  37.063   5.172   1.822
24852W        W90013  20.512  15.048  11.618
24853W        W90014   7.215   2.493  14.725
24854W        W90015  11.370  23.142  11.999
24855W        W90016  37.347  31.093  13.506
24856W        W90017  22.113  19.240   9.855
24857W        W90018   5.754  11.740  13.548
24858W        W90019  42.826  25.677  13.993
24859W        W90020  30.967  35.978  11.517
24860W        W90021  33.376  14.674  14.517
24861W        W90022  17.175  28.403  14.198
24862W        W90023   8.717  29.521   5.143
24863W        W90024  34.093   4.899  11.206
24864W        W90025  11.161  29.163   4.482
24865W        W90026  28.999   0.900   0.187
24866W        W90027  22.149  25.602   3.869
24867W        W90028   2.701   1.244   3.642
24868W        W90029   2.769   1.748   0.184
24869W        W90030  35.691  44.790   1.440
24870W        W90031  31.467  29.135   4.652
24871W        W90032   4.416   6.753  14.393
24872W        W90033   5.135  22.771  10.537
24873W        W90034  11.619   1.974   4.644
24874W        W90035   7.704  39.761   4.485
24875W        W90036   2.128  37.322   9.786
24876W        W90037  11.534   7.520   2.603
24877W        W90038  20.584   4.734  14.449
24878W        W90039   2.498  32.429  13.373
24879W        W90040  32.967   8.357   1.578
24880W        W90041   5.668  39.566   1.916
24881W        W90042  14.233  36.116   1.240
24882W        W90043   4.417  15.578  11.621
24883W        W90044  32.871  41.406  12.024
24884W        W90045  38.490   5.012  10.921
24885W        W90046   9.589  30.870  14.035
24886W        W90047  17.264  10.849   3.520
24887W        W90048  35.026  16.788   1.654
24888W        W90049  36.718  28.566   2.028
24889W        W90050  18.647   0.801  10.103
24890W        W90051  14.484  33.213  12.317
24891W        W90052  31.956  22.137   3.148
24892W        W90053  33.782  20.982   2.873
24893W        W90054   1.692  16.268  11.514
24894W        W90055  16.661  34.303   3.532
24895W        W90056  34.779  26.552  13.400
24896W        W90057  33.604  21.314   1.349
24897W        W90058  26.459  42.548  12.218
24898W        W90059  17.265   8.672  11.933
24899W        W90060   8.864  40.268  11.899
24900W        W90061  17.269  44.639  14.008
24901W        W90062  34.358  15.527  12.082
24902W        W90063   1.515  10.699   1.890
24903W        W90064   9.313  19.266   3.282
24904W        W90065  12.387  26.192  13.388
24905W        W90066  23.513  26.249   4.551
24906W        W90067  33.027  43.514   3.726
24907W        W90068  38.532  35.320  11.888
24908W        W90069   5.965  18.271  12.939
24909W        W90070  15.221  14.305   3.959
24910W        W90071   9.725  42.860  13.334
24911W        W90072  36.940   1.498   4.135
24912W        W90073  12.896  43.818   3.776
24913W        W90074  41.860  43.924   3.421
24914W        W90075  14.176  38.854   4.858
24915W        W90076   7.012   4.955   1.766
24916W        W90077  30.157  39.231   2.137
24917W        W90078   9.427  32.650   0.566
24918W        W90079   4.693  33.869   5.081
24919W        W90080  41.539  29.887   2.824
24920W        W90081  32.685  16.182   1.673
24921W        W90082  25.729  37.711   4.227
24922W        W90083  34.580  16.713  13.420
24923W        W90084  38.489  42.071  12.402
24924W        W90085  39.778   5.292  13.951
24925W        W90086  42.413  21.676  14.016
24926W        W90087  24.513  43.890   1.748
24927W        W90088  21.234  24.706  13.492
24928W        W90089  20.830  17.321   2.700
24929W        W90090  17.328  15.952   2.556
24930W        W90091  41.011  44.462  13.462
24931W        W90092  18.355  20.240   3.047
24932W        W90093  11.264   9.667  13.618
24933W        W90094  26.502  27.956  14.758
24934W        W90095  17.533   9.841  11.496
24935W        W90096   5.798   9.379   1.506
24936W        W90097  10.040  13.160   0.367
24937W        W90098  26.576   6.363  12.418
24938W        W90099  12.096  42.519   4.159
24939W        W90100   0.887  14.910   2.342
24940W        W90101   9.790  16.569   3.906
24941W        W90102  35.938  10.364   4.369
24942W        W90103   8.960  18.548  13.938
24943W        W90104  18.202  19.839   1.191
24944W        W90105  11.692  33.601  11.865
24945W        W90106  42.937  12.538  13.340
24946W        W90107   6.817  18.604  13.360
24947W        W90108  43.460  11.863   4.553
24948W        W90109  15.329  29.386   2.855
24949W        W90110  28.705  42.506  14.002
24950W        W90111  38.056   1.734   0.018
24951W        W90112  29.998  16.774  13.905
24952W        W90113  38.047  13.744  12.033
24953W        W90114  34.190   7.885  13.877
24954W        W90115  37.022  12.151  10.700
24955W        W90116   0.183  27.617   0.490
24956W        W90117   9.826  10.941   2.320
24957W        W90118   1.464   4.415  10.811
24958W        W90119  33.187  21.039   1.267
24959W        W90120  36.360   4.788  14.688
24960W        W90121  10.670   4.106   0.337
24961W        W90122   4.249  16.572  12.360
24962W        W90123   7.137  26.029  14.420
24963W        W90124  12.351  19.255  13.994
24964W        W90125  29.549  41.355   2.360
24965W        W90126   6.850   8.679   5.101
24966W        W90127  44.632   5.968   1.921
24967W        W90128  26.917   0.234  12.418
24968W        W90129  32.519  20.023  14.982
24969W        W90130  32.926  18.110   3.319
24970W        W90131  42.038  13.273   2.180
24971W        W90132  30.435  14.132  11.510
24972W        W90133   3.619  31.636   3.520
24973W        W90134  37.053   0.904  13.588
24974W        W90135  12.424  21.153   3.945
24975W        W90136  10.626  31.844   4.607
24976W        W90137  12.655   6.781  14.385
24977W        W90138   0.259  43.811   2.698
24978W        W90139  35.313   1.491  14.594
24979W        W90140  44.186  31.475  11.242
24980W        W90141  25.518   2.172   3.566
24981W        W90142   3.319  41.102  14.331
24982W        W90143   3.384   7.976  12.903
24983W        W90144   6.442  37.354  10.638
24984W        W90145  17.349  16.535   3.149
24985W        W90146  35.560  37.320  14.874
24986W        W90147  37.617  15.357  10.744
24987W        W90148  10.883  28.189  14.504
24988W        W90149   5.415  31.164  14.094
24989W        W90150  15.549  13.232  13.175
24990W        W90151  43.813  23.799  13.002
24991W        W90152  42.494  10.993  10.642
24992W        W90153  30.986   1.230   0.944
24993W        W90154  42.747  37.363  14.082
24994W        W90155  28.553  13.145  11.417
24995W        W90156  10.726   8.915  12.563
24996W        W90157  27.860  43.764  12.001
24997W        W90158  27.157   8.845   0.655
24998W        W90159  20.140  44.366  13.847
24999W        W90160  25.997  17.954  13.831
25000W        W90161  40.420   7.092   0.791
25001W        W90162   4.304  37.853  14.444
25002W        W90163  11.735   2.453   0.901
25003W        W90164  44.799  31.142   3.879
25004W        W90165  36.531  22.258   1.796
25005W        W90166   4.972  27.004   3.263
25006W        W90167  39.040  13.820  11.126
25007W        W90168  23.933  40.020   4.292
25008W        W90169  31.967   4.249   0.190
25009W        W90170  41.206  10.168   2.825
25010W        W90171  35.565  27.575  12.037
25011W        W90172  26.012   3.560   3.723
25012W        W90173  17.495  22.867   3.587
25013W        W90174  43.586  25.588   2.706
25014W        W90175  10.819  11.261   4.117
25015W        W90176  11.441  25.943  11.155
25016W        W90177  41.212  32.132  13.036
25017W        W90178  14.523  34.664   3.883
25018W        W90179  36.981  28.085  11.615
25019W        W90180   5.277  41.803  10.821
25020W        W90181   8.381  13.591  13.527
25021W        W90182  34.996  12.618  14.437
25022W        W90183  37.152  26.498  12.839
25023W        W90184  14.611  14.608   1.804
25024W        W90185  13.816  32.045   1.856
25025W        W90186  39.807  36.025  12.999
25026W        W90187   9.121  20.575   0.257
25027W        W90188  17.927  23.067   0.742
25028W        W90189  28.108   1.170  14.900
25029W        W90190   9.720  34.875  12.048
25030W        W90191   6.730   8.933   0.299
25031W        W90192  36.473   2.387   1.599
25032W        W90193   4.965  31.963  13.702
25033W        W90194  14.428  18.667   2.829
25034W        W90195   4.356  12.652   4.581
25035W        W90196  27.146  40.346   2.294
25036W        W90197  14.346  15.611  10.724
25037W        W90198  12.040  27.142   2.668
25038W        W90199  20.344  27.156  14.772
25039W        W90200  10.179  25.592   0.261
25040W        W90201   6.596  44.142   3.580
25041W        W90202  12.622  33.677  13.167
25042W        W90203   9.038  35.542   3.747
25043W        W90204  11.692  32.040  12.043
25044W        W90205   3.949  40.075   2.452
25045W        W90206  24.866  20.573   1.394
25046W        W90207  41.846  15.317  14.387
25047W        W90208  29.961   4.354  13.747
25048W        W90209  34.202  21.727   2.379
25049W        W90210   7.131  16.265  13.066
25050W        W90211  13.276  42.467  12.667
25051W        W90212  37.335  12.750   2.784
25052W        W90213  40.394  23.811   0.805
25053W        W90214  30.920   0.796  14.509
25054W        W90215  44.361  25.182   5.049
25055W        W90216  11.889  30.585   2.736
25056W        W90217  21.610  42.013   3.975
25057W        W90218  12.781   9.343   0.791
25058W        W90219  42.063   2.307   4.283
25059W        W90220  40.467  15.185   2.397
25060W        W90221  36.597  39.512  11.622
25061W        W90222  31.056  19.431   0.276
25062W        W90223   3.804  28.023   0.354
25063W        W90224  12.535  33.122   3.914
25064W        W90225  26.724  14.311  12.007
25065W        W90226  13.535   9.897  11.597
25066W        W90227  42.783  10.051   0.842
25067W        W90228  30.052   0.998   3.973
25068W        W90229  22.104  36.650  11.162
25069W        W90230  37.647  36.344  13.983
25070W        W90231  28.384  31.919   0.982
25071W        W90232  35.888  31.213  12.963
25072W        W90233  33.395  17.763   4.555
25073W        W90234  42.082  16.484  11.887
25074W        W90235  17.626  41.414  13.405
25075W        W90236  29.542   1.091   1.257
25076W        W90237  23.629  25.018  12.574
25077W        W90238  40.407  26.604  10.729
25078W        W90239  12.137  42.921  12.971
25079W        W90240   1.783  22.693   2.709
25080W        W90241   6.801  18.101  14.851
25081W        W90242   2.535  36.973  12.465
25082W        W90243   9.488  10.865   0.741
25083W        W90244  12.398  17.704   1.018
25084W        W90245  15.059  39.871  12.214
25085W        W90246   5.228   2.431  11.787
25086W        W90247  21.588  22.752   2.640
25087W        W90248   6.834  43.853   4.924
25088W        W90249  25.730  16.849  11.039
25089W        W90250  41.548   0.270  11.095
25090W        W90251  41.998  14.543   4.479
25091W        W90252  34.164  32.958  13.947
25092W        W90253  30.038   4.330  14.769
25093W        W90254  32.132  44.436   0.034
25094W        W90255  32.555  38.324   3.092
25095W        W90256  35.871  22.855   4.662
25096W        W90257  39.930  25.331  12.298
25097W        W90258   4.534  26.286   2.680
25098W        W90259   9.704  10.253   3.314
25099W        W90260  44.532   8.343  11.087
25100W        W90261  43.484  12.305  14.868
25101W        W90262  29.322  16.103  13.100
25102W        W90263   8.388   9.643  14.828
25103W        W90264  20.598   9.586  12.666
25104W        W90265   9.132  17.667   0.824
25105W        W90266   6.870  28.922   1.854
25106W        W90267  23.710  36.911   4.033
25107W        W90268  35.364  12.307   1.420
25108W        W90269   8.617   6.328  11.229
25109W        W90270   6.677  11.826  14.721
25110W        W90271   0.965   1.761   1.188
25111W        W90272   2.877  35.913  13.870
25112W        W90273  43.954  13.400   5.202
25113W        W90274  41.334  12.161   0.733
25114W        W90275  28.587  39.834  14.687
25115W        W90276  39.278   8.974   1.477
25116W        W90277  31.995  34.523   2.729
25117W        W90278  12.377  13.582  11.077
25118W        W90279  38.393  39.788  11.988
25119W        W90280  41.473  10.786  10.773
25120W        W90281  19.596   8.719  11.505
25121W        W90282  23.343  40.851   0.873
25122W        W90283   8.734  11.376   2.733
25123W        W90284  37.018  12.842   4.933
25124W        W90285   7.762  23.696   3.144
25125W        W90286  11.736  44.110  13.170
25126W        W90287  17.516  28.399   4.825
25127W        W90288  37.652  35.126   3.829
25128W        W90289  41.810   4.760   3.701
25129W        W90290  13.270  25.199  14.413
25130W        W90291  24.679  10.971  14.809
25131W        W90292  10.221  16.785  12.870
25132W        W90293  10.369  30.482   0.837
25133W        W90294  30.231  20.297   1.916
25134W        W90295  42.372  29.648   3.302
25135W        W90296  19.477  36.288   3.220
25136W        W90297   2.796  39.968  13.153
25137W        W90298   2.721  41.183   3.154
25138W        W90299  12.476  24.891   0.469
25139W        W90300  37.164  36.029   3.712
25140W        W90301   3.465  36.031   1.780
25141W        W90302  12.699   7.177   1.589
25142W        W90303   0.839  25.209   1.335
25143W        W90304  17.040  19.244  14.026
25144W        W90305  39.793  42.482   0.208
25145W        W90306   1.201  32.892   2.575
25146W        W90307  31.006   2.048  11.117
25147W        W90308  32.578  28.419  13.551
25148W        W90309  34.469  44.837  13.128
25149W        W90310  18.553  16.247  14.971
25150W        W90311   8.704  35.429  10.730
25151W        W90312  21.050   9.913   4.412
25152W        W90313  17.644  13.334  14.009
25153W        W90314  40.330  12.170   2.687
25154W        W90315  33.770  35.045  14.098
25155W        W90316  15.464  22.924   5.016
25156W        W90317  28.573   3.485   4.679
25157W        W90318  34.997  12.114   1.804
25158W        W90319  42.264  33.494   4.854
25159W        W90320  41.195  40.132  13.449
25160W        W90321  35.933  34.155  13.995
25161W        W90322  32.451   1.872  11.306
25162W        W90323  15.086  16.625  14.825
25163W        W90324   2.625  39.640   5.251
25164W        W90325  38.356  19.648  14.317
25165W        W90326  27.235  15.283   1.292
25166W        W90327  29.647  21.323   2.861
25167W        W90328  21.790  37.145   3.147
25168W        W90329  29.419   0.815  13.407
25169W        W90330  25.190   5.255  10.625
25170W        W90331  21.545  35.103   3.704
25171W        W90332  37.583  33.131  12.979
25172W        W90333  30.143   7.686  11.639
25173W        W90334   9.377  41.346   0.996
25174W        W90335  28.860  41.273   0.804
25175W        W90336  43.962  16.309  11.076
25176W        W90337  34.899  17.830  12.120
25177W        W90338  28.713  35.884   4.841
25178W        W90339  25.593  42.571  12.338
25179W        W90340   9.017  35.064   0.906
25180W        W90341   6.320  36.436   4.062
25181W        W90342  36.850  28.201   3.349
25182W        W90343  33.769  33.905  12.334
25183W        W90344  30.880  37.496  12.602
25184W        W90345  31.004  39.171   2.182
25185W        W90346  38.641  12.300  13.991
25186W        W90347  44.885  27.752  11.002
25187W        W90348   2.269  35.864  13.408
25188W        W90349  38.647  14.738   1.852
25189W        W90350  13.238   2.848   4.070
25190W        W90351  32.765   9.314   3.069
25191W        W90352  26.447  43.254  11.154
25192W        W90353  32.385  10.270  13.013
25193W        W90354  41.055  33.068   2.695
25194W        W90355  21.145  21.508   1.655
25195W        W90356  26.731  18.332  11.169
25196W        W90357  23.999  25.542  13.626
25197W        W90358  36.001  16.326  11.585
25198W        W90359  33.813  10.866  13.451
25199W        W90360  33.569  28.222   2.338
25200W        W90361  15.103  21.463  14.894
25201W        W90362  43.826  43.488   4.112
25202W        W90363  20.617  36.175  11.139
25203W        W90364  34.621  18.471  12.951
25204W        W90365  35.148  27.231  14.845
25205W        W90366   8.219  34.012   4.653
25206W        W90367  20.212  35.629  14.245
25207W        W90368  22.971  43.511   4.388
25208W        W90369  36.607   4.936   1.731
25209W        W90370  36.595  40.957   0.845
25210W        W90371  40.866  13.634   0.416
25211W        W90372  10.104  39.751  12.590
25212W        W90373  12.400   1.365  14.360
25213W        W90374   6.764  24.236  13.549
25214W        W90375   3.827  31.791   4.722
25215W        W90376  30.393  21.787   4.252
25216W        W90377  44.839  10.694   1.719
25217W        W90378  28.489  23.107   5.242
25218W        W90379  13.451  22.134   3.587
25219W        W90380  16.603   1.832  14.008
25220W        W90381   0.537  40.259   1.799
25221W        W90382  18.253   1.970   4.691
25222W        W90383  19.385  13.543   2.345
25223W        W90384  22.732  29.781  12.468
25224W        W90385   7.232  41.347   1.340
25225W        W90386  22.947   2.638  12.112
25226W        W90387  25.113  29.519   4.135
25227W        W90388  38.611  27.544   0.837
25228W        W90389  13.642  44.836  10.660
25229W        W90390  33.437   3.810  12.152
25230W        W90391  22.652   5.878  11.764
25231W        W90392  40.867  16.631  12.557
25232W        W90393   2.476  15.133  11.469
25233W        W90394   8.882  12.828   1.884
25234W        W90395  10.431  22.686  14.005
25235W        W90396  32.954  13.250   2.765
25236W        W90397  23.042  42.296  11.976
25237W        W90398  44.670  13.613   2.141
25238W        W90399  35.771   9.497  11.541
25239W        W90400  40.478  14.432   2.860
25240W        W90401  41.262  17.102   3.335
25241W        W90402  35.275   9.708  12.942
25242W        W90403   7.734  16.957   4.108
25243W        W90404  34.989   1.982  11.270
25244W        W90405  26.999  28.679  11.159
25245W        W90406  25.551  28.899  11.588
25246W        W90407  27.657  40.222  10.762
25247W        W90408  12.349  22.876  12.897
25248W        W90409  16.838  39.441  10.222
25249W        W90410  33.143   6.378   3.734
25250W        W90411   3.821  12.426  13.072
25251W        W90412  29.466  26.697   2.726
25252W        W90413   8.574   1.833  13.379
25253W        W90414  19.351   5.433  11.861
25254W        W90415  42.926   8.176  10.569
25255W        W90416  33.838  23.018   2.731
25256W        W90417   2.980  20.668   1.319
25257W        W90418   8.394  44.231   0.854
25258W        W90419  23.184   4.461   0.698
25259W        W90420  22.396  33.820  13.406
25260W        W90421  17.813  24.221   0.298
25261W        W90422  34.795   0.446  14.998
25262W        W90423  25.148  39.039  12.471
25263W        W90424  28.246  18.345   4.545
25264W        W90425  36.377  40.051  14.834
25265W        W90426  13.123  29.562  14.428
25266W        W90427  18.178  32.959   0.413
25267W        W90428  11.137  43.316   3.477
25268W        W90429   4.992  40.948  11.063
25269W        W90430  23.925  23.542   0.381
25270W        W90431  40.942  38.481  14.714
25271W        W90432  14.156  36.638  14.328
25272W        W90433  27.621  10.906   4.083
25273W        W90434  37.042  20.609  12.618
25274W        W90435  42.493  10.414   3.167
25275W        W90436  21.478  19.448   0.880
25276W        W90437  17.813  27.118  11.053
25277W        W90438  15.231  30.340   2.717
25278W        W90439  15.792  17.282   4.695
25279W        W90440  41.442  15.809   1.655
25280W        W90441  39.983  31.898   3.191
25281W        W90442  32.419   2.168  11.873
25282W        W90443  34.795  22.742   9.996
25283W        W90444  17.247  38.696  14.268
25284W        W90445  32.468   6.729   1.213
25285W        W90446  10.743   2.855   0.968
25286W        W90447   1.916  28.952  14.994
25287W        W90448  10.473  10.761   1.949
25288W        W90449  16.779  12.674  12.054
25289W        W90450  41.872  41.027  14.126
25290W        W90451  27.848  13.960   1.185
25291W        W90452  11.151  40.916   1.345
25292W        W90453  44.628  12.592   0.208
25293W        W90454  42.887  20.015  10.718
25294W        W90455  34.612   4.618  14.372
25295W        W90456  26.471  26.208   3.302
25296W        W90457  31.022  27.701   3.931
25297W        W90458  11.368  29.677   2.689
25298W        W90459  38.048   6.795   1.272
25299W        W90460   6.386   9.077  10.962
25300W        W90461   0.615  11.987  13.863
25301W        W90462  44.276   3.161  10.223
25302W        W90463  28.094  34.276   1.624
25303W        W90464  40.415  38.961  13.704
25304W        W90465  43.082  28.927  13.914
25305W        W90466   8.291  21.176   9.991
25306W        W90467  32.584  25.132  14.424
25307W        W90468  11.119  32.915  14.713
25308W        W90469  15.836  29.186   0.427
25309W        W90470   6.936   2.935  14.780
25310W        W90471  34.515   4.898   4.891
25311W        W90472  28.513  35.110  13.525
25312W        W90473   5.841  31.173   4.660
25313W        W90474  17.455  23.152  10.762
25314W        W90475  37.142  21.704   5.340
25315W        W90476  26.124   1.696   3.249
25316W        W90477  14.162  26.506   2.430
25317W        W90478  16.513  10.734  12.014
25318W        W90479   3.446  18.688   1.366
25319W        W90480  20.173  37.907  13.509
25320W        W90481  33.694  32.693  13.815
25321W        W90482  18.401  20.278  14.875
25322W        W90483   7.707   6.391  14.929
25323W        W90484  38.264  43.218   0.885
25324W        W90485   3.484   9.216  12.360
25325W        W90486  34.427  19.791  14.997
25326W        W90487  43.799  14.101   4.208
25327W        W90488  44.500  41.784  11.070
25328W        W90489  17.956  25.678   3.906
25329W        W90490  44.273   4.640  13.922
25330W        W90491  42.543  42.871  10.488
25331W        W90492  24.216  37.084  11.193
25332W        W90493  42.442  37.789  12.961
25333W        W90494  29.405  27.965  11.999
25334W        W90495  11.002  17.083  14.930
25335W        W90496  19.670  36.891   0.305
25336W        W90497  26.098  21.541   0.026
25337W        W90498  40.169  35.669   0.506
25338W        W90499  17.863  34.876  13.866
25339W        W90500  36.123   2.733  14.287
25340W        W90501  19.335  18.796  12.515
25341W        W90502  13.684  42.155  13.577
25342W        W90503  18.490  36.471   4.103
25343W        W90504  29.383  12.534  10.667
25344W        W90505   4.883  29.341  11.649
25345W        W90506  14.399  29.003   1.111
25346W        W90507  11.181  22.231  12.981
25347W        W90508  41.808  38.226   4.560
25348W        W90509  18.721  19.840   1.444
25349W        W90510  20.590  42.576   0.164
25350W        W90511  23.100   6.384   4.684
25351W        W90512  40.016  44.605   2.786
25352W        W90513   2.246   3.378  12.354
25353W        W90514   4.880   5.420   2.718
25354W        W90515  39.929  31.417   3.384
25355W        W90516  29.826  20.184  14.301
25356W        W90517   7.665  40.389  10.942
25357W        W90518  19.552  23.372   0.508
25358W        W90519   7.964  14.735  12.672
25359W        W90520  12.029  40.837  14.751
25360W        W90521  26.102  23.447  12.563
25361W        W90522  10.711  38.535   1.447
25362W        W90523   3.287  20.265   0.417
25363W        W90524  34.803  26.164   4.403
25364W        W90525  11.238  17.634  10.975
25365W        W90526  30.759  24.712   3.177
25366W        W90527  24.130  23.190   3.196
25367W        W90528   2.195  25.278   1.402
25368W        W90529  34.938   4.383  14.009
25369W        W90530  39.365   8.385   1.270
25370W        W90531  14.465  18.676   3.689
25371W        W90532  26.229  43.473  11.581
25372W        W90533  36.288  27.408   1.283
25373W        W90534  36.982  37.494   3.093
25374W        W90535  13.542   2.022  14.871
25375W        W90536  25.143   5.015  11.500
25376W        W90537  23.248   2.694   1.429
25377W        W90538  35.030  36.673  12.646
25378W        W90539   4.654  17.237  12.087
25379W        W90540  24.700  40.389  11.612
25380W        W90541  36.127   2.679   3.895
25381W        W90542  44.857  31.892   1.370
25382W        W90543  14.899  15.986   3.164
25383W        W90544  42.560  19.239  14.770
25384W        W90545  26.929  33.549  10.796
25385W        W90546   9.827   9.864   2.691
25386W        W90547  17.067  37.651  14.386
25387W        W90548  34.043  31.193  13.405
25388W        W90549   4.708  19.502  12.997
25389W        W90550  39.053  11.793   1.355
25390W        W90551  27.186  34.752  13.295
25391W        W90552   8.708  43.638  14.021
25392W        W90553  18.061   2.716   3.509
25393W        W90554  10.385   0.206   0.376
25394W        W90555  32.962  27.480   2.251
25395W        W90556  28.489  42.243   2.807
25396W        W90557   4.568  44.741   0.216
25397W        W90558  23.254  37.479  11.158
25398W        W90559   2.194  44.982   1.485
25399W        W90560   9.849   4.534   0.296
25400W        W90561  34.047  29.281   5.036
25401W        W90562   4.499  23.518   3.552
25402W        W90563   5.753  38.544   0.546
25403W        W90564  15.288  24.971   3.745
25404W        W90565  41.459  44.813   1.123
25405W        W90566  19.428  19.822   2.465
25406W        W90567  40.879  20.259   2.385
25407W        W90568   9.593  23.855   0.820
25408W        W90569   6.641  25.951  14.043
25409W        W90570  22.654   5.997  12.248
25410W        W90571   5.392  41.270  11.203
25411W        W90572  37.311  14.925   4.694
25412W        W90573  11.839  18.988  11.204
25413W        W90574   3.249  35.469  12.007
25414W        W90575   8.799  27.189   1.712
25415W        W90576  24.000   8.599  13.347
25416W        W90577  15.476   2.337   4.223
25417W        W90578  39.941   9.688  13.788
25418W        W90579   0.421   0.021   4.467
25419W        W90580  21.850  30.494   0.886
25420W        W90581  12.754  41.366   2.480
25421W        W90582  42.781  38.480   0.502
25422W        W90583  22.601  14.785  12.794
25423W        W90584  41.321  38.006  10.300
25424W        W90585  27.164  25.984  13.812
25425W        W90586   8.198  37.274   5.039
25426W        W90587  15.573   7.534   1.740
25427W        W90588  36.802  42.266  14.782
25428W        W90589  29.776  31.240   1.843
25429W        W90590  19.264  18.367   5.492
25430W        W90591  26.656  32.545   2.025
25431W        W90592  36.913  19.559   0.821
25432W        W90593  30.456   5.429  12.562
25433W        W90594  42.803  13.118  13.354
25434W        W90595  38.453  12.307   0.288
25435W        W90596  33.980   3.573   4.458
25436W        W90597  31.871  32.593   2.545
25437W        W90598  42.742  23.551  13.725
25438W        W90599  13.886   5.201   2.774
25439W        W90600  44.023   8.174   2.311
25440W        W90601  14.388  18.069   3.364
25441W        W90602  34.630   2.496   2.859
25442W        W90603  15.654  29.276   2.296
25443W        W90604   6.645  37.966   1.274
25444W        W90605  23.507   8.233  13.237
25445W        W90606  35.458   8.680  11.717
25446W        W90607  38.751  20.995  11.958
25447W        W90608  36.867   6.205   4.595
25448W        W90609   1.937  33.601  12.067
25449W        W90610  23.768  44.332  14.876
25450W        W90611  20.253  36.873   2.671
25451W        W90612  12.600  24.464   3.654
25452W        W90613  35.926  15.997   3.392
25453W        W90614  24.703  35.491  12.025
25454W        W90615  40.764  35.567   3.697
25455W        W90616  23.004   7.352  12.908
25456W        W90617  24.254  18.136   4.166
25457W        W90618   5.873  12.482   0.406
25458W        W90619  20.074  15.641   1.897
25459W        W90620  43.521  10.844  12.170
25460W        W90621  35.423  41.444   0.381
25461W        W90622  35.368  11.532  14.100
25462W        W90623  15.949  34.955  14.845
25463W        W90624  36.627  24.635  12.357
25464W        W90625   5.276   8.452  10.516
25465W        W90626   9.081  43.056  10.109
25466W        W90627   5.636  30.536   0.875
25467W        W90628  15.708  33.619   1.341
25468W        W90629   8.214  23.882  13.980
25469W        W90630  32.401  44.345  12.537
25470W        W90631  23.479  38.556   3.281
25471W        W90632  20.675  12.806  12.454
25472W        W90633  30.617  35.726   0.105
25473W        W90634   9.691  39.499  11.405
25474W        W90635  13.163   4.917  10.976
25475W        W90636  31.359  38.717  10.255
25476W        W90637   2.863   6.964   0.367
25477W        W90638  33.149  30.408   3.857
25478W        W90639  29.664  10.841   4.640
25479W        W90640   9.823  24.914   2.434
25480W        W90641   3.909  32.116  11.139
25481W        W90642  44.291   8.908   1.932
25482W        W90643  33.395  37.954   4.968
25483W        W90644   5.415   6.980   3.536
25484W        W90645  26.214   0.813  12.537
25485W        W90646  21.226  23.581   1.427
25486W        W90647  40.436  22.969  14.361
25487W        W90648   8.967  35.980  11.526
25488W        W90649  18.206   9.818  14.938
25489W        W90650  37.045  20.767  13.493
25490W        W90651  28.591  41.384  14.895
25491W        W90652  29.009  40.660  14.010
25492W        W90653  12.397  10.240   3.074
25493W        W90654  31.768   9.797   4.661
25494W        W90655  42.715  18.080  12.230
25495W        W90656  39.575  12.473  14.333
25496W        W90657  28.985   9.879   0.749
25497W        W90658   7.258  36.532  14.830
25498W        W90659  17.664  39.291   0.064
25499W        W90660   0.749   2.357   4.187
25500W        W90661  13.081  14.766   2.681
25501W        W90662  30.155  25.146  11.419
25502W        W90663  28.180  24.643  12.521
25503W        W90664   2.151  14.634  13.245
25504W        W90665  36.085  40.305  13.159
25505W        W90666  22.749  13.552   1.481
25506W        W90667  35.990  30.810  12.350
25507W        W90668  38.385  32.090  12.673
25508W        W90669  27.388   3.156  12.510
25509W        W90670  41.761  39.785  14.823
25510W        W90671  28.475  17.784  12.148
25511W        W90672   4.847  44.037  14.886
25512W        W90673  40.493  25.710   0.325
25513W        W90674   5.546  40.743   1.389
25514W        W90675  30.917  21.750   9.810
25515W        W90676  40.675  20.121  11.184
25516W        W90677  24.202  40.752   1.132
25517W        W90678  18.805  35.052   4.321
25518W        W90679   0.586  39.693   5.440
25519W        W90680   6.155   0.860   2.282
25520W        W90681  20.094  32.956   0.405
25521W        W90682  18.048  24.368  10.802
25522W        W90683   2.765  14.987   2.888
25523W        W90684  32.012  12.157   0.074
25524W        W90685   2.271  42.227  14.321
25525W        W90686  33.817  33.486  13.252
25526W        W90687  32.397  17.062   2.647
25527W        W90688  20.186  17.807   3.086
25528W        W90689  11.446  42.759   1.693
25529W        W90690  32.686   0.425  11.653
25530W        W90691   7.037  34.298   4.513
25531W        W90692  36.202   2.148  13.493
25532W        W90693   1.750  28.661  13.466
25533W        W90694   7.622  19.046  12.782
25534W        W90695   9.747  23.297   1.216
25535W        W90696  10.211  12.226   0.013
25536W        W90697  22.167  28.655  14.774
25537W        W90698   2.753   9.737   4.884
25538W        W90699  15.098   6.796  10.697
25539W        W90700   2.223  22.982  13.357
25540W        W90701  14.192  40.815  13.997
25541W        W90702   8.242  37.560  13.467
25542W        W90703  30.034   9.671   0.833
25543W        W90704  29.695  25.569   3.168
25544W        W90705  37.381  15.556   1.401
25545W        W90706  38.390   5.674   0.379
25546W        W90707  41.091  39.808  14.293
25547W        W90708  24.656   7.810   2.812
25548W        W90709  39.639  31.127   1.734
25549W        W90710  14.206  41.317  14.723
25550W        W90711  10.945  40.079  13.506
25551W        W90712  22.112  36.546   4.420
25552W        W90713  15.192  41.296   0.865
25553W        W90714  19.680  28.776  11.600
25554W        W90715  20.140  21.145   0.810
25555W        W90716  25.294  32.578  13.903
25556W        W90717  31.632   7.933   0.403
25557W        W90718   4.204  31.369   2.872
25558W        W90719  14.580  19.669   4.695
25559W        W90720  21.214  36.851   4.943
25560W        W90721  21.176  39.849  14.687
25561W        W90722   8.845  23.721  14.423
25562W        W90723  30.692  27.000  11.650
25563W        W90724  31.073  22.599   1.343
25564W        W90725   1.864   8.965   2.878
25565W        W90726  13.507  40.551   9.756
25566W        W90727   3.630  44.963   2.847
25567W        W90728   9.627  10.625   0.256
25568W        W90729  42.853  19.503  12.131
25569W        W90730  33.636  44.907   3.755
25570W        W90731  12.364  40.220   2.197
25571W        W90732  10.217  17.034   4.937
25572W        W90733  18.675  35.946   0.446
25573W        W90734  12.428  27.115   3.021
25574W        W90735  16.612  17.703   5.654
25575W        W90736   8.944   6.085  14.528
25576W        W90737  24.137   8.892  12.041
25577W        W90738  41.913  25.739   3.111
25578W        W90739  14.199  12.681   1.013
25579W        W90740  37.509   0.681   0.916
25580W        W90741  26.225  34.051   2.833
25581W        W90742  12.194  24.305  12.858
25582W        W90743   2.529  34.830  12.172
25583W        W90744  30.441  10.837  13.227
25584W        W90745  36.069  41.084   1.331
25585W        W90746  20.053   6.892   0.054
25586W        W90747  41.820  27.860  12.860
25587W        W90748  37.540  11.078   0.369
25588W        W90749  32.587  41.102  12.350
25589W        W90750   6.363  42.774  12.876
25590W        W90751   7.399  11.819  14.289
25591W        W90752   9.309   6.296  12.288
25592W        W90753   7.402  22.680   2.880
25593W        W90754  42.782  42.507  14.439
25594W        W90755  41.331  24.157   3.854
25595W        W90756  30.417  25.513   3.766
25596W        W90757   1.642  25.999  14.503
25597W        W90758   1.746  14.263   0.406
25598W        W90759  40.979  20.175   4.280
25599W        W90760  26.005   3.000  13.605
25600W        W90761  17.331  13.132   2.356
25601W        W90762  39.834   6.672   1.490
25602W        W90763   8.835  30.288  12.142
25603W        W90764  10.923  31.817  11.164
25604W        W90765   4.066  11.210   4.134
25605W        W90766  30.454  18.675   1.385
25606W        W90767  38.680  39.170   4.151
25607W        W90768   1.441   9.180   4.092
25608W        W90769  19.308  40.787   4.227
25609W        W90770  24.721  15.732   1.041
25610W        W90771  14.806  26.250  14.327
25611W        W90772   8.990  20.045   0.267
25612W        W90773  14.856   5.238   3.177
25613W        W90774  16.229  41.573  14.437
25614W        W90775   8.752  14.727   3.257
25615W        W90776  17.685   7.286  13.559
25616W        W90777  43.850  42.540   2.604
25617W        W90778   1.259  17.676   2.330
25618W        W90779   2.811   1.334   2.147
25619W        W90780  31.240  10.343  14.798
25620W        W90781  25.402   6.811   4.983
25621W        W90782   1.736  33.046  13.466
25622W        W90783  14.354  20.090  14.265
25623W        W90784  11.351  12.555  14.258
25624W        W90785  42.891  37.393  13.593
25625W        W90786   4.818  31.226   3.873
25626W        W90787  10.878  32.876  13.330
25627W        W90788  10.228   8.341   3.334
25628W        W90789  24.872   6.623   0.357
25629W        W90790  12.169  19.039  13.429
25630W        W90791  25.768  12.905   4.960
25631W        W90792  29.571  39.585  11.741
25632W        W90793   2.245   9.660   0.185
25633W        W90794  17.593   0.144  10.072
25634W        W90795   7.642   1.757  14.486
25635W        W90796   1.750  29.594   2.322
25636W        W90797  27.833  27.629  12.637
25637W        W90798  21.759  32.363   2.470
25638W        W90799  33.587  29.936  14.366
25639W        W90800  11.626   9.376  11.678
25640W        W90801  23.999   6.237   0.032
25641W        W90802   1.036  18.658  12.821
25642W        W90803  21.146   3.905   2.204
25643W        W90804  30.612  19.609   0.442
25644W        W90805  30.053   9.250  12.560
25645W        W90806  20.312  37.015  13.538
25646W        W90807  35.088  24.756   3.771
25647W        W90808   3.412   2.758  12.653
25648W        W90809  31.419  12.372   2.369
25649W        W90810  19.453  40.928  14.304
25650W        W90811  39.137  24.747  13.865
25651W        W90812  15.330  30.398  13.562
25652W        W90813  31.520  33.949  12.660
25653W        W90814   1.286  38.444  13.456
25654W        W90815  20.037  28.297   1.395
25655W        W90816  16.913  17.697  11.039
25656W        W90817  15.820   9.742   2.774
25657W        W90818  35.049  27.555  13.487
25658W        W90819  29.932  42.831   0.474
25659W        W90820  29.581  44.809   4.344
25660W        W90821  19.222   5.636  14.547
25661W        W90822  17.628   5.931   2.172
25662W        W90823  18.785  10.054   4.560
25663W        W90824  12.888  37.698  13.496
25664W        W90825  15.536  43.261   3.288
25665W        W90826   8.632  25.049  11.622
25666W        W90827   1.145   0.141   1.741
25667W        W90828   2.431  33.397  12.006
25668W        W90829   5.351  18.756  12.873
25669W        W90830   8.972  30.434   3.131
25670W        W90831  40.905  17.679  13.229
25671W        W90832  38.308  23.137  12.568
25672W        W90833  12.742   3.473   0.706
25673W        W90834  30.452  22.427   0.853
25674W        W90835  12.324  12.845  14.266
25675W        W90836  28.963   1.801  14.085
25676W        W90837  26.970   5.631   0.305
25677W        W90838  35.920  34.178   0.406
25678W        W90839  36.032  25.507   3.148
25679W        W90840  21.254  29.096   0.678
25680W        W90841  39.438   8.091   2.828
25681W        W90842  29.401  24.574   1.863
25682W        W90843  11.975  42.798   3.708
25683W        W90844  41.561  29.539   3.856
25684W        W90845  30.883  29.195   1.716
25685W        W90846  44.900  42.769  11.664
25686W        W90847   9.069  11.557  12.797
25687W        W90848  20.316  17.174   9.824
25688W        W90849  36.588  23.691   1.722
25689W        W90850  24.426   7.824   2.336
25690W        W90851  21.476  11.010  11.599
25691W        W90852  43.881  21.638  11.873
25692W        W90853  35.898  39.796  12.016
25693W        W90854   3.815   0.660  14.977
25694W        W90855   7.601   1.739  13.952
25695W        W90856  16.129  44.370  11.612
25696W        W90857  40.295  26.958   0.856
25697W        W90858   6.800  30.356   1.871
25698W        W90859  26.968  27.235  11.496
25699W        W90860  18.223  29.471  13.139
25700W        W90861  36.559  15.297  10.754
25701W        W90862   0.414  31.615  14.325
25702W        W90863  36.777   6.601   4.245
25703W        W90864  39.829  40.074  12.003
25704W        W90865   6.133  38.874   2.929
25705W        W90866   8.317   0.852   0.017
25706W        W90867  24.926   4.247   0.455
25707W        W90868  44.467   1.051   4.221
25708W        W90869  12.636  13.409   4.752
25709W        W90870   5.521  24.984  11.566
25710W        W90871   1.813  14.305   4.981
25711W        W90872   8.348  44.455  13.658
25712W        W90873  38.626  41.906   2.794
25713W        W90874  29.457  23.007  13.420
25714W        W90875  16.162  40.550  14.570
25715W        W90876   8.031  16.558  12.582
25716W        W90877  43.135  42.580   3.674
25717W        W90878   8.364  12.850   4.689
25718W        W90879  42.913   3.375   3.999
25719W        W90880  30.657   3.806   2.232
25720W        W90881  18.295  44.269   4.757
25721W        W90882  40.361  31.958  10.562
25722W        W90883  33.702  10.785  11.171
25723W        W90884   9.569   1.709   1.290
25724W        W90885  36.780  32.155   1.720
25725W        W90886  14.244  14.572   2.205
25726W        W90887  19.681  21.149   1.255
25727W        W90888   7.759  36.104  12.995
25728W        W90889   4.893  28.845   4.513
25729W        W90890  19.591   5.268  13.137
25730W        W90891  18.634   9.720   0.838
25731W        W90892  43.356  32.156   1.430
25732W        W90893  34.529   1.949   1.731
25733W        W90894  39.157  42.343   1.036
25734W        W90895  18.123   2.734  13.991
25735W        W90896  36.375   3.554   3.803
25736W        W90897   8.374  25.483  10.754
25737W        W90898  11.872   5.287   0.974
25738W        W90899  39.208  27.568  12.982
25739W        W90900  27.422  24.853   4.077
25740W        W90901  29.875  14.632  14.774
25741W        W90902  22.178  39.795  12.831
25742W        W90903   7.013   6.169  12.577
25743W        W90904   5.926  20.195  10.713
25744W        W90905  43.099  39.143   1.495
25745W        W90906   7.870  22.124  12.698
25746W        W90907  19.745   3.454   1.265
25747W        W90908  19.613  22.241  10.216
25748W        W90909  11.806   6.345  11.567
25749W        W90910  18.226  14.794   2.697
25750W        W90911  26.317  44.331   0.399
25751W        W90912   2.046  43.611   0.623
25752W        W90913  22.963  35.157   2.199
25753W        W90914  38.655  42.428   4.687
25754W        W90915  40.294  24.739   2.719
25755W        W90916  26.542  42.010   0.893
25756W        W90917  26.558  21.008   3.498
25757W        W90918  19.839  32.934  12.434
25758W        W90919  29.137  19.628   4.680
25759W        W90920  33.301   9.490  12.079
25760W        W90921  40.514  23.966   4.121
25761W        W90922  35.397  30.965   0.158
25762W        W90923  26.505  40.717   4.052
25763W        W90924  44.704  14.197   3.249
25764W        W90925  32.036   3.487  11.892
25765W        W90926  12.028  30.997   3.034
25766W        W90927  40.514   5.230  10.747
25767W        W90928  23.587  25.305  11.662
25768W        W90929  12.557   2.140  14.747
25769W        W90930  12.919   2.566  11.912
25770W        W90931  40.500  36.365   4.292
25771W        W90932  12.236  39.353  14.368
25772W        W90933  10.500  23.859   2.787
25773W        W90934   1.850   9.795   1.475
25774W        W90935  22.282  25.981   0.200
25775W        W90936  44.299  27.706  10.513
25776W        W90937   8.337  38.606   3.704
25777W        W90938  44.284  30.032   0.977
25778W        W90939   3.377   2.026   3.723
25779W        W90940  30.510  21.948   5.531
25780W        W90941  14.187  19.665   2.409
25781W        W90942  34.545  37.298   4.339
25782W        W90943   9.729   1.539   0.320
25783W        W90944   3.971  20.942   2.170
25784W        W90945  25.943  11.778   3.609
25785W        W90946   8.465  26.763   4.606
25786W        W90947  33.904   3.035  11.642
25787W        W90948  43.073  42.670  11.197
25788W        W90949  43.318  20.167   4.646
25789W        W90950   7.634  40.266  10.438
25790W        W90951  43.099  41.018  10.728
25791W        W90952  33.872  15.567   3.759
25792W        W90953  38.258  42.463   3.726
25793W        W90954  43.490  34.559  10.291
25794W        W90955  27.802  21.393   3.716
25795W        W90956  32.232  14.825  14.503
25796W        W90957   9.080  33.867  11.998
25797W        W90958   0.926  29.678  11.181
25798W        W90959  44.238  38.310  12.816
25799W        W90960  35.497  43.531  11.068
25800W        W90961   5.275  29.161  12.831
25801W        W90962  30.406   3.243   4.117
25802W        W90963   9.197  29.447  11.983
25803W        W90964  18.223  41.035   2.288
25804W        W90965  44.299  21.168   2.109
25805W        W90966   9.987   9.912   0.904
25806W        W90967  31.612  24.434   1.818
25807W        W90968  22.223  13.329   4.469
25808W        W90969  20.517  36.480   0.591
25809W        W90970  20.051  14.185   0.841
25810W        W90971  44.320  29.552   1.774
25811W        W90972  18.202  43.892  14.916
25812W        W90973  20.727  27.993  13.554
25813W        W90974  30.597  33.577   1.139
25814W        W90975  13.605  43.191  14.706
25815W        W90976  38.507  40.934  14.561
25816W        W90977  40.474   5.948   3.856
25817W        W90978  41.020  36.560  14.739
25818W        W90979  11.747  42.993  10.647
25819W        W90980   0.802  33.155  13.516
25820W        W90981   2.250   9.824  11.196
25821W        W90982  14.054  13.481   1.645
25822W        W90983  23.358  28.473  11.543
25823W        W90984  35.552  44.060   0.995
25824W        W90985  15.614   2.478   1.429
25825W        W90986  28.412   0.981  12.144
25826W        W90987  10.160  27.510  14.227
25827W        W90988  38.857  25.470  14.302
25828W        W90989  21.518  19.115  14.058
25829W        W90990  27.006  28.532   2.620
25830W        W90991   3.800  36.949   4.669
25831W        W90992   9.836   8.295   4.121
25832W        W90993  39.909  41.394  12.643
25833W        W90994  11.694  42.010   1.802
25834W        W90995  24.068  42.480  14.682
25835W        W90996  16.670  31.540   4.544
25836W        W90997   9.064  24.261  10.671
25837W        W90998   0.195  34.525   1.367
25838W        W90999   7.289  19.197  11.120
25839W        W91000  41.986  40.851   0.199
25840W        W91001  28.099  27.680  12.147
25841W        W91002  41.919  22.355  12.886
25842W        W91003  26.926  36.120  12.023
25843W        W91004   9.151  23.504   3.293
25844W        W91005   1.877  27.678   2.405
25845W        W91006  31.343   3.867   1.642
25846W        W91007  13.184  22.699   3.107
25847W        W91008  36.058   6.173  11.233
25848W        W91009  23.779  40.261  12.963
25849W        W91010  32.515  23.286  13.303
25850W        W91011  39.926  13.138   2.319
25851W        W91012  30.864   6.303  14.812
25852W        W91013  31.175   9.661  11.065
25853W        W91014  41.091  43.439   2.872
25854W        W91015  12.664  42.873  13.027
25855W        W91016  41.319  16.246  14.890
25856W        W91017  28.090  15.806   2.860
25857W        W91018  36.458  18.840   0.755
25858W        W91019  12.173  13.158  11.927
25859W        W91020   0.342  43.499   3.112
25860W        W91021  40.672   9.430  10.666
25861W        W91022  39.045  42.238   4.018
25862W        W91023   6.771  16.289   3.132
25863W        W91024  24.402  32.464   4.196
25864W        W91025  38.429   3.784  10.920
25865W        W91026  22.157   3.464   1.829
25866W        W91027  17.068  21.229   4.109
25867W        W91028  25.128  39.581  12.438
25868W        W91029  24.748  21.645  14.255
25869W        W91030  34.805  10.341  10.434
25870W        W91031  36.898   8.796   0.900
25871W        W91032  39.626  44.546  12.785
25872W        W91033  31.952   6.259  13.991
25873W        W91034  35.978  39.822   1.793
25874W        W91035  10.814  42.059  12.969
25875W        W91036   3.361  37.590   2.715
25876W        W91037  12.603  44.262  12.307
25877W        W91038  17.706  42.854   3.570
25878W        W91039   4.185   6.246  14.381
25879W        W91040  44.145  23.693  13.839
25880W        W91041  24.449  19.325   0.915
25881W        W91042  23.077  32.061   1.283
25882W        W91043  27.743   0.761  14.090
25883W        W91044  30.564  26.387  14.948
25884W        W91045  10.358  18.297   1.513
25885W        W91046  37.163   3.227   2.857
25886W        W91047  32.799  15.364   3.152
25887W        W91048  16.657  38.530  10.040
25888W        W91049   0.830  40.519   4.457
25889W        W91050  35.316   3.457  14.200
25890W        W91051  25.600  41.822  14.086
25891W        W91052  32.708  25.261   0.312
25892W        W91053  16.354  19.279  13.395
25893W        W91054  38.890  26.282  10.651
25894W        W91055  30.100  40.630  12.620
25895W        W91056  29.018  27.034   3.355
25896W        W91057   0.374  35.847  13.031
25897W        W91058   5.140  13.664  14.375
25898W        W91059  26.002  38.017   2.316
25899W        W91060  29.282  15.002  12.204
25900W        W91061  20.170  32.466   0.216
25901W        W91062  28.989  32.011   4.592
25902W        W91063   5.764   4.896   4.649
25903W        W91064   8.599   7.248   4.077
25904W        W91065  35.016  31.390  10.955
25905W        W91066  33.902   1.214   3.486
25906W        W91067  14.172  11.897  13.317
25907W        W91068  42.852  10.608   2.286
25908W        W91069   2.796  44.382  13.620
25909W        W91070  12.616  30.670   0.454
25910W        W91071  22.492  41.042   3.174
25911W        W91072   4.023   5.230  13.462
25912W        W91073  35.295   1.597   1.333
25913W        W91074  44.263  16.832  14.180
25914W        W91075  32.332  33.499  12.034
25915W        W91076  19.971  16.139   1.730
25916W        W91077  28.381  34.843   0.395
25917W        W91078  11.904   5.361   3.132
25918W        W91079   4.476   7.391  14.595
25919W        W91080  39.265  38.032  12.555
25920W        W91081  24.001  42.124   1.011
25921W        W91082  38.425  29.649  14.345
25922W        W91083  35.396  28.355  10.952
25923W        W91084  27.708  20.899   3.634
25924W        W91085   4.339  27.467  11.791
25925W        W91086   7.473   9.376   0.420
25926W        W91087  16.296  17.703   2.829
25927W        W91088  13.190  21.245   4.595
25928W        W91089   0.903  21.596  10.592
25929W        W91090  14.339  41.900  13.433
25930W        W91091  13.075  30.534   4.475
25931W        W91092  18.019   4.499   0.498
25932W        W91093  21.207  32.894  11.753
25933W        W91094  33.745  22.544   1.943
25934W        W91095  17.954  35.936  12.412
25935W        W91096  32.014  17.158  14.000
25936W        W91097  32.468  41.402   0.778
25937W        W91098   3.267  28.572   2.572
25938W        W91099   8.758   6.973   3.638
25939W        W91100  13.088  39.023  13.820
25940W        W91101  42.915  16.849   3.644
25941W        W91102  44.984  34.131  10.953
25942W        W91103  34.093   6.225  11.278
25943W        W91104  18.605   7.318  13.864
25944W        W91105  19.289  31.515   0.613
25945W        W91106  43.527   1.851   3.390
25946W        W91107  41.857  33.026  14.578
25947W        W91108  30.530  31.704  13.468
25948W        W91109   6.440  33.568  14.304
25949W        W91110  15.296  34.042  11.091
25950W        W91111   7.517  34.135   1.664
25951W        W91112  12.735   9.843  11.107
25952W        W91113  35.574   8.302   0.911
25953W        W91114  35.820   3.662  11.569
25954W        W91115   1.854   8.824  11.148
25955W        W91116  20.429   7.696   3.638
25956W        W91117  26.009   7.545  11.090
25957W        W91118  14.059   0.756  12.522
25958W        W91119  33.991  11.052  13.926
25959W        W91120  23.680  26.670   1.850
25960W        W91121  26.921  29.495  14.346
25961W        W91122  32.055  28.987  12.139
25962W        W91123  32.448  15.898  10.662
25963W        W91124   9.850  28.412   4.367
25964W        W91125  34.814   8.790   3.710
25965W        W91126  10.557   0.378  11.219
25966W        W91127  11.412  35.793   2.741
25967W        W91128  35.404  14.143  12.106
25968W        W91129  35.633  38.954  11.109
25969W        W91130  27.612  26.083   2.333
25970W        W91131  19.658  36.398   0.543
25971W        W91132   1.615   7.227  12.945
25972W        W91133  32.850  24.612  11.603
25973W        W91134  23.016  30.794  11.030
25974W        W91135  34.348  19.878  12.092
25975W        W91136  34.928  11.986   2.701
25976W        W91137  35.946   4.174  14.376
25977W        W91138  26.285  40.802  12.484
25978W        W91139   6.211   3.336   4.176
25979W        W91140  29.221  28.132  14.631
25980W        W91141  17.741   8.218   0.288
25981W        W91142  40.936   6.956   0.174
25982W        W91143  34.664  41.828  11.692
25983W        W91144  40.132  16.615   0.804
25984W        W91145  15.868   5.720   1.864
25985W        W91146  15.781  23.235  12.351
25986W        W91147  39.986  24.061   3.429
25987W        W91148  22.509  38.823  14.930
25988W        W91149   2.507  36.535   1.112
25989W        W91150   1.543   3.250   3.166
25990W        W91151   8.809  21.296   1.740
25991W        W91152  12.571  22.237   3.015
25992W        W91153   6.820  42.642   2.134
25993W        W91154   1.937  30.432  14.105
25994W        W91155  38.000  23.563   2.444
25995W        W91156  15.006  36.088  12.764
25996W        W91157  25.961  26.688   3.669
25997W        W91158  12.104  11.770   4.177
25998W        W91159  24.174   8.384  11.208
25999W        W91160   8.619  37.432  13.821
26000W        W91161   3.413  24.505  11.062
26001W        W91162  22.650   4.765  11.613
26002W        W91163  42.052  21.392   2.484
26003W        W91164   4.257  21.480   1.772
26004W        W91165  17.715   3.366   3.628
26005W        W91166  44.061  12.858   9.471
26006W        W91167   9.192  35.555   0.887
26007W        W91168   9.865  29.823   3.213
26008W        W91169   9.392   6.601  13.751
26009W        W91170  44.713   6.178  10.109
26010W        W91171  19.404  16.123   4.034
26011W        W91172  17.306  20.482  13.476
26012W        W91173  16.734   6.685   1.698
26013W        W91174  14.990  28.987   3.606
26014W        W91175  38.918  17.811   3.084
26015W        W91176  44.088  27.589  12.084
26016W        W91177   2.819  38.374   1.607
26017W        W91178  18.686  43.350   0.845
26018W        W91179  32.398  18.019   0.338
26019W        W91180   4.919  32.917   3.220
26020W        W91181  30.952   5.273  12.477
26021W        W91182   0.312   8.689   1.424
26022W        W91183  20.261  30.558  10.712
26023W        W91184  26.714  37.557   2.321
26024W        W91185   8.650  10.387   1.313
26025W        W91186  31.507  21.072   4.507
26026W        W91187  40.352  19.702  14.931
26027W        W91188  44.785  10.746  10.868
26028W        W91189  24.905  35.833  11.047
26029W        W91190  25.203  16.771   2.412
26030W        W91191  27.587  35.072   0.050
26031W        W91192  15.960  36.991   2.905
26032W        W91193  17.872  25.652  13.507
26033W        W91194  36.111   0.418  11.451
26034W        W91195  43.715  18.169   4.185
26035W        W91196  22.992  39.378  11.883
26036W        W91197   3.503   5.290   3.268
26037W        W91198  20.532  30.556  12.942
26038W        W91199  14.509  36.984  11.691
26039W        W91200  23.116   0.722   2.728
26040W        W91201  16.372  12.198  10.715
26041W        W91202  35.030  37.898  13.315
26042W        W91203   0.068   8.124  13.642
26043W        W91204   3.209  23.707  13.940
26044W        W91205  24.740  21.968   3.164
26045W        W91206  17.276   0.768  14.963
26046W        W91207  26.525  30.229  10.221
26047W        W91208   5.628  40.506  14.333
26048W        W91209  25.622  18.354   4.553
26049W        W91210  25.472   6.302  14.534
26050W        W91211   6.396  24.331   2.434
26051W        W91212  40.160  37.566   0.329
26052W        W91213  27.161   2.248  11.156
26053W        W91214  25.626  40.344  11.472
26054W        W91215  14.760   2.014   2.264
26055W        W91216  16.918  16.235   1.780
26056W        W91217  28.174  30.321  12.212
26057W        W91218  14.113  14.601   1.709
26058W        W91219  26.107  13.881   1.641
26059W        W91220  25.983  39.838  12.523
26060W        W91221  32.344  32.497   4.936
26061W        W91222  21.281  40.417   3.297
26062W        W91223  41.913  17.361  14.784
26063W        W91224  15.161  44.900  12.541
26064W        W91225   0.301  41.332  11.137
26065W        W91226  44.938  35.172   1.904
26066W        W91227   5.001  10.200  13.567
26067W        W91228  34.791  15.388   2.714
26068W        W91229  22.303  10.727   4.511
26069W        W91230  38.988  38.462   3.115
26070W        W91231  42.603  14.242  10.553
26071W        W91232   0.087  40.547   2.952
26072W        W91233  16.903  18.155  10.780
26073W        W91234  44.481  29.748   3.893
26074W        W91235  41.675   2.794   3.165
26075W        W91236  18.642  22.641  12.135
26076W        W91237  39.651   0.421  13.111
26077W        W91238  34.320  26.509  12.434
26078W        W91239  22.126  17.072  11.034
26079W        W91240  26.217   3.557  10.734
26080W        W91241  37.689   1.869  10.168
26081W        W91242  35.189   6.003   3.683
26082W        W91243  33.404  38.582  12.076
26083W        W91244   8.256  20.268   2.785
26084W        W91245  41.571  44.812  12.926
26085W        W91246  29.999  13.062   2.668
26086W        W91247  15.238  13.395  14.003
26087W        W91248  20.785  36.561  12.896
26088W        W91249  13.875  34.391  12.194
26089W        W91250  16.125  20.106   0.421
26090W        W91251  14.157   3.470  12.494
26091W        W91252   4.172  23.678   2.611
26092W        W91253  36.368  11.483   5.194
26093W        W91254  10.333  44.778  13.464
26094W        W91255   0.213  32.720  12.797
26095W        W91256  14.055  41.310  13.899
26096W        W91257  41.006  41.769   1.796
26097W        W91258  16.322  23.186  14.228
26098W        W91259  18.346   0.039  14.237
26099W        W91260  22.624  24.180   0.281
26100W        W91261  36.395  28.080  14.841
26101W        W91262  16.589  31.207  11.701
26102W        W91263  21.732   8.236  10.896
26103W        W91264  35.082   6.491   4.524
26104W        W91265  39.874   3.971   2.614
26105W        W91266  42.278   3.311  13.556
26106W        W91267  42.307   4.746  13.774
26107W        W91268   7.366  14.360  10.664
26108W        W91269  36.578  27.383   1.710
26109W        W91270  30.593  22.633  12.153
26110W        W91271  21.689   4.523  11.349
26111W        W91272  25.745  30.493  13.590
26112W        W91273   9.542  16.183   1.026
26113W        W91274  25.625  35.442  10.661
26114W        W91275  33.607  40.412   0.845
26115W        W91276  31.142  40.559  13.370
26116W        W91277  28.966  44.039   3.663
26117W        W91278  33.845  30.163  10.585
26118W        W91279  36.264  41.098   1.822
26119W        W91280  28.825  25.480  14.806
26120W        W91281  30.641  27.912   0.853
26121W        W91282   4.668   4.917  13.070
26122W        W91283  14.248   4.246   1.268
26123W        W91284   9.841  19.304  13.425
26124W        W91285  30.602  31.588   3.619
26125W        W91286  39.821  10.171   3.608
26126W        W91287  34.330  24.023  12.957
26127W        W91288  34.131   1.197  13.383
26128W        W91289  29.254  44.354   4.364
26129W        W91290  40.162  14.174  10.606
26130W        W91291  42.507  38.551  13.393
26131W        W91292  37.822  31.430  12.421
26132W        W91293   1.041  13.993   3.433
26133W        W91294  25.055   0.901   1.735
26134W        W91295  11.155  37.050  12.584
26135W        W91296  35.927  39.509   1.376
26136W        W91297  25.749  40.345  13.422
26137W        W91298  27.991  43.482  10.196
26138W        W91299  20.508   7.879  14.848
26139W        W91300   5.536  32.070  14.559
26140W        W91301  43.937  26.463  14.852
26141W        W91302  17.018  37.131  12.785
26142W        W91303   6.441  20.451  12.471
26143W        W91304  30.541  38.376  11.592
26144W        W91305   2.352  31.202  10.793
26145W        W91306  18.024   4.700  11.884
26146W        W91307  20.241  38.289   2.793
26147W        W91308  32.404  38.627   2.682
26148W        W91309  27.073  21.060   2.665
26149W        W91310  37.878  42.535  14.920
26150W        W91311  21.603  32.952  10.794
26151W        W91312  14.878  23.719   5.140
26152W        W91313  21.769  37.529   2.200
26153W        W91314  27.507  23.129   4.981
26154W        W91315  30.998  31.437  10.537
26155W        W91316  11.746   5.840   4.602
26156W        W91317  22.029  25.617  10.761
26157W        W91318   2.391  34.472   3.117
26158W        W91319  15.489  13.711   2.223
26159W        W91320  24.615  19.067  11.332
26160W        W91321  30.024  17.390  11.503
26161W        W91322  41.115  11.895  11.772
26162W        W91323  37.128  38.720   5.427
26163W        W91324  33.136   7.811  10.665
26164W        W91325  23.820  15.724   0.639
26165W        W91326  37.621  20.195   1.251
26166W        W91327   2.515  10.207  13.424
26167W        W91328  16.243   6.900   1.932
26168W        W91329  27.166   4.709   2.339
26169W        W91330   1.038   9.890  13.208
26170W        W91331   9.794  37.935   4.537
26171W        W91332  37.141  24.408  11.066
26172W        W91333  30.158  31.673  11.581
26173W        W91334  25.171  31.310  13.511
26174W        W91335  33.707  17.826  12.884
26175W        W91336   6.695  16.640  10.551
26176W        W91337   7.612  36.021  12.480
26177W        W91338  22.283  31.489  14.468
26178W        W91339  17.271  41.080   1.605
26179W        W91340  26.457  16.504  12.440
26180W        W91341  11.842  14.391   0.721
26181W        W91342  18.524  37.099  12.956
26182W        W91343  14.867  30.396  14.493
26183W        W91344  16.357  30.951   0.420
26184W        W91345   2.911  13.538  14.481
26185W        W91346  26.683   0.448  11.951
26186W        W91347  19.859   8.812  11.971
26187W        W91348  27.723  36.144   2.367
26188W        W91349  19.710  25.465   2.015
26189W        W91350   8.269  20.383   4.191
26190W        W91351   2.877  36.923   4.189
26191W        W91352  23.119  23.023   5.601
26192W        W91353  13.170  38.816   4.474
26193W        W91354  29.083  24.815  14.414
26194W        W91355  20.497  31.309   4.959
26195W        W91356   9.536  41.306  14.349
26196W        W91357  16.063   0.022  12.135
26197W        W91358  21.760  30.142  13.300
26198W        W91359  14.737   2.945   3.731
26199W        W91360  13.149   6.741  12.955
26200W        W91361  44.820  28.906   2.816
26201W        W91362  11.109  26.940   2.477
26202W        W91363  14.911  38.447   2.356
26203W        W91364  30.624  32.370   2.262
26204W        W91365  32.090  35.482  11.185
26205W        W91366  44.892  19.137  14.830
26206W        W91367  15.965  31.882  14.358
26207W        W91368  12.574  44.191   3.128
26208W        W91369   0.447  17.773  11.236
26209W        W91370  17.745  39.346  14.541
26210W        W91371  39.171  40.203   2.263
26211W        W91372  36.664  30.043   4.267
26212W        W91373   1.223  27.492   1.791
26213W        W91374  39.003  31.946   2.389
26214W        W91375  40.064   1.362  14.019
26215W        W91376  20.156  12.786  12.437
26216W        W91377   7.222   8.149   2.710
26217W        W91378  28.467  25.705   2.822
26218W        W91379  20.857  26.600   2.001
26219W        W91380  34.514  31.319  13.184
26220W        W91381   3.283  44.470   4.524
26221W        W91382  11.003  12.047   2.766
26222W        W91383   5.706  22.884   3.765
26223W        W91384  10.684   0.808   3.909
26224W        W91385   5.858   8.547   3.851
26225W        W91386  44.354  41.913   4.829
26226W        W91387  33.599  33.034   4.835
26227W        W91388   5.232  25.336   3.666
26228W        W91389  31.550  20.690  11.225
26229W        W91390  25.212  14.205  12.985
26230W        W91391  15.808  31.029   3.192
26231W        W91392  33.444  28.935   3.040
26232W        W91393  37.027  25.737   4.135
26233W        W91394  12.192  16.748   2.122
26234W        W91395  41.961   3.004  12.960
26235W        W91396  20.063   9.617   0.874
26236W        W91397  14.521  25.047   0.513
26237W        W91398  34.466  39.780   1.963
26238W        W91399  26.524  20.697  13.601
26239W        W91400   2.754  42.377   1.847
26240W        W91401  12.640  20.286  10.970
26241W        W91402  44.758   7.951  10.767
26242W        W91403  27.556  23.604   3.220
26243W        W91404  44.284  33.613   0.855
26244W        W91405   3.639  18.238  14.303
26245W        W91406   2.300  18.559  14.019
26246W        W91407  30.171  36.772  13.101
26247W        W91408  14.149  13.614  14.970
26248W        W91409  44.388  34.616   0.241
26249W        W91410  35.405  21.675  14.377
26250W        W91411  27.350  23.231   0.209
26251W        W91412  24.662   8.195  13.813
26252W        W91413   6.320  28.041   2.194
26253W        W91414  13.307  33.660  14.674
26254W        W91415  19.006   5.869   2.754
26255W        W91416  28.612  23.633  14.663
26256W        W91417  33.363  14.637   2.700
26257W        W91418  29.615  36.849  14.141
26258W        W91419  27.275  34.763  12.416
26259W        W91420  12.574   9.907   4.556
26260W        W91421  44.774  44.764  13.897
26261W        W91422  26.273  18.580  14.345
26262W        W91423  32.047  39.037   1.210
26263W        W91424  42.471  43.745   2.790
26264W        W91425  23.576   1.890   2.332
26265W        W91426  12.624  10.165  10.714
26266W        W91427  25.556   8.725  10.396
26267W        W91428  34.187  11.818   2.874
26268W        W91429  33.088   1.972  10.408
26269W        W91430  44.894   0.948  14.191
26270W        W91431  12.511  17.618  11.507
26271W        W91432  29.036  16.681  13.417
26272W        W91433   5.783  27.055  11.587
26273W        W91434  38.094  13.710  14.995
26274W        W91435  12.593  39.357  14.918
26275W        W91436  17.581  43.404  13.895
26276W        W91437  30.460  32.014   0.456
26277W        W91438  18.644  28.696  13.959
26278W        W91439  13.072   1.647   3.379
26279W        W91440  19.114  19.627  13.113
26280W        W91441  43.931  34.891   5.072
26281W        W91442   1.872   5.712  12.567
26282W        W91443  30.033  38.608  12.595
26283W        W91444  37.348  11.834   0.893
26284W        W91445   8.226   1.674   3.181
26285W        W91446  22.415  41.447   4.738
26286W        W91447  41.332  41.386   0.407
26287W        W91448   3.036  44.463   4.081
26288W        W91449  21.647  29.974   0.211
26289W        W91450  20.279  18.812  13.443
26290W        W91451  44.459  20.047  11.833
26291W        W91452  43.402  29.468  12.722
26292W        W91453  18.916  22.084   4.607
26293W        W91454   8.978  15.912   4.261
26294W        W91455  23.060  41.529   2.362
26295W        W91456  37.757  29.450   4.785
26296W        W91457  19.758  20.468   2.395
26297W        W91458  42.298  31.450  13.376
26298W        W91459  19.706  38.518  11.277
26299W        W91460  13.141   3.226  14.219
26300W        W91461  14.010  14.852   0.253
26301W        W91462  43.925  35.978   4.156
26302W        W91463  11.414  41.471  11.942
26303W        W91464   7.874  32.740   3.538
26304W        W91465   4.675  42.489  12.075
26305W        W91466  36.527  20.428   1.648
26306W        W91467  17.496  35.551  11.544
26307W        W91468  43.375  25.101   1.011
26308W        W91469  12.547  11.688   2.819
26309W        W91470  26.691   2.903   0.880
26310W        W91471  21.846  32.562  14.779
26311W        W91472   6.284  26.341   3.116
26312W        W91473  31.139  25.069   3.850
26313W        W91474   3.242  21.875  14.398
26314W        W91475  39.204  35.121  12.469
26315W        W91476  18.826  30.408   2.362
26316W        W91477  21.272  41.734   3.644
26317W        W91478   8.657  12.649  12.094
26318W        W91479  30.119   5.320   0.259
26319W        W91480  41.965   0.905   5.006
26320W        W91481   7.378  44.359   0.506
26321W        W91482   1.361  11.222  11.804
26322W        W91483   6.784   1.198  14.358
26323W        W91484   4.364  42.521   1.768
26324W        W91485  17.553   9.013  14.481
26325W        W91486   6.263  36.774   4.466
26326W        W91487  31.982  15.041  10.925
26327W        W91488  39.690  32.957   4.201
26328W        W91489  23.817   9.931   2.244
26329W        W91490  31.982  26.158  11.403
26330W        W91491   7.871   1.319  14.327
26331W        W91492   5.832  26.919  13.301
26332W        W91493   3.804  41.570   1.035
26333W        W91494  30.553  20.609   4.669
26334W        W91495   6.871  21.525  14.945
26335W        W91496  11.792  37.771  11.450
26336W        W91497  22.030  41.352  12.421
26337W        W91498  19.015  26.075  12.444
26338W        W91499   7.236  28.584   1.601
26339W        W91500   9.450  25.372   5.038
26340W        W91501  39.404  26.563   0.156
26341W        W91502   2.881  33.428   1.667
26342W        W91503   0.979  39.971   5.694
26343W        W91504  16.321  43.841   2.352
26344W        W91505  23.216  41.204  14.161
26345W        W91506   7.906  21.272  13.921
26346W        W91507  38.382   9.908  12.052
26347W        W91508  39.302   0.723   4.147
26348W        W91509  34.472   9.662  12.482
26349W        W91510  12.656  17.322   0.747
26350W        W91511  44.801   2.932  11.119
26351W        W91512   5.641  30.202  14.377
26352W        W91513  29.539  36.281   2.273
26353W        W91514  22.476   9.269  13.854
26354W        W91515  11.695  36.063  11.986
26355W        W91516   4.367  13.031  12.442
26356W        W91517  41.735  36.930   1.209
26357W        W91518  41.762  26.636  11.260
26358W        W91519  22.047  37.569   4.328
26359W        W91520  17.027  31.986  11.167
26360W        W91521  14.282  20.047  11.208
26361W        W91522   8.430  11.308   1.360
26362W        W91523  37.547  13.736   1.480
26363W        W91524  14.603  29.650   3.226
26364W        W91525  23.469  28.558   1.787
26365W        W91526  44.961   4.911   2.296
26366W        W91527   5.219   1.797   4.571
26367W        W91528  30.966  17.550   2.788
26368W        W91529   0.432   3.148  12.965
26369W        W91530  37.108  17.147   2.990
26370W        W91531   8.358  18.297  11.901
26371W        W91532  41.312  38.670   3.324
26372W        W91533  37.531  32.473   0.701
26373W        W91534  40.475  13.676  13.490
26374W        W91535  33.039   1.018  13.443
26375W        W91536  38.023  37.301   2.391
26376W        W91537   6.600  23.222   0.551
26377W        W91538  14.668  17.704  14.211
26378W        W91539  30.924  25.569   2.182
26379W        W91540  21.474  10.185   3.729
26380W        W91541  42.740  10.176   3.543
26381W        W91542  12.118   8.914   0.681
26382W        W91543  22.242  36.068   4.191
26383W        W91544  22.048  25.966  14.511
26384W        W91545   0.243  14.558  12.627
26385W        W91546  16.299   3.659   3.576
26386W        W91547  33.200  16.757  14.435
26387W        W91548  39.378  44.763   1.845
26388W        W91549  29.622  28.703  12.486
26389W        W91550  30.534  18.345   2.372
26390W        W91551  27.732  11.940   1.785
26391W        W91552  24.022  31.618  14.006
26392W        W91553  39.468  43.258   0.847
26393W        W91554   2.919  26.437  14.787
26394W        W91555  14.582  33.723  12.320
26395W        W91556   1.840  23.412  14.240
26396W        W91557  19.419  44.674  14.314
26397W        W91558  22.800  38.274  10.266
26398W        W91559  43.853  32.498  12.657
26399W        W91560  27.158   3.883   2.688
26400W        W91561  17.552  29.346   2.640
26401W        W91562  38.477   4.887   9.976
26402W        W91563  32.399  40.869   1.775
26403W        W91564  28.492  17.526   0.050
26404W        W91565  20.088  10.499   3.636
26405W        W91566  30.522  10.833   2.704
26406W        W91567  39.826  16.642  12.471
26407W        W91568   9.664  16.816  10.570
26408W        W91569  32.989  33.440  13.445
26409W        W91570  36.689  35.764  12.050
26410W        W91571  17.373  11.884  12.029
26411W        W91572  31.078  27.417  14.252
26412W        W91573  25.173   9.594  10.290
26413W        W91574  19.268  21.867  11.305
26414W        W91575  39.961  25.263   2.089
26415W        W91576  32.346  28.677   4.293
26416W        W91577  25.197  23.579   2.852
26417W        W91578  17.171  38.447   3.192
26418W        W91579  21.036  44.872  13.096
26419W        W91580   9.743  43.404  12.550
26420W        W91581  33.028  34.693   2.182
26421W        W91582  41.964  33.354  10.308
26422W        W91583  15.985  38.040   1.315
26423W        W91584  41.373  31.179   1.265
26424W        W91585  31.058  37.998   1.989
26425W        W91586   6.506  28.023   3.593
26426W        W91587   3.371  37.863  12.876
26427W        W91588  11.442  23.916  13.361
26428W        W91589   1.698   3.301  13.980
26429W        W91590  44.968  10.539   3.134
26430W        W91591  41.883  41.890  12.094
26431W        W91592  19.409  44.510   0.770
26432W        W91593  36.103  30.479  13.586
26433W        W91594   1.353  36.705  13.214
26434W        W91595   1.018  28.058   2.192
26435W        W91596  22.009  16.393   3.069
26436W        W91597   7.163   9.677   3.723
26437W        W91598  21.100   6.510  13.570
26438W        W91599   6.955  10.852  14.463
26439W        W91600  20.918  17.108  14.587
26440W        W91601  38.143  40.397  11.867
26441W        W91602  33.454  41.594   4.345
26442W        W91603  15.263  20.568   0.494
26443W        W91604  13.652  43.765   4.071
26444W        W91605  21.052   6.983  14.379
26445W        W91606  40.624  28.338   0.804
26446W        W91607   4.425  23.656   5.466
26447W        W91608  21.458  25.539   2.231
26448W        W91609  32.084   2.857   2.231
26449W        W91610  15.583  10.235   0.354
26450W        W91611  22.729  15.129   0.080
26451W        W91612   4.932  29.567   3.788
26452W        W91613  44.080  19.723   0.075
26453W        W91614  37.598   6.418   2.302
26454W        W91615  23.849   6.167   4.169
26455W        W91616  30.105   3.999   1.529
26456W        W91617  21.226  31.402   0.237
26457W        W91618  43.341  15.244  13.126
26458W        W91619  41.528   3.319   2.262
26459W        W91620  32.391  24.354   5.286
26460W        W91621  29.192   1.951   0.434
26461W        W91622  14.217  20.482  11.532
26462W        W91623  22.623  42.437   2.723
26463W        W91624   4.319  23.218   4.747
26464W        W91625  29.489  30.718  13.224
26465W        W91626   9.122   8.768  14.513
26466W        W91627  39.495   5.122  12.010
26467W        W91628  29.389  38.072   5.679
26468W        W91629   4.662  25.659  12.919
26469W        W91630   7.884  25.157  12.122
26470W        W91631  15.069  37.823   2.810
26471W        W91632  13.499  11.142   0.390
26472W        W91633   5.883  39.408   4.182
26473W        W91634  43.054  13.159  12.527
26474W        W91635  44.768   7.267   0.979
26475W        W91636  40.038   1.489   3.615
26476W        W91637  27.206   1.649   3.246
26477W        W91638   5.184   5.759   4.276
26478W        W91639  11.108  41.901  10.643
26479W        W91640  44.796   8.896  13.941
26480W        W91641  14.860   0.197  12.859
26481W        W91642  33.967  39.563  13.908
26482W        W91643  12.899  19.125   2.255
26483W        W91644   4.139  43.458  11.474
26484W        W91645  19.321  44.449  13.028
26485W        W91646   4.267   9.032   0.475
26486W        W91647  32.183  27.943  14.975
26487W        W91648  28.953  37.128  10.652
26488W        W91649  40.025  18.875   3.803
26489W        W91650  30.106  21.236   0.300
26490W        W91651  37.940  25.829   3.286
26491W        W91652   5.770  41.562  13.548
26492W        W91653  14.092  28.132   4.621
26493W        W91654  11.426   2.391  13.527
26494W        W91655  31.210  40.345   0.265
26495W        W91656  32.464  23.959   2.097
26496W        W91657  22.188  27.170   0.316
26497W        W91658   1.019  23.107  14.337
26498W        W91659  30.723  31.409   0.950
26499W        W91660  23.132  41.494  14.960
26500W        W91661   6.304  27.279   2.888
26501W        W91662  28.997  29.182   4.425
26502W        W91663  12.510  10.096   4.072
26503W        W91664  15.288  16.310  10.349
26504W        W91665   3.249  36.027   1.316
26505W        W91666   8.415  22.101   0.354
26506W        W91667  37.493  35.369  14.271
26507W        W91668  31.130  40.534   4.186
26508W        W91669  20.962  25.989  12.068
26509W        W91670  10.804   2.654   4.488
26510W        W91671  42.404   9.852  14.507
26511W        W91672  43.502   7.278  13.524
26512W        W91673  39.296   1.388  12.440
26513W        W91674  31.004  20.595  13.568
26514W        W91675  27.341  31.918   1.774
26515W        W91676  40.493  14.036   4.652
26516W        W91677   3.329  35.064  13.445
26517W        W91678  24.938  28.120  13.471
26518W        W91679  26.058  40.027   5.056
26519W        W91680  26.517  10.318   2.275
26520W        W91681  27.691  13.256   1.932
26521W        W91682  20.533  40.064   2.855
26522W        W91683  21.053   9.366  14.758
26523W        W91684   6.047  15.533  13.407
26524W        W91685  27.975   3.979  11.102
26525W        W91686  33.556  11.165  14.679
26526W        W91687  40.425  20.605  12.029
26527W        W91688  42.883  24.139   2.517
26528W        W91689   0.283   6.405   0.940
26529W        W91690  20.642  31.967  14.868
26530W        W91691  31.963  32.453   3.551
26531W        W91692  23.631   1.400   4.161
26532W        W91693   1.702   2.319  13.063
26533W        W91694   0.383  19.014  11.798
26534W        W91695  21.308  32.576   4.738
26535W        W91696  43.694  23.449  13.821
26536W        W91697  37.214  22.069   2.212
26537W        W91698   1.972  37.321   4.110
26538W        W91699  20.171  44.594  13.374
26539W        W91700  33.888  35.727  13.556
26540W        W91701  33.092   2.715   1.941
26541W        W91702  28.723  43.779   0.355
26542W        W91703  25.277  29.743  10.821
26543W        W91704  37.458  38.499   3.948
26544W        W91705  34.977  13.440   1.428
26545W        W91706  43.727  42.903  13.542
26546W        W91707  43.372  30.538  11.562
26547W        W91708   2.516  28.565   1.304
26548W        W91709  11.227   9.896   1.262
26549W        W91710  19.102  17.703   3.314
26550W        W91711  30.078  41.956  14.714
26551W        W91712  36.605  40.852   2.888
26552W        W91713  33.353  38.406  12.920
26553W        W91714  25.256  23.948   4.501
26554W        W91715  15.168  14.051  14.905
26555W        W91716  38.578  19.515  12.975
26556W        W91717  24.649  29.326  12.519
26557W        W91718  15.013  27.310   4.204
26558W        W91719   4.652  37.359   3.240
26559W        W91720  23.433  22.470   1.791
26560W        W91721   9.214  32.973   0.171
26561W        W91722  25.618  23.641  12.318
26562W        W91723  23.342  15.661   0.829
26563W        W91724  42.934   0.831  14.479
26564W        W91725  31.582  43.278  14.199
26565W        W91726  10.298  40.815   0.948
26566W        W91727   9.195   7.634  13.565
26567W        W91728   0.844  30.588  12.425
26568W        W91729  34.926  39.465   0.419
26569W        W91730  12.693  32.748  11.127
26570W        W91731   6.337  43.881  14.156
26571W        W91732   8.140  42.886  13.058
26572W        W91733   4.315  29.003  13.113
26573W        W91734  15.119   9.763  13.051
26574W        W91735  23.254  22.394  12.010
26575W        W91736  18.836  25.498  13.417
26576W        W91737   7.027   9.821   3.231
26577W        W91738  38.051  19.679   4.118
26578W        W91739  34.773  37.996   2.682
26579W        W91740   2.817   1.909  12.582
26580W        W91741  21.093  16.344   0.820
26581W        W91742  27.725  44.343   4.699
26582W        W91743  16.252  29.176   0.819
26583W        W91744  31.596   6.287   1.235
26584W        W91745  22.069  20.564   3.252
26585W        W91746  35.837  34.051   4.182
26586W        W91747  22.749  10.540   4.328
26587W        W91748   3.154  21.173  13.878
26588W        W91749   2.419  22.307   4.551
26589W        W91750  29.469  14.593  11.577
26590W        W91751   6.358   1.868   3.630
26591W        W91752   5.705  26.339  13.401
26592W        W91753  18.730   7.395  13.330
26593W        W91754   4.314  22.858  12.240
26594W        W91755  10.671  41.671   0.971
26595W        W91756  40.600  24.393  11.629
26596W        W91757  27.606  24.984  14.799
26597W        W91758  18.270  34.667   2.825
26598W        W91759  26.695  35.127   3.679
26599W        W91760  20.387  10.120  11.883
26600W        W91761  31.238  33.948   1.586
26601W        W91762  33.096  26.180  14.472
26602W        W91763  41.470  38.417  13.504
26603W        W91764   1.723  44.313   4.343
26604W        W91765  42.268   7.875  13.481
26605W        W91766   7.197  40.846   1.428
26606W        W91767  10.425  38.697   0.150
26607W        W91768  27.338  40.371  10.358
26608W        W91769  29.738  30.701   2.747
26609W        W91770  36.091  15.491   4.131
26610W        W91771  20.964  11.810   2.433
26611W        W91772  11.248  11.242   0.786
26612W        W91773  10.761  43.238   0.976
26613W        W91774  20.192  41.271   4.976
26614W        W91775   8.607  39.951  12.819
26615W        W91776  20.773  24.718   1.954
26616W        W91777  23.071  39.945  13.643
26617W        W91778  24.184  33.967   2.816
26618W        W91779  40.782  24.687  14.832
26619W        W91780   5.756   5.145  11.624
26620W        W91781  11.607  30.146  10.519
26621W        W91782  44.354   5.509  13.554
26622W        W91783  10.370  39.503   0.391
26623W        W91784  15.272  42.105   1.464
26624W        W91785  14.076   5.295   1.851
26625W        W91786  29.922  42.990   1.385
26626W        W91787  28.999   2.389  11.675
26627W        W91788  38.532  34.364   3.800
26628W        W91789  39.922  34.910   1.711
26629W        W91790  20.813  23.187   5.054
26630W        W91791  20.641  36.919   0.357
26631W        W91792   3.926  43.909   0.416
26632W        W91793  41.400  13.814  13.365
26633W        W91794  33.048  34.334  11.934
26634W        W91795  16.861   7.217   9.927
26635W        W91796  10.707  10.903  12.480
26636W        W91797   7.872  11.108   4.116
26637W        W91798  35.477  15.802  12.318
26638W        W91799  19.694  34.332  13.811
26639W        W91800  32.169  11.938  11.792
26640W        W91801  26.428  18.185  14.730
26641W        W91802   2.533   2.853  13.536
26642W        W91803  36.839   7.278  13.592
26643W        W91804  18.321  22.461   1.411
26644W        W91805  26.280  25.278   0.256
26645W        W91806  29.584  37.891  14.413
26646W        W91807  38.357  15.034  12.951
26647W        W91808  21.981  44.402   3.292
26648W        W91809  27.205   1.456  14.487
26649W        W91810  21.609  35.852   0.450
26650W        W91811  36.539  29.440  14.760
26651W        W91812  44.294  37.517   1.780
26652W        W91813  34.660   5.141  14.419
26653W        W91814  12.578  25.397  11.254
26654W        W91815   5.340  15.366  14.791
26655W        W91816  44.466   5.527  12.576
26656W        W91817  24.356  33.202  14.438
26657W        W91818   7.781  42.786  14.317
26658W        W91819  36.455  42.120   0.762
26659W        W91820  29.982  10.513   2.010
26660W        W91821  15.656   0.793  13.162
26661W        W91822   5.962  37.245  10.832
26662W        W91823  27.226  25.064   0.593
26663W        W91824  42.993   0.780   0.805
26664W        W91825   9.801  11.196  11.885
26665W        W91826   6.781  18.638   1.641
26666W        W91827  32.554  25.005  12.637
26667W        W91828  41.843  36.616  13.173
26668W        W91829  26.768  14.126  12.898
26669W        W91830  44.794  24.673   0.447
26670W        W91831  29.795   8.806   2.661
26671W        W91832  31.942  42.639   4.192
26672W        W91833  37.814  12.450   3.493
26673W        W91834   7.969   1.942   0.291
26674W        W91835  42.783  30.174  14.399
26675W        W91836  20.484  12.894   1.204
26676W        W91837  19.121  42.960  11.657
26677W        W91838  40.545  40.825   2.659
26678W        W91839   3.372  10.475  13.235
26679W        W91840  23.021   3.458   0.986
26680W        W91841  21.589  18.024   0.865
26681W        W91842  36.687  33.187  13.363
26682W        W91843   7.104  22.086   1.252
26683W        W91844   8.458  36.920   0.443
26684W        W91845  29.826   0.634   9.644
26685W        W91846  40.796  40.773  12.363
26686W        W91847  31.331   3.392   0.300
26687W        W91848  44.001   0.568   3.168
26688W        W91849  18.624  37.456  12.158
26689W        W91850  13.864  28.386   1.266
26690W        W91851  20.687  40.901   0.721
26691W        W91852  44.817  40.256  12.299
26692W        W91853  33.485  41.285  10.217
26693W        W91854  44.824  34.356  12.582
26694W        W91855  16.862   2.816  13.368
26695W        W91856  10.839  16.707  13.603
26696W        W91857  33.705  14.914  13.166
26697W        W91858  38.584  23.884  11.649
26698W        W91859  17.877  26.720   2.817
26699W        W91860  29.646   6.520   4.177
26700W        W91861   8.051  23.065   1.777
26701W        W91862  42.833  24.619   3.797
26702W        W91863  15.072  17.172   0.417
26703W        W91864  43.333  21.681   3.714
26704W        W91865  20.699  16.776  12.856
26705W        W91866  25.991   4.073   3.738
26706W        W91867  30.990  22.315   3.184
26707W        W91868  15.345  28.121  10.675
26708W        W91869  14.984  34.583   4.149
26709W        W91870  11.149  15.498   1.180
26710W        W91871  16.463  42.360   3.703
26711W        W91872  26.723   4.998   2.315
26712W        W91873   5.770  22.131  10.746
26713W        W91874  34.842   6.813  11.682
26714W        W91875  40.080  22.536  10.684
26715W        W91876   1.210  25.264   0.987
26716W        W91877  25.095   0.820  12.596
26717W        W91878  18.054  21.488  11.924
26718W        W91879   8.003  43.481   2.028
26719W        W91880  42.661   3.198   0.403
26720W        W91881  25.193  40.076  10.557
26721W        W91882  44.441   6.256   4.942
26722W        W91883  24.673   9.914  11.189
26723W        W91884  38.718  21.750  12.548
26724W        W91885  18.697   4.979   0.764
26725W        W91886  30.446  44.408   4.588
26726W        W91887  35.283  16.738   2.916
26727W        W91888   0.422  25.086   5.013
26728W        W91889   3.182  20.119  14.943
26729W        W91890  27.927  14.422   1.413
26730W        W91891  37.086  23.547  13.952
26731W        W91892   6.242  35.998  12.913
26732W        W91893  10.823   7.540   3.574
26733W        W91894   4.572  33.164   1.464
26734W        W91895  11.921   4.736   1.759
26735W        W91896  30.494  24.113  12.448
26736W        W91897  16.332  40.057  14.348
26737W        W91898  31.974   9.158  12.473
26738W        W91899  44.852   9.117  13.479
26739W        W91900  10.762  30.150  13.966
26740W        W91901  33.846  34.387  14.342
26741W        W91902  16.181  26.012  13.835
26742W        W91903   2.658  18.029  11.168
26743W        W91904  17.591  42.600  10.163
26744W        W91905   0.183  38.716   4.043
26745W        W91906  36.383  12.782   3.995
26746W        W91907   8.617  30.745  11.989
26747W        W91908  43.911  14.548  11.587
26748W        W91909  10.277  11.117  13.791
26749W        W91910  16.182  35.510   3.530
26750W        W91911  15.981  39.505   2.266
26751W        W91912  10.399  29.226  10.857
26752W        W91913  40.952  12.406   3.491
26753W        W91914   8.769  31.118  11.056
26754W        W91915  11.400   2.790  11.009
26755W        W91916  15.330  21.065  10.392
26756W        W91917   5.884  14.734  14.339
26757W        W91918  20.802  24.178  12.115
26758W        W91919   5.347  11.923  10.662
26759W        W91920  44.797  39.460   2.747
26760W        W91921  11.659  12.233   3.833
26761W        W91922  30.821  11.729  11.900
26762W        W91923  13.387  34.585   2.238
26763W        W91924   0.761  27.677  12.555
26764W        W91925   3.159  31.499   3.693
26765W        W91926   7.580  29.949  11.611
26766W        W91927  41.338   0.855   1.655
26767W        W91928  19.278  10.559   1.811
26768W        W91929  42.391   8.621  13.881
26769W        W91930  36.111  43.279   3.087
26770W        W91931  14.165  29.603   4.557
26771W        W91932   3.539   2.981  14.948
26772W        W91933  34.343   5.696  12.940
26773W        W91934  28.917  17.730  14.811
26774W        W91935  23.645  10.700   4.144
26775W        W91936  31.484  12.309   4.490
26776W        W91937   0.374  19.749   3.716
26777W        W91938  41.255  44.797  12.026
26778W        W91939   7.752  44.510  13.707
26779W        W91940   2.549   8.802   4.577
26780W        W91941  10.308  33.994   1.795
26781W        W91942  24.843   4.755  13.547
26782W        W91943  39.820  14.922   2.259
26783W        W91944  39.103  12.799   3.761
26784W        W91945  43.151   7.117   3.269
26785W        W91946  36.018  33.496   2.942
26786W        W91947   8.221  11.166   2.641
26787W        W91948  21.612  35.311   4.174
26788W        W91949  13.260  25.926  11.063
26789W        W91950  12.178  15.049   0.042
26790W        W91951  37.042  41.272  11.182
26791W        W91952  24.068  36.393  10.438
26792W        W91953   7.777  32.141  10.999
26793W        W91954   8.991  41.744   3.727
26794W        W91955   9.383  28.672  13.356
26795W        W91956  43.819  43.167   3.722
26796W        W91957  26.934   2.970  11.612
26797W        W91958  14.273   0.298   3.731
26798W        W91959  10.727  43.499   4.678
26799W        W91960  34.342  21.289  13.846
26800W        W91961  18.543  11.637  13.828
26801W        W91962  20.765  33.814   2.940
26802W        W91963  42.098  18.691   1.972
26803W        W91964  31.954  40.886  10.772
26804W        W91965  11.141  25.580   4.349
26805W        W91966  35.825   3.488   0.247
26806W        W91967  38.028  29.048  13.873
26807W        W91968  18.193  34.187  10.799
26808W        W91969   8.000  22.784  14.271
26809W        W91970  15.278  44.741   4.264
26810W        W91971   9.849  25.632   1.931
26811W        W91972  34.630  28.475  11.519
26812W        W91973  14.286  31.284   0.460
26813W        W91974  30.837   8.870   1.846
26814W        W91975  37.492   2.859   4.601
26815W        W91976  38.457  19.369   0.942
26816W        W91977  21.034  22.213   5.387
26817W        W91978  19.721   9.305  12.137
26818W        W91979  43.987  21.666  11.374
26819W        W91980  34.568  34.391   0.686
26820W        W91981  31.068  11.161  12.946
26821W        W91982  17.131   5.626  13.528
26822W        W91983  40.099  14.754  11.596
26823W        W91984  12.119  22.122   3.241
26824W        W91985  12.362  11.828  13.909
26825W        W91986  13.709  23.808  11.101
26826W        W91987   9.264  14.759   3.248
26827W        W91988  38.486  22.716  14.196
26828W        W91989  20.608   9.153  12.355
26829W        W91990  15.323  22.578   4.598
26830W        W91991   1.668  37.413  14.337
26831W        W91992  34.143  32.526  14.622
26832W        W91993  21.094  29.105  10.467
26833W        W91994  13.597  14.316  11.924
26834W        W91995  13.119  29.209   3.654
26835W        W91996  39.587  26.590   2.346
26836W        W91997   5.708  24.561   2.151
26837W        W91998  41.799  34.049  11.484
26838W        W91999  34.211   4.428   0.335
26839W        W92000  39.045  27.209  13.399
26840W        W92001  25.385  15.795  13.598
26841W        W92002  23.701  15.924  14.329
26842W        W92003  30.700  13.816   1.676
26843W        W92004  33.891  28.138   3.468
26844W        W92005  12.888  18.823   1.829
26845W        W92006  43.832  38.624   2.297
26846W        W92007  29.034   0.943   1.329
26847W        W92008  28.637  38.670  14.319
26848W        W92009  35.851  16.650  13.885
26849W        W92010   3.230  30.904  14.334
26850W        W92011  35.223  18.607  11.866
26851W        W92012   8.395   9.711  12.914
26852W        W92013  20.835   6.854  13.933
26853W        W92014   7.185  18.854  10.733
26854W        W92015  37.078  38.658  11.183
26855W        W92016  21.721  21.995   2.171
26856W        W92017  43.274  42.908   4.873
26857W        W92018   1.330  21.810  11.439
26858W        W92019  18.090  34.693  12.059
26859W        W92020   3.368  40.104   0.410
26860W        W92021  43.757  13.535   2.489
26861W        W92022   5.818  25.144  10.088
26862W        W92023   0.747  26.072  14.824
26863W        W92024   8.812  23.773  12.656
26864W        W92025  42.885  27.187   0.328
26865W        W92026  17.832  29.201   1.314
26866W        W92027   0.960  22.956  13.809
26867W        W92028   0.676  42.727  11.014
26868W        W92029  11.742  28.000  13.055
26869W        W92030  21.636  18.439   3.712
26870W        W92031  34.121   4.407  11.919
26871W        W92032  32.435  38.026   1.503
26872W        W92033  32.831  32.893   4.062
26873W        W92034  19.818  11.885  11.140
26874W        W92035  31.575   7.481   3.946
26875W        W92036  36.443   5.668   1.314
26876W        W92037   2.973  38.271   4.634
26877W        W92038   9.920  17.566   3.537
26878W        W92039   4.455  19.152   1.980
26879W        W92040  35.311  30.706  12.350
26880W        W92041  40.252  26.575   3.749
26881W        W92042  44.479  38.221   1.053
26882W        W92043  11.193  29.708   1.738
26883W        W92044  21.052   1.138  11.967
26884W        W92045  28.175  23.736   9.824
26885W        W92046  11.260  25.994  12.497
26886W        W92047  28.034  19.118   0.817
26887W        W92048  20.998   0.733  10.670
26888W        W92049  12.616  14.287  12.564
26889W        W92050  11.518  36.065  10.161
26890W        W92051   8.135  34.182  14.830
26891W        W92052  41.603  17.537  14.318
26892W        W92053   2.241  17.865   0.202
26893W        W92054   7.832  41.337  11.020
26894W        W92055  39.751  29.086   2.047
26895W        W92056  39.624  27.064   2.543
26896W        W92057   6.640   9.185  13.861
26897W        W92058  30.539   8.437   3.832
26898W        W92059  17.333  28.352   3.290
26899W        W92060  12.303  13.676  14.427
26900W        W92061   4.501  41.040   2.129
26901W        W92062  32.369  12.453  12.490
26902W        W92063  43.066   4.243   4.319
26903W        W92064  35.490  27.438  11.150
26904W        W92065  15.840   9.398  11.542
26905W        W92066  34.623   6.294   1.197
26906W        W92067  32.847   9.778   2.367
26907W        W92068  17.313  27.400  12.040
26908W        W92069  24.570  33.152  11.586
26909W        W92070  27.197   3.000   4.597
26910W        W92071  26.947  33.931   0.693
26911W        W92072  36.042  28.426   3.764
26912W        W92073   8.645  43.315  11.835
26913W        W92074  40.011  32.470   5.021
26914W        W92075  39.192  39.134  13.479
26915W        W92076   4.843  14.526  11.151
26916W        W92077  32.008  24.632   3.663
26917W        W92078  44.461  15.205   4.148
26918W        W92079  27.485  19.680  13.237
26919W        W92080   7.218  27.725   3.087
26920W        W92081  12.725   4.466   2.479
26921W        W92082  30.369  31.824   0.988
26922W        W92083  38.361  39.415  10.674
26923W        W92084  23.591  43.022  11.505
26924W        W92085   1.754  26.098  13.586
26925W        W92086  33.457  35.869  14.800
26926W        W92087  18.029  33.654   3.820
26927W        W92088  13.598  20.730  13.994
26928W        W92089  26.592   3.717  11.979
26929W        W92090  14.322  44.773  10.538
26930W        W92091   0.442  13.216  13.021
26931W        W92092  28.520  13.569  12.154
26932W        W92093  32.055  16.586   3.777
26933W        W92094  15.756  38.427   2.831
26934W        W92095  14.615   1.895  11.536
26935W        W92096  35.798  11.318  14.313
26936W        W92097  33.153   9.458  13.356
26937W        W92098  35.277  35.882  13.093
26938W        W92099   5.559  14.900  13.915
26939W        W92100  20.709  22.617  14.362
26940W        W92101  19.082   5.071  11.549
26941W        W92102  21.297  16.209   1.316
26942W        W92103  15.728  43.518   0.472
26943W        W92104  34.057   7.193  11.522
26944W        W92105  30.691  18.734  11.152
26945W        W92106   4.494  31.054  10.708
26946W        W92107  29.674  13.247  13.943
26947W        W92108  37.514  39.609  12.336
26948W        W92109   8.249  21.230  11.630
26949W        W92110  28.670  26.036   3.657
26950W        W92111  35.443  19.812   2.189
26951W        W92112  34.340  24.186   2.815
26952W        W92113  30.336  37.084  13.483
26953W        W92114   5.371  42.774   3.878
26954W        W92115  30.371  38.223   0.753
26955W        W92116  43.317   1.698   3.853
26956W        W92117  33.443   6.852   0.377
26957W        W92118  41.550  34.635   2.215
26958W        W92119  28.606   0.522   1.877
26959W        W92120  42.399   1.260  14.855
26960W        W92121  38.486  37.396  12.418
26961W        W92122   7.950   7.746  13.405
26962W        W92123  16.788  12.616   0.833
26963W        W92124   8.280  27.196  11.532
26964W        W92125  24.675  10.669   0.250
26965W        W92126  42.988   4.644  10.730
26966W        W92127  41.817  22.258   2.634
26967W        W92128  18.187  25.932   4.328
26968W        W92129  41.417  15.072  13.985
26969W        W92130  32.364  22.885   2.500
26970W        W92131  28.847  12.505   5.494
26971W        W92132  30.709  40.314  13.447
26972W        W92133  23.218  36.996   4.220
26973W        W92134   8.107  38.952   2.695
26974W        W92135  30.684  13.826  11.858
26975W        W92136  12.654  15.406   4.004
26976W        W92137   7.710  10.667  14.088
26977W        W92138  17.314   8.398   3.636
26978W        W92139   7.230  13.810  11.559
26979W        W92140  32.610  14.393  13.397
26980W        W92141  37.594  44.002   3.136
26981W        W92142  32.698  19.976   2.652
26982W        W92143  35.608  13.265   3.629
26983W        W92144  28.351  17.581   4.187
26984W        W92145   6.290  34.607   1.678
26985W        W92146   3.599  33.812   4.363
26986W        W92147  22.753  44.418  13.983
26987W        W92148  41.027  26.868  14.747
26988W        W92149   3.784  25.739  14.446
26989W        W92150   6.692  11.702   4.680
26990W        W92151   4.760   8.938   0.302
26991W        W92152  19.862  31.210  11.360
26992W        W92153  20.269  14.097   3.742
26993W        W92154  40.396   7.731   1.642
26994W        W92155  15.177  32.467   1.435
26995W        W92156  43.433  34.792  10.777
26996W        W92157  21.201  19.323   1.726
26997W        W92158  40.396  26.449  11.478
26998W        W92159  13.008  31.633   1.125
26999W        W92160  20.463  20.140   0.388
27000W        W92161  36.679  39.177  11.996
27001W        W92162  28.552  15.124   0.522
27002W        W92163  26.753  17.486   3.124
27003W        W92164  20.064   4.741  13.871
27004W        W92165  37.444  10.704  12.964
27005W        W92166  10.622   2.223   0.283
27006W        W92167   1.693  37.493  13.839
27007W        W92168   7.164  40.424   2.607
27008W        W92169  21.536  18.167  13.076
27009W        W92170   5.484  10.517  13.299
27010W        W92171  34.895  18.168  10.704
27011W        W92172  36.601  42.429   5.075
27012W        W92173   1.495  22.957  14.517
27013W        W92174   8.020  44.093  10.460
27014W        W92175  18.548   3.690  12.765
27015W        W92176  11.428  12.775   3.771
27016W        W92177  33.813   3.976  10.818
27017W        W92178  40.059  16.071  13.482
27018W        W92179  21.168   4.391   0.879
27019W        W92180  32.645  31.112  12.067
27020W        W92181  15.483  24.084  10.087
27021W        W92182   3.957   7.908   0.025
27022W        W92183  15.571  20.062   0.496
27023W        W92184   9.204  33.942  12.968
27024W        W92185  36.114   3.082   0.396
27025W        W92186   4.278   7.830   2.283
27026W        W92187  32.273  29.613  14.363
27027W        W92188  19.481  22.305  11.184
27028W        W92189  28.510  37.522  11.576
27029W        W92190  19.595  14.661   1.513
27030W        W92191  20.848   7.260   0.241
27031W        W92192   0.507   0.332   0.804
27032W        W92193  30.373  13.767  13.507
27033W        W92194  38.872  29.720  13.422
27034W        W92195   2.025  23.169  13.820
27035W        W92196  33.043  40.737  12.683
27036W        W92197  18.525   9.479  11.210
27037W        W92198  14.887  28.004  10.425
27038W        W92199  25.323  26.427   2.670
27039W        W92200  12.299   7.943  12.876
27040W        W92201  30.506  41.720  13.444
27041W        W92202  33.567   9.992  14.812
27042W        W92203  43.323   0.028  12.977
27043W        W92204  37.555  13.624  11.328
27044W        W92205  25.163  35.999   3.178
27045W        W92206  26.615   0.379  13.579
27046W        W92207  21.026   1.771   9.999
27047W        W92208  11.435  37.924   3.898
27048W        W92209  24.891  13.777  12.994
27049W        W92210   2.491  26.694  12.959
27050W        W92211  35.375  24.483  11.489
27051W        W92212  10.314  41.862   3.102
27052W        W92213  29.335  20.054  14.312
27053W        W92214   7.426  19.675   0.819
27054W        W92215  11.019  14.960   1.076
27055W        W92216  25.047  23.419  14.035
27056W        W92217  13.529  36.285  10.681
27057W        W92218  25.836   9.305   5.394
27058W        W92219   1.172  19.313   0.812
27059W        W92220  43.298  18.262   3.372
27060W        W92221  22.795  31.740  12.375
27061W        W92222   5.224   8.752  12.535
27062W        W92223  30.053   8.732  12.435
27063W        W92224  40.099  10.360  14.908
27064W        W92225  32.468   5.384  10.832
27065W        W92226  18.014   6.426   2.327
27066W        W92227  19.606   6.699   4.047
27067W        W92228  35.390  11.236  14.599
27068W        W92229  39.374  15.223  13.082
27069W        W92230  31.922  34.011  12.953
27070W        W92231  44.886  28.917  14.822
27071W        W92232  43.972  29.584   3.127
27072W        W92233   9.201  20.121   2.636
27073W        W92234  39.111   4.274   2.426
27074W        W92235   6.328  36.074  11.485
27075W        W92236  10.388   6.956   3.113
27076W        W92237  40.098   4.171   3.027
27077W        W92238   1.054  35.544   4.535
27078W        W92239  30.280  32.588   3.465
27079W        W92240   8.024   3.923   0.623
27080W        W92241  16.745   8.337  14.933
27081W        W92242  23.788  19.276   1.399
27082W        W92243  22.313  29.312   2.357
27083W        W92244  43.884  41.223  12.932
27084W        W92245  14.393  28.223   0.920
27085W        W92246   8.653  18.140   3.684
27086W        W92247   6.057   6.413  14.752
27087W        W92248  37.233  33.592  12.533
27088W        W92249  10.769  42.472  11.185
27089W        W92250  25.008   0.948  14.902
27090W        W92251   5.421  33.278   9.578
27091W        W92252   3.430  28.960  11.649
27092W        W92253  42.554  17.539   0.405
27093W        W92254   5.981  40.523  11.204
27094W        W92255  26.078  38.841   2.995
27095W        W92256  18.059  37.855  11.686
27096W        W92257  41.543   2.665   3.641
27097W        W92258  23.932  23.610  14.391
27098W        W92259   4.965   5.312   1.780
27099W        W92260  23.472   6.383   0.804
27100W        W92261   8.680   5.830  10.793
27101W        W92262  11.948  41.776  13.532
27102W        W92263   3.815  24.168   2.627
27103W        W92264  16.169   3.730   3.038
27104W        W92265  40.926  44.368  11.957
27105W        W92266  31.686  14.794   0.290
27106W        W92267  32.553  24.507  14.761
27107W        W92268  34.895  26.182   2.196
27108W        W92269  34.888   6.407  12.532
27109W        W92270  37.113  42.219   0.233
27110W        W92271  28.108  29.206  10.123
27111W        W92272  16.006  27.147   0.705
27112W        W92273  40.756  37.971  13.366
27113W        W92274  29.737  31.796   4.167
27114W        W92275  33.418  28.791   1.886
27115W        W92276   1.796  25.718   2.162
27116W        W92277   9.818  27.062   3.884
27117W        W92278  32.124  44.370   1.945
27118W        W92279   1.477  26.737   3.655
27119W        W92280  41.510   3.715  11.413
27120W        W92281  24.796  23.138   1.753
27121W        W92282  30.532  17.923  14.495
27122W        W92283  31.485  19.191   0.361
27123W        W92284  36.867  34.338  11.139
27124W        W92285  21.611  13.082   3.743
27125W        W92286  40.902  26.992   2.555
27126W        W92287  42.100  10.771  14.981
27127W        W92288  43.575   4.245   1.810
27128W        W92289  36.387  20.985  11.678
27129W        W92290  21.231  19.387   2.832
27130W        W92291  24.940   7.708  11.212
27131W        W92292   3.236  11.945  13.789
27132W        W92293  23.996  12.626  14.858
27133W        W92294  30.976  31.556   3.232
27134W        W92295  36.515   7.088   4.103
27135W        W92296  30.162  26.647   3.222
27136W        W92297  40.345  21.085  11.152
27137W        W92298   8.843  23.101  14.316
27138W        W92299  17.272  31.456  11.186
27139W        W92300  44.266  25.652  14.878
27140W        W92301  39.033  29.932  11.698
27141W        W92302  30.278  16.414   3.284
27142W        W92303  10.307  24.514  13.210
27143W        W92304  28.871  12.979   0.230
27144W        W92305   6.149  15.951   3.841
27145W        W92306  26.922   9.372  11.095
27146W        W92307  41.495  20.167   4.278
27147W        W92308  31.904  24.853   0.714
27148W        W92309  40.080  33.098   2.160
27149W        W92310  39.474  20.973   4.207
27150W        W92311   5.948  41.910   3.674
27151W        W92312  42.223   7.103   2.514
27152W        W92313  24.594   1.984  13.349
27153W        W92314   2.520  39.891  10.278
27154W        W92315  17.067  17.263   9.746
27155W        W92316  12.145  14.141   1.456
27156W        W92317  42.285  29.946  11.261
27157W        W92318  36.056  29.503   4.627
27158W        W92319  42.779  38.088  11.180
27159W        W92320  20.765   1.715  10.909
27160W        W92321   5.676  12.536  13.358
27161W        W92322   8.171   8.276   2.722
27162W        W92323   2.288   6.642   2.081
27163W        W92324  20.648   4.994   9.811
27164W        W92325   5.216  28.374  14.047
27165W        W92326  42.577   8.814   3.274
27166W        W92327  16.149  11.321   4.803
27167W        W92328   6.377  25.262   1.634
27168W        W92329  15.023  30.351   3.713
27169W        W92330  13.137  42.676  13.121
27170W        W92331  22.362  19.090   0.773
27171W        W92332   8.857   0.862   0.032
27172W        W92333   2.271  34.008   1.804
27173W        W92334  19.738  37.325  13.354
27174W        W92335  15.123  21.789  11.024
27175W        W92336  25.163  27.651  12.009
27176W        W92337  10.372  35.802  11.195
27177W        W92338  40.471  23.322   5.038
27178W        W92339  25.753  29.629  12.804
27179W        W92340  23.531  23.775   1.623
27180W        W92341  42.019  24.792  12.934
27181W        W92342  11.421  32.947  14.302
27182W        W92343   0.860   2.472   3.686
27183W        W92344   7.175  19.417   0.429
27184W        W92345  42.525  15.316   1.139
27185W        W92346   2.226  36.119  14.765
27186W        W92347  22.243  44.801  11.853
27187W        W92348  28.068  33.005  12.981
27188W        W92349  40.955  11.375  13.516
27189W        W92350   9.772  44.249  13.741
27190W        W92351   6.803   2.215  14.539
27191W        W92352  39.926  36.081   2.114
27192W        W92353   6.856  24.002  11.541
27193W        W92354  26.756  13.635   3.808
27194W        W92355   3.003   8.843   4.886
27195W        W92356  22.145   2.360  13.746
27196W        W92357   7.902  20.583  10.633
27197W        W92358   6.231   9.650  14.363
27198W        W92359   8.151  23.807   0.802
27199W        W92360  33.613  39.911   3.265
27200W        W92361  40.426   3.320   2.425
27201W        W92362  17.100  10.669   2.458
27202W        W92363  11.559  13.865   4.731
27203W        W92364  40.374  41.831   3.546
27204W        W92365  37.346  12.808  11.058
27205W        W92366  38.611  24.540   1.692
27206W        W92367  21.223  30.741   5.103
27207W        W92368   5.345  41.891  11.837
27208W        W92369  17.706  22.609   4.398
27209W        W92370  33.661  10.864   3.147
27210W        W92371  41.097  12.274   2.242
27211W        W92372  18.915  11.864   4.088
27212W        W92373  24.659  25.066  12.499
27213W        W92374   1.686   0.009   1.872
27214W        W92375   1.325  34.129  10.740
27215W        W92376  29.503   2.805   3.959
27216W        W92377   5.525  34.989  12.103
27217W        W92378  40.392  24.794   0.747
27218W        W92379  10.827   5.755  13.828
27219W        W92380  18.937  21.696  13.098
27220W        W92381  19.141  10.336   1.350
27221W        W92382   3.768  27.029  11.572
27222W        W92383  44.566  35.161   0.819
27223W        W92384  28.460  44.074  11.136
27224W        W92385  31.655   2.253   4.651
27225W        W92386   1.610  41.870  13.791
27226W        W92387  25.113   9.167  10.011
27227W        W92388  32.837  24.191   2.391
27228W        W92389  12.658  17.346  11.073
27229W        W92390  20.623  14.361   3.419
27230W        W92391  30.924   9.322   0.624
27231W        W92392  23.482  21.635   2.820
27232W        W92393  42.423  24.041   0.317
27233W        W92394  40.868  39.937  14.759
27234W        W92395  13.928  28.903   1.380
27235W        W92396  16.450  11.849  13.781
27236W        W92397  16.135  14.795  12.178
27237W        W92398   2.992  20.256   2.111
27238W        W92399   5.575  14.562   2.803
27239W        W92400  33.433   2.899  11.403
27240W        W92401  37.469  22.683  11.224
27241W        W92402  17.019  29.681   3.664
27242W        W92403   4.912   8.384   2.846
27243W        W92404   6.918  35.558  11.803
27244W        W92405  43.319  40.144  13.466
27245W        W92406  33.002  18.027  12.029
27246W        W92407   3.658   7.234  12.132
27247W        W92408   6.752  10.765   3.478
27248W        W92409  15.738   9.771  10.846
27249W        W92410  37.835  23.069   2.686
27250W        W92411  33.512  20.631   1.379
27251W        W92412  16.086   3.723   4.042
27252W        W92413  41.099  40.083  12.948
27253W        W92414  16.165  34.341  12.892
27254W        W92415  38.880  43.255  14.971
27255W        W92416   7.678  15.700   4.600
27256W        W92417   1.432   0.997   1.760
27257W        W92418  22.519   9.741  10.974
27258W        W92419  39.579  14.773  11.547
27259W        W92420  41.751  23.125   1.245
27260W        W92421  12.650   5.959  12.530
27261W        W92422  37.154  38.736   4.523
27262W        W92423  20.576  27.821  10.805
27263W        W92424  23.499  41.115  14.959
27264W        W92425  35.571   6.554   0.344
27265W        W92426  25.020  35.409   0.879
27266W        W92427  15.791   2.376   4.622
27267W        W92428  10.665  18.853  14.352
27268W        W92429  10.187  17.327   1.249
27269W        W92430  34.842  16.171  10.662
27270W        W92431   5.839  13.799   4.430
27271W        W92432  35.027  30.032  13.789
27272W        W92433  40.577  18.135  13.934
27273W        W92434  23.551  30.123  13.528
27274W        W92435  34.236  28.386   5.151
27275W        W92436  28.934  24.451  10.280
27276W        W92437  44.263  12.712  10.507
27277W        W92438   6.037  19.631   3.451
27278W        W92439  18.464  23.437  13.026
27279W        W92440  34.917  20.225   3.583
27280W        W92441  28.393  15.129  12.594
27281W        W92442  36.906   5.336  13.499
27282W        W92443  39.049  13.870  14.900
27283W        W92444  16.207  17.230  14.361
27284W        W92445   2.454  29.862  13.667
27285W        W92446   1.525  36.427   1.306
27286W        W92447  44.891  29.603  11.297
27287W        W92448  13.121  22.593  13.280
27288W        W92449  43.017  34.520  11.570
27289W        W92450  32.412  34.008   0.224
27290W        W92451  23.678  25.485  10.632
27291W        W92452  38.472  44.727   1.704
27292W        W92453  33.381  24.746   1.257
27293W        W92454  38.259  23.494  13.006
27294W        W92455   3.684  40.536   1.273
27295W        W92456   7.831  44.924   3.303
27296W        W92457  14.311  15.677   0.464
27297W        W92458  15.703  38.319  14.614
27298W        W92459  25.736  42.486   1.371
27299W        W92460   1.844   8.624   4.505
27300W        W92461  38.261  44.895  12.113
27301W        W92462   6.254  10.102   2.737
27302W        W92463  16.164  16.799   3.390
27303W        W92464   3.888  28.896   1.507
27304W        W92465  19.527  23.275   3.877
27305W        W92466   1.396  28.999  12.340
27306W        W92467  19.183  28.556  10.728
27307W        W92468  34.837  38.485   3.176
27308W        W92469  30.929  25.984  11.593
27309W        W92470  35.992  14.572   2.210
27310W        W92471  13.287  39.882  10.526
27311W        W92472  22.521  16.151   1.773
27312W        W92473  23.545  40.088  12.507
27313W        W92474  11.614  33.604   1.518
27314W        W92475   2.478  18.803   1.206
27315W        W92476  34.464  21.373   4.078
27316W        W92477  27.477   2.458   3.105
27317W        W92478  36.525   9.172   2.775
27318W        W92479   7.997   9.849   4.730
27319W        W92480  12.298  35.635   3.296
27320W        W92481   9.494  33.662  13.301
27321W        W92482  28.521  36.827  12.887
27322W        W92483  18.490   2.030  11.136
27323W        W92484  31.349  21.875   3.315
27324W        W92485  29.951  23.219   1.002
27325W        W92486   5.957  21.455   3.685
27326W        W92487  39.277   6.351  12.955
27327W        W92488  44.899  29.662   3.204
27328W        W92489  36.565   5.792   3.540
27329W        W92490  32.990  33.838  13.810
27330W        W92491  13.394  28.270  14.209
27331W        W92492  19.896   8.657  11.078
27332W        W92493   9.869   5.303  10.616
27333W        W92494  39.948   8.792   0.209
27334W        W92495  40.862  21.243   2.242
27335W        W92496   4.096  25.109   3.112
27336W        W92497  19.567  29.620  11.407
27337W        W92498   8.198   0.385  11.920
27338W        W92499   1.199  18.025   3.676
27339W        W92500  28.577   1.693   0.022
27340W        W92501  37.539  13.827  10.846
27341W        W92502  14.139  36.536   0.300
27342W        W92503  39.098   6.358  11.102
27343W        W92504  16.010  37.063  11.414
27344W        W92505  26.868  31.277  14.785
27345W        W92506   4.195  25.493  11.959
27346W        W92507  24.191  26.909  11.384
27347W        W92508   3.099  37.467  10.609
27348W        W92509  21.736  19.293  10.677
27349W        W92510  21.636  16.473   4.047
27350W        W92511  23.629  24.974   4.647
27351W        W92512  29.053   7.209  12.382
27352W        W92513  17.778  38.070   0.319
27353W        W92514  16.614  19.105  11.182
27354W        W92515   5.938   6.545  11.195
27355W        W92516  12.447  24.512   4.914
27356W        W92517   6.748  12.620  13.036
27357W        W92518   1.336  40.030  14.274
27358W        W92519   4.364  19.888  13.038
27359W        W92520  11.783   6.797  14.506
27360W        W92521  28.656  14.077  13.373
27361W        W92522   7.430  24.493   4.199
27362W        W92523   7.146  30.183   0.922
27363W        W92524  43.286  18.124   1.827
27364W        W92525  15.033   7.249   4.053
27365W        W92526  39.491   0.751   3.272
27366W        W92527  26.168  35.037   0.183
27367W        W92528   2.249   8.809  12.523
27368W        W92529   6.211   6.224  12.937
27369W        W92530  44.348  11.903  11.172
27370W        W92531  22.167  19.028   3.307
27371W        W92532   2.302   4.202   1.754
27372W        W92533  10.265  26.476  11.252
27373W        W92534   0.779  22.950   4.011
27374W        W92535   1.993  29.162  13.952
27375W        W92536  12.575  11.193   1.280
27376W        W92537  30.309  13.043   4.717
27377W        W92538  40.806   7.393  10.742
27378W        W92539  41.952  18.058   3.664
27379W        W92540   3.818   4.134   0.946
27380W        W92541  20.240  42.505  11.057
27381W        W92542  27.145  14.786   2.098
27382W        W92543  34.412  35.565   3.736
27383W        W92544  22.822  26.320  11.523
27384W        W92545  41.750   7.276  12.569
27385W        W92546  31.696  10.478  11.153
27386W        W92547   6.456  30.026  11.498
27387W        W92548  11.825   4.353   3.007
27388W        W92549  21.757  26.353   1.695
27389W        W92550  35.176  11.431  12.439
27390W        W92551  25.281  31.898  14.445
27391W        W92552  37.297  28.729   0.784
27392W        W92553  13.145  18.592   3.404
27393W        W92554  10.720  11.775  12.974
27394W        W92555  30.675  17.314  12.059
27395W        W92556  17.524  21.524  11.867
27396W        W92557  25.177  34.401  13.062
27397W        W92558  21.131   1.998  11.528
27398W        W92559  22.244  17.810   9.713
27399W        W92560  43.367   3.859   2.240
27400W        W92561  24.486  22.778  11.525
27401W        W92562  23.577   1.878   4.383
27402W        W92563  26.111  38.343   3.211
27403W        W92564  17.470  42.980  10.919
27404W        W92565  24.627  28.228  13.963
27405W        W92566  24.465  29.939   0.209
27406W        W92567  36.741  11.868   1.301
27407W        W92568   1.377  40.424   0.711
27408W        W92569   3.735  33.285   0.329
27409W        W92570  34.629   1.674  11.498
27410W        W92571  12.767  22.459   4.957
27411W        W92572   8.302  27.808   3.768
27412W        W92573  15.928  31.151  14.688
27413W        W92574   2.555  25.427  13.352
27414W        W92575  27.149  21.866  10.223
27415W        W92576   5.732  24.825   4.942
27416W        W92577   8.949  19.424   2.749
27417W        W92578  19.130  37.043   1.879
27418W        W92579  34.906  32.013   3.606
27419W        W92580   5.399  24.150   1.978
27420W        W92581  26.027   7.374  13.993
27421W        W92582   1.119  18.425  13.549
27422W        W92583  15.098  38.950   2.448
27423W        W92584  14.219  32.421   2.137
27424W        W92585  25.180  36.787   0.326
27425W        W92586  40.323  19.986   0.367
27426W        W92587   2.295  19.296   3.646
27427W        W92588  32.531  36.400   3.813
27428W        W92589   6.335  39.381   0.342
27429W        W92590   1.473   2.799   0.032
27430W        W92591   3.313  32.117   3.379
27431W        W92592  33.496  23.968  13.957
27432W        W92593   3.174  28.224  11.142
27433W        W92594  42.981  42.914  10.183
27434W        W92595   3.031  12.257  14.750
27435W        W92596   1.282  11.550   4.083
27436W        W92597  26.940  10.142  11.703
27437W        W92598  38.946  19.199   3.925
27438W        W92599  30.920  11.645  12.808
27439W        W92600  16.323  33.666  14.877
27440W        W92601  36.119  44.927   3.602
27441W        W92602  28.083  22.613   5.299
27442W        W92603   7.609   4.712  10.793
27443W        W92604  22.775  32.407   2.768
27444W        W92605  35.600  19.670   3.691
27445W        W92606  35.126  29.140  14.008
27446W        W92607   8.782  27.060   2.232
27447W        W92608  15.220   3.367  10.400
27448W        W92609  14.490  11.667  11.548
27449W        W92610  16.043   8.156  13.313
27450W        W92611  22.523   8.254   3.181
27451W        W92612  33.157  40.521  14.829
27452W        W92613  36.433  31.385  14.002
27453W        W92614   1.580  37.513   3.085
27454W        W92615   9.859  34.017   0.380
27455W        W92616  39.232  25.444   0.263
27456W        W92617   5.307   7.816   0.961
27457W        W92618  20.161  44.336  10.577
27458W        W92619  44.348  34.835   3.701
27459W        W92620  11.636   6.361  13.637
27460W        W92621  18.802   3.434   2.247
27461W        W92622  14.130  24.707   0.665
27462W        W92623  35.458  21.797  13.894
27463W        W92624  38.056   3.209   3.219
27464W        W92625   3.839   2.486   2.676
27465W        W92626  28.774  39.819   4.543
27466W        W92627  37.308  38.266  14.842
27467W        W92628  22.077  39.638  10.904
27468W        W92629  29.055  19.746  12.301
27469W        W92630  28.229  17.003   1.926
27470W        W92631  19.547  21.068  11.136
27471W        W92632  10.723   0.859   1.702
27472W        W92633   0.390  20.557   2.238
27473W        W92634  31.119  16.117   2.995
27474W        W92635  10.102  15.547  13.378
27475W        W92636  15.790  23.073  14.867
27476W        W92637  29.496  11.400  12.009
27477W        W92638  18.544  27.127  12.485
27478W        W92639  18.260  14.882  11.628
27479W        W92640   4.983   0.824  10.168
27480W        W92641   9.622  42.871   2.214
27481W        W92642  33.866  12.220  12.462
27482W        W92643   6.078  16.609  12.465
27483W        W92644  19.722  39.773   4.122
27484W        W92645  17.204  19.438  12.542
27485W        W92646   2.357   4.478  11.144
27486W        W92647  19.836  16.354   3.144
27487W        W92648   4.603  22.678  10.449
27488W        W92649  13.558  17.469   4.130
27489W        W92650  23.462   8.085  12.064
27490W        W92651  18.453  13.407  12.692
27491W        W92652  20.193  28.142  11.973
27492W        W92653  39.310  36.945  14.027
27493W        W92654  28.718  19.090  12.446
27494W        W92655   2.950   0.824   4.887
27495W        W92656  41.080  15.608  11.675
27496W        W92657   6.224  12.606  14.274
27497W        W92658  25.423  22.686   3.287
27498W        W92659   8.179  15.726  10.337
27499W        W92660  16.213  44.944   0.424
27500W        W92661   1.674  29.906   4.437
27501W        W92662  12.843   3.283   0.171
27502W        W92663  44.462  39.957  10.786
27503W        W92664   7.290  17.307  12.318
27504W        W92665   5.662  28.719   2.757
27505W        W92666  23.623   5.342   2.860
27506W        W92667  26.650  19.083  10.659
27507W        W92668  21.097  40.542  10.984
27508W        W92669  42.015  40.858  11.055
27509W        W92670  32.563  40.751  13.413
27510W        W92671  16.882  35.575  13.389
27511W        W92672  25.548  10.126   4.187
27512W        W92673  34.529  41.925   1.626
27513W        W92674   7.837  37.367   2.271
27514W        W92675   4.913  19.161  14.036
27515W        W92676  16.262  34.389   4.598
27516W        W92677  18.616  12.331  11.047
27517W        W92678  14.174  29.375   4.109
27518W        W92679  35.631   5.778   3.891
27519W        W92680  17.511  38.390   4.121
27520W        W92681  24.189   1.984  13.669
27521W        W92682   5.206   2.275   0.499
27522W        W92683  43.075  31.029  12.682
27523W        W92684  41.676  22.096   1.229
27524W        W92685  22.723  24.068   3.556
27525W        W92686  24.599   7.950   1.253
27526W        W92687   1.131  11.316   0.694
27527W        W92688  41.363   4.634  14.756
27528W        W92689   4.202  29.474   3.315
27529W        W92690  34.477  36.902   1.615
27530W        W92691  13.216   8.261   4.380
27531W        W92692  16.930   5.871  12.817
27532W        W92693  18.849  37.935   0.243
27533W        W92694  21.035  13.479  10.780
27534W        W92695  13.206  17.309  11.972
27535W        W92696  43.308  29.267  10.999
27536W        W92697  25.069  34.595  14.988
27537W        W92698  30.907  10.751  10.828
27538W        W92699   3.806  19.751   4.336
27539W        W92700   7.859  24.486  12.840
27540W        W92701  28.390  42.807   1.390
27541W        W92702   0.568  30.530  11.609
27542W        W92703   2.423   6.515   3.600
27543W        W92704   5.378  33.960  14.350
27544W        W92705  39.131  25.023  14.331
27545W        W92706  20.148   3.267  12.126
27546W        W92707  24.138  42.053  13.312
27547W        W92708  21.248  23.301  11.277
27548W        W92709  36.178   5.465  11.704
27549W        W92710  14.253  42.341  14.330
27550W        W92711  26.171   0.943   1.943
27551W        W92712  43.989   7.946   3.381
27552W        W92713  44.955  39.518  10.092
27553W        W92714  41.737  32.336  10.480
27554W        W92715  33.287  38.929   2.828
27555W        W92716   3.848  39.623   0.041
27556W        W92717  31.925  23.099  13.955
27557W        W92718  44.851  30.557  10.648
27558W        W92719  10.893  18.010  13.915
27559W        W92720   3.779  15.269  10.657
27560W        W92721  35.904  24.901  11.176
27561W        W92722  20.625  34.335  13.911
27562W        W92723  19.069  24.633  11.922
27563W        W92724  23.322  15.247  12.023
27564W        W92725   8.620  34.860   3.602
27565W        W92726  22.069  17.268   0.702
27566W        W92727  14.519  37.654   1.729
27567W        W92728  32.204  14.081  11.195
27568W        W92729  28.149  37.504  12.030
27569W        W92730  19.353  40.441  14.569
27570W        W92731  31.159  33.968  12.300
27571W        W92732   9.546  38.434   4.543
27572W        W92733  28.020   5.977   1.858
27573W        W92734  14.374  23.569   0.231
27574W        W92735   1.710  31.897  12.329
27575W        W92736  24.291   4.230  12.990
27576W        W92737  10.291  12.724  13.091
27577W        W92738  39.425  22.455  13.887
27578W        W92739  17.489  16.043  13.856
27579W        W92740  35.094  37.026   3.300
27580W        W92741  22.887   7.167  12.448
27581W        W92742  33.011  20.865   4.034
27582W        W92743   9.152  13.505  11.165
27583W        W92744  10.389  10.859  10.369
27584W        W92745  29.127  21.450  12.949
27585W        W92746  34.065   9.346   2.739
27586W        W92747  38.066  38.917   3.816
27587W        W92748   2.298  39.749   1.754
27588W        W92749  24.462   9.833   1.978
27589W        W92750   9.787  20.585   1.363
27590W        W92751   8.228  28.574   2.266
27591W        W92752  21.543  31.605   1.259
27592W        W92753  32.760  26.093   2.327
27593W        W92754   7.370  31.443   3.170
27594W        W92755  29.711  27.905  12.844
27595W        W92756   5.330   9.220   4.195
27596W        W92757  31.372  32.734  14.982
27597W        W92758  14.581   4.368   0.829
27598W        W92759  10.363  38.925  12.246
27599W        W92760  33.815   6.764   3.779
27600W        W92761  27.018  27.878   1.407
27601W        W92762  18.798   2.882  13.747
27602W        W92763  19.329   3.289  11.162
27603W        W92764  22.561  30.630  11.205
27604W        W92765  39.312   9.320  11.660
27605W        W92766  20.591  25.160  14.393
27606W        W92767  37.306  40.591  14.343
27607W        W92768  18.640  31.317   3.828
27608W        W92769  42.511   2.388   2.423
27609W        W92770  31.025  41.046  14.686
27610W        W92771   8.423  24.298   3.277
27611W        W92772  40.742   9.261  12.568
27612W        W92773  34.817  20.287  14.520
27613W        W92774  20.866  19.555  11.601
27614W        W92775  32.405   8.751   5.032
27615W        W92776  16.185  27.083  11.477
27616W        W92777   9.377  29.953   4.184
27617W        W92778  22.755  38.630   9.894
27618W        W92779  42.272  35.361  11.067
27619W        W92780  26.402   5.298  12.353
27620W        W92781  39.397  10.833   4.689
27621W        W92782   2.675   3.893  14.254
27622W        W92783   4.608   6.834   3.222
27623W        W92784  27.267   3.712   0.854
27624W        W92785  38.285  22.670  12.300
27625W        W92786  15.198  22.397   4.132
27626W        W92787  19.074   6.840  12.407
27627W        W92788   8.817  20.299   2.361
27628W        W92789  29.168  35.112   2.856
27629W        W92790  40.436  38.818   3.165
27630W        W92791  23.203   8.755   4.646
27631W        W92792  20.974  43.487   1.179
27632W        W92793  12.308   1.819  10.704
27633W        W92794   8.614  12.354  11.672
27634W        W92795  25.023   0.376  14.891
27635W        W92796  22.894  29.029  13.429
27636W        W92797   0.181  31.518   3.796
27637W        W92798  38.352  42.990   2.889
27638W        W92799  44.696  38.942  12.118
27639W        W92800  35.414   9.876   4.365
27640W        W92801  22.115  28.183  12.882
27641W        W92802   4.906  42.040  11.262
27642W        W92803  26.117  23.730   1.640
27643W        W92804  11.197  33.942   1.310
27644W        W92805  16.267   4.824   2.784
27645W        W92806   1.391  31.504  13.678
27646W        W92807   2.143  13.409  14.786
27647W        W92808  28.359  27.958  10.264
27648W        W92809  25.611  37.839   0.282
27649W        W92810  38.800  28.583  11.845
27650W        W92811   7.247  40.326   1.363
27651W        W92812  15.570  10.268  14.421
27652W        W92813  30.400  38.474   4.591
27653W        W92814   9.788   8.644   2.158
27654W        W92815   5.733  13.204  14.857
27655W        W92816  15.666  22.226  12.073
27656W        W92817  10.341  12.913  11.047
27657W        W92818  22.696  17.528   2.130
27658W        W92819  21.024  17.510   1.494
27659W        W92820  17.620  10.331  11.579
27660W        W92821  13.233  25.645  11.998
27661W        W92822  37.171   5.223  12.516
27662W        W92823  26.150  28.639  13.078
27663W        W92824  30.441  18.145   1.500
27664W        W92825  19.911  13.338  10.754
27665W        W92826  25.365  27.215   1.261
27666W        W92827   8.240  21.062  13.571
27667W        W92828  11.222  34.862  11.993
27668W        W92829  31.215   7.226  12.975
27669W        W92830  31.465  14.295   3.245
27670W        W92831  29.157  40.516   2.337
27671W        W92832  27.651  30.941   0.715
27672W        W92833  28.781  16.869  11.005
27673W        W92834  39.663   0.410   1.191
27674W        W92835  30.189  28.896  14.333
27675W        W92836  43.038  31.154  14.494
27676W        W92837  44.145  19.299   1.851
27677W        W92838   0.402   9.913   3.627
27678W        W92839  34.577  26.182   2.645
27679W        W92840  32.394  38.348  14.053
27680W        W92841   0.489   2.661  14.383
27681W        W92842   4.133  34.589   4.164
27682W        W92843  19.966  13.334  11.689
27683W        W92844  22.933  22.767  11.228
27684W        W92845  31.017  38.258  10.703
27685W        W92846   2.449  39.686  12.080
27686W        W92847  31.150  23.022   1.659
27687W        W92848  37.827  38.513  14.974
27688W        W92849  42.719  15.137  13.893
27689W        W92850   3.272  13.856   2.649
27690W        W92851  28.972  22.641   5.335
27691W        W92852  15.673  14.350   0.527
27692W        W92853  26.152   8.475   1.427
27693W        W92854  14.877  28.570  11.139
27694W        W92855  33.076  19.284   1.434
27695W        W92856  15.161  22.838  11.059
27696W        W92857  22.208  24.569  11.572
27697W        W92858   8.891   9.358   1.282
27698W        W92859  35.339  26.059  14.812
27699W        W92860  10.243   2.712  14.529
27700W        W92861   6.220  27.018  10.302
27701W        W92862  40.852   3.644  10.644
27702W        W92863  28.419  16.108  11.904
27703W        W92864  20.628  11.100  10.696
27704W        W92865  14.868  25.194   2.297
27705W        W92866  34.355  20.586  12.488
27706W        W92867  37.885   5.791   3.933
27707W        W92868   6.948  19.101   1.782
27708W        W92869   0.025  35.552  14.067
27709W        W92870  15.835   6.632   2.104
27710W        W92871   6.994   8.281  13.826
27711W        W92872  11.841  37.238   0.912
27712W        W92873  14.665   9.179  14.658
27713W        W92874   2.698  17.845   1.362
27714W        W92875  15.072  43.112   2.376
27715W        W92876  31.335  10.221   4.342
27716W        W92877  28.390  40.837   1.237
27717W        W92878   4.393  40.192  14.369
27718W        W92879  40.900  22.025  13.923
27719W        W92880  27.146  11.225   1.790
27720W        W92881   5.845  26.351   1.187
27721W        W92882  37.392   1.775  13.911
27722W        W92883  42.921  15.403  11.537
27723W        W92884  16.765  41.838   9.706
27724W        W92885  10.155  10.577   0.247
27725W        W92886  37.557  20.328   5.024
27726W        W92887   9.309  42.010  11.503
27727W        W92888  44.143  35.358   3.275
27728W        W92889  26.504   5.659   2.812
27729W        W92890  38.839  15.483   3.648
27730W        W92891   5.701  13.513   0.317
27731W        W92892  22.602  14.260  11.401
27732W        W92893  26.480   2.063   1.458
27733W        W92894  17.489  27.534  14.911
27734W        W92895   1.092   5.919   1.987
27735W        W92896  13.087   1.093   4.017
27736W        W92897  21.984  43.494  11.543
27737W        W92898  30.552  43.602   2.447
27738W        W92899  37.472  43.036   2.947
27739W        W92900   8.441  26.248   4.685
27740W        W92901  14.660  29.037  11.341
27741W        W92902  37.863   8.220   4.281
27742W        W92903  27.743  11.185   2.870
27743W        W92904  36.022  29.371  14.823
27744W        W92905  30.613  10.792   4.752
27745W        W92906  44.395  29.953   4.383
27746W        W92907  30.812   9.897   4.338
27747W        W92908  12.963  41.050   1.748
27748W        W92909  21.566  36.878  13.991
27749W        W92910   1.923  37.967   3.859
27750W        W92911  30.589  19.734  10.742
27751W        W92912  23.460  31.088  14.391
27752W        W92913   6.988   0.288   4.851
27753W        W92914   2.807  34.121  11.435
27754W        W92915   3.251  39.941   4.087
27755W        W92916   3.364  23.722   0.284
27756W        W92917  20.715   5.856   4.837
27757W        W92918   3.940  36.863  14.134
27758W        W92919   3.370  40.754   2.777
27759W        W92920   0.511  35.615   2.462
27760W        W92921  15.577  12.153   2.329
27761W        W92922  28.595  11.175   2.267
27762W        W92923   7.454  35.342   0.345
27763W        W92924  21.921  22.705   1.786
27764W        W92925   9.437  14.801   1.746
27765W        W92926  12.294  11.657  13.419
27766W        W92927  30.502  17.186   4.396
27767W        W92928  19.712  42.520   3.588
27768W        W92929  20.188  26.426  13.479
27769W        W92930  31.343  39.853   0.403
27770W        W92931  14.637  38.908  11.723
27771W        W92932   7.448  13.263   4.626
27772W        W92933  36.911  35.775   4.076
27773W        W92934   0.730  36.941   2.696
27774W        W92935  33.921  42.321   4.203
27775W        W92936  43.538  24.494  13.937
27776W        W92937   8.208   5.753   1.267
27777W        W92938  36.145  29.502   3.738
27778W        W92939  21.648   3.801   4.611
27779W        W92940  20.662   1.239   2.307
27780W        W92941   2.048  29.076   1.718
27781W        W92942  42.977  43.691   2.651
27782W        W92943  44.407  21.614  13.385
27783W        W92944  38.982  37.923  12.123
27784W        W92945   9.828   6.026   2.405
27785W        W92946   6.604  40.984   0.701
27786W        W92947  17.002  38.529   5.031
27787W        W92948   3.778  21.623   3.152
27788W        W92949  34.128  21.314   1.041
27789W        W92950  17.195   3.949   0.269
27790W        W92951  32.382  33.179   2.059
27791W        W92952   2.396  18.782  11.720
27792W        W92953  10.871  28.442   0.706
27793W        W92954  36.294  35.898  12.975
27794W        W92955  28.539   8.914  12.002
27795W        W92956  41.252  13.161   3.152
27796W        W92957  44.354  21.665   0.908
27797W        W92958  25.180   7.564  12.578
27798W        W92959  11.029  33.165  11.961
27799W        W92960  36.566  16.086   0.409
27800W        W92961  39.514  37.121  11.028
27801W        W92962   0.816  18.337   1.000
27802W        W92963  15.604  25.428  13.805
27803W        W92964  27.555  10.157   5.095
27804W        W92965  13.109  14.582   0.282
27805W        W92966  16.100  29.705   0.850
27806W        W92967  29.482   2.409   3.159
27807W        W92968  35.014   5.769  13.765
27808W        W92969  19.112  40.667   3.347
27809W        W92970   4.186  29.180   2.562
27810W        W92971  16.549  40.368   2.362
27811W        W92972  19.040  15.166   1.225
27812W        W92973  41.374  20.242  13.893
27813W        W92974   5.798  29.372  12.104
27814W        W92975  38.806  40.852  12.364
27815W        W92976  14.077  11.882   2.673
27816W        W92977  31.855  24.436   1.370
27817W        W92978  21.126   7.704  11.652
27818W        W92979  39.906   5.169   3.199
27819W        W92980   9.002   4.485   1.477
27820W        W92981  11.281  32.656  12.605
27821W        W92982  30.910  15.105  12.899
27822W        W92983  32.929  35.245   0.872
27823W        W92984  14.320  10.067  10.450
27824W        W92985  39.396  30.694  12.087
27825W        W92986   3.676  10.851   1.257
27826W        W92987  43.099  26.176   1.276
27827W        W92988   5.813   5.820   2.520
27828W        W92989  36.407  22.457  13.062
27829W        W92990  12.786  24.414  14.394
27830W        W92991  38.421  12.514  11.791
27831W        W92992  43.527  40.740  10.748
27832W        W92993  14.622  20.400   2.229
27833W        W92994   3.735  30.753   3.711
27834W        W92995  35.393  39.937  12.513
27835W        W92996  41.090  38.938  13.490
27836W        W92997  26.014  18.439   2.458
27837W        W92998  16.386  22.476  11.469
27838W        W92999  31.653  34.353  14.014
27839W        W93000  25.475  21.063  13.071
27840W        W93001   5.636  44.876   3.623
27841W        W93002  31.141  14.789   4.850
27842W        W93003   3.765  17.076  14.833
27843W        W93004  44.489  27.288   0.856
27844W        W93005  29.738  43.913   2.201
27845W        W93006  21.225   5.724   0.399
27846W        W93007  27.796  22.222  10.951
27847W        W93008  34.450  34.777  14.909
27848W        W93009  22.782   1.415   2.380
27849W        W93010  22.191  32.807  12.587
27850W        W93011  25.923  35.452  11.611
27851W        W93012  27.116  34.632   3.356
27852W        W93013   0.835  19.239   3.603
27853W        W93014  20.578  41.512   2.156
27854W        W93015  33.892  28.436  12.001
27855W        W93016   8.479   2.952  13.902
27856W        W93017   1.203   4.905  11.675
27857W        W93018   4.430   5.586   3.617
27858W        W93019  14.311  39.007   1.832
27859W        W93020   6.958  42.307  13.899
27860W        W93021  17.032  17.280   2.534
27861W        W93022  12.865  10.624  10.751
27862W        W93023  33.621   5.016  11.359
27863W        W93024   3.228  22.983   4.504
27864W        W93025   7.181  12.393   0.348
27865W        W93026  42.034  42.295  11.066
27866W        W93027  41.319  22.673   3.206
27867W        W93028  23.776  35.297  12.071
27868W        W93029   7.846  36.924   1.872
27869W        W93030  36.357  15.218   4.505
27870W        W93031  20.133  14.578   3.670
27871W        W93032   0.586  21.182   2.632
27872W        W93033  35.423  21.143  13.008
27873W        W93034  18.312  27.255  12.927
27874W        W93035  39.595  11.823  13.088
27875W        W93036  32.440  31.765   3.321
27876W        W93037  43.978  33.989   1.021
27877W        W93038   8.518  24.409   1.797
27878W        W93039  21.185  16.650  12.445
27879W        W93040  28.486  32.685   4.196
27880W        W93041  39.433  19.337  12.006
27881W        W93042  23.495   5.870  11.662
27882W        W93043  20.050  19.647  13.323
27883W        W93044  22.814  38.372   0.742
27884W        W93045  25.941  44.227   2.462
27885W        W93046  30.735  25.748   4.178
27886W        W93047  43.030  38.618   0.947
27887W        W93048   2.940  39.063   0.852
27888W        W93049  24.176   2.351   0.725
27889W        W93050  16.720  38.829   0.669
27890W        W93051  14.743  23.158  11.429
27891W        W93052  13.586   3.368   4.552
27892W        W93053  15.304  35.774  13.848
27893W        W93054  16.238   6.254  12.224
27894W        W93055  16.157  22.951  12.112
27895W        W93056  42.842  32.570  11.226
27896W        W93057  38.210  12.810  14.453
27897W        W93058  14.656  28.243  13.727
27898W        W93059  44.173  35.798   0.343
27899W        W93060  31.937   5.304   3.622
27900W        W93061   9.006  16.095  14.733
27901W        W93062  31.918  15.278  11.491
27902W        W93063  19.802   7.204   2.783
27903W        W93064   9.636  42.212   3.072
27904W        W93065   1.305  36.121  13.814
27905W        W93066   0.020   4.491  11.715
27906W        W93067  10.928  10.802  14.928
27907W        W93068  13.902   9.674  13.523
27908W        W93069  36.566   3.465   1.767
27909W        W93070  20.248  20.494  14.997
27910W        W93071  37.399   4.369  12.019
27911W        W93072  39.803  33.422   4.772
27912W        W93073  44.192   0.088   3.279
27913W        W93074  42.409  35.586  13.297
27914W        W93075  16.197  28.663   0.718
27915W        W93076  36.869  39.924   4.035
27916W        W93077   1.998  27.163   3.419
27917W        W93078  43.145   8.463  14.361
27918W        W93079  18.014  17.717  14.325
27919W        W93080  33.044   7.921  11.156
27920W        W93081  10.762   3.892  10.742
27921W        W93082  29.152  21.196   1.921
27922W        W93083  33.025   8.831   5.047
27923W        W93084  14.687  12.194  14.786
27924W        W93085  27.090  18.622  12.935
27925W        W93086  24.412  15.660   2.014
27926W        W93087  31.304  38.945   5.433
27927W        W93088   5.917  23.119   2.784
27928W        W93089  10.045  12.969  13.841
27929W        W93090  10.808  29.211   2.374
27930W        W93091   4.891  14.097  13.533
27931W        W93092  10.863   9.523   1.135
27932W        W93093  27.950  16.023  13.798
27933W        W93094  26.528  34.296   4.106
27934W        W93095  17.197  15.664   2.167
27935W        W93096  31.060  30.029  13.927
27936W        W93097  14.256  18.777  10.941
27937W        W93098  40.037   5.500  12.601
27938W        W93099   1.374   9.551   0.340
27939W        W93100   4.667  25.252  14.958
27940W        W93101  30.561  30.572  12.514
27941W        W93102  36.393  26.285  10.285
27942W        W93103  42.458  31.105   3.830
27943W        W93104  38.083  27.247   2.863
27944W        W93105  14.701  16.576  11.890
27945W        W93106  39.021  24.832   0.857
27946W        W93107  16.185  36.600   4.614
27947W        W93108  32.805   9.309   0.388
27948W        W93109  15.828  27.709   2.140
27949W        W93110  32.394   1.004   2.427
27950W        W93111  34.490  13.282   2.147
27951W        W93112  25.732  39.520  14.503
27952W        W93113  36.880  23.315   1.430
27953W        W93114  32.932   4.799   4.200
27954W        W93115   7.356  11.800   1.251
27955W        W93116   7.423  42.931   4.235
27956W        W93117  27.670   2.034  10.685
27957W        W93118  21.277  20.519   3.735
27958W        W93119  39.566  12.601  13.269
27959W        W93120  39.975  19.145   2.503
27960W        W93121  16.220  38.201   2.696
27961W        W93122  12.615  30.654  14.948
27962W        W93123   1.240  24.670   3.985
27963W        W93124  13.009  22.654  12.461
27964W        W93125   9.762  38.845   1.046
27965W        W93126   0.471  42.935  12.128
27966W        W93127  22.315   7.736   2.562
27967W        W93128  40.829  40.422   2.931
27968W        W93129  39.630  26.619  12.992
27969W        W93130  44.571  43.973  14.461
27970W        W93131  40.030   2.035  11.679
27971W        W93132   5.315  15.573   4.064
27972W        W93133  22.049  29.158  14.485
27973W        W93134  41.017  39.579  12.926
27974W        W93135  22.007  23.694  11.308
27975W        W93136  42.893  30.696   1.864
27976W        W93137   6.763  33.969  13.073
27977W        W93138  20.799  29.068   1.603
27978W        W93139   6.010   0.898   4.115
27979W        W93140  13.260  18.544   0.235
27980W        W93141  43.411   6.769  13.344
27981W        W93142   6.606  27.291   0.328
27982W        W93143  43.725  43.400  14.353
27983W        W93144  28.919  35.610   2.750
27984W        W93145  23.419   2.708  14.522
27985W        W93146  20.226  25.013   2.708
27986W        W93147  40.093  26.802   3.286
27987W        W93148  34.793  32.220   2.387
27988W        W93149  35.371  23.701   0.487
27989W        W93150  12.868  26.442  13.327
27990W        W93151  43.437  11.609  13.887
27991W        W93152   0.888  37.114   3.203
27992W        W93153  33.889  43.972   0.459
27993W        W93154  35.346   3.119  13.816
27994W        W93155   0.727  21.129  14.948
27995W        W93156  32.825   7.497  11.402
27996W        W93157  17.817  26.761   0.368
27997W        W93158  36.635   2.747   4.105
27998W        W93159  44.507   0.036   2.446
27999W        W93160   5.921   0.270   3.797
28000W        W93161  19.443   4.857  11.236
28001W        W93162  32.644   3.589   1.142
28002W        W93163  37.115  12.210  14.955
28003W        W93164  29.419  17.775  12.680
28004W        W93165  14.123  24.676   1.862
28005W        W93166  29.759  44.390   3.240
28006W        W93167  43.149  21.233   0.865
28007W        W93168  32.980  12.877  11.030
28008W        W93169  20.691  24.490  12.980
28009W        W93170  10.908  39.038   1.963
28010W        W93171  17.955  11.338   3.215
28011W        W93172  42.926  29.610   1.715
28012W        W93173   1.270  22.096  13.631
28013W        W93174  37.386   2.928   0.498
28014W        W93175   0.087   6.850   0.097
28015W        W93176   3.174   4.280  13.785
28016W        W93177   0.153   4.320   2.309
28017W        W93178  20.325  41.992   2.438
28018W        W93179  37.554  11.379  10.567
28019W        W93180   7.314  28.037   2.422
28020W        W93181  24.179  26.450   0.876
28021W        W93182  15.659   5.176  13.896
28022W        W93183  25.426  26.642  13.387
28023W        W93184  37.773  22.335  13.559
28024W        W93185   2.954  19.088   1.811
28025W        W93186  28.527  16.708   2.951
28026W        W93187  40.492  21.709  13.918
28027W        W93188  32.424  40.261   9.699
28028W        W93189   4.450  14.627   3.683
28029W        W93190  17.531  20.763  12.880
28030W        W93191  29.563  13.002  10.714
28031W        W93192  10.878   3.884  13.468
28032W        W93193  43.301  14.331   9.890
28033W        W93194  38.903   6.326   3.769
28034W        W93195  14.174  18.350  13.975
28035W        W93196  28.380  37.697  11.111
28036W        W93197   9.708  16.219  11.802
28037W        W93198   4.496  17.241   2.226
28038W        W93199  33.460   9.284  14.258
28039W        W93200  29.135  44.444   2.476
28040W        W93201  14.152  19.629   0.182
28041W        W93202   4.126  17.918  11.557
28042W        W93203  10.822   9.205   3.318
28043W        W93204  15.651   9.100   4.132
28044W        W93205  41.290  16.673  13.506
28045W        W93206   3.255   9.838  14.701
28046W        W93207   5.371  33.137   3.294
28047W        W93208   7.103   9.500  14.565
28048W        W93209  43.965  10.233  11.154
28049W        W93210  33.789  39.320  13.473
28050W        W93211  40.331  19.039  11.646
28051W        W93212  10.356   0.430   2.714
28052W        W93213  37.086  29.412  13.254
28053W        W93214  21.483  38.163  11.075
28054W        W93215  41.870  26.617  14.907
28055W        W93216  24.959  28.436   1.781
28056W        W93217   1.994  27.444   2.855
28057W        W93218  32.436   1.414   0.903
28058W        W93219  39.814  41.487  10.725
28059W        W93220  44.880   0.268   2.176
28060W        W93221  14.256  30.479   4.115
28061W        W93222  13.291  44.259   2.861
28062W        W93223   9.191  10.254   3.317
28063W        W93224  32.378  38.258   4.948
28064W        W93225  27.861  33.211  13.381
28065W        W93226  40.248  31.480   1.880
28066W        W93227  40.309   8.135   4.325
28067W        W93228  11.331   5.445  10.844
28068W        W93229  34.551  21.532   0.303
28069W        W93230   6.655  44.687   3.620
28070W        W93231  31.725  31.296   1.703
28071W        W93232  42.431  33.626   0.374
28072W        W93233   2.304  20.320  13.940
28073W        W93234  16.478  16.567   9.883
28074W        W93235  13.363  16.824  13.409
28075W        W93236  14.225  34.119   3.372
28076W        W93237  14.784  42.959  11.900
28077W        W93238   3.829  22.984   4.063
28078W        W93239   1.052  34.116   0.828
28079W        W93240  23.291  36.326   4.566
28080W        W93241  43.476  11.290   3.305
28081W        W93242  41.919  39.553  11.964
28082W        W93243  10.619  44.894   1.794
28083W        W93244  10.051  43.324  13.465
28084W        W93245  25.637  31.111  13.740
28085W        W93246  29.624  33.863  13.428
28086W        W93247  12.370  34.626   2.248
28087W        W93248  40.574   6.466  14.023
28088W        W93249  20.761   8.162   0.479
28089W        W93250  37.114   6.516   2.134
28090W        W93251  42.282  16.622   2.346
28091W        W93252  32.118  14.508   2.291
28092W        W93253  21.380  33.147   2.277
28093W        W93254   3.926  23.270  13.697
28094W        W93255   7.752  42.271   1.380
28095W        W93256  12.412  34.657  13.939
28096W        W93257  37.610  34.634  14.906
28097W        W93258  16.665  26.753  14.060
28098W        W93259  37.470  25.604  11.324
28099W        W93260  35.926  27.422   3.700
28100W        W93261  37.082  32.991  12.994
28101W        W93262  10.091  23.759   0.798
28102W        W93263  42.496  20.922   0.207
28103W        W93264  18.015   4.551   2.115
28104W        W93265  30.950  13.311  11.234
28105W        W93266  28.611  29.571   2.784
28106W        W93267  22.438  15.633   1.726
28107W        W93268  39.475  36.943  12.067
28108W        W93269  24.460  20.025   2.227
28109W        W93270  15.265   4.862  14.584
28110W        W93271  21.153  31.867  10.888
28111W        W93272  30.629   6.399  14.334
28112W        W93273  33.689  21.545   0.884
28113W        W93274   2.153  31.977  12.582
28114W        W93275  18.084  43.303  13.686
28115W        W93276  36.574   0.240  12.927
28116W        W93277  27.703  43.007   0.057
28117W        W93278   0.751  37.612   0.853
28118W        W93279  43.441  31.839  12.932
28119W        W93280  40.970  40.489   4.951
28120W        W93281  16.195  11.363  14.427
28121W        W93282  13.201  38.350   3.592
28122W        W93283   3.457  26.557   1.398
28123W        W93284   2.433  26.982   4.248
28124W        W93285  12.702   9.744  13.257
28125W        W93286  44.360   5.820  14.540
28126W        W93287   6.401  23.221  12.368
28127W        W93288  32.558  39.538   1.800
28128W        W93289  37.317  10.166   4.487
28129W        W93290  33.903  27.383  11.223
28130W        W93291   1.479  34.328  13.512
28131W        W93292  16.749   0.301  11.206
28132W        W93293  34.104  30.184   3.304
28133W        W93294  29.570   0.222  14.008
28134W        W93295  25.098   3.001  13.682
28135W        W93296   1.314  41.976  13.353
28136W        W93297  11.378  17.106   1.575
28137W        W93298  20.691  33.380   1.653
28138W        W93299  17.673   8.288  13.897
28139W        W93300   4.890  21.665  13.498
28140W        W93301  39.490   9.796   4.046
28141W        W93302  20.559  38.695   2.223
28142W        W93303  43.945   9.862  14.859
28143W        W93304  16.143  24.631  14.405
28144W        W93305   4.897   6.724   1.725
28145W        W93306  19.622  28.105   4.307
28146W        W93307  38.663  23.089   1.392
28147W        W93308  32.602  43.979  12.813
28148W        W93309  12.509  40.929   2.649
28149W        W93310   5.498  40.764  11.134
28150W        W93311  36.782  11.656   4.951
28151W        W93312  40.939   9.399   0.518
28152W        W93313  10.649  19.705   1.955
28153W        W93314   8.639  38.124  14.429
28154W        W93315   0.928  21.845  14.421
28155W        W93316  42.930   4.582  12.059
28156W        W93317  28.425  35.040   1.235
28157W        W93318  28.598  17.275   1.692
28158W        W93319   5.369  14.794  10.306
28159W        W93320  25.136  40.750  13.047
28160W        W93321  13.929  31.580   3.810
28161W        W93322  11.138  23.439  11.595
28162W        W93323  24.635  30.586   0.430
28163W        W93324  13.749  42.706   2.442
28164W        W93325  13.930  18.175   4.611
28165W        W93326  40.846  23.315   2.410
28166W        W93327  16.319  13.367   1.261
28167W        W93328  44.645  41.198  14.398
28168W        W93329  35.776  11.610   4.900
28169W        W93330  43.497  30.927   4.245
28170W        W93331   4.887  21.260   5.114
28171W        W93332  19.575  28.044   0.183
28172W        W93333  35.604  13.354   0.307
28173W        W93334  35.183  19.696   2.817
28174W        W93335  25.607  24.702   4.543
28175W        W93336   8.116  11.878   0.989
28176W        W93337   3.716   1.190  10.642
28177W        W93338  20.304  38.828   2.959
28178W        W93339  16.234   6.862  14.028
28179W        W93340  11.575  33.449   2.019
28180W        W93341   9.232  17.296  11.210
28181W        W93342  16.279  37.265  10.376
28182W        W93343   8.762  14.248  10.712
28183W        W93344   8.180  26.428  11.151
28184W        W93345  19.546  14.271   5.037
28185W        W93346  37.149  35.937  11.962
28186W        W93347  18.543  33.149  10.499
28187W        W93348  37.569  44.880   1.315
28188W        W93349   0.412   6.199  11.646
28189W        W93350  40.801  28.528  11.521
28190W        W93351   1.856  43.743  13.987
28191W        W93352  15.192  13.706   1.751
28192W        W93353   9.160  30.685  14.817
28193W        W93354   7.252  12.079   1.731
28194W        W93355  13.662  31.128  13.326
28195W        W93356  38.168  23.786   1.630
28196W        W93357   5.182  13.986  13.955
28197W        W93358  34.931  14.606   3.699
28198W        W93359  26.442  28.852   0.162
28199W        W93360  12.813  13.439  10.815
28200W        W93361   2.487  23.542   3.271
28201W        W93362  12.952  30.869  14.644
28202W        W93363  42.535  24.008   3.602
28203W        W93364  30.650  14.853   4.633
28204W        W93365   9.990  25.102  14.533
28205W        W93366  12.091  15.648  13.742
28206W        W93367  39.809  29.471   0.389
28207W        W93368  23.135  14.345  10.160
28208W        W93369  21.530  15.931  10.088
28209W        W93370  20.593  29.131   4.287
28210W        W93371  33.365  24.623  12.504
28211W        W93372   6.865  41.246  11.584
28212W        W93373   8.889  28.584   1.848
28213W        W93374  31.737  28.202   2.116
28214W        W93375  23.103  33.417  11.059
28215W        W93376   1.709   9.868   3.211
28216W        W93377  27.009  14.252  12.454
28217W        W93378  24.012  28.885   0.968
28218W        W93379  21.882  25.592  12.521
28219W        W93380   3.216  18.191  12.985
28220W        W93381  29.942   0.793   1.366
28221W        W93382  15.591  32.651   2.842
28222W        W93383  29.058   2.134   4.773
28223W        W93384  25.196  31.103  13.995
28224W        W93385  35.242  14.107  10.880
28225W        W93386   1.924  24.978   1.734
28226W        W93387  34.482  19.104   1.817
28227W        W93388  18.016  20.832  10.584
28228W        W93389  37.983  41.248   0.237
28229W        W93390  42.694  16.524  13.177
28230W        W93391  26.674  41.932  11.639
28231W        W93392   0.836  16.811   2.949
28232W        W93393  22.074  39.845   2.341
28233W        W93394  34.107  36.558   4.546
28234W        W93395  15.278  20.179  11.220
28235W        W93396  16.750  40.997  10.236
28236W        W93397  22.659   6.606  14.348
28237W        W93398  44.805  24.993   4.258
28238W        W93399  38.775   9.339  10.389
28239W        W93400  22.047  23.621  13.533
28240W        W93401  42.507  14.345   3.628
28241W        W93402  44.191  37.863  12.510
28242W        W93403   3.277  25.453  11.695
28243W        W93404  21.817  25.932   2.011
28244W        W93405  33.501  21.139   3.369
28245W        W93406  32.345  20.659  14.579
28246W        W93407  38.699  15.659   4.923
28247W        W93408  25.761  11.017  10.779
28248W        W93409  42.031  22.184  14.493
28249W        W93410   3.791  37.475   1.892
28250W        W93411   2.508  35.291   2.620
28251W        W93412  41.268  27.537   1.201
28252W        W93413  33.411  33.191  11.252
28253W        W93414  10.365   6.819  13.524
28254W        W93415   4.211   3.121   0.940
28255W        W93416  12.933  39.661   4.073
28256W        W93417  44.007  42.634  11.118
28257W        W93418  29.934  12.744  13.837
28258W        W93419   5.241   7.844   3.737
28259W        W93420  26.780  35.723   4.957
28260W        W93421  14.240   8.200   4.156
28261W        W93422  26.418  44.090  12.145
28262W        W93423   6.817  19.204  10.612
28263W        W93424   3.878  22.036  14.934
28264W        W93425   2.353  11.097  13.512
28265W        W93426  44.455  13.603   0.734
28266W        W93427  30.367  38.274   4.092
28267W        W93428  44.364  12.502  12.866
28268W        W93429  26.996  34.818   1.771
28269W        W93430   5.316  16.136  12.499
28270W        W93431  11.194  44.271  10.801
28271W        W93432  29.399   9.205  14.135
28272W        W93433  29.656  18.287  11.550
28273W        W93434  33.925  22.513  10.041
28274W        W93435   0.756  22.659   1.337
28275W        W93436  37.141  22.830  12.756
28276W        W93437  34.557  17.028   0.926
28277W        W93438   2.449  32.601   3.754
28278W        W93439  15.247  28.163  12.492
28279W        W93440   1.342  15.639  13.487
28280W        W93441  11.431  11.231   4.740
28281W        W93442  10.327  44.126  12.510
28282W        W93443  33.956  11.249   4.265
28283W        W93444   0.223   7.427   2.727
28284W        W93445  35.437  19.092   4.550
28285W        W93446  44.436   3.321  12.041
28286W        W93447  44.344  13.134   0.545
28287W        W93448  25.690  44.860  14.014
28288W        W93449   9.368  27.581   9.515
28289W        W93450  33.521  28.176   3.828
28290W        W93451   8.448  19.497   2.652
28291W        W93452  41.909  40.454   4.482
28292W        W93453  15.879  14.174   4.995
28293W        W93454  41.260   8.251  12.930
28294W        W93455   1.403  13.739   2.621
28295W        W93456   9.178   8.300   1.720
28296W        W93457   2.534  23.528   1.784
28297W        W93458  21.753   9.630   2.309
28298W        W93459   9.857   1.858  12.893
28299W        W93460   8.390   2.363  14.524
28300W        W93461  23.291   4.875   1.146
28301W        W93462  25.980  13.954   2.191
28302W        W93463  10.676  21.579   1.819
28303W        W93464   9.098   2.295  11.178
28304W        W93465   5.972  41.451  14.027
28305W        W93466   6.432  16.528  12.855
28306W        W93467   4.671  10.076  14.014
28307W        W93468  11.378  26.043  14.779
28308W        W93469  38.224  27.428   1.518
28309W        W93470  36.104  22.181  10.667
28310W        W93471  38.877  32.951   2.561
28311W        W93472  22.526  27.661  12.089
28312W        W93473  19.057   0.837   3.745
28313W        W93474  27.559   5.360  13.333
28314W        W93475  20.515   1.734   2.346
28315W        W93476   1.077   3.897   1.275
28316W        W93477   8.773  15.934   2.467
28317W        W93478  44.485  24.773   2.196
28318W        W93479   0.717  22.564   3.658
28319W        W93480  26.175  12.792   3.665
28320W        W93481  29.957  17.628  13.588
28321W        W93482  23.169   5.624   2.740
28322W        W93483  36.588  10.897  13.215
28323W        W93484   7.879  36.283  13.473
28324W        W93485  21.784  29.586  10.600
28325W        W93486   9.282  14.331   4.262
28326W        W93487  15.737   6.501   2.571
28327W        W93488   3.235  28.423   4.100
28328W        W93489  12.820  17.234   3.184
28329W        W93490  29.648  24.663  13.502
28330W        W93491  19.763  32.183   3.676
28331W        W93492  22.981   8.573  12.573
28332W        W93493  39.726  30.783  14.805
28333W        W93494  39.571  33.605   1.433
28334W        W93495   5.195  30.275  14.087
28335W        W93496  32.620  36.540   3.288
28336W        W93497  17.533  33.092  14.382
28337W        W93498  30.898   7.843  14.842
28338W        W93499  34.492  39.495  13.259
28339W        W93500  40.811  22.526   4.398
28340W        W93501  21.313   9.433   4.102
28341W        W93502  39.979   9.748   2.712
28342W        W93503  21.220  42.787   3.664
28343W        W93504  23.988   4.719   1.857
28344W        W93505  32.675  25.900  12.122
28345W        W93506  34.583   9.237  10.781
28346W        W93507  22.681   7.103  14.297
28347W        W93508   4.397   9.353   1.877
28348W        W93509   8.922  42.480  11.521
28349W        W93510  39.878  42.654  13.514
28350W        W93511   9.342  11.382  12.023
28351W        W93512  13.828   1.375   3.014
28352W        W93513  33.011  33.277   3.247
28353W        W93514  44.110  32.357   1.319
28354W        W93515  44.654  26.628   2.403
28355W        W93516  20.989  15.696  14.252
28356W        W93517  10.824  32.601  12.885
28357W        W93518  12.090  21.705  12.431
28358W        W93519  17.245  21.166   2.420
28359W        W93520  29.499  13.859  13.289
28360W        W93521   9.946  22.659   4.613
28361W        W93522  12.364   5.471   3.328
28362W        W93523  15.651   8.016  13.985
28363W        W93524   2.543  30.091   0.529
28364W        W93525  14.095   4.698   0.022
28365W        W93526  44.383  35.853   3.235
28366W        W93527  42.339  22.670  13.035
28367W        W93528  33.917   4.299   0.728
28368W        W93529  30.516   0.992   2.632
28369W        W93530  18.212  23.405   0.323
28370W        W93531   6.296  39.816  14.427
28371W        W93532  17.334  44.124   2.335
28372W        W93533  44.806  25.958  14.845
28373W        W93534  23.664  24.998   2.398
28374W        W93535  43.043  37.424   1.226
28375W        W93536  28.118   7.897  14.311
28376W        W93537  33.526  23.554   5.059
28377W        W93538   1.332  31.199  12.498
28378W        W93539   7.012   6.250   4.154
28379W        W93540   8.657  23.664   0.865
28380W        W93541  13.016  31.033  13.915
28381W        W93542  36.586  36.635   3.212
28382W        W93543  32.258   5.392   0.165
28383W        W93544  42.451  18.552  12.131
28384W        W93545  30.596  25.984   4.600
28385W        W93546  22.153  29.694   2.722
28386W        W93547  23.487  25.784   1.321
28387W        W93548  19.578  15.672   1.736
28388W        W93549  44.505  43.386   2.810
28389W        W93550  38.984  36.365   4.315
28390W        W93551  18.077  29.586   1.061
28391W        W93552  25.817  24.523  14.807
28392W        W93553  43.423  37.785   1.215
28393W        W93554  18.396  16.005  12.950
28394W        W93555  35.572   8.966  12.136
28395W        W93556  35.617  11.287  11.162
28396W        W93557  33.407  11.097   1.937
28397W        W93558  30.136  29.413   3.700
28398W        W93559  14.134  33.999  12.434
28399W        W93560  33.358  32.520   3.585
28400W        W93561  30.470  14.885   3.751
28401W        W93562   3.225  44.307   2.379
28402W        W93563   7.441  34.156   0.788
28403W        W93564  13.000   2.370   4.149
28404W        W93565  19.855  17.903  12.272
28405W        W93566  12.592  30.069   0.617
28406W        W93567  23.265  43.944   3.204
28407W        W93568  36.188  37.110  11.168
28408W        W93569  31.127  34.449   1.286
28409W        W93570  17.564  33.510  10.565
28410W        W93571  14.815  23.274  13.661
28411W        W93572  43.879  28.383   1.232
28412W        W93573  31.982  13.431  13.626
28413W        W93574   1.779  22.026  13.424
28414W        W93575   0.391   3.807   3.596
28415W        W93576   4.282  10.362  13.809
28416W        W93577  16.101  14.641   4.113
28417W        W93578  39.300  13.689  10.678
28418W        W93579   4.718  34.712   1.626
28419W        W93580   2.613   5.242   2.705
28420W        W93581  32.307  18.517   4.016
28421W        W93582  16.029   1.308   3.226
28422W        W93583  17.043  27.222  11.658
28423W        W93584  39.449   3.969  10.783
28424W        W93585  31.678  36.319  12.460
28425W        W93586  27.738  21.388   2.728
28426W        W93587  35.084  17.037   0.805
28427W        W93588  43.360   1.335  12.378
28428W        W93589  13.361  23.086   4.160
28429W        W93590  25.942   5.807   3.724
28430W        W93591  18.743   3.343  12.017
28431W        W93592   7.189  40.063   0.894
28432W        W93593  23.249   7.711   3.348
28433W        W93594  18.991  19.768  12.105
28434W        W93595   4.778  22.537   1.898
28435W        W93596  29.150  35.031   1.757
28436W        W93597  26.187  44.316   4.759
28437W        W93598  31.615  16.112  14.892
28438W        W93599  32.188  11.812  10.572
28439W        W93600  28.518  19.017  14.056
28440W        W93601  20.168   9.829   4.112
28441W        W93602  18.539  34.496  12.225
28442W        W93603  43.523  21.507  11.146
28443W        W93604  31.374  33.947   0.369
28444W        W93605  25.787  36.185   2.066
28445W        W93606  20.482   0.745  10.608
28446W        W93607  38.359  34.757   1.842
28447W        W93608  10.417  21.045   2.874
28448W        W93609  10.948  32.445  10.681
28449W        W93610  24.092   6.621   4.232
28450W        W93611  26.146  18.745  14.857
28451W        W93612  41.563  21.281   4.310
28452W        W93613  36.172  42.956  12.096
28453W        W93614  20.103  23.950   4.049
28454W        W93615   7.825  20.024   2.084
28455W        W93616  28.173  42.853   1.857
28456W        W93617  21.435  28.123   0.029
28457W        W93618  18.785  23.101  12.810
28458W        W93619   2.094  36.373  13.211
28459W        W93620  27.919   0.097   0.347
28460W        W93621   5.352  36.798   1.769
28461W        W93622  27.508  24.984  10.527
28462W        W93623  22.638  18.440  12.091
28463W        W93624  15.062   6.114   1.222
28464W        W93625  25.204   3.136   3.038
28465W        W93626  11.951  39.509   2.892
28466W        W93627  31.890   5.154   1.867
28467W        W93628  13.525  28.840  10.697
28468W        W93629  41.076  10.693  11.180
28469W        W93630  15.252  24.653   1.772
28470W        W93631  25.561  12.656   3.063
28471W        W93632  41.434  36.280   2.935
28472W        W93633  38.991  11.529   3.168
28473W        W93634  14.835  43.464  10.647
28474W        W93635  37.811  20.059   2.770
28475W        W93636  34.000   1.481  10.871
28476W        W93637  24.800  12.262  12.130
28477W        W93638  32.567   6.356   0.245
28478W        W93639  14.298  30.518  11.229
28479W        W93640  20.042  25.612   4.673
28480W        W93641  22.129  28.070   4.885
28481W        W93642  19.122  22.744   4.562
28482W        W93643  19.017  20.680  13.003
28483W        W93644  42.372  42.425  10.712
28484W        W93645   3.964   7.373  10.066
28485W        W93646  23.812  40.513   2.624
28486W        W93647  39.157  15.636   1.714
28487W        W93648  38.334  29.416  11.604
28488W        W93649  15.639   5.748  10.943
28489W        W93650  39.593   8.192  12.138
28490W        W93651  22.665  25.193  11.128
28491W        W93652  39.340  43.509  14.757
28492W        W93653  12.861   1.613   4.068
28493W        W93654  12.872   2.591   1.002
28494W        W93655  16.379  23.889  14.042
28495W        W93656   3.343   9.268  11.849
28496W        W93657  21.542  11.837   1.843
28497W        W93658   2.547  28.898   1.711
28498W        W93659  12.269  29.690  14.723
28499W        W93660  42.540  14.336  13.443
28500W        W93661  44.453  39.542  10.488
28501W        W93662   2.613  36.446  14.721
28502W        W93663  28.077  18.645   3.221
28503W        W93664   6.385  30.766   9.867
28504W        W93665  29.122   8.827  14.338
28505W        W93666  31.604  20.363  14.993
28506W        W93667  10.829  19.480  13.419
28507W        W93668  25.249  39.312   3.372
28508W        W93669  41.484  24.060  13.632
28509W        W93670  31.408  28.361  12.055
28510W        W93671  17.336  38.817  11.260
28511W        W93672  28.143  28.588  10.728
28512W        W93673  24.613   2.979  13.494
28513W        W93674  29.106   8.807  14.864
28514W        W93675  27.616  37.907  13.119
28515W        W93676  43.809   9.801  12.931
28516W        W93677  15.234  23.485   4.183
28517W        W93678  26.082  41.856  13.933
28518W        W93679  26.528   1.643   3.602
28519W        W93680   3.914  22.548   4.317
28520W        W93681  39.264  42.617   3.705
28521W        W93682  42.832  30.910   1.382
28522W        W93683   4.821  10.335  10.161
28523W        W93684  27.203  41.198   2.453
28524W        W93685  10.251  44.443  13.888
28525W        W93686  35.957   8.313  13.759
28526W        W93687  42.734  43.955   3.195
28527W        W93688  20.832  21.335  14.770
28528W        W93689  22.204  29.508   1.334
28529W        W93690  43.409  20.761   0.293
28530W        W93691  24.794  27.892  10.657
28531W        W93692  18.587  25.844  11.167
28532W        W93693  41.494  18.199   4.877
28533W        W93694  25.598  10.100   0.501
28534W        W93695   5.996   8.826   1.037
28535W        W93696  35.140   8.415   1.839
28536W        W93697  33.335  20.973  14.500
28537W        W93698   8.224  23.344   4.184
28538W        W93699  36.325  32.930  12.461
28539W        W93700  34.827  11.877   5.094
28540W        W93701  22.001   7.456  13.299
28541W        W93702  11.598   2.984  14.340
28542W        W93703  10.010  33.451  13.828
28543W        W93704  43.308  17.664  12.848
28544W        W93705  17.096  44.408  12.475
28545W        W93706   0.629   3.995  10.953
28546W        W93707  30.655  15.106  10.700
28547W        W93708   2.364   7.658  10.521
28548W        W93709  34.448   8.922  14.007
28549W        W93710  33.436   3.678   2.406
28550W        W93711  15.215  21.593  13.091
28551W        W93712  42.665  38.069  14.661
28552W        W93713  23.022  12.360  13.523
28553W        W93714  33.052  37.935  14.541
28554W        W93715  13.096  27.419  12.088
28555W        W93716  12.758  34.599  13.553
28556W        W93717  35.321   0.035   4.090
28557W        W93718  20.697  39.362  10.831
28558W        W93719  42.108   0.701  12.420
28559W        W93720  40.080   9.298   0.538
28560W        W93721  35.320  28.586  10.498
28561W        W93722  29.177  30.978   4.748
28562W        W93723   6.589  39.085  13.903
28563W        W93724  15.351   6.857   1.951
28564W        W93725  22.650  16.886   1.437
28565W        W93726  17.981   5.663  11.989
28566W        W93727  16.046  12.347   2.178
28567W        W93728  13.225   5.727   4.058
28568W        W93729   0.481   2.699   2.845
28569W        W93730   2.204  16.314  12.956
28570W        W93731  38.618   6.703  14.482
28571W        W93732  39.596  29.909   4.133
28572W        W93733  32.861  27.216  14.401
28573W        W93734  21.152  19.019  12.859
28574W        W93735   9.881   1.692  14.793
28575W        W93736  32.420   8.535   2.872
28576W        W93737  11.719   3.486  14.272
28577W        W93738  12.698  37.850   3.325
28578W        W93739  37.348  30.269   3.742
28579W        W93740  28.954  31.841  14.541
28580W        W93741  24.083  21.639   1.013
28581W        W93742   5.198  34.606  13.998
28582W        W93743  14.278  40.450  10.638
28583W        W93744   7.898  43.012  11.969
28584W        W93745  42.086  43.438   0.302
28585W        W93746  17.718   7.616  11.185
28586W        W93747  14.751  13.727   4.050
28587W        W93748  22.462  34.208  11.990
28588W        W93749  25.070  38.552   0.079
28589W        W93750  25.586  24.908   0.705
28590W        W93751   2.964   1.219   4.112
28591W        W93752  15.660   7.351   2.823
28592W        W93753   7.718  26.097  10.154
28593W        W93754  43.138  33.203   3.195
28594W        W93755  17.804   0.106  13.147
28595W        W93756  16.222  33.688  13.529
28596W        W93757   5.851   0.755   3.654
28597W        W93758  28.233  14.914  11.120
28598W        W93759  17.279   3.434   0.392
28599W        W93760  16.533  30.380   4.129
28600W        W93761  24.480   8.295   2.649
28601W        W93762   5.801  26.537  12.944
28602W        W93763  28.011  24.739  13.004
28603W        W93764  22.748  43.019  13.949
28604W        W93765  22.786   9.103   0.737
28605W        W93766  19.799  24.424  12.904
28606W        W93767  40.161  41.642  11.484
28607W        W93768  23.630  12.716   4.659
28608W        W93769  43.359  19.969  14.888
28609W        W93770  23.755  38.447  14.689
28610W        W93771  18.618  18.254  11.554
28611W        W93772  20.065  29.940   3.304
28612W        W93773  39.656  19.584   2.985
28613W        W93774  10.844  42.772   0.743
28614W        W93775  10.267  16.153  11.043
28615W        W93776  12.814  24.206  11.090
28616W        W93777   0.405  42.618  11.743
28617W        W93778  17.814  42.541   1.346
28618W        W93779  35.359   0.925   4.490
28619W        W93780  32.448  22.054   4.601
28620W        W93781  12.241  44.232  11.936
28621W        W93782  26.487  43.853   4.776
28622W        W93783  13.654  42.803   0.030
28623W        W93784  36.884  14.360   4.155
28624W        W93785  35.361  38.380   3.106
28625W        W93786  44.945   9.578   2.898
28626W        W93787  19.701  23.867  10.217
28627W        W93788  12.913  27.145   3.239
28628W        W93789   5.249   2.437   2.824
28629W        W93790  38.412  25.678  11.159
28630W        W93791   2.732  19.785  12.347
28631W        W93792  38.379   8.935  12.096
28632W        W93793  30.921  22.217  12.162
28633W        W93794  36.034  15.959   4.860
28634W        W93795  44.718  32.621  12.874
28635W        W93796  13.823   1.263   3.533
28636W        W93797   1.493   2.863  13.757
28637W        W93798  30.099  22.437  12.089
28638W        W93799  33.582  21.220  10.687
28639W        W93800  14.741  32.487  13.240
28640W        W93801  15.332  30.894   1.873
28641W        W93802  42.391  17.299   1.473
28642W        W93803  28.604   2.359   4.509
28643W        W93804  32.717  26.428  11.997
28644W        W93805  25.491  41.114  12.900
28645W        W93806  10.753   7.021   1.393
28646W        W93807  25.509  40.502   3.232
28647W        W93808  40.803  19.617  12.003
28648W        W93809  36.808  34.057  11.760
28649W        W93810  43.579  43.595   0.389
28650W        W93811   4.462  33.792  10.692
28651W        W93812  18.608  44.744   1.357
28652W        W93813  14.142  24.562  13.324
28653W        W93814  41.239  36.098  11.223
28654W        W93815  44.897   4.016  11.576
28655W        W93816  43.277  29.601   0.181
28656W        W93817   2.773  36.438   0.225
28657W        W93818   4.697  40.531   1.296
28658W        W93819  18.636   7.700  14.565
28659W        W93820  31.935  24.672   4.446
28660W        W93821  15.378  23.790  10.924
28661W        W93822  32.628  42.810   0.044
28662W        W93823  10.282  41.727  10.764
28663W        W93824   2.391  31.226   4.546
28664W        W93825  29.431   0.390  11.679
28665W        W93826  12.328  39.370  11.126
28666W        W93827  41.990  35.037   3.270
28667W        W93828   7.785   5.023  10.419
28668W        W93829  32.056  38.778  12.752
28669W        W93830  37.794  42.449   3.465
28670W        W93831  23.104  40.329  13.998
28671W        W93832  21.806   4.310   2.590
28672W        W93833   7.761   7.629  12.941
28673W        W93834  15.545   0.198   1.369
28674W        W93835  38.359  35.475   4.152
28675W        W93836  33.815   7.259   1.262
28676W        W93837   3.400  25.696   3.201
28677W        W93838  15.075   2.199  10.550
28678W        W93839  35.145   6.695  13.475
28679W        W93840  14.547  37.491  13.846
28680W        W93841  29.135  10.447   3.240
28681W        W93842  41.116  10.784   4.021
28682W        W93843  16.622  40.363  14.689
28683W        W93844  20.532  38.790  13.925
28684W        W93845  16.818   5.174  11.844
28685W        W93846   0.707  34.573   1.376
28686W        W93847  14.717  22.681  11.226
28687W        W93848  35.306  28.009  11.856
28688W        W93849  16.961  20.747  10.760
28689W        W93850  22.620  15.779   2.177
28690W        W93851  16.837  29.049   3.318
28691W        W93852  26.636  33.836  11.740
28692W        W93853   0.885  12.203  14.267
28693W        W93854   4.228  22.544  11.415
28694W        W93855  13.108  26.782  11.457
28695W        W93856  31.408   3.695  12.519
28696W        W93857  17.801  41.550  12.525
28697W        W93858   1.928  35.010  14.421
28698W        W93859   7.851  33.454  12.353
28699W        W93860   1.370   4.681  13.991
28700W        W93861  33.628  20.993   0.949
28701W        W93862  22.482  22.914  13.820
28702W        W93863  15.529  26.347  12.729
28703W        W93864  32.931  13.873  12.519
28704W        W93865  17.154  38.190  14.302
28705W        W93866  44.451  19.965  12.341
28706W        W93867  15.284   0.396   4.150
28707W        W93868  44.826  26.811  12.454
28708W        W93869   8.139  30.546  12.597
28709W        W93870  26.893  44.122  12.954
28710W        W93871   6.987  43.340   0.817
28711W        W93872  21.105   1.172   1.186
28712W        W93873  30.681  22.897   4.041
28713W        W93874  31.383   1.003   4.203
28714W        W93875  37.930  35.166  14.479
28715W        W93876   4.829  36.624   0.438
28716W        W93877  28.014  25.158  13.480
28717W        W93878  16.618  15.693  12.916
28718W        W93879  14.945  28.995   9.985
28719W        W93880  35.612  39.861  11.592
28720W        W93881  14.186  38.879   2.880
28721W        W93882  20.659  33.632  12.147
28722W        W93883   0.526   7.483   0.514
28723W        W93884   0.421   0.322  13.727
28724W        W93885  12.753  44.914  13.575
28725W        W93886  36.039   6.508   1.323
28726W        W93887  27.951  13.165   4.459
28727W        W93888  42.915  32.445  13.879
28728W        W93889  24.170  26.913  14.014
28729W        W93890   7.348  27.224   3.095
28730W        W93891  12.262  34.197   3.143
28731W        W93892  21.905  14.881  10.878
28732W        W93893  14.056  12.345  12.110
28733W        W93894  20.298  33.106  12.590
28734W        W93895   3.267   7.292   2.654
28735W        W93896  44.381   7.348  13.379
28736W        W93897  23.929   1.013   2.601
28737W        W93898  25.450  42.491  14.346
28738W        W93899  35.607  19.618   0.276
28739W        W93900   5.831  26.862  14.347
28740W        W93901   9.539  28.144  11.546
28741W        W93902   5.665  33.609   3.263
28742W        W93903   1.031   0.968  14.988
28743W        W93904  41.016  24.469   3.376
28744W        W93905  14.617  43.585  14.766
28745W        W93906  16.638  35.053  11.452
28746W        W93907  22.021  20.025   3.207
28747W        W93908  35.825  36.531   3.247
28748W        W93909  41.688  14.092  11.553
28749W        W93910  26.271  12.296   2.838
28750W        W93911  40.832  10.718  14.286
28751W        W93912   0.798  23.681   2.805
28752W        W93913   1.743   2.504  11.160
28753W        W93914  36.016  34.912   1.832
28754W        W93915  20.135  40.994   4.137
28755W        W93916   1.355  25.043  10.719
28756W        W93917  13.320   4.291   0.456
28757W        W93918   5.128  33.202  11.910
28758W        W93919  24.922  38.011   3.156
28759W        W93920  23.794  36.093   0.862
28760W        W93921  24.981  19.425   1.802
28761W        W93922  43.733  24.995   0.324
28762W        W93923  28.693  38.558   1.983
28763W        W93924  40.808  33.517  13.899
28764W        W93925  33.862  17.021   2.742
28765W        W93926  42.437  40.029  14.572
28766W        W93927  40.959  33.830   4.548
28767W        W93928   6.278  29.046   4.519
28768W        W93929   5.729  44.392   1.440
28769W        W93930  41.754   6.122   1.954
28770W        W93931  24.604  22.420  12.485
28771W        W93932  19.589  18.317  12.431
28772W        W93933  42.997  15.740  13.978
28773W        W93934  19.124  30.931  11.987
28774W        W93935  32.876  17.231   1.275
28775W        W93936   6.298  20.090   3.566
28776W        W93937  19.840   3.855  12.201
28777W        W93938  31.752  16.922  13.530
28778W        W93939  12.770  13.614   0.344
28779W        W93940   4.056  27.558  13.023
28780W        W93941   5.780   7.092  12.901
28781W        W93942  24.308   5.155   1.178
28782W        W93943  34.498  44.334  13.884
28783W        W93944  39.245   5.829   0.563
28784W        W93945  43.913  29.647  10.678
28785W        W93946   7.225  23.365   4.209
28786W        W93947  37.563  16.487  13.482
28787W        W93948  21.612   6.887  14.991
28788W        W93949  36.908  23.485   4.140
28789W        W93950  17.220  14.840  12.309
28790W        W93951  42.749   9.809   1.750
28791W        W93952  19.159  17.836   2.815
28792W        W93953  24.423   7.664  11.259
28793W        W93954  16.866  43.566   1.475
28794W        W93955  24.918  36.474   2.196
28795W        W93956  15.341  32.720  14.898
28796W        W93957   4.216  32.036  11.549
28797W        W93958  16.109  11.098  13.427
28798W        W93959  29.605  15.613  13.980
28799W        W93960  20.152  25.460   0.738
28800W        W93961   4.098  21.553  12.002
28801W        W93962  33.684  37.780   9.797
28802W        W93963  37.753   0.769  11.325
28803W        W93964  34.999   9.217   3.926
28804W        W93965  28.586  41.848  13.640
28805W        W93966  10.109   0.861   2.546
28806W        W93967  28.357  17.687  12.636
28807W        W93968  33.015  34.890   4.997
28808W        W93969   8.189  35.580  12.431
28809W        W93970   1.091   3.745   4.273
28810W        W93971  16.755   8.723   5.038
28811W        W93972  21.345  32.394  11.636
28812W        W93973  15.595  17.117  10.740
28813W        W93974  41.544  10.518   4.124
28814W        W93975  29.380  41.023  11.505
28815W        W93976   9.638  40.797   0.447
28816W        W93977   5.908   6.297   1.302
28817W        W93978   9.561  34.480   0.422
28818W        W93979  37.090  21.225  10.310
28819W        W93980  44.778  10.347   1.323
28820W        W93981  23.961  36.456   3.836
28821W        W93982  10.715   1.993   4.569
28822W        W93983  34.404  25.244   0.994
28823W        W93984  34.039  33.385   4.108
28824W        W93985  31.481  35.865  13.945
28825W        W93986  31.172  16.046   4.018
28826W        W93987  10.877   8.758   5.102
28827W        W93988  13.222  40.066   1.447
28828W        W93989  40.433  33.867  13.854
28829W        W93990  17.694  24.579  11.990
28830W        W93991  26.643  35.636  10.737
28831W        W93992  11.525   1.685   2.384
28832W        W93993  13.413   3.078   1.326
28833W        W93994  14.088  21.107  13.338
28834W        W93995  38.833  38.035   0.871
28835W        W93996  13.661  36.346   2.005
28836W        W93997   0.246   3.655  12.942
28837W        W93998  13.841  32.135  10.314
28838W        W93999  19.698  29.323   2.924
28839W        W94000  32.175  28.152   2.383
28840W        W94001   3.658  27.697  14.510
28841W        W94002  38.028  22.570   0.286
28842W        W94003  42.530  42.966  11.510
28843W        W94004  36.365  44.798   4.076
28844W        W94005  37.026  29.473  14.563
28845W        W94006  25.217  44.364  14.740
28846W        W94007  14.327  25.603   4.301
28847W        W94008   5.441  29.621   3.717
28848W        W94009  43.710  13.075   5.537
28849W        W94010   7.423  33.332   4.482
28850W        W94011  42.919   3.107  12.035
28851W        W94012   9.317  32.945   1.072
28852W        W94013  15.868   4.748   0.956
28853W        W94014   6.440  33.066   2.239
28854W        W94015  22.030  16.763   0.763
28855W        W94016  15.812  30.485  12.465
28856W        W94017  27.760   7.853  13.313
28857W        W94018   7.342  24.600   2.757
28858W        W94019  36.755  12.425  10.331
28859W        W94020  31.515  19.439   2.117
28860W        W94021  38.921  35.816   0.250
28861W        W94022  21.525   2.250   1.753
28862W        W94023  38.933  37.268   0.490
28863W        W94024  37.351  21.078  13.939
28864W        W94025  28.568  29.003   0.801
28865W        W94026  28.431  13.617   3.089
28866W        W94027  12.640   5.311  10.435
28867W        W94028  44.158  19.680   3.686
28868W        W94029  11.584  34.154   2.371
28869W        W94030  24.134  15.321   2.357
28870W        W94031  13.220   2.413  13.937
28871W        W94032  12.386  17.702   2.477
28872W        W94033   3.506  32.935   1.344
28873W        W94034  32.903  16.120  10.498
28874W        W94035  12.218  41.542  13.932
28875W        W94036   4.373  16.716  13.250
28876W        W94037  29.581  23.468  14.380
28877W        W94038  26.240  39.575  11.134
28878W        W94039   1.279   8.154   0.566
28879W        W94040   0.743  43.322   1.630
28880W        W94041   5.902  44.474  14.952
28881W        W94042  31.625   0.551  14.952
28882W        W94043  32.855  32.070   0.284
28883W        W94044  22.888  14.471  11.030
28884W        W94045  37.054   3.187  12.414
28885W        W94046  21.634  31.407   2.840
28886W        W94047  10.690  36.033   0.887
28887W        W94048  29.406   6.373  13.953
28888W        W94049  12.141   8.752   4.852
28889W        W94050  39.958  43.910  10.272
28890W        W94051   3.485  26.103  13.595
28891W        W94052  24.153   0.811  10.326
28892W        W94053  18.868  44.928   2.164
28893W        W94054   9.138  23.234  11.978
28894W        W94055  43.516   4.383  13.905
28895W        W94056  27.020  27.453   4.736
28896W        W94057  37.584  39.358   1.886
28897W        W94058   3.335  24.878  13.435
28898W        W94059  40.639  35.297  10.455
28899W        W94060  25.458  15.031   0.981
28900W        W94061  36.865  26.734  11.407
28901W        W94062   1.464  11.138   2.117
28902W        W94063  12.025  33.899  11.146
28903W        W94064  25.488   1.343  10.314
28904W        W94065  18.042   6.026   0.400
28905W        W94066   9.217  29.101  11.217
28906W        W94067  26.034  35.456   3.377
28907W        W94068  24.678  10.558  12.199
28908W        W94069  19.567  40.708  12.617
28909W        W94070   0.156  24.604   4.662
28910W        W94071  40.437  35.517  10.859
28911W        W94072  31.424  28.185  10.914
28912W        W94073  18.366  34.356   4.619
28913W        W94074  17.269   0.934   1.429
28914W        W94075  34.807  40.613  13.345
28915W        W94076   9.392   5.261  14.335
28916W        W94077  18.086   8.729   3.238
28917W        W94078  18.618   4.041  13.777
28918W        W94079  33.855  23.040  12.558
28919W        W94080  36.396   2.881   1.775
28920W        W94081   6.484  16.282  10.227
28921W        W94082  22.046  30.629   3.753
28922W        W94083  29.950   9.242  13.563
28923W        W94084  23.904  23.416  12.635
28924W        W94085   1.439   2.950  12.229
28925W        W94086  33.544  34.940   4.240
28926W        W94087   3.319  37.789   0.988
28927W        W94088   2.941  37.006  13.934
28928W        W94089   8.438  21.998   2.292
28929W        W94090  14.671  16.118   1.885
28930W        W94091  19.505  19.242  11.515
28931W        W94092  16.549  29.026  14.178
28932W        W94093  13.735  18.065  13.927
28933W        W94094   1.922  15.746  12.628
28934W        W94095  42.700   4.339  14.347
28935W        W94096   0.999  11.918  12.536
28936W        W94097  35.734  28.061  12.126
28937W        W94098  32.968  29.191   2.813
28938W        W94099  28.421  19.740   3.719
28939W        W94100   4.311  13.539  12.462
28940W        W94101  36.971   8.127   3.097
28941W        W94102  37.990  13.174   4.491
28942W        W94103  27.121   6.967   4.136
28943W        W94104  35.900  32.408   2.763
28944W        W94105  44.408  36.900   4.414
28945W        W94106  29.430  29.671   5.077
28946W        W94107   0.856   5.658   3.623
28947W        W94108  21.808  24.976  12.994
28948W        W94109  30.879  17.958  11.120
28949W        W94110  37.484  18.240  10.985
28950W        W94111   1.869  36.614   3.172
28951W        W94112  31.983  17.836  13.455
28952W        W94113   7.580  22.654  12.807
28953W        W94114  11.271  29.992  14.057
28954W        W94115  17.544  28.323  11.941
28955W        W94116   1.889   2.218   2.823
28956W        W94117   0.303  38.598  14.570
28957W        W94118   4.719  41.357  12.434
28958W        W94119  20.769  28.367   3.553
28959W        W94120   8.088  15.848  14.911
28960W        W94121   3.825  22.331   0.957
28961W        W94122  13.269   0.051   4.100
28962W        W94123  16.134  31.160  12.097
28963W        W94124  20.572   6.724   4.220
28964W        W94125   7.725  39.184  14.550
28965W        W94126  43.737   9.180  11.622
28966W        W94127  20.074  16.008  13.831
28967W        W94128  40.848  11.264   3.331
28968W        W94129   4.687   2.245   1.677
28969W        W94130  35.840   2.945   1.925
28970W        W94131  22.437  44.954   1.770
28971W        W94132   1.538  38.178  12.152
28972W        W94133  28.604  16.111  13.694
28973W        W94134  30.138  33.699  13.411
28974W        W94135  29.899   2.416   2.190
28975W        W94136  25.843  44.248  12.075
28976W        W94137  36.373  21.634  14.727
28977W        W94138   5.315  18.263  13.983
28978W        W94139  10.672  36.342   2.250
28979W        W94140  10.359  28.622  12.463
28980W        W94141  14.675   7.895   2.642
28981W        W94142  14.126  26.379  13.002
28982W        W94143  32.573  30.400   3.487
28983W        W94144  23.350   4.572   1.895
28984W        W94145  28.664  12.762  11.125
28985W        W94146  30.103  11.135   2.781
28986W        W94147  16.955   1.935  10.802
28987W        W94148  20.173   9.446  12.391
28988W        W94149  36.029  20.007  12.018
28989W        W94150  10.101   1.928   4.561
28990W        W94151  23.480  30.942   1.745
28991W        W94152  16.355  14.224  14.270
28992W        W94153  39.050   4.928  13.254
28993W        W94154  15.026  44.224  10.272
28994W        W94155  15.281  44.293  14.823
28995W        W94156   7.866  30.775  11.399
28996W        W94157  32.951  22.543  12.590
28997W        W94158  15.623  37.904   4.634
28998W        W94159  15.298  13.136   0.915
28999W        W94160  18.691  39.392   2.860
29000W        W94161  24.787   2.352   1.389
29001W        W94162  23.656  22.721  14.500
29002W        W94163  37.124  13.443  11.592
29003W        W94164   5.415  33.036   2.154
29004W        W94165  17.856  44.281   3.725
29005W        W94166   7.310  15.150  14.728
29006W        W94167   2.813   9.237   2.797
29007W        W94168   7.259   5.550   3.766
29008W        W94169  28.449   6.365   1.549
29009W        W94170  12.956  16.115   2.848
29010W        W94171  23.620  13.947  14.481
29011W        W94172  42.538   0.946   0.562
29012W        W94173  16.614  28.775  11.973
29013W        W94174  33.052  35.142   1.940
29014W        W94175  44.264  21.527   3.723
29015W        W94176   1.469  42.322  14.028
29016W        W94177  40.426  16.120  14.283
29017W        W94178  23.596  34.371   2.264
29018W        W94179   4.365  34.094   0.215
29019W        W94180  23.927  34.522  13.449
29020W        W94181  13.214   5.602   2.095
29021W        W94182  34.451  11.903   3.745
29022W        W94183  26.521  16.562  11.540
29023W        W94184  15.547  11.048  12.989
29024W        W94185  13.805   9.884   3.265
29025W        W94186   7.969  18.845  11.079
29026W        W94187  32.559  14.197  13.868
29027W        W94188  35.423   7.189  13.976
29028W        W94189  34.281  44.696  10.638
29029W        W94190  41.051  41.394  11.973
29030W        W94191  38.161  26.804   1.499
29031W        W94192   1.377  17.325   1.763
29032W        W94193  27.462  28.009  11.076
29033W        W94194  32.488  26.950  12.114
29034W        W94195  24.550  27.459  12.161
29035W        W94196  22.154  33.802  12.531
29036W        W94197  37.040  37.308   4.587
29037W        W94198   6.434   7.876  12.217
29038W        W94199  35.057  39.086  12.467
29039W        W94200  11.656  23.988  10.455
29040W        W94201  44.829  28.248  11.056
29041W        W94202  40.647  15.634  14.973
29042W        W94203  14.627  10.439   1.249
29043W        W94204  17.712   6.533   1.030
29044W        W94205  39.645  33.137   1.214
29045W        W94206   0.411   9.765   2.636
29046W        W94207  37.342  34.577  11.157
29047W        W94208  21.751  28.643  13.962
29048W        W94209  17.903  16.119  12.899
29049W        W94210  11.067   1.458  11.131
29050W        W94211  21.643  23.974   0.251
29051W        W94212   3.572  37.684   0.453
29052W        W94213  43.601  25.202   1.915
29053W        W94214  26.488  29.447   4.263
29054W        W94215  32.293  29.348   4.535
29055W        W94216  10.333  17.530   0.330
29056W        W94217  32.595  15.359   1.622
29057W        W94218  36.142   5.827  13.512
29058W        W94219  20.113  36.502  12.312
29059W        W94220  36.513  35.132  13.455
29060W        W94221  23.491  44.318   0.352
29061W        W94222  43.530  39.503   2.366
29062W        W94223  41.784   4.764  12.024
29063W        W94224  44.855   7.837  14.817
29064W        W94225  31.519  17.229  12.660
29065W        W94226  36.318  19.066   1.578
29066W        W94227  29.876  35.498   3.827
29067W        W94228  29.276  35.539   4.070
29068W        W94229  25.222   6.955   2.773
29069W        W94230  22.785  23.556  11.719
29070W        W94231   8.584  39.404   0.930
29071W        W94232  44.290  26.813   0.843
29072W        W94233  31.592   4.403   2.294
29073W        W94234  31.566  30.891   0.958
29074W        W94235  43.458  39.033  12.529
29075W        W94236   6.787  39.970  12.825
29076W        W94237  41.046  19.741   4.601
29077W        W94238  38.348  43.248  14.919
29078W        W94239  14.674   8.946   1.781
29079W        W94240  11.822  38.870   0.826
29080W        W94241  39.555   9.580  14.343
29081W        W94242   6.886  44.204  14.731
29082W        W94243   2.795  43.603  11.154
29083W        W94244  22.576   3.704   4.106
29084W        W94245  34.553  43.839   4.486
29085W        W94246  21.498   0.249   1.860
29086W        W94247   7.540  23.233   3.803
29087W        W94248   5.426  35.914   1.735
29088W        W94249  12.119  40.108  11.470
29089W        W94250   1.286   8.898   3.696
29090W        W94251  22.664  37.142   3.396
29091W        W94252   3.289  17.796   1.941
29092W        W94253   8.232  24.587   4.648
29093W        W94254  28.122   6.604  13.696
29094W        W94255  20.979  17.336   5.218
29095W        W94256   0.767  18.516   4.163
29096W        W94257  18.628  33.584  10.764
29097W        W94258   5.277  34.941  14.371
29098W        W94259  20.267  31.784  10.622
29099W        W94260  17.075  10.565  10.445
29100W        W94261  15.575   4.759  11.996
29101W        W94262  36.087  29.527   2.291
29102W        W94263   6.204   9.322   2.350
29103W        W94264  22.285  13.537   1.050
29104W        W94265  23.656  38.525  12.578
29105W        W94266   9.758  34.877  14.036
29106W        W94267  25.878  12.921   2.296
29107W        W94268   2.864   3.433   2.444
29108W        W94269  34.601   2.641  13.448
29109W        W94270  43.689  21.773   1.273
29110W        W94271   3.225  10.909   1.538
29111W        W94272  33.080   2.253  14.942
29112W        W94273  17.795  44.373   2.773
29113W        W94274   2.259  19.252  11.910
29114W        W94275  36.988   2.524   4.438
29115W        W94276  22.613   5.327   1.894
29116W        W94277  31.927  36.141   4.572
29117W        W94278  33.966  17.368  14.013
29118W        W94279  38.714   2.415   3.126
29119W        W94280  38.498  42.234  14.355
29120W        W94281  15.530  29.653  11.254
29121W        W94282  25.882  14.340  13.490
29122W        W94283  44.418  31.529  10.794
29123W        W94284  17.246  10.126   1.951
29124W        W94285   2.227  18.273  11.981
29125W        W94286  41.735  15.548   1.236
29126W        W94287  14.756  38.385  14.409
29127W        W94288  24.977  13.791  12.064
29128W        W94289  14.962  41.562  12.897
29129W        W94290  41.423  24.129  11.767
29130W        W94291  27.032  34.877   0.370
29131W        W94292  23.758   2.286   2.636
29132W        W94293  18.326  20.728   3.202
29133W        W94294  23.073  18.706   1.774
29134W        W94295  24.164  30.936   3.815
29135W        W94296  30.076  10.527   4.707
29136W        W94297  30.960  30.945  11.325
29137W        W94298  22.658  19.557   4.619
29138W        W94299  20.313  31.673   4.639
29139W        W94300  23.799  28.339  12.916
29140W        W94301  25.860  44.632  11.701
29141W        W94302  27.690  42.007  10.706
29142W        W94303  13.492  34.660   3.241
29143W        W94304  24.946  26.483  13.537
29144W        W94305   5.900  12.756   3.216
29145W        W94306  42.335  35.135   2.886
29146W        W94307  11.311  32.887   2.775
29147W        W94308  43.791  13.635   1.974
29148W        W94309  38.099  28.155  11.712
29149W        W94310  42.612  18.598   2.232
29150W        W94311  38.669   3.792  13.381
29151W        W94312  41.881  21.333   5.076
29152W        W94313  12.150   0.896   2.786
29153W        W94314  27.064  36.771   3.882
29154W        W94315  38.587   4.811  12.980
29155W        W94316   4.210  12.110   1.379
29156W        W94317  14.808  15.223   4.184
29157W        W94318  16.251  44.287   2.719
29158W        W94319  41.700  15.820  14.286
29159W        W94320   9.587  28.228  12.501
29160W        W94321  38.006  42.305  12.287
29161W        W94322   2.695  44.108  11.140
29162W        W94323  13.454  39.595  14.870
29163W        W94324  33.374   5.762   2.774
29164W        W94325  31.131  31.497  11.522
29165W        W94326  25.706  33.576  12.679
29166W        W94327  29.966  34.251   0.991
29167W        W94328  28.380  15.171  14.047
29168W        W94329  41.968  41.936   2.813
29169W        W94330  18.652  35.193   3.438
29170W        W94331  11.799   1.808  14.225
29171W        W94332   3.837   3.870  10.601
29172W        W94333  21.786  36.574  11.608
29173W        W94334  43.830  44.643   3.352
29174W        W94335  37.887  28.597  14.613
29175W        W94336  15.275  16.089   1.322
29176W        W94337  30.988  39.967  12.474
29177W        W94338  33.882  32.570  11.982
29178W        W94339   1.929  33.346  14.044
29179W        W94340  20.511  13.277  14.916
29180W        W94341  22.507  30.006  10.729
29181W        W94342  32.634  30.730  13.797
29182W        W94343   6.963  41.770  10.623
29183W        W94344  41.109   2.038   3.153
29184W        W94345  15.796  38.717  14.296
29185W        W94346  39.835  28.536  10.696
29186W        W94347  23.519  12.208  12.607
29187W        W94348   6.803  22.011  12.516
29188W        W94349  24.512  15.482  13.447
29189W        W94350  30.260   4.215  13.343
29190W        W94351  10.222  36.750   1.008
29191W        W94352  18.737   3.218   4.603
29192W        W94353  39.927  42.134  14.831
29193W        W94354  37.577   0.013  13.476
29194W        W94355  29.621  30.554  12.246
29195W        W94356  36.130  38.127   2.291
29196W        W94357  41.271  10.904  11.611
29197W        W94358  30.330  41.271  13.173
29198W        W94359  12.334  23.074   4.521
29199W        W94360  43.196   1.556   2.537
29200W        W94361  20.736  29.628   3.730
29201W        W94362  19.176  18.154   0.863
29202W        W94363  36.497  35.001   1.450
29203W        W94364  25.518  31.028  10.674
29204W        W94365  24.677  30.571  13.977
29205W        W94366  42.037   6.026   3.186
29206W        W94367  32.264  24.136   3.638
29207W        W94368  17.014   8.750   2.134
29208W        W94369  31.070   0.310  11.271
29209W        W94370  15.619  31.146  12.134
29210W        W94371  39.000  44.429  12.058
29211W        W94372  20.781  26.969  13.424
29212W        W94373  12.588  21.067  11.143
29213W        W94374  43.088  33.091   0.788
29214W        W94375  17.009  34.966   0.044
29215W        W94376   1.134   6.799  11.439
29216W        W94377  20.760  22.952   2.316
29217W        W94378  30.805  12.277   3.752
29218W        W94379  30.595  44.527   2.192
29219W        W94380  28.412   0.553   2.685
29220W        W94381   4.178  27.799  11.250
29221W        W94382  36.367  19.605   0.779
29222W        W94383  16.712  36.599   4.127
29223W        W94384  40.534  33.525   1.515
29224W        W94385  43.997  15.514   3.255
29225W        W94386  38.255  19.170   4.428
29226W        W94387  15.315  29.069  13.478
29227W        W94388   7.277  33.007  10.698
29228W        W94389  31.604   7.970  10.820
29229W        W94390  16.227  41.959  12.592
29230W        W94391   6.003  35.051   1.485
29231W        W94392  38.523  28.325   1.286
29232W        W94393  32.652  44.600  10.155
29233W        W94394  36.545  41.558   2.339
29234W        W94395  43.758  15.917  13.284
29235W        W94396  42.414  27.537   4.102
29236W        W94397  14.312  42.215  12.502
29237W        W94398  22.495   1.521  10.064
29238W        W94399  24.933  44.793  14.450
29239W        W94400   9.645   1.418  11.665
29240W        W94401  18.031   1.699   3.188
29241W        W94402  21.832   4.855   2.466
29242W        W94403  36.811  10.271  10.574
29243W        W94404  44.489  14.368   3.695
29244W        W94405  34.257  22.445  12.307
29245W        W94406  43.798  36.052  11.894
29246W        W94407  37.571  19.756  12.982
29247W        W94408  44.533  38.356  12.060
29248W        W94409  37.343  19.320  14.965
29249W        W94410   9.071   4.875  10.667
29250W        W94411  33.598  35.040  11.145
29251W        W94412   3.237  29.507  14.338
29252W        W94413  14.324  22.803   4.710
29253W        W94414  19.302   7.987   3.619
29254W        W94415   2.017  33.543   1.886
29255W        W94416  33.644  35.868   0.326
29256W        W94417  19.040  18.531  13.600
29257W        W94418  25.455   3.330  11.606
29258W        W94419  34.586  43.220  12.058
29259W        W94420  17.104  28.887  11.841
29260W        W94421  42.462  43.372   4.596
29261W        W94422  15.290  37.114  13.561
29262W        W94423  21.687   7.249   2.656
29263W        W94424  44.231  14.784   3.960
29264W        W94425  27.913  18.448  10.112
29265W        W94426  23.512  32.966   0.310
29266W        W94427  40.023  24.834   1.733
29267W        W94428  37.439  41.791   0.994
29268W        W94429   5.924  10.300  13.094
29269W        W94430  23.111  19.047   2.242
29270W        W94431  28.216   3.288  14.846
29271W        W94432   5.155  33.527  11.462
29272W        W94433  13.713  21.092   0.243
29273W        W94434   6.663  41.136   2.882
29274W        W94435   0.916  39.548   3.329
29275W        W94436  40.411  10.621  14.593
29276W        W94437  32.564   3.422   4.750
29277W        W94438  42.942  19.192   3.695
29278W        W94439  29.589  16.107   4.952
29279W        W94440  31.337  15.327   0.469
29280W        W94441  24.359  19.060  11.813
29281W        W94442   3.736  43.375  11.141
29282W        W94443  31.081  13.748  13.874
29283W        W94444  37.786  14.598   2.262
29284W        W94445  25.045  17.256   2.307
29285W        W94446  19.002  16.979  14.324
29286W        W94447   5.922   7.265   2.787
29287W        W94448  24.628  11.857   1.951
29288W        W94449  37.373  40.097  14.182
29289W        W94450   5.193  43.845   1.699
29290W        W94451  14.761  36.084   0.674
29291W        W94452  29.483   2.770  11.265
29292W        W94453   8.654  20.282   3.762
29293W        W94454   6.562  30.188  12.742
29294W        W94455  31.142  33.731  14.308
29295W        W94456  18.214  19.792  14.797
29296W        W94457  26.832  44.522   9.897
29297W        W94458  33.773  32.606   1.151
29298W        W94459   4.778  25.443  12.005
29299W        W94460  26.003  27.520   3.660
29300W        W94461  29.736  26.500  13.066
29301W        W94462  29.862  15.592  12.553
29302W        W94463  33.008  17.661  13.353
29303W        W94464  26.193  23.195  14.507
29304W        W94465  40.342   4.296  13.748
29305W        W94466  42.053  23.638   3.173
29306W        W94467  17.689  11.167  13.486
29307W        W94468  22.856  40.432  11.836
29308W        W94469  11.518  29.920  11.979
29309W        W94470  21.272  37.440  11.749
29310W        W94471  28.459  24.188   5.241
29311W        W94472   7.286  21.087  11.128
29312W        W94473   9.985  24.055  13.296
29313W        W94474  18.518  24.304   3.769
29314W        W94475   2.755  30.281  14.052
29315W        W94476  42.715  31.596   4.144
29316W        W94477  35.210   3.277  10.026
29317W        W94478  24.073  20.498  11.876
29318W        W94479  14.430  36.616   4.735
29319W        W94480  18.172  34.851   2.345
29320W        W94481  20.888  27.704   4.252
29321W        W94482  38.427  20.190  10.532
29322W        W94483  14.229  16.812  13.813
29323W        W94484   1.173  27.642   0.144
29324W        W94485  41.921   3.782  12.272
29325W        W94486  37.579   0.237  12.616
29326W        W94487  19.819  39.045   0.947
29327W        W94488  26.042  36.362   0.525
29328W        W94489  25.987  42.102  13.484
29329W        W94490  16.224  30.238   3.694
29330W        W94491   8.534  32.061   2.396
29331W        W94492  28.070  32.368   1.709
29332W        W94493  34.077  11.306  13.454
29333W        W94494  32.660   1.432  12.469
29334W        W94495  25.765  24.026   4.479
29335W        W94496  24.014  37.800   3.435
29336W        W94497  37.064  35.674  12.412
29337W        W94498  40.445  24.259   2.871
29338W        W94499   0.947  33.058   3.867
29339W        W94500  16.345   5.279  11.511
29340W        W94501   1.257  22.256   1.977
29341W        W94502   8.708   0.410   1.921
29342W        W94503  22.732  42.686   1.905
29343W        W94504   2.220   3.233  12.833
29344W        W94505  34.225  44.351  11.154
29345W        W94506  32.539  17.083  14.060
29346W        W94507  23.031  11.726  14.908
29347W        W94508  25.922  24.878  13.437
29348W        W94509  34.505  13.712  13.780
29349W        W94510  16.078   6.123   3.278
29350W        W94511   9.668  37.392  13.771
29351W        W94512  38.788  19.794  11.133
29352W        W94513  37.638  27.442   4.502
29353W        W94514  28.308  32.095  14.773
29354W        W94515  16.579  42.359  12.915
29355W        W94516  44.945  30.113   1.461
29356W        W94517  41.719  36.139   0.707
29357W        W94518   0.790  32.497   3.755
29358W        W94519  39.437  19.785  12.312
29359W        W94520  36.538  16.975  11.171
29360W        W94521   0.376  33.671   0.243
29361W        W94522  24.620  43.376   4.770
29362W        W94523   6.337  26.580  13.100
29363W        W94524  41.792  13.783  13.731
29364W        W94525   6.802  28.468   3.437
29365W        W94526  36.295  31.851  10.332
29366W        W94527  32.011   4.134  13.275
29367W        W94528  28.380  32.033  13.005
29368W        W94529   0.686  29.995  11.519
29369W        W94530  18.128  33.877   4.755
29370W        W94531  11.815  24.618  12.588
29371W        W94532  38.514   6.379   0.791
29372W        W94533  26.398  15.721   5.007
29373W        W94534  39.990   5.741   3.861
29374W        W94535  28.826   5.673   0.390
29375W        W94536  42.115  44.866  11.699
29376W        W94537   1.708  41.898   3.814
29377W        W94538  11.930  37.300  11.540
29378W        W94539  44.024  20.617  11.415
29379W        W94540  30.677  18.972  13.606
29380W        W94541  13.616  22.066   4.594
29381W        W94542  15.645  22.860   2.275
29382W        W94543  27.026  18.204   4.267
29383W        W94544  42.285  28.099   3.168
29384W        W94545   7.223  16.897   0.749
29385W        W94546  21.469  26.036   2.369
29386W        W94547  30.628   4.240   4.091
29387W        W94548   4.689   9.160   3.237
29388W        W94549  33.595  24.941   3.644
29389W        W94550  28.905  20.607  10.754
29390W        W94551  43.900   3.703  13.031
29391W        W94552   3.904  28.620   3.321
29392W        W94553  14.329   0.034  11.417
29393W        W94554  43.678  30.394   1.469
29394W        W94555  44.887  29.565  10.786
29395W        W94556  39.105  15.806  11.982
29396W        W94557  38.268  22.298  11.933
29397W        W94558  31.687  14.701   2.502
29398W        W94559  36.040   0.400   0.124
29399W        W94560  19.499  17.039   0.279
29400W        W94561  32.922  44.349   1.260
29401W        W94562  39.185  12.631   5.165
29402W        W94563   3.666  11.722   0.106
29403W        W94564  20.156  25.557   1.762
29404W        W94565  35.394   1.732  10.673
29405W        W94566  34.576  14.305   4.777
29406W        W94567   6.518  30.545   1.039
29407W        W94568  22.588  33.190  14.940
29408W        W94569  42.271  22.577  12.526
29409W        W94570  25.642   2.779   2.643
29410W        W94571  27.989  25.341   1.585
29411W        W94572   2.442   2.312   0.811
29412W        W94573   3.708  33.896   1.238
29413W        W94574  30.506   6.787  12.152
29414W        W94575  27.961  37.846  14.360
29415W        W94576  44.808  28.516   2.436
29416W        W94577  39.423  25.057  10.756
29417W        W94578  28.671   0.040  12.924
29418W        W94579  20.011  18.572  13.044
29419W        W94580   7.959  26.891   1.341
29420W        W94581   8.252  22.251  14.176
29421W        W94582  10.302  31.077  13.349
29422W        W94583   5.721   6.979   4.199
29423W        W94584  25.179  13.888   1.238
29424W        W94585   5.511  35.260  11.055
29425W        W94586  44.850  32.011   4.285
29426W        W94587  38.070  27.638   1.954
29427W        W94588  29.943  26.606   4.600
29428W        W94589  10.374  10.232  13.362
29429W        W94590   5.848  15.848   1.603
29430W        W94591   9.735  36.407   3.636
29431W        W94592  21.870  41.074  11.095
29432W        W94593  19.617  20.110   5.004
29433W        W94594  15.288  35.095   3.323
29434W        W94595  12.250  44.392   0.350
29435W        W94596  11.101  35.042  12.495
29436W        W94597   1.949  16.311   0.471
29437W        W94598  17.288  39.833  11.487
29438W        W94599  33.996  41.814  13.077
29439W        W94600  18.278   6.952   0.302
29440W        W94601   3.624  44.879  10.185
29441W        W94602  34.918   7.583  13.603
29442W        W94603  33.512   2.210   2.726
29443W        W94604   0.458  17.344   0.896
29444W        W94605  31.125  43.044  12.428
29445W        W94606  30.597  30.597  13.906
29446W        W94607  27.134  14.228  11.047
29447W        W94608  11.205  11.306  10.586
29448W        W94609  44.229  26.767   3.294
29449W        W94610   1.316   2.771   3.241
29450W        W94611  10.864   7.576  12.946
29451W        W94612  32.505  34.355  12.275
29452W        W94613  24.890   4.028  13.775
29453W        W94614  33.590  42.180   1.730
29454W        W94615  20.568  20.151  13.969
29455W        W94616  10.621  44.066   2.873
29456W        W94617   7.462  29.889  14.076
29457W        W94618  23.121  41.400  13.209
29458W        W94619  33.484  44.780  11.259
29459W        W94620   8.591   2.359  13.151
29460W        W94621  32.460  11.078   3.378
29461W        W94622  22.114   4.335  12.067
29462W        W94623   7.427   0.360  14.164
29463W        W94624   9.294  27.384  12.987
29464W        W94625  31.680  38.532   3.684
29465W        W94626   5.400   0.928   4.332
29466W        W94627   6.078   4.711  11.599
29467W        W94628  24.535  26.950   3.150
29468W        W94629   8.723  26.934  10.740
29469W        W94630  35.916  25.784  12.632
29470W        W94631  14.408  44.407   4.013
29471W        W94632  20.968   6.968   4.022
29472W        W94633  44.400   9.752  10.677
29473W        W94634  20.239  12.704   1.642
29474W        W94635  19.883  24.873  10.189
29475W        W94636  37.186   3.693   4.546
29476W        W94637  10.569  11.889  14.831
29477W        W94638  30.997  42.360   9.779
29478W        W94639  17.523   6.182   1.376
29479W        W94640  18.755  25.348  11.155
29480W        W94641  22.011  31.462   3.204
29481W        W94642  21.248  23.230   2.346
29482W        W94643  23.548  16.276   5.016
29483W        W94644  21.484  24.608  13.945
29484W        W94645  19.296  40.227   1.305
29485W        W94646  15.196  34.897  13.541
29486W        W94647  38.420  33.470   1.440
29487W        W94648   5.968  26.093  11.550
29488W        W94649  20.107   8.323   4.607
29489W        W94650  17.539  37.619  11.237
29490W        W94651   5.206  37.333   3.989
29491W        W94652   3.385  34.302   2.240
29492W        W94653   8.357  20.756  10.286
29493W        W94654  23.836  26.099  11.621
29494W        W94655  30.639  37.460   3.130
29495W        W94656  40.956  17.575   1.351
29496W        W94657  33.622  29.775   2.666
29497W        W94658  22.506  14.127   1.833
29498W        W94659  43.071  24.631   5.117
29499W        W94660  29.888   2.954   4.297
29500W        W94661   2.806   0.714  13.969
29501W        W94662   9.968  40.759   0.036
29502W        W94663  16.447  15.649   0.695
29503W        W94664  23.734  10.829  13.152
29504W        W94665   0.510  14.499   1.384
29505W        W94666  35.891  11.210   0.850
29506W        W94667  43.499  36.616  14.894
29507W        W94668  38.457  13.429   4.303
29508W        W94669  38.341  17.081  14.263
29509W        W94670  11.302   9.798   2.836
29510W        W94671  18.893  14.766   5.062
29511W        W94672  13.314  33.967   3.721
29512W        W94673  20.574  40.625  12.599
29513W        W94674  39.768  40.483   3.867
29514W        W94675   5.584  44.276   2.330
29515W        W94676  41.368  15.788  12.698
29516W        W94677  35.455  25.728  14.248
29517W        W94678  20.583  27.266   0.853
29518W        W94679   1.843  33.345  12.524
29519W        W94680  23.740  38.282  13.024
29520W        W94681   4.882  14.652  14.947
29521W        W94682  29.437  39.836   2.234
29522W        W94683  28.637  39.089   3.628
29523W        W94684  33.687  23.197  14.848
29524W        W94685  22.831   1.364   1.370
29525W        W94686  10.784   9.472   4.668
29526W        W94687  23.375  41.565  12.424
29527W        W94688   8.547  17.732  14.940
29528W        W94689  27.163  23.537  12.432
29529W        W94690   8.637  37.977   4.521
29530W        W94691   0.516  28.487   0.048
29531W        W94692  17.776  26.082  12.036
29532W        W94693   0.454  40.103   0.568
29533W        W94694  36.186  16.139  14.567
29534W        W94695  27.470  26.796  13.577
29535W        W94696  12.089   9.702   4.690
29536W        W94697  26.842  16.719   1.275
29537W        W94698  33.983   3.772  14.876
29538W        W94699  26.553  42.844  14.481
29539W        W94700  36.574  44.436   2.361
29540W        W94701  14.891  24.008  12.529
29541W        W94702  27.538  44.410   3.086
29542W        W94703  43.112  16.728  14.645
29543W        W94704  31.900  31.868   0.915
29544W        W94705  23.675   8.153  10.747
29545W        W94706  35.145  41.691   0.958
29546W        W94707  32.103  10.196   4.775
29547W        W94708  26.617  21.805  13.438
29548W        W94709  18.516  22.633  11.167
29549W        W94710  10.067  12.089   1.793
29550W        W94711  15.070  11.735  12.413
29551W        W94712  15.002  14.323  13.592
29552W        W94713   2.959  15.699  13.413
29553W        W94714  12.276  43.474   0.713
29554W        W94715  11.344  26.606   1.472
29555W        W94716  43.799  27.521   4.012
29556W        W94717  38.640  20.974   1.380
29557W        W94718  21.280  10.305  12.047
29558W        W94719  13.372  30.440   4.072
29559W        W94720   3.222  40.440  13.392
29560W        W94721   4.601  42.049  14.072
29561W        W94722  22.309  31.796  12.527
29562W        W94723  33.885  15.531  14.447
29563W        W94724  14.180   1.486  14.720
29564W        W94725  40.059  16.273  12.160
29565W        W94726   0.693  32.104   3.295
29566W        W94727  20.784  29.117   1.088
29567W        W94728  23.467  10.195  11.572
29568W        W94729  33.054   1.736   4.289
29569W        W94730  37.895  10.866   2.641
29570W        W94731   5.129  33.954   4.644
29571W        W94732   6.626   5.762  14.478
29572W        W94733  17.722  30.419   3.685
29573W        W94734  12.267  28.010  11.510
29574W        W94735  29.758  19.228  11.627
29575W        W94736  42.587  14.500  13.952
29576W        W94737   0.286  37.870   3.480
29577W        W94738  29.625   7.360  14.867
29578W        W94739  40.607   0.052   0.845
29579W        W94740   7.831  40.735   3.191
29580W        W94741  15.599  22.097  12.951
29581W        W94742  41.435  23.210   4.462
29582W        W94743  33.687  20.477   0.826
29583W        W94744  29.574   4.803   2.366
29584W        W94745  18.564  38.360   0.233
29585W        W94746   7.511  36.768  14.431
29586W        W94747  23.169  23.543  12.202
29587W        W94748  39.298   2.992   0.175
29588W        W94749  35.877  29.418  11.384
29589W        W94750   0.714  42.754   0.468
29590W        W94751  15.131  28.523  13.601
29591W        W94752  38.155  30.181  11.129
29592W        W94753  38.401  17.709   0.017
29593W        W94754  42.971  12.334  12.867
29594W        W94755  15.124  10.139  13.435
29595W        W94756  14.771   2.402   3.777
29596W        W94757   6.873   1.969   2.418
29597W        W94758  19.151  35.602   1.968
29598W        W94759   4.262  16.638  10.457
29599W        W94760  43.615  21.841  14.741
29600W        W94761  17.496  37.210  13.629
29601W        W94762  35.396  20.745   2.280
29602W        W94763  15.167   3.534   3.327
29603W        W94764   4.976   9.859  12.896
29604W        W94765  28.323  36.137   3.765
29605W        W94766  29.055  32.463  10.644
29606W        W94767  27.099  40.918   0.512
29607W        W94768  32.014  14.835  13.213
29608W        W94769   6.647   1.934  13.572
29609W        W94770  37.746  34.363   3.104
29610W        W94771  27.589  32.207   2.262
29611W        W94772   5.470  13.234  12.603
29612W        W94773  15.839  43.985   0.924
29613W        W94774   5.202  25.173   1.119
29614W        W94775  40.767  17.056   3.149
29615W        W94776  15.545  26.091  10.653
29616W        W94777  36.827  23.239  13.598
29617W        W94778  14.194  27.931   3.308
29618W        W94779   0.596  11.133   1.874
29619W        W94780  26.974  15.117   9.778
29620W        W94781  24.415  37.610   2.828
29621W        W94782  37.308  24.092   2.246
29622W        W94783  36.676  11.266  10.973
29623W        W94784   0.730  21.757   1.295
29624W        W94785  15.570   4.520  13.317
29625W        W94786  26.883  42.518  13.364
29626W        W94787  22.949  24.766  11.169
29627W        W94788  14.300   5.678   1.531
29628W        W94789  22.988   3.611   3.812
29629W        W94790  39.511   6.814   1.946
29630W        W94791  37.962  11.655  13.981
29631W        W94792   3.686  17.489   4.104
29632W        W94793   4.631   1.424   3.147
29633W        W94794  44.483  23.165   4.056
29634W        W94795  32.442  21.087  14.315
29635W        W94796  33.032  25.899   0.759
29636W        W94797  41.817  29.787   4.584
29637W        W94798  22.515  17.033   5.468
29638W        W94799  14.664   1.587   3.043
29639W        W94800  39.234   3.487   4.731
29640W        W94801  38.395   1.801  10.774
29641W        W94802   1.786   2.315   1.313
29642W        W94803   0.903  26.397  14.213
29643W        W94804  22.535  20.503  12.594
29644W        W94805  18.565  39.374  12.726
29645W        W94806  29.428  36.856  10.668
29646W        W94807  17.705  33.564   1.413
29647W        W94808  35.916   8.142   0.334
29648W        W94809  18.379  22.502   4.150
29649W        W94810  11.659   4.303  11.478
29650W        W94811  17.073  34.627  11.892
29651W        W94812  23.378  20.532  10.649
29652W        W94813   2.541  44.729  11.670
29653W        W94814  42.160  16.531  13.248
29654W        W94815   9.440  22.763  14.442
29655W        W94816  32.507  11.564   1.537
29656W        W94817   9.567  15.453  14.999
29657W        W94818   3.424   3.493  10.830
29658W        W94819  20.996  21.069   0.187
29659W        W94820   2.055   2.686  11.516
29660W        W94821   5.756   9.451  14.276
29661W        W94822  37.983  16.786   1.517
29662W        W94823   3.362  20.021   2.932
29663W        W94824  21.065   4.231   3.338
29664W        W94825   4.850   3.195   4.564
29665W        W94826  24.748  13.238   1.624
29666W        W94827   8.902  35.087   2.247
29667W        W94828  15.117  39.497  13.578
29668W        W94829  19.084  20.159  10.679
29669W        W94830  40.760  20.542  12.899
29670W        W94831  40.846  38.913  13.968
29671W        W94832  11.350  35.392  12.230
29672W        W94833   6.125  37.449  13.082
29673W        W94834  16.048  12.776  13.999
29674W        W94835  29.182  25.672  11.926
29675W        W94836  24.290  43.803   3.153
29676W        W94837  29.921  19.982   5.036
29677W        W94838  33.373   7.910  11.988
29678W        W94839   3.257   5.938  13.411
29679W        W94840  13.304  13.631   0.390
29680W        W94841  20.162  22.698  11.765
29681W        W94842  14.301  10.130  10.959
29682W        W94843  12.766  16.222   2.364
29683W        W94844   1.184  16.923   0.726
29684W        W94845  32.010  33.665   1.240
29685W        W94846   9.484  33.946  11.026
29686W        W94847  17.327  18.597  12.907
29687W        W94848  35.183  35.893  13.650
29688W        W94849  35.476  18.443   2.438
29689W        W94850  19.518  10.182  12.537
29690W        W94851  41.661  26.292   2.923
29691W        W94852  38.275   0.471  13.443
29692W        W94853  11.911  17.548   2.312
29693W        W94854  41.567   6.154   3.346
29694W        W94855  21.041  35.280   3.531
29695W        W94856  36.361   3.929   1.741
29696W        W94857  36.046  10.759   0.639
29697W        W94858  41.806   1.539   1.833
29698W        W94859  15.300  27.222   3.224
29699W        W94860  27.579   6.184  11.657
29700W        W94861   5.774  39.174   0.042
29701W        W94862  34.520  37.610   3.807
29702W        W94863  23.739   9.181   1.768
29703W        W94864   3.547   2.376   3.219
29704W        W94865  23.482   0.839   1.262
29705W        W94866  27.488  44.049   1.718
29706W        W94867   8.409   5.403  13.050
29707W        W94868  31.092  25.901  14.394
29708W        W94869  27.488  21.177  12.654
29709W        W94870   8.134  28.873   0.178
29710W        W94871   8.881  38.917  11.145
29711W        W94872   2.504   4.369   0.947
29712W        W94873  36.590  34.124   1.927
29713W        W94874   3.170   1.351   1.218
29714W        W94875  20.361  39.333  11.215
29715W        W94876  18.712  19.498  11.161
29716W        W94877  39.379  35.102  10.820
29717W        W94878  32.869  30.034   4.159
29718W        W94879  39.777  19.044   1.584
29719W        W94880  39.063  33.325  13.364
29720W        W94881   9.792  17.524  13.488
29721W        W94882   7.663  37.871  11.597
29722W        W94883  25.073  16.685   0.932
29723W        W94884  26.711   1.921   1.898
29724W        W94885  37.889  31.122  11.672
29725W        W94886   1.711  22.230  13.896
29726W        W94887  33.441  31.644   3.804
29727W        W94888   0.977  36.154   0.748
29728W        W94889   9.321  41.317  10.290
29729W        W94890  20.167  10.765   1.333
29730W        W94891  21.556  29.139  11.509
29731W        W94892   1.922  28.929  10.117
29732W        W94893  23.538  17.106   4.399
29733W        W94894  22.334   5.516  14.919
29734W        W94895  21.663   4.644  10.347
29735W        W94896   8.492  28.484   4.523
29736W        W94897  41.448  20.450  12.034
29737W        W94898  12.715  22.297   4.064
29738W        W94899  16.917  10.164   3.161
29739W        W94900  31.026   1.158   1.877
29740W        W94901  39.153  34.359   0.533
29741W        W94902  15.652  42.280   0.009
29742W        W94903  13.709  34.874   1.015
29743W        W94904  29.896  44.877   0.045
29744W        W94905  33.540  28.478  10.766
29745W        W94906  32.837  38.000   0.025
29746W        W94907  10.588  30.958   4.771
29747W        W94908  28.584  38.636   1.477
29748W        W94909  36.212  29.317  13.897
29749W        W94910  10.288  28.463   1.286
29750W        W94911  16.523  32.685  13.387
29751W        W94912   5.524   7.709  11.180
29752W        W94913   0.157  36.110  12.186
29753W        W94914   1.746  30.520   0.452
29754W        W94915   0.430  24.520  11.700
29755W        W94916  34.610  32.459   1.009
29756W        W94917  31.007  27.037   0.285
29757W        W94918  38.345   7.619   4.677
29758W        W94919   0.691  15.491  10.935
29759W        W94920   7.711  30.846  11.896
29760W        W94921  20.228  44.300  11.464
29761W        W94922  22.574  22.252   4.050
29762W        W94923  12.108  15.242  13.411
29763W        W94924   3.796  43.886   1.369
29764W        W94925  38.500  32.055   2.427
29765W        W94926   7.183  27.444   2.633
29766W        W94927  28.202   0.663   0.803
29767W        W94928  21.844  36.835   0.803
29768W        W94929   0.778   7.182   3.642
29769W        W94930  36.778  30.197  11.558
29770W        W94931  38.488  21.989   4.048
29771W        W94932  36.158   5.553  13.047
29772W        W94933   3.618   3.496  14.147
29773W        W94934  17.186   7.458   2.778
29774W        W94935  34.919  41.923  12.983
29775W        W94936  39.419  17.829   1.821
29776W        W94937  17.190   3.465  11.439
29777W        W94938   8.691  15.939   5.128
29778W        W94939   4.963  36.528  11.067
29779W        W94940  33.248  14.721  13.043
29780W        W94941  36.162  20.537   1.174
29781W        W94942   6.237  14.117   3.240
29782W        W94943   1.188   1.719  12.471
29783W        W94944  38.776  34.062   0.297
29784W        W94945  35.476  13.710  11.787
29785W        W94946  32.011  32.877   3.837
29786W        W94947  42.426  44.791  13.124
29787W        W94948   8.158   9.780  11.646
29788W        W94949   6.300  32.337   0.324
29789W        W94950  14.490  19.300   5.075
29790W        W94951  20.895  44.949  12.588
29791W        W94952  18.028  14.650   2.235
29792W        W94953  35.401  13.353   2.268
29793W        W94954   2.210  36.270   4.314
29794W        W94955  38.130  19.525   0.169
29795W        W94956  10.350  22.827  13.506
29796W        W94957  10.481  19.469  14.472
29797W        W94958  34.610  12.651   0.036
29798W        W94959  38.771  33.636  14.022
29799W        W94960  35.819  38.064  12.278
29800W        W94961  20.524  20.874  11.161
29801W        W94962  11.594  18.572  14.629
29802W        W94963  37.361  23.961   1.260
29803W        W94964  22.490  35.329   1.983
29804W        W94965  25.664  43.262   1.774
29805W        W94966  38.022  30.495   0.272
29806W        W94967   0.129   2.296  14.435
29807W        W94968  20.993  29.958   4.127
29808W        W94969  14.425  18.487  12.616
29809W        W94970  27.821  11.058  14.877
29810W        W94971  26.930  21.633   2.373
29811W        W94972   2.357  41.948   2.257
29812W        W94973  24.441  18.630   0.363
29813W        W94974  10.644   5.942  14.297
29814W        W94975  18.097  39.404  13.521
29815W        W94976   6.178   8.277  13.105
29816W        W94977  30.564   0.441  12.562
29817W        W94978  10.870  29.565  13.588
29818W        W94979  24.555  30.063   2.175
29819W        W94980   6.251  16.704  10.940
29820W        W94981  32.580  25.775   4.196
29821W        W94982  15.613  39.086   3.611
29822W        W94983  23.945  15.730   2.781
29823W        W94984   9.179   3.847   1.921
29824W        W94985  23.754  36.897  12.092
29825W        W94986   3.101  13.033  14.574
29826W        W94987  37.047   2.893  13.085
29827W        W94988  26.422  28.991  12.780
29828W        W94989  29.930   6.690   2.779
29829W        W94990   1.690  24.740   2.213
29830W        W94991  20.614   8.753   1.850
29831W        W94992  38.311  37.116  13.770
29832W        W94993  26.361  23.690  10.215
29833W        W94994   0.831   2.834  12.966
29834W        W94995   0.587  26.131  12.514
29835W        W94996   5.776  17.587  11.694
29836W        W94997  38.529  39.915  10.657
29837W        W94998   7.981  14.177  14.427
29838W        W94999  40.359  33.302  12.972
29839W        W95000  12.756  36.521   0.025
29840W        W95001  22.704  30.118  12.084
29841W        W95002  17.423  21.100   1.285
29842W        W95003  14.749  24.922   3.199
29843W        W95004  23.043  13.886  12.465
29844W        W95005   0.748   5.251   2.269
29845W        W95006  41.029  38.752   2.874
29846W        W95007  19.580  32.955  14.386
29847W        W95008  19.698   8.808  13.970
29848W        W95009  35.116   6.409  10.327
29849W        W95010  20.987  42.509  13.057
29850W        W95011  28.955  10.307   3.859
29851W        W95012  18.257   4.376   3.066
29852W        W95013  17.289  20.617   2.286
29853W        W95014  33.446  18.306  11.992
29854W        W95015  40.524  15.832  12.704
29855W        W95016  11.127  42.462  12.141
29856W        W95017  27.052  19.998   5.047
29857W        W95018  17.573  31.154   0.238
29858W        W95019  16.357   1.865  12.078
29859W        W95020  13.180  24.893   2.725
29860W        W95021  25.109  33.522  13.927
29861W        W95022   7.522  20.652  11.587
29862W        W95023  13.748  12.895  12.409
29863W        W95024  26.528  37.000  14.456
29864W        W95025  39.441   7.580   2.703
29865W        W95026  31.576  42.537   4.553
29866W        W95027  20.418  23.098  11.534
29867W        W95028  15.380   3.585   0.169
29868W        W95029  19.558  15.861   2.246
29869W        W95030  16.290  29.448   0.394
29870W        W95031  42.006  10.812   1.376
29871W        W95032   3.129  25.350  10.204
29872W        W95033  15.086   5.765  11.978
29873W        W95034  29.201  17.956   4.531
29874W        W95035   8.579  42.916  12.754
29875W        W95036  13.924  20.032   4.133
29876W        W95037   0.526  32.475  13.752
29877W        W95038  35.657  41.906   0.300
29878W        W95039  18.868  31.821   0.699
29879W        W95040  26.364  12.252  13.410
29880W        W95041  16.791  31.864   2.315
29881W        W95042  27.179  42.369  12.928
29882W        W95043  15.880  20.720   0.877
29883W        W95044  14.407  26.254   2.010
29884W        W95045  37.527  40.562   3.773
29885W        W95046  40.170  25.877   4.356
29886W        W95047  38.113  42.755   0.353
29887W        W95048   2.981   7.768   4.537
29888W        W95049  22.579  11.709  10.616
29889W        W95050  19.062  22.995  11.528
29890W        W95051  37.468  20.404  13.388
29891W        W95052  31.572  27.508   5.205
29892W        W95053  27.023  16.093  11.226
29893W        W95054   0.660   6.721  13.810
29894W        W95055   2.797   2.861   4.601
29895W        W95056  25.271   9.275  13.440
29896W        W95057   4.380  40.893  14.888
29897W        W95058   8.444  17.321   3.221
29898W        W95059   4.275   8.739   1.325
29899W        W95060  30.692   2.683  14.292
29900W        W95061  38.108   7.953  12.113
29901W        W95062  24.534  37.923  12.009
29902W        W95063  20.518  19.954  10.128
29903W        W95064  40.960  38.453  13.326
29904W        W95065   6.838  28.749   1.310
29905W        W95066  25.078  20.508   1.854
29906W        W95067  35.069  17.083  11.192
29907W        W95068  34.908  21.505  11.387
29908W        W95069  29.212  20.969   3.546
29909W        W95070  17.287  19.159   2.646
29910W        W95071  18.048  21.171  13.493
29911W        W95072  28.000  18.178   0.764
29912W        W95073  17.238  32.807  11.834
29913W        W95074  23.028   0.805  13.091
29914W        W95075  30.191   1.850  14.649
29915W        W95076  36.290   7.860  11.281
29916W        W95077   2.105  14.110  11.111
29917W        W95078  39.625   3.272   0.453
29918W        W95079  40.137   4.004   1.377
29919W        W95080  37.305  26.650  13.740
29920W        W95081  39.230  24.751  11.139
29921W        W95082  16.152  16.335  12.105
29922W        W95083   6.871  20.805   0.466
29923W        W95084  15.088  42.326  13.699
29924W        W95085   5.650  14.786   2.328
29925W        W95086   7.680  38.903   3.581
29926W        W95087  30.422   0.073  11.836
29927W        W95088  24.697  26.633  13.981
29928W        W95089  44.530  44.535   4.704
29929W        W95090  16.141  38.605  10.659
29930W        W95091  17.188  34.599   1.052
29931W        W95092  26.486  14.103   2.209
29932W        W95093   2.410  32.759  10.727
29933W        W95094  41.776  37.595   3.917
29934W        W95095   4.633  13.807   0.935
29935W        W95096  41.065  14.114  10.889
29936W        W95097  29.245  36.442   3.461
29937W        W95098  30.906   1.526   2.833
29938W        W95099  44.060  38.132   4.487
29939W        W95100  23.306  38.249  13.374
29940W        W95101  21.033  41.784  13.401
29941W        W95102  34.814   5.591  11.969
29942W        W95103  34.437  18.236  10.983
29943W        W95104   8.797  17.477   2.384
29944W        W95105  40.962  26.996   1.518
29945W        W95106  17.411  44.262   0.477
29946W        W95107   3.301  34.121   2.973
29947W        W95108  25.075  39.906   2.215
29948W        W95109   1.337  36.013  14.876
29949W        W95110  19.249   0.729  11.193
29950W        W95111   1.346  40.628   4.423
29951W        W95112   0.789  40.183  14.897
29952W        W95113  41.274   5.851   1.036
29953W        W95114   5.259  10.292  12.878
29954W        W95115  27.632  29.205  11.690
29955W        W95116  30.846  40.667  10.665
29956W        W95117  40.486  34.522   5.142
29957W        W95118   8.353  35.828  13.094
29958W        W95119  26.660  36.878   0.987
29959W        W95120   1.672  16.665   0.702
29960W        W95121  29.378  43.425  13.554
29961W        W95122  27.032  32.162   4.808
29962W        W95123  23.308  36.892   3.716
29963W        W95124  24.781  32.167  11.585
29964W        W95125  14.779  22.071   4.346
29965W        W95126  29.162  12.035  10.826
29966W        W95127   2.311   1.293  14.469
29967W        W95128  32.002  35.286   0.647
29968W        W95129  41.912   3.685  13.573
29969W        W95130  19.512  17.083  10.289
29970W        W95131   2.107  22.200   3.069
29971W        W95132  18.083  40.519  14.995
29972W        W95133  29.708   9.160   4.170
29973W        W95134   6.117   7.466  12.023
29974W        W95135  13.109  38.815   1.313
29975W        W95136   0.723   3.000   1.788
29976W        W95137  17.728   5.181   4.480
29977W        W95138  29.093  41.453  12.466
29978W        W95139  31.025  19.951   4.558
29979W        W95140  15.092   5.485   4.110
29980W        W95141  20.330  12.862  14.691
29981W        W95142  33.596  36.953   3.742
29982W        W95143   1.874  19.285  13.084
29983W        W95144  29.505   8.571  11.426
29984W        W95145  14.853  31.129   1.532
29985W        W95146  34.778  33.577  13.639
29986W        W95147  13.891  39.927   0.677
29987W        W95148  19.757  21.804  10.015
29988W        W95149  35.925  38.645  13.007
29989W        W95150  44.565  17.150   3.240
29990W        W95151  15.832  43.002   1.899
29991W        W95152  39.472  14.596   4.076
29992W        W95153   9.919  33.084   3.207
29993W        W95154   3.447  14.447  14.993
29994W        W95155  11.734  43.962   3.468
29995W        W95156  28.234  24.442  10.295
29996W        W95157   1.881  11.719   0.991
29997W        W95158   3.690  32.691   2.661
29998W        W95159  10.092  38.047  10.691
29999W        W95160   3.430   4.086   0.253
30000W        W95161   7.962   3.497   4.206
30001W        W95162  41.124  33.188   0.813
30002W        W95163   6.889  41.936   3.257
30003W        W95164  29.826   5.228   1.185
30004W        W95165  16.360   1.341   4.628
30005W        W95166  16.296  36.362  11.683
30006W        W95167  36.027  34.423  14.416
30007W        W95168   6.558  27.991   4.655
30008W        W95169   4.192  31.078   4.542
30009W        W95170  23.916   4.725  13.948
30010W        W95171  35.471   4.946  12.040
30011W        W95172  17.121   1.688  13.986
30012W        W95173  39.130  36.961   3.668
30013W        W95174  41.536  42.856  10.699
30014W        W95175  42.732  17.164   1.875
30015W        W95176  23.153  27.188  13.331
30016W        W95177  42.216  27.553  12.064
30017W        W95178   3.860   3.503   1.163
30018W        W95179  27.987   5.501   3.693
30019W        W95180   7.603  39.544  11.464
30020W        W95181   0.001  41.495   3.468
30021W        W95182  25.048  43.760   2.682
30022W        W95183   1.795  15.166  10.321
30023W        W95184  26.442  13.563   3.383
30024W        W95185  42.780  30.398   1.346
30025W        W95186  17.676  25.290   1.691
30026W        W95187  26.038  16.052  12.582
30027W        W95188  13.184  23.009   1.292
30028W        W95189   5.711   8.631   1.888
30029W        W95190  23.447  34.370   4.188
30030W        W95191  42.230  15.686   3.175
30031W        W95192  31.712  42.043  11.569
30032W        W95193   8.674   8.712   0.213
30033W        W95194  17.994  16.124  13.799
30034W        W95195   1.500  32.148   3.678
30035W        W95196  25.343  44.465   0.389
30036W        W95197  17.655  39.857   1.877
30037W        W95198   9.098   7.737   0.825
30038W        W95199  11.180   8.638  12.575
30039W        W95200  12.235   0.460  13.132
30040W        W95201   3.220  31.619   1.781
30041W        W95202  42.798  21.129  13.701
30042W        W95203  36.869  22.173  13.596
30043W        W95204  39.108  28.138   4.522
30044W        W95205  16.782  13.086   1.120
30045W        W95206   1.750  21.119   2.260
30046W        W95207  10.912  30.455   2.155
30047W        W95208  24.041  30.160  12.905
30048W        W95209   2.280   9.273  12.775
30049W        W95210  10.913  22.330  11.085
30050W        W95211   7.813  34.658   0.764
30051W        W95212  12.935  44.926   0.413
30052W        W95213   2.978   2.562   1.979
30053W        W95214  26.029  24.172   1.898
30054W        W95215  18.090  37.625   1.401
30055W        W95216   0.588  20.135  13.062
30056W        W95217   3.769   0.204   3.722
30057W        W95218  24.584  30.318  12.304
30058W        W95219  42.528  41.312   4.815
30059W        W95220  21.412  35.919   0.950
30060W        W95221  44.395  10.681  11.651
30061W        W95222  41.746   1.873  11.151
30062W        W95223  37.938  31.690  11.030
30063W        W95224  22.235  34.994   3.462
30064W        W95225  38.753   1.906   1.320
30065W        W95226  31.804  29.521   4.599
30066W        W95227   8.606  32.555  13.162
30067W        W95228   3.185  12.184   3.327
30068W        W95229  12.718  11.060   3.221
30069W        W95230  20.269  20.552   4.630
30070W        W95231   2.325  16.667   4.083
30071W        W95232  25.205  35.995   4.191
30072W        W95233   6.459  15.033   2.518
30073W        W95234  20.728  38.431  11.984
30074W        W95235  32.477  22.487   4.327
30075W        W95236  31.319  36.589   1.955
30076W        W95237   6.753  41.326   2.414
30077W        W95238  24.821   3.456  14.968
30078W        W95239  28.534  29.244  11.626
30079W        W95240   1.879  30.407  10.714
30080W        W95241  32.361  36.975   1.242
30081W        W95242  23.632  44.537  14.421
30082W        W95243  21.470  30.972   0.477
30083W        W95244  29.231  17.381  11.654
30084W        W95245  25.986  30.873  13.315
30085W        W95246  30.202   8.221   0.720
30086W        W95247  14.491  43.317  14.341
30087W        W95248  33.527  22.081   1.998
30088W        W95249  20.365  31.980   4.197
30089W        W95250  27.976  18.337   1.292
30090W        W95251  30.954  37.013   1.310
30091W        W95252  35.427   0.772   3.634
30092W        W95253  27.995  38.025   0.848
30093W        W95254  42.794  24.130   3.019
30094W        W95255  34.046  31.241  11.934
30095W        W95256  33.059  21.194   2.188
30096W        W95257  22.700  14.501   0.175
30097W        W95258   1.443  41.971  10.780
30098W        W95259   3.238  13.844   3.630
30099W        W95260  32.483  29.674  12.947
30100W        W95261  19.019   1.706  14.335
30101W        W95262  35.812  24.258  14.861
30102W        W95263  12.838   6.170   1.296
30103W        W95264   5.928  26.390   2.188
30104W        W95265  10.774  23.562  14.927
30105W        W95266  33.629  24.180  12.468
30106W        W95267   6.906   1.979   0.928
30107W        W95268  39.457  39.344   4.379
30108W        W95269  32.207  41.554   0.338
30109W        W95270  18.815   8.660   2.766
30110W        W95271  22.706  42.512   0.368
30111W        W95272  36.356   8.390  12.952
30112W        W95273   5.601  11.850   5.069
30113W        W95274  37.786  37.585  14.277
30114W        W95275  12.090  42.977  13.835
30115W        W95276   2.959  35.800   2.799
30116W        W95277  10.305  19.529  13.555
30117W        W95278  37.897  32.073  13.538
30118W        W95279  22.020  31.636  13.910
30119W        W95280  18.607  38.101   0.838
30120W        W95281  44.323  24.852  12.209
30121W        W95282  20.110  26.146  12.120
30122W        W95283  19.355  32.871  12.607
30123W        W95284  11.956  15.100  11.528
30124W        W95285  36.639  31.310   1.495
30125W        W95286   9.409  32.968   1.581
30126W        W95287  15.890  33.332  14.008
30127W        W95288  35.140   3.838  10.569
30128W        W95289  23.006  22.595  14.942
30129W        W95290   3.710  42.313  13.587
30130W        W95291  29.086  22.530   0.252
30131W        W95292  43.844  39.067  10.164
30132W        W95293  15.578  21.942   2.723
30133W        W95294  18.681   8.055   3.228
30134W        W95295  35.846  36.029  14.991
30135W        W95296  28.268  42.126  10.040
30136W        W95297  34.853  37.218  11.978
30137W        W95298  34.039  29.195  14.273
30138W        W95299  37.100  20.017   1.220
30139W        W95300  37.148   5.730  14.934
30140W        W95301  18.273  12.950  12.536
30141W        W95302  32.462  28.631  12.016
30142W        W95303  37.526  21.684   0.407
30143W        W95304  31.086  30.789   2.645
30144W        W95305   1.496   5.046   1.742
30145W        W95306  19.829  33.617   0.576
30146W        W95307  24.299  29.919  11.116
30147W        W95308  38.486  13.245   3.547
30148W        W95309  10.618  43.034  12.069
30149W        W95310  29.139  22.528  12.875
30150W        W95311   8.816  39.470  10.673
30151W        W95312  20.228  12.887  12.949
30152W        W95313  23.053  34.008  12.655
30153W        W95314   7.826  23.015   4.176
30154W        W95315   9.675  42.032  14.814
30155W        W95316  17.133  15.620   3.666
30156W        W95317  36.202  31.512   1.680
30157W        W95318  20.603  15.102  12.924
30158W        W95319  38.887  38.436  12.195
30159W        W95320  30.123   5.036  13.473
30160W        W95321  20.311  40.760  13.013
30161W        W95322   7.278   8.241  12.070
30162W        W95323  34.615  23.278  14.001
30163W        W95324  32.693  38.313   3.598
30164W        W95325  19.516  10.898  13.972
30165W        W95326   7.849  32.353  11.497
30166W        W95327  18.197  44.681  11.583
30167W        W95328  33.580  12.186  12.031
30168W        W95329  25.488  28.612   2.679
30169W        W95330  43.828   2.080  14.111
30170W        W95331  14.599   1.104   1.789
30171W        W95332  15.130  20.869   9.942
30172W        W95333  43.927  17.507   1.849
30173W        W95334  24.243   7.574  11.724
30174W        W95335  23.160  21.522  10.760
30175W        W95336   6.278  38.105  14.942
30176W        W95337  43.354  14.087  11.208
30177W        W95338  12.068   8.718  12.192
30178W        W95339  25.464   4.721   2.887
30179W        W95340  27.423  18.639  11.609
30180W        W95341  38.305  21.414  11.451
30181W        W95342  41.391   7.225  12.950
30182W        W95343  22.731  17.780  11.002
30183W        W95344  36.955  14.583  12.083
30184W        W95345  41.825   3.739   4.832
30185W        W95346   5.683  43.431  11.018
30186W        W95347  13.251   1.369  14.107
30187W        W95348  34.437   7.902   3.949
30188W        W95349   7.663   8.628   4.092
30189W        W95350  21.530   6.249  10.102
30190W        W95351  15.543  25.881  12.531
30191W        W95352  10.216  17.074  14.509
30192W        W95353  14.009  11.641  11.693
30193W        W95354  30.505  24.043   1.404
30194W        W95355  30.109   2.944  12.343
30195W        W95356  42.207  40.801   4.733
30196W        W95357  20.149  35.065  14.167
30197W        W95358  26.009   2.434   4.522
30198W        W95359   0.284  24.773   4.154
30199W        W95360   1.700   9.184  14.415
30200W        W95361  24.961  18.857  13.768
30201W        W95362  12.090  43.789  11.048
30202W        W95363  33.569   0.359   4.558
30203W        W95364  19.092  25.439   4.804
30204W        W95365  33.112  37.847   2.421
30205W        W95366   4.264  13.438  10.235
30206W        W95367  17.655  29.174   3.102
30207W        W95368  21.318  27.744   2.204
30208W        W95369  23.016  12.112   0.500
30209W        W95370   1.932   2.346   0.800
30210W        W95371   4.647  38.260   4.068
30211W        W95372  42.679  38.094  12.595
30212W        W95373   4.219  33.632  13.804
30213W        W95374  10.977  25.949   1.768
30214W        W95375  38.060  21.753  14.878
30215W        W95376  25.504  12.618   2.560
30216W        W95377  31.587  29.149  12.396
30217W        W95378  24.185  29.725  13.428
30218W        W95379  16.031  42.959   4.952
30219W        W95380  26.595   4.780  14.382
30220W        W95381  16.337  26.158   0.811
30221W        W95382   6.871  37.500  11.279
30222W        W95383  36.721  20.275   4.190
30223W        W95384  22.474  24.042  13.475
30224W        W95385  22.771  22.969   1.697
30225W        W95386  30.901   3.493   1.355
30226W        W95387   1.794  19.567  12.643
30227W        W95388  44.406   9.206  10.549
30228W        W95389   6.589  42.773   3.785
30229W        W95390   2.775  15.552  11.278
30230W        W95391   7.414  34.145   4.824
30231W        W95392  17.756  41.728   4.178
30232W        W95393  28.274  30.988   1.790
30233W        W95394   2.330  34.746   4.894
30234W        W95395  34.369  37.632  11.127
30235W        W95396  13.186  14.269  10.636
30236W        W95397  12.295  31.053   4.832
30237W        W95398  41.636   6.460  11.366
30238W        W95399  22.266  18.005   1.902
30239W        W95400  25.847  36.811   4.666
30240W        W95401  19.836  18.737  12.561
30241W        W95402  36.398   1.689  13.665
30242W        W95403   3.361  39.078  11.160
30243W        W95404  35.375  38.318  14.935
30244W        W95405  42.120  10.173  14.259
30245W        W95406  39.150  35.729  14.430
30246W        W95407  28.942  36.682   5.410
30247W        W95408  40.946  27.204  13.781
30248W        W95409  24.932  36.567  14.368
30249W        W95410  26.310  15.069   4.728
30250W        W95411  23.756  29.553   0.268
30251W        W95412  16.576   2.670   2.810
30252W        W95413  27.611   7.745  14.286
30253W        W95414  10.583  38.432  13.304
30254W        W95415   6.120   5.954  14.372
30255W        W95416  38.365   1.993   3.154
30256W        W95417   8.660  26.211   0.370
30257W        W95418  33.615  38.971  14.408
30258W        W95419  35.022   3.253   1.610
30259W        W95420  10.735  39.447   2.246
30260W        W95421  13.067  44.443  13.742
30261W        W95422  21.118  35.057   1.879
30262W        W95423  27.136  41.228   2.954
30263W        W95424   5.229   1.277   4.671
30264W        W95425  40.547  26.657  12.874
30265W        W95426   8.962   6.884   0.041
30266W        W95427  41.911  17.095  12.061
30267W        W95428  18.726  16.029  13.374
30268W        W95429  13.775  42.563  14.509
30269W        W95430  43.027  29.897  14.766
30270W        W95431   0.881  30.548   0.723
30271W        W95432  23.447  29.485   0.669
30272W        W95433  42.790  24.458  14.436
30273W        W95434   4.867   4.305  12.988
30274W        W95435  40.109  44.739  10.894
30275W        W95436   2.961  42.508  13.808
30276W        W95437  35.942   1.760  12.860
30277W        W95438  29.423  41.817  14.534
30278W        W95439   3.558  23.327  14.050
30279W        W95440  43.288   6.403   0.792
30280W        W95441   4.663  31.011   1.718
30281W        W95442  35.541  10.145   0.778
30282W        W95443  27.623  40.016   3.647
30283W        W95444  18.795  16.207  14.235
30284W        W95445  26.539  41.895   3.803
30285W        W95446   4.262  38.417  11.770
30286W        W95447  29.130   9.150  12.422
30287W        W95448  17.304  18.674  11.532
30288W        W95449  38.772  21.225   4.906
30289W        W95450  32.080  11.491  12.047
30290W        W95451  11.333  31.991  14.871
30291W        W95452  26.388  44.741  11.627
30292W        W95453  17.319  15.143   3.944
30293W        W95454  10.638  38.993  10.515
30294W        W95455  21.680  31.994   3.841
30295W        W95456  25.732  29.612  10.575
30296W        W95457  39.616  38.776  13.331
30297W        W95458   9.864   1.800  11.903
30298W        W95459  31.366  18.659  12.062
30299W        W95460  42.384  19.260  11.586
30300W        W95461   6.233   8.802  11.593
30301W        W95462  10.835  41.089  13.439
30302W        W95463  14.400   4.193  11.548
30303W        W95464  25.172  16.207   3.299
30304W        W95465  11.597   4.898  14.230
30305W        W95466  27.209  23.008   1.674
30306W        W95467   9.910   4.975  11.006
30307W        W95468  34.874  29.605  12.407
30308W        W95469   8.363  14.626  13.340
30309W        W95470  43.000  21.738   4.100
30310W        W95471  13.072  20.652  12.557
30311W        W95472  23.624   8.414   3.323
30312W        W95473   7.937  35.755  11.082
30313W        W95474  28.098  14.381  11.196
30314W        W95475  25.141  20.361  11.630
30315W        W95476  40.974  43.470   4.625
30316W        W95477  29.513  34.688  13.058
30317W        W95478  35.370  42.785   1.410
30318W        W95479  31.586  16.610   4.560
30319W        W95480  17.975  38.016   0.798
30320W        W95481  23.706  28.548   2.813
30321W        W95482   2.706  24.741   3.127
30322W        W95483  27.217  36.502  14.468
30323W        W95484  31.624   1.250  13.960
30324W        W95485   7.133  29.019  12.993
30325W        W95486  28.028  23.017   2.678
30326W        W95487  41.400   2.212  10.801
30327W        W95488  15.261  35.364   0.257
30328W        W95489   1.710   3.981  13.452
30329W        W95490  16.680  37.127   4.133
30330W        W95491  15.377  19.610  14.732
30331W        W95492  43.123  35.386  10.339
30332W        W95493  29.118  29.933  13.194
30333W        W95494   6.426  14.319  10.645
30334W        W95495  38.889  24.153  13.289
30335W        W95496  14.690  11.052   3.228
30336W        W95497  36.397  41.047   2.326
30337W        W95498  16.805  34.366  13.036
30338W        W95499  17.288  36.148  11.311
30339W        W95500  40.579   1.845   0.276
30340W        W95501  32.997  27.408  10.725
30341W        W95502  36.585  26.346  11.674
30342W        W95503  38.373   2.474  11.944
30343W        W95504  16.012  33.859  10.634
30344W        W95505   9.107  32.479  13.096
30345W        W95506   7.205   3.279  13.437
30346W        W95507  17.032  30.467   4.288
30347W        W95508  34.364  21.703  13.005
30348W        W95509  44.521  41.015  13.856
30349W        W95510  32.915  12.641   0.367
30350W        W95511  37.896  19.461  14.383
30351W        W95512  41.928  31.358  13.042
30352W        W95513  12.204   4.768  12.008
30353W        W95514  22.307  24.057  12.028
30354W        W95515  12.677  27.861   3.671
30355W        W95516  40.216  43.710  11.917
30356W        W95517  18.266   0.884  10.899
30357W        W95518  36.645  24.690  14.426
30358W        W95519  24.591  40.635   2.287
30359W        W95520  10.584   2.739   4.029
30360W        W95521   7.336   0.825   2.626
30361W        W95522  19.081   3.347  10.682
30362W        W95523  30.137  36.455  12.261
30363W        W95524  29.710  30.107   2.223
30364W        W95525  40.066  15.632  12.540
30365W        W95526  38.629  36.424   0.861
30366W        W95527   3.290  26.742  12.564
30367W        W95528   9.344  40.338  12.835
30368W        W95529  16.345  42.422  10.740
30369W        W95530  21.567  13.375  13.862
30370W        W95531  31.680  14.172  11.112
30371W        W95532  10.345   4.689  12.593
30372W        W95533  23.030  28.688   0.295
30373W        W95534  20.800  21.703  12.441
30374W        W95535  13.586  22.077  14.874
30375W        W95536  43.793   3.394  10.183
30376W        W95537  31.812  32.591  14.389
30377W        W95538   2.704   0.943  12.545
30378W        W95539  36.528  41.288  13.325
30379W        W95540  21.117  44.453  11.369
30380W        W95541  10.903   2.356   4.919
30381W        W95542  16.198  19.317  10.960
30382W        W95543   3.423  35.566   2.646
30383W        W95544  29.918  15.225  12.960
30384W        W95545   1.576  37.958  11.224
30385W        W95546  20.965  36.817   3.685
30386W        W95547  26.688  35.625  14.277
30387W        W95548  41.748  39.350   1.390
30388W        W95549  26.006   8.749   1.902
30389W        W95550  23.978  11.310   3.432
30390W        W95551   2.314  18.736   2.258
30391W        W95552  21.168   1.454  12.334
30392W        W95553  23.101  12.699   4.647
30393W        W95554  44.377  17.304  14.369
30394W        W95555   7.990  15.137  13.087
30395W        W95556  28.971  36.011   1.852
30396W        W95557   0.146  27.150   0.189
30397W        W95558  24.567   3.024   1.875
30398W        W95559  17.539   7.980   0.735
30399W        W95560   2.887   6.024  11.896
30400W        W95561  34.915  42.865   3.630
30401W        W95562  28.729   3.237  11.102
30402W        W95563  16.510  22.923   0.048
30403W        W95564   4.056  34.113   3.524
30404W        W95565  33.867   5.739  14.348
30405W        W95566  15.699  30.467  14.889
30406W        W95567  24.669  18.683  11.656
30407W        W95568   5.430  21.258  14.014
30408W        W95569  20.563  29.020  12.151
30409W        W95570  18.572  34.538  10.276
30410W        W95571   0.524  21.725   1.949
30411W        W95572  36.323  12.103  12.462
30412W        W95573  43.248  14.745   0.323
30413W        W95574  13.765  35.320   1.875
30414W        W95575  21.190  27.241   2.276
30415W        W95576  13.447  32.735   3.326
30416W        W95577  34.315   9.690  10.654
30417W        W95578  13.319  24.145  11.165
30418W        W95579  18.582  44.717   4.237
30419W        W95580  18.232  39.089  14.297
30420W        W95581  25.686   6.764  11.441
30421W        W95582  11.317  17.984   3.160
30422W        W95583  13.284   3.820   4.096
30423W        W95584  28.798  28.660  13.016
30424W        W95585  16.853  20.375   2.416
30425W        W95586  19.092  13.276   3.685
30426W        W95587  44.020  43.427   2.969
30427W        W95588  29.115   7.441   0.850
30428W        W95589  43.357   1.307  10.583
30429W        W95590  25.854   8.247   1.866
30430W        W95591  16.388  20.365  12.484
30431W        W95592   2.015  33.062  12.109
30432W        W95593   2.405  20.591  12.586
30433W        W95594  36.963  33.552   4.580
30434W        W95595   1.112  29.558   0.807
30435W        W95596  22.928   7.466   1.337
30436W        W95597  39.833  42.063   2.276
30437W        W95598  11.105  30.669  11.081
30438W        W95599  33.933   8.809   2.773
30439W        W95600  33.629   8.874   1.287
30440W        W95601  29.136  14.852  12.681
30441W        W95602  33.097   8.763  14.105
30442W        W95603  14.444  12.769   4.970
30443W        W95604  22.487   5.856  12.995
30444W        W95605  23.104  36.373  12.437
30445W        W95606  28.626  22.168   1.438
30446W        W95607   1.980  31.175   0.954
30447W        W95608  32.333  38.544   0.348
30448W        W95609   7.654   0.901  10.693
30449W        W95610   6.346  20.759  11.952
30450W        W95611  12.681  24.971  11.982
30451W        W95612  30.825  33.527  12.441
30452W        W95613   2.788  37.919  12.651
30453W        W95614   4.892  19.783   0.871
30454W        W95615  24.623   0.034  14.850
30455W        W95616  26.828  20.198   2.755
30456W        W95617  21.310  25.147   1.915
30457W        W95618  42.555  43.240   3.050
30458W        W95619  28.966  29.958  10.531
30459W        W95620  11.088  15.018  14.769
30460W        W95621  31.287  21.096   4.980
30461W        W95622  16.271  41.491   0.314
30462W        W95623  29.557  26.882   0.605
30463W        W95624  18.972  34.121  12.456
30464W        W95625  25.915  44.056  13.342
30465W        W95626   8.185  32.497  11.140
30466W        W95627   2.247  23.858   0.451
30467W        W95628  30.433  26.558   0.864
30468W        W95629   9.190   5.372   2.688
30469W        W95630   9.691  33.533  10.414
30470W        W95631   0.507  21.967   2.628
30471W        W95632  11.173  34.742   1.867
30472W        W95633  19.758  11.645  10.699
30473W        W95634  20.511  16.130   0.299
30474W        W95635  30.428  22.465   4.208
30475W        W95636  19.108  34.567   0.214
30476W        W95637  31.906  29.687  12.765
30477W        W95638  43.442  41.517  13.538
30478W        W95639  30.557  18.017   1.987
30479W        W95640  28.211   1.525   1.207
30480W        W95641  16.116   6.835   3.357
30481W        W95642  42.083  13.596  12.393
30482W        W95643  42.359  10.360   0.716
30483W        W95644  11.185  13.158   4.574
30484W        W95645   1.201  18.783  12.344
30485W        W95646  17.535  27.756  13.415
30486W        W95647  31.463  12.935   0.555
30487W        W95648   6.438  19.605  13.839
30488W        W95649  41.727  15.826   3.140
30489W        W95650  13.620  26.872  11.322
30490W        W95651  35.862  27.499  12.957
30491W        W95652   5.462  13.313  10.842
30492W        W95653   2.022  29.426  10.695
30493W        W95654  25.695  27.281   2.402
30494W        W95655  41.857  31.943   1.275
30495W        W95656   7.458   1.832   0.293
30496W        W95657  21.042  41.884   5.091
30497W        W95658   2.142  44.875   3.166
30498W        W95659  34.512  39.101  13.612
30499W        W95660  33.925  13.372  14.754
30500W        W95661  11.892  15.735   0.740
30501W        W95662  20.065  21.714  11.604
30502W        W95663  21.003  16.328  14.957
30503W        W95664   9.867  17.819  14.951
30504W        W95665  23.601   5.389  12.414
30505W        W95666  20.805  32.265   4.209
30506W        W95667  11.231  17.568   1.775
30507W        W95668   2.803  39.562  13.593
30508W        W95669  15.228   0.422   3.629
30509W        W95670   0.394  43.017   0.047
30510W        W95671  10.888  23.255  11.181
30511W        W95672   6.922  19.754  14.014
30512W        W95673  10.162  32.000  14.340
30513W        W95674  42.570  11.504  10.799
30514W        W95675   0.771   1.266   1.151
30515W        W95676   8.581   3.440   2.588
30516W        W95677  30.720   0.936  13.880
30517W        W95678   2.635   8.958  10.707
30518W        W95679  35.149  43.765   0.865
30519W        W95680  13.858   2.882   3.856
30520W        W95681   3.998  40.578   4.486
30521W        W95682  11.408   5.561  12.103
30522W        W95683  33.374  17.148   3.751
30523W        W95684  20.980  27.894  11.558
30524W        W95685  18.365  35.629  13.081
30525W        W95686  14.642  17.689  11.508
30526W        W95687  15.611  42.039   1.033
30527W        W95688   8.814  27.524   5.406
30528W        W95689  34.909  30.106  14.847
30529W        W95690  31.264  12.536   2.851
30530W        W95691   4.750  43.491  10.832
30531W        W95692  21.376  32.467  13.375
30532W        W95693   2.723   0.213   1.312
30533W        W95694  29.580  37.477  14.785
30534W        W95695  22.309   2.737  12.552
30535W        W95696  34.365  12.090  10.621
30536W        W95697   8.334   0.538  12.975
30537W        W95698  32.861  25.010  13.971
30538W        W95699   6.463  31.172  12.048
30539W        W95700  33.236  16.854  10.384
30540W        W95701   8.579   8.851   3.507
30541W        W95702  37.552  12.893   1.503
30542W        W95703  44.671  27.598   1.406
30543W        W95704  44.039  36.455  11.580
30544W        W95705  30.954  44.824  13.029
30545W        W95706  38.172  32.451   3.871
30546W        W95707  29.679  36.780  12.960
30547W        W95708   9.354  21.849  12.035
30548W        W95709   1.771  41.044   0.238
30549W        W95710  26.507   8.621  13.367
30550W        W95711  31.038  39.517   4.121
30551W        W95712  18.122  33.429   0.212
30552W        W95713  23.184  26.429  14.784
30553W        W95714  32.522  16.352  13.328
30554W        W95715  10.613  39.002  13.057
30555W        W95716  26.342  17.245   1.680
30556W        W95717  40.467  43.566  13.313
30557W        W95718   2.685  17.970  11.672
30558W        W95719   2.546  35.934  12.038
30559W        W95720  18.711  39.432  13.713
30560W        W95721   0.112  10.413  14.384
30561W        W95722   2.345   7.968  14.690
30562W        W95723  17.076  15.083   4.405
30563W        W95724  14.675  44.991  14.570
30564W        W95725  18.890  10.115  12.099
30565W        W95726  27.839  39.225  11.693
30566W        W95727  31.995  40.885  13.641
30567W        W95728  42.178  28.258  13.023
30568W        W95729  11.193   9.144   3.885
30569W        W95730  42.442   8.523   3.682
30570W        W95731  33.515  18.711   3.048
30571W        W95732   2.268  37.788   0.859
30572W        W95733  28.211  21.469   4.043
30573W        W95734  29.963  41.118   1.342
30574W        W95735   5.677  10.215   1.352
30575W        W95736  44.451   0.326   3.661
30576W        W95737  23.499   8.721   1.768
30577W        W95738   5.880   6.473  12.087
30578W        W95739   2.803  18.476  11.676
30579W        W95740  23.206  22.691   5.191
30580W        W95741  39.923   7.446   3.270
30581W        W95742   8.127  34.575   1.177
30582W        W95743  30.090  30.823   1.815
30583W        W95744   5.919  32.593   3.550
30584W        W95745  19.262  18.167   2.173
30585W        W95746  16.484  16.559   5.390
30586W        W95747   2.412  41.294   1.406
30587W        W95748  15.759  26.055   2.615
30588W        W95749  39.825  18.786   2.083
30589W        W95750  42.425  34.067  14.222
30590W        W95751  44.395  37.779   1.311
30591W        W95752   3.843  30.620   3.217
30592W        W95753  35.977   0.277   2.297
30593W        W95754  44.947  42.561  14.495
30594W        W95755   7.894   3.381  14.913
30595W        W95756  29.583  37.754   4.010
30596W        W95757  22.135   6.011   2.913
30597W        W95758  30.452  34.987   0.428
30598W        W95759   4.708   0.132  10.990
30599W        W95760  22.429  29.679  14.950
30600W        W95761  38.048  38.309  11.614
30601W        W95762  33.396   5.375   0.644
30602W        W95763  28.992  24.208   0.851
30603W        W95764  30.062  38.118  14.064
30604W        W95765  40.362  31.548  13.088
30605W        W95766  39.067  15.185   0.719
30606W        W95767  22.957  27.603  14.203
30607W        W95768  42.434  15.870  11.027
30608W        W95769  40.823  34.789   4.821
30609W        W95770  19.649  30.467   0.766
30610W        W95771  42.088  16.263  12.351
30611W        W95772   8.365  44.086   1.698
30612W        W95773  20.032  25.749  13.925
30613W        W95774  22.068  14.078  12.794
30614W        W95775  42.831  26.647  14.025
30615W        W95776  33.355  40.584   0.365
30616W        W95777  20.242  42.657   3.678
30617W        W95778  26.936  14.286  11.519
30618W        W95779  17.232   7.561   4.016
30619W        W95780   7.141   6.856  10.728
30620W        W95781  23.632  21.917   0.829
30621W        W95782   3.056  25.193   3.270
30622W        W95783   9.246  18.694  11.473
30623W        W95784  19.051  20.902  14.436
30624W        W95785  29.207   6.644   0.397
30625W        W95786  41.823  12.601  14.400
30626W        W95787  29.701  11.446  14.719
30627W        W95788  34.103  26.896  12.151
30628W        W95789  42.662  41.548   2.600
30629W        W95790  20.060  19.337   4.980
30630W        W95791   5.915  42.504  11.191
30631W        W95792  40.693  17.760   0.922
30632W        W95793  13.534  38.336   1.368
30633W        W95794  25.228   9.080  14.800
30634W        W95795  17.029  27.555  12.440
30635W        W95796  28.395  22.652  12.433
30636W        W95797  33.098  21.378  11.552
30637W        W95798   9.187  37.425  11.205
30638W        W95799   9.698  24.634   2.836
30639W        W95800  17.566  26.888  14.912
30640W        W95801  33.603  24.050   5.142
30641W        W95802  10.287  33.219  13.456
30642W        W95803  22.190   8.438  10.702
30643W        W95804  41.824   5.300   3.781
30644W        W95805  10.895   1.154  11.660
30645W        W95806  29.696  11.924  12.042
30646W        W95807  39.552  15.212  13.582
30647W        W95808  19.594   1.449  11.088
30648W        W95809  38.025  24.756   3.285
30649W        W95810  41.829  19.055   3.251
30650W        W95811   5.160   6.759   0.762
30651W        W95812   1.146  22.901   3.651
30652W        W95813  23.119   9.801   2.722
30653W        W95814  15.800  27.982   0.835
30654W        W95815  25.550  35.414   0.815
30655W        W95816   3.246   4.996  14.146
30656W        W95817  25.437  42.829  14.752
30657W        W95818  41.303  39.319   4.101
30658W        W95819  44.162  41.875  10.691
30659W        W95820  14.937  34.502   0.923
30660W        W95821  42.406  30.394   0.736
30661W        W95822  35.444  14.907  11.141
30662W        W95823   5.773  16.237   1.936
30663W        W95824  23.049  44.041   0.278
30664W        W95825  40.011  15.729   0.570
30665W        W95826  28.104  23.423  12.414
30666W        W95827   2.845  42.088  14.596
30667W        W95828  42.380   2.681  13.019
30668W        W95829  15.629  34.550   0.424
30669W        W95830  21.579  44.497  10.665
30670W        W95831   3.152  25.915   0.286
30671W        W95832  16.646  15.376  13.434
30672W        W95833  18.613  33.980   2.195
30673W        W95834  37.872  11.135  13.941
30674W        W95835  26.451  11.903  10.688
30675W        W95836  17.069   8.909   0.230
30676W        W95837  24.698   3.812  11.528
30677W        W95838  10.431  27.909  14.408
30678W        W95839   2.453   3.339   3.241
30679W        W95840  42.415   1.247  13.131
30680W        W95841   3.826  44.940  14.506
30681W        W95842  44.009  29.444  14.582
30682W        W95843  38.041  41.558  13.857
30683W        W95844  23.598  11.683  12.761
30684W        W95845   0.882  11.381  11.120
30685W        W95846  21.226  12.617   2.914
30686W        W95847  32.606  20.012   0.499
30687W        W95848  38.433  18.993  14.000
30688W        W95849   4.374  44.193   3.108
30689W        W95850  29.387  32.520   1.195
30690W        W95851  27.918   3.711  13.392
30691W        W95852  44.056  38.439  11.817
30692W        W95853  24.026  37.895  11.910
30693W        W95854  35.896  15.002  13.130
30694W        W95855  39.056  23.199   1.868
30695W        W95856  16.210  12.681   2.911
30696W        W95857  36.846  40.800  14.433
30697W        W95858  12.655  26.062  10.712
30698W        W95859  36.970  37.793   4.499
30699W        W95860  38.004  35.528   3.759
30700W        W95861  35.004  10.188   3.401
30701W        W95862  22.322  41.412   1.330
30702W        W95863   0.038  25.185   1.636
30703W        W95864  42.949  24.144   1.997
30704W        W95865   9.006  40.056  12.402
30705W        W95866  23.902  12.638  11.430
30706W        W95867  31.150   1.855   1.221
30707W        W95868  43.855   8.985  13.220
30708W        W95869  10.620  37.570   4.159
30709W        W95870  18.770  33.441  11.993
30710W        W95871  31.771  27.152   4.622
30711W        W95872   0.387   7.324  10.628
30712W        W95873  29.732  43.154   0.873
30713W        W95874  41.817  32.159  13.298
30714W        W95875  38.985   9.869   2.411
30715W        W95876  32.349  40.863  12.717
30716W        W95877  43.831  22.566  12.314
30717W        W95878  16.527  18.151   4.118
30718W        W95879  30.957   4.556  11.333
30719W        W95880   9.886  32.948   1.787
30720W        W95881  13.533  44.514   3.630
30721W        W95882   3.334  36.328   5.221
30722W        W95883  14.817  19.575  10.570
30723W        W95884  21.762  41.554   4.158
30724W        W95885  20.273  13.740   1.055
30725W        W95886  14.213  12.748   2.973
30726W        W95887  19.543  27.197  11.552
30727W        W95888  41.695   9.766  13.898
30728W        W95889  21.644  10.249  14.265
30729W        W95890  38.986  41.058  13.690
30730W        W95891  44.067  35.500   4.629
30731W        W95892   8.911  25.423  11.372
30732W        W95893  41.454  23.610  14.339
30733W        W95894  17.735   5.239  10.645
30734W        W95895  14.906  44.981  14.090
30735W        W95896  14.885  26.055  13.832
30736W        W95897   9.371  27.580   1.831
30737W        W95898  17.132  36.952   0.598
30738W        W95899  24.411  35.906  11.094
30739W        W95900  20.057  31.085   0.766
30740W        W95901  23.971  43.016  12.462
30741W        W95902  28.186  14.710   0.569
30742W        W95903  16.970  15.654   0.670
30743W        W95904  18.471  18.315  14.762
30744W        W95905  11.636   3.334   2.324
30745W        W95906  28.180  42.981  10.214
30746W        W95907  24.432  28.089   4.629
30747W        W95908  44.517  41.961  13.779
30748W        W95909  19.257  15.647  12.155
30749W        W95910  24.450  11.856  13.522
30750W        W95911  30.996  35.965   2.627
30751W        W95912   5.732  18.273   1.187
30752W        W95913  10.253  12.262   2.267
30753W        W95914   3.369  37.350   2.232
30754W        W95915  28.329   1.249   1.782
30755W        W95916  19.005   8.308   0.939
30756W        W95917  26.431  21.630   0.533
30757W        W95918  39.451   3.793   0.516
30758W        W95919   3.336   1.198  12.981
30759W        W95920  19.729  28.874   0.104
30760W        W95921   7.748  14.627   2.311
30761W        W95922  19.099  19.332  10.217
30762W        W95923  22.237  24.719   4.049
30763W        W95924   1.267  42.539  12.620
30764W        W95925   1.784   3.867  14.810
30765W        W95926  20.806   1.081   4.630
30766W        W95927   0.295  23.213   1.951
30767W        W95928   8.678   0.717  10.715
30768W        W95929  21.097   4.791   2.229
30769W        W95930  25.482  16.557  14.864
30770W        W95931  16.201  12.261  13.991
30771W        W95932  44.054  13.768   2.851
30772W        W95933  23.668  26.191   2.059
30773W        W95934  28.866  32.310  11.578
30774W        W95935  32.500  41.100   0.380
30775W        W95936   5.486  44.040  10.712
30776W        W95937  11.650  19.764   4.022
30777W        W95938  13.854  18.228  13.435
30778W        W95939  17.192   7.201   2.248
30779W        W95940  42.096  19.926  12.103
30780W        W95941   4.758  25.027  13.175
30781W        W95942  37.743  43.268   3.352
30782W        W95943   8.065  14.398  11.472
30783W        W95944  17.141  24.138   3.617
30784W        W95945  23.903  34.385   2.693
30785W        W95946  26.006  18.716   1.237
30786W        W95947  27.643  28.653  10.710
30787W        W95948   7.401   8.742   3.644
30788W        W95949  19.737  44.527  11.269
30789W        W95950   1.063  10.853   0.426
30790W        W95951   7.850  12.665   1.846
30791W        W95952  11.189  19.754   4.251
30792W        W95953   6.876  15.149  11.625
30793W        W95954  12.265  29.610   1.300
30794W        W95955   3.665  10.735  11.640
30795W        W95956  10.500  34.937   2.331
30796W        W95957  10.693   3.472  14.415
30797W        W95958   2.843  38.594   4.243
30798W        W95959   2.512  32.071  10.012
30799W        W95960  43.301  25.676   0.980
30800W        W95961  29.469  21.702  11.103
30801W        W95962  44.750  10.964   0.645
30802W        W95963  29.144  27.367   1.365
30803W        W95964  41.770  36.259   4.127
30804W        W95965  17.239  40.845  11.576
30805W        W95966  26.146  17.937   4.699
30806W        W95967  39.148   9.394   1.774
30807W        W95968  27.152  31.365   3.138
30808W        W95969   1.251  25.533   1.413
30809W        W95970  32.554  44.925  10.963
30810W        W95971   1.696  35.329   0.370
30811W        W95972  26.038  34.340   0.411
30812W        W95973  26.044   1.185  14.001
30813W        W95974  14.090   9.925   1.312
30814W        W95975  39.233   5.104   4.189
30815W        W95976  32.607  26.530   2.648
30816W        W95977   4.854  11.925  10.113
30817W        W95978  12.782  24.503   2.656
30818W        W95979  17.163  37.116   1.961
30819W        W95980  36.471  11.230   3.728
30820W        W95981  14.568   8.778  12.340
30821W        W95982  14.804  27.657   2.283
30822W        W95983  24.212   8.251   2.104
30823W        W95984  31.225  37.588   0.809
30824W        W95985  24.069  14.857   3.961
30825W        W95986   4.507  37.670   3.711
30826W        W95987  13.411  26.396  11.210
30827W        W95988  11.097  24.162   3.883
30828W        W95989   2.723  26.508   4.065
30829W        W95990  31.177  27.119  11.596
30830W        W95991  24.487  14.588   3.787
30831W        W95992   8.471  30.004  12.417
30832W        W95993  15.779   3.737   2.244
30833W        W95994   6.496  18.010  10.252
30834W        W95995  26.917   1.912   2.829
30835W        W95996  25.682  36.059   4.033
30836W        W95997  18.311  12.627  14.856
30837W        W95998   8.322  42.327  11.610
30838W        W95999  41.199  28.996   4.125
30839W        W96000  29.045   2.294   2.879
30840W        W96001   9.622  17.563   4.531
30841W        W96002   8.878  10.668   3.153
30842W        W96003  12.265  40.526   0.700
30843W        W96004  35.648  38.070   3.643
30844W        W96005  14.616  25.178   3.632
30845W        W96006  28.887   3.440   0.392
30846W        W96007  40.919  23.030   4.323
30847W        W96008  36.686  13.183  11.481
30848W        W96009  31.769   6.332   1.831
30849W        W96010   4.256  12.725  13.903
30850W        W96011   8.648  15.083   2.198
30851W        W96012  29.100  37.561  10.940
30852W        W96013  34.743  43.529  13.073
30853W        W96014  15.641  28.064  13.875
30854W        W96015   0.867  16.155   1.701
30855W        W96016  15.016  15.098   1.324
30856W        W96017   9.860   5.377   0.687
30857W        W96018  43.061  10.710   1.384
30858W        W96019  39.063   5.869   1.458
30859W        W96020  13.085  13.085  12.981
30860W        W96021  38.534  39.168  11.141
30861W        W96022  18.633   6.298   1.646
30862W        W96023  21.165  39.038  10.101
30863W        W96024  32.631  28.225   1.857
30864W        W96025  26.914   1.775  11.132
30865W        W96026  22.105  14.153   2.192
30866W        W96027  37.768  35.764   2.341
30867W        W96028  30.961  26.935  14.395
30868W        W96029  20.730  30.218  13.715
30869W        W96030  42.060  14.644   1.248
30870W        W96031  18.125  24.046  11.227
30871W        W96032  39.601  36.661   0.906
30872W        W96033  32.870  35.492   0.415
30873W        W96034  41.154  25.956  11.636
30874W        W96035  26.965  25.769   3.766
30875W        W96036  34.158  28.010   4.323
30876W        W96037  40.813  33.870  14.732
30877W        W96038   7.909  23.091   2.856
30878W        W96039  44.924   0.304  12.827
30879W        W96040  17.985  29.599   4.662
30880W        W96041  22.075   5.360  11.508
30881W        W96042  18.955  12.274  12.417
30882W        W96043  34.914  25.979  11.925
30883W        W96044  42.274   5.895   2.746
30884W        W96045  43.363  10.121   0.920
30885W        W96046   0.400  23.746   4.150
30886W        W96047  13.676  18.523   4.295
30887W        W96048   5.369   7.227  11.078
30888W        W96049   1.465   0.803   0.749
30889W        W96050   0.830  43.496  13.925
30890W        W96051  30.568   2.975   0.102
30891W        W96052  21.934  17.783   0.539
30892W        W96053  30.295  33.212   1.905
30893W        W96054  39.051  19.462   0.532
30894W        W96055  13.157  29.462   3.168
30895W        W96056  31.106  25.113   4.339
30896W        W96057  38.522  25.895  13.347
30897W        W96058  24.250  19.184   4.995
30898W        W96059   5.186  33.934  11.020
30899W        W96060  20.255  44.051   2.780
30900W        W96061   6.942  18.870  14.269
30901W        W96062  16.687  38.795   5.395
30902W        W96063  19.463  25.899  11.207
30903W        W96064   1.467  34.009   1.201
30904W        W96065  29.448  11.823   5.016
30905W        W96066  24.943  16.180   1.148
30906W        W96067  44.506  24.912   4.651
30907W        W96068  14.269  15.566   2.693
30908W        W96069   3.006  11.808  10.009
30909W        W96070  36.204   9.851  12.270
30910W        W96071  13.295  44.450   1.284
30911W        W96072   9.724  24.088   4.648
30912W        W96073   0.300  27.106   4.531
30913W        W96074  26.558   9.650  13.500
30914W        W96075   1.960  21.085   1.208
30915W        W96076  29.722  13.568  11.546
30916W        W96077  25.628  40.372  10.500
30917W        W96078  38.196   6.282   1.229
30918W        W96079  20.822   6.228   2.412
30919W        W96080  24.585  19.524  13.959
30920W        W96081   6.094  15.287   0.567
30921W        W96082  21.590  14.557   1.375
30922W        W96083  35.380   4.170  13.895
30923W        W96084   1.754  19.956   0.364
30924W        W96085  23.748  41.461   2.780
30925W        W96086  15.868  25.051   1.869
30926W        W96087  31.973   3.828   1.021
30927W        W96088  42.994   2.743   4.549
30928W        W96089  44.449  13.316   5.028
30929W        W96090  12.140  13.655   1.291
30930W        W96091  29.080   3.513   3.667
30931W        W96092  24.665  16.084   4.601
30932W        W96093  15.108  28.942  11.555
30933W        W96094   6.044  13.357  14.453
30934W        W96095   7.682  34.023  13.051
30935W        W96096  24.039  38.131   9.739
30936W        W96097  20.863  15.236  13.364
30937W        W96098   0.164   2.935  11.486
30938W        W96099  19.826   2.475  13.954
30939W        W96100   6.531  34.481  12.855
30940W        W96101  29.031   0.061  13.858
30941W        W96102  44.447  34.077  14.331
30942W        W96103  22.134  32.403  11.307
30943W        W96104  37.614  32.374  14.727
30944W        W96105  29.929  38.315   3.804
30945W        W96106  27.716  29.623   3.786
30946W        W96107  12.159   9.375  13.947
30947W        W96108  22.293  13.234   0.295
30948W        W96109  31.062   3.688   3.232
30949W        W96110  39.064  26.466   2.337
30950W        W96111  10.386  24.376   1.941
30951W        W96112  31.648   2.348  12.407
30952W        W96113  29.654  25.375  11.885
30953W        W96114  25.871  12.708  10.351
30954W        W96115  24.901  27.140   1.489
30955W        W96116  24.633  42.895  10.444
30956W        W96117   3.220  43.319  11.165
30957W        W96118  20.551   4.318  12.106
30958W        W96119  15.589  11.200  11.148
30959W        W96120  24.002  24.974   4.167
30960W        W96121  13.842  29.362  14.882
30961W        W96122  42.837   7.121  11.641
30962W        W96123  12.548  19.423   2.639
30963W        W96124  35.292  32.980   1.777
30964W        W96125  17.583   1.880   3.389
30965W        W96126  41.403  12.906  14.268
30966W        W96127  34.083  22.824   5.022
30967W        W96128   0.914   3.765  13.781
30968W        W96129  34.107  14.165   2.600
30969W        W96130  25.559   0.460   0.345
30970W        W96131  17.774  25.154   4.744
30971W        W96132   0.898   6.384   0.274
30972W        W96133  39.410  32.982  10.437
30973W        W96134  27.701  26.812  10.022
30974W        W96135   6.796  15.397  13.410
30975W        W96136   5.421  31.948   4.206
30976W        W96137  31.410  39.384   9.592
30977W        W96138  21.228   8.333   2.496
30978W        W96139  28.836   4.371   0.289
30979W        W96140   0.896  33.459   2.595
30980W        W96141  42.323  29.005   0.370
30981W        W96142  13.130  22.878   5.092
30982W        W96143   1.169  41.791   0.292
30983W        W96144   0.917   1.986   3.831
30984W        W96145  29.854   6.997   4.087
30985W        W96146  30.193  18.312  14.325
30986W        W96147  20.681  22.616   2.769
30987W        W96148  29.448  18.256   1.268
30988W        W96149  32.991  20.364   4.167
30989W        W96150  29.895  32.417  14.497
30990W        W96151  27.571  20.917   2.823
30991W        W96152  43.619  18.938  11.176
30992W        W96153  15.330   7.005   4.649
30993W        W96154  42.012  22.011   0.024
30994W        W96155  23.503  23.244   0.342
30995W        W96156  19.879  41.268  12.221
30996W        W96157  40.527   6.256   3.436
30997W        W96158   8.489  40.372   0.907
30998W        W96159  34.945  32.616  11.118
30999W        W96160  29.007  29.347   3.135
31000W        W96161  39.897  35.431  12.106
31001W        W96162  38.400  25.455   2.731
31002W        W96163  27.210  33.588   2.339
31003W        W96164   9.747  29.046   1.799
31004W        W96165  35.471   2.638  10.656
31005W        W96166  10.192  10.684   4.515
31006W        W96167  39.001   6.392   1.411
31007W        W96168  43.494  35.565  14.841
31008W        W96169   2.707   4.009  13.365
31009W        W96170  25.266  42.416   2.656
31010W        W96171  30.564  19.965   0.786
31011W        W96172  44.880   7.784   1.034
31012W        W96173  21.147  43.816   1.911
31013W        W96174   4.278   4.846   4.344
31014W        W96175  22.281  40.945  13.949
31015W        W96176   3.909   8.444   3.193
31016W        W96177  34.335   8.249  12.714
31017W        W96178  33.187  29.638   4.190
31018W        W96179  39.592  21.097  13.751
31019W        W96180  42.227  11.242  11.584
31020W        W96181  27.061  41.884  12.817
31021W        W96182  15.692  36.455  12.442
31022W        W96183   5.880  27.444  13.467
31023W        W96184   1.797  40.919  11.269
31024W        W96185  26.823  21.702   5.039
31025W        W96186  15.701  29.182   4.104
31026W        W96187  44.272  36.975   1.782
31027W        W96188  40.370  27.571  14.878
31028W        W96189  17.129  41.906  13.604
31029W        W96190  43.882  13.694  10.529
31030W        W96191  39.447  36.414   4.557
31031W        W96192  16.137  41.909   1.804
31032W        W96193  14.205  31.342   3.455
31033W        W96194  18.999  19.213  12.369
31034W        W96195  29.893  24.147   0.936
31035W        W96196  21.050  10.572   1.295
31036W        W96197  44.177  25.719   3.664
31037W        W96198   1.283   2.336   1.448
31038W        W96199   0.487  37.935   4.968
31039W        W96200  28.991  25.675  12.424
31040W        W96201  33.825  34.418   2.236
31041W        W96202  35.380  13.892  11.312
31042W        W96203  13.787  20.429  13.059
31043W        W96204  32.130  40.949  13.160
31044W        W96205  27.037   3.048  14.518
31045W        W96206  42.300   9.206  11.532
31046W        W96207  19.588   7.654   2.185
31047W        W96208  30.237  22.551   2.697
31048W        W96209  44.439  37.366   0.477
31049W        W96210  20.153  37.966  10.929
31050W        W96211   7.762   6.764  14.254
31051W        W96212  34.393  19.088  14.642
31052W        W96213  10.533  29.811   1.410
31053W        W96214  27.931  12.286   4.452
31054W        W96215  28.647   0.540  13.094
31055W        W96216  34.616  34.301  12.727
31056W        W96217  16.343  30.494  10.667
31057W        W96218   8.726  17.225  12.591
31058W        W96219  28.764  10.334  14.268
31059W        W96220  35.172   0.333  11.662
31060W        W96221  17.303  13.036  13.238
31061W        W96222  34.829  25.651   3.987
31062W        W96223   5.079   2.529  13.593
31063W        W96224   6.563  21.235   0.460
31064W        W96225  37.649  13.672   1.992
31065W        W96226  13.285  38.991  11.936
31066W        W96227  42.626  27.838   0.712
31067W        W96228  20.056  14.022   4.524
31068W        W96229  43.831  10.871   3.363
31069W        W96230  13.623  38.196  10.834
31070W        W96231  18.145   8.848   1.457
31071W        W96232  21.104  42.525   2.828
31072W        W96233  12.303  39.884  11.015
31073W        W96234  24.329  41.138   0.381
31074W        W96235  38.211   2.951  11.797
31075W        W96236  17.233  13.109  13.750
31076W        W96237  11.856   4.577  11.081
31077W        W96238  21.566  10.499  13.839
31078W        W96239   3.881  18.993   4.014
31079W        W96240  29.638  39.030  13.593
31080W        W96241  31.451  41.684   1.357
31081W        W96242  31.020  18.229   3.302
31082W        W96243  30.023  16.459  14.331
31083W        W96244  33.580  19.793  10.275
31084W        W96245  44.935  19.839  12.133
31085W        W96246  39.792  29.583  10.682
31086W        W96247  37.717   6.908  14.324
31087W        W96248  18.420  16.586   3.066
31088W        W96249  40.817   0.117   0.373
31089W        W96250  38.832  42.988   2.152
31090W        W96251  29.069   7.382   2.324
31091W        W96252  26.555  31.642  13.036
31092W        W96253  13.440  34.421  11.224
31093W        W96254  30.589  28.149  14.456
31094W        W96255  27.489  24.473  14.876
31095W        W96256  22.916  41.328  12.099
31096W        W96257   2.796  11.788  13.574
31097W        W96258  30.355   5.834  12.867
31098W        W96259  28.155  16.540  11.766
31099W        W96260  42.403  30.720   1.711
31100W        W96261  24.031   0.831  11.668
31101W        W96262   5.410   0.790  14.609
31102W        W96263  21.992  43.562   2.906
31103W        W96264  31.381  38.603   1.920
31104W        W96265  26.708  41.143   0.770
31105W        W96266  10.078  21.161  11.179
31106W        W96267  18.617  19.157  10.289
31107W        W96268   7.898   5.887  14.891
31108W        W96269  29.948  25.385  14.405
31109W        W96270  37.330  33.186  11.183
31110W        W96271  39.222   5.132   1.224
31111W        W96272  35.000  28.975   1.834
31112W        W96273  13.172  16.322  14.840
31113W        W96274  27.221   7.767  13.349
31114W        W96275  37.446   8.283   3.345
31115W        W96276  29.050  19.606  10.620
31116W        W96277  15.817  18.025  12.351
31117W        W96278  41.412  43.579  13.822
31118W        W96279  30.820  28.521  14.072
31119W        W96280  19.538  35.875   4.514
31120W        W96281  35.443  39.373  11.425
31121W        W96282   1.258  38.367   0.397
31122W        W96283  18.732  36.543  13.924
31123W        W96284  31.912  26.621  11.601
31124W        W96285  13.871   6.236   0.818
31125W        W96286  18.104  28.301   1.789
31126W        W96287  33.530  16.772   1.931
31127W        W96288  11.475  25.204   2.105
31128W        W96289  24.599  42.302  13.451
31129W        W96290  42.378   3.078  14.959
31130W        W96291  16.144  18.933  12.408
31131W        W96292  26.279   9.810   4.490
31132W        W96293  19.642  28.078   2.949
31133W        W96294   0.020   2.395  11.079
31134W        W96295   8.563  21.863  13.824
31135W        W96296  37.577  23.094   3.715
31136W        W96297  37.802  37.411  13.324
31137W        W96298  26.096  22.253  10.714
31138W        W96299  43.936  34.591   5.500
31139W        W96300  40.852  39.101   4.305
31140W        W96301  22.677  35.477   4.983
31141W        W96302  33.098   5.152  12.904
31142W        W96303  11.347  18.717  12.063
31143W        W96304  21.692  11.846  12.598
31144W        W96305  39.941   2.181   2.378
31145W        W96306  42.801   0.515  11.564
31146W        W96307   3.441  29.290   4.605
31147W        W96308  19.974  44.150  14.333
31148W        W96309  15.815   8.530   2.387
31149W        W96310  31.820  42.229  14.525
31150W        W96311  43.891  10.276   1.265
31151W        W96312  25.671  34.429   0.793
31152W        W96313   1.809  10.869  11.056
31153W        W96314  38.569  43.705   3.324
31154W        W96315  19.134  24.200  12.193
31155W        W96316  22.659   7.247  11.736
31156W        W96317  32.520  26.375  13.797
31157W        W96318  13.577  22.861  13.332
31158W        W96319  22.510   0.536   1.029
31159W        W96320  14.129  15.411   4.649
31160W        W96321  22.285  39.537  13.665
31161W        W96322  37.331  19.146  11.486
31162W        W96323   4.343  29.754  11.007
31163W        W96324   8.287  43.268   3.821
31164W        W96325  11.230  36.899  11.145
31165W        W96326   7.995  41.453   1.695
31166W        W96327  35.381  33.307   3.612
31167W        W96328  16.727  10.442   2.754
31168W        W96329   5.692  38.588   2.863
31169W        W96330  28.093  41.799   3.694
31170W        W96331   1.059  23.587  13.290
31171W        W96332  27.538  28.521  14.280
31172W        W96333  34.431  19.677   2.317
31173W        W96334  31.943  18.696  14.825
31174W        W96335  25.645  28.834  10.657
31175W        W96336   4.007  22.302   3.242
31176W        W96337   8.617  42.596   1.972
31177W        W96338  38.661  32.950  11.177
31178W        W96339  35.403  16.674  11.180
31179W        W96340  28.230   9.576  10.713
31180W        W96341  44.293  14.629  10.652
31181W        W96342  35.463  27.659  14.320
31182W        W96343   4.890  11.643  12.065
31183W        W96344  21.592  42.688   2.826
31184W        W96345  24.659  15.229  14.644
31185W        W96346   2.755  28.445  12.375
31186W        W96347   1.487  14.648   1.169
31187W        W96348  34.972  39.753   2.755
31188W        W96349  13.281  13.003   1.347
31189W        W96350  23.525   8.251   4.763
31190W        W96351  18.796   9.968   1.250
31191W        W96352   3.951  35.175  10.699
31192W        W96353  19.243   3.966   4.704
31193W        W96354  25.758   5.171   4.061
31194W        W96355  13.692  21.031   4.569
31195W        W96356   4.755  24.442   0.151
31196W        W96357  27.074  21.111  11.872
31197W        W96358   8.266  41.514  12.127
31198W        W96359  29.332  25.575  14.850
31199W        W96360  32.668  36.953  14.316
31200W        W96361   3.730   8.956   1.918
31201W        W96362  43.744  31.100  14.042
31202W        W96363  22.168   3.657  10.842
31203W        W96364  13.148  18.667   4.418
31204W        W96365   6.734  14.744   1.182
31205W        W96366  42.342  40.507   0.843
31206W        W96367   9.823  16.116   2.894
31207W        W96368  29.415  34.781   4.817
31208W        W96369  21.684  44.477   2.873
31209W        W96370  13.856  35.375  14.459
31210W        W96371  17.143  28.177  10.610
31211W        W96372  21.896  38.460  13.355
31212W        W96373  42.728  26.090  14.787
31213W        W96374   8.721  35.669   3.314
31214W        W96375   6.777   2.017   4.224
31215W        W96376  36.981  13.651  12.064
31216W        W96377   2.710  24.282  14.391
31217W        W96378   4.640  38.009   0.391
31218W        W96379   0.496  27.635   0.915
31219W        W96380  19.765   5.738   4.429
31220W        W96381  43.622   4.469  12.986
31221W        W96382  40.692   4.104   0.869
31222W        W96383  21.630  27.063  12.012
31223W        W96384  36.411  25.512   4.344
31224W        W96385   1.197  29.538  13.377
31225W        W96386  32.677  34.345  10.516
31226W        W96387   4.626  44.211  14.454
31227W        W96388   9.361  19.475  13.282
31228W        W96389  33.924  19.360  11.188
31229W        W96390  27.658   0.759   3.140
31230W        W96391  19.595   1.058   4.951
31231W        W96392  34.549  24.101  11.847
31232W        W96393  11.117   7.786   1.782
31233W        W96394  25.006  30.849   3.302
31234W        W96395  33.362  24.243   2.439
31235W        W96396  32.754  32.405  13.422
31236W        W96397  23.586  30.957   2.259
31237W        W96398  26.389  40.438   0.114
31238W        W96399  22.775  33.061  10.302
31239W        W96400  13.749   8.326   1.281
31240W        W96401  14.810  15.994   4.027
31241W        W96402  19.773  16.569  14.517
31242W        W96403  19.790  25.899   1.648
31243W        W96404  33.298  42.945  10.604
31244W        W96405  36.077  28.475  14.900
31245W        W96406  17.774  25.572   4.385
31246W        W96407  26.393  11.156   2.039
31247W        W96408  20.298  42.579   5.375
31248W        W96409  15.067  40.567   1.292
31249W        W96410  41.213  23.997   1.196
31250W        W96411   0.636   4.356  11.973
31251W        W96412   8.764   6.492   0.471
31252W        W96413  44.849  33.055   1.241
31253W        W96414  32.663  29.081   2.117
31254W        W96415  24.988  43.994   3.562
31255W        W96416   6.237  31.928  11.609
31256W        W96417  22.813  19.776  11.581
31257W        W96418  22.267  15.042   3.219
31258W        W96419  20.496  26.304   4.426
31259W        W96420  35.926  15.380   2.547
31260W        W96421  33.801  20.643  11.605
31261W        W96422  25.068  30.166  10.619
31262W        W96423  12.072  16.177  14.457
31263W        W96424  42.898  41.400   0.433
31264W        W96425  11.553  34.475  12.129
31265W        W96426  10.297  29.325   9.997
31266W        W96427   0.881  17.400  14.420
31267W        W96428  29.172  17.391  13.966
31268W        W96429  15.775   6.765   1.622
31269W        W96430  26.610  18.324   2.244
31270W        W96431  37.885  26.877  10.435
31271W        W96432  44.430   0.089   4.594
31272W        W96433  42.014  34.241   2.890
31273W        W96434   9.038  28.965   0.809
31274W        W96435  28.973  41.994  14.260
31275W        W96436   0.836  42.530  11.448
31276W        W96437  41.512  17.585   2.199
31277W        W96438  10.582  42.872   4.042
31278W        W96439  38.031  35.783  13.524
31279W        W96440  26.147  33.042  14.808
31280W        W96441  40.856   7.205   2.090
31281W        W96442  44.768  38.640   2.270
31282W        W96443  12.186   0.353   2.311
31283W        W96444  35.586   8.485  13.418
31284W        W96445  10.656   2.487  14.294
31285W        W96446  44.792  33.725   3.115
31286W        W96447  44.873  18.173   0.130
31287W        W96448   4.309  33.104  12.447
31288W        W96449   6.765  10.327   3.173
31289W        W96450  44.449  42.294  11.099
31290W        W96451  42.063  12.780   1.953
31291W        W96452  22.928  13.413   4.095
31292W        W96453  23.600  29.201  13.050
31293W        W96454  28.133  36.722  11.122
31294W        W96455  31.397  32.968  10.767
31295W        W96456  31.187  44.854  11.519
31296W        W96457  25.039  16.056  10.213
31297W        W96458  23.132  42.128   1.126
31298W        W96459   2.246  11.790  12.898
31299W        W96460  19.074   9.554  11.223
31300W        W96461  30.608  15.719  12.604
31301W        W96462  14.834   1.009  12.054
31302W        W96463  33.799  33.657  11.031
31303W        W96464   6.963  29.635   9.836
31304W        W96465  42.014  19.817   0.277
31305W        W96466  12.257  37.749  12.448
31306W        W96467  39.583  20.838  13.267
31307W        W96468   7.247  34.931  11.873
31308W        W96469  24.184  41.045  12.626
31309W        W96470  34.343  22.550   3.198
31310W        W96471  39.863  10.349  11.998
31311W        W96472  33.541  15.221  13.574
31312W        W96473  23.184  42.833  13.026
31313W        W96474  39.456  42.979   1.382
31314W        W96475  12.186  38.128   1.923
31315W        W96476  13.319  43.804   0.567
31316W        W96477   0.199  20.231   2.788
31317W        W96478   5.411  21.212  12.008
31318W        W96479  25.283  30.601   2.440
31319W        W96480   4.254  40.478  13.215
31320W        W96481  25.587   7.187  13.764
31321W        W96482  21.632  32.412   3.505
31322W        W96483  10.321  28.972  10.411
31323W        W96484  33.071  14.679  12.114
31324W        W96485  14.877  35.331   0.983
31325W        W96486  20.072  23.649   5.362
31326W        W96487  40.082  21.032  13.937
31327W        W96488   4.733  44.669   3.589
31328W        W96489  15.221  27.130   2.281
31329W        W96490  19.218  12.657  14.897
31330W        W96491  21.267  22.220   2.195
31331W        W96492  36.992  43.515   2.240
31332W        W96493  30.163  25.247   4.155
31333W        W96494  38.095   7.729   2.885
31334W        W96495  31.503   5.663   1.001
31335W        W96496  14.872  16.221   5.042
31336W        W96497  14.831  26.567   0.283
31337W        W96498  33.109  14.299  12.769
31338W        W96499   0.283  26.084   4.542
31339W        W96500   4.669   6.796  14.842
31340W        W96501  41.042  11.425   1.299
31341W        W96502  25.177  24.016   3.195
31342W        W96503  43.736  26.134  11.322
31343W        W96504  12.995   8.995   3.842
31344W        W96505  35.317   0.074  11.217
31345W        W96506  13.074  36.500   4.869
31346W        W96507  23.230  22.878  12.140
31347W        W96508  30.473  40.986   0.337
31348W        W96509  25.577  35.998  12.970
31349W        W96510  21.693  23.042  12.738
31350W        W96511  12.522  41.538  12.642
31351W        W96512  34.890   0.393   1.985
31352W        W96513  15.025   1.415  13.508
31353W        W96514  13.388  14.084  12.938
31354W        W96515  37.762  40.639   3.313
31355W        W96516  44.472  23.744   2.297
31356W        W96517  11.731  14.364   4.615
31357W        W96518  19.817  26.599  12.570
31358W        W96519  31.127  18.534  10.260
31359W        W96520  15.694  39.330  14.769
31360W        W96521  31.813  33.163  11.005
31361W        W96522   8.164  19.316  10.714
31362W        W96523  28.321  44.146   1.261
31363W        W96524   3.363   9.319  10.843
31364W        W96525  44.370  22.607  12.119
31365W        W96526  30.071  19.464  10.185
31366W        W96527  40.318   2.672  13.431
31367W        W96528  17.250  20.970   3.379
31368W        W96529   5.727  32.427  10.758
31369W        W96530  36.278  36.211   3.295
31370W        W96531  40.114  12.779   3.637
31371W        W96532  19.462  42.957  12.983
31372W        W96533   3.405   3.801   0.875
31373W        W96534  24.744   2.410  13.096
31374W        W96535  35.623  12.575  14.868
31375W        W96536  32.104  25.736  11.685
31376W        W96537  41.485  21.930  14.249
31377W        W96538  26.182  43.496  14.933
31378W        W96539  31.897   8.676   2.946
31379W        W96540  24.698   2.731  11.891
31380W        W96541  32.162  21.119   1.327
31381W        W96542  11.136   5.399   1.890
31382W        W96543   3.519  32.448   4.139
31383W        W96544  37.841  36.769   1.003
31384W        W96545   2.167  11.830  14.826
31385W        W96546   4.851  23.701  10.803
31386W        W96547  32.543  10.543   3.578
31387W        W96548  41.939   1.702  10.344
31388W        W96549  16.531  35.111  10.965
31389W        W96550  11.268  21.701   2.465
31390W        W96551  16.618   6.423   2.159
31391W        W96552  38.703  15.543   2.013
31392W        W96553  26.668  23.646   9.780
31393W        W96554  39.431  17.651  12.053
31394W        W96555  18.510   3.426   1.664
31395W        W96556  21.783  14.508  13.015
31396W        W96557  40.527  32.029  12.464
31397W        W96558   3.001  16.570   1.837
31398W        W96559   6.401  22.300  12.379
31399W        W96560  15.617  24.609  14.398
31400W        W96561  13.651  35.829   1.979
31401W        W96562  43.345  36.802  13.157
31402W        W96563  44.807   6.439  10.579
31403W        W96564  28.463   2.306  11.684
31404W        W96565  30.785  31.411   1.821
31405W        W96566  32.966   5.254   0.933
31406W        W96567  42.151  39.684  10.158
31407W        W96568  22.485  24.887  14.337
31408W        W96569  17.189   5.108  13.735
31409W        W96570  39.880  11.509  12.742
31410W        W96571  12.910  14.188   3.717
31411W        W96572  20.361  38.578   1.428
31412W        W96573  27.566  38.784   0.911
31413W        W96574   2.659  22.704   4.758
31414W        W96575  36.595   8.980  10.444
31415W        W96576  10.785  10.453   1.270
31416W        W96577  29.923  42.960   4.070
31417W        W96578  34.938   4.932   1.273
31418W        W96579   1.789   0.441  13.075
31419W        W96580  34.609  27.402  13.784
31420W        W96581  16.839  23.886   0.222
31421W        W96582  22.506  39.687  14.643
31422W        W96583  31.265  36.839   0.386
31423W        W96584  35.264  25.437   0.279
31424W        W96585   3.334  30.344   2.712
31425W        W96586  21.438  13.166  10.538
31426W        W96587  31.878   5.868   3.244
31427W        W96588   8.254  39.051   3.975
31428W        W96589  43.436  44.771  13.947
31429W        W96590  32.447  22.816   3.002
31430W        W96591  32.611  23.086  14.753
31431W        W96592  42.847  12.243  11.989
31432W        W96593  44.196  11.714  11.941
31433W        W96594   1.511  29.404  12.009
31434W        W96595  38.392  41.039   2.845
31435W        W96596  40.360   5.716  14.047
31436W        W96597  38.552  21.083  14.297
31437W        W96598  34.347  17.515   1.898
31438W        W96599  28.825  29.522   4.797
31439W        W96600  27.673  26.950  14.032
31440W        W96601  19.200  15.788  11.150
31441W        W96602   5.670  32.971   2.625
31442W        W96603   3.006  15.862   0.553
31443W        W96604  44.243  36.149  12.677
31444W        W96605  29.945   1.749   2.875
31445W        W96606  35.931  18.411   0.266
31446W        W96607  21.118  17.051   3.695
31447W        W96608  38.121  15.053   0.183
31448W        W96609  23.752  32.625   2.319
31449W        W96610   2.907  19.220   0.472
31450W        W96611   3.471  34.045   0.362
31451W        W96612  17.241  26.067  12.028
31452W        W96613  14.347  31.498  12.003
31453W        W96614   4.823  40.153  11.483
31454W        W96615  22.289  37.908   4.624
31455W        W96616   6.725   2.200   3.748
31456W        W96617   0.240  17.809   0.018
31457W        W96618   3.704  31.539   3.015
31458W        W96619   8.760  26.625   1.385
31459W        W96620  38.405  39.818  13.328
31460W        W96621  11.621  10.062  13.598
31461W        W96622   3.645  35.940   5.000
31462W        W96623   8.803  27.203   3.192
31463W        W96624  34.951  13.652  14.109
31464W        W96625  22.800   5.045   2.343
31465W        W96626   8.929  42.498   4.453
31466W        W96627  13.454  11.753  10.880
31467W        W96628  28.041  17.902  11.915
31468W        W96629  29.080  34.032   4.567
31469W        W96630   2.788   3.098  11.623
31470W        W96631   7.972  21.964  10.762
31471W        W96632  16.381  21.796  12.468
31472W        W96633  33.820  19.749   3.259
31473W        W96634  41.974  15.453  14.892
31474W        W96635  13.284   4.560   1.913
31475W        W96636  10.262  29.416  11.840
31476W        W96637  22.647   3.270   3.197
31477W        W96638  38.076  22.272   2.067
31478W        W96639  31.475   2.245  13.748
31479W        W96640  44.953  19.406  11.175
31480W        W96641  16.212  28.148   4.663
31481W        W96642  26.622  21.518   3.652
31482W        W96643  28.524  35.428   4.375
31483W        W96644  42.565  41.963   1.166
31484W        W96645  39.022  27.737   2.692
31485W        W96646   5.586  38.444   4.362
31486W        W96647  27.627  10.426  10.190
31487W        W96648  40.623  29.848   2.632
31488W        W96649  21.695  15.504   0.369
31489W        W96650   2.761  29.242   2.360
31490W        W96651  44.000   8.421  12.503
31491W        W96652  29.454  41.732   4.963
31492W        W96653  44.519  38.134  10.706
31493W        W96654  10.613  21.347   0.440
31494W        W96655  37.356   8.344  12.803
31495W        W96656  32.894  40.977  14.618
31496W        W96657   4.129   8.134  11.115
31497W        W96658  17.061  27.614   3.381
31498W        W96659  36.405  40.911   4.435
31499W        W96660   7.727   6.128  12.231
31500W        W96661   6.179  21.578   1.260
31501W        W96662   7.939  32.690  12.444
31502W        W96663  16.192  29.944  13.561
31503W        W96664  36.230  16.041  11.196
31504W        W96665  34.948  16.092  11.677
31505W        W96666  13.077  38.629   4.000
31506W        W96667  44.235  42.862  13.548
31507W        W96668  18.645   1.485   4.209
31508W        W96669  26.975  35.172   4.227
31509W        W96670  34.968   3.653   4.548
31510W        W96671  10.458  18.964  12.060
31511W        W96672  23.507  23.673   4.100
31512W        W96673  12.362  10.203   3.574
31513W        W96674   6.360  38.634   2.331
31514W        W96675  42.847  38.500   2.286
31515W        W96676   6.911  25.108  11.997
31516W        W96677  39.480  12.350   3.203
31517W        W96678  11.323  20.570  11.130
31518W        W96679  29.068  35.657  14.423
31519W        W96680   5.870  36.497   0.071
31520W        W96681  35.602  22.013  14.724
31521W        W96682  34.878  36.220  12.880
31522W        W96683  24.821  26.542  12.579
31523W        W96684  44.934  14.607   4.541
31524W        W96685   6.601  14.630  13.083
31525W        W96686   5.902  24.108  13.170
31526W        W96687  42.404  12.026  11.573
31527W        W96688  24.805  43.716   2.223
31528W        W96689   9.302  20.282  14.890
31529W        W96690  16.183   9.147   1.017
31530W        W96691  34.859   9.445  10.371
31531W        W96692   6.818  11.012   0.372
31532W        W96693  17.690   4.395   3.809
31533W        W96694  33.919  13.871   2.245
31534W        W96695  12.896  18.494  13.436
31535W        W96696  37.285  33.062  12.517
31536W        W96697   3.304  41.734   2.168
31537W        W96698  21.969  38.039  11.109
31538W        W96699  35.289  41.967   2.247
31539W        W96700  41.997  28.162  10.738
31540W        W96701  31.524  11.195  14.543
31541W        W96702  12.773  31.174  11.420
31542W        W96703  10.163  34.886  14.389
31543W        W96704  12.339  28.977  11.128
31544W        W96705  20.747   9.056  12.847
31545W        W96706   3.776  22.844   0.905
31546W        W96707  35.402  11.879  12.623
31547W        W96708  16.574   0.882  11.533
31548W        W96709   6.911  27.635   4.411
31549W        W96710  39.566  43.264   0.147
31550W        W96711  13.584  41.401   2.426
31551W        W96712  16.218  22.832  10.361
31552W        W96713  40.413  14.182  13.747
31553W        W96714  42.783  38.149   4.596
31554W        W96715  20.369  43.973   9.877
31555W        W96716  22.099  42.861   0.890
31556W        W96717  10.910  39.847  12.128
31557W        W96718   1.459  11.806   3.654
31558W        W96719   7.552   9.859   2.125
31559W        W96720   9.326   1.660   3.645
31560W        W96721  18.279  26.473   1.835
31561W        W96722  33.634  37.004   1.844
31562W        W96723  32.115  23.189  14.518
31563W        W96724  37.514  15.134   1.634
31564W        W96725   7.219  10.290  11.478
31565W        W96726  44.793  26.374  13.082
31566W        W96727  20.720   8.958   3.250
31567W        W96728  38.567  14.084  13.030
31568W        W96729  11.606  27.947   1.226
31569W        W96730   2.372  32.069  12.098
31570W        W96731  41.430  13.366   4.650
31571W        W96732  41.563   3.027   2.701
31572W        W96733  13.634  11.973  13.467
31573W        W96734   0.716  37.366  11.012
31574W        W96735   2.374  20.235  11.914
31575W        W96736  18.272  11.423   1.354
31576W        W96737   6.196  33.314  11.577
31577W        W96738   5.321   9.926  12.373
31578W        W96739  28.038  10.680   4.254
31579W        W96740  27.160   4.935   2.817
31580W        W96741  33.463   7.813   4.585
31581W        W96742  17.828   2.379   4.152
31582W        W96743  21.325  28.022   0.744
31583W        W96744   0.330  21.119  13.937
31584W        W96745  26.537   2.494   3.240
31585W        W96746  27.463   3.677  12.452
31586W        W96747   5.359   8.418  14.301
31587W        W96748  13.124  32.628  11.450
31588W        W96749  11.452  16.195   3.635
31589W        W96750  40.849  13.184  14.421
31590W        W96751  22.273   9.875  13.069
31591W        W96752  32.818  14.486   1.231
31592W        W96753   2.150  35.558   0.398
31593W        W96754  36.345   6.881   2.732
31594W        W96755  27.191  39.354  12.930
31595W        W96756  28.048  29.522  10.976
31596W        W96757  21.434   9.827  14.444
31597W        W96758  19.813  11.852   1.303
31598W        W96759   7.192  43.461   0.335
31599W        W96760  39.124  15.947   5.025
31600W        W96761   4.275  23.678   4.969
31601W        W96762  22.998  29.177   2.863
31602W        W96763  28.808   2.195  14.409
31603W        W96764  26.242  20.791   3.848
31604W        W96765  41.352  20.990  14.391
31605W        W96766  33.406   8.615   2.719
31606W        W96767  22.204  37.064  14.573
31607W        W96768  24.475   0.970  11.880
31608W        W96769  31.392   2.215   2.464
31609W        W96770  32.952  44.426   3.680
31610W        W96771  13.223  43.566  14.794
31611W        W96772  27.189   6.325   0.615
31612W        W96773  22.647  40.684   5.564
31613W        W96774  42.028  11.139   2.225
31614W        W96775  37.112  18.566   4.182
31615W        W96776  42.402  44.854   2.340
31616W        W96777  35.987   5.943   1.398
31617W        W96778   6.545  40.327  13.540
31618W        W96779  35.935  10.273   3.356
31619W        W96780  44.009  28.952  12.017
31620W        W96781  31.163  42.113   2.913
31621W        W96782   8.007  10.939  14.478
31622W        W96783  36.841   2.765   1.479
31623W        W96784   1.640   1.407  12.979
31624W        W96785  29.134  32.873  13.904
31625W        W96786   1.207  17.626   2.838
31626W        W96787  35.466  23.074  12.686
31627W        W96788  10.032  17.081  12.215
31628W        W96789  42.031  35.446   2.181
31629W        W96790  36.129  20.598  14.229
31630W        W96791   3.476   0.999   0.950
31631W        W96792  27.022   6.951  11.649
31632W        W96793   0.758  10.238  10.621
31633W        W96794   3.144  15.771  10.060
31634W        W96795  30.677  26.165   0.663
31635W        W96796   8.971  10.968   0.738
31636W        W96797  27.616  18.247  12.507
31637W        W96798  23.322  44.349  11.246
31638W        W96799  35.068  13.227   0.476
31639W        W96800  39.573  14.949   1.463
31640W        W96801  11.316  29.733  14.872
31641W        W96802  20.085   0.917  13.025
31642W        W96803   6.750  12.119  12.901
31643W        W96804  25.481  36.357   9.868
31644W        W96805  41.155   6.363   3.572
31645W        W96806  42.212  12.108  14.401
31646W        W96807  14.238   8.088  12.568
31647W        W96808  33.632   8.699   3.167
31648W        W96809  31.646  13.317   0.231
31649W        W96810  39.173  12.761  14.276
31650W        W96811  20.106  43.575   4.031
31651W        W96812  36.017  21.263  11.431
31652W        W96813  21.695   8.810  12.122
31653W        W96814  32.600  16.682   1.863
31654W        W96815   7.482  18.786   1.829
31655W        W96816  36.076  24.669   2.143
31656W        W96817  37.887  24.588  14.349
31657W        W96818   7.376  26.275   3.344
31658W        W96819   2.265   8.658   2.669
31659W        W96820  16.932  14.050   1.665
31660W        W96821  25.484  42.172   1.716
31661W        W96822  23.685  33.889   0.449
31662W        W96823  41.236  21.782  12.262
31663W        W96824   2.793  16.107   2.652
31664W        W96825  44.973  35.415  11.130
31665W        W96826  24.692   0.361  11.278
31666W        W96827  39.880  18.897  12.966
31667W        W96828  21.671  32.982   1.742
31668W        W96829   9.720  43.324  13.878
31669W        W96830  25.475  33.709  11.249
31670W        W96831  23.252  42.450  13.484
31671W        W96832  32.708  34.833  12.744
31672W        W96833  44.561  25.641   4.077
31673W        W96834   2.223  20.385   4.518
31674W        W96835  19.586   6.314   0.024
31675W        W96836  43.754  12.814   2.262
31676W        W96837  44.003  29.683  11.570
31677W        W96838  34.472   3.011  13.812
31678W        W96839   3.178  31.571  13.819
31679W        W96840  28.436  42.727  11.427
31680W        W96841  28.577  39.644   4.972
31681W        W96842  10.840  24.340   3.244
31682W        W96843  40.676  29.160   1.810
31683W        W96844  41.477   8.792  10.713
31684W        W96845   5.073  15.591   1.191
31685W        W96846  27.183   4.834  14.790
31686W        W96847   9.193  40.324   1.942
31687W        W96848  42.196  35.399   5.040
31688W        W96849  42.946  35.419  11.543
31689W        W96850  20.193   2.902  10.426
31690W        W96851  20.471  26.451  11.449
31691W        W96852  38.007  33.426  13.263
31692W        W96853  39.137  12.390  14.636
31693W        W96854  32.757  41.427  13.852
31694W        W96855  18.029   0.566   3.930
31695W        W96856   8.753  39.803  13.801
31696W        W96857  34.057   9.227  10.686
31697W        W96858   9.199  38.614   4.893
31698W        W96859  36.879  42.157   3.194
31699W        W96860  19.425  17.322   3.105
31700W        W96861   3.984   3.694   3.306
31701W        W96862  24.794   2.220   2.231
31702W        W96863   1.588  17.281   2.253
31703W        W96864   5.706   8.295  11.080
31704W        W96865  26.543  37.989   1.470
31705W        W96866   6.709  18.680  14.743
31706W        W96867  21.999  21.611   1.987
31707W        W96868  10.475  32.271   1.488
31708W        W96869  24.498  36.527   4.571
31709W        W96870  10.864  33.853  13.488
31710W        W96871  23.011  27.423   1.111
31711W        W96872  14.216  10.772   0.285
31712W        W96873  35.388  17.930   3.989
31713W        W96874  33.364  41.730   1.430
31714W        W96875  36.089  34.364   4.632
31715W        W96876  33.575  17.235  12.034
31716W        W96877  38.865  17.035  12.472
31717W        W96878  36.205  14.858   1.596
31718W        W96879  25.819  37.860   1.835
31719W        W96880  21.048  20.727   2.358
31720W        W96881   2.667  12.106  10.769
31721W        W96882  38.006   2.242  13.833
31722W        W96883  32.960  21.018  11.180
31723W        W96884  26.410  23.460   1.953
31724W        W96885  32.130   9.533  11.408
31725W        W96886  41.135  34.416  11.431
31726W        W96887  33.196   7.367   1.902
31727W        W96888   7.328  11.178   0.384
31728W        W96889  40.813   9.577  12.149
31729W        W96890  20.688  19.916   2.069
31730W        W96891  25.668   8.963  13.319
31731W        W96892  37.091  25.213   4.143
31732W        W96893  29.062  14.863   0.418
31733W        W96894  28.552   7.174  10.648
31734W        W96895  27.078   5.160   0.471
31735W        W96896  17.633   1.386  10.957
31736W        W96897  32.087  25.714   2.754
31737W        W96898  14.754  26.083  11.564
31738W        W96899  22.971  16.701   2.301
31739W        W96900   0.902  12.669   2.163
31740W        W96901  41.910   3.991  10.458
31741W        W96902   7.780  24.740   2.259
31742W        W96903  27.014   0.972  13.099
31743W        W96904  29.738  19.962  13.364
31744W        W96905  44.012  25.031   1.668
31745W        W96906  28.111  25.478   4.184
31746W        W96907  39.455  25.024  11.626
31747W        W96908  36.058  19.816  12.493
31748W        W96909   3.702  33.930  13.029
31749W        W96910  27.930  15.050  14.857
31750W        W96911   4.481  38.898   4.645
31751W        W96912  39.962   1.287  10.957
31752W        W96913  15.822   1.772   3.004
31753W        W96914  38.374  38.717  14.739
31754W        W96915  40.991  16.737  13.902
31755W        W96916  26.706  15.793   2.284
31756W        W96917  21.609  15.714   3.571
31757W        W96918  39.738  17.783  11.070
31758W        W96919  14.831   1.897   0.373
31759W        W96920   8.642  19.256  14.424
31760W        W96921  34.556  37.490  14.594
31761W        W96922  41.244  40.319   4.102
31762W        W96923  16.812  14.197   2.142
31763W        W96924  12.168  26.152   4.506
31764W        W96925   4.789  34.931   2.640
31765W        W96926   2.888  18.300  14.020
31766W        W96927  43.985   8.932  14.516
31767W        W96928  24.731   2.218  10.677
31768W        W96929  21.915   4.919  13.012
31769W        W96930  12.313   7.774  14.830
31770W        W96931  18.721   0.211  14.593
31771W        W96932  12.143   6.893   3.072
31772W        W96933  31.303   0.981  10.730
31773W        W96934  43.446  19.606  13.801
31774W        W96935  29.719  31.530  12.506
31775W        W96936   1.839  36.932   4.454
31776W        W96937  32.552  21.692  12.142
31777W        W96938  27.728  33.111   1.245
31778W        W96939  25.306  25.092   0.240
31779W        W96940  24.497  12.789   1.694
31780W        W96941   7.960  14.773   2.752
31781W        W96942  40.523  29.182  10.251
31782W        W96943  42.524   3.415  14.119
31783W        W96944   8.395  43.787   3.069
31784W        W96945  27.727   3.814  14.765
31785W        W96946  40.619   0.868   4.582
31786W        W96947  15.631  26.578  14.877
31787W        W96948  36.268  28.129   0.804
31788W        W96949  44.723   0.417  11.057
31789W        W96950  36.424  10.817  11.167
31790W        W96951   0.291   9.994   2.176
31791W        W96952   3.889  25.457  11.192
31792W        W96953   0.662  20.442   1.805
31793W        W96954  30.504   0.486  13.062
31794W        W96955  30.383  19.045   1.021
31795W        W96956  27.204   6.007  13.365
31796W        W96957  11.937   9.085  13.573
31797W        W96958  23.702   1.394  12.566
31798W        W96959  44.299  10.758  10.656
31799W        W96960  15.643  16.526  13.307
31800W        W96961   2.343  19.169  12.874
31801W        W96962   8.443  26.922  10.301
31802W        W96963   7.300  19.790   2.146
31803W        W96964  16.621   2.225  11.111
31804W        W96965   4.853  11.359   0.408
31805W        W96966  26.698  44.048  13.780
31806W        W96967  36.407   8.275  13.520
31807W        W96968  27.540   9.169  14.224
31808W        W96969  19.962  16.786   2.300
31809W        W96970   7.384  21.707   4.031
31810W        W96971  13.297  18.808  13.357
31811W        W96972  23.332  24.593   3.219
31812W        W96973   8.279   1.265  13.544
31813W        W96974  11.895  25.861   4.078
31814W        W96975  36.344   7.323  10.116
31815W        W96976  25.297  31.824  13.622
31816W        W96977  26.175  43.213  12.968
31817W        W96978  22.015  38.798  13.929
31818W        W96979  10.136  14.735  11.105
31819W        W96980  19.490  42.509  12.626
31820W        W96981  17.501   9.097  11.134
31821W        W96982  23.310   1.286   1.499
31822W        W96983  29.417  19.589   3.760
31823W        W96984  38.417  33.150  14.002
31824W        W96985  22.798  16.582   1.831
31825W        W96986   9.846  20.762  13.522
31826W        W96987  40.329  14.486  11.980
31827W        W96988  20.242  10.968   3.699
31828W        W96989  44.676   6.768   2.354
31829W        W96990  14.832  19.552   3.210
31830W        W96991  21.549  14.380  11.621
31831W        W96992  34.121  39.841   3.231
31832W        W96993  25.805  22.206  10.323
31833W        W96994  33.129  27.126   3.258
31834W        W96995   6.314  28.999  12.008
31835W        W96996  32.519  32.049  10.192
31836W        W96997   3.695  11.422  11.154
31837W        W96998  17.446  18.119  13.526
31838W        W96999  17.623  37.122  14.952
31839W        W97000   0.426  15.068  13.431
31840W        W97001  39.025  44.762  13.425
31841W        W97002   2.972  24.084  11.523
31842W        W97003  44.533  17.035   2.274
31843W        W97004  18.579  14.383  14.093
31844W        W97005  33.672  37.845   3.236
31845W        W97006  15.174  13.769   3.698
31846W        W97007  32.338  44.378   2.998
31847W        W97008  17.812  31.943   3.143
31848W        W97009  15.323  10.351  14.895
31849W        W97010  10.208  11.321   3.989
31850W        W97011   7.895  15.618   1.215
31851W        W97012   1.929  18.574  11.678
31852W        W97013   3.701  38.005  13.288
31853W        W97014  14.175  42.326   3.471
31854W        W97015  32.442  15.550  10.239
31855W        W97016  20.070   7.956   0.422
31856W        W97017   3.916  28.400   1.332
31857W        W97018  43.843   1.509  13.518
31858W        W97019  23.686   2.260  14.374
31859W        W97020  36.832  14.852  10.726
31860W        W97021  31.603   4.109   0.801
31861W        W97022  41.132  34.164   0.215
31862W        W97023  30.514   3.785  12.538
31863W        W97024   4.227  42.441   3.566
31864W        W97025  12.821  12.789  14.912
31865W        W97026   1.785  39.615   4.156
31866W        W97027  24.030   1.749   0.173
31867W        W97028  17.163  44.387  10.151
31868W        W97029  41.972  15.323  11.668
31869W        W97030  19.632   4.397   1.335
31870W        W97031   8.268   8.601  12.100
31871W        W97032  32.497  16.748   4.465
31872W        W97033   9.752  44.657   1.841
31873W        W97034  30.139  40.072   4.185
31874W        W97035  16.092   3.686  12.332
31875W        W97036  37.434  28.136   1.620
31876W        W97037  29.035   4.839  14.082
31877W        W97038   8.304  35.912   2.387
31878W        W97039  31.914  28.503  11.983
31879W        W97040  18.290   2.997   2.690
31880W        W97041  10.809  44.045   3.354
31881W        W97042   8.640   9.896  13.320
31882W        W97043  30.018  40.881  11.489
31883W        W97044  32.176   8.638   4.100
31884W        W97045  20.790  29.392  10.758
31885W        W97046  24.642  12.757  13.665
31886W        W97047   8.265  12.751   3.662
31887W        W97048  30.322  33.364  12.403
31888W        W97049  16.936   1.402   4.656
31889W        W97050  24.336   9.211  13.317
31890W        W97051  33.602  24.154   5.647
31891W        W97052  16.219  10.811  10.518
31892W        W97053  16.162  42.004   2.843
31893W        W97054  16.288  40.364   0.500
31894W        W97055  19.093  40.463   0.887
31895W        W97056  37.312   9.552   2.817
31896W        W97057   7.415  42.392   2.718
31897W        W97058  41.286  43.923  11.195
31898W        W97059  20.283  25.243   3.166
31899W        W97060  41.587  37.137   3.142
31900W        W97061  29.105  28.613  12.494
31901W        W97062  18.694  33.078   3.895
31902W        W97063  36.594  27.155   2.639
31903W        W97064  26.936  34.545   4.292
31904W        W97065   4.781   3.869   0.601
31905W        W97066  22.212  35.127  13.453
31906W        W97067   7.181  10.692   3.135
31907W        W97068  36.614  44.323   4.079
31908W        W97069  32.301  14.037   2.288
31909W        W97070  12.678  27.663   1.300
31910W        W97071   7.467   1.417  11.598
31911W        W97072  17.339  10.703  11.366
31912W        W97073   0.437  23.685   2.227
31913W        W97074  11.546  38.732   2.715
31914W        W97075  11.105   2.856   2.899
31915W        W97076  33.371  33.628   1.278
31916W        W97077   4.028  22.271   1.901
31917W        W97078  42.411   6.116   2.281
31918W        W97079  44.708  21.060  14.893
31919W        W97080  41.511  10.345  12.471
31920W        W97081   8.821  33.386   2.657
31921W        W97082  14.622  41.258  11.570
31922W        W97083  39.083   0.626  12.486
31923W        W97084  36.061  19.372   0.425
31924W        W97085  16.200   7.267   2.738
31925W        W97086  33.357  16.352  10.336
31926W        W97087  13.233  35.228   3.294
31927W        W97088   7.444  21.938  11.041
31928W        W97089  24.175  44.706  13.967
31929W        W97090  42.260   2.020  11.075
31930W        W97091  30.986  41.039   0.212
31931W        W97092  43.074  36.988  13.950
31932W        W97093  11.886  25.183  14.776
31933W        W97094   4.863   4.057  11.535
31934W        W97095  40.449   0.782  14.659
31935W        W97096  34.376  34.561  11.085
31936W        W97097  38.888  19.706   0.124
31937W        W97098   3.504  39.655  11.076
31938W        W97099  35.449   7.882  13.380
31939W        W97100   4.266  26.473   0.908
31940W        W97101  38.377  17.032   1.274
31941W        W97102  37.938  22.600   4.141
31942W        W97103   4.244  42.529   2.683
31943W        W97104  31.213  33.929   3.850
31944W        W97105  43.532  20.568  13.838
31945W        W97106  16.721  30.122  10.652
31946W        W97107  11.713  40.038  14.492
31947W        W97108  22.131  26.886  12.410
31948W        W97109  31.515  34.915   4.472
31949W        W97110  40.076  42.980   0.291
31950W        W97111   2.285   9.269   4.267
31951W        W97112  42.921  36.074   0.407
31952W        W97113   3.403   2.239   1.601
31953W        W97114  22.742  32.544   3.616
31954W        W97115  39.476  36.149  11.664
31955W        W97116  22.233  12.341  12.328
31956W        W97117   0.218   9.229   3.225
31957W        W97118  25.727   3.284  11.170
31958W        W97119  25.069   5.884   4.670
31959W        W97120  31.367  15.811   1.867
31960W        W97121  27.575  42.045  13.116
31961W        W97122   4.720  14.578  13.635
31962W        W97123  35.025  27.744  14.999
31963W        W97124  12.713  15.572  14.417
31964W        W97125  30.510  32.427  12.323
31965W        W97126   1.190   2.766   1.884
31966W        W97127   6.821  14.598  12.639
31967W        W97128   3.569  35.542  13.416
31968W        W97129  34.339  27.082   0.547
31969W        W97130  43.787  11.901   0.008
31970W        W97131  27.000   2.193  12.421
31971W        W97132  14.230  14.175   4.468
31972W        W97133  16.775   3.157   4.340
31973W        W97134  42.563  42.820   2.262
31974W        W97135  41.418  35.610   1.536
31975W        W97136  13.669   2.715  11.619
31976W        W97137  28.016  14.078  14.899
31977W        W97138  17.770  10.812   0.891
31978W        W97139   3.783   9.124   3.738
31979W        W97140  12.575  18.569   1.410
31980W        W97141  36.980   4.469   3.137
31981W        W97142   5.337  10.068  11.414
31982W        W97143  42.213   0.878   3.699
31983W        W97144  12.562  33.390   1.873
31984W        W97145  22.281  18.150  13.858
31985W        W97146  25.076  18.098   1.085
31986W        W97147  40.485  44.953   3.639
31987W        W97148  18.670  15.046   5.435
31988W        W97149   3.161  14.760   0.308
31989W        W97150  26.677  29.619  13.885
31990W        W97151   7.239   6.350  13.357
31991W        W97152  11.878  27.007  13.852
31992W        W97153  11.877  44.751   0.248
31993W        W97154  16.154  33.651   3.325
31994W        W97155   4.306   3.647   0.949
31995W        W97156  10.317  13.566   0.869
31996W        W97157   4.315  44.999   3.635
31997W        W97158   2.282   5.900   4.436
31998W        W97159  16.985  25.977  12.478
31999W        W97160   4.830  19.662  11.164
32000W        W97161  32.988  34.219   2.823
32001W        W97162  40.525   1.714   3.623
32002W        W97163  13.437   9.310  12.037
32003W        W97164  32.898  17.266  10.545
32004W        W97165   5.321  19.819   4.711
32005W        W97166  34.165   1.516   3.783
32006W        W97167  36.418  29.644  13.408
32007W        W97168  31.417   1.327   4.596
32008W        W97169   9.688   8.577   3.092
32009W        W97170  31.904  16.084  10.800
32010W        W97171  30.573  26.852  11.163
32011W        W97172  42.268  14.910  14.033
32012W        W97173  23.105  27.746   0.164
32013W        W97174  26.417  30.857   5.165
32014W        W97175  11.780  44.805   3.311
32015W        W97176  42.479  30.711   3.145
32016W        W97177  10.633  36.511  14.016
32017W        W97178   5.367   9.726   3.663
32018W        W97179   4.465   7.761  13.321
32019W        W97180  14.936   2.533  11.268
32020W        W97181  16.747  19.012  14.406
32021W        W97182  33.472  38.981   3.305
32022W        W97183  39.970  22.800   3.325
32023W        W97184  31.830  38.951  10.049
32024W        W97185   6.219  38.341   0.402
32025W        W97186  31.686  44.930   1.030
32026W        W97187   1.871  25.675  11.371
32027W        W97188  31.747  43.895   0.350
32028W        W97189  31.237  31.139   1.837
32029W        W97190   6.758  37.494   4.608
32030W        W97191  40.110  19.234  11.121
32031W        W97192  21.088  38.561   0.685
32032W        W97193   0.919   0.854  14.014
32033W        W97194  35.923  29.629  11.830
32034W        W97195  16.309   8.697  14.004
32035W        W97196  42.426   0.003   0.796
32036W        W97197  19.961   4.753  11.108
32037W        W97198   0.015  41.423   3.977
32038W        W97199  22.747  33.184  13.620
32039W        W97200  43.185  37.599   0.763
32040W        W97201  11.841  27.881   0.773
32041W        W97202   1.273  26.257   1.748
32042W        W97203  40.077   4.089  11.542
32043W        W97204  37.072   4.469   0.069
32044W        W97205  12.137  10.193   0.761
32045W        W97206  25.075   8.185   3.432
32046W        W97207  23.585   3.296  10.594
32047W        W97208  32.781  42.295  14.145
32048W        W97209  39.901  43.551   0.999
32049W        W97210  20.013   1.856   4.721
32050W        W97211  34.958  16.587  11.481
32051W        W97212  20.906   3.277  11.518
32052W        W97213  29.731   1.926   3.331
32053W        W97214  13.548  10.849   1.800
32054W        W97215  15.405   7.805  12.409
32055W        W97216   4.627  44.625  13.347
32056W        W97217  10.384   6.807   0.139
32057W        W97218   8.271   2.838   1.410
32058W        W97219  40.413  13.035   4.550
32059W        W97220  11.277  24.573   0.433
32060W        W97221  28.968  33.347   2.758
32061W        W97222  18.052  17.745  12.100
32062W        W97223  33.612  23.478  10.626
32063W        W97224  25.502   7.839  10.666
32064W        W97225   9.243  11.386  14.558
32065W        W97226  26.011  21.567  13.496
32066W        W97227  37.901  28.857   0.691
32067W        W97228  41.390  30.914   3.940
32068W        W97229  23.225  22.555   2.617
32069W        W97230  28.171  36.929   3.255
32070W        W97231  29.101   9.834  10.757
32071W        W97232  25.673   2.890   4.775
32072W        W97233  44.136  18.992   0.317
32073W        W97234   2.293  35.647  14.909
32074W        W97235  25.084  31.638  12.646
32075W        W97236  29.451  19.797   2.272
32076W        W97237  12.429   1.465   0.304
32077W        W97238  29.035  15.816  12.429
32078W        W97239  43.857  19.198   2.330
32079W        W97240   3.899  32.564   3.690
32080W        W97241  18.775  14.789   0.937
32081W        W97242  19.606  12.598   4.542
32082W        W97243   5.862  39.043   0.549
32083W        W97244  26.455  12.806   0.001
32084W        W97245  35.428  42.002  14.796
32085W        W97246  26.893   8.259  12.514
32086W        W97247  39.096  10.242   1.215
32087W        W97248   4.229  20.270   3.716
32088W        W97249  33.657  40.455  14.979
32089W        W97250  21.766  34.021  10.929
32090W        W97251  42.296   9.186  10.677
32091W        W97252  13.645  26.190   4.580
32092W        W97253  11.964   6.977   4.119
32093W        W97254  26.005  37.416  14.116
32094W        W97255  42.378   8.848  11.894
32095W        W97256  21.595   1.469  13.981
32096W        W97257  13.896  32.083   1.322
32097W        W97258   0.964  28.476   4.683
32098W        W97259  27.157   9.285   2.833
32099W        W97260  25.611  16.149  11.500
32100W        W97261  15.616  20.757  10.686
32101W        W97262  34.606   7.743   0.003
32102W        W97263  17.494  41.585   4.608
32103W        W97264   1.933  14.090   3.745
32104W        W97265  24.421  25.516  12.539
32105W        W97266  10.623  29.010  11.671
32106W        W97267  39.498   1.984   1.696
32107W        W97268  14.175  32.249   2.696
32108W        W97269  15.390   8.722  13.928
32109W        W97270  21.320  18.620  11.577
32110W        W97271  11.081  12.410   2.366
32111W        W97272   6.659  25.035  12.507
32112W        W97273  41.052  18.258   4.591
32113W        W97274  29.743  10.659   3.702
32114W        W97275  10.870  23.486   2.729
32115W        W97276  43.617   5.349   0.409
32116W        W97277  26.543  40.926   1.219
32117W        W97278  39.840  17.036   0.798
32118W        W97279   6.917  28.646   3.911
32119W        W97280  22.555  20.939   0.909
32120W        W97281  35.397   3.688  13.746
32121W        W97282  31.187  41.443   1.741
32122W        W97283   7.944  35.053  13.661
32123W        W97284  29.735   3.216  12.127
32124W        W97285  44.910  13.736  13.404
32125W        W97286  37.960   8.832  13.013
32126W        W97287   6.324  40.228  12.877
32127W        W97288  21.184   7.339  12.014
32128W        W97289   7.301  37.491  12.428
32129W        W97290  41.239  35.089  14.794
32130W        W97291   6.376  17.157   3.164
32131W        W97292   2.445  28.880  14.942
32132W        W97293  20.975  20.066   0.382
32133W        W97294   1.482  35.975   0.746
32134W        W97295  13.225   6.113   2.136
32135W        W97296  14.739  35.801   2.394
32136W        W97297  23.943  34.666   1.674
32137W        W97298  39.204  18.084   4.196
32138W        W97299  28.565   7.367   0.162
32139W        W97300  12.667  12.659   3.184
32140W        W97301  39.032   9.085  12.019
32141W        W97302  37.643  15.738  14.642
32142W        W97303   6.000  36.966  14.473
32143W        W97304   7.155  20.228  14.987
32144W        W97305  21.334   4.342   2.399
32145W        W97306  29.619  44.770   3.820
32146W        W97307  37.519  24.620   2.684
32147W        W97308   5.682  15.004  12.042
32148W        W97309   4.548  30.789   3.737
32149W        W97310  42.775   8.452  13.052
32150W        W97311  29.566  20.824   2.708
32151W        W97312  35.000  28.813  10.058
32152W        W97313   9.748   7.112   1.295
32153W        W97314  14.132  37.601   1.356
32154W        W97315  40.823   9.753  12.654
32155W        W97316  36.117  19.912  13.363
32156W        W97317  30.652   7.961  12.540
32157W        W97318  43.264  12.644  11.477
32158W        W97319  23.100   6.989  13.348
32159W        W97320  37.056  11.361  13.579
32160W        W97321  15.283   7.215   0.653
32161W        W97322   4.963  12.829   1.382
32162W        W97323   2.039   4.213   2.231
32163W        W97324  43.317  28.028   4.091
32164W        W97325  12.153  10.926   1.193
32165W        W97326  18.594  12.199   1.863
32166W        W97327  17.380   6.145  12.877
32167W        W97328  37.092  34.489   2.523
32168W        W97329  19.753  33.149  11.912
32169W        W97330  43.831  39.094   4.606
32170W        W97331  36.183  17.309   0.985
32171W        W97332  17.290   0.966   3.195
32172W        W97333  16.487  18.680   0.936
32173W        W97334  35.506  40.543  13.814
32174W        W97335   3.373  31.992   4.910
32175W        W97336  12.593   7.290  14.264
32176W        W97337  32.073  21.775  13.775
32177W        W97338  32.036  16.106   3.942
32178W        W97339  20.812  25.953  10.852
32179W        W97340  18.785  41.951  12.549
32180W        W97341  37.093  14.492  14.491
32181W        W97342  41.013  38.096  12.946
32182W        W97343  36.099  17.435   4.460
32183W        W97344  37.849  43.636  10.901
32184W        W97345  30.492  38.156   2.649
32185W        W97346  33.599  14.445  11.473
32186W        W97347   9.595  43.797  11.097
32187W        W97348   5.226  21.701   4.277
32188W        W97349   8.157  29.053  12.187
32189W        W97350   5.194   9.239  11.939
32190W        W97351  30.561  38.907   2.259
32191W        W97352  26.563  21.274  14.308
32192W        W97353  21.096   0.174  10.575
32193W        W97354  27.646   4.181   1.747
32194W        W97355  38.624   2.405  10.592
32195W        W97356   3.888   4.003   2.853
32196W        W97357  17.707   5.286   3.969
32197W        W97358  12.017  24.011   3.396
32198W        W97359  26.921  15.692   1.298
32199W        W97360   9.513  11.823   4.918
32200W        W97361  29.980   7.623  13.075
32201W        W97362  17.610   3.725   1.901
32202W        W97363  23.730   4.892  12.633
32203W        W97364  44.230  24.790  14.506
32204W        W97365   1.647  37.594  13.359
32205W        W97366  30.073  20.003  12.956
32206W        W97367  42.965   0.219   4.384
32207W        W97368   8.321  18.291  13.381
32208W        W97369  14.939  35.200  12.110
32209W        W97370  36.322  18.527  13.886
32210W        W97371   3.372   5.446   2.592
32211W        W97372  39.745  26.502   3.714
32212W        W97373  34.816  34.640  11.458
32213W        W97374   7.810   5.884  10.955
32214W        W97375  22.556  32.081  11.345
32215W        W97376  10.134   5.782   4.843
32216W        W97377   5.791   0.521   0.996
32217W        W97378  31.440  40.480   3.724
32218W        W97379  21.261   4.059  14.492
32219W        W97380  31.072  25.497  14.983
32220W        W97381  13.436  44.966  11.112
32221W        W97382  28.191  30.162  11.714
32222W        W97383  30.643  42.511  11.082
32223W        W97384  30.175  30.947  13.675
32224W        W97385  13.570  14.781   2.631
32225W        W97386  30.457  42.220  13.291
32226W        W97387  43.194  31.848   9.930
32227W        W97388  28.234  27.807  14.010
32228W        W97389  24.687  34.247  10.847
32229W        W97390  40.989   7.602   3.298
32230W        W97391  30.156  33.620   0.219
32231W        W97392  28.688  10.794  10.280
32232W        W97393  16.982  36.519   0.107
32233W        W97394  35.900  34.351  13.526
32234W        W97395  40.249  28.636  11.583
32235W        W97396  16.205   2.504  13.825
32236W        W97397  19.483  28.149  14.233
32237W        W97398   1.796  27.420  11.717
32238W        W97399  10.749   0.082  13.570
32239W        W97400  26.347  16.584   1.245
32240W        W97401  43.655  19.547   3.577
32241W        W97402   4.194  17.168  11.145
32242W        W97403  35.904  13.882   0.044
32243W        W97404  19.094  26.233  12.943
32244W        W97405  22.197  10.226   0.647
32245W        W97406  22.269  37.870   3.715
32246W        W97407  37.098  38.508  10.615
32247W        W97408   8.213  15.573   1.632
32248W        W97409  34.115  28.597  14.848
32249W        W97410  11.585  12.192  11.526
32250W        W97411   7.169  36.024   2.391
32251W        W97412   5.911  40.957  14.257
32252W        W97413  40.125  29.444  13.940
32253W        W97414  25.994  28.653  12.028
32254W        W97415   0.206  24.091  10.927
32255W        W97416   4.520  32.450  11.573
32256W        W97417  12.108  42.699  10.392
32257W        W97418   4.616   6.240  11.622
32258W        W97419  13.569  28.042   0.356
32259W        W97420   9.133  38.120  14.269
32260W        W97421  44.447  41.121  10.115
32261W        W97422   0.242   8.456   3.626
32262W        W97423  13.691   0.268   4.371
32263W        W97424  24.459  21.910   2.260
32264W        W97425  10.696  33.183   0.695
32265W        W97426  21.606   9.269  11.477
32266W        W97427  27.498  40.901  11.665
32267W        W97428  16.729  19.577   1.408
32268W        W97429  17.659  12.592  14.260
32269W        W97430  19.175   4.169   3.301
32270W        W97431  29.024  25.832   0.179
32271W        W97432  15.996  37.026  12.837
32272W        W97433   1.475  23.086  12.891
32273W        W97434  37.506   9.286   3.218
32274W        W97435  28.549  21.681   1.636
32275W        W97436  29.894   1.231   0.012
32276W        W97437  32.015  18.584   1.935
32277W        W97438  10.477  35.831   3.185
32278W        W97439  34.239  13.757   0.920
32279W        W97440   0.984  18.532   1.970
32280W        W97441  30.140  37.404  11.636
32281W        W97442  31.109   8.264   0.764
32282W        W97443  31.139  22.029   1.854
32283W        W97444  18.718  28.895   2.141
32284W        W97445  11.892  29.701   4.149
32285W        W97446   5.888  43.993  12.161
32286W        W97447  22.676  29.538  10.671
32287W        W97448  24.664  36.761   3.148
32288W        W97449  44.948  40.936  13.524
32289W        W97450  28.669  43.766   3.360
32290W        W97451  29.902  35.960   3.629
32291W        W97452  20.796  20.576  11.511
32292W        W97453  21.234   2.884  11.646
32293W        W97454  31.402  36.351  14.209
32294W        W97455  12.194  33.168   3.196
32295W        W97456   0.898  32.684   0.803
32296W        W97457   8.215  17.732  12.473
32297W        W97458   7.202  20.756   0.876
32298W        W97459  28.650   7.021   2.328
32299W        W97460  21.436  26.641  11.083
32300W        W97461  11.829   0.457  14.940
32301W        W97462  43.349  21.594  13.178
32302W        W97463  34.844   0.734  11.619
32303W        W97464  41.106  35.886   2.882
32304W        W97465  18.667   1.864   0.984
32305W        W97466  32.474   6.149  13.929
32306W        W97467  16.564  40.072   1.872
32307W        W97468   2.793  12.601   1.790
32308W        W97469  20.276  37.873  11.434
32309W        W97470  29.001   1.386  14.958
32310W        W97471  18.810   1.500  12.595
32311W        W97472  11.009  15.224  13.326
32312W        W97473  16.088   6.410   4.388
32313W        W97474  34.898   6.559  14.947
32314W        W97475   2.713  38.512   2.838
32315W        W97476  37.424  42.878   3.462
32316W        W97477   2.782   0.790   3.385
32317W        W97478  28.937  14.145   3.776
32318W        W97479  19.281  21.124  13.027
32319W        W97480  36.018  34.908  14.279
32320W        W97481  22.679  20.480   3.726
32321W        W97482  19.605  12.377  11.117
32322W        W97483  39.941  35.913  11.560
32323W        W97484  12.304  32.903   1.164
32324W        W97485   6.362  26.556   2.401
32325W        W97486  41.492   7.739   4.103
32326W        W97487   3.289   2.636   4.989
32327W        W97488   6.202  26.205  12.796
32328W        W97489  15.851   1.914  12.120
32329W        W97490  12.769  31.618   2.419
32330W        W97491  33.107  21.788   4.542
32331W        W97492  40.746  38.328  11.268
32332W        W97493  21.767   8.840  10.154
32333W        W97494   7.210  36.869  10.714
32334W        W97495  33.179   0.047   2.763
32335W        W97496   5.787   6.535   1.777
32336W        W97497  24.331   1.420   0.446
32337W        W97498  15.226   6.804   1.439
32338W        W97499   7.296  13.017  12.142
32339W        W97500  20.071  19.849   5.034
32340W        W97501  27.202  24.459   2.351
32341W        W97502   8.285  35.946  14.550
32342W        W97503  10.358  29.735  11.039
32343W        W97504  36.026  33.609  12.634
32344W        W97505  10.457  39.941   3.024
32345W        W97506  14.861  24.175   3.617
32346W        W97507  37.892  43.560  13.012
32347W        W97508  24.897   8.032   4.565
32348W        W97509  30.281   3.122   1.868
32349W        W97510  40.935  12.569  11.048
32350W        W97511  22.732  40.392   2.367
32351W        W97512  32.136   5.738  13.933
32352W        W97513  41.441   9.265  12.629
32353W        W97514  16.166  27.118   2.439
32354W        W97515  44.439  27.145  14.816
32355W        W97516   7.401  28.129   0.709
32356W        W97517  32.100   0.546   2.846
32357W        W97518  33.980  42.544  12.152
32358W        W97519  44.726  14.389  14.500
32359W        W97520  13.273  42.838   0.374
32360W        W97521  16.988  28.584   2.398
32361W        W97522   4.517  44.801  10.561
32362W        W97523  25.238  24.198   2.316
32363W        W97524   8.452  11.375   2.236
32364W        W97525  27.131  21.325   0.177
32365W        W97526  21.480  27.585  11.404
32366W        W97527  11.759  43.276   3.773
32367W        W97528  14.114  25.975  12.682
32368W        W97529  31.264  18.513   4.198
32369W        W97530  26.551  37.944  12.192
32370W        W97531   8.814  13.511   2.646
32371W        W97532  18.511   7.066   2.456
32372W        W97533   3.690  17.741   1.438
32373W        W97534  38.571   0.948  13.474
32374W        W97535   0.541  36.283   2.200
32375W        W97536  21.755  39.811  11.598
32376W        W97537  31.715  38.360   4.160
32377W        W97538  20.123  19.767  14.417
32378W        W97539   4.512  32.140  11.132
32379W        W97540  14.255   9.208  14.285
32380W        W97541  31.003  27.496  11.900
32381W        W97542  28.959  30.661  13.306
32382W        W97543   5.400  38.993  12.057
32383W        W97544   5.506  34.781  11.239
32384W        W97545  38.448  38.500  13.375
32385W        W97546  20.644  30.463   4.620
32386W        W97547  39.852  17.065  13.502
32387W        W97548  15.362   4.514   2.007
32388W        W97549  37.533  32.690   4.527
32389W        W97550  20.742  24.391  10.845
32390W        W97551  17.697  36.512   4.880
32391W        W97552  20.634  20.428   2.284
32392W        W97553  23.158  26.066   1.984
32393W        W97554   1.172  29.050  14.484
32394W        W97555  31.848   9.930  11.596
32395W        W97556  12.276  40.891   4.003
32396W        W97557  34.160  22.991  14.947
32397W        W97558  28.359  26.998  11.087
32398W        W97559  35.304   0.944  11.507
32399W        W97560   6.862   6.727   1.326
32400W        W97561  41.877  20.820   3.736
32401W        W97562  22.089  24.204  13.844
32402W        W97563  12.218   4.672  12.541
32403W        W97564  19.207  39.837   5.067
32404W        W97565  43.666  21.714   0.292
32405W        W97566  25.873   1.827   0.727
32406W        W97567  31.402   5.284   4.479
32407W        W97568  11.582  15.038   2.342
32408W        W97569  32.877  44.450  14.433
32409W        W97570  31.518   1.024   1.983
32410W        W97571  21.652  42.381   4.738
32411W        W97572  43.283  21.759   4.559
32412W        W97573  31.900  14.066  14.873
32413W        W97574  28.387   9.178   3.980
32414W        W97575  11.710  17.735  14.906
32415W        W97576  22.634  30.932  13.019
32416W        W97577  29.173  14.605   3.702
32417W        W97578  22.041   6.430   1.664
32418W        W97579  11.082  39.325   4.192
32419W        W97580  23.351   1.770  13.478
32420W        W97581   8.926  25.179   1.764
32421W        W97582  26.149  13.606   4.589
32422W        W97583  37.442   5.947   1.411
32423W        W97584  26.587  41.703   1.822
32424W        W97585  23.713  16.735   1.413
32425W        W97586  31.876   8.220  13.511
32426W        W97587  42.426   5.339  12.353
32427W        W97588  25.109  32.893  14.278
32428W        W97589   2.146   3.982  11.102
32429W        W97590  21.193  30.992   4.099
32430W        W97591  40.174   0.824   3.630
32431W        W97592  13.218  22.682  14.759
32432W        W97593  36.558  22.178   4.290
32433W        W97594  10.886   6.865   2.831
32434W        W97595  38.976   8.583   0.286
32435W        W97596  36.136  22.049   1.454
32436W        W97597  22.772  40.853  12.627
32437W        W97598  25.714  11.569   4.033
32438W        W97599  10.295   6.291  11.408
32439W        W97600  21.556  19.228   0.052
32440W        W97601  38.892  33.481   1.680
32441W        W97602  18.973  29.075   3.953
32442W        W97603  35.219  28.051  14.602
32443W        W97604  14.251  10.303   1.607
32444W        W97605  10.339  12.332   0.506
32445W        W97606  25.058  22.864   1.337
32446W        W97607  38.311  23.246   1.754
32447W        W97608  31.130  40.682  10.234
32448W        W97609   0.729  33.514  12.858
32449W        W97610  12.220  43.242   3.526
32450W        W97611   9.869  39.863  12.141
32451W        W97612  18.935  44.062   2.419
32452W        W97613  36.780  24.894   2.826
32453W        W97614   4.529  37.600  13.987
32454W        W97615  34.383   5.859   2.596
32455W        W97616  27.332  30.947   2.678
32456W        W97617  19.584  25.437  12.118
32457W        W97618  38.105  30.617  13.480
32458W        W97619  27.616  16.627   1.886
32459W        W97620  41.561   8.407  14.087
32460W        W97621  37.901   6.751  14.813
32461W        W97622  38.393   8.066  13.564
32462W        W97623  12.745  30.713   2.460
32463W        W97624  41.941  38.748   4.473
32464W        W97625  13.323  43.949   1.103
32465W        W97626  22.235   2.788   0.348
32466W        W97627  21.184  25.845   1.407
32467W        W97628  43.989   9.088   0.420
32468W        W97629  44.261  16.670   2.555
32469W        W97630  36.118  20.070  10.720
32470W        W97631   1.851   5.367  14.318
32471W        W97632  10.202  13.775   2.382
32472W        W97633   7.613  13.174   3.696
32473W        W97634  42.749   6.731   0.848
32474W        W97635  16.123  36.169  13.269
32475W        W97636   7.478   6.133   2.203
32476W        W97637  16.691  39.577   1.875
32477W        W97638  19.720   8.762   3.870
32478W        W97639  37.189  15.613  14.974
32479W        W97640  25.924  32.130  12.926
32480W        W97641  21.270  25.501  14.434
32481W        W97642   0.725  35.427   0.414
32482W        W97643  43.377  27.674  11.479
32483W        W97644  10.702   1.267   0.974
32484W        W97645  12.726  41.887   1.700
32485W        W97646  29.561  10.973  14.903
32486W        W97647  32.385  20.042   1.811
32487W        W97648  24.124   1.377   3.897
32488W        W97649  20.772   7.304   3.691
32489W        W97650  15.893  11.907   4.641
32490W        W97651  20.087   6.843   1.439
32491W        W97652  32.606   9.890  13.718
32492W        W97653  21.306  39.498  13.323
32493W        W97654   2.324   8.880  13.949
32494W        W97655  29.185   5.886   2.863
32495W        W97656  27.169  38.003   4.561
32496W        W97657  44.357  29.572   4.717
32497W        W97658  13.976  41.801  13.814
32498W        W97659  13.707  16.709   0.252
32499W        W97660  40.484  24.508  12.539
32500W        W97661  30.359   7.615   2.814
32501W        W97662  31.644  14.651   4.861
32502W        W97663  36.188  44.396  14.311
32503W        W97664  25.202   1.406  10.763
32504W        W97665  30.092  28.225  12.647
32505W        W97666  12.210  13.718   0.353
32506W        W97667  32.512  12.178  10.347
32507W        W97668  23.109  39.306   2.920
32508W        W97669  32.606  43.120   1.409
32509W        W97670  22.996  44.850  14.866
32510W        W97671  37.946  44.415   2.360
32511W        W97672  13.074  37.622   1.937
32512W        W97673  23.660   7.730   1.532
32513W        W97674  37.100  12.872  11.578
32514W        W97675  36.124  42.517  14.386
32515W        W97676   4.375  14.780  13.116
32516W        W97677  24.634  30.426  14.474
32517W        W97678   6.663   0.951   2.283
32518W        W97679  29.930  14.153   3.394
32519W        W97680   4.424  42.804   1.319
32520W        W97681  42.333  33.828  10.966
32521W        W97682  10.795  16.157   0.443
32522W        W97683   3.343   1.866   4.222
32523W        W97684  33.540  11.822  14.034
32524W        W97685  31.385  39.060  14.463
32525W        W97686  14.030  19.627   1.915
32526W        W97687  22.229  15.269   1.412
32527W        W97688  18.788  44.973   3.333
32528W        W97689   5.375   3.835   3.886
32529W        W97690  32.148  33.983  11.971
32530W        W97691  31.500  32.811  11.248
32531W        W97692  13.655  31.609   4.259
32532W        W97693  18.780  44.322  10.972
32533W        W97694   3.040  23.607   1.849
32534W        W97695  26.950  22.757   1.301
32535W        W97696  43.258  10.281  10.598
32536W        W97697  32.928  10.379   4.507
32537W        W97698  43.986  40.420  11.666
32538W        W97699  23.344   2.975  12.018
32539W        W97700  37.190   8.711   0.403
32540W        W97701  17.196  23.919   2.038
32541W        W97702   9.717  36.475   1.788
32542W        W97703  21.520  42.596  10.683
32543W        W97704  33.380  27.183   3.697
32544W        W97705  35.488  14.460   3.269
32545W        W97706  31.629  19.996  14.115
32546W        W97707  15.615  18.855   1.973
32547W        W97708  19.725   4.228   3.582
32548W        W97709  43.175  21.605   1.235
32549W        W97710  11.631  30.660  10.407
32550W        W97711  14.873  11.300   2.818
32551W        W97712  42.184  40.287   4.887
32552W        W97713  44.747  34.289  13.456
32553W        W97714  10.956  26.605   0.692
32554W        W97715   9.666  18.485  11.292
32555W        W97716  26.148  31.035   3.806
32556W        W97717  23.185  28.958  13.850
32557W        W97718   1.969  34.506  13.360
32558W        W97719  38.980  18.615   1.851
32559W        W97720   3.577   3.903  14.768
32560W        W97721  39.593  10.349   2.799
32561W        W97722  41.878  12.611   4.751
32562W        W97723   6.439  27.525  14.902
32563W        W97724  41.383  11.319  14.525
32564W        W97725  38.848  21.654   0.896
32565W        W97726  17.511   8.794  10.710
32566W        W97727  21.366   7.670   4.674
32567W        W97728  36.936  35.669   0.349
32568W        W97729  42.709  20.271   0.944
32569W        W97730   5.910   9.692   2.629
32570W        W97731  33.358  29.207  12.062
32571W        W97732  16.241   4.403   0.832
32572W        W97733  27.161  13.847   1.509
32573W        W97734   1.674   2.447   0.370
32574W        W97735   9.291  12.217   2.424
32575W        W97736  15.825  15.346   1.140
32576W        W97737   4.736  27.099   1.238
32577W        W97738   1.860  39.494   1.797
32578W        W97739  26.893  14.766   3.248
32579W        W97740  29.475  29.170   3.357
32580W        W97741  35.107  19.066   4.154
32581W        W97742  40.429  38.754   2.326
32582W        W97743   1.302   1.507  11.054
32583W        W97744  28.171  36.131  11.439
32584W        W97745  20.035  41.949   0.532
32585W        W97746  42.182   6.451   1.924
32586W        W97747   3.647   2.148  14.747
32587W        W97748  22.176  20.019   1.925
32588W        W97749  22.678   6.053   4.794
32589W        W97750  27.548  19.854   3.863
32590W        W97751  23.405  23.698  14.329
32591W        W97752  34.040  15.076  12.800
32592W        W97753   2.053  21.198   4.056
32593W        W97754  40.545  26.124   4.638
32594W        W97755   3.055  32.468  12.517
32595W        W97756  26.037  42.599  13.578
32596W        W97757  31.043   7.253   3.620
32597W        W97758  15.497   8.890   3.656
32598W        W97759  37.838  17.300  10.632
32599W        W97760  43.001  41.479  10.147
32600W        W97761  13.895  41.782  11.581
32601W        W97762   9.411   8.906  10.739
32602W        W97763  22.478   2.864   3.785
32603W        W97764  11.335  40.116  14.871
32604W        W97765  12.281  35.891   0.420
32605W        W97766  30.412  30.826   3.176
32606W        W97767   6.459  29.758   9.807
32607W        W97768  11.292   7.098  11.253
32608W        W97769  17.856   5.764   4.056
32609W        W97770  24.369   7.212   0.774
32610W        W97771   2.786  33.420  14.757
32611W        W97772  30.181  24.138  14.936
32612W        W97773   9.755   0.872   3.927
32613W        W97774  37.380  16.650  12.174
32614W        W97775  20.574  39.378  12.124
32615W        W97776  25.987  39.767  11.528
32616W        W97777  21.213  15.471  10.492
32617W        W97778  10.822  29.730   2.486
32618W        W97779  22.855  44.952  13.325
32619W        W97780  16.849  37.375   0.802
32620W        W97781   9.345  13.966   5.290
32621W        W97782  42.319  21.646  14.815
32622W        W97783  21.795  12.712   4.888
32623W        W97784   9.168  15.854   2.804
32624W        W97785  13.008  20.052   0.328
32625W        W97786   4.996  12.996  14.307
32626W        W97787   8.233  37.908  10.748
32627W        W97788   1.270  11.692  12.035
32628W        W97789  18.297  22.416   0.320
32629W        W97790  42.303  33.462   2.217
32630W        W97791  41.578  12.606   4.298
32631W        W97792   4.792  30.954  13.469
32632W        W97793  24.543  17.811   1.638
32633W        W97794  13.787  44.304   4.030
32634W        W97795  20.550  44.746  14.064
32635W        W97796  11.097  11.042  12.857
32636W        W97797  10.002  23.284  12.825
32637W        W97798  27.918  42.392   1.774
32638W        W97799  24.842  21.468   3.181
32639W        W97800  41.532  12.246  13.093
32640W        W97801  14.092   4.227  13.806
32641W        W97802  40.523   0.377   1.419
32642W        W97803  32.530  10.230  10.895
32643W        W97804   1.465   5.175   0.256
32644W        W97805   3.974  36.652  14.604
32645W        W97806   0.960   9.266  12.572
32646W        W97807  17.171  34.298   3.360
32647W        W97808  20.273  16.076   2.493
32648W        W97809  14.043   6.280  13.812
32649W        W97810  32.494  29.255   1.652
32650W        W97811  39.416  30.664   4.583
32651W        W97812  20.371  21.553  12.857
32652W        W97813   2.284  34.489   0.458
32653W        W97814  13.337  19.201  12.127
32654W        W97815  36.107   5.853  14.958
32655W        W97816  13.147  20.069   3.691
32656W        W97817  30.115  42.430   4.630
32657W        W97818  30.882  17.310   4.023
32658W        W97819  32.474   0.111  10.130
32659W        W97820  24.201  16.399  11.181
32660W        W97821  39.576  40.545  14.036
32661W        W97822  39.742  34.613   3.391
32662W        W97823  41.520  37.383   0.983
32663W        W97824  11.565  33.108  11.973
32664W        W97825  23.608  14.611  10.233
32665W        W97826  26.796  13.755  12.383
32666W        W97827  15.373   7.621  11.139
32667W        W97828  19.097   3.367  11.658
32668W        W97829   0.987  33.938   3.755
32669W        W97830  16.211  32.615  14.740
32670W        W97831  21.061  12.077  13.578
32671W        W97832  21.965  28.897   3.632
32672W        W97833  42.465  19.456   1.397
32673W        W97834  24.048  34.161   0.751
32674W        W97835   0.397  29.702  11.158
32675W        W97836  18.645  31.473  11.459
32676W        W97837  35.424   0.915  11.022
32677W        W97838  34.000  22.535  11.384
32678W        W97839  16.134   2.161  12.462
32679W        W97840  11.203   9.654  11.623
32680W        W97841  19.073  26.957  11.613
32681W        W97842  17.050  32.400   0.411
32682W        W97843  40.023  33.709  13.601
32683W        W97844  44.413  29.702  10.594
32684W        W97845  42.517  39.727   3.853
32685W        W97846  23.220  34.478  12.845
32686W        W97847  42.995  27.513   3.187
32687W        W97848  30.054  29.944   4.509
32688W        W97849  27.448  24.628  11.332
32689W        W97850   0.778  11.629   3.151
32690W        W97851  40.323   0.143  10.654
32691W        W97852  33.435  18.175   0.466
32692W        W97853  32.722  13.872   4.560
32693W        W97854  35.390   1.929   4.531
32694W        W97855  16.370  37.990   0.468
32695W        W97856   8.035  19.205  12.531
32696W        W97857  21.720  27.368   0.488
32697W        W97858  28.483   8.822   0.525
32698W        W97859  40.756  16.780  14.352
32699W        W97860  35.427  37.317  11.190
32700W        W97861  34.799  19.447  14.809
32701W        W97862   8.057  12.853   5.113
32702W        W97863   1.858  19.446   0.346
32703W        W97864  36.587  27.928  12.425
32704W        W97865  36.356   6.323  14.985
32705W        W97866   6.367  10.819   3.827
32706W        W97867  32.531   9.261   1.721
32707W        W97868  42.479   6.818   4.140
32708W        W97869   9.456  17.895  14.625
32709W        W97870   1.260  39.927   0.251
32710W        W97871  35.964  16.570   2.197
32711W        W97872  44.411  10.168  14.912
32712W        W97873  33.531  30.875  14.409
32713W        W97874   5.755   0.884   0.023
32714W        W97875  12.737  24.390  13.518
32715W        W97876  19.616   7.844  14.329
32716W        W97877  14.040  38.855   4.352
32717W        W97878   8.159  10.194   2.041
32718W        W97879   0.018  12.713  13.677
32719W        W97880  38.935  30.113  14.833
32720W        W97881  22.221  35.894   1.366
32721W        W97882  17.048   7.970   2.707
32722W        W97883  19.562  18.656  10.606
32723W        W97884   8.113  23.463  12.149
32724W        W97885  26.035  12.029  11.548
32725W        W97886  34.878  30.975   2.190
32726W        W97887   1.309  40.864   0.416
32727W        W97888  32.775  11.007  14.718
32728W        W97889  29.106  41.466  11.303
32729W        W97890  44.697  34.638  12.165
32730W        W97891  34.686  33.275   0.015
32731W        W97892  23.017  41.094  11.262
32732W        W97893  25.549  32.609  12.541
32733W        W97894  25.451  14.900  14.871
32734W        W97895  43.765  11.201  12.845
32735W        W97896  31.905   7.778   0.838
32736W        W97897  13.984  37.165  11.623
32737W        W97898   7.239  10.363   2.399
32738W        W97899  22.534  36.737  12.539
32739W        W97900  19.199  17.602  11.160
32740W        W97901  23.892  33.877  14.951
32741W        W97902   8.423   4.870  13.299
32742W        W97903  21.104  36.441   2.313
32743W        W97904  29.437   5.607   0.039
32744W        W97905  41.400  32.587   1.391
32745W        W97906  43.775  34.935  14.405
32746W        W97907   6.268  31.600   4.487
32747W        W97908  10.902   0.854   3.405
32748W        W97909  21.093   3.402  13.126
32749W        W97910  36.138  29.543  12.982
32750W        W97911   9.420   4.862   0.253
32751W        W97912  24.522  28.328  12.425
32752W        W97913   5.043  37.863   5.024
32753W        W97914  37.094  26.598  10.500
32754W        W97915  29.182   1.475   4.078
32755W        W97916  10.448  42.359  11.590
32756W        W97917  16.133  18.760   1.922
32757W        W97918   6.290  22.076  12.850
32758W        W97919  38.628   5.654  11.235
32759W        W97920   5.415  19.841  14.640
32760W        W97921  22.962  12.050  14.498
32761W        W97922   6.887  17.591  12.496
32762W        W97923  44.284  31.560  14.862
32763W        W97924  15.802  29.754  13.114
32764W        W97925  40.502   2.429   3.711
32765W        W97926  42.899   0.318  14.296
32766W        W97927  25.594  41.426   0.513
32767W        W97928   5.983   3.031   2.950
32768W        W97929   7.633  22.266   0.871
32769W        W97930  36.899  43.918   4.210
32770W        W97931  39.031   1.964   0.837
32771W        W97932  17.734  26.977   4.483
32772W        W97933  32.012  25.674  14.864
32773W        W97934  18.501  35.681   2.867
32774W        W97935  32.060  17.331  13.515
32775W        W97936   0.425  19.592   1.901
32776W        W97937  24.159  23.152  10.728
32777W        W97938  23.360  44.977  14.435
32778W        W97939  14.762  18.307   4.268
32779W        W97940   1.853  16.306  14.304
32780W        W97941  16.033   9.221   3.751
32781W        W97942  31.618  34.830   3.578
32782W        W97943  29.897  25.613   4.489
32783W        W97944  33.535  24.131   0.116
32784W        W97945  24.003  26.609   2.283
32785W        W97946  34.307  20.509  11.641
32786W        W97947   7.601  30.889  14.732
32787W        W97948  40.705   7.227   3.067
32788W        W97949   8.376  35.794   3.695
32789W        W97950   5.889  43.209  11.871
32790W        W97951  17.537   2.017   4.382
32791W        W97952  28.416  17.240  14.227
32792W        W97953  23.276  41.322   3.716
32793W        W97954  34.093  38.844  11.244
32794W        W97955   9.431  36.629  10.854
32795W        W97956  24.920  41.807  14.887
32796W        W97957  13.909  25.686   4.659
32797W        W97958  14.363   9.640  14.556
32798W        W97959  17.080  25.849   1.356
32799W        W97960  23.757  12.090   1.859
32800W        W97961  20.826  11.570   1.369
32801W        W97962  25.674   4.641  14.416
32802W        W97963   0.612  19.708  13.377
32803W        W97964  40.349   6.763  11.112
32804W        W97965  31.739   8.497  11.822
32805W        W97966  23.228  40.575   4.108
32806W        W97967   6.622  11.261  10.366
32807W        W97968   2.955  30.476  12.017
32808W        W97969   4.006  43.411  11.969
32809W        W97970  44.445  21.523  11.632
32810W        W97971  21.208  44.403  13.302
32811W        W97972  37.353   3.359  13.858
32812W        W97973  25.131   8.223   3.963
32813W        W97974  16.038   6.850  10.546
32814W        W97975  29.972  41.079   0.276
32815W        W97976  41.835  18.925   3.757
32816W        W97977   2.835  27.043   0.793
32817W        W97978  18.329   6.338  10.462
32818W        W97979   6.662  41.330   1.872
32819W        W97980  29.732   8.627  10.957
32820W        W97981  29.201  30.274   1.353
32821W        W97982   5.951  29.632   3.613
32822W        W97983  35.429  27.042   0.551
32823W        W97984  21.290   7.359   3.854
32824W        W97985  29.592  16.299  13.538
32825W        W97986  40.566  27.748  11.132
32826W        W97987  38.924  29.822  14.355
32827W        W97988  14.349  40.182  10.191
32828W        W97989  41.422  22.695  13.532
32829W        W97990   3.854  23.771  11.406
32830W        W97991  41.542   4.827   0.705
32831W        W97992  10.767  38.799  11.395
32832W        W97993   8.920  19.951  12.473
32833W        W97994  17.179  16.573  14.794
32834W        W97995   7.927  12.311   4.514
32835W        W97996  17.242  24.958  13.959
32836W        W97997   2.991  27.960  12.452
32837W        W97998   0.947  16.874  13.753
32838W        W97999   7.134   7.356  13.328
32839W        W98000   4.035  16.150  11.090
32840W        W98001  14.423   0.535  14.851
32841W        W98002   0.248  32.628   5.530
32842W        W98003   0.984  43.839  14.757
32843W        W98004   9.314  19.784  14.976
32844W        W98005  26.538  34.488  13.642
32845W        W98006  29.839  33.894   0.601
32846W        W98007  18.137  43.578  12.677
32847W        W98008   2.929   6.286   1.741
32848W        W98009  14.563  29.051  10.833
32849W        W98010  31.403  12.678  12.627
32850W        W98011  28.372  23.179   1.233
32851W        W98012  35.614  20.694  12.829
32852W        W98013  21.043  18.503  12.992
32853W        W98014   5.290  21.821   1.414
32854W        W98015  24.271   3.750   3.721
32855W        W98016  21.073  30.741   4.594
32856W        W98017  16.051  44.891   3.516
32857W        W98018  24.922  17.557  13.041
32858W        W98019  27.309  14.204  12.984
32859W        W98020   6.738  44.801  14.049
32860W        W98021  24.106   0.739  12.164
32861W        W98022  29.684  39.134   5.001
32862W        W98023  20.064  32.394   4.047
32863W        W98024  14.028  10.700  11.478
32864W        W98025  30.519  32.569  12.834
32865W        W98026  18.389  24.713   1.243
32866W        W98027  14.621  19.575  14.396
32867W        W98028  31.503  34.314  13.028
32868W        W98029  16.409  26.994  10.488
32869W        W98030  43.888  13.912  12.880
32870W        W98031  26.552  36.061  13.389
32871W        W98032  29.944   1.681   4.819
32872W        W98033  30.414  36.867   2.289
32873W        W98034  34.831  39.862  11.083
32874W        W98035  41.928  30.238   4.354
32875W        W98036  15.448  24.522  11.442
32876W        W98037   0.307   7.729  13.876
32877W        W98038   7.445  33.518  12.043
32878W        W98039   4.933   0.234   1.456
32879W        W98040  21.984  18.886  12.718
32880W        W98041  39.866  16.866   3.054
32881W        W98042   0.954  30.751  11.940
32882W        W98043  26.631  16.737  13.770
32883W        W98044  20.003  23.785  12.921
32884W        W98045  33.872  26.495   2.677
32885W        W98046   9.362  11.707   2.315
32886W        W98047  32.879   5.930  14.287
32887W        W98048  15.145  29.102  14.359
32888W        W98049  17.055   3.063  11.735
32889W        W98050   4.916   5.750   0.660
32890W        W98051   5.301  25.168   4.990
32891W        W98052   7.377  32.000  14.917
32892W        W98053  32.945  41.063   2.612
32893W        W98054   2.396  34.218  10.574
32894W        W98055  21.592   7.722  10.727
32895W        W98056  23.532  30.178  14.049
32896W        W98057  18.612  36.190   3.107
32897W        W98058  39.996  43.765   3.291
32898W        W98059  34.994  34.591   4.511
32899W        W98060   8.755  26.629   3.724
32900W        W98061  12.594  38.949   0.245
32901W        W98062  36.581   7.902  12.990
32902W        W98063  28.654  21.279  14.836
32903W        W98064   5.960  19.577  13.587
32904W        W98065  14.813   9.129   0.183
32905W        W98066  20.072  15.166  13.952
32906W        W98067  10.316  28.426   2.254
32907W        W98068   8.818  17.166  10.472
32908W        W98069  37.577  12.229   2.809
32909W        W98070  41.569  32.817  11.929
32910W        W98071  22.070  34.893   2.465
32911W        W98072  13.807  35.527  11.010
32912W        W98073   3.250  24.446  11.768
32913W        W98074  14.756   5.277  13.511
32914W        W98075  13.140   4.737  12.697
32915W        W98076  42.292   4.807  11.934
32916W        W98077   2.036  20.614  14.957
32917W        W98078  10.669   2.787   1.983
32918W        W98079  13.711  13.581   4.249
32919W        W98080  30.867  19.454   1.585
32920W        W98081  16.540  20.590  14.816
32921W        W98082   4.855  19.300  11.655
32922W        W98083  37.113  29.661  12.813
32923W        W98084   5.643   9.908   2.268
32924W        W98085  23.111  41.961   0.259
32925W        W98086   3.992  30.578  11.131
32926W        W98087  12.088  14.680  11.243
32927W        W98088  44.553  39.352   4.153
32928W        W98089  34.471   7.147   2.235
32929W        W98090  35.092  37.273  13.835
32930W        W98091  26.191  15.302  11.288
32931W        W98092  26.759   3.970  11.587
32932W        W98093  23.739  10.396  11.970
32933W        W98094  32.566  22.792  13.430
32934W        W98095  16.271   6.704   0.942
32935W        W98096   3.736  27.547   0.004
32936W        W98097  10.340   0.634   3.549
32937W        W98098  22.365  14.110  11.840
32938W        W98099   3.958   3.946  13.748
32939W        W98100   2.916  28.238   1.215
32940W        W98101  18.158   5.408   3.700
32941W        W98102  17.490  30.119   1.605
32942W        W98103  23.721  38.550   2.812
32943W        W98104  21.610  23.956  13.833
32944W        W98105  36.099   6.684  11.196
32945W        W98106  35.930  26.455  13.920
32946W        W98107  36.094  24.193   3.261
32947W        W98108   7.968  28.566  11.123
32948W        W98109  11.179  42.467  12.650
32949W        W98110  20.616  30.687   2.904
32950W        W98111  14.404  38.114  12.351
32951W        W98112   7.259   9.177   2.824
32952W        W98113   1.819  16.618  11.998
32953W        W98114  18.735   2.281   3.694
32954W        W98115  16.759  43.135   3.127
32955W        W98116  11.847  44.135  14.093
32956W        W98117  19.722  23.270  11.034
32957W        W98118  12.164  19.003  12.480
32958W        W98119  42.799   4.815   1.890
32959W        W98120  23.133  25.547   0.263
32960W        W98121  37.429  42.797   2.451
32961W        W98122   3.429   8.232   1.891
32962W        W98123  20.172  31.818  13.164
32963W        W98124  29.004  29.717  11.017
32964W        W98125   0.375  35.011  12.827
32965W        W98126  42.123  25.285  13.062
32966W        W98127  39.307  23.453  12.362
32967W        W98128  24.271  12.301   1.654
32968W        W98129  26.490   5.442   3.664
32969W        W98130  19.139  36.285   2.810
32970W        W98131  20.800  25.609  13.561
32971W        W98132  38.548  28.682  11.008
32972W        W98133  32.104  39.424  14.553
32973W        W98134  43.427  28.589   1.995
32974W        W98135   4.194   0.386   3.973
32975W        W98136  39.953   5.846   1.174
32976W        W98137   0.093  37.144   0.797
32977W        W98138  10.200   9.789  14.722
32978W        W98139  19.240  30.683  14.571
32979W        W98140   0.425  36.651  14.281
32980W        W98141  33.585  12.228  11.061
32981W        W98142   1.413  41.333   1.070
32982W        W98143   4.181   1.345  13.580
32983W        W98144  40.493  35.472   4.183
32984W        W98145   4.640  15.768   5.107
32985W        W98146   8.436  32.613  12.280
32986W        W98147  22.716  37.614  14.071
32987W        W98148   2.871  43.920   3.539
32988W        W98149   9.702  40.858  14.580
32989W        W98150  10.928  39.009  10.944
32990W        W98151  14.889  31.492  11.143
32991W        W98152   5.776  15.998   3.428
32992W        W98153  11.832  38.402  10.679
32993W        W98154   3.328  29.174  12.957
32994W        W98155  15.495   1.198  13.432
32995W        W98156  10.155  22.577   2.257
32996W        W98157  31.348   4.906   1.193
32997W        W98158   5.406  35.521   4.426
32998W        W98159  29.104  41.653  13.868
32999W        W98160  42.812   3.919  11.184
33000W        W98161  21.278  24.762   3.426
33001W        W98162  10.936  12.710  13.754
33002W        W98163  26.943  39.532  10.378
33003W        W98164  13.759  41.857   3.171
33004W        W98165  33.543  33.847  13.554
33005W        W98166  44.206  35.305  11.564
33006W        W98167   1.652  42.226  12.525
33007W        W98168   2.042   1.829  12.120
33008W        W98169  23.766  18.090   4.258
33009W        W98170  20.614  43.560  11.397
33010W        W98171   8.161  40.526   1.267
33011W        W98172   4.717  44.434  12.880
33012W        W98173  24.225  25.731   3.710
33013W        W98174  19.558  33.192   0.416
33014W        W98175   3.188   7.512  14.841
33015W        W98176  42.261   1.103  11.542
33016W        W98177  27.902  39.442   4.171
33017W        W98178   2.848  21.671  13.287
33018W        W98179  36.690  13.612   3.613
33019W        W98180  19.441  16.862   2.342
33020W        W98181  26.655  41.694  12.550
33021W        W98182  28.343   4.233  13.950
33022W        W98183  19.693  19.007   3.551
33023W        W98184  19.135   0.195  11.882
33024W        W98185  17.122  12.104  11.629
33025W        W98186  27.123  24.193   3.055
33026W        W98187  18.940  29.585   3.209
33027W        W98188  21.257   7.489  10.353
33028W        W98189  20.514  17.437  14.572
33029W        W98190  42.219   5.067  11.109
33030W        W98191  36.554  35.951  10.301
33031W        W98192  36.489  13.012   4.454
33032W        W98193  29.112  10.656  12.305
33033W        W98194  31.865  10.779   1.351
33034W        W98195  23.702  33.448   1.222
33035W        W98196  21.037  42.893  14.955
33036W        W98197  43.521  16.599  13.842
33037W        W98198  32.030   6.695   3.424
33038W        W98199  11.858   5.492   4.018
33039W        W98200  13.023  41.270  12.648
33040W        W98201  15.547  22.500   1.919
33041W        W98202  44.586  26.370  12.108
33042W        W98203   7.573   9.168   0.895
33043W        W98204  15.147   9.868   4.567
33044W        W98205  12.360  25.236  14.514
33045W        W98206   9.630   7.153   3.149
33046W        W98207  13.885   5.636  14.944
33047W        W98208  30.602  38.332  14.372
33048W        W98209   9.737  39.730   4.234
33049W        W98210  28.445  39.037   1.857
33050W        W98211  26.696  20.766  11.149
33051W        W98212  20.258  38.244   4.607
33052W        W98213   5.842   5.177  10.376
33053W        W98214  34.990   5.287   0.537
33054W        W98215  18.550  40.546   1.309
33055W        W98216   3.904  41.053   4.687
33056W        W98217  42.060  17.673   1.289
33057W        W98218  13.794  40.626  10.790
33058W        W98219  31.626  28.589  12.945
33059W        W98220  20.636  36.008   0.761
33060W        W98221  26.463  40.142   3.159
33061W        W98222  24.207  10.845   2.222
33062W        W98223  37.836  41.900   1.407
33063W        W98224   9.790   7.597  12.033
33064W        W98225   2.952  38.230   1.113
33065W        W98226  15.560  18.536   3.760
33066W        W98227   4.469   4.591  14.772
33067W        W98228  28.629   5.980   3.275
33068W        W98229  13.118  39.519  13.610
33069W        W98230   6.974  10.984   4.061
33070W        W98231  40.049  21.041   2.826
33071W        W98232  38.188  33.058   4.111
33072W        W98233  16.186  32.915  13.875
33073W        W98234   7.334  24.725  13.895
33074W        W98235   8.396  30.129  10.618
33075W        W98236  13.302  42.514  13.571
33076W        W98237  35.378  24.659  10.651
33077W        W98238  10.287  27.313  12.893
33078W        W98239  22.589   9.125  14.342
33079W        W98240   2.589  17.445   2.342
33080W        W98241  34.747  16.258  12.124
33081W        W98242  10.758   5.314  11.945
33082W        W98243  18.317  11.206  13.997
33083W        W98244  37.509  44.743  12.482
33084W        W98245  27.647  22.553   1.001
33085W        W98246  38.837   7.802  13.476
33086W        W98247  14.212  11.173  11.599
33087W        W98248  34.144  39.841   0.278
33088W        W98249  42.417  41.955  12.075
33089W        W98250   4.794  12.603  11.775
33090W        W98251  36.141  42.946  11.201
33091W        W98252  21.432  21.402   5.071
33092W        W98253   2.351  22.531  14.966
33093W        W98254   6.317   9.088  13.470
33094W        W98255  30.525  11.424  11.135
33095W        W98256  19.693  27.971  12.025
33096W        W98257  14.334   7.913   1.333
33097W        W98258   2.730  23.707   4.415
33098W        W98259  26.731  12.704  12.917
33099W        W98260  36.387   5.294  11.256
33100W        W98261  34.398  19.465  12.897
33101W        W98262   0.858   8.653  11.105
33102W        W98263  31.343  44.870  12.057
33103W        W98264  26.357   7.589   1.275
33104W        W98265  14.818   8.184   2.212
33105W        W98266  30.622  29.390   0.829
33106W        W98267  37.882   4.349  13.432
33107W        W98268  28.527   3.096   0.217
33108W        W98269  14.279  22.478  11.116
33109W        W98270  16.289  36.622  11.191
33110W        W98271  24.982  19.071  11.892
33111W        W98272  14.606  13.387   0.185
33112W        W98273   3.817  15.273  12.508
33113W        W98274  44.434  42.734   9.749
33114W        W98275  14.612   9.419   1.595
33115W        W98276  34.034  13.078   1.347
33116W        W98277  24.452  29.143   1.167
33117W        W98278  26.633  33.897  14.708
33118W        W98279  18.321  37.252   4.901
33119W        W98280  23.313  13.215  11.684
33120W        W98281  29.151   4.905  13.606
33121W        W98282  17.938  31.621   2.661
33122W        W98283  27.153  35.548   4.620
33123W        W98284  25.187  27.623  11.503
33124W        W98285  11.956   7.225  13.838
33125W        W98286  21.792  28.407  11.881
33126W        W98287  22.627  35.499   2.790
33127W        W98288  18.960  28.440   0.846
33128W        W98289   8.263   0.350   0.181
33129W        W98290   2.836   0.792   4.389
33130W        W98291  30.489  20.281  14.777
33131W        W98292   8.769  27.964  10.717
33132W        W98293  25.650  37.880   3.735
33133W        W98294  25.508  44.767   4.069
33134W        W98295  41.899  38.392   3.682
33135W        W98296  42.800   2.242  13.494
33136W        W98297  15.425  18.607   4.590
33137W        W98298  19.940  24.572   0.751
33138W        W98299  12.737  38.856  11.631
33139W        W98300   3.030  32.854  13.006
33140W        W98301  15.718  26.924   2.204
33141W        W98302  40.463  37.928  11.095
33142W        W98303  22.335   1.572  13.988
33143W        W98304  12.552  30.406   3.710
33144W        W98305  23.476  19.067   1.791
33145W        W98306  10.663  25.627   1.476
33146W        W98307  25.721  17.159  11.462
33147W        W98308   5.011  17.819   4.557
33148W        W98309   2.318  39.879  11.593
33149W        W98310  37.316  30.061  10.774
33150W        W98311  37.328  21.799   4.214
33151W        W98312  18.355  12.216  12.955
33152W        W98313  27.568  43.069  11.520
33153W        W98314  40.433  34.520   4.627
33154W        W98315   6.120   0.509  11.144
33155W        W98316  13.119  23.851  11.996
33156W        W98317  26.411   5.489  11.444
33157W        W98318  14.528  16.335  14.916
33158W        W98319  21.579  29.069  14.289
33159W        W98320  18.018   1.725  13.086
33160W        W98321   2.827   1.371  14.761
33161W        W98322  12.172  29.521  10.424
33162W        W98323  36.112  32.866   0.873
33163W        W98324  34.949   7.424   3.573
33164W        W98325  33.588  21.483   2.994
33165W        W98326  15.201   1.051  11.623
33166W        W98327  27.825  42.553  14.841
33167W        W98328  44.163  28.707  10.725
33168W        W98329   1.056  25.663  11.031
33169W        W98330   0.084  35.176   4.376
33170W        W98331  24.651  25.033   2.857
33171W        W98332  21.563  38.592   3.146
33172W        W98333  40.080  24.313   2.491
33173W        W98334  36.353  33.183  14.600
33174W        W98335  10.547  25.148  11.632
33175W        W98336  43.415  39.302   0.701
33176W        W98337  43.808  15.559  12.331
33177W        W98338   1.426   6.353   0.375
33178W        W98339  23.995  11.799   2.648
33179W        W98340  29.942  12.644  11.593
33180W        W98341  12.230  10.762   4.285
33181W        W98342  44.076  32.896  12.966
33182W        W98343   2.803  32.998  10.450
33183W        W98344  19.983  30.554  13.880
33184W        W98345  12.898  27.975  13.380
33185W        W98346   9.011   0.247  14.424
33186W        W98347  25.094  32.717  14.776
33187W        W98348  20.960  16.194   1.751
33188W        W98349  12.587  10.131   1.443
33189W        W98350  23.046  23.416   4.099
33190W        W98351   0.071  10.121   0.515
33191W        W98352  14.242  44.989   4.172
33192W        W98353  41.548   7.602  14.983
33193W        W98354  18.638  11.498   1.726
33194W        W98355   5.620  24.083   2.957
33195W        W98356  12.191  39.796   3.622
33196W        W98357  41.659  37.456   1.471
33197W        W98358  24.960  41.771  10.673
33198W        W98359  44.840   2.223  12.527
33199W        W98360   0.471  16.508   4.461
33200W        W98361  44.308  40.753  11.049
33201W        W98362  12.797  21.233  13.740
33202W        W98363  33.924  21.601  11.835
33203W        W98364   3.164  33.323  11.548
33204W        W98365  34.066  16.129  13.657
33205W        W98366   3.911  24.101   3.169
33206W        W98367  41.879  14.150   1.354
33207W        W98368  11.739   5.477  12.532
33208W        W98369  43.539  13.326  10.760
33209W        W98370  24.312  18.224   2.171
33210W        W98371   2.143  20.448  14.462
33211W        W98372   8.310  16.148  10.601
33212W        W98373   7.359  35.399  12.041
33213W        W98374   8.433  14.746   1.829
33214W        W98375  37.984   3.966  11.518
33215W        W98376   0.642  10.677   4.563
33216W        W98377  14.241  32.857   0.395
33217W        W98378  22.249  16.292   1.327
33218W        W98379  22.736  21.237  10.630
33219W        W98380  37.623  24.391   0.241
33220W        W98381   4.538   2.838   1.481
33221W        W98382   2.880   1.667   2.894
33222W        W98383  27.391  40.995   1.445
33223W        W98384   8.793  35.597   2.308
33224W        W98385  28.611  39.383   2.482
33225W        W98386   2.629  43.321  12.448
33226W        W98387  34.674  42.535  13.412
33227W        W98388  16.420  40.562   2.829
33228W        W98389   0.633   4.716   1.231
33229W        W98390  16.354  18.466  12.430
33230W        W98391  11.773  30.787  13.446
33231W        W98392  19.388  43.374   3.536
33232W        W98393   6.837  32.105  14.496
33233W        W98394  25.070   9.597  14.779
33234W        W98395   1.007  34.885  11.607
33235W        W98396   5.033  32.401  11.532
33236W        W98397  14.062  38.832  14.050
33237W        W98398  17.879  30.203   1.173
33238W        W98399   4.817  28.603   2.316
33239W        W98400  30.722   5.893  12.511
33240W        W98401   1.443  10.914   0.810
33241W        W98402  37.506  26.374  14.128
33242W        W98403  11.478  28.969   4.095
33243W        W98404  31.116  27.996  11.839
33244W        W98405  36.550  15.281  11.638
33245W        W98406   4.240  18.393   0.332
33246W        W98407  21.519  21.551  14.515
33247W        W98408  42.071  16.248  11.045
33248W        W98409  35.025   3.969  13.511
33249W        W98410   6.886   8.621   3.651
33250W        W98411   8.749   0.878  11.593
33251W        W98412  29.741  39.587   1.358
33252W        W98413  21.581  31.118  13.537
33253W        W98414  18.105  33.055  14.367
33254W        W98415   5.513   2.399  12.810
33255W        W98416  33.429  39.095  12.181
33256W        W98417  34.470  25.123   0.148
33257W        W98418  18.256  11.840   1.701
33258W        W98419  34.019   1.702  14.836
33259W        W98420  15.942  38.625   4.136
33260W        W98421   4.482  38.378   3.082
33261W        W98422  20.902  16.439  12.054
33262W        W98423  31.134  32.990  11.605
33263W        W98424   9.088  20.758  14.776
33264W        W98425  22.493  20.428   0.797
33265W        W98426  25.560  36.393  13.334
33266W        W98427  21.976  10.124   2.397
33267W        W98428  11.200   5.134   4.697
33268W        W98429   2.934  24.212  12.084
33269W        W98430  15.596  27.731   3.420
33270W        W98431  21.614   3.854  11.449
33271W        W98432  36.365  34.233  11.995
33272W        W98433  11.274  27.108   0.729
33273W        W98434  16.067  31.360   0.438
33274W        W98435  28.002  42.446   4.323
33275W        W98436   8.709  32.376  14.798
33276W        W98437  12.231  17.072   4.490
33277W        W98438  26.790  36.297   2.019
33278W        W98439  23.746  27.779  13.055
33279W        W98440  22.254  38.604   2.785
33280W        W98441  25.576  19.429   4.060
33281W        W98442  38.876   6.758   0.859
33282W        W98443   0.825  13.036  14.834
33283W        W98444  26.770  43.446   0.848
33284W        W98445  30.129  13.986   1.388
33285W        W98446  11.355  43.767   1.667
33286W        W98447  26.987  37.890  12.479
33287W        W98448  18.100  10.824   3.209
33288W        W98449  11.410  25.091   3.081
33289W        W98450   6.695  15.617  11.553
33290W        W98451  13.227   8.311  10.733
33291W        W98452  20.730   5.814   1.254
33292W        W98453  27.195  26.636   0.953
33293W        W98454   5.261   2.852  12.103
33294W        W98455  37.449  27.519  13.335
33295W        W98456  18.104  21.678   0.804
33296W        W98457  22.480  16.221   5.843
33297W        W98458   7.664  35.420  13.419
33298W        W98459  22.250  15.871  10.224
33299W        W98460   1.994  28.594   3.768
33300W        W98461   4.112  33.949  14.762
33301W        W98462   7.924  37.431  10.654
33302W        W98463  10.859   1.563  13.407
33303W        W98464  35.640  44.194  13.430
33304W        W98465  33.038  21.252  10.728
33305W        W98466  19.076  12.261   1.249
33306W        W98467  34.877  43.433   4.356
33307W        W98468  12.678   4.341   3.570
33308W        W98469   7.763   1.041   0.766
33309W        W98470  35.402  29.535  14.300
33310W        W98471  37.522  36.223  11.295
33311W        W98472  32.639  14.295  11.033
33312W        W98473  26.058  16.372   1.886
33313W        W98474  17.113  37.566  13.111
33314W        W98475   9.093  12.799   1.242
33315W        W98476  34.218  31.293  11.414
33316W        W98477  30.713  19.780  14.347
33317W        W98478  43.412   5.430  13.167
33318W        W98479  23.163  38.348   3.819
33319W        W98480  12.870  37.457   3.650
33320W        W98481  23.273  22.624   3.132
33321W        W98482   9.750  41.905   3.858
33322W        W98483  11.086   2.483   3.271
33323W        W98484  42.807  20.095   4.652
33324W        W98485   7.509   6.999   0.473
33325W        W98486  28.634  12.017  14.004
33326W        W98487   9.624  37.037  13.321
33327W        W98488  17.341  44.978  13.419
33328W        W98489   1.633  33.495   4.156
33329W        W98490   7.797  15.342  11.562
33330W        W98491   9.341   5.187   3.149
33331W        W98492  37.097   4.045   1.305
33332W        W98493  29.563  29.356   1.873
33333W        W98494   3.841  16.709   3.368
33334W        W98495  44.331  28.634   3.659
33335W        W98496  13.237  39.980   3.727
33336W        W98497  26.343  13.869   5.238
33337W        W98498  43.938  23.168   1.471
33338W        W98499  34.931   7.944   2.249
33339W        W98500   3.743  24.672   3.296
33340W        W98501  33.579  39.427   1.661
33341W        W98502  21.024  23.465   2.729
33342W        W98503  38.112  31.620  13.333
33343W        W98504   1.917  14.225  13.033
33344W        W98505  18.207   5.305  12.910
33345W        W98506  20.953   2.173   0.122
33346W        W98507  14.710  21.494  13.299
33347W        W98508   5.738   0.813   1.419
33348W        W98509  44.382  23.544  12.458
33349W        W98510  20.929   7.216  12.438
33350W        W98511   3.970   9.348   0.039
33351W        W98512  36.380  22.986   4.799
33352W        W98513  18.949  31.116  13.344
33353W        W98514  12.949   6.836  11.982
33354W        W98515  31.667  39.173  11.475
33355W        W98516   8.489   4.567   1.697
33356W        W98517   4.991  14.545   1.895
33357W        W98518  23.059  13.084   3.683
33358W        W98519  32.512  39.542  12.938
33359W        W98520  30.925   3.218  13.045
33360W        W98521  25.480  13.178  13.085
33361W        W98522  29.033  38.834  12.436
33362W        W98523   5.044  40.907   1.360
33363W        W98524   6.841   7.239   2.920
33364W        W98525   2.824   8.094  11.081
33365W        W98526  33.081  28.285   1.007
33366W        W98527  12.725   8.219  12.842
33367W        W98528  24.088   7.442  13.964
33368W        W98529  23.239  13.297  12.195
33369W        W98530   8.653  31.116  13.804
33370W        W98531  33.126  42.747  11.098
33371W        W98532   5.187  27.924   0.799
33372W        W98533   7.307  23.530   3.337
33373W        W98534   6.294  17.944   0.872
33374W        W98535  23.196  43.488  14.863
33375W        W98536  20.484   5.489  12.613
33376W        W98537  29.141   1.980   4.184
33377W        W98538   2.403  40.435   0.783
33378W        W98539  35.511  11.987   0.432
33379W        W98540  44.856   0.731  12.517
33380W        W98541  39.914  18.536  13.493
33381W        W98542  40.056  38.732   1.156
33382W        W98543  10.281  43.306  11.806
33383W        W98544  22.021  12.683  11.024
33384W        W98545  16.606   5.658  13.717
33385W        W98546  21.322  35.779   2.374
33386W        W98547   1.514   7.160   2.261
33387W        W98548   0.217  42.786   3.626
33388W        W98549  39.359  35.215   3.348
33389W        W98550   5.682  18.811   3.906
33390W        W98551  35.934  22.496  13.866
33391W        W98552  42.254  19.958  13.262
33392W        W98553  22.723  32.464  14.402
33393W        W98554  42.101  16.123   2.922
33394W        W98555  35.318  20.794  13.921
33395W        W98556   4.197  37.461  14.827
33396W        W98557  13.248  30.040  11.114
33397W        W98558  29.070  27.945   3.033
33398W        W98559  44.202  41.995  11.468
33399W        W98560  30.605  15.033  14.870
33400W        W98561   9.589  13.062   3.931
33401W        W98562   6.431  29.680  12.945
33402W        W98563   9.039   0.535  13.003
33403W        W98564  25.182  43.277  11.631
33404W        W98565  38.234   0.975   1.443
33405W        W98566  41.868  40.060   2.204
33406W        W98567  27.169  22.757  11.138
33407W        W98568  44.060   9.448  14.505
33408W        W98569  28.639   0.064  12.001
33409W        W98570  11.254  17.534  10.454
33410W        W98571  27.255  20.317  11.228
33411W        W98572  29.060  44.234  11.946
33412W        W98573  10.261   2.866   3.639
33413W        W98574   5.182  31.023  11.465
33414W        W98575  18.633   8.931   2.378
33415W        W98576  18.967  24.054   3.714
33416W        W98577  28.498  36.613   2.352
33417W        W98578   2.794  26.113  10.752
33418W        W98579   2.035   5.851   2.203
33419W        W98580  20.727  12.184   2.157
33420W        W98581   3.290  21.059  10.688
33421W        W98582  18.571  18.710   0.420
33422W        W98583   8.692  11.370   0.913
33423W        W98584   7.748   1.514   1.048
33424W        W98585  36.080  44.727  12.454
33425W        W98586  19.088  42.402   2.148
33426W        W98587  34.042  20.686  11.158
33427W        W98588  12.687   0.508  12.911
33428W        W98589   7.162   8.872   4.086
33429W        W98590   8.946   9.646   1.757
33430W        W98591  23.099  41.950  14.708
33431W        W98592   4.199  28.068   4.125
33432W        W98593  31.367  35.318  13.060
33433W        W98594   0.560  10.846   3.843
33434W        W98595  11.797   6.378   2.792
33435W        W98596   9.259  30.575  14.330
33436W        W98597  36.066   2.475   1.906
33437W        W98598  40.936  22.388   3.476
33438W        W98599  27.418  22.522  10.716
33439W        W98600   4.877  15.356  11.508
33440W        W98601  29.795   2.055   0.825
33441W        W98602  32.222  11.703  12.517
33442W        W98603  39.981  39.543  12.981
33443W        W98604  28.554   7.428  12.466
33444W        W98605  42.978  34.529   4.368
33445W        W98606   3.459  14.159   4.218
33446W        W98607  21.623  23.597  10.521
33447W        W98608   1.017  23.667   3.300
33448W        W98609  36.617  19.763   1.206
33449W        W98610  29.830  17.962   4.274
33450W        W98611  41.313  35.535  14.462
33451W        W98612  43.027  33.684   3.337
33452W        W98613  30.344  10.503  12.825
33453W        W98614  30.317  37.989  13.259
33454W        W98615  20.127  36.503  13.705
33455W        W98616  23.009   3.225  11.749
33456W        W98617  15.318  12.688   1.981
33457W        W98618  36.961   6.148   4.067
33458W        W98619  39.524  27.918   4.077
33459W        W98620   7.854  13.321   2.454
33460W        W98621  39.040   3.523   0.681
33461W        W98622  44.979  23.036   0.079
33462W        W98623   9.714  14.817  12.531
33463W        W98624  38.711  15.988   3.580
33464W        W98625  34.465  18.509  13.819
33465W        W98626  34.931  14.038   0.013
33466W        W98627   2.321  30.362  13.784
33467W        W98628  44.918  43.935   3.154
33468W        W98629  39.037  44.167   4.180
33469W        W98630  11.707   2.156   2.310
33470W        W98631  28.063   0.990   0.388
33471W        W98632  19.094  11.686   2.476
33472W        W98633  38.545  33.857   1.781
33473W        W98634   2.697  34.892  14.795
33474W        W98635  23.557  35.497   4.047
33475W        W98636  12.228  21.651   2.459
33476W        W98637  35.952  36.839   4.687
33477W        W98638  23.957  33.823   3.847
33478W        W98639   2.990  24.564  11.339
33479W        W98640  27.443  27.070   4.663
33480W        W98641  12.046  34.349  11.919
33481W        W98642  44.336  40.950  12.289
33482W        W98643  37.246  16.755   2.693
33483W        W98644  11.663  39.887   1.264
33484W        W98645  21.503  28.626   0.814
33485W        W98646  21.570  24.458   0.340
33486W        W98647  14.423  16.730   0.748
33487W        W98648  31.664  28.129  14.895
33488W        W98649  14.500  10.333   5.069
33489W        W98650  40.831   4.123  14.944
33490W        W98651  18.647   2.832  11.729
33491W        W98652   0.459   6.825  14.691
33492W        W98653  29.362  12.944   9.842
33493W        W98654  14.554   6.332   3.667
33494W        W98655  14.450  21.198   2.353
33495W        W98656   5.147  15.429   5.016
33496W        W98657   5.041   1.736   3.280
33497W        W98658  35.481  38.854  14.077
33498W        W98659  26.286  11.618   1.790
33499W        W98660  24.408  36.443  11.241
33500W        W98661  44.569  32.221  12.567
33501W        W98662  36.445  33.421  12.948
33502W        W98663  24.980  42.898   3.732
33503W        W98664   7.415  40.028  13.486
33504W        W98665  40.129  25.103  11.510
33505W        W98666  37.454  12.776  14.956
33506W        W98667  19.041   4.064   1.372
33507W        W98668  43.443  34.371   4.572
33508W        W98669   3.976  39.267   0.428
33509W        W98670  29.035   0.635   4.685
33510W        W98671  11.477  22.302   3.738
33511W        W98672  43.212  36.141  14.034
33512W        W98673  28.702  42.420   1.270
33513W        W98674   2.955   7.240   0.799
33514W        W98675  34.458  15.808  11.676
33515W        W98676  40.229  23.110  10.735
33516W        W98677   8.173   7.342   2.620
33517W        W98678  21.112  30.691   2.755
33518W        W98679  43.977  20.631   4.616
33519W        W98680  14.419  38.796  12.699
33520W        W98681   9.914  27.825  11.230
33521W        W98682  19.775  12.684  10.741
33522W        W98683  24.450  31.122  11.554
33523W        W98684  12.769  41.042   3.266
33524W        W98685   4.084  38.883  14.948
33525W        W98686  12.459  27.005   4.589
33526W        W98687  24.578  30.030   1.230
33527W        W98688   5.768  16.051  14.555
33528W        W98689  11.249  36.948  10.638
33529W        W98690   4.069  11.609  12.831
33530W        W98691  17.959  14.926  14.260
33531W        W98692  20.314  19.621  12.297
33532W        W98693  15.643   6.608  13.500
33533W        W98694  42.248  32.723  14.805
33534W        W98695   9.231   1.369  14.888
33535W        W98696  10.250  23.491   1.287
33536W        W98697  22.770  36.920   0.959
33537W        W98698  20.574  41.456   4.708
33538W        W98699  33.042   9.366   1.768
33539W        W98700   0.224  14.665   4.088
33540W        W98701  15.191  36.930  10.974
33541W        W98702  27.172  42.988   2.175
33542W        W98703   2.940  41.319   0.874
33543W        W98704   5.886  28.783   1.455
33544W        W98705  12.138  20.336  12.568
33545W        W98706  22.134   3.444   0.884
33546W        W98707   3.357   5.393   0.779
33547W        W98708  25.506  43.922  11.856
33548W        W98709  30.422  34.390  14.342
33549W        W98710  41.970  25.144   3.358
33550W        W98711   6.554  27.033  12.995
33551W        W98712   0.121  18.058   3.166
33552W        W98713   6.344  26.606  11.096
33553W        W98714  36.975  15.839  14.250
33554W        W98715  39.102   7.890  12.526
33555W        W98716  16.995  21.398   3.258
33556W        W98717   9.124  27.230  14.876
33557W        W98718  29.479   1.891  11.065
33558W        W98719  14.785  16.177  11.144
33559W        W98720  17.208   9.353  12.071
33560W        W98721  34.317  42.956  13.412
33561W        W98722  18.250   5.729  13.178
33562W        W98723  18.620   0.522  14.985
33563W        W98724  37.051  16.360  13.393
33564W        W98725  28.166  28.700   0.564
33565W        W98726  22.087   0.675   1.271
33566W        W98727  22.535  42.278  11.559
33567W        W98728  12.084  19.869  14.505
33568W        W98729  12.224  28.078  11.000
33569W        W98730  35.667  32.358  13.072
33570W        W98731  37.355  14.217  12.083
33571W        W98732  34.134  20.453  12.965
33572W        W98733  26.485  31.495  12.049
33573W        W98734  27.158  19.728   4.623
33574W        W98735  39.740  39.659   2.605
33575W        W98736  19.769   1.287   4.069
33576W        W98737  17.045  14.358  11.636
33577W        W98738  23.511   3.529  12.350
33578W        W98739  40.705  10.760  13.777
33579W        W98740  26.563  29.122   1.363
33580W        W98741  43.278  41.494   3.162
33581W        W98742  13.698  33.653  12.574
33582W        W98743  10.711  34.673  12.481
33583W        W98744  34.653  44.306   0.270
33584W        W98745   9.200  19.206  11.412
33585W        W98746   9.587  26.624   4.097
33586W        W98747  22.209  34.647  12.028
33587W        W98748   8.904  36.187  14.355
33588W        W98749  36.395   6.261   4.820
33589W        W98750  14.021  17.084   4.050
33590W        W98751   9.204  31.293   2.818
33591W        W98752  24.566  19.481  14.970
33592W        W98753  11.283  43.765  10.723
33593W        W98754  12.766  17.428   4.531
33594W        W98755  27.489  12.240  14.492
33595W        W98756   9.801  25.399  14.957
33596W        W98757  38.340   1.193  12.423
33597W        W98758  36.528  31.414   0.548
33598W        W98759  43.428  27.751   4.982
33599W        W98760  14.425   2.398  13.224
33600W        W98761  28.578  17.717   1.456
33601W        W98762  25.585  44.827  11.256
33602W        W98763  10.512  25.109  14.390
33603W        W98764  34.543  27.478  14.273
33604W        W98765   1.827  44.705  13.974
33605W        W98766  15.276  41.752   4.584
33606W        W98767  41.827  30.014  12.480
33607W        W98768  37.336  40.331  10.781
33608W        W98769  37.924  43.338   2.888
33609W        W98770  15.397   5.742  14.682
33610W        W98771   7.469  33.463   2.671
33611W        W98772  13.997  41.825   3.638
33612W        W98773  20.280  35.698  12.278
33613W        W98774  35.167  19.734   4.616
33614W        W98775  23.679  20.718   3.689
33615W        W98776  15.689  12.111  14.660
33616W        W98777  39.934  13.983   0.103
33617W        W98778  37.178  39.504   0.736
33618W        W98779  21.266   2.731  13.826
33619W        W98780  39.668  17.081  12.796
33620W        W98781  14.325   5.460   4.548
33621W        W98782   5.885  43.850   2.267
33622W        W98783  19.129  30.258   3.720
33623W        W98784   6.174  33.890   2.823
33624W        W98785  29.586   0.766   0.846
33625W        W98786  28.083  41.341  13.457
33626W        W98787  44.309  41.465  14.097
33627W        W98788  34.840   9.368  11.969
33628W        W98789  16.301  26.225   3.184
33629W        W98790  10.880  32.485  14.318
33630W        W98791   4.459  35.940  10.755
33631W        W98792  24.973  36.069  14.514
33632W        W98793  23.151  41.499   5.097
33633W        W98794  25.472  29.875  11.461
33634W        W98795  19.332  11.296  13.691
33635W        W98796  36.388  21.136   1.014
33636W        W98797   8.227  28.786  10.709
33637W        W98798   9.363  41.974  10.999
33638W        W98799  36.105  24.118   0.257
33639W        W98800   7.020   5.288   4.641
33640W        W98801   7.608  27.318   5.000
33641W        W98802  40.945  13.367   3.820
33642W        W98803  30.497  15.605  11.681
33643W        W98804   3.131  25.309  10.716
33644W        W98805  30.888  18.673   4.544
33645W        W98806  19.699   9.662   4.403
33646W        W98807  24.466  35.284  13.855
33647W        W98808  38.112  41.024   2.389
33648W        W98809  13.247  26.466   3.934
33649W        W98810   8.945  35.342   2.741
33650W        W98811  27.221   5.613   0.782
33651W        W98812  18.661  44.819  13.874
33652W        W98813  23.204   5.946   0.555
33653W        W98814  11.673  30.934   3.676
33654W        W98815  31.562  13.719  12.987
33655W        W98816  11.148  32.675   1.904
33656W        W98817  18.037  34.335   1.402
33657W        W98818  35.578  25.719   3.270
33658W        W98819   5.318  31.456   1.236
33659W        W98820   8.536  15.609  11.688
33660W        W98821  37.714   4.742   0.279
33661W        W98822  43.971  44.269  12.913
33662W        W98823  16.775  16.464  14.291
33663W        W98824  23.670  22.489  11.653
33664W        W98825   9.879  23.936  12.002
33665W        W98826  34.578   4.704   2.374
33666W        W98827  10.827  17.638  13.512
33667W        W98828  18.033  38.015  13.990
33668W        W98829  42.385  44.189   2.515
33669W        W98830  22.735  27.404   4.311
33670W        W98831  13.154   1.136   2.653
33671W        W98832  10.668  20.048  14.914
33672W        W98833  30.435  22.131  14.225
33673W        W98834  43.029   9.828  13.478
33674W        W98835  38.315   1.459   3.744
33675W        W98836  35.942  13.051   1.280
33676W        W98837  20.611  44.277  13.321
33677W        W98838   9.677   6.907   3.682
33678W        W98839  40.600   1.704  13.299
33679W        W98840  32.139   8.894  12.925
33680W        W98841  44.412   2.658  13.780
33681W        W98842   6.500   0.470  12.868
33682W        W98843  25.595   1.460  11.991
33683W        W98844  26.365  31.834   4.160
33684W        W98845  42.271  18.800  12.564
33685W        W98846  30.112   7.856  10.745
33686W        W98847  27.694  34.487  12.515
33687W        W98848  40.308   8.642  14.345
33688W        W98849   7.143  30.533  12.547
33689W        W98850  31.269  29.537  11.807
33690W        W98851  19.019  25.981   0.993
33691W        W98852  37.143  36.402  13.905
33692W        W98853  23.532  18.147  12.013
33693W        W98854  39.549  35.975  13.577
33694W        W98855  36.784   0.739   0.386
33695W        W98856  32.632  33.069  11.983
33696W        W98857  25.861  23.402   0.392
33697W        W98858  44.591  19.523   1.979
33698W        W98859  39.932   3.136   2.248
33699W        W98860  16.133   7.308  13.757
33700W        W98861  37.159   5.195   0.903
33701W        W98862  38.135  25.571   1.842
33702W        W98863  33.838  18.594   4.500
33703W        W98864   2.996  14.862   2.272
33704W        W98865  25.446   9.806  11.600
33705W        W98866  11.979  34.690  14.519
33706W        W98867   7.797  29.387  11.987
33707W        W98868  27.416  36.772  14.960
33708W        W98869  37.429  11.367  13.938
33709W        W98870  23.499  11.434  11.865
33710W        W98871  24.225  29.641  11.613
33711W        W98872   2.446   2.961   4.129
33712W        W98873  19.067  19.801   0.238
33713W        W98874  44.265  28.632  13.439
33714W        W98875   6.258  43.078  12.481
33715W        W98876  25.406  17.491  13.851
33716W        W98877  11.605  31.034   2.726
33717W        W98878  36.060  23.565   1.690
33718W        W98879  17.541  16.057   1.158
33719W        W98880   7.297   5.993  11.282
33720W        W98881  23.984  30.016   0.404
33721W        W98882  30.923  28.122   1.247
33722W        W98883  26.665   4.381  13.063
33723W        W98884  23.584  11.891   1.130
33724W        W98885   5.748  22.036   0.978
33725W        W98886  26.472  39.009   2.145
33726W        W98887  30.067   5.383   2.219
33727W        W98888  20.643  17.265   1.726
33728W        W98889  39.567  38.931   1.289
33729W        W98890  21.613  12.023   0.327
33730W        W98891  31.614  28.966   3.517
33731W        W98892   9.851  10.707  12.120
33732W        W98893  20.580  34.844  10.916
33733W        W98894   0.917  14.144  14.045
33734W        W98895  16.783  43.621   4.056
33735W        W98896   1.257  20.610  10.761
33736W        W98897   5.260   3.686   0.417
33737W        W98898  28.893  19.862   4.214
33738W        W98899  41.588   7.693  11.271
33739W        W98900   6.431  34.347   2.671
33740W        W98901  37.203  38.134  11.402
33741W        W98902  26.084  31.540   1.453
33742W        W98903  18.490  17.118   2.243
33743W        W98904   1.005  11.614   3.619
33744W        W98905  28.215  16.097   1.372
33745W        W98906   0.419  27.191   2.430
33746W        W98907   0.929  22.345  10.981
33747W        W98908   3.905   5.978  12.973
33748W        W98909   1.186  10.125   2.442
33749W        W98910  24.693   8.175  12.007
33750W        W98911   7.423  37.249   2.576
33751W        W98912  22.724  11.143  11.302
33752W        W98913  40.384  44.977   2.681
33753W        W98914   1.284  14.480   4.916
33754W        W98915  28.040  39.863  10.684
33755W        W98916  42.390  33.561  10.521
33756W        W98917  30.396  23.683  14.820
33757W        W98918   8.917  30.515  10.755
33758W        W98919  31.173   0.893   1.357
33759W        W98920  35.100  43.554  14.447
33760W        W98921  21.688  27.197   4.684
33761W        W98922  33.395  12.835   0.563
33762W        W98923  12.495   5.421   4.679
33763W        W98924  13.143  30.536   0.951
33764W        W98925  12.189  25.437   4.108
33765W        W98926  33.650  14.732   9.613
33766W        W98927  43.362  27.246  12.583
33767W        W98928  16.209  38.326  14.466
33768W        W98929  27.531  34.442  13.839
33769W        W98930  16.256  31.652   3.665
33770W        W98931  23.638  44.844  14.011
33771W        W98932   7.937   7.836   3.714
33772W        W98933  23.044  16.383   4.978
33773W        W98934  40.725  34.905  14.813
33774W        W98935   3.360   9.155   0.279
33775W        W98936  27.635   6.282   3.977
33776W        W98937  28.429  35.656   3.923
33777W        W98938   3.825  37.656  14.554
33778W        W98939  36.558  29.409   1.203
33779W        W98940  42.774   4.395  10.305
33780W        W98941  33.071  43.739   4.151
33781W        W98942  12.901  15.364  12.089
33782W        W98943   5.695  32.586  14.468
33783W        W98944  24.119  10.449  12.984
33784W        W98945   6.748   7.240  10.736
33785W        W98946  19.903  38.753  10.557
33786W        W98947   6.166  29.716   2.113
33787W        W98948   3.395   1.877  11.144
33788W        W98949  11.214  18.879  14.478
33789W        W98950  16.267  24.438  12.921
33790W        W98951  10.936  18.092  11.975
33791W        W98952  22.075  35.930  14.874
33792W        W98953  21.548  13.191  14.908
33793W        W98954  22.731  22.579  13.474
33794W        W98955  20.170   2.431   3.430
33795W        W98956  10.209  15.584  12.418
33796W        W98957  40.888  17.751  11.793
33797W        W98958  30.934  17.311   2.309
33798W        W98959  32.032  18.992  13.137
33799W        W98960  12.196  39.854  12.905
33800W        W98961  25.041  26.350   0.925
33801W        W98962  43.672  10.999  10.087
33802W        W98963  14.291  37.562  11.689
33803W        W98964   2.855  18.873   2.297
33804W        W98965  35.423  43.082  12.593
33805W        W98966  38.764  43.728   4.209
33806W        W98967  13.642   5.287   3.813
33807W        W98968  15.957  23.738  11.543
33808W        W98969  18.179   0.228   1.926
33809W        W98970  22.461  29.442  14.261
33810W        W98971  12.675   0.810   3.770
33811W        W98972   3.708  29.659   3.289
33812W        W98973  20.725  32.816  12.542
33813W        W98974   5.196  31.616  10.175
33814W        W98975  18.552  37.568   3.134
33815W        W98976  42.890  10.827  12.416
33816W        W98977  15.795   0.044  10.442
33817W        W98978   5.666  15.673  13.759
33818W        W98979   5.904  27.245   4.134
33819W        W98980   4.953  25.686  12.460
33820W        W98981  44.094  44.135   3.403
33821W        W98982  32.021  32.986   2.854
33822W        W98983  37.998   5.038  11.201
33823W        W98984   6.824  15.113  10.717
33824W        W98985   0.187  41.354   4.456
33825W        W98986  33.708  31.627  14.217
33826W        W98987  22.698  17.550   2.637
33827W        W98988  34.699   7.920  13.947
33828W        W98989  37.569  16.369   2.634
33829W        W98990  26.929  16.076  12.155
33830W        W98991  20.291  30.622   0.858
33831W        W98992  41.123  22.118   4.313
33832W        W98993  20.902  23.253  11.654
33833W        W98994  20.388   6.497  12.519
33834W        W98995   1.574   4.935   3.681
33835W        W98996  15.687  31.741  13.943
33836W        W98997   3.511  30.253  11.198
33837W        W98998  28.523  26.906  11.961
33838W        W98999  25.596   1.958   3.102
33839W        W99000   5.971  12.061   2.784
33840W        W99001  44.122  16.656   1.656
33841W        W99002   1.914  34.887   0.503
33842W        W99003   8.728  24.761  14.338
33843W        W99004  18.637  13.486  11.955
33844W        W99005  40.014  30.116  11.701
33845W        W99006  29.234  16.223   2.313
33846W        W99007  30.597  15.899  12.092
33847W        W99008  42.735  12.624   0.775
33848W        W99009  12.007  43.077  11.274
33849W        W99010  16.483   8.686   4.593
33850W        W99011  24.509  36.555  14.701
33851W        W99012  12.847  43.276  13.353
33852W        W99013  26.309  28.958   2.805
33853W        W99014   2.307  33.369  14.920
33854W        W99015  28.231  38.775   3.773
33855W        W99016   0.242  13.635  12.115
33856W        W99017  30.027   1.264  12.610
33857W        W99018   1.139  13.223  14.407
33858W        W99019  17.240  35.878   4.105
33859W        W99020   5.790  26.534  13.917
33860W        W99021   5.033  10.598   0.771
33861W        W99022   8.635  35.221  14.214
33862W        W99023  23.677  28.974   2.458
33863W        W99024  37.516   8.359   3.934
33864W        W99025  13.966  31.432  13.023
33865W        W99026  20.262  13.448   2.942
33866W        W99027   5.984  22.022  12.111
33867W        W99028  13.210  28.107   2.610
33868W        W99029  18.395  26.719   2.768
33869W        W99030  22.072  35.962   4.660
33870W        W99031   1.491  10.577   0.345
33871W        W99032  34.015  12.023  14.831
33872W        W99033  39.734   2.284   3.249
33873W        W99034  13.093  37.818  14.389
33874W        W99035  25.929  13.664  12.941
33875W        W99036   0.619   3.548  11.197
33876W        W99037   6.547  10.277  10.958
33877W        W99038   0.533  36.974  12.626
33878W        W99039  31.256  14.108  13.585
33879W        W99040  41.420  18.551  12.172
33880W        W99041  24.435  28.611   0.971
33881W        W99042   8.697   4.414  13.274
33882W        W99043  27.694   5.465   0.275
33883W        W99044  17.796  16.096   2.356
33884W        W99045   7.450  21.255   2.847
33885W        W99046  40.872  13.842   0.936
33886W        W99047  26.038   6.202  10.482
33887W        W99048  25.236  41.228  11.489
33888W        W99049   6.771  21.577  11.457
33889W        W99050  17.810   0.034   2.371
33890W        W99051  39.862   8.732  13.756
33891W        W99052  40.766  28.944   0.422
33892W        W99053  31.527  39.009  10.639
33893W        W99054  10.393  19.463  12.208
33894W        W99055   2.947  10.345   2.799
33895W        W99056  23.673  16.757  14.213
33896W        W99057  37.525  31.110   2.988
33897W        W99058  29.542   3.022  13.851
33898W        W99059  10.198  30.044   3.885
33899W        W99060  32.245   1.697  11.731
33900W        W99061  10.177  42.937  11.471
33901W        W99062  37.360  37.027   4.211
33902W        W99063  20.743  20.395   4.489
33903W        W99064  12.253   6.871  14.723
33904W        W99065  14.674  17.791   4.174
33905W        W99066   9.353  14.213  14.120
33906W        W99067  30.154  23.679   2.196
33907W        W99068  30.297  21.462   4.630
33908W        W99069  41.039  31.176   0.852
33909W        W99070  38.467  32.965   2.857
33910W        W99071  32.435  21.296   1.730
33911W        W99072  14.697  26.687  10.757
33912W        W99073  27.967  29.483  14.341
33913W        W99074  36.036   7.306   2.446
33914W        W99075  31.014  34.680   5.094
33915W        W99076  31.591  37.374   2.335
33916W        W99077   7.861  33.578  14.437
33917W        W99078   2.369  29.152  11.626
33918W        W99079  37.167   7.280   2.888
33919W        W99080   3.655  41.990  12.933
33920W        W99081  37.853  26.391   1.369
33921W        W99082  28.418  40.445  12.179
33922W        W99083  25.646   0.238   0.806
33923W        W99084  13.878  18.127   3.149
33924W        W99085  43.162  38.063  12.407
33925W        W99086  40.737  42.502  10.738
33926W        W99087  41.018  38.768  11.290
33927W        W99088  15.995  33.553  11.085
33928W        W99089  29.184   9.585   0.380
33929W        W99090  27.893  42.044  13.941
33930W        W99091  32.826  13.588  14.351
33931W        W99092  23.154  23.271  13.100
33932W        W99093  33.015  20.664  10.299
33933W        W99094  17.108  20.183  12.032
33934W        W99095   8.721  27.676   3.011
33935W        W99096  40.410  31.165   1.440
33936W        W99097  36.149  32.642  10.748
33937W        W99098  32.344   2.390   2.302
33938W        W99099  14.865  27.103  10.530
33939W        W99100  32.904  11.645  14.412
33940W        W99101  18.682  35.475  10.419
33941W        W99102   6.742   5.643   1.412
33942W        W99103   1.912   2.323  12.110
33943W        W99104  21.634  15.681   4.644
33944W        W99105  10.949  23.976  13.284
33945W        W99106   9.360  30.523   4.549
33946W        W99107  11.212  34.976  14.471
33947W        W99108  29.629  30.142   3.257
33948W        W99109  15.532  17.408   2.599
33949W        W99110  43.365  31.483  12.571
33950W        W99111  33.879  44.737  12.502
33951W        W99112  43.203  30.071   4.806
33952W        W99113   3.185  10.022   1.452
33953W        W99114  14.265  23.009  11.158
33954W        W99115  32.985  35.443  14.900
33955W        W99116   4.626  21.654   2.949
33956W        W99117  28.566  43.369   3.670
33957W        W99118  42.482  11.763   2.825
33958W        W99119  40.057   6.224  14.544
33959W        W99120  15.091  42.948   1.225
33960W        W99121  39.747  14.762   2.756
33961W        W99122  24.669  17.694   3.645
33962W        W99123   6.770  28.406   0.504
33963W        W99124  25.266  23.109  11.635
33964W        W99125  12.418  44.715  11.070
33965W        W99126  24.421   6.911   1.426
33966W        W99127   5.935   1.685   3.422
33967W        W99128   3.829  13.851  14.357
33968W        W99129  38.884  20.056   2.665
33969W        W99130  30.514   6.180  10.504
33970W        W99131  15.294  20.536  10.331
33971W        W99132   9.394  35.744   4.548
33972W        W99133  12.092  14.825   2.656
33973W        W99134  35.818  13.516  13.987
33974W        W99135  25.879  37.088  11.818
33975W        W99136  15.784  28.200  13.396
33976W        W99137  32.171  41.956   3.063
33977W        W99138  42.752  33.725   2.078
33978W        W99139  22.207   4.800   1.191
33979W        W99140  28.099  41.284  12.690
33980W        W99141  17.821  40.891  14.462
33981W        W99142  20.627   7.110   2.237
33982W        W99143  30.883  33.997   1.229
33983W        W99144  10.458   9.970  11.001
33984W        W99145   7.516  44.938   3.708
33985W        W99146  35.411   5.312   4.597
33986W        W99147  11.386  13.578   4.306
33987W        W99148   4.455   2.187  14.958
33988W        W99149  28.501  32.549   0.920
33989W        W99150  30.809  18.185   2.801
33990W        W99151  10.426   8.132  11.579
33991W        W99152  25.779  28.571   0.733
33992W        W99153  13.828  38.881   3.270
33993W        W99154   8.187  27.898  12.042
33994W        W99155  42.402  34.332   0.845
33995W        W99156  34.812   7.482  14.599
33996W        W99157  31.939  38.578  13.976
33997W        W99158  30.378  38.759  11.063
33998W        W99159  26.883  30.587  11.827
33999W        W99160  42.060  14.255  11.888
34000W        W99161   8.088  22.653  12.878
34001W        W99162  37.946  34.040  10.932
34002W        W99163   0.085  41.903   4.143
34003W        W99164  32.595  36.493   1.223
34004W        W99165  33.373  44.406   4.516
34005W        W99166  44.965  39.072   4.337
34006W        W99167   7.278  12.807  11.655
34007W        W99168   5.116  27.537  13.988
34008W        W99169   6.359  35.280   4.457
34009W        W99170   3.052  22.279  11.585
34010W        W99171  13.199  43.794   1.960
34011W        W99172  16.093   4.268  10.519
34012W        W99173   5.932  25.034   1.253
34013W        W99174  43.713  33.723   0.644
34014W        W99175   9.412  13.676  14.803
34015W        W99176  18.809  44.106   3.338
34016W        W99177   8.048  34.001   3.160
34017W        W99178  40.537  22.695  10.813
34018W        W99179  21.088  28.564  11.102
34019W        W99180  15.869  29.887   4.983
34020W        W99181   4.594  26.552   1.300
34021W        W99182   8.304  25.887  11.130
34022W        W99183  36.379  24.006  13.833
34023W        W99184  31.515  19.382   3.027
34024W        W99185  32.065  29.507  14.894
34025W        W99186   3.294  29.087   1.213
34026W        W99187  20.116  13.197  11.191
34027W        W99188  14.078   2.324  12.849
34028W        W99189  34.449  42.407   4.303
34029W        W99190   9.304  31.081  14.453
34030W        W99191   8.245  14.588   3.287
34031W        W99192  11.956   7.351   0.948
34032W        W99193  43.491  33.954  12.514
34033W        W99194  41.355  17.096   2.365
34034W        W99195  19.627  36.396   2.728
34035W        W99196  41.054  35.917  13.337
34036W        W99197  30.475  40.377   2.833
34037W        W99198   1.445  39.289   2.028
34038W        W99199  43.056  10.819  11.924
34039W        W99200  20.080  21.632   4.170
34040W        W99201  21.475  36.626   3.695
34041W        W99202  19.004  44.815  11.132
34042W        W99203  24.651  25.122  13.473
34043W        W99204  42.406  25.409  13.785
34044W        W99205   4.517  15.744  14.312
34045W        W99206  16.672  44.519  13.338
34046W        W99207  22.484  43.929  14.986
34047W        W99208   0.204  43.309   3.590
34048W        W99209  29.942  38.414   4.326
34049W        W99210  41.774  34.577  12.159
34050W        W99211  27.750  38.550  12.279
34051W        W99212  40.993  24.480  14.371
34052W        W99213  21.975  21.121   4.903
34053W        W99214   2.639  24.200   0.403
34054W        W99215  17.171  26.980  14.063
34055W        W99216  30.459  40.899   5.077
34056W        W99217  30.162  14.080  11.924
34057W        W99218  12.215  20.680  12.965
34058W        W99219  44.021  34.812  14.896
34059W        W99220  14.249   2.968  12.304
34060W        W99221  13.367  28.197  13.345
34061W        W99222   7.850   0.015   0.941
34062W        W99223   8.403   2.855  13.070
34063W        W99224  15.228   8.304  12.481
34064W        W99225  35.538  30.084  13.688
34065W        W99226   7.063  40.423  13.537
34066W        W99227  26.707  44.311   4.733
34067W        W99228  17.782   9.015  11.589
34068W        W99229   7.588   4.209   0.707
34069W        W99230  34.290   0.893  11.185
34070W        W99231  42.076  21.728  12.061
34071W        W99232  11.127  41.280   0.870
34072W        W99233  30.705   5.821  11.619
34073W        W99234  39.446   6.148  14.334
34074W        W99235  10.747   7.679   2.177
34075W        W99236   1.053   8.314  12.937
34076W        W99237   0.506   9.863   4.947
34077W        W99238  14.892  35.111  14.289
34078W        W99239  12.935  29.435   1.865
34079W        W99240  29.609   6.262  12.028
34080W        W99241  25.080   3.421  13.317
34081W        W99242  31.588  25.163   3.159
34082W        W99243  12.068  32.016   4.561
34083W        W99244  27.547  22.176   2.400
34084W        W99245  31.986  18.613  12.797
34085W        W99246  30.616  25.211   0.959
34086W        W99247  37.053  44.741   1.749
34087W        W99248  19.592  35.183  10.652
34088W        W99249   1.003   9.450   4.161
34089W        W99250  43.448  34.671  13.855
34090W        W99251   0.580   6.803  12.427
34091W        W99252   8.894  13.354  10.730
34092W        W99253   3.884  25.057   3.594
34093W        W99254   6.717  13.194   1.168
34094W        W99255  38.947  26.507   4.628
34095W        W99256  23.453  34.777   0.253
34096W        W99257  12.279   0.303   1.369
34097W        W99258  36.942  32.619   0.323
34098W        W99259  28.382  31.917   1.865
34099W        W99260  40.859  42.533   2.704
34100W        W99261  11.997  17.030   3.602
34101W        W99262   3.379  37.068  14.901
34102W        W99263  41.916  22.124   4.415
34103W        W99264  15.996  13.809  10.531
34104W        W99265  19.132  34.847   4.658
34105W        W99266   3.743  24.085  10.999
34106W        W99267  43.750  37.962  13.928
34107W        W99268  41.922  29.146  10.761
34108W        W99269  12.603   2.283  10.761
34109W        W99270   5.812   2.708  11.532
34110W        W99271   7.396  29.064  12.117
34111W        W99272   0.733  44.851   0.833
34112W        W99273  18.506   8.382   0.787
34113W        W99274  25.220  34.057   2.819
34114W        W99275  19.635  14.667   3.836
34115W        W99276   7.786  39.430  10.619
34116W        W99277  15.184  27.559  13.735
34117W        W99278  27.010   7.157   0.249
34118W        W99279   2.802  16.054   4.502
34119W        W99280   0.770  24.078  13.363
34120W        W99281  33.088  10.353   2.668
34121W        W99282   2.889  12.741   2.342
34122W        W99283  10.868  36.582   3.189
34123W        W99284  20.009  18.694   3.294
34124W        W99285  25.689  34.910  10.534
34125W        W99286  32.851  24.636   3.675
34126W        W99287  22.558  15.192   2.807
34127W        W99288   3.962  42.965  11.398
34128W        W99289   2.555   9.512  12.377
34129W        W99290  34.025  23.947   9.679
34130W        W99291  28.127  31.701  14.479
34131W        W99292  41.263  33.387   2.002
34132W        W99293  40.368  31.914  14.390
34133W        W99294  18.208  20.106  13.431
34134W        W99295  33.359  10.067   4.557
34135W        W99296   3.155  40.876   3.731
34136W        W99297  39.853  25.424   0.722
34137W        W99298  36.441  33.435  12.407
34138W        W99299  15.222  39.222   1.883
34139W        W99300   6.881  16.148  10.574
34140W        W99301  31.902  15.736  13.436
34141W        W99302  16.216  31.247   0.916
34142W        W99303  17.626  36.588   4.355
34143W        W99304  23.659  21.105   1.673
34144W        W99305  14.593  34.917   4.914
34145W        W99306  35.420   4.329   3.907
34146W        W99307  33.802  11.180  11.505
34147W        W99308  10.250  39.978  13.683
34148W        W99309  33.545  44.146  13.283
34149W        W99310  10.182  10.372  12.920
34150W        W99311  20.008  24.166   1.630
34151W        W99312  28.834   3.420   5.129
34152W        W99313  43.925  40.032  12.569
34153W        W99314  12.777   4.094   4.783
34154W        W99315  31.963  15.176  10.415
34155W        W99316  23.782   3.053  12.314
34156W        W99317  20.182  11.055   1.765
34157W        W99318  39.535  43.512  13.423
34158W        W99319  16.019  33.919  12.662
34159W        W99320   6.931   8.411   4.639
34160W        W99321   5.846  18.157  11.025
34161W        W99322   3.709  31.395   0.757
34162W        W99323  41.522  41.539   3.467
34163W        W99324  34.475  19.030   0.132
34164W        W99325  21.136  24.145   0.192
34165W        W99326  18.196  14.229  12.267
34166W        W99327   0.239  33.336   3.822
34167W        W99328  27.533  13.901  14.530
34168W        W99329  22.127   9.348  14.308
34169W        W99330  38.921  27.861   2.160
34170W        W99331  22.003  42.346   2.248
34171W        W99332  23.515  22.132  12.844
34172W        W99333  22.663  29.848   9.948
34173W        W99334   3.223  30.988  11.590
34174W        W99335  32.839  37.388   1.652
34175W        W99336  15.148  11.776   0.921
34176W        W99337  36.101  14.299  11.222
34177W        W99338  26.763  34.206   1.092
34178W        W99339  21.935  28.796  11.560
34179W        W99340  34.588  21.011  10.803
34180W        W99341   7.438   9.430  11.223
34181W        W99342   4.207  24.047   1.317
34182W        W99343   7.349  15.774  12.958
34183W        W99344  15.488   3.219   2.359
34184W        W99345  12.371  11.774  14.840
34185W        W99346   5.341  13.291  13.536
34186W        W99347  43.272  44.514  12.976
34187W        W99348  31.200  38.937  13.024
34188W        W99349  27.993   4.891  10.970
34189W        W99350  14.324  25.247  11.278
34190W        W99351   3.703  36.281   1.359
34191W        W99352  43.794  41.436  14.917
34192W        W99353  43.714  38.926  14.777
34193W        W99354  44.255   2.788  10.621
34194W        W99355  20.452  20.563  10.221
34195W        W99356  35.800  42.048  12.056
34196W        W99357   4.644   8.378  13.092
34197W        W99358   3.333   1.450  10.384
34198W        W99359   8.816  30.889   3.339
34199W        W99360  10.279  19.663   4.089
34200W        W99361  28.427   6.101  11.355
34201W        W99362  14.283  18.595   2.219
34202W        W99363  22.278  23.091   1.761
34203W        W99364  40.274  41.311   4.182
34204W        W99365   7.829  30.563   0.555
34205W        W99366  26.589  13.790   2.955
34206W        W99367  14.583  27.455  14.905
34207W        W99368   4.381  11.316   0.064
34208W        W99369  28.611  27.563   2.209
34209W        W99370  43.462  35.027  12.613
34210W        W99371  14.152  43.267  13.901
34211W        W99372  37.933  30.859  13.889
34212W        W99373  23.642  22.222  14.447
34213W        W99374  29.877   5.858  12.983
34214W        W99375   4.015  27.491   0.441
34215W        W99376  43.052   3.588  12.105
34216W        W99377  35.976  11.702  12.897
34217W        W99378  41.985  40.894   3.688
34218W        W99379   4.697  22.008   0.202
34219W        W99380  42.305   0.543  10.644
34220W        W99381  22.545  34.477   0.313
34221W        W99382   0.427  20.591   3.883
34222W        W99383  12.076  42.229   4.613
34223W        W99384  25.376  31.179   3.443
34224W        W99385  34.444  20.539  13.832
34225W        W99386  14.157   0.019   1.430
34226W        W99387  24.402  30.405   4.601
34227W        W99388   4.142  10.132  12.307
34228W        W99389  11.254   7.855   0.735
34229W        W99390  41.388  25.050   0.422
34230W        W99391  21.198  14.834  13.295
34231W        W99392  41.532  34.590   0.886
34232W        W99393   7.106  21.584  13.676
34233W        W99394  11.874  31.121  14.830
34234W        W99395  30.152  33.986  10.745
34235W        W99396  13.908  28.190  14.183
34236W        W99397  44.369   4.593   4.141
34237W        W99398  22.434  13.142  12.504
34238W        W99399  37.349   4.705  12.972
34239W        W99400   1.921  41.130  14.747
34240W        W99401   3.512   7.899  14.763
34241W        W99402  26.692  41.029   2.780
34242W        W99403  15.068  11.066  11.086
34243W        W99404  43.321   3.750  11.375
34244W        W99405  13.939  44.102   5.116
34245W        W99406  35.524  30.465   1.390
34246W        W99407   7.402  21.313  12.936
34247W        W99408  27.623  21.870   2.826
34248W        W99409  43.306  30.563   2.138
34249W        W99410   2.432   6.923  13.356
34250W        W99411  32.306  27.137   4.544
34251W        W99412  41.386  14.396   4.538
34252W        W99413  15.611  23.009   1.746
34253W        W99414  16.352   2.750  13.395
34254W        W99415  21.095  38.413   3.225
34255W        W99416   1.377  31.144  10.661
34256W        W99417  26.957  28.161  11.183
34257W        W99418  36.984  14.077  12.918
34258W        W99419  14.010   2.861  14.538
34259W        W99420  44.523   2.453  11.106
34260W        W99421  32.854  26.721   0.203
34261W        W99422  13.817   4.768   4.743
34262W        W99423  15.798  10.290   2.721
34263W        W99424  32.654  34.923   1.689
34264W        W99425   2.267  28.217  12.010
34265W        W99426  42.474  33.829  13.767
34266W        W99427  32.491  38.895   1.392
34267W        W99428  32.188  31.324  13.583
34268W        W99429  11.681  10.162   1.198
34269W        W99430  41.312  34.476   4.094
34270W        W99431   2.540  15.874  10.662
34271W        W99432  20.686  37.477  14.739
34272W        W99433  11.875  18.727   1.596
34273W        W99434  28.437  18.744  10.792
34274W        W99435  16.676  19.535  14.374
34275W        W99436  39.563  29.629  11.131
34276W        W99437  30.003   6.785  12.541
34277W        W99438  14.070  23.558  13.934
34278W        W99439  12.715   0.206  14.011
34279W        W99440  30.960  40.181   2.352
34280W        W99441  14.193  24.583   3.929
34281W        W99442   7.667   1.208   3.783
34282W        W99443  31.211  16.032   3.506
34283W        W99444  10.775   1.193  13.953
34284W        W99445  29.973  18.904   2.091
34285W        W99446  15.321  11.580  11.988
34286W        W99447  38.956  12.861   2.915
34287W        W99448  12.973  35.722   4.832
34288W        W99449  44.731  12.068   3.764
34289W        W99450  19.373  15.407  10.027
34290W        W99451  20.711  36.889   4.838
34291W        W99452  22.493   1.403  13.502
34292W        W99453  21.329  21.336  12.990
34293W        W99454   6.854  23.727   4.075
34294W        W99455  14.423  23.642  10.603
34295W        W99456  43.651  33.832   1.547
34296W        W99457  29.211  43.396  10.640
34297W        W99458   9.900  29.083   4.762
34298W        W99459   7.733   0.247  12.037
34299W        W99460  36.345   7.252  13.433
34300W        W99461  28.894  20.281   0.401
34301W        W99462  13.749  27.929  14.871
34302W        W99463   2.439  25.231   2.295
34303W        W99464   3.363  20.034  10.657
34304W        W99465   4.009   1.967  12.919
34305W        W99466  33.519  33.408   4.101
34306W        W99467  22.684  27.636  12.682
34307W        W99468  16.743   4.180   0.417
34308W        W99469  15.143  17.889  12.238
34309W        W99470  37.485  40.702   1.251
34310W        W99471   6.776  21.136  11.196
34311W        W99472   3.383   0.338  10.246
34312W        W99473  18.661   3.421   3.877
34313W        W99474  25.588  39.079   0.999
34314W        W99475   6.718  41.960  13.505
34315W        W99476  41.349  15.494   3.247
34316W        W99477  22.151  36.384   1.492
34317W        W99478  32.798   5.660  12.804
34318W        W99479  16.360  13.761  14.568
34319W        W99480  36.097  44.317   3.182
34320W        W99481  35.483  15.838   0.036
34321W        W99482  34.877   5.265   3.245
34322W        W99483  19.803  29.449   0.328
34323W        W99484  44.455  19.456   4.576
34324W        W99485  38.849  17.303  14.342
34325W        W99486  31.010   5.865  11.205
34326W        W99487  19.568  22.008   3.187
34327W        W99488  29.921  14.696   3.005
34328W        W99489  25.471  10.262  14.981
34329W        W99490  38.156   5.097  12.392
34330W        W99491  15.551  14.715  13.477
34331W        W99492  36.202  15.768   1.663
34332W        W99493  18.140  23.923  14.569
34333W        W99494  39.223   2.247  14.938
34334W        W99495  11.310  20.708  13.080
34335W        W99496  24.322   4.872  11.207
34336W        W99497  14.251  44.210   3.569
34337W        W99498  30.954  23.041  14.311
34338W        W99499  23.134  23.213   2.317
34339W        W99500  11.070  25.217   0.248
34340W        W99501   1.747   9.185   3.698
34341W        W99502  26.725  20.137  12.493
34342W        W99503   9.338  34.405  10.852
34343W        W99504  15.309  13.358  12.458
34344W        W99505   6.672   4.826   0.414
34345W        W99506   0.733   3.207   2.306
34346W        W99507  17.738  33.533   4.910
34347W        W99508  23.643  29.654  13.335
34348W        W99509  19.615  38.999   3.641
34349W        W99510  10.422   4.380   4.132
34350W        W99511   3.455  24.173  13.962
34351W        W99512   0.388  24.020   1.273
34352W        W99513  40.900  14.224  12.369
34353W        W99514   0.969   2.917   2.735
34354W        W99515  12.962   5.802   0.281
34355W        W99516  37.300  42.508  12.502
34356W        W99517   6.638   2.448   4.475
34357W        W99518  20.149   3.502   4.606
34358W        W99519  13.408  15.685  14.977
34359W        W99520  16.095   1.531  11.197
34360W        W99521  31.154   5.846  13.877
34361W        W99522  26.672  24.476  10.651
34362W        W99523  12.211  41.305  11.573
34363W        W99524  33.412  15.307   0.444
34364W        W99525  44.697   9.482  11.447
34365W        W99526  31.828   9.665  13.866
34366W        W99527   1.853   2.239  13.849
34367W        W99528  13.798  29.443  11.527
34368W        W99529  32.113  33.591   3.591
34369W        W99530  18.533   0.327   2.319
34370W        W99531   6.657  21.793   1.369
34371W        W99532   2.518   7.837   4.763
34372W        W99533  22.054  25.055   3.130
34373W        W99534  40.288   7.617  14.440
34374W        W99535  14.213  35.823   2.108
34375W        W99536  30.589   7.862  14.423
34376W        W99537  24.117  31.098   4.303
34377W        W99538  43.036  17.927  11.257
34378W        W99539  32.540  29.739  12.102
34379W        W99540  35.566   5.790   3.393
34380W        W99541  35.392   9.854  11.642
34381W        W99542  41.570  17.364   4.142
34382W        W99543   5.337  29.186  10.627
34383W        W99544  42.295  18.493   1.056
34384W        W99545  40.128  18.001  13.112
34385W        W99546  25.136  15.216  12.299
34386W        W99547   1.550  18.505   2.853
34387W        W99548  28.483  21.838  13.878
34388W        W99549  43.786  35.521  14.380
34389W        W99550  29.961  22.073  14.537
34390W        W99551  15.426  36.943  14.544
34391W        W99552   8.942  41.792  10.766
34392W        W99553   3.027  28.530   4.565
34393W        W99554   9.257  36.028  14.754
34394W        W99555  43.782   2.698  12.846
34395W        W99556  31.629  18.993   0.888
34396W        W99557  27.683  43.578  12.918
34397W        W99558  13.718   2.243  12.478
34398W        W99559  10.810  23.036  14.886
34399W        W99560  21.010  39.999   4.626
34400W        W99561  21.787  19.545   3.956
34401W        W99562  36.445   8.150   4.142
34402W        W99563  39.399  32.384   3.654
34403W        W99564  12.234  40.828   0.255
34404W        W99565   5.286   8.715  13.440
34405W        W99566  27.649  26.199   0.263
34406W        W99567  18.780  10.672   1.765
34407W        W99568   0.727  39.383  11.152
34408W        W99569   9.827  44.717  13.526
34409W        W99570  22.303   1.855   4.710
34410W        W99571  12.333  41.796   4.512
34411W        W99572  18.187  14.163   3.356
34412W        W99573  28.238  44.401  13.204
34413W        W99574  41.038  15.361  13.800
34414W        W99575  25.777  40.943   2.321
34415W        W99576  40.523  20.711  13.853
34416W        W99577  40.399  25.712  11.089
34417W        W99578   4.292  11.817   3.196
34418W        W99579  42.210  21.946   1.206
34419W        W99580  34.563  15.266   3.184
34420W        W99581  40.525   9.151   1.708
34421W        W99582  32.369  26.534   0.245
34422W        W99583   9.889  10.808   2.820
34423W        W99584  16.142  27.355   1.185
34424W        W99585   0.698  33.839  14.879
34425W        W99586  32.507   9.504   3.467
34426W        W99587  24.085  18.712   2.269
34427W        W99588  13.608  12.592   1.479
34428W        W99589  29.579   8.840   0.077
34429W        W99590  44.617  21.883  12.551
34430W        W99591  12.124  28.226  12.808
34431W        W99592  27.137  34.989  14.777
34432W        W99593   7.614  27.478   0.302
34433W        W99594  14.747   2.092  11.055
34434W        W99595  18.651  12.743   0.930
34435W        W99596  34.211  11.212   1.257
34436W        W99597  18.810  16.802   0.807
34437W        W99598  33.491  43.243   0.331
34438W        W99599  33.504  35.293  11.618
34439W        W99600   6.448  27.031   3.309
34440W        W99601  34.255  36.983  13.776
34441W        W99602  27.942  24.940   4.312
34442W        W99603  41.062  37.606  13.109
34443W        W99604  36.096   6.488   3.621
34444W        W99605  25.117  27.318  13.786
34445W        W99606  39.430  10.639  14.524
34446W        W99607  29.127   8.224   2.663
34447W        W99608  40.814  32.071   2.760
34448W        W99609   2.884  23.202  10.729
34449W        W99610  42.098  16.846  13.969
34450W        W99611  38.250  25.240   1.102
34451W        W99612   3.439  11.392  13.197
34452W        W99613  34.082  19.560   3.652
34453W        W99614  18.313  39.258   0.863
34454W        W99615  33.362  12.599  14.581
34455W        W99616  26.210  37.571   2.547
34456W        W99617  33.045  42.552  11.968
34457W        W99618  30.613   7.543   3.684
34458W        W99619  10.219  11.882  12.990
34459W        W99620  16.003  19.013  14.775
34460W        W99621  12.877  16.899  11.170
34461W        W99622  22.305  37.965  12.944
34462W        W99623  29.133   0.721  12.972
34463W        W99624   9.386  32.105   0.200
34464W        W99625  22.611  31.898   2.677
34465W        W99626  20.397  32.296   1.825
34466W        W99627  12.204   5.378   1.416
34467W        W99628  41.736  16.369  14.112
34468W        W99629  22.106  15.821  13.334
34469W        W99630  33.516  28.203  11.205
34470W        W99631  33.795  14.077  14.062
34471W        W99632  35.585  29.555   1.595
34472W        W99633   8.169  10.632  14.879
34473W        W99634  42.931  35.422   4.053
34474W        W99635   3.966   0.547  12.887
34475W        W99636   1.991  29.106  12.027
34476W        W99637  29.906  42.905   3.550
34477W        W99638  10.796  22.870  14.393
34478W        W99639  13.671  35.608  12.975
34479W        W99640  38.360  14.936   3.344
34480W        W99641  25.473  18.273  10.664
34481W        W99642  27.464   7.633   2.987
34482W        W99643  41.465  11.196   1.984
34483W        W99644  27.669  17.136   4.743
34484W        W99645  17.604   4.274   0.048
34485W        W99646  10.362  35.446   2.322
34486W        W99647  43.296  13.594  11.114
34487W        W99648  22.518  19.134  13.390
34488W        W99649  33.529   7.149   0.852
34489W        W99650  23.669   9.642   3.204
34490W        W99651  35.122   7.870  12.730
34491W        W99652   9.108  10.140  11.702
34492W        W99653  10.194  16.533  14.399
34493W        W99654  15.515   3.868   4.558
34494W        W99655  19.082  38.004   1.931
34495W        W99656  36.330  33.904   4.123
34496W        W99657  24.081   4.733   2.898
34497W        W99658  18.458   5.118  14.305
34498W        W99659  21.140  23.500  14.973
34499W        W99660   7.721  27.947  14.870
34500W        W99661  41.840  28.550   4.672
34501W        W99662  22.049  40.336  14.848
34502W        W99663  17.080  22.721   0.862
34503W        W99664   8.306  43.803  13.051
34504W        W99665  27.474  30.171   4.446
34505W        W99666  37.834  24.218   1.647
34506W        W99667  21.682  14.304  12.523
34507W        W99668  29.431  17.884  14.476
34508W        W99669  14.140  27.947  12.944
34509W        W99670  38.051  15.044   2.963
34510W        W99671  29.785  33.389   1.155
34511W        W99672  41.266  32.699  13.888
34512W        W99673  22.055   0.819   3.580
34513W        W99674  19.202  27.013  13.794
34514W        W99675  21.472  31.527   3.329
34515W        W99676  44.038  29.400  14.053
34516W        W99677  14.878  13.729  10.728
34517W        W99678  18.347  17.728  12.550
34518W        W99679  32.330   7.723  13.549
34519W        W99680  12.868  18.081  14.385
34520W        W99681   6.700  27.088  10.565
34521W        W99682   5.761  29.020  14.447
34522W        W99683  43.721   0.530  14.168
34523W        W99684  40.044  29.129   3.619
34524W        W99685   9.427  27.912   2.291
34525W        W99686  40.566  25.396  10.726
34526W        W99687  16.517  39.929  12.525
34527W        W99688  12.993  40.039   0.778
34528W        W99689  38.466   4.812  14.751
34529W        W99690  17.560  26.363   3.718
34530W        W99691  17.745  12.443   1.171
34531W        W99692  30.685  38.246  14.879
34532W        W99693   1.688  22.624   4.663
34533W        W99694  44.807  26.123   2.307
34534W        W99695  34.254   3.766  12.868
34535W        W99696  13.756  22.530   1.435
34536W        W99697  18.745   0.859   5.007
34537W        W99698  43.081  18.707  14.731
34538W        W99699  17.659  25.314   2.198
34539W        W99700  33.008  17.477   3.908
34540W        W99701  18.180   4.005  12.164
34541W        W99702  40.237  44.994  14.943
34542W        W99703  28.793  31.544   4.543
34543W        W99704  44.329   2.825   2.234
34544W        W99705  10.948   5.973   4.387
34545W        W99706  14.854  28.280   3.487
34546W        W99707  20.765   1.968   2.728
34547W        W99708   9.295  18.706   2.167
34548W        W99709  22.028  19.901  11.409
34549W        W99710  42.048   1.901  12.497
34550W        W99711  20.952  29.080  12.466
34551W        W99712  27.120   5.703  11.218
34552W        W99713  27.591   5.317  12.795
34553W        W99714  25.824  15.604   2.116
34554W        W99715  25.447  36.445  10.613
34555W        W99716  10.600   3.154   2.340
34556W        W99717  39.957   5.195   0.798
34557W        W99718   0.888  34.417  11.806
34558W        W99719  37.203  42.983   4.012
34559W        W99720   8.908  24.257  12.027
34560W        W99721  10.234  11.172  12.505
34561W        W99722   8.352   8.320  13.053
34562W        W99723  14.363  24.305  14.578
34563W        W99724  12.545   1.388  12.970
34564W        W99725  11.899  17.558   0.955
34565W        W99726  33.492  14.167   1.854
34566W        W99727  19.296  43.846  11.594
34567W        W99728  16.948  37.989  12.876
34568W        W99729   8.317  39.585  11.536
34569W        W99730  27.328  28.957   2.688
34570W        W99731   0.707  40.308  13.310
34571W        W99732  12.273  16.972   3.146
34572W        W99733  16.011  35.759  12.485
34573W        W99734  19.779  14.720   2.812
34574W        W99735  42.337  28.700  11.414
34575W        W99736  14.790  12.485   1.133
34576W        W99737   6.819  14.872  11.187
34577W        W99738  41.512  26.994  14.871
34578W        W99739  23.715   4.805  10.093
34579W        W99740  44.450  38.064  14.301
34580W        W99741  10.111  14.529   0.983
34581W        W99742   8.075  23.114   3.730
34582W        W99743   7.431   5.776  13.221
34583W        W99744  12.762   5.849   2.311
34584W        W99745   2.899  10.806  14.402
34585W        W99746  17.848  14.115  14.585
34586W        W99747  42.822  11.164   2.173
34587W        W99748   6.626  37.559   2.387
34588W        W99749  20.418  41.591  10.323
34589W        W99750   6.454   2.794  14.544
34590W        W99751  13.800  11.093   4.138
34591W        W99752  25.264  19.777   4.267
34592W        W99753  11.600   8.104   1.814
34593W        W99754  13.391  37.761  13.425
34594W        W99755  20.202   2.695   1.430
34595W        W99756  22.091  15.702   2.136
34596W        W99757  25.616  12.349  12.323
34597W        W99758  35.759  10.932   2.706
34598W        W99759  24.692   4.346  13.319
34599W        W99760   5.453  35.499  11.918
34600W        W99761  37.343  11.914   4.576
34601W        W99762  10.934   7.634   4.351
34602W        W99763  32.926  30.144  11.910
34603W        W99764  24.100  24.685  13.981
34604W        W99765  20.674  21.205  13.349
34605W        W99766   3.763   6.987   0.857
34606W        W99767  35.480  10.812  10.999
34607W        W99768  27.789  30.389   3.769
34608W        W99769  44.067  37.369  14.659
34609W        W99770  41.567  40.600  10.999
34610W        W99771  30.385  24.182   3.243
34611W        W99772  19.102  15.277   2.863
34612W        W99773  17.553  13.642   2.438
34613W        W99774  34.310  38.974   2.736
34614W        W99775  35.064  10.211   1.673
34615W        W99776   8.170  44.451   1.252
34616W        W99777   2.334  21.043  12.831
34617W        W99778  24.003  19.615   3.353
34618W        W99779  42.821   9.294   1.668
34619W        W99780  29.019  32.858  11.559
34620W        W99781  29.672  27.980  10.118
34621W        W99782  15.637   8.234   0.524
34622W        W99783  22.523   6.379   1.433
34623W        W99784  23.610  17.742   0.123
34624W        W99785  40.802  37.450  10.661
34625W        W99786  40.293  27.569   1.307
34626W        W99787  34.928  14.981   1.596
34627W        W99788   3.883  29.157  11.475
34628W        W99789   7.161   8.221   0.038
34629W        W99790   7.818  18.572  14.087
34630W        W99791   4.854   9.077  12.429
34631W        W99792   8.432  28.068   2.368
34632W        W99793  10.125  26.992  13.609
34633W        W99794   9.898  18.603   1.648
34634W        W99795  36.048  39.240  13.095
34635W        W99796  22.038  26.795   4.273
34636W        W99797  35.972  28.512   2.806
34637W        W99798  14.870  42.946  13.418
34638W        W99799  36.284  13.776  13.230
34639W        W99800   4.243  20.488   2.625
34640W        W99801  37.377  12.325  12.145
34641W        W99802  13.731  44.242   0.003
34642W        W99803  31.720  21.525   2.373
34643W        W99804  12.518  21.258   3.402
34644W        W99805  10.849  26.013  14.778
34645W        W99806   6.978  30.492   3.198
34646W        W99807  29.485  29.595  10.865
34647W        W99808  41.819  33.670   4.662
34648W        W99809   9.693  21.659  13.989
34649W        W99810   3.781  42.974   3.236
34650W        W99811  33.238  25.943  14.932
34651W        W99812  14.249  13.714   3.672
34652W        W99813  13.176  31.502   3.338
34653W        W99814  41.204  11.143   2.964
34654W        W99815  23.019   1.355  13.430
34655W        W99816  28.420  23.508  12.004
34656W        W99817  24.759   1.824   3.773
34657W        W99818  41.434   8.750  13.741
34658W        W99819  19.288  44.927   2.465
34659W        W99820   2.910  34.926   3.549
34660W        W99821   0.011  44.367  12.955
34661W        W99822  44.744   8.069   0.279
34662W        W99823  37.955  24.491  12.975
34663W        W99824  24.745  10.084  11.995
34664W        W99825  20.626  13.764  13.316
34665W        W99826  34.622   4.334  11.744
34666W        W99827  34.855   9.832   2.905
34667W        W99828  32.736  33.032   4.552
34668W        W99829  25.640  42.039  13.105
34669W        W99830   9.011   7.413  11.610
34670W        W99831  30.613  26.929  14.945
34671W        W99832  32.516  25.789   3.229
34672W        W99833  30.119  11.721  14.870
34673W        W99834  31.102  17.786  12.112
34674W        W99835  36.829  44.340  11.293
34675W        W99836  30.544   8.169   4.767
34676W        W99837   6.415  15.677   4.224
34677W        W99838  39.789  11.509   3.802
34678W        W99839  20.109  26.293   2.395
34679W        W99840  20.182   2.470   3.939
34680W        W99841  10.582  25.571   0.970
34681W        W99842   0.795  17.267  10.284
34682W        W99843  12.386  24.413   4.357
34683W        W99844  30.151  10.749  11.945
34684W        W99845   5.683  44.014   0.091
34685W        W99846   7.227  43.762  13.958
34686W        W99847  23.112  44.541  13.541
34687W        W99848  35.869   2.491   0.266
34688W        W99849  29.177  34.507   2.201
34689W        W99850  36.380  27.440  11.286
34690W        W99851   8.385  13.637   0.863
34691W        W99852  24.454  21.249  14.441
34692W        W99853  21.938  29.529   0.866
34693W        W99854  18.697  25.161   5.104
34694W        W99855  41.238  37.873  13.570
34695W        W99856  20.351  43.376   0.506
34696W        W99857  44.906  29.414  14.972
34697W        W99858  22.944  42.850   2.789
34698W        W99859   2.557   0.529   0.923
34699W        W99860  31.327  26.901   3.808
34700W        W99861  13.873  32.630  13.528
34701W        W99862   7.707  43.246  13.360
34702W        W99863   4.765  18.757  12.506
34703W        W99864  40.972  29.684  14.263
34704W        W99865   0.548  29.272  12.032
34705W        W99866  32.591  24.050   1.614
34706W        W99867  36.618  10.819   3.453
34707W        W99868   9.878  22.971   4.194
34708W        W99869  32.976  38.930   2.382
34709W        W99870  31.801   6.857   1.795
34710W        W99871  25.638  12.827   0.488
34711W        W99872  19.100  42.900   4.684
34712W        W99873  26.549  14.043   3.577
34713W        W99874  25.262  32.942  12.069
34714W        W99875   1.973  30.983   0.463
34715W        W99876  40.811  22.503   1.917
34716W        W99877  39.402  30.529   0.600
34717W        W99878  29.862   1.685  13.825
34718W        W99879   2.376  31.213  14.117
34719W        W99880  11.636  14.910   1.365
34720W        W99881  28.214  19.004  11.571
34721W        W99882  20.587   1.721  12.956
34722W        W99883  42.898  33.172  12.142
34723W        W99884  44.220   8.422  11.511
34724W        W99885  30.443  34.315   4.531
34725W        W99886  37.403   5.260  12.021
34726W        W99887  20.203  18.751   0.495
34727W        W99888  35.788  32.248   5.002
34728W        W99889  18.982  13.620  14.157
34729W        W99890  25.033  34.478  11.171
34730W        W99891  42.287  39.342   4.125
34731W        W99892  12.748  11.094   4.170
34732W        W99893  17.666  42.935   0.541
34733W        W99894  14.809  34.678  11.174
34734W        W99895   0.364   0.927   1.110
34735W        W99896  12.843  25.141   2.274
34736W        W99897   8.916  27.686  11.143
34737W        W99898  44.191   5.445  11.554
34738W        W99899  36.882  38.943   2.724
34739W        W99900  16.846  17.108   0.877
34740W        W99901  21.093  43.014   1.444
34741W        W99902  15.355  41.024   2.193
34742W        W99903   8.804   5.462  11.650
34743W        W99904  19.091  31.201  14.359
34744W        W99905  32.216  37.174   4.389
34745W        W99906  35.595   4.633  10.571
34746W        W99907  14.492   8.491   4.892
34747W        W99908  17.716  34.433  10.756
34748W        W99909  26.092  28.208  12.807
34749W        W99910   4.527  24.172   1.720
34750W        W99911  39.945  32.932   4.679
34751W        W99912   7.055  16.102  14.980
34752W        W99913  16.631   8.787  10.777
34753W        W99914  38.736  31.118  14.596
34754W        W99915  16.157  13.868  11.668
34755W        W99916  36.423   1.819  11.116
34756W        W99917  15.059   5.913  12.517
34757W        W99918  20.150  40.399  10.239
34758W        W99919   3.159   0.412  13.293
34759W        W99920  22.390  43.321   0.945
34760W        W99921  39.653  30.701  12.544
34761W        W99922  22.273  24.319   4.387
34762W        W99923   5.675  42.310  14.316
34763W        W99924  38.086  41.717   0.447
34764W        W99925  39.377  28.985   2.387
34765W        W99926  11.596  30.660  14.830
34766W        W99927   8.406  38.950   1.146
34767W        W99928   3.632   4.869   9.899
34768W        W99929   1.911  35.405   4.098
34769W        W99930  34.126  22.565  10.874
34770W        W99931   4.974  39.032   0.441
34771W        W99932  16.476  13.890   1.412
34772W        W99933  23.780   5.683   1.235
34773W        W99934  38.961  16.048  11.531
34774W        W99935  28.927   1.887   3.708
34775W        W99936  10.072  18.151   2.436
34776W        W99937  36.367  41.940   3.198
34777W        W99938  21.608  21.122   1.473
34778W        W99939  26.965  40.474   4.164
34779W        W99940  13.158   3.188  12.365
34780W        W99941  11.519  43.680  14.930
34781W        W99942  42.952   1.435  11.484
34782W        W99943   0.283   8.969   2.383
34783W        W99944  20.002  37.033  12.993
34784W        W99945  15.332  37.064  14.062
34785W        W99946  22.090  32.685  10.861
34786W        W99947   3.202  19.903  12.588
34787W        W99948  15.807  33.702   3.715
34788W        W99949   7.982  41.606  12.922
34789W        W99950  16.221  29.855   2.690
34790W        W99951  29.478  26.721   3.695
34791W        W99952  25.004   7.418  13.921
34792W        W99953  35.656   3.952  10.668
34793W        W99954  44.246  31.627  13.414
34794W        W99955  19.260  14.717   0.718
34795W        W99956  21.328  26.082   1.859
34796W        W99957  28.010  21.603  13.874
34797W        W99958  23.959  19.186   2.003
34798W        W99959  33.262  23.787   5.443
34799W        W99960   2.214  16.093   1.782
34800W        W99961  39.956  20.719   1.271
34801W        W99962  37.438  14.077   3.515
34802W        W99963  41.556  22.869  14.898
34803W        W99964  13.286  37.962   2.310
34804W        W99965  42.532  26.231   2.338
34805W        W99966  26.218  26.800  14.565
34806W        W99967   3.570  24.743   2.730
34807W        W99968  42.971  44.715  11.349
34808W        W99969  41.273  36.928   3.761
34809W        W99970  34.773   2.462   4.085
34810W        W99971   7.805  32.471  10.578
34811W        W99972  33.895  28.154   4.831
34812W        W99973  13.237  30.668  13.640
34813W        W99974   9.898   2.487   3.657
34814W        W99975  26.173  15.737   3.099
34815W        W99976  10.723  29.610   0.558
34816W        W99977  11.407   5.896   4.136
34817W        W99978  35.468  34.320  13.850
34818W        W99979  32.049  34.548   1.798
34819W        W99980  16.624  36.335   4.562
34820W        W99981  23.555  14.875   2.771
34821W        W99982  43.810  37.170   3.848
34822W        W99983   2.514  28.927  10.741
34823W        W99984  29.126  18.753   2.898
34824W        W99985  34.425  19.160   2.516
34825W        W99986  13.779  23.241  11.047
34826W        W99987  44.153  39.911   4.309
34827W        W99988  15.820   2.313   2.872
34828W        W99989  12.729  34.584  12.920
34829W        W99990  12.936  38.823  14.266
34830W        W99991  15.327   5.194  11.383
34831W        W99992  32.125   9.165   4.150
34832W        W99993   7.978   1.215  10.923
34833W        W99994  19.467   9.199  13.396
34834W        W99995  27.659  18.581  12.911
34835W        W99996  16.908  11.285  10.823
34836W        W99997  12.866  29.523  13.464
34837W        W99998   7.338  28.221  11.465
34838W        W99999  43.762  33.392   2.425
34839W        W    0   8.434  13.311  12.431
34840W        W    1  20.962  13.095   1.275
34841W        W    2  20.585  31.661   0.328
34842W        W    3  44.758   6.636   1.103
34843W        W    4  14.177  25.668  11.045
34844W        W    5  12.358  16.342  13.876
34845W        W    6  42.340  21.134  13.937
34846W        W    7  17.030  35.050   2.869
34847W        W    8  29.077  38.424  14.723
34848W        W    9   1.689   0.415   2.655
34849W        W   10  44.581  38.008  11.207
34850W        W   11  39.729  18.085   4.160
34851W        W   12  17.202  40.641   9.846
34852W        W   13  38.487  42.270  13.424
34853W        W   14  34.937  22.419   4.097
34854W        W   15  21.989  18.599  13.761
34855W        W   16  34.613  39.024   0.234
34856W        W   17   7.656  17.780   4.486
34857W        W   18  22.679  25.810  12.937
34858W        W   19  42.291  10.751  13.088
34859W        W   20   9.972   9.610  12.957
34860W        W   21  22.678  34.743   0.752
34861W        W   22  26.623   8.719  14.954
34862W        W   23   9.361  20.042   5.021
34863W        W   24   6.556  10.764  11.729
34864W        W   25  13.043   5.183  13.889
34865W        W   26   8.293  16.784  14.763
34866W        W   27   9.852  38.974  13.553
34867W        W   28  16.619   2.957   0.856
34868W        W   29  17.346  25.776   4.123
34869W        W   30  20.785  41.481  10.777
34870W        W   31  41.806  41.071   1.073
34871W        W   32  41.437  35.952  14.740
34872W        W   33  39.975  15.908  11.014
34873W        W   34   3.332  24.110  14.906
34874W        W   35  23.020  10.958  12.512
34875W        W   36  15.057  25.964   3.624
34876W        W   37  11.292  26.150   2.716
34877W        W   38   4.836   6.869  12.468
34878W        W   39  23.044   9.252  13.075
34879W        W   40  38.882  38.819   5.431
34880W        W   41   0.427  40.521   2.302
34881W        W   42  24.524  19.681   3.204
34882W        W   43   2.437   7.416   2.275
34883W        W   44  17.515  26.881   3.709
34884W        W   45  34.665  34.808   0.394
34885W        W   46  16.707  40.014  10.775
34886W        W   47  17.337  34.898   1.900
34887W        W   48  34.152  12.208  12.937
34888W        W   49  42.828  21.688   0.868
34889W        W   50  40.027   8.839   3.337
34890W        W   51   8.172  39.351   2.294
34891W        W   52  27.071  15.525   1.764
34892W        W   53  20.966  28.856   2.782
34893W        W   54  41.694  42.868  13.457
34894W        W   55  10.620  24.495  14.038
34895W        W   56  12.917  25.973   1.857
34896W        W   57  11.742  43.592  10.499
34897W        W   58  16.132  25.483  14.000
34898W        W   59  39.934  17.165  10.441
34899W        W   60   1.830   4.516  11.191
34900W        W   61  14.237  10.772   3.277
34901W        W   62  38.313  44.785  13.007
34902W        W   63  23.803  19.101  14.373
34903W        W   64  41.931  28.984   1.858
34904W        W   65  44.147   5.837   4.860
34905W        W   66  40.655  31.106   1.898
34906W        W   67  42.769  18.788  12.480
34907W        W   68  43.846   7.898  11.192
34908W        W   69  33.660  21.215  11.537
34909W        W   70  35.438  30.227  14.159
34910W        W   71  31.509  17.144  10.660
34911W        W   72  20.794  37.010  12.112
34912W        W   73   0.024   3.975  14.220
34913W        W   74  30.028   8.482  14.278
34914W        W   75   4.945  42.728  12.417
34915W        W   76  26.462  31.015  12.491
34916W        W   77  34.101   5.948  12.578
34917W        W   78  35.984   1.700   3.742
34918W        W   79  19.191  38.375  13.584
34919W        W   80  26.028   2.718   0.271
34920W        W   81  43.060  42.690  12.958
34921W        W   82  37.072  40.824   1.576
34922W        W   83  38.667  10.262  10.375
34923W        W   84  33.586  43.720  11.973
34924W        W   85   2.796  39.611  14.957
34925W        W   86  11.097  24.993  11.622
34926W        W   87  30.462  37.380   2.226
34927W        W   88  33.204  18.350   3.758
34928W        W   89  21.560  28.627  14.967
34929W        W   90  28.554  17.292  13.500
34930W        W   91  31.299  31.410   5.070
34931W        W   92  29.344   8.792   4.625
34932W        W   93  14.519  13.194  13.811
34933W        W   94  30.508  32.871   4.228
34934W        W   95  29.034  12.586  12.440
34935W        W   96  37.497  12.074  11.531
34936W        W   97  11.283  25.224  13.835
34937W        W   98  44.894  23.964  11.709
34938W        W   99   4.705  30.866  11.595
34939W        W  100   6.336  19.278   3.185
34940W        W  101   9.744  35.995   0.732
34941W        W  102  17.601  44.530  12.377
34942W        W  103  44.056  13.353  13.738
34943W        W  104   7.346  37.944   1.726
34944W        W  105  43.009  13.827  14.387
34945W        W  106   3.248  23.968   2.159
34946W        W  107  15.821  40.156   0.315
34947W        W  108  13.681   1.716  12.505
34948W        W  109  44.042   9.379  11.980
34949W        W  110  31.757   3.410  10.265
34950W        W  111  41.492  15.238  13.485
34951W        W  112  37.446  15.435   2.376
34952W        W  113   0.447  37.923  11.918
34953W        W  114  24.139  41.299  13.934
34954W        W  115   5.181  44.378   3.579
34955W        W  116  36.565   2.001  14.930
34956W        W  117  29.937   3.705  11.189
34957W        W  118  22.406  32.986  13.006
34958W        W  119  13.188  14.440  13.451
34959W        W  120  44.839  31.356   0.519
34960W        W  121  20.281   8.716   2.384
34961W        W  122   9.896  13.807  14.581
34962W        W  123  32.820   8.919   0.909
34963W        W  124  28.632  43.373   0.713
34964W        W  125  21.117  14.102  14.839
34965W        W  126  39.446  22.688   4.629
34966W        W  127  27.599  14.527   1.818
34967W        W  128   8.603  20.195  14.371
34968W        W  129   3.550  32.381  12.378
34969W        W  130  20.591  28.622  11.253
34970W        W  131  31.994  37.465   2.926
34971W        W  132  24.587  29.518  11.276
34972W        W  133  43.295   8.002  13.734
34973W        W  134  21.738  37.602   1.162
34974W        W  135  26.076  33.501   0.879
34975W        W  136  35.036  38.596  14.055
34976W        W  137  17.733   4.704   3.100
34977W        W  138  24.064  42.315  11.164
34978W        W  139   2.817  41.324   3.640
34979W        W  140   5.110   8.150   1.309
34980W        W  141  21.668  34.006  12.540
34981W        W  142   3.722  20.132  13.477
34982W        W  143  40.088  24.504   3.138
34983W        W  144  36.443   3.934  11.112
34984W        W  145  39.715  20.227   3.665
34985W        W  146  41.288  35.566   1.015
34986W        W  147  12.537  18.529  14.318
34987W        W  148   0.519   2.856   3.760
34988W        W  149  33.129  13.582  13.948
34989W        W  150  12.580  30.558  12.946
34990W        W  151  10.177  13.563   4.959
34991W        W  152  42.826  27.011  10.740
34992W        W  153  40.325  14.978  13.150
34993W        W  154   7.830   7.110   1.442
34994W        W  155  37.555  11.696  11.157
34995W        W  156   0.514   2.927  14.827
34996W        W  157  17.138  18.807   4.135
34997W        W  158  38.885  12.049  10.622
34998W        W  159  37.293   2.858   3.289
34999W        W  160  37.811  15.195   3.887
35000W        W  161  40.744  34.031  11.667
35001W        W  162  22.520  19.694  13.466
35002W        W  163  16.021  25.675  14.510
35003W        W  164  15.169  16.033   1.811
35004W        W  165  37.520  37.570   1.758
35005W        W  166  44.145   4.988  13.514
35006W        W  167  27.447  18.752   0.290
35007W        W  168   5.782  15.336   4.204
35008W        W  169   4.569  11.266  11.062
35009W        W  170  14.896   4.681   1.857
35010W        W  171  15.050  39.474   2.315
35011W        W  172   2.555  39.649  11.180
35012W        W  173  24.220  35.689  12.021
35013W        W  174  28.365  33.834   0.402
35014W        W  175  24.435  19.138   0.430
35015W        W  176  35.847  20.504  11.623
35016W        W  177  26.680  43.095  12.879
35017W        W  178   3.402  16.620  14.193
35018W        W  179  43.167   2.225   0.934
35019W        W  180  16.355  24.862  11.010
35020W        W  181  13.574  17.229  14.334
35021W        W  182  30.553  12.621  14.891
35022W        W  183  27.114  37.992   0.780
35023W        W  184  13.336   3.887  13.568
35024W        W  185  36.950  21.602   2.361
35025W        W  186  23.129  11.144  12.053
35026W        W  187   9.736  12.397   0.784
35027W        W  188  39.637  15.688   1.943
35028W        W  189  41.104   0.501  11.200
35029W        W  190  18.700  19.837   1.954
35030W        W  191  40.374  33.513   2.038
35031W        W  192  37.680  31.616   2.818
35032W        W  193  38.031  43.827   2.725
35033W        W  194  15.153  41.682   1.833
35034W        W  195   5.605   6.536  11.617
35035W        W  196  39.521   5.969  10.232
35036W        W  197  44.580  19.078  11.046
35037W        W  198  33.065  42.221  11.024
35038W        W  199  39.854   6.165   2.409
35039W        W  200   0.225  41.882  10.570
35040W        W  201  12.658   9.831  12.006
35041W        W  202  32.366  31.093   5.172
35042W        W  203  41.096   8.327  13.908
35043W        W  204  37.388  19.802   2.011
35044W        W  205  39.974  37.962   4.100
35045W        W  206   2.932  36.075   4.380
35046W        W  207  38.674  31.076   3.631
35047W        W  208  21.465   4.923   4.163
35048W        W  209  12.886  39.228   3.705
35049W        W  210   2.263  43.563  14.816
35050W        W  211  13.398  33.846   1.854
35051W        W  212  42.329   2.104   1.461
35052W        W  213  28.198   0.309  12.916
35053W        W  214  30.164   6.581   4.236
35054W        W  215  30.841   5.013   1.332
35055W        W  216  27.326   4.318  11.963
35056W        W  217  13.755  18.662  13.119
35057W        W  218  26.666  28.680  11.530
35058W        W  219  26.275  32.697  13.985
35059W        W  220  11.406  27.160  10.626
35060W        W  221  16.642  17.883   5.163
35061W        W  222  21.645  31.975  11.712
35062W        W  223   1.003  27.505   2.780
35063W        W  224  10.813  17.501  14.013
35064W        W  225  10.010  38.985  11.888
35065W        W  226  35.985  42.328  11.575
35066W        W  227  11.370  18.550   1.586
35067W        W  228  14.596  15.154  12.343
35068W        W  229   5.662  16.873   2.791
35069W        W  230  21.460   6.784   3.359
35070W        W  231   9.910  17.168   3.177
35071W        W  232  36.389   5.931   1.803
35072W        W  233  43.987  28.083   2.271
35073W        W  234   2.278   9.804  14.704
35074W        W  235  24.329  38.484   1.798
35075W        W  236  28.353  12.256  12.098
35076W        W  237  30.945  25.756   0.426
35077W        W  238  20.684  31.006  14.088
35078W        W  239  10.848   9.777   1.900
35079W        W  240  42.279   8.734   4.120
35080W        W  241  23.289   9.850   0.429
35081W        W  242   3.763  18.731   0.867
35082W        W  243   1.522   4.150   2.156
35083W        W  244   5.726   8.375  11.883
35084W        W  245  43.918  34.699   0.420
35085W        W  246  41.281  21.037   0.296
35086W        W  247  24.091   3.353  11.980
35087W        W  248  23.980  36.889  12.645
35088W        W  249   1.805   0.724  13.971
35089W        W  250   7.409  40.489   3.049
35090W        W  251   7.280  15.116   2.888
35091W        W  252  37.712  13.208   3.583
35092W        W  253  40.028   1.770   3.183
35093W        W  254  33.795  26.170   2.271
35094W        W  255   1.887  10.611   0.978
35095W        W  256  29.014   7.066   1.898
35096W        W  257  40.239   3.609   2.850
35097W        W  258  12.959  38.489  13.838
35098W        W  259   1.738   2.263  11.632
35099W        W  260  10.905  32.999  14.253
35100W        W  261  14.657  19.786  12.477
35101W        W  262  23.951  39.742  10.827
35102W        W  263  36.587  17.254  12.868
35103W        W  264   2.873  43.314   3.414
35104W        W  265  21.959   7.010  13.563
35105W        W  266  11.146  13.790   0.943
35106W        W  267   6.926  42.216   0.358
35107W        W  268   1.011  34.446   1.793
35108W        W  269  20.230  22.617  14.172
35109W        W  270   9.925  41.473   4.593
35110W        W  271  12.455  35.554  11.154
35111W        W  272  41.996   2.321   2.303
35112W        W  273   3.969  28.085  14.317
35113W        W  274  38.900   7.098   2.144
35114W        W  275  16.657  23.055  11.983
35115W        W  276  33.071   4.772  14.997
35116W        W  277  12.018  29.991  12.014
35117W        W  278  13.831  27.371   2.180
35118W        W  279  35.669   9.317   1.721
35119W        W  280  36.605  14.895  13.405
35120W        W  281  34.535  40.008  10.632
35121W        W  282  28.122  13.827   2.704
35122W        W  283  34.873  21.117  13.778
35123W        W  284  25.994  35.415  12.527
35124W        W  285  21.950  38.036   0.772
35125W        W  286   4.075  29.409   1.583
35126W        W  287  17.061   5.211   2.288
35127W        W  288  15.751  41.791  13.279
35128W        W  289  40.132  38.576  10.709
35129W        W  290  37.438  43.063  14.562
35130W        W  291  27.487  30.131   1.404
35131W        W  292  24.094  27.451  14.968
35132W        W  293   6.211  15.302  14.603
35133W        W  294   1.735   3.423  12.536
35134W        W  295   5.808  21.574   4.868
35135W        W  296   1.353  40.115   2.762
35136W        W  297  30.852  38.743  14.921
35137W        W  298   0.147  40.419  11.951
35138W        W  299  36.910   0.482  13.301
35139W        W  300   5.424  22.231   3.250
35140W        W  301  28.581  24.079   1.339
35141W        W  302  20.689  15.103  10.735
35142W        W  303  11.219   5.201  11.268
35143W        W  304  20.186  31.526  11.095
35144W        W  305   7.818   1.566   1.554
35145W        W  306  42.302   1.666   1.750
35146W        W  307  15.623  25.879  13.557
35147W        W  308  37.584  17.510   4.641
35148W        W  309  16.446  32.088  14.405
35149W        W  310  41.972  31.428  13.920
35150W        W  311  10.065   7.164   4.019
35151W        W  312  41.914  34.463  13.044
35152W        W  313  16.024   8.460  12.846
35153W        W  314  21.583   1.158  12.980
35154W        W  315   3.328   6.382   0.656
35155W        W  316  40.528   6.798   2.093
35156W        W  317   7.645   4.895   5.153
35157W        W  318  22.288  24.381  14.313
35158W        W  319  17.068  12.886   1.920
35159W        W  320  21.049  21.156   4.829
35160W        W  321  41.814   4.423  13.983
35161W        W  322   7.815  29.878   2.921
35162W        W  323  33.698  10.360  13.418
35163W        W  324   6.062   6.376  13.402
35164W        W  325  44.090  12.932   5.081
35165W        W  326  38.508  42.912   3.922
35166W        W  327  25.068  23.747   4.949
35167W        W  328  25.222  26.149  10.793
35168W        W  329  19.677  31.109  12.885
35169W        W  330  38.431   9.990  13.568
35170W        W  331  14.776  16.038   4.564
35171W        W  332   3.746  27.011   0.081
35172W        W  333  22.817  18.703  12.533
35173W        W  334  44.481   7.677  12.542
35174W        W  335  20.430  19.158   0.772
35175W        W  336   8.697  26.334  14.385
35176W        W  337   3.044   2.634  11.733
35177W        W  338  23.833  21.097  14.788
35178W        W  339   4.571  12.475   1.423
35179W        W  340  19.165   4.182   2.249
35180W        W  341  23.477  37.402  13.499
35181W        W  342  26.624  38.971   0.802
35182W        W  343  12.916  33.868  13.561
35183W        W  344  44.394  13.003   1.383
35184W        W  345  42.099  12.114  11.170
35185W        W  346  41.222  23.785   2.864
35186W        W  347  14.170   0.488   1.642
35187W        W  348   9.707  13.155  13.464
35188W        W  349  12.168  30.162  12.475
35189W        W  350  41.345  19.743   0.785
35190W        W  351  26.710  28.956  11.948
35191W        W  352  17.841  10.948   1.824
35192W        W  353  29.825  34.395   0.489
35193W        W  354  17.115  32.373  13.400
35194W        W  355  34.378  24.662  12.463
35195W        W  356  24.439  26.164   4.494
35196W        W  357   4.543  33.014   0.066
35197W        W  358  16.019  38.444  11.176
35198W        W  359  39.421  28.056   1.358
35199W        W  360  21.029  24.256  14.701
35200W        W  361  35.634   4.316   0.338
35201W        W  362  41.179  21.912  11.712
35202W        W  363  17.921   1.472  14.531
35203W        W  364  25.299  43.888   0.398
35204W        W  365  30.843  15.746  10.734
35205W        W  366   0.820  32.990  14.833
35206W        W  367   4.673  32.445   3.179
35207W        W  368   4.379  39.971   4.200
35208W        W  369  11.476  41.602   4.000
35209W        W  370  12.210  20.301   3.665
35210W        W  371   8.833  11.363  13.400
35211W        W  372   4.349   2.403   2.367
35212W        W  373  10.302   8.651   1.959
35213W        W  374  29.166  44.825   4.641
35214W        W  375   6.242  23.773   1.762
35215W        W  376  19.881  36.980  11.037
35216W        W  377  26.412  37.456  13.804
35217W        W  378   4.822  43.979   0.989
35218W        W  379  43.273   8.815  11.597
35219W        W  380   2.825   5.165  11.082
35220W        W  381   3.777  18.979  11.149
35221W        W  382  43.971  29.902  14.827
35222W        W  383  18.398   4.524  11.566
35223W        W  384  31.682  29.180   1.256
35224W        W  385  24.146  42.883  10.263
35225W        W  386  13.813   8.270   2.407
35226W        W  387  15.595   4.697   1.366
35227W        W  388  15.784  32.481   0.055
35228W        W  389   5.306  44.795   0.886
35229W        W  390  18.094  12.749   4.473
35230W        W  391  11.370   9.214   3.413
35231W        W  392  14.561  21.775  14.262
35232W        W  393  30.085  39.271  11.422
35233W        W  394  16.152  22.093  12.088
35234W        W  395  41.859  40.919  12.066
35235W        W  396  32.582  25.468  14.021
35236W        W  397  32.322   6.928   1.692
35237W        W  398  31.027  37.871  14.979
35238W        W  399   6.912  32.642  12.460
35239W        W  400  27.743  36.088  10.745
35240W        W  401  29.213  31.703   4.229
35241W        W  402  37.653  13.746  13.403
35242W        W  403  15.054   8.347  12.995
35243W        W  404  20.621  18.233   0.713
35244W        W  405  21.172   3.638  12.292
35245W        W  406  11.141  11.797  12.033
35246W        W  407  32.447   3.944   0.838
35247W        W  408   4.631  21.329  14.330
35248W        W  409  12.059  23.154  14.475
35249W        W  410   0.979  20.709   1.193
35250W        W  411  25.474  16.549   2.890
35251W        W  412   8.390  10.137  14.510
35252W        W  413  16.140  43.327   0.857
35253W        W  414  24.163  19.467  10.554
35254W        W  415  23.708  18.614  12.146
35255W        W  416  34.494   9.890   1.186
35256W        W  417  39.439  17.613   0.185
35257W        W  418   5.430  11.262   4.341
35258W        W  419   2.732   3.892   2.649
35259W        W  420  35.829   1.134   2.530
35260W        W  421   5.953   5.471  13.576
35261W        W  422  40.161   6.184  14.036
35262W        W  423  11.727  14.379  14.777
35263W        W  424  15.346  14.272   2.865
35264W        W  425  10.219   9.652   3.668
35265W        W  426  28.938   7.933   0.727
35266W        W  427   8.332  15.663   2.579
35267W        W  428  20.710  12.906   1.687
35268W        W  429  19.115  44.547   4.204
35269W        W  430  31.494  39.197   3.278
35270W        W  431  10.181   2.184  12.086
35271W        W  432  23.677   6.339  13.384
35272W        W  433  36.013  40.156   2.386
35273W        W  434  28.621  37.661   0.278
35274W        W  435  16.919  28.597  12.937
35275W        W  436  41.887  44.505   1.170
35276W        W  437  41.697  27.682   3.357
35277W        W  438  41.902  22.548   3.577
35278W        W  439   9.437  38.115   4.138
35279W        W  440   8.839   4.971  11.521
35280W        W  441  44.645  30.531   1.247
35281W        W  442   2.398  42.521  12.912
35282W        W  443  27.536   4.947   0.254
35283W        W  444  32.907  40.303   0.234
35284W        W  445  14.805  21.806   3.666
35285W        W  446  23.284  41.033   1.934
35286W        W  447  25.136   8.098  10.944
35287W        W  448  29.987  25.963   0.214
35288W        W  449  14.776  20.894   1.838
35289W        W  450  13.241  39.124   4.043
35290W        W  451   8.022  37.283  10.153
35291W        W  452  33.040  25.538   1.127
35292W        W  453  32.334   7.410  11.257
35293W        W  454  32.885   6.995   4.886
35294W        W  455  42.359  12.241   4.115
35295W        W  456   3.456  31.844  14.414
35296W        W  457  43.363  27.280   4.770
35297W        W  458  11.274  43.006   1.244
35298W        W  459  23.444  31.892   2.502
35299W        W  460  10.375   9.602   0.330
35300W        W  461  25.187   9.256  11.591
35301W        W  462  10.814   9.475   2.862
35302W        W  463  36.320  26.557  13.499
35303W        W  464  17.621  12.083   4.832
35304W        W  465  24.407  21.203   0.852
35305W        W  466   8.866  24.250   1.365
35306W        W  467  43.423  23.107  13.494
35307W        W  468  13.241  16.830  14.924
35308W        W  469  19.280  26.959   3.607
35309W        W  470  22.970  20.663   4.821
35310W        W  471  15.265  10.680  12.253
35311W        W  472  25.742  41.968   1.297
35312W        W  473  18.349  29.124  14.868
35313W        W  474  17.854  34.256   4.571
35314W        W  475  27.599  35.591  10.749
35315W        W  476  25.348  37.517  14.067
35316W        W  477  10.371   1.708  14.525
35317W        W  478  12.199  31.372  14.032
35318W        W  479  28.399   9.310   1.795
35319W        W  480  34.034   0.223   0.961
35320W        W  481  27.801  32.038  14.853
35321W        W  482   4.872   7.658   0.741
35322W        W  483  33.953  38.115   2.868
35323W        W  484   0.712  21.468  14.080
35324W        W  485  29.289   0.654  12.102
35325W        W  486   6.165  24.436  11.090
35326W        W  487   5.328  16.612  11.751
35327W        W  488  16.682  36.893  14.804
35328W        W  489   6.267  15.217  12.598
35329W        W  490  15.151  25.387   2.817
35330W        W  491  38.829   5.361   1.942
35331W        W  492   9.571   1.291   3.216
35332W        W  493  32.160  36.665   0.309
35333W        W  494  26.715  21.612   4.525
35334W        W  495  23.126  17.427   5.734
35335W        W  496  36.578  22.611  10.765
35336W        W  497  21.558  41.436   2.186
35337W        W  498  22.186  29.297   3.410
35338W        W  499  22.727  40.060   0.926
35339W        W  500  32.168   4.277   1.758
35340W        W  501  38.101  24.782   0.805
35341W        W  502  31.515  31.026   2.846
35342W        W  503  16.618  12.687   2.622
35343W        W  504  15.134   3.697  11.753
35344W        W  505  44.535   3.164   0.161
35345W        W  506  40.082  11.156   2.109
35346W        W  507  31.347  36.930  10.778
35347W        W  508   1.009  41.365   1.442
35348W        W  509   7.236   1.779   4.180
35349W        W  510  33.459   0.643   1.364
35350W        W  511  42.138   3.269   0.489
35351W        W  512  16.833  20.749   4.131
35352W        W  513  15.523  12.561  14.401
35353W        W  514  35.781  20.325   1.451
35354W        W  515  21.529  12.806   4.202
35355W        W  516   8.208  22.137   3.857
35356W        W  517  32.183   3.483   1.372
35357W        W  518  43.493  41.080   0.420
35358W        W  519  17.162  20.058  10.219
35359W        W  520   3.892  34.609   4.651
35360W        W  521  30.649  31.503   4.461
35361W        W  522   9.553  43.417   3.910
35362W        W  523  25.199  44.945   3.233
35363W        W  524  18.150  42.735   0.532
35364W        W  525  26.118  42.548   4.484
35365W        W  526  35.679  40.768   1.191
35366W        W  527  33.460   2.474   3.696
35367W        W  528  32.109  23.463   0.450
35368W        W  529  22.118  21.235  12.350
35369W        W  530  26.932  22.997  13.914
35370W        W  531   9.922  12.639  13.465
35371W        W  532  38.959  10.596  11.960
35372W        W  533  43.903  12.864   1.230
35373W        W  534  41.791  12.193  12.600
35374W        W  535  31.635  18.057   2.275
35375W        W  536  40.490  22.495  11.643
35376W        W  537   7.896  41.322  13.338
35377W        W  538  43.433  17.173   2.748
35378W        W  539  36.331   4.476   1.734
35379W        W  540  39.140  17.880   0.523
35380W        W  541  20.690  26.126   1.244
35381W        W  542   8.550  24.267  14.337
35382W        W  543  16.145   5.919   4.611
35383W        W  544  42.931  27.166  13.988
35384W        W  545  16.428  18.750   4.575
35385W        W  546  19.179  19.851  10.273
35386W        W  547  28.861  29.120   2.683
35387W        W  548   0.219  41.906   0.696
35388W        W  549   4.943  38.574   3.765
35389W        W  550   5.362   0.024   0.444
35390W        W  551  39.585   0.965  12.409
35391W        W  552  12.845  38.116   2.789
35392W        W  553   0.636  14.586  12.978
35393W        W  554  41.814  29.033  13.396
35394W        W  555  44.183  44.325  12.431
35395W        W  556   2.410  25.491  14.276
35396W        W  557  31.438   4.841   0.316
35397W        W  558  21.440  40.376  10.609
35398W        W  559  25.171  21.572   3.558
35399W        W  560   1.217   1.258   0.887
35400W        W  561  37.872  33.908  13.836
35401W        W  562  25.089  11.245   3.461
35402W        W  563  36.096  14.705   4.670
35403W        W  564  31.598  17.132   4.308
35404W        W  565  31.424  20.666   2.605
35405W        W  566  13.419   2.733  12.335
35406W        W  567  13.058  37.344  11.111
35407W        W  568   3.569  21.149   3.062
35408W        W  569  37.594  41.538  12.522
35409W        W  570  41.009  15.096  11.593
35410W        W  571  17.290  44.993   4.046
35411W        W  572  12.154  12.883   3.190
35412W        W  573  20.823   2.598  14.075
35413W        W  574  43.347   6.142  14.333
35414W        W  575  16.471  15.070   3.670
35415W        W  576  20.935  26.574  13.985
35416W        W  577   5.540   1.895   0.688
35417W        W  578  34.507  11.838   0.532
35418W        W  579  24.535   3.045   0.404
35419W        W  580  15.107  30.444   1.701
35420W        W  581  34.799   4.370   0.966
35421W        W  582  44.484   4.098  10.741
35422W        W  583   6.389  20.766  14.643
35423W        W  584  35.881   8.439   2.329
35424W        W  585  36.955   1.708   2.610
35425W        W  586   8.198  24.068   4.711
35426W        W  587  32.174  29.468   0.790
35427W        W  588  24.137   6.153  10.639
35428W        W  589  30.432   9.636   2.782
35429W        W  590  37.864  22.117   1.184
35430W        W  591  24.630  10.460   3.721
35431W        W  592  15.067  27.671  14.745
35432W        W  593  33.389  28.655   1.389
35433W        W  594   2.346  43.309  11.155
35434W        W  595  33.184  18.775   2.218
35435W        W  596  15.083  12.459   4.292
35436W        W  597   6.063  39.289   1.722
35437W        W  598  20.968  35.589   0.360
35438W        W  599  24.691  39.277  12.501
35439W        W  600  17.337  20.140   4.553
35440W        W  601  43.882  16.582  14.665
35441W        W  602  34.859  24.433  11.571
35442W        W  603  12.267  13.207   1.699
35443W        W  604  43.820  16.801   3.846
35444W        W  605  36.970  23.090   2.385
35445W        W  606  44.358  34.428   4.627
35446W        W  607  12.606  12.935  10.750
35447W        W  608  12.931   4.779   3.673
35448W        W  609  29.570  12.551  12.480
35449W        W  610  28.537  11.666   2.210
35450W        W  611  37.076   7.408  14.634
35451W        W  612  38.815   6.210  11.514
35452W        W  613  10.235  30.697  10.886
35453W        W  614  43.914  43.715   2.562
35454W        W  615   3.472   5.118  11.905
35455W        W  616  33.748  38.042   4.588
35456W        W  617  10.632   1.908   2.727
35457W        W  618  38.426  22.662  14.697
35458W        W  619  22.230   3.990  14.883
35459W        W  620   8.598  20.794   1.699
35460W        W  621   8.816  33.036   0.901
35461W        W  622   4.799   6.303   2.035
35462W        W  623  23.830  27.552  10.720
35463W        W  624  26.589   4.932   3.631
35464W        W  625  16.792   3.444   3.587
35465W        W  626  24.111  33.640  14.521
35466W        W  627  11.563  25.725  13.975
35467W        W  628  16.517   3.139   4.830
35468W        W  629  25.778  22.038   2.716
35469W        W  630  35.439  28.478  12.177
35470W        W  631  29.682   7.306   2.619
35471W        W  632  12.751   6.772  14.899
35472W        W  633   4.640  26.798   0.750
35473W        W  634  34.048   5.925  13.890
35474W        W  635  15.360  33.870  13.234
35475W        W  636  38.311  23.724  12.553
35476W        W  637  10.305  25.642   4.636
35477W        W  638   5.948  13.512  11.936
35478W        W  639  35.098  36.606  14.253
35479W        W  640   1.944  29.150  13.440
35480W        W  641  24.975  14.175  12.522
35481W        W  642  13.198  27.775  13.963
35482W        W  643  15.163  19.196  12.611
35483W        W  644  15.700  19.060  12.640
35484W        W  645  17.281  39.842   2.277
35485W        W  646   7.318   7.809  10.836
35486W        W  647  24.844  15.200   4.113
35487W        W  648   7.926   8.437  13.957
35488W        W  649  19.039  13.342  14.961
35489W        W  650   2.450  30.178   4.229
35490W        W  651  35.643  24.150   0.948
35491W        W  652   0.046  44.305  13.846
35492W        W  653  11.398  36.242  13.886
35493W        W  654  38.584  28.159   4.354
35494W        W  655  18.025  25.545   0.518
35495W        W  656  33.562  42.709   1.794
35496W        W  657  14.448  16.309   3.135
35497W        W  658  17.350  44.273  12.995
35498W        W  659   6.185  16.658  11.970
35499W        W  660   0.895  44.187   0.303
35500W        W  661  29.132  35.490  13.807
35501W        W  662  39.386  13.654   1.681
35502W        W  663  22.549   7.815   3.892
35503W        W  664   5.781  12.895  14.392
35504W        W  665   1.268   6.074   1.526
35505W        W  666  25.204  17.025  11.558
35506W        W  667   5.292  33.525   1.998
35507W        W  668  40.698  10.383  10.474
35508W        W  669   4.283  39.202  12.127
35509W        W  670   7.740   2.736  13.861
35510W        W  671  36.382  17.047   0.390
35511W        W  672  26.307  33.918   0.145
35512W        W  673  25.081  34.998  12.562
35513W        W  674  10.295   5.206   3.727
35514W        W  675  14.357   4.776   2.812
35515W        W  676  19.572  19.506  10.241
35516W        W  677  19.267  14.195   1.483
35517W        W  678  34.043  16.640  11.644
35518W        W  679  41.742  16.334   0.897
35519W        W  680  30.972   7.834  10.698
35520W        W  681  12.112   5.101  14.674
35521W        W  682  42.312  14.769   2.651
35522W        W  683   8.092  23.095   0.442
35523W        W  684  22.189  31.182  10.608
35524W        W  685  30.803   7.216   9.781
35525W        W  686  29.366   6.937  11.717
35526W        W  687  36.536  44.091   1.956
35527W        W  688  40.521  13.187  11.624
35528W        W  689   3.547  30.526   4.606
35529W        W  690  29.065  39.255   3.837
35530W        W  691  10.355  44.483   2.682
35531W        W  692  43.205  44.181  13.407
35532W        W  693  21.930  15.386  10.999
35533W        W  694  15.940  13.421   2.733
35534W        W  695  27.529   1.892  14.521
35535W        W  696  10.354  42.261  10.748
35536W        W  697  38.768  37.173  14.030
35537W        W  698   6.852   0.783   0.063
35538W        W  699  23.625  30.532   1.359
35539W        W  700  30.731  16.687  13.322
35540W        W  701  24.225   9.739   3.395
35541W        W  702  35.737  15.788   2.812
35542W        W  703  39.453  12.931   2.327
35543W        W  704   1.151   9.145  11.533
35544W        W  705  33.129  14.295  10.884
35545W        W  706  17.826  34.872  13.008
35546W        W  707  38.498  32.824  14.403
35547W        W  708  40.424  34.842  11.598
35548W        W  709  14.336  22.180  13.917
35549W        W  710  11.631  37.549  11.895
35550W        W  711   0.694  38.421  14.284
35551W        W  712   2.935  40.806  14.489
35552W        W  713  26.902   6.126  12.746
35553W        W  714  18.838  41.879  10.997
35554W        W  715  43.039  42.019   1.422
35555W        W  716   3.247  21.362  14.335
35556W        W  717   5.356  24.838   3.721
35557W        W  718   1.011  34.094   0.262
35558W        W  719  13.929  37.104  14.415
35559W        W  720  42.461  29.484  11.494
35560W        W  721  40.901   2.406   1.410
35561W        W  722  34.427  31.263  14.219
35562W        W  723  40.305   8.075  10.860
35563W        W  724  10.123  26.247   0.904
35564W        W  725  42.892  29.356  12.588
35565W        W  726   8.192   6.906  12.328
35566W        W  727  42.886  15.294  14.383
35567W        W  728  22.345  19.575  11.636
35568W        W  729   5.789   8.986   4.201
35569W        W  730   8.134  20.719   3.109
35570W        W  731  12.674   8.235  14.854
35571W        W  732  26.257   2.870  14.042
35572W        W  733  15.349  13.777  14.345
35573W        W  734  30.468  25.701   5.018
35574W        W  735  22.419  28.934  11.457
35575W        W  736  16.005  42.459   4.036
35576W        W  737  33.215  16.752   0.404
35577W        W  738   7.815  22.773   0.134
35578W        W  739   4.910  37.914  12.848
35579W        W  740   3.189  31.069   1.808
35580W        W  741  14.754  34.960  10.736
35581W        W  742   3.827   1.820   3.951
35582W        W  743  11.881  35.413  14.921
35583W        W  744  18.494   7.884  11.618
35584W        W  745  44.843   5.361   1.154
35585W        W  746  24.470  40.376   1.843
35586W        W  747   3.513  43.675   4.128
35587W        W  748   7.339   1.830   1.722
35588W        W  749  24.190   3.468   2.672
35589W        W  750   6.437  42.763  14.393
35590W        W  751   9.787  31.516  12.193
35591W        W  752   4.701   5.278   2.252
35592W        W  753  19.504  16.631  14.968
35593W        W  754  19.112  15.770   2.001
35594W        W  755   2.042   5.166   3.724
35595W        W  756  33.994  21.602  12.338
35596W        W  757  27.450   2.823  14.337
35597W        W  758  13.568   4.346  10.471
35598W        W  759  39.007  42.158   4.983
35599W        W  760   1.948  19.860  11.112
35600W        W  761  35.162  23.690  12.013
35601W        W  762   6.406  20.141  13.955
35602W        W  763   9.951  15.655   4.173
35603W        W  764  25.761  31.236   1.137
35604W        W  765  26.900  19.148   0.744
35605W        W  766  25.505  35.624   3.734
35606W        W  767  31.462   1.253   2.876
35607W        W  768  43.833  41.423  11.631
35608W        W  769  14.079  43.022   2.697
35609W        W  770  22.855   9.037   3.291
35610W        W  771  44.176  40.920   2.259
35611W        W  772  10.132   8.281   2.760
35612W        W  773  39.351  30.870   0.211
35613W        W  774  27.037  41.969   1.936
35614W        W  775  35.018  14.220   5.168
35615W        W  776  29.030   1.191  10.681
35616W        W  777  29.252   8.132   0.339
35617W        W  778  43.074  20.661  11.682
35618W        W  779  14.293  40.753   0.019
35619W        W  780   3.179   2.238  13.646
35620W        W  781  32.487   6.896  14.415
35621W        W  782  36.663  27.233  13.937
35622W        W  783  10.734  12.757   0.969
35623W        W  784  25.173  40.996   5.504
35624W        W  785   8.391   7.722   0.050
35625W        W  786  12.141  10.152  10.468
35626W        W  787   2.092   4.775  10.811
35627W        W  788  41.945  17.532  13.430
35628W        W  789  16.037  44.546  14.310
35629W        W  790  28.136   5.293   0.056
35630W        W  791  40.322  17.710   1.469
35631W        W  792  18.511  35.329   4.811
35632W        W  793   8.222  31.946   2.773
35633W        W  794  40.343  35.856   3.575
35634W        W  795  29.587  13.897   2.791
35635W        W  796  19.739  12.053   1.791
35636W        W  797  43.782   4.930   4.507
35637W        W  798  24.592   1.352   3.634
35638W        W  799   8.411  42.015  14.473
35639W        W  800  32.844  31.857   0.772
35640W        W  801  26.588  20.629  11.654
35641W        W  802   6.252   9.112   0.293
35642W        W  803  25.286   6.831   1.203
35643W        W  804  20.221  22.406   1.470
35644W        W  805  40.909  33.301   3.143
35645W        W  806  26.942  18.704   2.138
35646W        W  807  31.439  25.960   1.723
35647W        W  808  26.327  37.609  10.724
35648W        W  809  30.989  43.682   2.130
35649W        W  810  14.804  22.101  10.706
35650W        W  811   9.603  36.422  13.933
35651W        W  812  36.851  40.747   4.634
35652W        W  813  31.560  34.223   1.862
35653W        W  814  10.593  21.981  13.602
35654W        W  815  15.360   0.346  11.656
35655W        W  816  36.634   6.659  11.174
35656W        W  817   7.968  25.730  10.520
35657W        W  818  37.467  37.066   2.553
35658W        W  819  30.142  40.577   4.121
35659W        W  820  26.612  30.776  10.763
35660W        W  821  37.478  12.440  10.686
35661W        W  822  29.574  16.793   1.210
35662W        W  823  38.478  10.868   3.379
35663W        W  824  33.814  42.705  14.298
35664W        W  825  18.054  25.107  14.723
35665W        W  826  13.336  44.041   4.383
35666W        W  827  36.405   4.082  12.855
35667W        W  828  31.456  17.515   4.630
35668W        W  829  42.819  29.184   0.437
35669W        W  830  39.563  20.988   2.648
35670W        W  831  44.882   9.098   0.501
35671W        W  832   2.058  14.354   4.435
35672W        W  833  26.951   8.821   3.112
35673W        W  834  33.488  21.706  12.576
35674W        W  835  13.331   5.469  14.780
35675W        W  836  31.630  38.911   2.893
35676W        W  837   0.972   3.202   3.167
35677W        W  838   6.075  38.437  14.585
35678W        W  839  19.276  18.695  14.467
35679W        W  840  29.935  26.607   0.806
35680W        W  841  37.066   2.858   4.911
35681W        W  842  15.850  13.659   3.185
35682W        W  843  34.025   0.010   1.830
35683W        W  844  12.746   4.874   0.959
35684W        W  845  28.626   9.923  10.559
35685W        W  846  31.555  27.270  13.852
35686W        W  847  25.579  10.604   2.265
35687W        W  848   8.363   9.161   4.253
35688W        W  849  19.193  43.385   1.294
35689W        W  850  22.751   0.981   0.828
35690W        W  851  11.429  28.980  11.988
35691W        W  852  17.311  34.488  12.447
35692W        W  853  41.260  36.688  10.569
35693W        W  854  10.787  25.767  12.553
35694W        W  855  10.152  31.129   5.077
35695W        W  856  26.588  41.417   4.082
35696W        W  857  36.936  19.300  13.293
35697W        W  858  32.130  28.923  10.658
35698W        W  859   3.805  30.899  14.832
35699W        W  860  14.623  17.536  11.983
35700W        W  861   7.131  11.906  13.813
35701W        W  862  10.780   9.188   4.224
35702W        W  863  24.039  44.872  11.167
35703W        W  864  32.802  36.393   4.493
35704W        W  865  44.797  18.052  13.659
35705W        W  866  26.718   1.423  12.929
35706W        W  867  18.778  33.298   1.004
35707W        W  868  44.547  31.125   0.154
35708W        W  869  11.162  29.559  11.924
35709W        W  870   5.786  32.420   4.032
35710W        W  871   5.416  19.510  10.901
35711W        W  872  27.405  25.115   2.293
35712W        W  873  39.837  12.997   4.017
35713W        W  874  30.605  17.887   3.708
35714W        W  875  24.973  24.719   1.413
35715W        W  876   4.964  35.966   3.107
35716W        W  877  27.157  18.273   3.256
35717W        W  878  40.821   2.945   3.191
35718W        W  879  39.721   6.701  11.817
35719W        W  880   7.287   5.953  10.782
35720W        W  881   5.914  37.722  14.970
35721W        W  882   6.983  24.642   0.888
35722W        W  883  35.592  11.172   4.698
35723W        W  884  13.883  17.136  11.501
35724W        W  885  40.221  20.813  11.581
35725W        W  886  21.262  27.213  13.304
35726W        W  887  30.470  17.641  13.572
35727W        W  888   8.817  42.995  14.792
35728W        W  889   7.246  38.841   1.733
35729W        W  890   0.202  37.219  11.218
35730W        W  891  30.474  15.789   2.024
35731W        W  892  31.580   5.244   3.244
35732W        W  893  23.724  24.990   3.727
35733W        W  894  41.879   9.392  13.125
35734W        W  895  25.146  26.131  12.617
35735W        W  896  41.323  10.212  12.938
35736W        W  897   1.339  43.161   1.246
35737W        W  898  37.664   8.223   0.653
35738W        W  899  32.503   9.085  12.450
35739W        W  900   8.703   2.765   1.675
35740W        W  901   5.819  18.515  10.574
35741W        W  902  20.472  28.669   0.848
35742W        W  903  16.635  11.802   2.529
35743W        W  904  25.919  42.673  14.915
35744W        W  905   4.899  36.181  12.039
35745W        W  906  42.556  40.201  11.995
35746W        W  907  17.039  41.084   0.603
35747W        W  908  38.309  41.506  10.567
35748W        W  909  27.990   0.319   2.877
35749W        W  910  39.961  31.431   1.425
35750W        W  911  18.467  34.800  14.913
35751W        W  912  35.598  31.817   3.928
35752W        W  913   1.939  41.090  11.763
35753W        W  914  30.102   7.678  14.451
35754W        W  915  31.095  20.230   1.286
35755W        W  916  38.093  18.657  13.426
35756W        W  917  12.012   3.738   3.696
35757W        W  918  44.071   5.150   0.332
35758W        W  919   1.539  38.527  13.007
35759W        W  920   5.420  17.033   2.335
35760W        W  921  38.591  31.623   2.713
35761W        W  922  38.833   7.445  12.483
35762W        W  923  28.167  31.100   0.879
35763W        W  924  19.259  17.020  11.567
35764W        W  925  12.345  40.136   1.677
35765W        W  926  22.053  29.869   1.675
35766W        W  927  30.448   5.574  11.210
35767W        W  928   6.467   3.424  11.949
35768W        W  929  13.313  26.884   0.988
35769W        W  930  37.966  29.394  14.349
35770W        W  931  42.883  18.401  11.358
35771W        W  932  30.087  27.591  11.664
35772W        W  933  13.103  34.480   1.794
35773W        W  934  43.949  24.715   3.825
35774W        W  935  23.290  26.802  10.759
35775W        W  936   2.910  32.951   0.807
35776W        W  937  41.837  38.148  10.743
35777W        W  938   1.477   6.006  12.792
35778W        W  939  22.642   7.376   3.621
35779W        W  940   5.231  24.570   2.335
35780W        W  941  14.127  27.726  14.307
35781W        W  942  18.955  35.932  13.914
35782W        W  943  27.481  27.997  13.824
35783W        W  944  36.065   9.889   4.159
35784W        W  945   2.907  10.200  10.113
35785W        W  946   1.892   1.543   4.537
35786W        W  947   9.830  41.777   0.232
35787W        W  948   9.825   2.530   0.277
35788W        W  949  34.328  43.368   3.141
35789W        W  950  31.545  25.702   0.803
35790W        W  951  37.074   4.224   4.605
35791W        W  952   6.940  15.062  13.011
35792W        W  953   7.455   9.869   4.696
35793W        W  954  14.194  26.467   3.369
35794W        W  955  31.950  20.966   0.600
35795W        W  956  18.052  32.058   1.809
35796W        W  957  17.531  36.587   3.834
35797W        W  958  36.469  14.409  12.020
35798W        W  959  22.320  20.303   2.352
35799W        W  960  31.980   5.675   1.179
35800W        W  961  35.312  38.545  14.483
35801W        W  962  31.640  19.245   2.566
35802W        W  963   8.177  12.287  14.314
35803W        W  964  44.679  43.346   4.135
35804W        W  965  33.400  16.128   2.738
35805W        W  966  34.307  30.542   1.627
35806W        W  967   2.147  20.851   3.234
35807W        W  968  13.115  34.131   2.281
35808W        W  969  38.859   6.748  11.464
35809W        W  970  17.027   6.343   1.358
35810W        W  971  17.490  17.716  14.341
35811W        W  972  15.258  41.553   0.423
35812W        W  973  39.601  36.684  12.558
35813W        W  974  12.941  19.724   0.753
35814W        W  975  34.643  10.733  11.951
35815W        W  976   6.706  34.157   0.469
35816W        W  977  19.562  14.806   0.153
35817W        W  978  26.430  23.573  13.965
35818W        W  979   5.412  32.926  10.966
35819W        W  980  33.227  13.285   1.072
35820W        W  981   6.396  24.228  12.927
35821W        W  982  11.581  27.173   2.280
35822W        W  983  14.196  29.731  13.562
35823W        W  984  17.855  12.967   4.085
35824W        W  985   0.730  23.493   0.939
35825W        W  986  33.274  30.581  12.336
35826W        W  987  43.508  30.426  13.399
35827W        W  988   6.205  37.930  13.375
35828W        W  989   1.890  43.586  11.141
35829W        W  990  25.994  24.508  12.469
35830W        W  991  15.657  33.125  10.250
35831W        W  992  32.905  44.345   0.361
35832W        W  993  30.989  37.944   1.486
35833W        W  994  12.919   1.358   0.395
35834W        W  995  13.787  26.994  14.810
35835W        W  996  31.180  38.510  13.354
35836W        W  997  24.184   1.629  12.436
35837W        W  998  29.921  22.174   1.500
35838W        W  999  26.575  40.647   3.094
35839W        W 1000  16.796  17.681   1.732
35840W        W 1001   5.103  30.017  12.870
35841W        W 1002  23.817  11.766   3.646
35842W        W 1003  11.075  19.679   2.292
35843W        W 1004  29.491  33.549  10.407
35844W        W 1005   2.097  44.490   0.272
35845W        W 1006  20.622  20.485  11.982
35846W        W 1007   6.607  25.670   1.410
35847W        W 1008  24.773   8.938  13.383
35848W        W 1009   4.847   8.242  14.489
35849W        W 1010  31.985  14.125   1.192
35850W        W 1011   3.730  29.603  13.569
35851W        W 1012  25.140   3.065   2.447
35852W        W 1013  24.098  37.034   4.333
35853W        W 1014  29.976   3.234  14.597
35854W        W 1015  30.862  33.655   2.387
35855W        W 1016  26.604  36.958  13.873
35856W        W 1017  21.649  19.180   2.463
35857W        W 1018  11.737  20.836   2.659
35858W        W 1019  31.528  24.756  11.998
35859W        W 1020  44.119  42.372   4.747
35860W        W 1021  30.907  16.334  13.916
35861W        W 1022  20.535  34.462   3.164
35862W        W 1023   7.495  29.053   2.669
35863W        W 1024  41.575  28.223  13.137
35864W        W 1025  10.281  11.422  11.641
35865W        W 1026   9.753   9.151  11.981
35866W        W 1027  24.463  20.154  12.936
35867W        W 1028  14.271   2.905   1.829
35868W        W 1029  43.907   5.888   2.419
35869W        W 1030  10.669  11.341   2.787
35870W        W 1031  37.768  18.853   2.167
35871W        W 1032  24.170  31.988  11.747
35872W        W 1033  40.818   0.246   2.827
35873W        W 1034  33.209  17.106  13.346
35874W        W 1035  44.703  35.437   3.217
35875W        W 1036  22.352  27.124   4.051
35876W        W 1037   6.844  14.194  13.007
35877W        W 1038  20.744  15.618  10.637
35878W        W 1039   1.875  19.802  13.092
35879W        W 1040  20.692  41.892  12.924
35880W        W 1041   8.911  10.831   4.059
35881W        W 1042  36.620  19.650  11.594
35882W        W 1043  33.726  10.500  14.748
35883W        W 1044  28.700  19.067   4.237
35884W        W 1045   3.251  10.343  12.741
35885W        W 1046  23.446  41.280  12.018
35886W        W 1047  44.175  36.986  12.122
35887W        W 1048  17.743  26.106   4.136
35888W        W 1049   8.920  31.614   0.444
35889W        W 1050   8.671  33.916  13.005
35890W        W 1051  40.542  38.672  10.394
35891W        W 1052  10.354   5.389   0.985
35892W        W 1053  40.768   0.311   1.950
35893W        W 1054   7.370   1.311   1.757
35894W        W 1055  25.683  37.701  11.127
35895W        W 1056   3.259  29.981  11.635
35896W        W 1057  12.854  21.809   4.193
35897W        W 1058   3.475  29.139  13.478
35898W        W 1059   6.694   6.431  12.912
35899W        W 1060  25.218  16.570  13.005
35900W        W 1061  20.044   6.843  11.624
35901W        W 1062  28.776   8.910   2.292
35902W        W 1063   9.129  30.994   4.648
35903W        W 1064  29.065  14.759  14.142
35904W        W 1065  32.063   9.782  12.055
35905W        W 1066   2.900  22.071  14.060
35906W        W 1067  14.078  44.355  10.683
35907W        W 1068  17.642  35.105   0.416
35908W        W 1069  44.832  41.954   1.801
35909W        W 1070   4.651  11.551  13.173
35910W        W 1071  26.791  21.464  13.050
35911W        W 1072  15.889  38.664   5.527
35912W        W 1073  38.608  27.566   4.962
35913W        W 1074  10.398  15.138   0.367
35914W        W 1075  20.063   3.983   4.792
35915W        W 1076  23.573  10.051   1.435
35916W        W 1077  29.642  19.098   3.548
35917W        W 1078  26.003   1.394  14.961
35918W        W 1079  22.657  33.580   3.377
35919W        W 1080  15.205  29.926  10.672
35920W        W 1081  41.316  38.358   4.403
35921W        W 1082   8.801  40.948  11.289
35922W        W 1083  18.140   6.805   4.866
35923W        W 1084  44.026   7.021  10.965
35924W        W 1085  42.355  31.145   1.386
35925W        W 1086  29.692  33.289  12.503
35926W        W 1087  38.805  44.475   3.185
35927W        W 1088  23.460  42.816   3.672
35928W        W 1089  26.978  25.939  11.615
35929W        W 1090   2.011  41.078   1.645
35930W        W 1091   1.117  42.533  14.899
35931W        W 1092  36.418  38.733   1.456
35932W        W 1093   3.836   0.301  10.749
35933W        W 1094  30.741   1.403  12.567
35934W        W 1095   3.324  13.082   3.081
35935W        W 1096  40.490  43.068   5.209
35936W        W 1097  31.164  17.247   4.995
35937W        W 1098  30.906   2.590   4.146
35938W        W 1099  17.785  40.496   2.801
35939W        W 1100  33.341   8.645   1.814
35940W        W 1101  27.615  41.579   3.638
35941W        W 1102  23.044  21.171   1.006
35942W        W 1103  29.389  10.516   4.076
35943W        W 1104  26.293  37.114   2.144
35944W        W 1105  35.637  22.264   3.028
35945W        W 1106  44.546  38.655  11.643
35946W        W 1107   6.882   6.367  11.288
35947W        W 1108  37.456  33.913  14.132
35948W        W 1109  31.739  15.008  14.544
35949W        W 1110  20.956  29.027  14.801
35950W        W 1111  14.179   8.733   1.721
35951W        W 1112  26.614   9.646   1.976
35952W        W 1113   1.330  41.693  11.229
35953W        W 1114  13.455  16.154  11.138
35954W        W 1115  24.964   6.481   0.921
35955W        W 1116  35.752  21.321   3.462
35956W        W 1117  42.154   7.020  12.369
35957W        W 1118  20.711  34.179   0.290
35958W        W 1119  22.615  11.688  14.564
35959W        W 1120  29.900  20.724  12.412
35960W        W 1121  19.215   7.907   4.136
35961W        W 1122  13.553  38.676  11.113
35962W        W 1123  37.291  22.604   4.626
35963W        W 1124  30.599  28.681  14.531
35964W        W 1125  28.947  36.040  12.946
35965W        W 1126  18.939  12.868  14.498
35966W        W 1127  32.935  36.249  14.468
35967W        W 1128  10.246  38.045  13.395
35968W        W 1129   3.787  40.095  14.882
35969W        W 1130  29.514  42.044   1.414
35970W        W 1131  35.474  19.294  10.694
35971W        W 1132   9.807  16.803   2.318
35972W        W 1133  10.611  28.189  12.585
35973W        W 1134  34.002  41.633   3.674
35974W        W 1135  28.442  13.169   4.624
35975W        W 1136  20.479  20.213   1.197
35976W        W 1137  19.067  15.474   4.577
35977W        W 1138   2.076  14.152  11.982
35978W        W 1139  24.434  25.617   2.368
35979W        W 1140  32.038  20.588  12.900
35980W        W 1141  41.112   0.928  12.505
35981W        W 1142  36.832  20.960  12.995
35982W        W 1143  39.865   6.445   1.984
35983W        W 1144  33.976  35.439  10.853
35984W        W 1145  44.229   0.709   3.929
35985W        W 1146  42.296   2.327  13.416
35986W        W 1147  19.462  30.116  11.500
35987W        W 1148  14.542  37.152  11.209
35988W        W 1149   9.863  44.813   2.316
35989W        W 1150  32.505   3.665   4.197
35990W        W 1151  21.743  30.553   4.174
35991W        W 1152  40.891  42.987   1.746
35992W        W 1153  40.930  19.098  13.932
35993W        W 1154   7.184  41.510   2.161
35994W        W 1155  40.753  41.822  12.110
35995W        W 1156  30.340  33.465  14.762
35996W        W 1157  41.959  15.720   1.705
35997W        W 1158  22.113  10.695   3.110
35998W        W 1159  25.750   3.381  12.102
35999W        W 1160   9.140  39.372  11.060
36000W        W 1161  13.766  25.980  11.154
36001W        W 1162   9.318  11.118  11.546
36002W        W 1163   8.422  24.257   4.273
36003W        W 1164  11.179   8.297   3.248
36004W        W 1165  41.344  13.310   2.656
36005W        W 1166  29.641  42.264   4.803
36006W        W 1167   7.792  26.586   0.236
36007W        W 1168  25.167   0.280  13.594
36008W        W 1169  10.356  44.646  14.380
36009W        W 1170  34.457  30.394  13.002
36010W        W 1171   9.149  35.420   1.884
36011W        W 1172  39.046  30.471  11.002
36012W        W 1173  10.466  29.950   0.269
36013W        W 1174  35.342  35.476   0.791
36014W        W 1175  34.214  13.425  11.577
36015W        W 1176   2.385  34.085   2.304
36016W        W 1177  35.403  41.517   1.946
36017W        W 1178  27.429  37.888  12.241
36018W        W 1179  21.701  39.109  10.235
36019W        W 1180  24.548  32.914  12.656
36020W        W 1181  10.774  19.589   3.956
36021W        W 1182  26.081  29.042   4.743
36022W        W 1183  32.040  12.312  10.573
36023W        W 1184  39.875  14.525  13.746
36024W        W 1185  24.358  19.659  12.491
36025W        W 1186  20.777  23.577   1.769
36026W        W 1187   8.254  28.314   3.628
36027W        W 1188  31.122  29.076   3.397
36028W        W 1189  22.792  36.828  13.468
36029W        W 1190  18.279  39.870   2.211
36030W        W 1191  36.145  16.020   3.870
36031W        W 1192  33.630  32.704  10.636
36032W        W 1193  38.531  44.855  14.391
36033W        W 1194  32.904  16.563   4.737
36034W        W 1195  41.228  39.600  13.402
36035W        W 1196  43.102  42.987  14.431
36036W        W 1197  29.438   2.500   1.314
36037W        W 1198  39.785   9.625   2.218
36038W        W 1199   5.788  43.313  10.523
36039W        W 1200   0.520  28.116   2.257
36040W        W 1201  44.377  42.113   4.364
36041W        W 1202   8.510   1.662   4.065
36042W        W 1203  30.761  25.143  12.623
36043W        W 1204  36.514  28.045   2.487
36044W        W 1205  44.580  41.465   2.806
36045W        W 1206   9.168  31.452  11.569
36046W        W 1207  35.222  22.543   2.746
36047W        W 1208  29.179  40.856   4.743
36048W        W 1209  22.723  37.620   2.280
36049W        W 1210   5.382  42.516   1.640
36050W        W 1211  17.301   9.395   0.690
36051W        W 1212  29.183  21.617  11.550
36052W        W 1213  23.700  34.283  12.886
36053W        W 1214  25.024  31.922   1.558
36054W        W 1215  21.984   2.024   4.326
36055W        W 1216  19.276   8.381   1.904
36056W        W 1217  27.954  35.339   2.271
36057W        W 1218  34.627  42.320  11.539
36058W        W 1219  34.095  40.384  14.349
36059W        W 1220  28.918   0.038  12.480
36060W        W 1221  26.196  27.652   3.204
36061W        W 1222  13.828   2.820  13.552
36062W        W 1223  40.643  38.378   3.755
36063W        W 1224   3.453  10.813   3.056
36064W        W 1225  40.636  12.135  11.077
36065W        W 1226  13.052   1.420  12.081
36066W        W 1227   6.472  23.773   2.317
36067W        W 1228   6.675   6.731   2.289
36068W        W 1229  30.158  22.931  12.141
36069W        W 1230  26.568  16.271   2.465
36070W        W 1231  31.454  11.630  14.010
36071W        W 1232  38.658  42.013  11.117
36072W        W 1233  19.781   1.134  12.439
36073W        W 1234  26.490  30.887  13.541
36074W        W 1235  37.330  20.822  13.005
36075W        W 1236  21.104   0.967  13.068
36076W        W 1237  41.582  26.943   4.272
36077W        W 1238   9.823  16.643   0.638
36078W        W 1239  10.431  34.183   0.321
36079W        W 1240  44.346   3.843  12.081
36080W        W 1241  31.190   5.389   1.308
36081W        W 1242   0.828  25.489  11.981
36082W        W 1243  44.515   1.925   2.700
36083W        W 1244  15.961  42.472   2.812
36084W        W 1245  17.699   8.314  10.694
36085W        W 1246  25.354  29.026  13.783
36086W        W 1247  14.024  12.285   3.104
36087W        W 1248  35.887  35.043  14.756
36088W        W 1249  17.213  32.660  12.348
36089W        W 1250  19.564  34.006   0.799
36090W        W 1251   1.209  41.430   1.911
36091W        W 1252  33.883  40.015   2.792
36092W        W 1253   6.980  24.896   1.769
36093W        W 1254  17.291  22.957  12.457
36094W        W 1255  10.497  41.443   3.839
36095W        W 1256  36.468  28.910  11.522
36096W        W 1257  24.297   2.776   3.360
36097W        W 1258  15.650  33.904   2.453
36098W        W 1259   2.071   8.784  14.391
36099W        W 1260  16.129  16.265  13.444
36100W        W 1261  42.208  12.321   3.033
36101W        W 1262  38.318  38.066   3.399
36102W        W 1263   1.503  40.349   1.740
36103W        W 1264  19.566  28.131   1.381
36104W        W 1265  28.034  36.031  14.349
36105W        W 1266  13.950  28.642   4.598
36106W        W 1267   1.302  39.398   3.859
36107W        W 1268  40.622  35.914  10.564
36108W        W 1269  32.268  39.016   2.986
36109W        W 1270   9.616   5.921   0.309
36110W        W 1271  34.911  33.904   1.922
36111W        W 1272   5.481   2.976   2.807
36112W        W 1273  31.979  16.934  12.863
36113W        W 1274  14.794  28.978   0.698
36114W        W 1275  18.306   6.472  10.957
36115W        W 1276  29.565  40.655  10.249
36116W        W 1277   9.888   9.414  11.573
36117W        W 1278  32.924  10.693   1.413
36118W        W 1279  41.129  12.510  14.010
36119W        W 1280   2.939   3.840   1.645
36120W        W 1281  15.581  15.258  12.598
36121W        W 1282  23.090   3.785   2.909
36122W        W 1283  16.216   5.238  13.553
36123W        W 1284  36.544   7.353  12.960
36124W        W 1285  28.646  18.960   1.917
36125W        W 1286  21.625  29.536   1.861
36126W        W 1287   4.490  18.495   2.768
36127W        W 1288  23.148  20.126   0.200
36128W        W 1289   8.697  41.304   4.614
36129W        W 1290  36.499  20.576   2.136
36130W        W 1291  21.925  21.188   2.283
36131W        W 1292   1.176  29.877  11.609
36132W        W 1293  37.364   4.344   2.269
36133W        W 1294  10.189  38.386  14.825
36134W        W 1295  16.140  12.791   2.408
36135W        W 1296  17.591  30.596   1.886
36136W        W 1297  26.505  40.465   3.564
36137W        W 1298   4.419  29.221  12.256
36138W        W 1299  39.147   5.433   3.774
36139W        W 1300  24.596  10.418  11.625
36140W        W 1301   0.637  16.156  11.573
36141W        W 1302  29.183   4.863  10.782
36142W        W 1303  23.956  24.839   9.908
36143W        W 1304  40.767  18.666   0.756
36144W        W 1305  15.262  12.775  11.332
36145W        W 1306  10.309  20.519   1.231
36146W        W 1307   3.910  29.540   2.841
36147W        W 1308  44.375  40.908   0.258
36148W        W 1309   2.723  36.840  13.493
36149W        W 1310   0.879  15.115   0.021
36150W        W 1311  38.904  29.912   0.322
36151W        W 1312  18.521  34.412  11.265
36152W        W 1313  22.970   5.114  11.835
36153W        W 1314  22.334  13.774  11.344
36154W        W 1315  26.681  38.615   0.413
36155W        W 1316  35.820   8.931   3.821
36156W        W 1317   0.180  41.000   3.232
36157W        W 1318  43.448  12.190  10.933
36158W        W 1319  43.356  14.546   3.439
36159W        W 1320  41.425   4.435   3.624
36160W        W 1321   5.019   1.622  14.311
36161W        W 1322  32.972  44.728  12.497
36162W        W 1323  11.719  19.847  10.578
36163W        W 1324  13.678  24.246   0.301
36164W        W 1325  35.572  27.149  11.720
36165W        W 1326  10.344  31.203  11.057
36166W        W 1327   3.912  18.427  14.693
36167W        W 1328   6.372  21.412  12.559
36168W        W 1329  18.104  19.961  12.150
36169W        W 1330  28.055  35.758   0.270
36170W        W 1331  43.391   6.260   1.264
36171W        W 1332  39.972   4.537  12.504
36172W        W 1333  24.416  27.020   1.358
36173W        W 1334  27.399   9.563   2.450
36174W        W 1335   3.437  14.066   1.299
36175W        W 1336  32.566  18.743   1.500
36176W        W 1337  10.859  12.596   1.799
36177W        W 1338   9.396  38.889  11.070
36178W        W 1339   6.770  43.989  13.857
36179W        W 1340   7.859  19.095   0.019
36180W        W 1341  25.108  43.807  14.905
36181W        W 1342  21.255   3.324   3.408
36182W        W 1343  31.192  35.857   1.358
36183W        W 1344  14.038  28.995  10.761
36184W        W 1345  33.390   1.712  14.381
36185W        W 1346  12.475   9.388  11.125
36186W        W 1347  14.126  19.667   3.820
36187W        W 1348  29.023  42.540   2.131
36188W        W 1349  23.532   1.438   4.675
36189W        W 1350  40.846   5.533  11.078
36190W        W 1351   1.186   6.820   0.400
36191W        W 1352  34.182  44.943   4.583
36192W        W 1353  24.864  24.926   0.475
36193W        W 1354  28.408  15.191   3.333
36194W        W 1355  16.654  41.687   4.151
36195W        W 1356   3.164  40.631   1.362
36196W        W 1357  32.493  18.299   4.860
36197W        W 1358  34.763  30.052  12.079
36198W        W 1359  35.206  39.409  12.850
36199W        W 1360   2.852  44.939   4.952
36200W        W 1361  21.621  44.071  12.028
36201W        W 1362  13.880  24.973   2.267
36202W        W 1363  10.026  26.025   1.600
36203W        W 1364  38.868  28.019   1.650
36204W        W 1365   7.589  40.063   1.751
36205W        W 1366   3.436  27.358   3.533
36206W        W 1367  16.111  24.608   2.260
36207W        W 1368  12.694  19.832  10.626
36208W        W 1369  30.982  23.190   3.748
36209W        W 1370  37.787  40.401  14.298
36210W        W 1371  16.327  15.911   3.903
36211W        W 1372  39.902   5.851  13.261
36212W        W 1373  25.060  21.546   2.686
36213W        W 1374   4.938  32.753   1.442
36214W        W 1375  33.197  25.046   0.261
36215W        W 1376   4.786  37.862   0.878
36216W        W 1377   0.273  31.153   4.640
36217W        W 1378   7.765   1.762  13.055
36218W        W 1379  23.664  29.520   2.192
36219W        W 1380   1.189  29.256  11.009
36220W        W 1381  15.308  35.901   0.413
36221W        W 1382  42.220  15.725   1.256
36222W        W 1383  33.657  36.992   0.390
36223W        W 1384  28.461  43.616  13.233
36224W        W 1385  21.660  34.991   4.595
36225W        W 1386   3.683  39.984  12.151
36226W        W 1387  32.418  43.190   4.548
36227W        W 1388  26.517   0.219  11.521
36228W        W 1389  28.124  19.076   2.689
36229W        W 1390   1.472  26.718   4.511
36230W        W 1391  33.011   9.118  12.262
36231W        W 1392  44.595  12.159  14.099
36232W        W 1393   3.942  13.308   5.419
36233W        W 1394  43.086  19.668   3.515
36234W        W 1395  28.599  40.052   4.112
36235W        W 1396  38.483  10.926  12.891
36236W        W 1397  24.674  21.215  13.958
36237W        W 1398  10.217  22.144   9.717
36238W        W 1399  33.451  35.559  10.077
36239W        W 1400  12.904  19.155   0.810
36240W        W 1401  38.348   6.376   4.456
36241W        W 1402  28.980  40.054   5.575
36242W        W 1403  11.930   5.549  12.042
36243W        W 1404  20.316  29.514  11.598
36244W        W 1405  18.991  39.305   2.126
36245W        W 1406  12.725  20.425   2.782
36246W        W 1407  35.848  22.483  14.819
36247W        W 1408   0.132  20.833  12.975
36248W        W 1409  18.757  23.655   4.533
36249W        W 1410  14.405  40.372   0.355
36250W        W 1411   2.310  15.887  10.152
36251W        W 1412  24.177  39.907  12.127
36252W        W 1413  41.654   6.292   2.846
36253W        W 1414  38.556  36.353   2.603
36254W        W 1415   8.683  33.514   1.641
36255W        W 1416  28.505  29.509  14.306
36256W        W 1417  40.993  21.239  12.455
36257W        W 1418  12.395  33.796   0.158
36258W        W 1419  44.476  24.603  13.743
36259W        W 1420   5.109  13.316   4.659
36260W        W 1421  41.749  37.433   1.973
36261W        W 1422  23.578  11.616   3.208
36262W        W 1423  12.270  30.667  12.531
36263W        W 1424  40.259  12.136  12.015
36264W        W 1425  26.005  12.528   3.248
36265W        W 1426  17.346  17.656  13.812
36266W        W 1427  34.040  29.703  14.433
36267W        W 1428  42.724  15.814   1.249
36268W        W 1429   1.699  16.204  12.884
36269W        W 1430  11.764   5.649   1.347
36270W        W 1431  31.007  42.664  14.358
36271W        W 1432  39.984  10.143   3.087
36272W        W 1433  14.762  37.388  10.757
36273W        W 1434  20.883   5.261  13.201
36274W        W 1435   9.509  27.962   3.333
36275W        W 1436  43.414   8.988  12.041
36276W        W 1437  30.943  17.173  13.304
36277W        W 1438  36.351  18.761   3.706
36278W        W 1439   1.409  13.716  14.407
36279W        W 1440  36.313   2.813  12.496
36280W        W 1441   6.180  42.016   1.282
36281W        W 1442  29.600  26.437  12.033
36282W        W 1443  39.967  23.558   0.998
36283W        W 1444  15.993   4.210  12.257
36284W        W 1445  42.996  24.378   4.288
36285W        W 1446  25.398  17.711   1.004
36286W        W 1447  25.268  24.492  11.938
36287W        W 1448  32.605   6.733   2.222
36288W        W 1449  15.025  30.070  12.367
36289W        W 1450  18.451  16.590  11.798
36290W        W 1451  32.712  30.071   0.369
36291W        W 1452   8.288  22.819   4.109
36292W        W 1453  32.153  37.432   1.452
36293W        W 1454  37.630  12.841  14.459
36294W        W 1455  11.205  11.541   2.018
36295W        W 1456  20.840  32.128   3.291
36296W        W 1457   3.413   9.907   4.290
36297W        W 1458  10.752  24.026   0.895
36298W        W 1459  24.219  16.747   1.488
36299W        W 1460   2.672  35.884   3.857
36300W        W 1461  13.193  31.371  12.454
36301W        W 1462  25.254   5.673  12.089
36302W        W 1463  34.545   8.135   0.831
36303W        W 1464  42.281  24.452   3.794
36304W        W 1465   3.972  19.220  12.035
36305W        W 1466  42.270  27.654  13.008
36306W        W 1467   8.834  35.855   1.832
36307W        W 1468   4.125  36.993  11.609
36308W        W 1469   8.006   2.052  11.526
36309W        W 1470  26.471  35.085  12.041
36310W        W 1471  15.786  32.470   4.208
36311W        W 1472  23.060  36.020   1.615
36312W        W 1473  37.034  28.488   3.771
36313W        W 1474   6.300  38.809   3.936
36314W        W 1475  40.233  40.253  11.739
36315W        W 1476  32.677  13.103   2.355
36316W        W 1477  39.997  38.827   0.640
36317W        W 1478  27.723  19.347   4.077
36318W        W 1479  12.927  30.423  11.260
36319W        W 1480  32.674  29.615   2.887
36320W        W 1481  37.805  27.495   0.350
36321W        W 1482  25.008   2.520  13.509
36322W        W 1483  44.731  21.580  12.958
36323W        W 1484   7.522  44.363   3.997
36324W        W 1485  37.308  15.814  11.576
36325W        W 1486   1.011   8.902   4.142
36326W        W 1487   5.199   5.708  11.180
36327W        W 1488  30.011  32.666   4.310
36328W        W 1489  26.069  36.887  14.245
36329W        W 1490  42.777  37.796  12.152
36330W        W 1491  19.232   6.768  12.886
36331W        W 1492   6.077  10.841   2.343
36332W        W 1493   8.936  13.499  14.958
36333W        W 1494   9.663   6.930   2.326
36334W        W 1495  32.076   4.012  11.910
36335W        W 1496   9.672  13.635   1.282
36336W        W 1497  16.314  24.692   4.152
36337W        W 1498  27.670  23.479  13.381
36338W        W 1499  39.023   1.107   2.075
36339W        W 1500  20.534  24.985  13.440
36340W        W 1501  40.215  41.256  13.606
36341W        W 1502  31.137   3.146   2.118
36342W        W 1503  31.876  38.647  10.462
36343W        W 1504  21.519  27.066   0.989
36344W        W 1505  38.598   4.259   2.437
36345W        W 1506  13.639   4.474  13.757
36346W        W 1507  31.535  31.776   1.447
36347W        W 1508  20.003   3.927   1.214
36348W        W 1509  43.529  25.925   1.410
36349W        W 1510   9.111  44.416   3.247
36350W        W 1511   1.908  23.236   4.290
36351W        W 1512  43.247  25.456   2.313
36352W        W 1513  30.081  35.096   4.596
36353W        W 1514  44.374   2.805  12.005
36354W        W 1515   4.679  41.417   4.200
36355W        W 1516  38.293  44.684  14.830
36356W        W 1517  29.100  15.449   4.906
36357W        W 1518  26.407  38.838   1.237
36358W        W 1519  11.215   4.222  14.316
36359W        W 1520  38.265  16.354  14.021
36360W        W 1521  37.446  41.234   1.182
36361W        W 1522   9.513  14.991   3.807
36362W        W 1523   4.704  25.806   2.534
36363W        W 1524  20.963  26.289   4.200
36364W        W 1525  17.190  13.420  11.189
36365W        W 1526   9.848  29.269   0.168
36366W        W 1527  17.871  20.832   4.088
36367W        W 1528   2.499  42.908  13.247
36368W        W 1529   7.748  24.538   1.389
36369W        W 1530   8.438  12.103  14.735
36370W        W 1531   8.042   4.105  11.054
36371W        W 1532  29.908  21.973  11.164
36372W        W 1533  29.592  31.207   1.356
36373W        W 1534  25.221  30.729  10.253
36374W        W 1535  31.607   6.410   2.331
36375W        W 1536  30.569  35.885  14.095
36376W        W 1537   1.716  38.867  14.969
36377W        W 1538  13.238  40.011  13.778
36378W        W 1539  29.870   7.226  11.668
36379W        W 1540  35.946   6.480  11.659
36380W        W 1541  31.995  38.974  10.881
36381W        W 1542  44.501  26.846   1.937
36382W        W 1543   2.465   6.120   1.916
36383W        W 1544  41.704  19.131   0.980
36384W        W 1545  38.068   6.951  11.970
36385W        W 1546  31.883  27.451   1.886
36386W        W 1547  12.433   2.302   4.761
36387W        W 1548  19.614  12.336  14.929
36388W        W 1549  25.648   6.670   2.785
36389W        W 1550   9.683  22.474   4.202
36390W        W 1551  23.904  18.454   0.399
36391W        W 1552  39.941   1.018   0.403
36392W        W 1553  23.030  39.303  10.354
36393W        W 1554  26.653  22.323  13.395
36394W        W 1555  40.275  34.179  11.021
36395W        W 1556   3.909  31.177   2.466
36396W        W 1557  11.194  41.022   2.216
36397W        W 1558  11.845  26.301  10.265
36398W        W 1559  11.749  10.203   2.737
36399W        W 1560   8.876  18.962  12.543
36400W        W 1561  37.413  11.083   1.373
36401W        W 1562  19.462  16.171   1.789
36402W        W 1563  40.649  27.668   3.212
36403W        W 1564  26.414   1.797  13.463
36404W        W 1565  12.813  27.580   0.747
36405W        W 1566  16.578  22.115   4.052
36406W        W 1567  29.078  26.804   4.853
36407W        W 1568  41.925   4.012  11.330
36408W        W 1569  28.166  32.356  11.245
36409W        W 1570  11.677   9.364  14.786
36410W        W 1571  12.274  22.311  13.436
36411W        W 1572  23.219  21.200   2.679
36412W        W 1573  11.131   4.850  10.060
36413W        W 1574  21.852  42.765   0.244
36414W        W 1575  15.695   0.989   4.211
36415W        W 1576  32.614  38.596   2.211
36416W        W 1577   1.416  38.519   3.516
36417W        W 1578  27.524  32.903   1.728
36418W        W 1579  37.786  37.902  13.571
36419W        W 1580  13.690   1.512   0.812
36420W        W 1581  29.338  12.107  12.445
36421W        W 1582   7.052  10.131   0.163
36422W        W 1583  35.630   7.680  14.876
36423W        W 1584  16.572   5.699  10.618
36424W        W 1585  34.396  24.575   0.364
36425W        W 1586  22.859  35.392   0.105
36426W        W 1587   3.928  26.175  12.608
36427W        W 1588  35.585  14.718   4.853
36428W        W 1589  25.743  44.480   1.263
36429W        W 1590  40.006  40.001   2.896
36430W        W 1591  37.203  18.148   4.949
36431W        W 1592  35.127  25.266   3.779
36432W        W 1593   5.800  25.458   4.234
36433W        W 1594  43.769  12.762   3.418
36434W        W 1595  31.451   1.516   1.862
36435W        W 1596  23.236  42.811  14.330
36436W        W 1597  39.893  30.290  14.751
36437W        W 1598  27.106  32.634  14.648
36438W        W 1599  39.006   7.052  14.598
36439W        W 1600   0.265  39.598  14.290
36440W        W 1601  24.647  23.162   3.206
36441W        W 1602   7.162   1.147   4.990
36442W        W 1603  32.938   2.724   4.465
36443W        W 1604   7.947  10.837   0.928
36444W        W 1605  17.325   1.176  11.898
36445W        W 1606  18.682  18.527  12.008
36446W        W 1607  17.180  43.358   1.923
36447W        W 1608  15.822  26.442   3.983
36448W        W 1609  35.555  23.141   3.908
36449W        W 1610  18.869  34.410   4.543
36450W        W 1611  35.823  18.285  14.006
36451W        W 1612  44.409  12.785  12.391
36452W        W 1613  37.877  41.111  11.330
36453W        W 1614   2.639   6.877  10.771
36454W        W 1615  31.929  19.790   0.704
36455W        W 1616   0.569  10.779   0.442
36456W        W 1617  32.156   5.829   4.809
36457W        W 1618  13.198  39.703   0.319
36458W        W 1619  30.204  29.445  13.491
36459W        W 1620  39.351  21.843  14.764
36460W        W 1621  21.915   3.293  13.947
36461W        W 1622  20.616   3.443   0.356
36462W        W 1623  18.182   6.947   3.697
36463W        W 1624  20.747  27.903   3.774
36464W        W 1625  40.999  31.686   0.872
36465W        W 1626   5.988  24.092  12.656
36466W        W 1627   2.264  36.464  12.713
36467W        W 1628  26.044  10.029   4.059
36468W        W 1629   7.580  22.441   2.253
36469W        W 1630  13.776  21.154  14.721
36470W        W 1631  13.850  37.485  12.633
36471W        W 1632  19.647  19.535   2.836
36472W        W 1633  28.093   7.202  10.385
36473W        W 1634  41.258   8.715  14.870
36474W        W 1635   2.256  42.469   0.641
36475W        W 1636   9.972  13.360  13.057
36476W        W 1637  26.513   7.303   0.225
36477W        W 1638  39.379  43.192  13.051
36478W        W 1639  15.824  27.863   5.201
36479W        W 1640   6.486   5.186   0.735
36480W        W 1641  28.067  15.165   0.356
36481W        W 1642  15.390  43.807   0.771
36482W        W 1643  22.218  22.696  14.243
36483W        W 1644  43.937   7.693   3.825
36484W        W 1645  14.701  20.771  13.926
36485W        W 1646  29.232  20.170  13.483
36486W        W 1647   0.927  29.460  12.902
36487W        W 1648  35.529  33.426  14.822
36488W        W 1649  13.003   4.879  13.184
36489W        W 1650  42.872   0.931   1.857
36490W        W 1651   1.960  33.016   4.769
36491W        W 1652  37.537  21.631   3.212
36492W        W 1653  27.322  43.819   1.287
36493W        W 1654  31.977  34.507  13.120
36494W        W 1655  12.592   2.533  14.388
36495W        W 1656  22.174   1.837  10.880
36496W        W 1657  44.383  26.960  13.761
36497W        W 1658  20.357  14.961  12.186
36498W        W 1659  33.449  20.272   3.664
36499W        W 1660  42.592   6.081   4.968
36500W        W 1661  26.055  10.493  11.864
36501W        W 1662  35.908   2.929  10.704
36502W        W 1663  20.546  10.133   0.466
36503W        W 1664   3.672  27.691   0.791
36504W        W 1665  24.802  44.374   1.845
36505W        W 1666  18.647  11.355   2.743
36506W        W 1667  12.173  21.644   2.981
36507W        W 1668   4.637  26.499  12.255
36508W        W 1669  12.143  14.237  10.576
36509W        W 1670  25.741   3.213   2.912
36510W        W 1671   0.675  44.511  11.160
36511W        W 1672  43.308   5.884   3.713
36512W        W 1673  40.373  39.144   5.026
36513W        W 1674  19.755  23.699   9.732
36514W        W 1675  39.232  17.398  14.749
36515W        W 1676  26.270  10.435   2.772
36516W        W 1677  19.273  41.236   2.711
36517W        W 1678  13.236  22.028  12.495
36518W        W 1679  17.400  43.436  11.424
36519W        W 1680  27.888  27.110   0.867
36520W        W 1681  44.267  20.165   3.835
36521W        W 1682  33.138  44.106  12.103
36522W        W 1683  29.911  28.060  11.801
36523W        W 1684   9.591   7.445  13.274
36524W        W 1685  24.739   3.195  12.081
36525W        W 1686   9.151  44.042  10.974
36526W        W 1687   7.184   0.849   3.117
36527W        W 1688  28.957  27.714  14.450
36528W        W 1689  20.330  37.133  11.936
36529W        W 1690  31.576  12.809   4.614
36530W        W 1691  44.893  13.572  12.568
36531W        W 1692  13.897  38.974  14.514
36532W        W 1693   2.684  31.627   2.340
36533W        W 1694  43.014  26.984  11.627
36534W        W 1695  27.201   3.097  13.843
36535W        W 1696  21.731  22.690  13.459
36536W        W 1697  33.401   0.678  11.182
36537W        W 1698  38.557  10.180  14.901
36538W        W 1699  37.254  21.419   4.569
36539W        W 1700   4.092   9.914  11.606
36540W        W 1701   4.179  23.339  12.982
36541W        W 1702  18.078  14.866  11.163
36542W        W 1703  42.063  25.927   0.688
36543W        W 1704  30.438  29.677   4.034
36544W        W 1705  11.134   8.430  14.426
36545W        W 1706  20.314  19.290  11.883
36546W        W 1707  14.126  20.139   3.639
36547W        W 1708  22.375  11.530   5.454
36548W        W 1709  37.093  33.117  10.655
36549W        W 1710  43.313  10.377   2.276
36550W        W 1711  20.492  24.745  12.128
36551W        W 1712  13.087  24.679  12.320
36552W        W 1713  19.526   1.492  13.432
36553W        W 1714  19.468   9.188   4.538
36554W        W 1715  17.464  11.649   2.304
36555W        W 1716   6.288  31.027  13.857
36556W        W 1717  11.065  17.807  12.371
36557W        W 1718  41.097  35.057  10.565
36558W        W 1719  13.433  21.347  13.310
36559W        W 1720  24.972   4.960   3.750
36560W        W 1721  38.380  39.680  11.116
36561W        W 1722   8.630  26.003  13.971
36562W        W 1723  31.571  33.455  12.878
36563W        W 1724  17.579  12.887  11.512
36564W        W 1725   8.829  16.663  12.107
36565W        W 1726  22.217  12.787   1.061
36566W        W 1727   5.895   1.782   0.287
36567W        W 1728  26.517  23.004  10.676
36568W        W 1729  37.665   8.290  11.449
36569W        W 1730   1.880  25.951   4.754
36570W        W 1731  21.634  40.425   1.914
36571W        W 1732   4.036   9.711  12.609
36572W        W 1733  44.842  40.984   2.820
36573W        W 1734   9.382  43.868   4.171
36574W        W 1735  22.629   9.134  13.372
36575W        W 1736  12.881   3.982   0.744
36576W        W 1737   8.251   3.165   0.451
36577W        W 1738  37.484  24.596  10.749
36578W        W 1739   3.529  22.586   1.322
36579W        W 1740  20.976  23.123   1.569
36580W        W 1741  19.794  27.948   0.911
36581W        W 1742   5.403  13.863  14.779
36582W        W 1743  33.363  25.084  13.852
36583W        W 1744  16.186  40.491  13.535
36584W        W 1745  11.278  42.455   3.384
36585W        W 1746   3.990  10.643  10.263
36586W        W 1747  43.614  26.133   0.067
36587W        W 1748  22.914   3.057   4.575
36588W        W 1749  26.766  41.994   0.438
36589W        W 1750   5.528  21.278   4.340
36590W        W 1751  41.127  34.928   2.162
36591W        W 1752   5.424  14.144   1.035
36592W        W 1753   6.624   7.687  14.463
36593W        W 1754  10.448  31.557  13.007
36594W        W 1755  39.186   5.785   1.991
36595W        W 1756  21.815   2.278  14.329
36596W        W 1757  27.984  38.039  11.167
36597W        W 1758  13.859  20.637   0.012
36598W        W 1759  29.447  15.538  14.856
36599W        W 1760   0.040  28.263  14.297
36600W        W 1761   2.276   5.030  12.936
36601W        W 1762  40.252  22.649   0.847
36602W        W 1763  21.120   1.063   4.222
36603W        W 1764  39.300   2.555  14.028
36604W        W 1765  32.180  43.826  12.577
36605W        W 1766  25.584  38.667  10.807
36606W        W 1767  24.463   6.762  10.709
36607W        W 1768  35.864  12.627   1.555
36608W        W 1769  22.354  12.359  11.819
36609W        W 1770  41.764  40.015   4.970
36610W        W 1771  21.435  13.364  11.567
36611W        W 1772  35.142  33.279   4.078
36612W        W 1773   8.667  29.655   2.949
36613W        W 1774  10.198  43.328  14.822
36614W        W 1775  22.770  34.630  10.555
36615W        W 1776   4.201  15.783   3.008
36616W        W 1777   1.823  42.323   1.474
36617W        W 1778  25.759  11.912  12.025
36618W        W 1779  29.923  39.466  14.268
36619W        W 1780  14.265  33.341  11.108
36620W        W 1781  44.400   0.174  10.731
36621W        W 1782  20.121   6.540  14.212
36622W        W 1783  27.493  24.486   2.788
36623W        W 1784  20.451  32.417  11.434
36624W        W 1785  31.738  33.622  11.206
36625W        W 1786  40.964  42.267  11.140
36626W        W 1787  12.271   8.765  12.649
36627W        W 1788  18.815  16.995  11.811
36628W        W 1789  33.355   6.776  13.997
36629W        W 1790  14.677  20.810   3.652
36630W        W 1791  14.290   3.684   1.271
36631W        W 1792  12.805  37.079   2.730
36632W        W 1793  43.877  38.847   2.789
36633W        W 1794  42.274  30.763  14.071
36634W        W 1795  35.480  23.273   0.210
36635W        W 1796   7.238  43.510  10.740
36636W        W 1797  11.339  41.917   3.589
36637W        W 1798  15.040  44.995   3.875
36638W        W 1799  40.289  35.561   2.723
36639W        W 1800  20.487   5.330  10.698
36640W        W 1801   2.773  10.740   2.175
36641W        W 1802  31.382   9.174   0.901
36642W        W 1803   1.923   0.615   3.500
36643W        W 1804  27.465  43.782  13.492
36644W        W 1805  31.967  12.507  14.246
36645W        W 1806   7.355   0.415  13.150
36646W        W 1807  42.562  25.485   4.154
36647W        W 1808  29.095  36.090   2.893
36648W        W 1809  18.690  10.597   4.669
36649W        W 1810  33.360  37.411   2.560
36650W        W 1811  31.087  13.692  11.558
36651W        W 1812  14.202  24.687  12.370
36652W        W 1813  10.526  12.147   4.846
36653W        W 1814  11.925  27.655   3.257
36654W        W 1815  36.914  41.772  13.391
36655W        W 1816  12.949  23.151  11.180
36656W        W 1817  23.585  29.474   4.363
36657W        W 1818   5.716  33.504  12.391
36658W        W 1819   8.181  12.582  10.759
36659W        W 1820  32.169   4.990  10.972
36660W        W 1821  12.189  12.215   0.557
36661W        W 1822  16.892   5.583   3.655
36662W        W 1823  27.213  10.447  14.981
36663W        W 1824  34.610  23.051   3.129
36664W        W 1825  28.718   9.104   1.415
36665W        W 1826  21.308   6.795  12.072
36666W        W 1827   3.243   7.537  13.487
36667W        W 1828  21.495  32.912  13.108
36668W        W 1829   6.387  37.304   2.790
36669W        W 1830  26.208  43.262   2.288
36670W        W 1831  41.848  34.382   1.879
36671W        W 1832  31.494   6.990   3.808
36672W        W 1833  22.077  44.535  11.462
36673W        W 1834   8.093  32.639  13.168
36674W        W 1835  19.775  36.840  14.380
36675W        W 1836  10.664  28.153  10.736
36676W        W 1837   8.614   9.687  14.279
36677W        W 1838  41.874  26.971   1.748
36678W        W 1839  35.783  34.756  13.840
36679W        W 1840  20.050  17.952   2.587
36680W        W 1841  14.211  12.352   3.994
36681W        W 1842  42.101  10.281   2.518
36682W        W 1843  35.656  15.887  12.823
36683W        W 1844  37.099  34.247  14.032
36684W        W 1845  31.790  43.351   4.713
36685W        W 1846   8.539  13.719  14.034
36686W        W 1847   0.808   5.781  12.485
36687W        W 1848  37.678   3.311   2.850
36688W        W 1849   8.117  25.267   0.466
36689W        W 1850   2.212  28.552   3.302
36690W        W 1851  43.984  25.207   4.701
36691W        W 1852  14.902  20.675  13.452
36692W        W 1853  44.899   6.167  13.300
36693W        W 1854  44.290  44.690   1.039
36694W        W 1855  11.938   7.303   2.842
36695W        W 1856  29.960  28.623  14.815
36696W        W 1857  14.353   3.201  14.779
36697W        W 1858  33.642  42.375   0.164
36698W        W 1859  43.782  19.558  11.252
36699W        W 1860  14.581  29.118   3.922
36700W        W 1861  20.709  21.806   5.430
36701W        W 1862   8.309  30.603   4.622
36702W        W 1863  12.571  34.753  14.675
36703W        W 1864   6.994  40.747   0.952
36704W        W 1865  24.960  31.563  13.932
36705W        W 1866   5.414   7.992  10.766
36706W        W 1867  43.861  29.374   1.550
36707W        W 1868  32.389   8.959  13.805
36708W        W 1869  34.888   1.256  11.619
36709W        W 1870  44.488  22.641  13.063
36710W        W 1871  14.574  20.880  11.504
36711W        W 1872  23.663   2.352   1.343
36712W        W 1873  44.318   3.312   2.919
36713W        W 1874  43.973  41.107  11.249
36714W        W 1875   7.862   4.247  13.100
36715W        W 1876  41.209  32.796  14.998
36716W        W 1877   5.708  10.959  13.639
36717W        W 1878  41.226  10.338  10.656
36718W        W 1879   3.000  40.111   0.774
36719W        W 1880  31.073  27.477  12.422
36720W        W 1881  40.481  23.939  12.528
36721W        W 1882  10.149  39.940   4.007
36722W        W 1883  43.837  30.847   4.856
36723W        W 1884   4.218  42.305   4.466
36724W        W 1885  35.815   1.635   4.588
36725W        W 1886  19.691  24.951   2.258
36726W        W 1887  12.421  24.059  11.483
36727W        W 1888  37.078  11.255  14.927
36728W        W 1889  10.108   4.097   2.335
36729W        W 1890  35.999  35.651   1.437
36730W        W 1891   2.262   8.461   4.233
36731W        W 1892  42.743  42.856   0.860
36732W        W 1893  28.213   0.481  14.486
36733W        W 1894  41.760  20.570   1.731
36734W        W 1895  19.681   3.427  11.971
36735W        W 1896  20.879   0.386   0.380
36736W        W 1897  30.149  16.767  10.697
36737W        W 1898  11.546  27.239  10.123
36738W        W 1899   7.161  31.553  14.014
36739W        W 1900  31.104  33.582   0.961
36740W        W 1901   4.773  18.407   0.653
36741W        W 1902   0.896  20.577   4.654
36742W        W 1903   8.698   8.787  14.210
36743W        W 1904  24.919  24.180  11.115
36744W        W 1905  10.269  21.791   3.333
36745W        W 1906   8.150  14.339   3.742
36746W        W 1907  43.518   4.236   2.865
36747W        W 1908  42.032   0.063  12.895
36748W        W 1909  14.780  25.595   0.363
36749W        W 1910  17.110  31.308   2.761
36750W        W 1911  25.247  19.564   3.712
36751W        W 1912  17.811   4.703   1.674
36752W        W 1913  21.464  25.788  14.806
36753W        W 1914  26.673  24.376   3.720
36754W        W 1915   6.482  40.899   2.220
36755W        W 1916  11.774   5.303  10.561
36756W        W 1917  31.349  43.470  12.765
36757W        W 1918   0.911  41.047  13.949
36758W        W 1919   8.601  40.595  10.507
36759W        W 1920  18.082  12.477   4.013
36760W        W 1921  12.717   1.088  14.986
36761W        W 1922   7.533  12.786   1.418
36762W        W 1923  22.325   2.624   2.912
36763W        W 1924   8.303  22.766  11.539
36764W        W 1925  37.511  16.488   0.292
36765W        W 1926   3.150   7.230   4.526
36766W        W 1927  31.899  28.428   4.204
36767W        W 1928  11.268  20.641  11.640
36768W        W 1929  35.147  22.012   1.867
36769W        W 1930  24.161   0.430  14.450
36770W        W 1931  19.338   8.239   0.560
36771W        W 1932   3.390  19.511  12.884
36772W        W 1933  30.087  17.512   4.434
36773W        W 1934  36.648  36.856   1.239
36774W        W 1935  26.584   5.162   2.779
36775W        W 1936   2.758  28.432  14.827
36776W        W 1937  15.935  16.970   0.775
36777W        W 1938  24.742   2.411   0.474
36778W        W 1939  11.676  44.659  14.014
36779W        W 1940   7.234  34.489   3.173
36780W        W 1941  10.403  36.289  11.367
36781W        W 1942  13.079  35.965  11.902
36782W        W 1943  21.327  13.693   1.162
36783W        W 1944  41.851  21.156  10.332
36784W        W 1945  30.079  24.709  13.024
36785W        W 1946  19.911   1.067  11.855
36786W        W 1947  41.753   8.175  14.481
36787W        W 1948  23.452  25.718   2.323
36788W        W 1949   6.130  31.016  11.687
36789W        W 1950  43.424  18.741   0.715
36790W        W 1951  19.722   2.262   4.636
36791W        W 1952   0.869  30.929  13.487
36792W        W 1953   4.725  16.509   2.640
36793W        W 1954  40.415  17.263  11.045
36794W        W 1955  10.895  27.601  11.587
36795W        W 1956  43.795  31.877   3.136
36796W        W 1957   7.209   1.502  14.238
36797W        W 1958  38.364  40.475  12.916
36798W        W 1959  35.518   2.138  13.965
36799W        W 1960  38.109  44.081  11.471
36800W        W 1961  17.791  25.607  10.742
36801W        W 1962  27.835  33.714  14.275
36802W        W 1963  31.498   0.723   2.926
36803W        W 1964  21.217   8.529   4.927
36804W        W 1965  33.839  37.522   0.397
36805W        W 1966  10.346  36.526  10.924
36806W        W 1967   8.654  36.465  13.849
36807W        W 1968  10.939  10.630   2.186
36808W        W 1969   8.876  36.851   2.701
36809W        W 1970  18.762   1.357   2.632
36810W        W 1971  21.245  17.989   3.891
36811W        W 1972  39.427  18.695   4.683
36812W        W 1973  40.703  40.999   4.591
36813W        W 1974  28.558   0.977  10.547
36814W        W 1975   9.601  25.497   4.058
36815W        W 1976   2.387  11.128   3.573
36816W        W 1977   8.871   3.466  13.596
36817W        W 1978  29.107  13.998   2.184
36818W        W 1979  32.918   5.499   3.683
36819W        W 1980   8.897   0.095  13.945
36820W        W 1981  29.944  10.683  13.096
36821W        W 1982  44.410  17.894  14.435
36822W        W 1983   1.680  31.439   0.383
36823W        W 1984  22.514  19.903  11.220
36824W        W 1985  17.714   5.844  11.554
36825W        W 1986  18.646  23.024   3.191
36826W        W 1987  23.037  18.794   4.435
36827W        W 1988   5.645  37.216  13.121
36828W        W 1989  38.361  16.528   2.213
36829W        W 1990   5.498  20.657   1.800
36830W        W 1991  33.640   4.392  12.678
36831W        W 1992   7.672   4.921   4.182
36832W        W 1993  33.108  15.132  14.476
36833W        W 1994  26.150  27.462  13.970
36834W        W 1995  34.438  43.298   4.088
36835W        W 1996  17.816  19.592  14.491
36836W        W 1997  37.125  44.631   3.638
36837W        W 1998  32.413  44.982   2.287
36838W        W 1999   1.056  20.352  12.998
36839W        W 2000  27.906   3.244   5.045
36840W        W 2001  28.681  22.079  12.025
36841W        W 2002  11.361  24.664   4.774
36842W        W 2003  22.931  29.662  11.999
36843W        W 2004   5.831  17.622  12.566
36844W        W 2005   5.848   6.666   4.597
36845W        W 2006  14.505  19.759   4.189
36846W        W 2007  12.250  28.678  13.361
36847W        W 2008  31.100  44.010  13.634
36848W        W 2009  17.151  33.646  14.724
36849W        W 2010   0.234  41.852   1.487
36850W        W 2011  23.301  44.335   4.530
36851W        W 2012  19.240  13.246   1.468
36852W        W 2013  37.973   6.424   0.791
36853W        W 2014  32.456   6.727   3.129
36854W        W 2015  26.244  23.061   3.181
36855W        W 2016  24.459  39.441   1.552
36856W        W 2017  35.566   8.325  10.767
36857W        W 2018  37.220  24.076  12.688
36858W        W 2019   6.024  30.173  11.710
36859W        W 2020  38.567  37.744  11.841
36860W        W 2021  28.502  25.133   3.060
36861W        W 2022  29.169  40.615   1.434
36862W        W 2023   6.047  40.412   4.720
36863W        W 2024  44.257  29.173  12.408
36864W        W 2025  11.465  14.358  13.290
36865W        W 2026  14.049  32.385  11.468
36866W        W 2027  22.836  33.285   3.784
36867W        W 2028  11.384  39.809   0.850
36868W        W 2029  44.504  40.404   3.588
36869W        W 2030  40.901  31.410   1.356
36870W        W 2031  24.788  21.137   4.177
36871W        W 2032  36.188  32.120  10.760
36872W        W 2033  13.268  38.415   4.877
36873W        W 2034  32.748  10.230   3.973
36874W        W 2035  40.390   4.262  12.308
36875W        W 2036  15.561  27.030  12.148
36876W        W 2037  23.669  16.281   1.688
36877W        W 2038   4.815  14.100   1.707
36878W        W 2039  44.270   3.289   3.831
36879W        W 2040   0.494  10.951   4.970
36880W        W 2041  28.051  42.326   3.821
36881W        W 2042  22.901  13.305  14.498
36882W        W 2043   3.309  33.611  13.902
36883W        W 2044   6.847   8.672   2.097
36884W        W 2045   2.610   7.348  13.057
36885W        W 2046  35.287  29.254  12.370
36886W        W 2047  17.573  34.717  13.459
36887W        W 2048  36.432  16.165   3.308
36888W        W 2049   5.664  38.812   0.982
36889W        W 2050  32.500  42.943   0.551
36890W        W 2051  40.343  25.374  13.106
36891W        W 2052  32.980  43.401   0.336
36892W        W 2053  39.478  28.569  11.060
36893W        W 2054   3.019  29.028  10.851
36894W        W 2055  14.089   9.702  10.769
36895W        W 2056  37.252  21.114   2.070
36896W        W 2057  22.982  41.383  12.719
36897W        W 2058  26.191  28.011  10.674
36898W        W 2059  20.787  40.901  13.043
36899W        W 2060  36.477  43.599   2.168
36900W        W 2061  26.570  24.914  10.894
36901W        W 2062  33.423  37.255  10.514
36902W        W 2063  16.831  30.814   3.990
36903W        W 2064  25.965  14.125  14.958
36904W        W 2065  37.089  38.920  13.600
36905W        W 2066   4.674  28.564   0.936
36906W        W 2067  43.541  40.496  14.341
36907W        W 2068   5.338  32.446   0.401
36908W        W 2069  25.189  26.681   0.541
36909W        W 2070  14.210  23.444   4.081
36910W        W 2071  18.741  17.550  10.891
36911W        W 2072   8.298  25.639   1.299
36912W        W 2073  10.725  38.403  14.812
36913W        W 2074  43.346  21.761  12.683
36914W        W 2075  24.534  18.058   2.670
36915W        W 2076  22.727   8.336   3.657
36916W        W 2077  34.587  12.237   4.757
36917W        W 2078  40.508  35.526   3.207
36918W        W 2079   5.230  25.054  13.393
36919W        W 2080   2.522   0.512   2.261
36920W        W 2081   7.328  29.688   4.560
36921W        W 2082  35.103  37.967  11.558
36922W        W 2083  44.295  11.579  13.498
36923W        W 2084  28.783  32.159  10.300
36924W        W 2085  30.201  19.557  11.616
36925W        W 2086   0.245   1.330  12.975
36926W        W 2087  33.315   4.212   1.164
36927W        W 2088  14.509  40.132   2.605
36928W        W 2089  41.914  36.378  10.121
36929W        W 2090  25.180  18.280  12.348
36930W        W 2091   8.142  22.534   1.622
36931W        W 2092  42.389  36.020   2.354
36932W        W 2093   9.273  42.270   4.826
36933W        W 2094  40.239  38.393  11.163
36934W        W 2095   7.736  37.799  13.472
36935W        W 2096  33.538   8.496  14.863
36936W        W 2097  35.697  18.974  14.551
36937W        W 2098  33.063  31.481   1.211
36938W        W 2099  19.024  12.777  13.106
36939W        W 2100  35.007  11.562   1.852
36940W        W 2101   9.666  37.590   2.162
36941W        W 2102  25.337  30.206  11.073
36942W        W 2103  38.458  29.664   0.371
36943W        W 2104  18.677   8.317  13.901
36944W        W 2105  17.232   2.904   4.155
36945W        W 2106  31.620   2.997   2.008
36946W        W 2107  26.109  24.729  12.956
36947W        W 2108  25.688  23.590  12.825
36948W        W 2109  38.141  34.034   3.765
36949W        W 2110  19.646  19.173   0.023
36950W        W 2111  38.598  38.468  10.447
36951W        W 2112  23.695  20.736  11.610
36952W        W 2113   4.668  39.265  11.468
36953W        W 2114  39.836  16.288  10.692
36954W        W 2115  16.754  13.385  11.449
36955W        W 2116  33.426  18.288  11.155
36956W        W 2117   8.926   5.936  14.035
36957W        W 2118  22.579  25.710   3.569
36958W        W 2119  41.817  40.390   1.676
36959W        W 2120  23.605   5.620  13.061
36960W        W 2121  26.166  22.984   0.316
36961W        W 2122  31.226  16.801  13.568
36962W        W 2123   8.924   4.236   0.687
36963W        W 2124  41.134  26.310   1.545
36964W        W 2125   8.187  40.936  10.454
36965W        W 2126  34.135  35.532   1.734
36966W        W 2127  40.394  20.429   1.213
36967W        W 2128  13.722  22.037  11.653
36968W        W 2129   2.679  22.052  13.583
36969W        W 2130   9.628  27.726   3.783
36970W        W 2131  25.754  19.644   2.222
36971W        W 2132  22.314   4.483  10.840
36972W        W 2133  13.512  40.456  14.677
36973W        W 2134  31.351  25.421   0.397
36974W        W 2135  11.829  38.752  11.585
36975W        W 2136  23.292  13.458  13.749
36976W        W 2137  25.314  39.274  12.044
36977W        W 2138  13.092   6.949   0.709
36978W        W 2139  17.032   2.852   1.784
36979W        W 2140   9.519  24.225   1.448
36980W        W 2141  10.840  16.276   1.382
36981W        W 2142  41.000  43.950   3.253
36982W        W 2143   9.422  39.800   3.831
36983W        W 2144  22.108   6.236   0.653
36984W        W 2145  43.024  12.906   0.419
36985W        W 2146  16.116  18.982   1.146
36986W        W 2147  32.132  39.823  12.538
36987W        W 2148  29.062  30.903  14.271
36988W        W 2149  24.011  28.024  10.228
36989W        W 2150  10.116  17.995  11.013
36990W        W 2151   5.661  23.153   4.189
36991W        W 2152  39.895  15.857   2.385
36992W        W 2153  13.425  14.211   3.617
36993W        W 2154  13.311  35.968   4.046
36994W        W 2155  27.390  15.348  12.522
36995W        W 2156   4.280  31.742  12.315
36996W        W 2157  33.672   6.667   1.744
36997W        W 2158  42.520  24.615  11.684
36998W        W 2159   6.216  16.131  14.303
36999W        W 2160  35.607  42.966  13.050
37000W        W 2161  37.874  37.770   0.818
37001W        W 2162  28.821  44.939  11.236
37002W        W 2163  10.132  29.606  10.593
37003W        W 2164  40.568   0.396   0.006
37004W        W 2165  14.896   6.832  14.488
37005W        W 2166  22.509   0.061   0.779
37006W        W 2167  40.388  11.315   4.220
37007W        W 2168  42.651  13.983   0.742
37008W        W 2169  22.520  22.549  12.959
37009W        W 2170  12.802  11.380   4.594
37010W        W 2171  23.241  40.507   2.609
37011W        W 2172   4.044  11.489  14.579
37012W        W 2173  40.328  32.418  14.251
37013W        W 2174  26.258   2.326  14.340
37014W        W 2175   8.154  31.110   4.586
37015W        W 2176  13.773  12.404  12.543
37016W        W 2177  12.942   7.448  13.923
37017W        W 2178   7.260  17.516  14.389
37018W        W 2179  42.184  28.501   2.294
37019W        W 2180   4.676  20.256   2.779
37020W        W 2181  25.951  33.582  10.514
37021W        W 2182   5.269  41.305   2.185
37022W        W 2183  10.920  37.420   2.801
37023W        W 2184  28.892  13.632  10.779
37024W        W 2185  16.821  41.827  14.956
37025W        W 2186  31.584  35.317  12.583
37026W        W 2187   3.455  31.524  12.452
37027W        W 2188  12.091  39.460  14.927
37028W        W 2189  42.532   7.904  12.607
37029W        W 2190  38.470   9.954   0.375
37030W        W 2191  36.930   5.493   3.306
37031W        W 2192  10.231  24.790   1.665
37032W        W 2193  43.008   8.869  13.253
37033W        W 2194  31.168  37.101   1.786
37034W        W 2195  33.169  20.081   0.452
37035W        W 2196  24.471  32.067  13.078
37036W        W 2197  32.615  27.169   3.238
37037W        W 2198  28.936  40.491  12.117
37038W        W 2199  43.468   3.422   0.945
37039W        W 2200  27.993  39.615   0.797
37040W        W 2201  30.312  39.927   4.649
37041W        W 2202   2.423  36.614  14.273
37042W        W 2203  28.897   9.266   1.932
37043W        W 2204  36.438   5.904   2.620
37044W        W 2205  30.929  41.643   4.568
37045W        W 2206   2.680   5.309  13.083
37046W        W 2207  42.272  30.159  12.708
37047W        W 2208  23.433   7.771   2.409
37048W        W 2209  24.757  12.408  12.910
37049W        W 2210  43.914  28.461  14.816
37050W        W 2211  35.571  24.687   2.223
37051W        W 2212  18.248  24.174   1.452
37052W        W 2213  29.312  20.787   2.237
37053W        W 2214  36.387  31.246   2.434
37054W        W 2215  13.793  37.341  14.847
37055W        W 2216  31.956  27.649  11.560
37056W        W 2217  15.322  27.377   4.638
37057W        W 2218   4.927   9.593  12.470
37058W        W 2219  34.634  33.219  14.045
37059W        W 2220  31.282  32.588   1.326
37060W        W 2221  17.280  25.009   4.839
37061W        W 2222  31.479   2.800  12.031
37062W        W 2223   7.193  26.335  12.493
37063W        W 2224   5.464   3.435  10.705
37064W        W 2225  13.077   7.085  14.322
37065W        W 2226   6.710  28.540   2.943
37066W        W 2227  33.389  35.529   2.700
37067W        W 2228  29.776  33.453  11.069
37068W        W 2229  29.152  16.875  14.674
37069W        W 2230  26.117   4.735  14.149
37070W        W 2231   1.709  35.954  14.087
37071W        W 2232  19.971  33.980   2.718
37072W        W 2233  39.533   5.354  12.599
37073W        W 2234  14.180  22.090  12.404
37074W        W 2235   6.178   9.958   2.257
37075W        W 2236  37.084  31.179   1.747
37076W        W 2237  38.561  27.103   3.167
37077W        W 2238  29.609  35.270   4.808
37078W        W 2239  37.742  23.811   4.414
37079W        W 2240   1.004  43.815   3.792
37080W        W 2241  12.575  31.113   2.208
37081W        W 2242   1.309  16.557   3.347
37082W        W 2243  22.119  44.339   0.225
37083W        W 2244  37.863   3.151   4.878
37084W        W 2245  29.949  17.883  14.499
37085W        W 2246   2.953  31.573  12.681
37086W        W 2247  36.189  41.576   1.985
37087W        W 2248  16.297  30.388  11.527
37088W        W 2249  37.308   9.334  13.328
37089W        W 2250  39.266   6.298  14.895
37090W        W 2251  20.625   2.821  13.625
37091W        W 2252   4.847  16.845   2.250
37092W        W 2253   0.464  16.639   2.094
37093W        W 2254   4.363  39.104  13.801
37094W        W 2255  16.464  43.907   4.559
37095W        W 2256  43.112   0.250   0.820
37096W        W 2257  42.799   7.260   0.855
37097W        W 2258  20.344  40.601   0.212
37098W        W 2259  18.313  35.525  13.561
37099W        W 2260  20.640  10.813   1.595
37100W        W 2261  31.986  41.838   2.097
37101W        W 2262  36.684  15.407  12.154
37102W        W 2263  34.600  16.280  12.629
37103W        W 2264  27.569  34.010   3.423
37104W        W 2265  12.664  28.164  12.904
37105W        W 2266  10.839  16.685   0.244
37106W        W 2267  38.943  28.984   3.222
37107W        W 2268  11.818   9.669   2.817
37108W        W 2269  15.766  34.026   0.447
37109W        W 2270  16.127   0.309   1.296
37110W        W 2271  22.316  42.981  10.731
37111W        W 2272  42.635   0.923  13.513
37112W        W 2273  32.548  21.148   2.213
37113W        W 2274  15.241   0.459  13.116
37114W        W 2275  13.242   5.833  12.923
37115W        W 2276  21.507  24.184   4.228
37116W        W 2277  29.526  26.912  12.828
37117W        W 2278  15.276   1.067   1.192
37118W        W 2279  11.726  32.075   9.843
37119W        W 2280   4.026   4.412   3.152
37120W        W 2281  23.737   3.346   5.028
37121W        W 2282   6.608  37.888  10.644
37122W        W 2283  34.641  40.367  13.781
37123W        W 2284  13.744  34.029  11.462
37124W        W 2285  32.108   8.331   1.731
37125W        W 2286  36.548  41.735  11.618
37126W        W 2287  44.561  18.863  13.144
37127W        W 2288  42.228  41.905   3.832
37128W        W 2289  25.643  27.898   3.695
37129W        W 2290  10.202  44.333   3.197
37130W        W 2291  18.016  19.305  14.915
37131W        W 2292  20.269  22.081  13.742
37132W        W 2293  25.236  41.339   4.043
37133W        W 2294   0.539   5.419  11.205
37134W        W 2295  44.455  25.899  11.911
37135W        W 2296   7.775  40.539   2.675
37136W        W 2297  25.045   5.395  12.535
37137W        W 2298   8.290   2.186   3.195
37138W        W 2299   7.999  12.197  10.453
37139W        W 2300  39.640   1.256  14.325
37140W        W 2301  18.734  41.895   4.101
37141W        W 2302  42.434  14.416  12.486
37142W        W 2303  32.178  41.275  11.596
37143W        W 2304  14.103  23.253   4.571
37144W        W 2305  19.276   3.194   0.480
37145W        W 2306  23.234   9.369   1.799
37146W        W 2307  11.732  30.745   2.237
37147W        W 2308   4.777  41.477   2.157
37148W        W 2309  10.064  34.979   4.354
37149W        W 2310  25.729  17.677  13.486
37150W        W 2311  34.412  40.516   1.219
37151W        W 2312  42.222  35.116   1.277
37152W        W 2313  40.611  35.953   3.989
37153W        W 2314  25.572  44.137   0.037
37154W        W 2315  27.738  38.037  12.633
37155W        W 2316  30.951  42.515  12.401
37156W        W 2317  41.524  25.494   1.059
37157W        W 2318  23.212   5.473  14.397
37158W        W 2319  36.892   0.498   9.996
37159W        W 2320  36.864  10.566  14.058
37160W        W 2321  39.771  16.086   0.878
37161W        W 2322  25.095   2.410   1.815
37162W        W 2323  23.891   0.264  13.259
37163W        W 2324  13.759   7.924   2.927
37164W        W 2325  37.400  22.985  14.743
37165W        W 2326  44.522  16.040  12.436
37166W        W 2327  28.925   7.412  14.433
37167W        W 2328  19.161   3.008  12.543
37168W        W 2329  43.823  23.646  14.288
37169W        W 2330  18.566   0.534   3.981
37170W        W 2331  14.723  30.208  12.759
37171W        W 2332  10.320  37.008   2.697
37172W        W 2333  32.685  18.024  11.573
37173W        W 2334  34.867  14.653  13.887
37174W        W 2335  35.128  35.528  14.830
37175W        W 2336   5.430  38.419  13.080
37176W        W 2337  26.249  10.197  14.559
37177W        W 2338   2.653  43.328  11.576
37178W        W 2339  27.628  34.452   2.481
37179W        W 2340  38.319  28.233  11.206
37180W        W 2341  13.892   8.947  11.442
37181W        W 2342  25.382  33.864   2.349
37182W        W 2343  18.626  10.271  11.695
37183W        W 2344  27.095  16.235  13.516
37184W        W 2345  37.476  19.125   0.793
37185W        W 2346  22.564   0.089  11.603
37186W        W 2347  18.086  30.379  11.106
37187W        W 2348  35.370  28.656   4.147
37188W        W 2349  13.207  38.393   0.368
37189W        W 2350   6.773  44.917  12.022
37190W        W 2351  15.214  39.037   3.269
37191W        W 2352   4.234  42.748   3.150
37192W        W 2353   2.291  23.309   4.656
37193W        W 2354  42.580  16.351  10.981
37194W        W 2355  40.900   6.320  12.949
37195W        W 2356  43.769  33.304   4.189
37196W        W 2357  10.700  22.471  13.558
37197W        W 2358  25.070   5.742  10.738
37198W        W 2359  12.197   4.372  14.324
37199W        W 2360  12.880  44.900  14.419
37200W        W 2361  13.237   4.521  14.449
37201W        W 2362  29.073  12.784  12.963
37202W        W 2363  34.539  17.095  12.063
37203W        W 2364  19.198  10.401   4.917
37204W        W 2365  32.104  38.388   4.514
37205W        W 2366   4.279  19.174  11.122
37206W        W 2367  13.264  14.028   4.080
37207W        W 2368  13.759   3.372  10.680
37208W        W 2369  39.639   5.438   1.190
37209W        W 2370  13.116  20.246  12.226
37210W        W 2371  13.994  37.419   0.473
37211W        W 2372  24.481  25.567  13.846
37212W        W 2373  31.399   0.074  10.648
37213W        W 2374  18.672  25.012  13.384
37214W        W 2375  27.671  23.553  10.635
37215W        W 2376  19.170  26.744   3.131
37216W        W 2377  36.121  44.360   2.137
37217W        W 2378  32.073   2.576   2.686
37218W        W 2379  23.263  26.659  14.341
37219W        W 2380  43.362  22.733  14.409
37220W        W 2381   8.127  16.914  11.183
37221W        W 2382   6.817   8.979   1.669
37222W        W 2383  33.400  16.253   3.661
37223W        W 2384  26.670  17.564  13.357
37224W        W 2385  28.650   8.076   1.442
37225W        W 2386   6.447  24.607   0.904
37226W        W 2387  39.924   7.805   4.269
37227W        W 2388  20.750  34.038   3.409
37228W        W 2389  33.641  16.270   1.739
37229W        W 2390   3.472  33.165  13.081
37230W        W 2391   2.981  35.357   5.099
37231W        W 2392  26.584  32.791  13.555
37232W        W 2393  11.387  21.966  12.595
37233W        W 2394  13.750  23.439  14.408
37234W        W 2395  23.040   7.917  11.277
37235W        W 2396  42.343  17.708   4.745
37236W        W 2397  23.251  30.447   1.738
37237W        W 2398  36.946  15.322   4.273
37238W        W 2399  21.161   7.240  13.885
37239W        W 2400  10.299   4.328  11.400
37240W        W 2401  22.634  35.236   4.515
37241W        W 2402  33.364  26.280   0.883
37242W        W 2403  40.519  14.225   9.785
37243W        W 2404  25.822  42.932  13.242
37244W        W 2405  16.326   7.335   3.618
37245W        W 2406  18.644   0.284  12.056
37246W        W 2407  27.068  30.514   1.653
37247W        W 2408   4.906  12.788   3.124
37248W        W 2409  34.544  15.619   2.194
37249W        W 2410   8.410  12.796  14.380
37250W        W 2411  25.554  20.038  11.246
37251W        W 2412  21.991  16.161   9.884
37252W        W 2413  41.030   2.294  14.054
37253W        W 2414  15.682   1.703  13.573
37254W        W 2415   0.813   2.484   4.672
37255W        W 2416  32.765   8.809  10.956
37256W        W 2417  15.633  44.021   1.795
37257W        W 2418  22.487  26.804   2.793
37258W        W 2419  35.732   9.989   2.160
37259W        W 2420   2.433  21.532   4.188
37260W        W 2421  39.995  19.101  12.481
37261W        W 2422   7.316   5.890   3.074
37262W        W 2423  15.112   3.158   0.074
37263W        W 2424  21.281  28.698   2.381
37264W        W 2425  11.376  31.509  14.113
37265W        W 2426  38.924  37.523   1.917
37266W        W 2427  35.064  32.902  14.093
37267W        W 2428  25.174   4.279  10.831
37268W        W 2429  37.078  17.457  12.979
37269W        W 2430  29.470  16.540   3.797
37270W        W 2431  11.594  24.602   3.813
37271W        W 2432  31.303  23.468  12.352
37272W        W 2433  24.526   8.861  14.519
37273W        W 2434   8.666  44.519  12.024
37274W        W 2435  12.175  29.884  11.169
37275W        W 2436   3.592  11.374   4.245
37276W        W 2437  28.610  23.147  12.392
37277W        W 2438  42.495  17.200   0.966
37278W        W 2439  33.360  26.051  14.047
37279W        W 2440  40.553   7.259  11.182
37280W        W 2441  10.286  23.709  12.685
37281W        W 2442   2.427  20.768   0.311
37282W        W 2443  30.703   7.389   3.207
37283W        W 2444   5.783   9.816   4.449
37284W        W 2445   8.145  29.974  13.309
37285W        W 2446  10.360  23.271  12.408
37286W        W 2447  10.347  27.231   0.883
37287W        W 2448  13.909  17.079   2.326
37288W        W 2449  33.030  10.604  12.400
37289W        W 2450  18.604  32.420  12.177
37290W        W 2451  11.254  23.098   4.052
37291W        W 2452  11.644   1.941  13.358
37292W        W 2453  31.182   3.033  10.438
37293W        W 2454   1.407  44.358   0.476
37294W        W 2455  41.930  32.876   1.840
37295W        W 2456   8.838  32.227   1.634
37296W        W 2457  12.263  12.678   4.366
37297W        W 2458  33.564  20.792   5.139
37298W        W 2459  22.235  44.389  14.218
37299W        W 2460  35.380  30.498  12.849
37300W        W 2461   7.774  12.720   3.851
37301W        W 2462  24.222   0.965  14.366
37302W        W 2463  40.258  34.205   4.265
37303W        W 2464   3.426  30.395  11.911
37304W        W 2465  19.977  12.867  14.300
37305W        W 2466  13.153   3.093   3.157
37306W        W 2467  34.143  27.888  10.026
37307W        W 2468  43.400  24.274   1.697
37308W        W 2469  28.720  42.775  14.958
37309W        W 2470  26.638  31.903  14.466
37310W        W 2471  32.883  27.727   1.794
37311W        W 2472  20.514  41.252  11.197
37312W        W 2473   8.686  43.855   4.402
37313W        W 2474  36.109  41.559  13.822
37314W        W 2475  38.951  31.578   1.286
37315W        W 2476  22.043  13.257  14.803
37316W        W 2477   3.986  39.334  14.585
37317W        W 2478  35.653  37.239   1.241
37318W        W 2479  44.336  32.492   2.934
37319W        W 2480  29.072   4.005   3.878
37320W        W 2481   0.257  23.569  11.629
37321W        W 2482  34.376  18.484   4.382
37322W        W 2483  33.492  26.261  13.599
37323W        W 2484  29.427  28.296   2.844
37324W        W 2485  24.219  18.183  11.096
37325W        W 2486  26.921   0.920  11.905
37326W        W 2487  31.596  33.231  11.560
37327W        W 2488  23.187  15.672  11.581
37328W        W 2489  21.505  43.317  11.648
37329W        W 2490  41.521  26.267   1.861
37330W        W 2491  14.185   9.824  13.104
37331W        W 2492  30.101  20.869   4.720
37332W        W 2493  31.507  12.308   1.399
37333W        W 2494  18.837  38.489   2.782
37334W        W 2495   0.905  32.209  13.496
37335W        W 2496  16.236  12.722  14.866
37336W        W 2497  21.194  11.168  13.584
37337W        W 2498   0.646  36.274  13.019
37338W        W 2499  27.465  11.363  12.563
37339W        W 2500  35.984  43.963   4.510
37340W        W 2501  19.034   5.782  12.120
37341W        W 2502  15.181  11.947   1.449
37342W        W 2503  44.807  31.909   3.275
37343W        W 2504  40.488   3.656   4.266
37344W        W 2505  27.097  37.294  10.589
37345W        W 2506   2.381  38.127   3.705
37346W        W 2507  26.982   8.593   4.981
37347W        W 2508  34.990   0.897  12.457
37348W        W 2509  20.111  38.462   4.158
37349W        W 2510  37.580  29.766   3.694
37350W        W 2511  24.096  27.641   2.190
37351W        W 2512   8.969   3.168  14.017
37352W        W 2513  31.794   8.335  14.221
37353W        W 2514  20.368  30.721   1.713
37354W        W 2515  42.464  13.613  14.439
37355W        W 2516   4.761  42.401   2.302
37356W        W 2517   1.084  20.855  12.939
37357W        W 2518  19.266  36.093  14.314
37358W        W 2519  44.288  36.604  14.470
37359W        W 2520  36.591  17.466  14.034
37360W        W 2521   0.403   5.654   0.472
37361W        W 2522   0.465   8.888  12.023
37362W        W 2523  34.709  29.649   2.310
37363W        W 2524  38.906  16.371   4.351
37364W        W 2525  18.685   2.496  11.031
37365W        W 2526  24.969   0.029   2.297
37366W        W 2527  19.549  10.830   2.211
37367W        W 2528  33.334   9.827  14.312
37368W        W 2529   4.941  27.417   1.633
37369W        W 2530  33.940  29.849   3.670
37370W        W 2531  11.867  10.728   2.632
37371W        W 2532   6.919  29.615  14.699
37372W        W 2533  38.378  32.456   2.086
37373W        W 2534  34.037   8.723  14.788
37374W        W 2535  19.208  22.089   0.259
37375W        W 2536  44.171  19.868  14.579
37376W        W 2537  13.982  28.451   0.030
37377W        W 2538  30.290  43.401  14.919
37378W        W 2539  10.788  21.827  11.139
37379W        W 2540  28.884  44.366  11.191
37380W        W 2541  22.234  31.186   2.376
37381W        W 2542   7.734  44.504  11.549
37382W        W 2543   8.244   6.623  13.771
37383W        W 2544  36.936  21.855   1.841
37384W        W 2545   9.367  12.958  11.205
37385W        W 2546  21.211  22.059  14.946
37386W        W 2547  30.128   2.398  13.408
37387W        W 2548  13.825   7.030  11.866
37388W        W 2549  16.128  41.422  12.429
37389W        W 2550  42.420  36.056  12.334
37390W        W 2551  31.878  12.095   1.099
37391W        W 2552  43.308  44.319  14.936
37392W        W 2553  44.742  24.520  10.515
37393W        W 2554  39.190   4.354  12.347
37394W        W 2555  17.567  43.425  10.715
37395W        W 2556  23.776  43.840   2.229
37396W        W 2557  36.076  43.875   1.872
37397W        W 2558  34.333  11.791   1.037
37398W        W 2559  11.871   7.738  13.052
37399W        W 2560  35.184  36.874   2.439
37400W        W 2561   1.704  26.522   4.086
37401W        W 2562  31.458  17.798  13.430
37402W        W 2563  39.106  13.628   1.019
37403W        W 2564   5.151   1.938   3.737
37404W        W 2565  11.936  10.618  11.920
37405W        W 2566   8.552  28.666   0.424
37406W        W 2567  31.389  34.941   3.141
37407W        W 2568  14.566  32.137   2.368
37408W        W 2569  37.043   9.421  11.200
37409W        W 2570  33.850  44.739   0.420
37410W        W 2571  17.536   1.783  14.876
37411W        W 2572  42.103   7.625  12.572
37412W        W 2573  27.934  16.679  10.740
37413W        W 2574  37.764  44.998  10.682
37414W        W 2575  36.134  32.313  12.008
37415W        W 2576  28.505  31.523  13.013
37416W        W 2577  38.364  40.001  11.526
37417W        W 2578  44.768  10.777  13.720
37418W        W 2579  19.667   2.605  11.651
37419W        W 2580  28.541  29.481  12.101
37420W        W 2581  12.154   6.171  12.449
37421W        W 2582  30.449  13.891   2.787
37422W        W 2583   1.458  43.903  10.438
37423W        W 2584  15.366   6.613  11.100
37424W        W 2585  25.308  34.942   4.981
37425W        W 2586  39.645  15.740  10.028
37426W        W 2587  41.955  24.535  10.446
37427W        W 2588   0.415  38.345   3.713
37428W        W 2589  19.402  39.316   4.981
37429W        W 2590  20.595  34.678   0.272
37430W        W 2591  21.131   2.519   4.124
37431W        W 2592  29.993  26.506  13.511
37432W        W 2593  11.358  39.582  12.160
37433W        W 2594  23.206   8.773  12.140
37434W        W 2595  22.145  13.893   2.656
37435W        W 2596  28.210  37.911  10.153
37436W        W 2597  42.799  22.266   3.200
37437W        W 2598   7.782  37.297  13.402
37438W        W 2599  36.544  38.536  11.112
37439W        W 2600  22.773   8.662   2.967
37440W        W 2601  26.586   1.838   4.074
37441W        W 2602  41.507  25.930   1.436
37442W        W 2603  35.338   8.420   2.691
37443W        W 2604  25.437  29.419   4.539
37444W        W 2605  37.399  10.802   0.919
37445W        W 2606  21.447   8.202   1.707
37446W        W 2607  38.378  20.575   4.657
37447W        W 2608  26.757  33.031  14.844
37448W        W 2609  24.199   8.094  10.794
37449W        W 2610  15.138  12.916  14.414
37450W        W 2611  23.529  38.553   0.698
37451W        W 2612  24.363  23.461   1.350
37452W        W 2613  28.911   1.062  12.098
37453W        W 2614  35.536   6.379  12.001
37454W        W 2615   5.607  28.160  11.478
37455W        W 2616  26.539  24.480   0.918
37456W        W 2617  17.250  24.573   3.855
37457W        W 2618  40.740   9.887   0.441
37458W        W 2619  21.042  38.587   1.935
37459W        W 2620  22.193  25.521   4.909
37460W        W 2621   8.621  16.063  14.386
37461W        W 2622  44.349   7.362   1.791
37462W        W 2623   3.452  25.099  12.998
37463W        W 2624  19.554  14.120  10.632
37464W        W 2625   5.735   0.514   2.351
37465W        W 2626  41.905  16.780  11.108
37466W        W 2627   5.919  29.665  11.662
37467W        W 2628  29.292  17.635  12.200
37468W        W 2629  42.053  42.715  11.358
37469W        W 2630   6.222  21.197   0.864
37470W        W 2631  13.580  22.334  13.406
37471W        W 2632  20.747   2.165  11.173
37472W        W 2633   1.383  16.490   4.684
37473W        W 2634  29.699  10.644   0.360
37474W        W 2635   8.251  40.525   2.892
37475W        W 2636  42.903  28.584   1.828
37476W        W 2637  30.155  17.300  13.964
37477W        W 2638   7.658   7.322  13.348
37478W        W 2639   0.368   9.688  14.814
37479W        W 2640  41.314   5.267   0.273
37480W        W 2641  12.399  19.281   0.926
37481W        W 2642  31.511  30.849   1.485
37482W        W 2643   2.352  36.041  13.900
37483W        W 2644  28.527  40.000   0.186
37484W        W 2645   0.362   9.731   3.148
37485W        W 2646  10.894  28.613  12.441
37486W        W 2647  38.952  28.958   5.076
37487W        W 2648  15.319  43.029   1.896
37488W        W 2649  18.469  30.401   3.360
37489W        W 2650   0.271   7.900   3.603
37490W        W 2651  14.419  30.959   3.190
37491W        W 2652  31.586  10.644  13.037
37492W        W 2653  12.172  42.606   5.059
37493W        W 2654   0.755  24.521   4.123
37494W        W 2655  34.342  20.854   4.051
37495W        W 2656   0.312  11.921   2.252
37496W        W 2657  31.975  29.275   2.379
37497W        W 2658  32.418   6.919  12.105
37498W        W 2659  26.699  42.365   3.134
37499W        W 2660   2.218   7.008   4.459
37500W        W 2661  36.693  24.580  13.268
37501W        W 2662  36.553  27.505  12.151
37502W        W 2663   3.233  29.471   0.400
37503W        W 2664  27.091  37.765   0.327
37504W        W 2665   9.810  27.728  13.301
37505W        W 2666  31.996   3.518   3.666
37506W        W 2667  33.211  20.653   0.918
37507W        W 2668  39.630  37.184   0.920
37508W        W 2669  31.176   2.889  11.471
37509W        W 2670  40.570  21.203  14.795
37510W        W 2671   5.852  39.838   2.355
37511W        W 2672  39.900   0.560   4.861
37512W        W 2673  43.660   2.273   3.635
37513W        W 2674  24.064  35.963   3.681
37514W        W 2675   9.421  25.872   4.820
37515W        W 2676  26.999  36.571   2.793
37516W        W 2677  26.552  17.832   3.634
37517W        W 2678  11.932  30.462  11.251
37518W        W 2679  43.209  44.791  12.539
37519W        W 2680  24.643  32.905  13.616
37520W        W 2681  33.900  20.127   4.266
37521W        W 2682  36.646  36.423  13.817
37522W        W 2683  40.386   9.408  12.941
37523W        W 2684  28.186  40.922   4.463
37524W        W 2685  34.858  21.971  11.638
37525W        W 2686  35.134  40.344  13.012
37526W        W 2687  42.307   8.460   0.332
37527W        W 2688  28.451  39.914   2.129
37528W        W 2689  13.716  15.594   4.399
37529W        W 2690  30.411  43.904   3.820
37530W        W 2691  11.879  15.236   3.630
37531W        W 2692  23.058  24.218  13.997
37532W        W 2693  31.909  42.941   3.776
37533W        W 2694  24.435  14.269  11.069
37534W        W 2695   5.354  24.543  10.863
37535W        W 2696   2.155  18.184  14.355
37536W        W 2697  23.729  15.814   1.179
37537W        W 2698  13.477   6.325  13.050
37538W        W 2699   2.734  21.709  10.925
37539W        W 2700  15.289  43.917   2.146
37540W        W 2701   7.364  39.551  13.761
37541W        W 2702   6.745  34.793   3.643
37542W        W 2703  17.272  19.526   1.462
37543W        W 2704   4.266  19.542  12.657
37544W        W 2705  10.951  11.747  10.710
37545W        W 2706   8.762   9.200   3.148
37546W        W 2707  19.166   6.224  14.040
37547W        W 2708  40.529  23.218  14.808
37548W        W 2709  27.925  11.245  11.998
37549W        W 2710  33.017  37.403   0.751
37550W        W 2711  16.279  13.264  14.754
37551W        W 2712   3.536  29.654  12.881
37552W        W 2713  34.816  35.980   3.263
37553W        W 2714  13.373  42.452  10.472
37554W        W 2715  40.245   2.672  12.559
37555W        W 2716  24.116  15.852  13.526
37556W        W 2717  33.426  34.460  14.782
37557W        W 2718   2.444  26.554   4.554
37558W        W 2719  11.983  27.050   1.957
37559W        W 2720  34.512  41.759   3.041
37560W        W 2721  33.954   8.479   1.478
37561W        W 2722  10.787  28.671   2.276
37562W        W 2723   1.868  44.226  13.822
37563W        W 2724  32.146   8.103  13.932
37564W        W 2725   3.209   7.197   3.579
37565W        W 2726  24.663   6.361  11.835
37566W        W 2727  15.541   1.036   5.034
37567W        W 2728   4.320  26.574  12.669
37568W        W 2729  36.437  23.549   2.192
37569W        W 2730  19.305   5.552  10.835
37570W        W 2731   4.277   4.304  14.348
37571W        W 2732  42.152   7.364  13.498
37572W        W 2733  31.088  39.410  11.546
37573W        W 2734   5.289  12.179   3.375
37574W        W 2735   9.040   7.914   3.115
37575W        W 2736  38.813   5.433   4.202
37576W        W 2737   3.405  27.168  11.905
37577W        W 2738  15.613   0.027   2.703
37578W        W 2739  28.206  42.475  12.570
37579W        W 2740  11.865   7.713  13.683
37580W        W 2741  37.187  28.540   2.267
37581W        W 2742  18.583  24.313  12.904
37582W        W 2743  14.251  43.814   1.890
37583W        W 2744   9.088   5.209   0.446
37584W        W 2745   8.414  28.342   0.814
37585W        W 2746  19.159  30.599   1.994
37586W        W 2747  17.101  24.527   1.979
37587W        W 2748   4.214   1.354  14.100
37588W        W 2749   7.967  30.736   3.214
37589W        W 2750  25.919   4.785   3.197
37590W        W 2751   2.232  18.782  11.217
37591W        W 2752  14.289   2.183  14.784
37592W        W 2753  11.852  36.225   4.447
37593W        W 2754  25.762  40.338   2.808
37594W        W 2755  37.824  15.771   2.356
37595W        W 2756   7.915   0.615  13.779
37596W        W 2757  43.999  15.693  14.068
37597W        W 2758  42.925  17.779   2.428
37598W        W 2759  13.678  41.810  13.180
37599W        W 2760  27.775  16.864   4.307
37600W        W 2761  43.689   5.380  11.526
37601W        W 2762   4.228  25.420  13.693
37602W        W 2763  23.815  10.705  12.667
37603W        W 2764  14.332  38.739   0.854
37604W        W 2765  31.083  15.212   1.681
37605W        W 2766  22.118  44.842   4.543
37606W        W 2767   1.825  18.269  14.877
37607W        W 2768  25.134  10.480   2.531
37608W        W 2769  20.871  13.556  13.984
37609W        W 2770  10.801   6.878   4.848
37610W        W 2771  14.658  34.465   2.883
37611W        W 2772  11.209   6.406  12.443
37612W        W 2773  34.046  40.914   4.045
37613W        W 2774  31.633  30.773   1.965
37614W        W 2775  11.285  12.204   4.187
37615W        W 2776  23.557  42.041  10.403
37616W        W 2777  43.467   5.418  10.678
37617W        W 2778  13.931  14.287   3.801
37618W        W 2779  12.781  27.382   2.752
37619W        W 2780  14.862  29.983   0.495
37620W        W 2781  41.802   5.001   3.257
37621W        W 2782  43.417  15.219   2.260
37622W        W 2783   7.298  22.188   4.903
37623W        W 2784  25.086  30.885   3.820
37624W        W 2785  33.296   2.719  14.505
37625W        W 2786   2.593  10.806  12.553
37626W        W 2787   5.033  19.907   3.244
37627W        W 2788  32.725  11.127   1.228
37628W        W 2789   2.843   6.986   4.161
37629W        W 2790  10.826  44.387   1.727
37630W        W 2791  29.470  27.631   1.723
37631W        W 2792  14.193   2.076   4.555
37632W        W 2793  19.754  24.375  10.257
37633W        W 2794   3.247  32.172   0.908
37634W        W 2795  44.652  19.811  14.393
37635W        W 2796  29.056   8.443   2.195
37636W        W 2797  40.661   0.392   4.343
37637W        W 2798  32.644  44.894   4.617
37638W        W 2799  37.075   0.763  14.472
37639W        W 2800   2.374  35.988   5.218
37640W        W 2801  22.570  18.573  13.406
37641W        W 2802   4.893   4.559   5.039
37642W        W 2803  40.598   0.763  12.549
37643W        W 2804   1.327  29.902  12.104
37644W        W 2805   0.803  40.975   0.541
37645W        W 2806  26.104  22.477   0.258
37646W        W 2807  38.777  40.228   3.059
37647W        W 2808  27.297  21.311   3.597
37648W        W 2809   6.664  10.237  14.844
37649W        W 2810  20.485  43.508   1.006
37650W        W 2811  30.008   0.046   3.614
37651W        W 2812   4.266  36.909  10.647
37652W        W 2813  31.019  12.112   4.628
37653W        W 2814  34.812   8.378  14.971
37654W        W 2815  33.854  28.611   2.125
37655W        W 2816   8.374   3.345  13.562
37656W        W 2817  31.426  14.568   3.832
37657W        W 2818   5.778  25.895   3.204
37658W        W 2819  22.578   6.356   0.891
37659W        W 2820  13.816  18.114   1.423
37660W        W 2821   7.098  18.664   0.636
37661W        W 2822  10.805  16.101  10.571
37662W        W 2823  10.758  32.975   3.971
37663W        W 2824   3.427  31.487  11.469
37664W        W 2825   9.877  29.940  10.941
37665W        W 2826   5.517  38.191   0.866
37666W        W 2827  18.171   3.669  13.100
37667W        W 2828  35.623   0.573   0.931
37668W        W 2829  27.892   0.809   2.669
37669W        W 2830  16.863   2.297  14.500
37670W        W 2831  16.226  32.586   4.472
37671W        W 2832  24.555  16.172  13.025
37672W        W 2833  24.970  15.654  13.910
37673W        W 2834   4.334  35.179  14.046
37674W        W 2835  40.744  15.821   2.852
37675W        W 2836   1.895  10.536   5.109
37676W        W 2837  21.236  19.604   0.442
37677W        W 2838  43.675   1.385   2.638
37678W        W 2839  21.570  36.094  14.718
37679W        W 2840  31.679   2.536   1.763
37680W        W 2841  24.047   6.525  12.557
37681W        W 2842  39.592   9.314   4.290
37682W        W 2843  33.999  13.825  14.487
37683W        W 2844  28.067  14.575   0.076
37684W        W 2845  26.011  32.737  11.627
37685W        W 2846  34.132  37.132   1.895
37686W        W 2847  36.832  11.802  13.363
37687W        W 2848   1.187  25.135   2.923
37688W        W 2849  26.116  26.406   4.463
37689W        W 2850  41.599  30.571   0.463
37690W        W 2851  28.970  11.164   3.672
37691W        W 2852   2.304  37.894  12.869
37692W        W 2853   4.434   9.889   0.581
37693W        W 2854   3.242  20.449  12.755
37694W        W 2855   2.650  34.920  13.989
37695W        W 2856  23.644  43.503  12.108
37696W        W 2857  23.602   0.797   2.913
37697W        W 2858  26.226   6.018   0.533
37698W        W 2859  29.804  44.273   3.760
37699W        W 2860   6.500  10.798   0.723
37700W        W 2861   5.229   7.402   1.389
37701W        W 2862  44.181  23.638   4.659
37702W        W 2863  12.874  16.158  13.813
37703W        W 2864  41.501  39.261   2.285
37704W        W 2865  18.015  14.028   3.827
37705W        W 2866  15.285  40.793   0.843
37706W        W 2867  18.399   4.261   1.943
37707W        W 2868  34.848   7.693   0.890
37708W        W 2869  25.947  28.991   3.725
37709W        W 2870  41.280  14.063   4.063
37710W        W 2871  10.358   5.029   4.993
37711W        W 2872  11.925  26.077  11.123
37712W        W 2873   3.521   0.493   0.812
37713W        W 2874   1.884  10.271   0.166
37714W        W 2875   7.387  19.289   1.952
37715W        W 2876  37.986  28.131   2.400
37716W        W 2877   6.350  43.932   4.566
37717W        W 2878  28.653  38.320  12.173
37718W        W 2879  10.816  18.488  13.330
37719W        W 2880  14.897   5.922  11.449
37720W        W 2881  41.216  23.216  12.954
37721W        W 2882  34.565  26.935   1.982
37722W        W 2883  19.573  22.902   0.771
37723W        W 2884  39.311  36.655  10.776
37724W        W 2885   7.428   5.267  13.058
37725W        W 2886  19.353  42.880   2.715
37726W        W 2887  31.043  28.135  10.532
37727W        W 2888  31.086   2.913   0.261
37728W        W 2889  11.078  38.491   2.707
37729W        W 2890  44.796  32.447   3.984
37730W        W 2891  41.638  21.964  11.966
37731W        W 2892   8.832  38.647  10.376
37732W        W 2893  43.572  37.429   2.624
37733W        W 2894  15.109   6.813   0.373
37734W        W 2895   9.370  36.493   0.483
37735W        W 2896  17.597  42.375  13.892
37736W        W 2897   6.240  28.400   1.814
37737W        W 2898   8.445   1.725  11.572
37738W        W 2899  30.432  30.463  12.043
37739W        W 2900  28.948  15.474  14.755
37740W        W 2901  27.434  40.589  13.539
37741W        W 2902  18.601   6.911  13.533
37742W        W 2903  13.287  26.572   1.940
37743W        W 2904  12.140  33.468  13.271
37744W        W 2905  28.986  40.352   3.713
37745W        W 2906   3.317   4.954   4.162
37746W        W 2907  44.435   7.366  10.981
37747W        W 2908  41.502  39.486   0.579
37748W        W 2909  31.612   7.381   2.932
37749W        W 2910  18.965   8.912   3.197
37750W        W 2911   1.442  26.116  14.026
37751W        W 2912  21.672   4.188  10.610
37752W        W 2913  39.308  36.560   2.264
37753W        W 2914  14.643  21.128  12.115
37754W        W 2915  19.310  15.789  12.652
37755W        W 2916  10.210  39.736   4.469
37756W        W 2917   1.716   1.394   2.817
37757W        W 2918   4.404  32.338   2.742
37758W        W 2919  38.518   8.388  12.891
37759W        W 2920  24.085  23.716  13.877
37760W        W 2921  22.480   1.089   2.736
37761W        W 2922   7.813  17.481   4.096
37762W        W 2923  12.795   9.564   1.772
37763W        W 2924  31.694  30.123   0.465
37764W        W 2925  26.219   5.364   0.727
37765W        W 2926   7.704   0.177  12.860
37766W        W 2927  27.268  36.976   4.367
37767W        W 2928  41.546  28.884   0.779
37768W        W 2929   2.034  19.270   4.088
37769W        W 2930   5.433  13.459   1.842
37770W        W 2931  14.220  23.254   1.273
37771W        W 2932  33.936  16.820   2.269
37772W        W 2933  32.914  23.573   0.029
37773W        W 2934  26.491  26.668  13.772
37774W        W 2935  44.961  38.876   0.818
37775W        W 2936  30.771   4.884  10.796
37776W        W 2937  40.465  26.052   3.643
37777W        W 2938  42.834   3.879   3.907
37778W        W 2939  17.802   2.698  12.300
37779W        W 2940  20.037  28.643  12.569
37780W        W 2941  29.575  12.647   3.660
37781W        W 2942  42.812  28.116   4.002
37782W        W 2943  30.483   1.459   1.068
37783W        W 2944   4.524  22.594   0.503
37784W        W 2945  20.590   4.893   3.477
37785W        W 2946   1.495  15.079   4.261
37786W        W 2947  23.428  28.158  13.213
37787W        W 2948   1.925  22.164   4.503
37788W        W 2949  42.082  16.213   3.775
37789W        W 2950  26.120  43.488   9.412
37790W        W 2951  41.992  37.120  14.881
37791W        W 2952  10.724   4.767   1.856
37792W        W 2953   2.068   6.263   2.835
37793W        W 2954  29.912  28.989   1.733
37794W        W 2955  22.458  36.462  13.511
37795W        W 2956   9.138  31.884  10.745
37796W        W 2957  18.991  37.044   3.162
37797W        W 2958   1.278  21.482  12.398
37798W        W 2959  39.796  32.749   0.894
37799W        W 2960  25.177  19.062   1.435
37800W        W 2961  26.192  40.488  13.096
37801W        W 2962  36.244  38.351  14.558
37802W        W 2963   8.383  44.243  11.699
37803W        W 2964  11.561  33.509   0.583
37804W        W 2965  32.014  37.333  12.066
37805W        W 2966  26.894   9.527   3.765
37806W        W 2967  42.998  18.393   0.624
37807W        W 2968   7.638  36.517  13.989
37808W        W 2969  41.834  21.663   0.955
37809W        W 2970  10.273  15.073  14.520
37810W        W 2971  14.637   9.537  13.158
37811W        W 2972   6.913  12.320   3.741
37812W        W 2973  42.551  31.050   0.384
37813W        W 2974  17.727  19.621   1.216
37814W        W 2975  12.133  42.663   1.271
37815W        W 2976  21.846   0.325  11.051
37816W        W 2977  11.336  22.522   3.182
37817W        W 2978  43.266  30.149   3.631
37818W        W 2979  44.007  27.895   1.296
37819W        W 2980  34.299   9.166   0.493
37820W        W 2981  42.492  16.774   0.228
37821W        W 2982  21.294  32.756   0.860
37822W        W 2983  23.434   3.508  11.060
37823W        W 2984  30.800  11.651  14.517
37824W        W 2985  41.480  37.508  12.332
37825W        W 2986  19.553  21.043   4.865
37826W        W 2987  28.473  41.977   1.052
37827W        W 2988  13.552  33.357   1.887
37828W        W 2989  37.447  32.476   0.194
37829W        W 2990   1.441   0.495   3.696
37830W        W 2991   1.277   9.929  11.933
37831W        W 2992   7.903  29.538  11.514
37832W        W 2993  18.570  21.608  13.569
37833W        W 2994  41.762  22.256   0.390
37834W        W 2995   0.883  15.856  12.527
37835W        W 2996  36.369   9.611  14.684
37836W        W 2997  40.389  35.527  13.822
37837W        W 2998  22.252  27.406   3.099
37838W        W 2999  30.175  28.619   4.021
37839W        W 3000  34.003  33.913  12.806
37840W        W 3001  40.893  28.122  11.233
37841W        W 3002   6.803  13.087   4.099
37842W        W 3003  16.100  25.522   2.413
37843W        W 3004  30.033  13.353   0.281
37844W        W 3005  42.573  24.563   2.674
37845W        W 3006  29.493  19.613   1.648
37846W        W 3007   1.717  30.822   0.027
37847W        W 3008   4.703  36.589  10.625
37848W        W 3009  20.503  15.579  13.132
37849W        W 3010  13.179  11.243   3.355
37850W        W 3011  30.842  12.821  13.322
37851W        W 3012  41.834  19.485  12.041
37852W        W 3013  19.442   6.908   3.113
37853W        W 3014  25.909   3.483   4.616
37854W        W 3015  28.922  23.459  12.085
37855W        W 3016  26.008  23.707   2.167
37856W        W 3017  34.789  28.748  12.324
37857W        W 3018  19.834  31.063  13.849
37858W        W 3019  28.704   3.926   0.576
37859W        W 3020  24.483  41.104   0.855
37860W        W 3021  12.265  34.983  11.556
37861W        W 3022   1.091   6.666  12.343
37862W        W 3023  11.701  40.470  14.905
37863W        W 3024   3.820   4.685   2.323
37864W        W 3025  35.291  15.544   0.432
37865W        W 3026   4.769  27.073   2.448
37866W        W 3027  10.224  35.322   1.125
37867W        W 3028  23.717  35.811  11.960
37868W        W 3029   5.098  34.542   2.389
37869W        W 3030  34.111   3.663  11.123
37870W        W 3031  35.974  40.964   2.634
37871W        W 3032  23.502  18.718   3.164
37872W        W 3033  22.727  18.211  12.579
37873W        W 3034   9.602  12.676   1.228
37874W        W 3035  33.586   1.209   0.384
37875W        W 3036  36.028   7.533   4.612
37876W        W 3037   0.203  29.976  12.446
37877W        W 3038  31.168  25.181   1.851
37878W        W 3039  11.722  34.595   2.809
37879W        W 3040  18.125  24.612   4.619
37880W        W 3041  14.176  39.047  13.599
37881W        W 3042  41.964  25.732  13.848
37882W        W 3043  42.559  29.417   4.268
37883W        W 3044  28.197  28.171   0.531
37884W        W 3045  35.403  27.832  13.775
37885W        W 3046  26.349  40.427   1.802
37886W        W 3047  28.591  33.680   2.705
37887W        W 3048  12.742  23.226   1.143
37888W        W 3049  40.163  15.080  12.690
37889W        W 3050   7.290  21.193   4.017
37890W        W 3051  11.227  27.274  12.934
37891W        W 3052  34.291  16.069  12.140
37892W        W 3053  24.544  24.993  14.513
37893W        W 3054  39.346   7.746  13.372
37894W        W 3055  31.692  25.242   4.938
37895W        W 3056  19.683  39.831   2.213
37896W        W 3057  44.709  35.173   2.746
37897W        W 3058  24.581  43.920   0.845
37898W        W 3059  41.321   6.609   3.155
37899W        W 3060  28.712  42.404  12.416
37900W        W 3061   9.838  28.697   1.411
37901W        W 3062  14.870  24.738   0.249
37902W        W 3063  35.107  39.026  14.421
37903W        W 3064  13.918   8.432  11.266
37904W        W 3065  35.468  22.290  13.815
37905W        W 3066  39.150  31.137   1.512
37906W        W 3067  13.591   5.831  12.405
37907W        W 3068  15.250  12.277   1.037
37908W        W 3069   9.418  11.695  12.430
37909W        W 3070  37.690   0.970   3.285
37910W        W 3071   3.020  28.002  10.709
37911W        W 3072  31.506  39.606  13.115
37912W        W 3073  17.630  44.751   3.710
37913W        W 3074   0.484   0.411   3.748
37914W        W 3075  16.593  22.704   1.864
37915W        W 3076  16.072  10.148  13.251
37916W        W 3077  44.274  43.702   0.819
37917W        W 3078  14.505   1.529   0.909
37918W        W 3079  42.151  29.160   5.318
37919W        W 3080   8.898  20.999   4.245
37920W        W 3081  19.258   7.375   0.392
37921W        W 3082  22.833  33.587  13.926
37922W        W 3083  16.578  16.035  10.625
37923W        W 3084  36.351  16.517   1.810
37924W        W 3085  16.454  18.149  10.520
37925W        W 3086  36.645  20.708   0.264
37926W        W 3087  27.281  11.779  14.465
37927W        W 3088  20.890  44.445   4.924
37928W        W 3089  22.473  17.641   4.480
37929W        W 3090  28.787  35.496  12.030
37930W        W 3091  42.379  24.594  14.046
37931W        W 3092  19.968  11.292   1.328
37932W        W 3093  17.361  19.853   4.129
37933W        W 3094   1.735  44.504   4.853
37934W        W 3095  36.508   0.155   1.376
37935W        W 3096  21.728  38.376  14.897
37936W        W 3097   2.472  35.805   1.606
37937W        W 3098  36.980   0.408   3.205
37938W        W 3099  16.255  44.366   3.699
37939W        W 3100  12.342  10.248  12.083
37940W        W 3101  13.281  34.419  12.822
37941W        W 3102   8.416  16.853   3.918
37942W        W 3103   0.922  33.903   2.336
37943W        W 3104   4.226  39.566  11.173
37944W        W 3105  23.668   1.458   2.610
37945W        W 3106  10.739  26.629  14.192
37946W        W 3107  15.668  18.205  13.013
37947W        W 3108   0.944  23.124   1.231
37948W        W 3109  21.668  12.300   4.133
37949W        W 3110  26.121   7.410   4.605
37950W        W 3111  38.631  23.251  11.251
37951W        W 3112   3.718  18.676  13.734
37952W        W 3113  20.352  17.025   0.794
37953W        W 3114  40.578   4.237  11.453
37954W        W 3115  12.278  40.820   4.506
37955W        W 3116  14.096  39.705  13.190
37956W        W 3117  32.880   8.417   1.079
37957W        W 3118  12.836   5.435  14.926
37958W        W 3119  26.565  38.535   1.791
37959W        W 3120  27.107  32.156  14.388
37960W        W 3121   1.994   9.970  12.568
37961W        W 3122  21.196  31.220   4.764
37962W        W 3123  14.565  31.179  12.505
37963W        W 3124  43.766  32.388  14.777
37964W        W 3125  13.378  34.904   3.683
37965W        W 3126  20.709  12.198   0.385
37966W        W 3127  40.846  22.253   2.368
37967W        W 3128   3.460  24.308   0.847
37968W        W 3129  30.191  43.684   2.084
37969W        W 3130   8.901  24.726   2.020
37970W        W 3131  25.976  12.883  14.164
37971W        W 3132  39.677  24.624  10.898
37972W        W 3133  17.269  30.958   4.286
37973W        W 3134  13.062  24.065   4.224
37974W        W 3135  26.461  22.975   1.214
37975W        W 3136  27.515  25.133  11.571
37976W        W 3137   5.244   3.386  14.909
37977W        W 3138  41.428   3.951   4.542
37978W        W 3139   9.283  39.863   0.905
37979W        W 3140  42.446  38.312  13.853
37980W        W 3141   9.496   9.904   0.722
37981W        W 3142  32.419  29.753  13.882
37982W        W 3143  16.308   7.454  12.813
37983W        W 3144   3.150  13.653   1.366
37984W        W 3145  25.594  33.125  12.433
37985W        W 3146  13.375   4.802  14.037
37986W        W 3147  22.762  22.752   3.290
37987W        W 3148  33.360   9.811   3.675
37988W        W 3149  42.457  17.329  10.756
37989W        W 3150  18.587  21.555   2.378
37990W        W 3151  24.220  15.382  14.413
37991W        W 3152  24.934  15.956   5.049
37992W        W 3153  14.217  40.810   9.608
37993W        W 3154   9.288  44.356  13.517
37994W        W 3155  43.238  13.623   1.323
37995W        W 3156  16.125  33.874   4.079
37996W        W 3157   9.670  14.598  10.736
37997W        W 3158  24.435   0.295  12.084
37998W        W 3159  26.674  41.960   2.825
37999W        W 3160  20.763   5.309   3.762
38000W        W 3161  20.335  26.370  14.784
38001W        W 3162  17.322  24.993   0.802
38002W        W 3163  22.870  23.977   2.713
38003W        W 3164  25.628  15.600   4.640
38004W        W 3165  18.571  21.723   1.698
38005W        W 3166  23.235  12.151  13.043
38006W        W 3167   5.155   7.977   5.044
38007W        W 3168  19.616  12.200  13.514
38008W        W 3169  17.500  42.009   1.827
38009W        W 3170  33.531   3.002  14.872
38010W        W 3171  40.929  30.129   0.820
38011W        W 3172  42.856  14.662   2.712
38012W        W 3173   4.323  38.306  10.425
38013W        W 3174   6.103  42.901   0.360
38014W        W 3175  40.992  28.371   1.176
38015W        W 3176  36.349   3.224  10.660
38016W        W 3177  26.646   8.254  10.725
38017W        W 3178  25.379  17.665   1.777
38018W        W 3179   7.600  15.686  12.490
38019W        W 3180  15.361   9.400   4.698
38020W        W 3181  22.606  27.499  11.114
38021W        W 3182   2.923   9.720   4.393
38022W        W 3183   6.151   7.121   4.534
38023W        W 3184  10.801  44.167   0.647
38024W        W 3185   8.817   3.264   1.724
38025W        W 3186  30.031  14.196   2.882
38026W        W 3187  12.399  41.731   5.021
38027W        W 3188  17.547  21.421  11.247
38028W        W 3189   4.672  37.062  12.848
38029W        W 3190  25.696  33.403   2.336
38030W        W 3191  11.054  10.285  14.876
38031W        W 3192   0.042  41.017  10.044
38032W        W 3193  35.151  40.759   1.271
38033W        W 3194  21.628  16.601  12.208
38034W        W 3195  10.912  29.921   4.171
38035W        W 3196   1.527  37.329   1.139
38036W        W 3197  38.087   7.696  13.850
38037W        W 3198  22.477  24.073  11.535
38038W        W 3199   3.267   9.306   3.709
38039W        W 3200  19.672  11.145  10.663
38040W        W 3201   5.642  17.326   1.196
38041W        W 3202  16.783  29.792  13.824
38042W        W 3203  30.447  40.302  14.691
38043W        W 3204   1.341  32.232  12.408
38044W        W 3205   5.246  29.008  11.473
38045W        W 3206  16.812   7.672   1.384
38046W        W 3207  19.275  32.072   0.498
38047W        W 3208  25.829  24.058  14.075
38048W        W 3209  32.046   3.156  13.089
38049W        W 3210  39.186   2.942  14.386
38050W        W 3211  12.322  15.775  13.317
38051W        W 3212   5.236  37.904  11.187
38052W        W 3213  29.351   4.849   2.838
38053W        W 3214  21.333   2.432   1.099
38054W        W 3215  37.321  36.069  14.938
38055W        W 3216  41.139   5.174  13.335
38056W        W 3217  36.918   9.920  12.104
38057W        W 3218  34.554  26.432   1.914
38058W        W 3219  22.677  11.208   5.146
38059W        W 3220  37.367  17.182  12.487
38060W        W 3221  17.493  11.102   4.504
38061W        W 3222  41.845  36.567   1.765
38062W        W 3223  41.514   1.815  12.473
38063W        W 3224  42.718  18.889  14.379
38064W        W 3225   9.888   7.517  14.240
38065W        W 3226  40.830  33.341   2.286
38066W        W 3227   4.750  32.607  12.021
38067W        W 3228   1.308  39.695  12.330
38068W        W 3229   3.817  39.446  12.045
38069W        W 3230  31.987  12.904  13.869
38070W        W 3231  30.123  39.015  14.025
38071W        W 3232  15.150  41.395  11.563
38072W        W 3233  19.354  14.060   2.368
38073W        W 3234  17.278  43.896  10.257
38074W        W 3235   0.698  26.878  14.145
38075W        W 3236   5.813  42.075  13.449
38076W        W 3237  17.975  30.521   3.245
38077W        W 3238  24.966   8.129  14.904
38078W        W 3239   4.251  38.224  13.406
38079W        W 3240   0.827  24.257  12.580
38080W        W 3241  11.838  44.478   1.697
38081W        W 3242  12.392   0.206  11.167
38082W        W 3243  10.203  23.674  11.145
38083W        W 3244   9.285  21.301   4.371
38084W        W 3245  30.916  33.456  11.529
38085W        W 3246  39.621   0.483  12.599
38086W        W 3247  28.685   2.112  13.441
38087W        W 3248  14.813  15.703  10.928
38088W        W 3249  15.056  26.490   3.596
38089W        W 3250  39.292   5.225  14.579
38090W        W 3251  11.279   1.841  14.385
38091W        W 3252  25.680  43.528   1.313
38092W        W 3253  16.990  36.324   2.309
38093W        W 3254  42.485  39.144  14.342
38094W        W 3255  42.592  18.337  13.935
38095W        W 3256   7.292  25.184  10.270
38096W        W 3257  22.952  23.113  14.855
38097W        W 3258   4.301  32.731   1.609
38098W        W 3259  39.088  23.274   2.443
38099W        W 3260  31.996  37.887  13.386
38100W        W 3261  36.405  35.483   1.168
38101W        W 3262  25.230  29.516   2.860
38102W        W 3263  16.622  16.401  14.770
38103W        W 3264  40.245  36.727  14.532
38104W        W 3265   0.407  19.749   2.820
38105W        W 3266  44.021   8.843   0.900
38106W        W 3267  40.464  28.067   1.312
38107W        W 3268   1.993  30.056  11.411
38108W        W 3269  26.540   0.381   3.083
38109W        W 3270  33.471  24.816  10.780
38110W        W 3271  25.690  18.100  12.445
38111W        W 3272  37.879  36.941   2.887
38112W        W 3273  32.000  33.404   0.761
38113W        W 3274  34.020  12.512   3.639
38114W        W 3275  25.094  35.482  13.474
38115W        W 3276  33.965  24.380   0.171
38116W        W 3277   4.666  23.251  11.636
38117W        W 3278  22.426  39.450   1.243
38118W        W 3279  39.926   7.589   4.747
38119W        W 3280  18.619  31.632  10.474
38120W        W 3281  19.810  38.328  10.828
38121W        W 3282  33.268   9.379  11.110
38122W        W 3283  32.120  16.831   2.275
38123W        W 3284  31.249  24.611   3.110
38124W        W 3285  19.265  22.458  14.456
38125W        W 3286  17.618  38.549  11.605
38126W        W 3287  28.170  13.350  11.164
38127W        W 3288  13.259  33.536  12.316
38128W        W 3289  12.823   6.804   1.910
38129W        W 3290  17.845   4.750  13.897
38130W        W 3291  16.686   7.356   0.923
38131W        W 3292  34.569  35.008  14.469
38132W        W 3293  37.298  34.137  12.096
38133W        W 3294  27.791  27.608   3.072
38134W        W 3295  20.653  23.453  14.769
38135W        W 3296  31.355  41.854  11.230
38136W        W 3297  19.296  40.425  12.290
38137W        W 3298  39.816  28.670   3.361
38138W        W 3299  21.808   6.917  11.486
38139W        W 3300  23.647  36.849  13.016
38140W        W 3301  39.267   4.443  13.330
38141W        W 3302   9.754  29.433   4.336
38142W        W 3303  30.863  36.046   0.424
38143W        W 3304  41.543  25.177   3.724
38144W        W 3305  23.807  20.308   2.899
38145W        W 3306  18.531   0.662  14.407
38146W        W 3307  33.822   0.160  14.741
38147W        W 3308  10.359   1.979  14.009
38148W        W 3309  34.086  15.616  10.940
38149W        W 3310  28.131  28.062  10.709
38150W        W 3311  29.038  40.787   3.401
38151W        W 3312  20.712  42.860  12.769
38152W        W 3313   0.978  42.329   3.320
38153W        W 3314  41.367  18.099  13.506
38154W        W 3315   9.526  20.464   1.822
38155W        W 3316  28.448  16.638  10.688
38156W        W 3317  41.058   3.154  10.902
38157W        W 3318   8.646   7.315  12.147
38158W        W 3319  29.955  29.558  10.654
38159W        W 3320  25.286  43.454   9.774
38160W        W 3321   4.392  42.891  14.853
38161W        W 3322  21.186  15.350  14.671
38162W        W 3323  29.165  32.473   2.682
38163W        W 3324  44.559   7.481   4.463
38164W        W 3325  11.117  38.389  13.352
38165W        W 3326  42.270  44.812   3.246
38166W        W 3327  21.203   6.288   0.276
38167W        W 3328  23.178  33.947   0.672
38168W        W 3329  14.604  37.486  12.952
38169W        W 3330  11.160  41.156  12.461
38170W        W 3331  40.083   2.447  11.017
38171W        W 3332  37.966  24.258  14.806
38172W        W 3333   4.836  18.367  14.817
38173W        W 3334  24.715   2.718   2.407
38174W        W 3335  18.659  28.180  13.874
38175W        W 3336  26.980   0.077  11.092
38176W        W 3337  25.332  10.299  13.463
38177W        W 3338   2.929  27.023  14.453
38178W        W 3339  39.904  21.722   4.634
38179W        W 3340  12.925  14.319  13.947
38180W        W 3341  10.745  15.132  11.587
38181W        W 3342   0.914  38.031   1.101
38182W        W 3343   2.254  28.742  13.503
38183W        W 3344  27.710  19.604   1.774
38184W        W 3345   4.045  21.514  13.744
38185W        W 3346   6.795   1.687  14.572
38186W        W 3347   3.900  23.804   1.675
38187W        W 3348  27.151  12.357   1.324
38188W        W 3349   5.894  33.192   0.375
38189W        W 3350   3.305  21.516   1.703
38190W        W 3351  40.040  27.132   2.839
38191W        W 3352  39.798  17.768   2.187
38192W        W 3353   5.014  23.405   2.374
38193W        W 3354  39.019  44.187   2.814
38194W        W 3355  34.369  35.034   3.753
38195W        W 3356  14.958  36.161  13.896
38196W        W 3357  14.718   4.663   4.041
38197W        W 3358  44.300  39.105  11.618
38198W        W 3359  28.180   9.270  12.112
38199W        W 3360  27.623   8.180  14.563
38200W        W 3361  32.190  26.580  11.173
38201W        W 3362  16.520  36.348   3.722
38202W        W 3363  34.349  15.113   2.699
38203W        W 3364  32.999  19.570   3.517
38204W        W 3365   5.098   8.358   3.757
38205W        W 3366   7.912  37.990   3.192
38206W        W 3367   7.818  41.272  11.952
38207W        W 3368  40.899  43.557  13.020
38208W        W 3369   3.756   1.368   3.721
38209W        W 3370  22.719  31.611  11.533
38210W        W 3371  37.216  32.462   4.183
38211W        W 3372  31.050  10.192  14.352
38212W        W 3373  42.402  35.595   1.396
38213W        W 3374  42.379   7.781   1.574
38214W        W 3375  23.235  13.963  13.851
38215W        W 3376  11.894  44.473   4.142
38216W        W 3377  23.197  11.139  11.545
38217W        W 3378  34.954   9.182  13.338
38218W        W 3379  32.506   3.691   3.170
38219W        W 3380  33.153  39.389   2.636
38220W        W 3381  42.425   0.703   2.062
38221W        W 3382   6.722   3.117  13.484
38222W        W 3383   5.806  33.530  10.772
38223W        W 3384  43.548  38.900   3.360
38224W        W 3385  14.362  32.306   0.339
38225W        W 3386  32.448  29.886   0.874
38226W        W 3387   1.799  25.639  13.325
38227W        W 3388  11.261  12.734  10.699
38228W        W 3389  27.846  23.235   0.342
38229W        W 3390  39.003  12.533   3.334
38230W        W 3391  22.175  19.100   5.062
38231W        W 3392   0.354   8.681  14.546
38232W        W 3393  13.865  22.559   2.907
38233W        W 3394  27.489  20.112  10.743
38234W        W 3395   2.240  29.094   0.376
38235W        W 3396  35.862   1.257   3.524
38236W        W 3397  36.076   5.026   3.046
38237W        W 3398  37.101   5.251  13.991
38238W        W 3399   4.456  17.013  11.629
38239W        W 3400  43.232  25.720  11.535
38240W        W 3401  18.553  25.376  12.061
38241W        W 3402  31.647  16.094   4.759
38242W        W 3403  19.403   5.809   1.776
38243W        W 3404  40.769   4.348   0.403
38244W        W 3405  20.908  42.711   3.264
38245W        W 3406   3.227   0.477  11.349
38246W        W 3407   4.837  11.134  12.924
38247W        W 3408   7.772  41.012  11.433
38248W        W 3409   1.868  35.408  11.405
38249W        W 3410  29.528  42.080  10.653
38250W        W 3411  39.804  35.425   2.797
38251W        W 3412  17.070   0.339   0.855
38252W        W 3413  19.726  16.195   0.742
38253W        W 3414  21.478  13.688  10.616
38254W        W 3415  18.224  17.747  10.666
38255W        W 3416  25.289  27.583  14.211
38256W        W 3417  26.223  44.252   1.455
38257W        W 3418  19.065  10.824  12.897
38258W        W 3419  19.646  37.835  10.708
38259W        W 3420   5.914   4.133  13.913
38260W        W 3421  34.355  28.126  14.841
38261W        W 3422   7.097  21.653   4.711
38262W        W 3423  28.128  14.911   1.439
38263W        W 3424   6.007  22.676  14.935
38264W        W 3425  20.460  42.421   3.189
38265W        W 3426  25.951  33.590  14.949
38266W        W 3427   2.176   1.364  12.891
38267W        W 3428  43.672  13.351   1.121
38268W        W 3429  31.091  21.005   0.277
38269W        W 3430  11.361   1.624   9.844
38270W        W 3431  10.213  24.473  13.716
38271W        W 3432   7.733  18.264   4.638
38272W        W 3433  28.535  20.004   2.773
38273W        W 3434  10.766  31.517   1.181
38274W        W 3435   9.915  15.882   0.848
38275W        W 3436  37.383  43.021  11.563
38276W        W 3437  26.682   9.708   4.204
38277W        W 3438  25.665  21.230   0.275
38278W        W 3439  41.880  18.614  11.947
38279W        W 3440  13.706  31.444   3.293
38280W        W 3441  38.144  38.674   1.794
38281W        W 3442  40.757  39.741  13.825
38282W        W 3443  17.688  31.736  12.408
38283W        W 3444  33.511   2.649  10.386
38284W        W 3445  33.488  20.568   2.754
38285W        W 3446  38.048  29.641  11.152
38286W        W 3447   5.222  11.098   4.801
38287W        W 3448  25.634  13.894  12.550
38288W        W 3449  27.734  36.350  11.187
38289W        W 3450   0.634  24.811   4.567
38290W        W 3451  13.106   0.824  11.581
38291W        W 3452  19.590  44.310  12.552
38292W        W 3453  10.691  21.025   4.656
38293W        W 3454   1.476  17.309   0.896
38294W        W 3455   1.675  39.292  12.340
38295W        W 3456  22.034  18.751   3.752
38296W        W 3457  18.105  22.077   4.054
38297W        W 3458  32.966  21.743  14.391
38298W        W 3459  27.896  44.760  11.012
38299W        W 3460  15.960  30.308   2.795
38300W        W 3461   8.894  19.535  10.256
38301W        W 3462   8.852   9.987  11.247
38302W        W 3463  15.017  33.435  12.343
38303W        W 3464   0.281  15.254  13.892
38304W        W 3465  43.947  37.917  13.434
38305W        W 3466   6.976  12.314   2.809
38306W        W 3467  25.330   9.864   9.828
38307W        W 3468  25.132  22.411  14.241
38308W        W 3469  13.342  37.331   3.758
38309W        W 3470  36.551  36.665  13.356
38310W        W 3471  33.903  30.903  12.592
38311W        W 3472  20.846  15.428  11.111
38312W        W 3473  35.359   8.027  11.146
38313W        W 3474   4.840   4.762  10.814
38314W        W 3475  34.358   7.382  11.159
38315W        W 3476  28.103   7.190  10.914
38316W        W 3477  38.639  25.632  13.778
38317W        W 3478   7.691  41.189   2.292
38318W        W 3479  40.906  29.204  10.644
38319W        W 3480  10.785   3.357  10.709
38320W        W 3481  11.262  13.786   3.635
38321W        W 3482  27.060   1.218   4.368
38322W        W 3483   1.542  17.323   3.120
38323W        W 3484  44.112  21.720  14.995
38324W        W 3485  37.098  28.175   4.183
38325W        W 3486  31.216   2.654   2.209
38326W        W 3487  28.378  27.005   2.681
38327W        W 3488  35.835   2.205  11.214
38328W        W 3489   5.947  19.235  14.890
38329W        W 3490  43.521   5.902  10.552
38330W        W 3491  32.780  43.288   2.249
38331W        W 3492  33.781   7.401   4.555
38332W        W 3493  25.043  44.938  11.208
38333W        W 3494  41.313  13.303  13.486
38334W        W 3495  24.424   4.265  11.568
38335W        W 3496  22.773  10.671   3.836
38336W        W 3497  39.146   8.862  11.508
38337W        W 3498   7.326  18.075  13.741
38338W        W 3499  44.743  23.078  13.302
38339W        W 3500  32.076  24.478   0.015
38340W        W 3501  38.354  27.520  11.887
38341W        W 3502  20.271  42.439  14.773
38342W        W 3503  36.922  42.808   3.637
38343W        W 3504   3.263  22.041  12.135
38344W        W 3505  19.987  22.168   0.998
38345W        W 3506  25.668  25.825   0.686
38346W        W 3507  43.391   0.008  11.134
38347W        W 3508   9.519  36.108  12.837
38348W        W 3509  18.865  10.947  11.206
38349W        W 3510   7.899  25.795  14.086
38350W        W 3511  22.276  35.957   3.274
38351W        W 3512  29.863   4.189   2.733
38352W        W 3513  41.986   9.234   4.847
38353W        W 3514   8.004  34.426   0.317
38354W        W 3515  36.275  15.835  11.663
38355W        W 3516  14.822  41.914   2.294
38356W        W 3517  15.496   9.864   1.413
38357W        W 3518   7.739  42.319  12.063
38358W        W 3519  10.405  22.421   4.567
38359W        W 3520  39.339  20.081   1.686
38360W        W 3521   1.258  42.793  11.262
38361W        W 3522   0.380  15.695  14.511
38362W        W 3523  41.454  32.516   2.413
38363W        W 3524  32.133  12.967   0.699
38364W        W 3525  15.335  35.428  14.311
38365W        W 3526   7.634  40.377  12.357
38366W        W 3527  27.567  27.604   3.564
38367W        W 3528  37.342  18.560   3.717
38368W        W 3529   8.279  23.768   3.255
38369W        W 3530  23.039   4.995  12.882
38370W        W 3531  25.395  15.201   3.221
38371W        W 3532  38.502  34.170   4.669
38372W        W 3533   2.450  32.210  10.711
38373W        W 3534  34.440  21.660  11.599
38374W        W 3535  28.082  28.340   9.988
38375W        W 3536  13.805  21.430   3.718
38376W        W 3537   0.397  37.447   0.535
38377W        W 3538  15.561  37.534   0.358
38378W        W 3539  39.614   9.606   1.720
38379W        W 3540  36.597  20.252   1.172
38380W        W 3541   9.261  14.289   1.807
38381W        W 3542  21.587   2.858   4.554
38382W        W 3543   9.891   0.781  11.873
38383W        W 3544  23.790  34.191  13.839
38384W        W 3545  22.237  37.769  13.977
38385W        W 3546   7.884  41.260   3.158
38386W        W 3547  20.823  42.250  11.128
38387W        W 3548   4.846  41.512   5.067
38388W        W 3549  30.159   1.900   1.224
38389W        W 3550  20.524   3.413  10.464
38390W        W 3551  42.531  31.053  14.512
38391W        W 3552  33.440   4.872   0.387
38392W        W 3553  22.746  26.651  14.914
38393W        W 3554   6.239   6.885   3.206
38394W        W 3555  29.184  27.846  12.830
38395W        W 3556   2.505  39.972   4.573
38396W        W 3557  30.696  12.081  10.700
38397W        W 3558  36.665  24.601  11.037
38398W        W 3559  36.486  29.460   3.213
38399W        W 3560  21.160  21.398   2.554
38400W        W 3561  13.208  32.855  14.032
38401W        W 3562  25.047  36.078  10.615
38402W        W 3563   5.204  25.889  12.863
38403W        W 3564   3.267  17.952   2.427
38404W        W 3565   9.817  24.672   1.375
38405W        W 3566  18.754   5.296  12.056
38406W        W 3567  36.839  10.714  10.860
38407W        W 3568  13.680  32.638  14.015
38408W        W 3569  19.798  34.001   1.327
38409W        W 3570   7.751  25.678  12.073
38410W        W 3571  34.555  22.531  10.568
38411W        W 3572  11.639   6.902   2.851
38412W        W 3573  42.454  39.233  11.877
38413W        W 3574  30.268   9.722   1.722
38414W        W 3575  42.304  10.965   1.792
38415W        W 3576  21.579  42.916  13.751
38416W        W 3577  40.210  35.355  12.498
38417W        W 3578   6.219  23.627   4.588
38418W        W 3579   1.065  17.066  10.693
38419W        W 3580  36.670  16.076   3.756
38420W        W 3581   9.640   4.851   0.730
38421W        W 3582  25.457  21.123   4.768
38422W        W 3583  14.359  34.398  11.086
38423W        W 3584   4.503  35.420   4.495
38424W        W 3585  14.446   3.467   2.810
38425W        W 3586  40.405  44.243   0.456
38426W        W 3587  37.308   1.282  13.055
38427W        W 3588   7.378  14.651  14.797
38428W        W 3589  31.094  15.171  14.769
38429W        W 3590  10.147  42.322   3.282
38430W        W 3591  38.520  40.735   0.544
38431W        W 3592   4.670   4.355   1.920
38432W        W 3593  16.175  15.203   0.707
38433W        W 3594   2.793  30.709  12.440
38434W        W 3595   9.921  44.340  14.404
38435W        W 3596  38.748  36.471  13.435
38436W        W 3597   2.259  17.780   3.169
38437W        W 3598  39.647  44.800  11.084
38438W        W 3599  37.499  11.447   4.396
38439W        W 3600  28.103  14.598  13.906
38440W        W 3601   6.673  30.995   0.872
38441W        W 3602  35.445  12.124   3.691
38442W        W 3603   9.181  29.733   2.734
38443W        W 3604   8.595  27.383  10.110
38444W        W 3605   6.330   5.265  10.580
38445W        W 3606  18.468  11.543   3.726
38446W        W 3607   4.193   5.302   2.158
38447W        W 3608  34.311  41.311   1.261
38448W        W 3609   4.172   6.910   2.356
38449W        W 3610  18.789   3.364  14.371
38450W        W 3611  13.631  32.102  11.943
38451W        W 3612  43.967  35.451  13.615
38452W        W 3613   2.950   5.648   3.811
38453W        W 3614  27.251  28.068   2.731
38454W        W 3615  25.436  26.843   2.208
38455W        W 3616   5.435   4.157   0.258
38456W        W 3617  43.497  32.923   5.427
38457W        W 3618  25.692  27.556  11.625
38458W        W 3619  28.008  15.569   4.164
38459W        W 3620   1.749   7.839   1.847
38460W        W 3621  31.475  36.051  12.012
38461W        W 3622  40.821  11.833   0.269
38462W        W 3623   6.829   9.350   3.168
38463W        W 3624  10.475  23.030   2.235
38464W        W 3625  34.091  43.441  12.133
38465W        W 3626  19.594  43.520   3.087
38466W        W 3627  14.573  30.518  13.167
38467W        W 3628   4.920  22.513   2.409
38468W        W 3629   5.093  37.673  10.719
38469W        W 3630  19.728  25.265   0.182
38470W        W 3631   9.489  12.900  14.324
38471W        W 3632  44.788  35.387  14.595
38472W        W 3633   2.876  32.505  14.751
38473W        W 3634  42.273  20.053   0.728
38474W        W 3635  17.056  28.858  14.457
38475W        W 3636  16.267  27.125  10.969
38476W        W 3637  40.430  19.636   3.709
38477W        W 3638   1.274  23.670  12.059
38478W        W 3639   2.284  37.865  11.436
38479W        W 3640  23.656   8.343  11.232
38480W        W 3641   9.098  29.393  14.039
38481W        W 3642  35.388  36.330  12.876
38482W        W 3643  11.852  25.104  12.349
38483W        W 3644  18.512   3.316  11.555
38484W        W 3645  40.991  43.367  14.048
38485W        W 3646  34.459  10.361  13.052
38486W        W 3647  33.726  27.132   4.273
38487W        W 3648  43.762  29.861  12.591
38488W        W 3649  19.750  23.015   4.267
38489W        W 3650  37.869  12.205   3.964
38490W        W 3651  32.997   2.703   5.008
38491W        W 3652  23.705   0.331  14.716
38492W        W 3653  42.441   2.952  12.167
38493W        W 3654   7.663  43.440  11.766
38494W        W 3655   4.025   1.827   1.132
38495W        W 3656  20.580  38.044  10.654
38496W        W 3657   5.555  44.554  12.361
38497W        W 3658  43.832  34.890   4.225
38498W        W 3659  41.343  31.201   3.527
38499W        W 3660  41.719  14.446  10.346
38500W        W 3661  15.298  23.737   1.879
38501W        W 3662  22.641  37.434   1.813
38502W        W 3663  16.022  12.473  12.994
38503W        W 3664  30.943   0.993   0.445
38504W        W 3665   4.744  17.819  11.544
38505W        W 3666  29.989  18.766   1.582
38506W        W 3667  32.828  43.040  10.807
38507W        W 3668  40.484  36.802   3.301
38508W        W 3669  34.809  38.016  12.467
38509W        W 3670  20.873  39.523  11.290
38510W        W 3671   3.714  10.717  10.705
38511W        W 3672  19.428  44.423   0.237
38512W        W 3673  28.718  22.595  10.176
38513W        W 3674  11.365  10.131  10.821
38514W        W 3675  11.761   8.652  11.012
38515W        W 3676  41.024  19.590  13.764
38516W        W 3677  24.101  27.164  12.403
38517W        W 3678   4.860  16.519   0.371
38518W        W 3679  11.221   4.707  13.097
38519W        W 3680  30.128  28.840  13.473
38520W        W 3681  39.928  32.340   1.203
38521W        W 3682  40.982  11.001  12.032
38522W        W 3683  26.127  23.099  11.308
38523W        W 3684  17.689   1.665  11.447
38524W        W 3685  26.047  12.335  14.286
38525W        W 3686   3.026  32.694   1.320
38526W        W 3687   5.919  14.881  11.506
38527W        W 3688  25.661   7.360  10.784
38528W        W 3689  10.193  16.111  12.531
38529W        W 3690  42.691  21.534   1.348
38530W        W 3691   4.008   9.616  14.579
38531W        W 3692  12.685  27.431  13.848
38532W        W 3693   1.249  27.772  10.601
38533W        W 3694  31.160  42.427  10.256
38534W        W 3695  32.608  33.413  12.647
38535W        W 3696  43.426  24.010  11.161
38536W        W 3697   0.273  37.433   0.059
38537W        W 3698  40.735  43.828  14.038
38538W        W 3699  10.811  22.991   1.833
38539W        W 3700  21.991  32.988  12.145
38540W        W 3701   1.675  21.297  11.468
38541W        W 3702  23.135  11.342  10.540
38542W        W 3703  16.195  18.250   2.603
38543W        W 3704  14.705   8.426   0.900
38544W        W 3705   8.620   4.073  11.565
38545W        W 3706  30.076  34.449  14.736
38546W        W 3707  38.297  44.324   1.422
38547W        W 3708  39.076  11.717   3.651
38548W        W 3709  24.662  10.246   1.233
38549W        W 3710  24.958  10.699   1.235
38550W        W 3711  33.083  31.087   0.410
38551W        W 3712  39.886  40.093   4.253
38552W        W 3713  33.766  34.002   0.523
38553W        W 3714  17.748  41.520   2.774
38554W        W 3715  38.099  15.270  13.387
38555W        W 3716  34.243  33.741   4.842
38556W        W 3717  25.692   6.382   4.298
38557W        W 3718  27.705   1.888   0.035
38558W        W 3719  21.699   9.406  14.607
38559W        W 3720   1.507  28.215  13.464
38560W        W 3721   5.310   1.858  11.977
38561W        W 3722  25.999   4.586  10.563
38562W        W 3723  22.504   2.329  11.534
38563W        W 3724  26.690  37.477   1.803
38564W        W 3725  32.838  13.161  13.866
38565W        W 3726   9.774   3.678  12.517
38566W        W 3727  23.097   9.808  11.708
38567W        W 3728  31.064   9.287  12.399
38568W        W 3729  11.365  36.654  14.535
38569W        W 3730  36.484  25.618  10.887
38570W        W 3731  16.086  22.611  14.958
38571W        W 3732  18.730   9.694   4.045
38572W        W 3733  27.661  18.159   4.700
38573W        W 3734  28.463  27.808  14.586
38574W        W 3735  18.831  32.107  13.142
38575W        W 3736  43.981  18.423   1.557
38576W        W 3737  16.105  18.851   0.611
38577W        W 3738  35.961  15.712  14.333
38578W        W 3739  15.837   9.050  14.796
38579W        W 3740  29.276  18.262   2.805
38580W        W 3741  32.324  33.048  14.845
38581W        W 3742  33.433  19.016  13.527
38582W        W 3743  19.628  19.504  13.068
38583W        W 3744  44.007   8.351   4.664
38584W        W 3745  18.462  11.664  14.356
38585W        W 3746  41.468   8.412   4.682
38586W        W 3747   4.383  21.931  13.848
38587W        W 3748  26.625  44.203  10.938
38588W        W 3749  29.372  17.501   9.938
38589W        W 3750   6.512   3.318  10.650
38590W        W 3751  13.692   3.250  13.034
38591W        W 3752   0.705   6.425  14.287
38592W        W 3753  20.899  36.428   4.980
38593W        W 3754   9.473   1.904   2.206
38594W        W 3755  44.202  31.072  11.592
38595W        W 3756  34.826   0.984  11.163
38596W        W 3757  30.020  37.475  11.140
38597W        W 3758   9.391   9.211  14.517
38598W        W 3759  23.493  37.345   3.862
38599W        W 3760  31.296  11.558   3.955
38600W        W 3761  21.757   8.883   1.882
38601W        W 3762  23.745  28.776  14.988
38602W        W 3763   5.431  32.548   3.664
38603W        W 3764   9.172  38.025  10.419
38604W        W 3765  39.426  25.123   0.648
38605W        W 3766   4.639  30.041  10.694
38606W        W 3767  35.334  24.549   4.294
38607W        W 3768  28.854  17.673  11.396
38608W        W 3769  18.304  20.913   0.694
38609W        W 3770  24.329  30.111   1.690
38610W        W 3771   4.827  24.975  10.356
38611W        W 3772  29.094  20.017  14.985
38612W        W 3773  36.979   8.174  14.504
38613W        W 3774   6.326  22.245   4.841
38614W        W 3775  36.476   2.693   0.361
38615W        W 3776   8.343  24.591  12.966
38616W        W 3777  16.833  34.912   0.867
38617W        W 3778  16.377   5.945   3.656
38618W        W 3779   5.247   7.182   4.349
38619W        W 3780   9.210  29.885   0.803
38620W        W 3781  23.857   8.834   3.533
38621W        W 3782  27.160   0.239   3.800
38622W        W 3783  27.954   2.657   3.234
38623W        W 3784  36.970  39.589   0.253
38624W        W 3785  42.020  41.522   0.930
38625W        W 3786   1.852   7.631  13.458
38626W        W 3787   9.508  41.510   3.556
38627W        W 3788  34.299  11.139  11.668
38628W        W 3789  18.703  32.649   4.677
38629W        W 3790  40.513  44.768   4.508
38630W        W 3791   6.803  34.699  12.058
38631W        W 3792   9.749  18.316  14.804
38632W        W 3793  28.521  24.103   4.685
38633W        W 3794  29.657   9.697   1.376
38634W        W 3795  43.563   8.724  12.471
38635W        W 3796  10.917  33.864  14.355
38636W        W 3797  41.899   8.803  14.034
38637W        W 3798  19.619  18.227  13.327
38638W        W 3799   1.422   6.859  11.029
38639W        W 3800   4.371  11.810  13.778
38640W        W 3801  44.855   8.113   3.892
38641W        W 3802  36.536   7.996  10.847
38642W        W 3803   6.806  43.915  13.339
38643W        W 3804  16.640  36.599   1.334
38644W        W 3805  13.618   9.711   1.304
38645W        W 3806  40.899  29.671  13.392
38646W        W 3807   0.848  31.991   2.379
38647W        W 3808  39.341  13.173  12.477
38648W        W 3809  26.157  21.745   3.609
38649W        W 3810  11.721  25.516  11.084
38650W        W 3811  22.337   1.888  12.642
38651W        W 3812  23.040  20.737   2.852
38652W        W 3813   2.418  24.721  12.086
38653W        W 3814  35.855  21.686   0.485
38654W        W 3815  13.558  10.552  13.319
38655W        W 3816  38.425  34.406  14.362
38656W        W 3817  17.848   5.510  14.966
38657W        W 3818  25.128  30.618   0.262
38658W        W 3819  12.309   1.293   2.411
38659W        W 3820  32.402  41.352  12.926
38660W        W 3821  31.130  30.053   1.401
38661W        W 3822  29.101   9.785  11.247
38662W        W 3823   2.794  32.429  14.242
38663W        W 3824   3.914  33.790   0.234
38664W        W 3825  43.396  34.161  11.581
38665W        W 3826  25.912   7.323   1.603
38666W        W 3827  30.681  23.682   2.178
38667W        W 3828  20.090  41.527   2.355
38668W        W 3829   6.524   1.814   2.778
38669W        W 3830  13.731  37.173  10.715
38670W        W 3831  13.650  19.925   3.669
38671W        W 3832  27.160  12.099   0.454
38672W        W 3833  24.117   0.460   0.469
38673W        W 3834  28.703   3.510  14.816
38674W        W 3835  36.118  28.176  12.447
38675W        W 3836   0.717   7.076  11.280
38676W        W 3837  31.265   0.372   1.316
38677W        W 3838  31.472  20.601   3.797
38678W        W 3839  41.012   3.651  14.873
38679W        W 3840  36.369  10.726  13.934
38680W        W 3841   6.884  14.643  11.658
38681W        W 3842   3.036  12.907   0.453
38682W        W 3843  34.169  28.995   0.566
38683W        W 3844   5.991  41.684   0.325
38684W        W 3845  29.402   1.494  14.006
38685W        W 3846   7.708   1.591   2.052
38686W        W 3847  39.750  11.816   0.860
38687W        W 3848  43.346   7.112  11.542
38688W        W 3849  36.943  16.176   3.326
38689W        W 3850  18.476   9.344   2.714
38690W        W 3851  28.644  25.323  13.736
38691W        W 3852  29.142  23.341   0.435
38692W        W 3853   9.476  10.753  10.648
38693W        W 3854  40.525  16.013  13.259
38694W        W 3855  25.678  19.589  11.519
38695W        W 3856  23.482  15.922   2.028
38696W        W 3857   9.588  27.138   1.620
38697W        W 3858   1.056  37.637   2.374
38698W        W 3859  20.300  15.164   3.115
38699W        W 3860  27.912  12.838  14.237
38700W        W 3861  34.458  33.361  14.533
38701W        W 3862  32.831  36.294   4.991
38702W        W 3863  10.760  29.570  14.594
38703W        W 3864  17.361  33.029  13.112
38704W        W 3865  12.640  28.588  10.388
38705W        W 3866   0.286   2.237   4.444
38706W        W 3867   2.957   8.913   3.824
38707W        W 3868   8.758  16.269   1.502
38708W        W 3869  43.446  30.159  14.918
38709W        W 3870  27.681  12.379  13.445
38710W        W 3871  28.022  42.082   4.681
38711W        W 3872  32.627   2.744   1.695
38712W        W 3873   7.416  33.286  14.473
38713W        W 3874   3.274   2.298  11.402
38714W        W 3875  40.505   6.303  13.482
38715W        W 3876  33.049  43.460  13.486
38716W        W 3877  17.091   5.858   0.564
38717W        W 3878   1.467   7.730   2.882
38718W        W 3879  12.735  20.415   3.731
38719W        W 3880  10.735  43.882   4.332
38720W        W 3881  37.526  12.571  11.477
38721W        W 3882  28.249   8.321  11.196
38722W        W 3883   1.329   7.807  14.195
38723W        W 3884  20.756   4.961   1.867
38724W        W 3885  22.641   2.019  14.886
38725W        W 3886  35.978   6.221   4.068
38726W        W 3887  13.525  42.313   4.445
38727W        W 3888   7.655  41.560  14.708
38728W        W 3889  31.179   7.708  11.770
38729W        W 3890  10.331  12.584   1.863
38730W        W 3891   4.183  25.009  11.163
38731W        W 3892  29.691  22.505  14.272
38732W        W 3893  34.838   7.197  11.167
38733W        W 3894  33.027  19.899  11.546
38734W        W 3895  10.143  28.560  11.926
38735W        W 3896  40.815  41.290   2.807
38736W        W 3897  30.829   3.371  14.832
38737W        W 3898  17.217  23.522   0.498
38738W        W 3899  32.237  26.363   0.757
38739W        W 3900  28.917  14.862   1.715
38740W        W 3901  12.477  16.004   4.673
38741W        W 3902   6.383  21.177  13.017
38742W        W 3903   9.780  33.786   3.948
38743W        W 3904  41.757  41.852  13.453
38744W        W 3905  38.414   9.144  13.902
38745W        W 3906  43.904   7.758   4.715
38746W        W 3907  36.564  39.942  12.589
38747W        W 3908  10.172  22.160   0.945
38748W        W 3909  41.180   7.538   2.332
38749W        W 3910  24.017  11.138   0.922
38750W        W 3911  18.638   8.781  14.761
38751W        W 3912  44.457  17.786  10.769
38752W        W 3913  40.594  30.697   2.239
38753W        W 3914  24.213   8.863   0.487
38754W        W 3915  29.949  11.720  10.898
38755W        W 3916   7.787  30.394   2.867
38756W        W 3917  19.240  18.407   1.294
38757W        W 3918  29.638  31.479   4.577
38758W        W 3919  40.628  13.487   2.761
38759W        W 3920  42.329  33.392   3.881
38760W        W 3921  10.602  31.103   2.907
38761W        W 3922  44.555   2.964  13.364
38762W        W 3923  40.176   5.807   0.357
38763W        W 3924  10.333  39.416  14.435
38764W        W 3925  17.788  14.363   1.279
38765W        W 3926   7.415  24.971  12.060
38766W        W 3927  17.573   1.891  12.908
38767W        W 3928   3.805  26.794  14.296
38768W        W 3929  40.758  34.148   4.128
38769W        W 3930  43.492   1.794  10.718
38770W        W 3931  35.307  21.752   1.373
38771W        W 3932  32.942  36.602   4.042
38772W        W 3933   7.803  14.393  11.915
38773W        W 3934  14.281  31.905   3.576
38774W        W 3935  15.058  43.751   4.147
38775W        W 3936  30.961  17.780   4.311
38776W        W 3937  19.947  43.635   0.589
38777W        W 3938  26.764  15.296   2.115
38778W        W 3939  30.666  30.463   4.620
38779W        W 3940   5.918  20.570  14.494
38780W        W 3941  33.603  26.776  11.921
38781W        W 3942   0.943  34.941   3.291
38782W        W 3943  29.479   8.165  11.744
38783W        W 3944  26.305  37.898  14.059
38784W        W 3945  19.759  12.587  12.865
38785W        W 3946   4.839  28.511  14.387
38786W        W 3947  20.636  43.087   0.219
38787W        W 3948  42.775  35.492  11.055
38788W        W 3949  17.290  33.676  12.124
38789W        W 3950  17.337  44.323   3.674
38790W        W 3951   0.376  16.167  14.344
38791W        W 3952  37.517   5.275  14.555
38792W        W 3953  38.372  26.056  12.872
38793W        W 3954   9.059  24.847  11.413
38794W        W 3955   4.930  10.298   4.667
38795W        W 3956  15.465  17.829   0.979
38796W        W 3957  31.946   0.280   2.408
38797W        W 3958  20.075   5.246   0.944
38798W        W 3959  12.890   2.878  13.860
38799W        W 3960  21.214  29.838   0.458
38800W        W 3961   0.369   2.148   0.310
38801W        W 3962   1.169  25.109   0.500
38802W        W 3963  39.401  17.536   3.116
38803W        W 3964  11.899  40.919  10.817
38804W        W 3965  15.240  27.495   0.208
38805W        W 3966  16.551  20.179   0.129
38806W        W 3967   8.881   1.759  14.900
38807W        W 3968  10.762   6.428  13.483
38808W        W 3969  35.392  24.264  14.544
38809W        W 3970  15.631  38.619  13.545
38810W        W 3971  39.799  26.834   4.625
38811W        W 3972  43.753  33.341   0.241
38812W        W 3973  10.679  35.987  14.433
38813W        W 3974  37.939   3.442   3.659
38814W        W 3975  30.221   6.649   0.463
38815W        W 3976   7.698   7.823   1.854
38816W        W 3977  39.533  18.822  13.351
38817W        W 3978  36.609  43.736   3.733
38818W        W 3979   0.886  14.825  12.556
38819W        W 3980  40.051  30.682  13.357
38820W        W 3981  30.358  32.523   1.436
38821W        W 3982   9.638  19.236   1.007
38822W        W 3983  33.621  42.919  11.057
38823W        W 3984  42.812  13.564   2.741
38824W        W 3985   8.222   3.812   2.340
38825W        W 3986  28.373  39.303  11.072
38826W        W 3987  25.614  30.105  10.657
38827W        W 3988   4.913   1.890  10.802
38828W        W 3989  16.669   3.833   3.249
38829W        W 3990  28.011  20.061   3.649
38830W        W 3991  32.885  34.496   3.266
38831W        W 3992  15.889  34.460  14.996
38832W        W 3993  36.482  19.155  13.004
38833W        W 3994  40.276  43.285   3.290
38834W        W 3995  16.698  37.548  12.796
38835W        W 3996  19.364  22.619   1.442
38836W        W 3997  10.892  24.757   2.782
38837W        W 3998  22.081   0.811  14.794
38838W        W 3999   2.751  39.506   4.734
38839W        W 4000  22.954  25.592  10.706
38840W        W 4001   2.742  24.204  11.081
38841W        W 4002  26.924  39.516  12.525
38842W        W 4003   2.699  12.127   4.093
38843W        W 4004  27.676  43.048  10.724
38844W        W 4005   2.454  24.511   2.720
38845W        W 4006  24.894  10.929   2.671
38846W        W 4007   0.719  44.735  12.513
38847W        W 4008  18.805  34.389  13.952
38848W        W 4009   8.890   5.423   3.153
38849W        W 4010  18.232  39.577  14.514
38850W        W 4011  40.952  43.227  14.567
38851W        W 4012  18.571  13.862  10.436
38852W        W 4013  11.747  30.479   0.981
38853W        W 4014  12.847  34.415   1.309
38854W        W 4015  37.969   4.415  10.520
38855W        W 4016  34.005  43.516  10.668
38856W        W 4017   1.154  38.777   2.677
38857W        W 4018  30.385  35.461  14.380
38858W        W 4019  21.304  36.887   2.527
38859W        W 4020  18.630  33.005  14.938
38860W        W 4021  13.795  20.437   3.377
38861W        W 4022   7.410  38.564  14.819
38862W        W 4023  42.595  35.536  14.791
38863W        W 4024  27.975  44.237   2.827
38864W        W 4025   4.406  28.170  12.124
38865W        W 4026  31.577  27.695  10.735
38866W        W 4027  23.584  21.699   0.324
38867W        W 4028   4.934  17.612   2.845
38868W        W 4029  10.971  11.409   4.582
38869W        W 4030  25.444  23.627   0.183
38870W        W 4031  31.200  36.045  12.471
38871W        W 4032  11.906  30.781  11.657
38872W        W 4033  28.538  40.038   3.608
38873W        W 4034  11.703  25.730  14.508
38874W        W 4035  42.724  34.800  13.588
38875W        W 4036  32.093  17.985  11.115
38876W        W 4037  33.511   9.225  10.665
38877W        W 4038  40.758  43.000   2.875
38878W        W 4039  18.533  16.188   2.736
38879W        W 4040  34.843  15.772  14.389
38880W        W 4041  38.508  37.097   0.246
38881W        W 4042  25.284  38.132  12.472
38882W        W 4043  39.599  14.679  14.941
38883W        W 4044  39.782  25.563  13.969
38884W        W 4045  36.915  41.914   9.689
38885W        W 4046  22.458  36.207   3.684
38886W        W 4047  14.646  36.086   4.070
38887W        W 4048  26.083   0.617  14.444
38888W        W 4049  36.617  36.824   2.214
38889W        W 4050  13.681  34.870   4.586
38890W        W 4051  25.251   1.408   0.242
38891W        W 4052   0.057  23.528   3.263
38892W        W 4053  40.527  16.804   3.936
38893W        W 4054  41.404   6.697   0.891
38894W        W 4055  24.258  32.008   2.650
38895W        W 4056  32.875  14.872   2.387
38896W        W 4057  11.977  15.705  10.356
38897W        W 4058  23.425  30.053   1.460
38898W        W 4059  12.887   4.761  11.517
38899W        W 4060  38.311  17.123   4.322
38900W        W 4061  10.773  24.976  12.076
38901W        W 4062  35.878  42.528   4.385
38902W        W 4063  24.211  20.998   2.756
38903W        W 4064  21.146  38.528  14.210
38904W        W 4065  29.588  12.368  13.752
38905W        W 4066  35.392  18.938   3.708
38906W        W 4067  10.274   3.388   3.581
38907W        W 4068  30.409   0.671  14.465
38908W        W 4069  20.279  27.153   4.303
38909W        W 4070  11.531  13.658  10.911
38910W        W 4071  31.544  42.773  11.094
38911W        W 4072  30.033  14.645  10.704
38912W        W 4073  36.408   3.449   4.685
38913W        W 4074  21.844   1.971  12.519
38914W        W 4075  24.050  15.090   1.398
38915W        W 4076   0.845  19.521   1.606
38916W        W 4077   4.667   7.252  12.179
38917W        W 4078  15.377  16.824  14.427
38918W        W 4079  22.505  28.726   4.832
38919W        W 4080  17.267  44.131  13.920
38920W        W 4081  13.946  25.638  11.498
38921W        W 4082  35.370  13.432   3.199
38922W        W 4083  41.280  39.602  14.739
38923W        W 4084  44.437  38.631  12.470
38924W        W 4085  40.453  28.927   3.885
38925W        W 4086  17.755  18.171  14.322
38926W        W 4087  14.201  11.766  12.807
38927W        W 4088  41.736   0.930  14.689
38928W        W 4089  29.151  21.916   3.726
38929W        W 4090  42.683  12.195   3.203
38930W        W 4091  29.977  31.884   0.502
38931W        W 4092  11.915  21.609   0.385
38932W        W 4093  31.990  35.522   2.875
38933W        W 4094  19.234   5.961   4.492
38934W        W 4095  24.568  18.135   0.312
38935W        W 4096  27.188   0.650  14.764
38936W        W 4097  14.807  27.479  11.255
38937W        W 4098   3.733   8.773  12.626
38938W        W 4099   1.926  27.172   1.270
38939W        W 4100  21.828  30.598  12.962
38940W        W 4101  33.543  35.081   2.859
38941W        W 4102  21.535  40.076   4.133
38942W        W 4103  10.327  22.042  11.938
38943W        W 4104  12.331  11.930  11.644
38944W        W 4105  11.858  32.652  14.212
38945W        W 4106  26.917  33.543  13.999
38946W        W 4107   5.801  35.332  11.515
38947W        W 4108  18.391   8.519   3.674
38948W        W 4109  41.317  21.435   3.475
38949W        W 4110  35.501  10.197   2.608
38950W        W 4111  30.485   5.341  11.659
38951W        W 4112   2.690   3.681   3.587
38952W        W 4113  34.637  32.040   4.044
38953W        W 4114  38.983   1.990  14.517
38954W        W 4115  16.179  26.533  14.007
38955W        W 4116  16.590  42.940   2.659
38956W        W 4117  43.324  31.455   0.797
38957W        W 4118  43.792  22.065  12.628
38958W        W 4119  10.685   4.396  13.451
38959W        W 4120  10.257  11.376   3.074
38960W        W 4121   6.021  38.037  12.136
38961W        W 4122  35.800  43.783   0.618
38962W        W 4123  12.799   4.805   1.847
38963W        W 4124  20.616   5.492   3.250
38964W        W 4125  39.829   4.000   4.042
38965W        W 4126  31.107   7.954   0.334
38966W        W 4127  16.785  38.429   3.627
38967W        W 4128  24.962   4.551   2.163
38968W        W 4129   6.840  18.393  10.484
38969W        W 4130  38.315  38.829   4.249
38970W        W 4131  33.536  12.633   5.295
38971W        W 4132  43.081  23.174   3.470
38972W        W 4133  17.770  38.461   3.689
38973W        W 4134  20.712  18.658   2.889
38974W        W 4135   4.547  14.552  10.724
38975W        W 4136  31.682  38.201   4.750
38976W        W 4137  19.127  36.555  13.416
38977W        W 4138   7.389  18.258   0.767
38978W        W 4139  15.107   7.628  11.965
38979W        W 4140   9.287  35.982  10.352
38980W        W 4141  16.596  20.609   4.586
38981W        W 4142  34.203  39.082   1.903
38982W        W 4143   9.799  41.998   1.955
38983W        W 4144  36.180  23.688   3.646
38984W        W 4145  24.063   9.408  12.909
38985W        W 4146  14.000  25.160  12.099
38986W        W 4147  34.791  35.121  11.655
38987W        W 4148  44.356   9.858  11.206
38988W        W 4149  21.997   8.276  12.812
38989W        W 4150  19.870  43.405   1.810
38990W        W 4151   6.330  10.717  11.262
38991W        W 4152   7.769  15.707   3.714
38992W        W 4153  38.057  11.865   0.495
38993W        W 4154  25.449  15.225  11.892
38994W        W 4155  37.099  30.883   4.352
38995W        W 4156   1.332  16.093  14.360
38996W        W 4157  41.879  10.591  14.472
38997W        W 4158  43.108  42.187  11.352
38998W        W 4159  37.982  33.559  10.136
38999W        W 4160  11.659  11.192   0.445
39000W        W 4161  17.386  13.179  10.779
39001W        W 4162  29.537  32.025   3.742
39002W        W 4163  20.147  32.875  13.070
39003W        W 4164  44.712  13.879  12.946
39004W        W 4165   7.733  28.415   2.884
39005W        W 4166   3.494  18.125  14.796
39006W        W 4167  20.507  31.221  14.509
39007W        W 4168  25.887  29.915   2.829
39008W        W 4169  40.733  11.205   4.742
39009W        W 4170   2.643  43.907  14.841
39010W        W 4171  27.220   2.895   2.696
39011W        W 4172  20.718  37.375   2.233
39012W        W 4173  43.483  28.065   2.143
39013W        W 4174  32.631  34.825  13.252
39014W        W 4175   6.510  28.580  11.235
39015W        W 4176  40.184  37.791  14.855
39016W        W 4177  39.557  40.164   2.614
39017W        W 4178   4.428  11.083   4.543
39018W        W 4179   9.476  41.782  10.545
39019W        W 4180   6.400  27.590   1.953
39020W        W 4181  19.281  12.400   0.355
39021W        W 4182  30.277  13.892   4.603
39022W        W 4183  18.543  10.740  13.925
39023W        W 4184   5.164   8.787  11.655
39024W        W 4185  12.187  39.856   1.283
39025W        W 4186  18.780  20.044  12.542
39026W        W 4187  32.895   6.922   4.334
39027W        W 4188  28.156  10.868   4.712
39028W        W 4189   1.960   4.718   0.895
39029W        W 4190   1.374  12.559   2.350
39030W        W 4191  30.957  27.150   1.843
39031W        W 4192  38.891  16.607   0.052
39032W        W 4193  23.163  42.363   2.791
39033W        W 4194   1.869  28.537  14.661
39034W        W 4195  25.332   9.683  12.521
39035W        W 4196  34.635  27.265   4.227
39036W        W 4197  33.818  10.315   1.241
39037W        W 4198  43.345  35.552   1.796
39038W        W 4199  35.986  28.074  11.674
39039W        W 4200   5.379   1.018   1.763
39040W        W 4201  44.798  13.352   0.430
39041W        W 4202  28.492   9.239  14.207
39042W        W 4203  31.047  16.581  11.061
39043W        W 4204   5.766  31.323   3.229
39044W        W 4205  35.519  14.030   0.818
39045W        W 4206  22.239  18.158  10.112
39046W        W 4207   0.217  30.580   2.163
39047W        W 4208  38.834  17.095  11.613
39048W        W 4209  37.987  17.851   3.403
39049W        W 4210  29.151  19.172  13.424
39050W        W 4211  38.987  22.970  10.677
39051W        W 4212  16.333  33.151  12.033
39052W        W 4213  27.125  12.209  14.130
39053W        W 4214  24.604   1.450   2.656
39054W        W 4215  31.617  14.707  11.134
39055W        W 4216   4.516   9.186   4.193
39056W        W 4217   7.139   3.167  11.494
39057W        W 4218  14.916  41.880  14.780
39058W        W 4219   1.017  29.656   9.980
39059W        W 4220  22.092  30.077  14.956
39060W        W 4221  36.230   6.994   1.831
39061W        W 4222  16.733  40.797   6.281
39062W        W 4223   6.241  36.515   3.063
39063W        W 4224  23.271  19.500  13.721
39064W        W 4225  44.366   4.062  11.620
39065W        W 4226  24.767  31.670   0.266
39066W        W 4227  23.407  38.629  13.720
39067W        W 4228  41.850  38.589  11.682
39068W        W 4229  40.976  23.032  11.473
39069W        W 4230  19.406  22.261   5.354
39070W        W 4231   5.497  31.248  10.586
39071W        W 4232  26.482  26.270   4.765
39072W        W 4233   2.903  44.452  13.114
39073W        W 4234  16.087  15.941   2.899
39074W        W 4235  12.234  38.564   0.756
39075W        W 4236  25.994  39.962   0.930
39076W        W 4237  43.057  16.186  11.060
39077W        W 4238  42.776  38.323   1.405
39078W        W 4239   0.697  24.468   2.049
39079W        W 4240  25.457   2.269  11.167
39080W        W 4241  18.348  19.119  13.563
39081W        W 4242  40.861  38.804  10.790
39082W        W 4243   0.338   2.340   2.486
39083W        W 4244   8.938  25.164   4.972
39084W        W 4245  19.605  35.638   4.056
39085W        W 4246  20.994  13.050  14.001
39086W        W 4247  10.617  30.671  13.985
39087W        W 4248  37.410  38.875   2.759
39088W        W 4249  16.974  42.172   5.405
39089W        W 4250  38.569  43.000   4.925
39090W        W 4251   4.122   6.996  13.997
39091W        W 4252  21.586  40.807   0.618
39092W        W 4253   6.446  26.230  11.766
39093W        W 4254  25.409  43.665   3.603
39094W        W 4255   4.022  11.178  10.350
39095W        W 4256  17.009  33.869   3.580
39096W        W 4257  33.333  18.690   4.400
39097W        W 4258   6.413  30.016  12.008
39098W        W 4259   6.412  18.635   4.599
39099W        W 4260   2.647   9.914  13.866
39100W        W 4261  23.971  17.258   2.728
39101W        W 4262   4.769  22.448   0.929
39102W        W 4263  34.773   3.859  12.644
39103W        W 4264  42.406   5.387   2.839
39104W        W 4265   7.131  15.583   3.051
39105W        W 4266  27.431  15.150  12.018
39106W        W 4267  33.505  35.549  11.087
39107W        W 4268  34.894  18.556   2.952
39108W        W 4269  37.724   9.688  13.062
39109W        W 4270  12.854  14.785   1.322
39110W        W 4271  11.393  38.942   1.811
39111W        W 4272   5.910  15.721   2.527
39112W        W 4273  16.232  31.053  13.911
39113W        W 4274   7.712  23.644   9.996
39114W        W 4275  14.698  10.053   3.282
39115W        W 4276  21.420  35.949  12.806
39116W        W 4277  32.327  15.753   1.789
39117W        W 4278   9.981  19.691  12.437
39118W        W 4279  27.660   3.548  12.915
39119W        W 4280  18.938   5.579  13.594
39120W        W 4281   6.821   5.897   2.859
39121W        W 4282  32.063  24.686  12.929
39122W        W 4283  43.661  40.756   4.955
39123W        W 4284   4.931   1.422  12.625
39124W        W 4285   5.354  25.677   4.068
39125W        W 4286  13.371  39.453  12.671
39126W        W 4287  18.331  26.582  13.521
39127W        W 4288  12.249   7.689   2.733
39128W        W 4289   6.229  41.952   2.152
39129W        W 4290   0.694  24.179   2.951
39130W        W 4291  17.328  42.794  13.667
39131W        W 4292   3.302  42.118  13.832
39132W        W 4293  29.144  31.853  11.544
39133W        W 4294  44.755  27.968   4.673
39134W        W 4295  23.441  25.724  14.883
39135W        W 4296  43.953  16.574  12.432
39136W        W 4297  34.161  40.580  13.863
39137W        W 4298   3.409  14.405   5.079
39138W        W 4299  38.922  18.839   0.199
39139W        W 4300  35.780  17.780   1.834
39140W        W 4301  41.879  17.373   2.460
39141W        W 4302   9.370   8.301   0.314
39142W        W 4303  11.590   6.161   3.249
39143W        W 4304  38.285  24.730  13.370
39144W        W 4305  21.513  43.421   4.897
39145W        W 4306   3.371   6.466  13.467
39146W        W 4307  39.600  26.607   1.152
39147W        W 4308  39.099  37.103   0.951
39148W        W 4309  29.497  39.335   3.215
39149W        W 4310  33.910  40.294   2.340
39150W        W 4311  31.997   4.742  10.548
39151W        W 4312  14.166  44.663   0.611
39152W        W 4313   9.788  18.125  12.910
39153W        W 4314  37.243  43.381   1.802
39154W        W 4315  30.887   4.715   4.131
39155W        W 4316  14.046  41.600   4.108
39156W        W 4317  18.713   7.887   0.922
39157W        W 4318   0.782   3.508   4.860
39158W        W 4319  12.340  33.902   4.571
39159W        W 4320   8.412  17.152   1.595
39160W        W 4321  40.974  36.075   4.300
39161W        W 4322   4.324  13.392  14.739
39162W        W 4323  35.814   2.872  12.587
39163W        W 4324  12.837   9.106   2.757
39164W        W 4325  22.684  24.670   4.349
39165W        W 4326  30.148  23.643   1.287
39166W        W 4327  34.606  24.472  11.133
39167W        W 4328  18.815  10.573   3.806
39168W        W 4329  44.837  14.598  10.689
39169W        W 4330  14.578  28.522  10.722
39170W        W 4331  16.620  26.869   2.115
39171W        W 4332  18.409  39.813  12.500
39172W        W 4333  30.765   3.896   4.476
39173W        W 4334  29.942  33.183   0.017
39174W        W 4335   5.333  11.247  14.989
39175W        W 4336  10.868   2.940  12.855
39176W        W 4337   6.443  42.081   3.011
39177W        W 4338  14.117  17.332  14.049
39178W        W 4339  14.628  43.811  13.141
39179W        W 4340  24.222  36.039  11.550
39180W        W 4341   2.818   9.112  12.994
39181W        W 4342  12.282  16.885   4.014
39182W        W 4343  40.120  29.918   2.685
39183W        W 4344  21.135  39.943   2.245
39184W        W 4345  27.786  37.517   3.112
39185W        W 4346  42.890  21.907   2.836
39186W        W 4347  10.669  16.718  10.552
39187W        W 4348  23.040   8.705  10.331
39188W        W 4349  27.010  33.462  10.240
39189W        W 4350  31.075  15.086  13.415
39190W        W 4351  10.602  15.743   3.141
39191W        W 4352  41.428  33.632   2.422
39192W        W 4353  15.648  32.609   1.463
39193W        W 4354  43.568  20.460   4.291
39194W        W 4355   1.271  37.582   3.496
39195W        W 4356  37.175   8.346   0.813
39196W        W 4357   6.306   9.498  10.675
39197W        W 4358   1.188  25.147   2.397
39198W        W 4359  34.551  26.930  13.635
39199W        W 4360  34.097  34.094  11.932
39200W        W 4361  42.501  42.335   4.587
39201W        W 4362  29.565  17.071  14.895
39202W        W 4363  14.119  31.422  11.523
39203W        W 4364  19.496  44.932  11.093
39204W        W 4365  13.751  42.214   1.332
39205W        W 4366  18.225  10.225  12.848
39206W        W 4367  11.127   1.436   0.011
39207W        W 4368  15.634  11.993   1.847
39208W        W 4369  22.620  25.734  11.971
39209W        W 4370  24.590  18.881   4.605
39210W        W 4371  34.434  28.405  13.104
39211W        W 4372  11.486   7.859  10.863
39212W        W 4373  20.914  12.561  13.413
39213W        W 4374  42.422   8.256  11.293
39214W        W 4375  29.391  43.637  11.094
39215W        W 4376  30.013  40.253  14.956
39216W        W 4377   1.226   7.910   1.833
39217W        W 4378   5.022  34.575   1.008
39218W        W 4379  11.795  20.659   0.437
39219W        W 4380  22.978   9.729   4.125
39220W        W 4381  39.873  12.758   4.478
39221W        W 4382  13.789  42.010   0.432
39222W        W 4383   4.827  36.244   4.604
39223W        W 4384   8.816  19.501  14.871
39224W        W 4385   3.858  19.273  13.082
39225W        W 4386  38.562  22.046  13.961
39226W        W 4387  33.909   4.842  13.203
39227W        W 4388  13.565   7.751   4.201
39228W        W 4389  43.272   6.609  14.190
39229W        W 4390   0.163   0.535   1.821
39230W        W 4391  37.578  44.845   3.575
39231W        W 4392   0.779  24.379   0.237
39232W        W 4393  41.498   2.775  12.897
39233W        W 4394  14.595  10.729   4.717
39234W        W 4395  44.296  44.394   3.832
39235W        W 4396  10.200   8.945  14.560
39236W        W 4397   5.761  38.621  14.205
39237W        W 4398  34.119  22.645   4.547
39238W        W 4399  24.453   8.285  14.810
39239W        W 4400  32.184  19.111  13.995
39240W        W 4401  28.440  16.568   4.896
39241W        W 4402   0.745   1.562   0.728
39242W        W 4403  35.480  25.609   2.702
39243W        W 4404  38.955   9.781   0.507
39244W        W 4405  29.784  13.343   3.471
39245W        W 4406  11.880  39.946  14.979
39246W        W 4407  15.134  18.837  11.957
39247W        W 4408   7.325  37.503  11.542
39248W        W 4409  31.134  31.804   1.793
39249W        W 4410  41.783   0.003   1.993
39250W        W 4411   1.706  29.501   4.132
39251W        W 4412  12.189  18.745   4.484
39252W        W 4413  27.185  23.934   2.244
39253W        W 4414  37.013   1.826  13.546
39254W        W 4415   4.963  20.753  13.367
39255W        W 4416  18.751   5.478  14.085
39256W        W 4417  24.230  20.139   1.229
39257W        W 4418  39.249  16.472   2.328
39258W        W 4419  31.943   9.079  11.536
39259W        W 4420  10.656  33.096   1.209
39260W        W 4421  35.996  30.346  10.996
39261W        W 4422   4.210  43.058   2.727
39262W        W 4423  27.916   2.493   1.413
39263W        W 4424   4.691   3.369   0.731
39264W        W 4425  11.303  20.131   2.349
39265W        W 4426  22.323  14.154   0.284
39266W        W 4427  18.416  32.563   0.120
39267W        W 4428   9.809  10.196   1.441
39268W        W 4429  19.652  37.414   3.544
39269W        W 4430  21.965  16.746   4.611
39270W        W 4431   7.906  43.354  14.272
39271W        W 4432   6.955  39.940  12.026
39272W        W 4433  22.262  41.545   4.239
39273W        W 4434   3.050  36.519   1.104
39274W        W 4435   7.468  23.442   2.224
39275W        W 4436  14.586  12.614   0.682
39276W        W 4437  27.077  13.137  13.763
39277W        W 4438  36.002  17.734  10.539
39278W        W 4439   1.648  44.591  11.144
39279W        W 4440  42.335  22.622   3.858
39280W        W 4441   6.318  18.178  13.998
39281W        W 4442  39.347  20.306  11.565
39282W        W 4443  23.257  23.070  10.944
39283W        W 4444  38.396   6.842  14.953
39284W        W 4445  12.642   8.904   4.740
39285W        W 4446  20.092  44.951   2.866
39286W        W 4447  17.532  36.457  14.301
39287W        W 4448  15.693  42.385  14.446
39288W        W 4449  20.022   7.684  14.974
39289W        W 4450  22.166  21.702  12.033
39290W        W 4451  31.964  14.853   1.328
39291W        W 4452  30.779  40.855   5.480
39292W        W 4453  40.794  35.493   2.766
39293W        W 4454  14.898  39.312  11.555
39294W        W 4455  27.077  21.184  14.301
39295W        W 4456  26.418  12.143   2.371
39296W        W 4457  38.606  38.996  13.463
39297W        W 4458   7.639   3.331  10.513
39298W        W 4459  10.799  14.612  12.343
39299W        W 4460   4.419  12.865   3.229
39300W        W 4461  33.724  26.509  11.026
39301W        W 4462  34.378   5.468  11.663
39302W        W 4463  11.642  38.796  13.825
39303W        W 4464  40.290  10.899   0.002
39304W        W 4465   6.867  41.366   4.922
39305W        W 4466  13.774  37.633  11.695
39306W        W 4467   2.868  14.346   5.050
39307W        W 4468   9.668  24.391   2.364
39308W        W 4469  11.143  15.606   4.737
39309W        W 4470  32.477  15.330   2.145
39310W        W 4471  35.367  21.354  11.237
39311W        W 4472  14.488  12.999  11.088
39312W        W 4473  25.664  26.453  10.685
39313W        W 4474  35.147  14.537  14.904
39314W        W 4475   2.383  19.733   3.376
39315W        W 4476  42.444   3.900  14.288
39316W        W 4477  17.517   2.385   1.283
39317W        W 4478  37.668  36.853   1.499
39318W        W 4479  13.737  41.020   0.230
39319W        W 4480   7.751  42.267  14.347
39320W        W 4481   2.343  34.681  10.374
39321W        W 4482   8.721  41.388  11.542
39322W        W 4483  37.811   8.134   3.010
39323W        W 4484   4.443   8.044   1.280
39324W        W 4485  33.559  19.003  14.434
39325W        W 4486  44.916  36.251   2.790
39326W        W 4487  11.504  39.239   2.841
39327W        W 4488  21.555  17.249  13.863
39328W        W 4489  21.668   6.059   0.329
39329W        W 4490  40.439  12.580  11.751
39330W        W 4491  44.402  36.556  11.930
39331W        W 4492  31.827  26.179  11.900
39332W        W 4493  37.963  16.791  14.008
39333W        W 4494   9.107   2.849   4.718
39334W        W 4495  44.700  11.890   1.163
39335W        W 4496  14.660  26.654   2.239
39336W        W 4497  44.230   8.437   3.694
39337W        W 4498  39.659  15.021  10.800
39338W        W 4499  26.445   5.965   3.717
39339W        W 4500   3.472  37.331   4.338
39340W        W 4501   0.013  15.912   1.267
39341W        W 4502  22.239   2.886  13.953
39342W        W 4503  35.667  22.164   0.614
39343W        W 4504  16.745  35.588   3.278
39344W        W 4505  37.572   3.380   0.223
39345W        W 4506  19.727  35.824  14.360
39346W        W 4507   1.371  30.507  12.411
39347W        W 4508  41.322  15.962   4.577
39348W        W 4509  10.601  42.507  13.488
39349W        W 4510  27.971  31.316  11.092
39350W        W 4511  24.077  38.377  13.978
39351W        W 4512  30.630  18.288  12.837
39352W        W 4513   5.169  29.393   3.334
39353W        W 4514  12.198   4.880   4.590
39354W        W 4515  37.621  17.311   0.799
39355W        W 4516   8.963  21.274   5.142
39356W        W 4517  37.917  32.372  14.005
39357W        W 4518  36.504  18.990  12.091
39358W        W 4519  19.144  40.264   2.610
39359W        W 4520  33.849  36.247  11.991
39360W        W 4521  30.382   2.220   4.114
39361W        W 4522  39.416   4.287   4.279
39362W        W 4523  31.022  33.216   3.154
39363W        W 4524  36.870  32.663   2.187
39364W        W 4525   1.012  33.038   1.168
39365W        W 4526  18.108  13.100  14.895
39366W        W 4527  16.587  35.442   2.001
39367W        W 4528  19.406  16.381  10.489
39368W        W 4529   8.321  42.456   0.277
39369W        W 4530  20.237  13.708  14.783
39370W        W 4531   0.268  37.861   2.929
39371W        W 4532  29.634  43.425   1.300
39372W        W 4533  32.639  43.853  11.797
39373W        W 4534  33.556  11.848  14.991
39374W        W 4535  10.810  25.428   3.697
39375W        W 4536  17.579  31.019  11.103
39376W        W 4537   2.048  11.663   4.451
39377W        W 4538   9.700  33.237   2.702
39378W        W 4539  41.402  36.865  13.049
39379W        W 4540  24.011   5.736  11.737
39380W        W 4541  15.060   9.852  11.628
39381W        W 4542  32.334  36.812  12.893
39382W        W 4543  30.877  17.065   0.236
39383W        W 4544  43.411  10.784  13.469
39384W        W 4545   9.595  43.188  10.176
39385W        W 4546  22.980   2.608  14.241
39386W        W 4547  28.953  18.054   2.354
39387W        W 4548  44.508   7.761  14.419
39388W        W 4549   0.519   2.366  11.982
39389W        W 4550  10.751  14.914   2.640
39390W        W 4551  14.262   5.814  13.890
39391W        W 4552  11.599  21.705  12.209
39392W        W 4553  27.205   9.429   1.245
39393W        W 4554   9.069  40.800   2.908
39394W        W 4555  37.008  41.353   0.833
39395W        W 4556   6.444  12.212  12.485
39396W        W 4557  33.635   8.934  11.103
39397W        W 4558  24.570  31.771  12.655
39398W        W 4559  23.521  31.513   1.215
39399W        W 4560  11.326  11.126   1.748
39400W        W 4561  28.530  19.083   0.957
39401W        W 4562  38.893   7.681   4.962
39402W        W 4563  28.687  28.214   4.077
39403W        W 4564  18.102  24.653   0.249
39404W        W 4565  24.494  44.848   4.411
39405W        W 4566  26.485  44.880  11.129
39406W        W 4567  15.297  13.858  10.432
39407W        W 4568  29.818   2.706  14.796
39408W        W 4569  30.315   8.861   1.810
39409W        W 4570  10.891  35.152   4.575
39410W        W 4571  43.650  31.574  12.122
39411W        W 4572  22.439  33.012   3.535
39412W        W 4573  43.063  23.295   1.735
39413W        W 4574  12.571  12.577   2.305
39414W        W 4575  12.824  33.356  13.513
39415W        W 4576   5.312  29.101   4.278
39416W        W 4577  16.445  34.026  13.198
39417W        W 4578  10.930  15.846   4.102
39418W        W 4579  26.761   6.207   4.063
39419W        W 4580  32.902   1.262   1.726
39420W        W 4581  31.597  20.720   1.725
39421W        W 4582   3.112  15.377  14.577
39422W        W 4583  37.920   6.136  11.597
39423W        W 4584  23.992  14.445   2.166
39424W        W 4585   0.047  19.381   3.592
39425W        W 4586  20.591  22.710  13.391
39426W        W 4587  42.546   2.890   3.385
39427W        W 4588   4.224   1.004   4.604
39428W        W 4589  14.587   6.811  12.498
39429W        W 4590  42.939   8.687  10.659
39430W        W 4591  43.914  11.847  13.964
39431W        W 4592  33.452   4.740   2.450
39432W        W 4593  12.959   4.580   4.896
39433W        W 4594  24.893  27.668   2.688
39434W        W 4595   6.917  34.807  12.618
39435W        W 4596  35.743  33.604   1.532
39436W        W 4597   0.362  17.596  12.097
39437W        W 4598  39.920  28.380   0.175
39438W        W 4599  36.550  15.030  12.547
39439W        W 4600  29.842  28.935  13.050
39440W        W 4601  15.435  13.411   2.875
39441W        W 4602  32.173  17.251   0.896
39442W        W 4603  34.554   1.897  12.748
39443W        W 4604   0.095  17.006   2.320
39444W        W 4605  10.796  26.223  13.870
39445W        W 4606   5.592   8.286   0.284
39446W        W 4607  38.361  26.277   1.385
39447W        W 4608  43.411  12.386  10.464
39448W        W 4609  32.024  32.923   3.346
39449W        W 4610   5.623  36.371   1.909
39450W        W 4611  11.300  29.162   3.644
39451W        W 4612  10.779  38.403   0.946
39452W        W 4613  36.370  10.128   4.538
39453W        W 4614  16.493   4.803   4.122
39454W        W 4615   2.693  19.280   1.355
39455W        W 4616  27.705  34.068   2.915
39456W        W 4617  26.914  26.242   0.710
39457W        W 4618  20.094   7.785  11.544
39458W        W 4619  31.879   0.920   4.158
39459W        W 4620  33.503  25.743   4.122
39460W        W 4621  44.445   8.664  12.615
39461W        W 4622   9.089  39.003  10.669
39462W        W 4623  17.553  29.807   4.426
39463W        W 4624  11.292  37.546   1.280
39464W        W 4625   3.928  35.522  13.967
39465W        W 4626   6.450  11.323  14.764
39466W        W 4627  31.120  12.071  10.984
39467W        W 4628  40.336  29.876   4.852
39468W        W 4629  16.126  28.403   1.600
39469W        W 4630  22.970  16.932  11.152
39470W        W 4631  22.188  40.060  14.409
39471W        W 4632  15.841  33.427   2.336
39472W        W 4633  37.869  32.812   0.327
39473W        W 4634  31.059  13.102  12.590
39474W        W 4635  29.286  27.715   4.833
39475W        W 4636  38.268   8.116  14.074
39476W        W 4637   3.853  40.373  12.455
39477W        W 4638  18.346   9.293   0.786
39478W        W 4639  28.198   3.263  14.068
39479W        W 4640  21.479  24.114   9.424
39480W        W 4641  18.591  40.246  12.737
39481W        W 4642   1.872  16.155   4.502
39482W        W 4643   2.881  11.297   3.206
39483W        W 4644   0.006  16.345   2.164
39484W        W 4645   0.268   2.355   1.969
39485W        W 4646  43.194  32.168  11.494
39486W        W 4647  42.343  28.402   4.630
39487W        W 4648  38.405  24.516  14.344
39488W        W 4649  34.816  18.151  13.833
39489W        W 4650  34.921  17.504  12.540
39490W        W 4651   2.869  41.456   4.140
39491W        W 4652  23.729   2.571   0.855
39492W        W 4653  26.423  28.895   1.871
39493W        W 4654   6.570  15.741   0.404
39494W        W 4655  27.195   4.482   1.843
39495W        W 4656   1.030  11.716  13.958
39496W        W 4657  21.991  29.196   2.776
39497W        W 4658   3.239  34.097   1.388
39498W        W 4659  38.308  25.057  13.813
39499W        W 4660  16.778  36.555   2.738
39500W        W 4661  29.133  41.624   3.676
39501W        W 4662  38.915  15.311  10.275
39502W        W 4663  43.491  26.658  14.959
39503W        W 4664   6.405  23.675   0.742
39504W        W 4665  33.124  24.520  12.053
39505W        W 4666  37.169  17.359   0.552
39506W        W 4667   9.192  16.524   1.439
39507W        W 4668  13.789   1.206  12.538
39508W        W 4669  34.271   6.750   3.537
39509W        W 4670  42.872  44.278  11.575
39510W        W 4671  16.007  30.606  12.953
39511W        W 4672  42.736  38.970  14.970
39512W        W 4673  18.839  39.585  12.340
39513W        W 4674  20.009  44.949   1.296
39514W        W 4675   4.347  30.707  14.809
39515W        W 4676  37.426  16.010  13.291
39516W        W 4677  22.864  41.765   9.794
39517W        W 4678   7.258   3.704  13.789
39518W        W 4679   9.888   3.307   1.711
39519W        W 4680  30.926  10.662   1.340
39520W        W 4681  37.439  22.070   0.812
39521W        W 4682   2.927   0.820   2.237
39522W        W 4683  31.865  39.447   1.426
39523W        W 4684  41.969  14.163   3.390
39524W        W 4685  34.823  19.799   3.215
39525W        W 4686  24.635  34.311   1.935
39526W        W 4687  14.780  39.732   0.361
39527W        W 4688  21.724  44.552   3.741
39528W        W 4689  35.481   5.837   2.351
39529W        W 4690   3.011  34.182   0.156
39530W        W 4691  12.158  37.930   3.316
39531W        W 4692  42.586  26.002   2.821
39532W        W 4693  12.205   5.671  12.451
39533W        W 4694  35.349  10.249  12.008
39534W        W 4695  30.864  40.017   0.511
39535W        W 4696  29.845   5.790   0.353
39536W        W 4697  40.079  29.439  11.112
39537W        W 4698  28.680  25.392  12.082
39538W        W 4699   9.244  23.869  11.707
39539W        W 4700  30.756  29.406  11.697
39540W        W 4701   8.716  17.171   3.657
39541W        W 4702  26.630  37.985   1.968
39542W        W 4703  24.266  13.334  11.416
39543W        W 4704  25.337  10.563   4.018
39544W        W 4705  33.172  12.094  14.296
39545W        W 4706   3.436  32.131  13.079
39546W        W 4707   0.824  34.150  10.577
39547W        W 4708   1.943  11.315   0.240
39548W        W 4709  44.955  21.533  14.791
39549W        W 4710  29.208   1.186   2.835
39550W        W 4711  15.528  26.809  12.937
39551W        W 4712  32.380  34.523   3.416
39552W        W 4713  14.540  34.012   4.648
39553W        W 4714   1.633  30.420   1.326
39554W        W 4715   9.862  25.110   1.973
39555W        W 4716  41.837  25.805  10.750
39556W        W 4717  34.886   0.755   4.419
39557W        W 4718  19.985  13.374   0.777
39558W        W 4719  44.249  44.410   0.232
39559W        W 4720  25.706   0.348  11.143
39560W        W 4721   3.403  22.546   2.198
39561W        W 4722  18.062  39.607   1.237
39562W        W 4723  12.834  26.167   0.890
39563W        W 4724  34.627  29.151   2.171
39564W        W 4725  32.214  32.958   4.666
39565W        W 4726  21.783  27.861  12.644
39566W        W 4727   9.919  32.559  13.538
39567W        W 4728  33.541  24.842  14.296
39568W        W 4729  37.245  44.985  12.123
39569W        W 4730  20.718  12.083   1.257
39570W        W 4731   1.045  44.499  12.890
39571W        W 4732  20.336   0.834   2.234
39572W        W 4733  28.221   3.732   2.627
39573W        W 4734   7.423  38.037  14.875
39574W        W 4735  17.268  43.494   4.179
39575W        W 4736  41.428  29.091  14.304
39576W        W 4737  13.409  38.731  14.497
39577W        W 4738   6.743   7.514   1.937
39578W        W 4739  27.058   4.713   0.735
39579W        W 4740  14.422  14.800  14.346
39580W        W 4741   6.852  29.412  10.685
39581W        W 4742  32.882   1.039   2.652
39582W        W 4743  43.242   7.835   2.253
39583W        W 4744  21.126  31.659  13.926
39584W        W 4745   1.917  35.229   3.220
39585W        W 4746  11.513  33.609   3.635
39586W        W 4747  34.386  26.530   4.541
39587W        W 4748  28.598  16.805   3.929
39588W        W 4749  13.733  44.266  11.620
39589W        W 4750   3.936  13.136  10.518
39590W        W 4751  24.339  11.667  12.254
39591W        W 4752  16.139  13.288   2.259
39592W        W 4753  28.653  42.418   0.344
39593W        W 4754   0.872  20.084  12.589
39594W        W 4755  31.558  29.022  14.344
39595W        W 4756   1.002  11.186  13.936
39596W        W 4757  26.981   7.272  13.444
39597W        W 4758   8.738   9.248  14.915
39598W        W 4759  16.711  29.916   2.868
39599W        W 4760  23.269  10.165  12.039
39600W        W 4761  18.411  41.118   9.572
39601W        W 4762  15.700   9.195  10.601
39602W        W 4763  10.843  16.828   4.056
39603W        W 4764  31.168  29.136   1.267
39604W        W 4765  34.867  25.067  12.041
39605W        W 4766   9.651   7.349   0.814
39606W        W 4767   6.790  32.325  13.444
39607W        W 4768   2.838   2.681   2.890
39608W        W 4769  12.431  43.051  12.574
39609W        W 4770  41.480  22.600   1.244
39610W        W 4771   5.947  18.553  13.397
39611W        W 4772  18.122   9.059  12.025
39612W        W 4773  30.412  23.435   0.900
39613W        W 4774  32.359  27.271  14.346
39614W        W 4775  36.820  40.458   0.874
39615W        W 4776  33.335  34.153   1.445
39616W        W 4777   7.625  38.245  11.939
39617W        W 4778  41.965  16.770  12.459
39618W        W 4779  32.146  41.913  13.578
39619W        W 4780   9.111  27.083  13.835
39620W        W 4781  35.420  31.466   4.702
39621W        W 4782  18.130  16.948   1.255
39622W        W 4783  23.500  44.846   0.375
39623W        W 4784  22.936  11.323   1.125
39624W        W 4785  21.494  17.084  12.330
39625W        W 4786   2.283  40.331  10.643
39626W        W 4787  40.940  26.794  12.463
39627W        W 4788   2.309  16.124  11.667
39628W        W 4789  23.027  31.227   1.823
39629W        W 4790  27.506  38.452  13.005
39630W        W 4791  30.716  19.586  11.699
39631W        W 4792  13.083  44.141  10.957
39632W        W 4793  21.309   5.907   1.890
39633W        W 4794  25.758  26.800  13.748
39634W        W 4795  16.602  31.708  13.677
39635W        W 4796  11.825  17.549   3.684
39636W        W 4797  28.940  19.389   1.014
39637W        W 4798  27.028  18.319  11.591
39638W        W 4799   3.248  16.190  12.844
39639W        W 4800  23.589  26.837  13.348
39640W        W 4801   6.390  32.069  14.873
39641W        W 4802  29.157  13.429   4.185
39642W        W 4803  43.781  23.708   1.721
39643W        W 4804  18.897  44.328   1.452
39644W        W 4805  36.515   5.751   4.577
39645W        W 4806  40.591   5.587   0.055
39646W        W 4807  39.703  19.287   2.097
39647W        W 4808   4.372  11.736  10.799
39648W        W 4809  38.735  34.904  11.655
39649W        W 4810   7.406   9.299  11.728
39650W        W 4811  20.624  24.435   3.317
39651W        W 4812  16.759   0.830  13.708
39652W        W 4813   0.755  13.537  14.778
39653W        W 4814  17.165  26.349   1.365
39654W        W 4815  43.800   7.634  12.148
39655W        W 4816  36.535   0.791  13.609
39656W        W 4817  43.648  26.992   2.777
39657W        W 4818  44.415  31.290   4.203
39658W        W 4819   3.800  24.723  12.421
39659W        W 4820   4.715  12.139   0.027
39660W        W 4821  37.121   5.673   1.701
39661W        W 4822  10.427  42.619   1.036
39662W        W 4823   5.832  12.730  13.907
39663W        W 4824   2.342  39.243   3.105
39664W        W 4825  31.655  43.141  14.698
39665W        W 4826   0.832   1.692   2.416
39666W        W 4827   8.292   2.755   4.388
39667W        W 4828  32.867   7.316  12.369
39668W        W 4829  12.849  43.487   1.349
39669W        W 4830  44.107   9.361   0.844
39670W        W 4831  22.704  27.171  14.016
39671W        W 4832   5.723   6.997  11.388
39672W        W 4833  31.993  23.006   2.156
39673W        W 4834   4.241  37.326  14.333
39674W        W 4835   3.358  29.109  13.977
39675W        W 4836  22.956  42.824   3.653
39676W        W 4837  21.202  35.049  14.387
39677W        W 4838  26.522  44.682  14.419
39678W        W 4839  29.175  37.068  11.095
39679W        W 4840   9.432  10.743   3.137
39680W        W 4841  38.900  11.196  12.607
39681W        W 4842  14.556  10.149  14.439
39682W        W 4843   1.190  18.865  14.982
39683W        W 4844  35.080  12.780  11.583
39684W        W 4845   2.406  41.390  14.753
39685W        W 4846  15.131  36.645  13.831
39686W        W 4847  19.924  21.061  12.885
39687W        W 4848   4.593  23.856   9.582
39688W        W 4849  42.738   5.313   3.300
39689W        W 4850  43.022  20.948  10.438
39690W        W 4851  13.926   2.828   0.868
39691W        W 4852  33.071  20.940   5.144
39692W        W 4853  22.799   6.548  14.990
39693W        W 4854  10.950  31.554  14.425
39694W        W 4855  14.554   2.975   2.683
39695W        W 4856  24.975  23.506   0.472
39696W        W 4857   3.006   4.956  13.327
39697W        W 4858  24.501   1.622   1.840
39698W        W 4859   8.161  21.659   3.133
39699W        W 4860  42.949   2.077   2.288
39700W        W 4861   4.250   9.661  12.086
39701W        W 4862  13.345  35.825  10.531
39702W        W 4863  35.525  12.171   0.937
39703W        W 4864  26.044  31.573   3.829
39704W        W 4865   6.626  16.113   4.060
39705W        W 4866  34.309   3.088   1.145
39706W        W 4867  14.271  25.108   0.978
39707W        W 4868   3.913  37.021  12.647
39708W        W 4869  12.675  38.272  11.303
39709W        W 4870   4.623  32.918   0.583
39710W        W 4871  18.141  33.689  10.616
39711W        W 4872  36.902  35.607   4.579
39712W        W 4873   4.726  43.691   4.665
39713W        W 4874  28.945  13.226  11.730
39714W        W 4875   8.714  36.000  14.824
39715W        W 4876  26.025   5.195   0.275
39716W        W 4877   5.721  36.167   2.394
39717W        W 4878  36.312   2.254  12.974
39718W        W 4879  40.872  14.300   0.691
39719W        W 4880  17.852  31.162  11.575
39720W        W 4881   6.013  28.747  11.183
39721W        W 4882  41.833  44.044   1.992
39722W        W 4883  17.627   9.751  13.882
39723W        W 4884  14.212   1.451   1.901
39724W        W 4885  31.600  20.039  11.927
39725W        W 4886   9.722  14.301  13.300
39726W        W 4887  30.222  31.586  14.878
39727W        W 4888   7.746  25.758   2.501
39728W        W 4889   6.726  24.168   0.955
39729W        W 4890  34.351  43.259  13.995
39730W        W 4891  38.287  40.392   1.871
39731W        W 4892  29.046  26.973   1.846
39732W        W 4893   3.326  37.933  10.499
39733W        W 4894  21.787  30.643  13.483
39734W        W 4895  20.832  12.343  12.066
39735W        W 4896  31.394  39.344   0.337
39736W        W 4897  30.519   9.423   3.238
39737W        W 4898  26.059  24.691  14.374
39738W        W 4899  42.478  34.855  14.079
39739W        W 4900  38.708   7.272   0.919
39740W        W 4901  12.699  26.443   0.178
39741W        W 4902  22.992  11.761   2.738
39742W        W 4903  32.242  36.816  11.103
39743W        W 4904   7.759  36.463   1.264
39744W        W 4905  37.456   3.811  10.312
39745W        W 4906  18.221  42.451  11.519
39746W        W 4907  14.015  27.947   2.343
39747W        W 4908  10.977  39.451   2.703
39748W        W 4909  22.961  39.307   3.423
39749W        W 4910   5.304  15.028   0.891
39750W        W 4911  29.053  11.911   9.896
39751W        W 4912  23.678  25.509   0.349
39752W        W 4913  23.811   7.136   2.796
39753W        W 4914  40.962  20.104  13.093
39754W        W 4915  15.847   5.986   2.736
39755W        W 4916  28.102  10.833  14.489
39756W        W 4917  16.215   3.010  13.930
39757W        W 4918  10.281   5.595  10.063
39758W        W 4919   9.313  11.363   0.571
39759W        W 4920  21.911  42.957  13.351
39760W        W 4921  40.051  35.016  12.886
39761W        W 4922  41.553   1.377  11.112
39762W        W 4923  29.182  38.806   1.905
39763W        W 4924  42.016  29.985   3.463
39764W        W 4925  39.135  26.218   0.458
39765W        W 4926  24.146  36.368   1.170
39766W        W 4927  39.285  37.429  14.783
39767W        W 4928   2.528  20.450  13.430
39768W        W 4929  12.569   6.996   0.742
39769W        W 4930  35.664   1.805  14.860
39770W        W 4931  11.616   5.314   3.544
39771W        W 4932  31.837  38.949   5.399
39772W        W 4933   5.732  11.093   2.646
39773W        W 4934  37.437   8.850  14.931
39774W        W 4935  16.036   2.477   1.117
39775W        W 4936  11.474  37.827   0.067
39776W        W 4937  16.015   4.404   3.752
39777W        W 4938   6.386   0.913  12.005
39778W        W 4939  11.718   4.706   5.025
39779W        W 4940  39.357  10.772   2.567
39780W        W 4941   3.841  23.145  11.196
39781W        W 4942  22.617  16.739  11.910
39782W        W 4943  28.707  15.241   2.903
39783W        W 4944   0.892  41.751  11.498
39784W        W 4945  23.103  41.502  13.723
39785W        W 4946  17.055  27.539  10.694
39786W        W 4947  22.706  33.088  12.559
39787W        W 4948  29.190  22.721   3.145
39788W        W 4949   3.517   4.719   5.161
39789W        W 4950  43.324  31.652   1.387
39790W        W 4951   1.435  21.199  13.152
39791W        W 4952   8.873  27.883  12.883
39792W        W 4953   4.099  37.462  10.757
39793W        W 4954   6.562  38.368   4.125
39794W        W 4955  40.992  43.520  13.532
39795W        W 4956   3.325  16.881   3.612
39796W        W 4957  39.595  36.082   0.071
39797W        W 4958  22.708  33.601  12.606
39798W        W 4959  18.716   0.358  13.068
39799W        W 4960  22.117  42.991  14.831
39800W        W 4961  22.755  27.968  14.499
39801W        W 4962  19.209   5.938   2.275
39802W        W 4963  35.160  12.766  13.549
39803W        W 4964  42.134  12.076   2.586
39804W        W 4965  23.199  23.475  13.590
39805W        W 4966  25.187   3.269   3.562
39806W        W 4967   6.714  33.140   0.486
39807W        W 4968  29.016   9.416   3.392
39808W        W 4969  34.225  13.738   1.867
39809W        W 4970  35.376   6.752   1.187
39810W        W 4971  40.586   5.576   1.801
39811W        W 4972  23.692   0.553   0.744
39812W        W 4973   2.687   1.479  13.434
39813W        W 4974  17.248   7.304   0.243
39814W        W 4975  38.787  39.468  13.364
39815W        W 4976  36.447  22.077   0.053
39816W        W 4977  27.164  31.638   4.586
39817W        W 4978   9.214  44.782  14.279
39818W        W 4979  16.607  37.180  13.742
39819W        W 4980   0.990  28.719   3.742
39820W        W 4981  39.536   6.608   4.344
39821W        W 4982  31.093  26.874  13.013
39822W        W 4983  41.804  11.112  14.306
39823W        W 4984  29.666  39.820  12.448
39824W        W 4985  32.172  30.660  12.966
39825W        W 4986  19.847  22.687   1.270
39826W        W 4987  32.515  11.069  11.338
39827W        W 4988  15.593   7.719   5.307
39828W        W 4989  42.266   3.563  11.554
39829W        W 4990  25.038   4.453   3.705
39830W        W 4991  44.795  34.416   1.022
39831W        W 4992  15.524   2.489  10.606
39832W        W 4993  17.561   0.183   1.926
39833W        W 4994  32.919  14.751  14.759
39834W        W 4995   8.385   2.212   4.559
39835W        W 4996  42.716  28.463   2.319
39836W        W 4997  22.385  34.553  10.166
39837W        W 4998  34.516  26.465  12.926
39838W        W 4999  37.238  31.572   3.109
39839W        W 5000  43.944  20.932  10.392
39840W        W 5001  31.728   2.264   3.885
39841W        W 5002  26.407   1.685  12.474
39842W        W 5003  31.349   8.282  13.996
39843W        W 5004   1.262  17.318  12.436
39844W        W 5005   6.201   8.858  13.935
39845W        W 5006  30.585  24.973  12.122
39846W        W 5007  15.868  28.835  11.027
39847W        W 5008  23.230  43.767   0.726
39848W        W 5009  32.588  42.756   1.045
39849W        W 5010  20.814  42.757   1.129
39850W        W 5011  35.814  33.335  10.100
39851W        W 5012  20.283  12.355   2.447
39852W        W 5013   3.255   6.289   4.570
39853W        W 5014   8.354  34.870  11.106
39854W        W 5015  41.348  44.266   4.232
39855W        W 5016  19.257  11.401   4.099
39856W        W 5017  15.598  31.076   3.711
39857W        W 5018  38.001  22.235   0.705
39858W        W 5019  22.667  41.235   4.265
39859W        W 5020   3.923   4.790  11.103
39860W        W 5021  17.334  12.598  13.483
39861W        W 5022  30.424  35.247  12.356
39862W        W 5023  35.528  36.456  14.828
39863W        W 5024  43.576   2.642   2.834
39864W        W 5025  15.625  15.217   2.088
39865W        W 5026  18.722  27.061   3.037
39866W        W 5027  30.132  42.800  14.025
39867W        W 5028  31.960  33.393   3.153
39868W        W 5029  10.052  29.079  12.493
39869W        W 5030  28.074  16.995   0.400
39870W        W 5031   1.479  28.229  14.839
39871W        W 5032  42.227  40.905  12.489
39872W        W 5033  36.337  29.588  12.115
39873W        W 5034  43.896  44.015  13.721
39874W        W 5035  10.357  34.317  12.639
39875W        W 5036  13.424  13.816  10.732
39876W        W 5037   2.358  33.561   0.421
39877W        W 5038  41.380  10.743   2.678
39878W        W 5039   1.049  33.406  14.213
39879W        W 5040  34.863   2.799   1.827
39880W        W 5041  40.302  10.769   4.087
39881W        W 5042  30.679  26.291   4.181
39882W        W 5043  31.353  28.582  10.586
39883W        W 5044  11.601  21.005  12.694
39884W        W 5045   9.383  35.806  11.211
39885W        W 5046  18.675  18.140   0.990
39886W        W 5047  12.908  15.780  14.860
39887W        W 5048   7.177   9.023  13.922
39888W        W 5049  27.219  38.218  11.492
39889W        W 5050  19.853  38.630   2.743
39890W        W 5051  38.969  43.765   0.082
39891W        W 5052  36.359  43.449  13.006
39892W        W 5053   4.451   0.486  13.580
39893W        W 5054  24.653  15.656  11.028
39894W        W 5055  31.931  24.266  14.556
39895W        W 5056   1.811  42.850   2.747
39896W        W 5057  12.197  37.551   0.612
39897W        W 5058  16.345   6.825  11.947
39898W        W 5059  26.269  19.667   2.232
39899W        W 5060  40.672  18.204  11.962
39900W        W 5061  44.477  14.503   1.190
39901W        W 5062   2.420  11.546   3.079
39902W        W 5063  36.063  29.748   3.290
39903W        W 5064   7.287   7.394   3.173
39904W        W 5065   5.878  41.930   4.190
39905W        W 5066  35.499  25.056  13.520
39906W        W 5067  23.420  12.347  11.341
39907W        W 5068  43.367  42.609   0.403
39908W        W 5069  10.870  20.175   1.883
39909W        W 5070  21.638  35.270  12.061
39910W        W 5071  33.869  34.788   4.611
39911W        W 5072  44.891  42.799   2.276
39912W        W 5073  14.097   9.767   4.610
39913W        W 5074  16.453  36.457  14.998
39914W        W 5075  43.758  39.917   9.508
39915W        W 5076  37.349  19.733   2.513
39916W        W 5077  35.426  14.933  14.700
39917W        W 5078  32.048  43.040   1.384
39918W        W 5079  29.575  26.623  14.833
39919W        W 5080  19.101  17.940  11.538
39920W        W 5081   2.924  33.187   2.122
39921W        W 5082  22.467  17.030  12.319
39922W        W 5083   1.717   5.533   0.525
39923W        W 5084  20.586  12.061   2.746
39924W        W 5085   4.997   6.266   4.621
39925W        W 5086  16.070  24.970   1.256
39926W        W 5087  38.647   7.218   4.626
39927W        W 5088  33.466  19.790   0.100
39928W        W 5089  19.977  30.862  13.356
39929W        W 5090  33.550   9.410  14.777
39930W        W 5091  30.371   9.586  10.755
39931W        W 5092  39.916   4.741  10.716
39932W        W 5093  14.084  16.655  12.957
39933W        W 5094  18.204   8.686  14.359
39934W        W 5095   6.861  24.411  13.069
39935W        W 5096  28.434  37.102  10.712
39936W        W 5097  31.947  32.091   1.375
39937W        W 5098  23.100  30.979   4.918
39938W        W 5099  30.929  15.810  13.895
39939W        W 5100  35.362  39.844   5.463
39940W        W 5101  41.472   8.360  11.603
39941W        W 5102   7.417  27.650   4.596
39942W        W 5103  20.810  22.894   3.186
39943W        W 5104  10.129  34.226   1.209
39944W        W 5105   4.825  16.347  12.495
39945W        W 5106  22.710   1.706  14.360
39946W        W 5107   7.440   8.575  13.734
39947W        W 5108  15.252  19.719   4.145
39948W        W 5109  39.873  23.749  11.295
39949W        W 5110  25.164  41.038   1.848
39950W        W 5111  19.838  12.754  14.773
39951W        W 5112  20.970   0.207  13.488
39952W        W 5113  32.537  25.481  11.871
39953W        W 5114   8.582   4.183   1.389
39954W        W 5115  11.232  17.013  10.270
39955W        W 5116  12.774  19.038   1.340
39956W        W 5117  42.518  23.820   2.234
39957W        W 5118  20.242  23.674  13.382
39958W        W 5119  38.912  34.604   4.109
39959W        W 5120  41.173  27.643   3.273
39960W        W 5121  28.960  27.700  11.965
39961W        W 5122   3.919  34.833  11.114
39962W        W 5123  22.569   3.532  11.119
39963W        W 5124  28.239  26.334  12.999
39964W        W 5125  12.329   2.637  14.827
39965W        W 5126  32.613  13.277  12.169
39966W        W 5127  22.941  27.969  11.102
39967W        W 5128  42.065  12.821   2.884
39968W        W 5129  24.432   9.286  12.274
39969W        W 5130  30.292  39.769   1.688
39970W        W 5131   8.765  37.515  10.945
39971W        W 5132  30.964  10.262   3.458
39972W        W 5133   9.152  13.719  13.184
39973W        W 5134  13.078   1.448  13.004
39974W        W 5135  21.556  30.694  12.079
39975W        W 5136  44.775  35.338  13.351
39976W        W 5137  27.954  16.586  13.590
39977W        W 5138  35.023  24.029   3.189
39978W        W 5139  23.835  24.663   3.304
39979W        W 5140  23.977   0.286  12.346
39980W        W 5141  13.419  29.410   4.026
39981W        W 5142   1.546  23.137   2.898
39982W        W 5143  30.350  16.891  12.020
39983W        W 5144  38.079   4.721   1.925
39984W        W 5145   0.038  40.351  14.376
39985W        W 5146   7.490  17.611  13.932
39986W        W 5147  10.669  38.918   4.490
39987W        W 5148  40.924  17.304  11.320
39988W        W 5149  25.117  21.657  14.882
39989W        W 5150  43.518   1.208   1.288
39990W        W 5151  41.052   5.788  12.936
39991W        W 5152  44.928  27.080   2.234
39992W        W 5153  11.811  21.331   2.754
39993W        W 5154  36.831  12.761  11.143
39994W        W 5155  14.096  19.355  14.709
39995W        W 5156  34.214  37.820   3.324
39996W        W 5157  20.979  43.488   4.225
39997W        W 5158  43.077  11.243   1.305
39998W        W 5159  43.244   4.610  13.513
39999W        W 5160  35.835  38.909   2.837
40000W        W 5161  43.889  42.992   3.248
40001W        W 5162  23.702  31.094   3.659
40002W        W 5163  13.682  42.170  12.796
40003W        W 5164  15.161  18.000  12.987
40004W        W 5165  27.829   3.299  13.674
40005W        W 5166  19.907   4.903  12.948
40006W        W 5167  20.603  14.162   2.931
40007W        W 5168  18.727  22.197  11.339
40008W        W 5169  36.205  29.100  12.051
40009W        W 5170  37.980   2.705  13.620
40010W        W 5171   8.401  33.950   0.617
40011W        W 5172  43.783  15.548   4.460
40012W        W 5173  25.074  33.054  12.570
40013W        W 5174   6.651   1.396  11.186
40014W        W 5175  18.527  25.071   3.125
40015W        W 5176   0.397  14.976   1.262
40016W        W 5177  10.092  23.704  14.923
40017W        W 5178  14.884   9.783   1.867
40018W        W 5179  22.175   7.290   4.467
40019W        W 5180  14.944  30.719   0.336
40020W        W 5181  34.923  13.673  13.073
40021W        W 5182  39.485   9.906   2.527
40022W        W 5183   5.307  28.697   2.152
40023W        W 5184  26.094  15.186   1.310
40024W        W 5185   1.397  24.407  12.513
40025W        W 5186  15.052  41.076   0.383
40026W        W 5187  23.775   9.604   4.139
40027W        W 5188   8.715  16.971   2.265
40028W        W 5189   2.900  21.759   0.850
40029W        W 5190  37.239  34.569   1.918
40030W        W 5191  21.326  22.527  14.786
40031W        W 5192  19.320   1.460   1.364
40032W        W 5193  28.224  37.889   5.024
40033W        W 5194  30.052   5.376  12.899
40034W        W 5195  37.381  31.968   3.421
40035W        W 5196   1.313  26.618  13.981
40036W        W 5197  15.392  26.413   2.689
40037W        W 5198  25.224   5.445   3.148
40038W        W 5199  41.036  41.636  13.211
40039W        W 5200   8.896  11.198   3.239
40040W        W 5201  26.226   9.023   2.745
40041W        W 5202   3.667  31.569  14.000
40042W        W 5203  16.691  17.489   0.478
40043W        W 5204  35.487  33.908   3.021
40044W        W 5205  38.591  33.399  13.599
40045W        W 5206   2.356  20.137  10.950
40046W        W 5207  42.971   7.208   2.800
40047W        W 5208   9.603  34.827  10.686
40048W        W 5209  44.998   4.590   3.817
40049W        W 5210  29.507   7.187   1.707
40050W        W 5211  10.407  32.717  13.484
40051W        W 5212  11.755   5.274  13.557
40052W        W 5213  14.413  21.078  14.229
40053W        W 5214  16.769  25.091   4.896
40054W        W 5215   4.778  29.015   0.271
40055W        W 5216  34.182  37.014   3.038
40056W        W 5217  32.341  38.329   4.031
40057W        W 5218   3.312   2.608   1.230
40058W        W 5219  33.588  19.731   4.527
40059W        W 5220  28.887  37.976   5.651
40060W        W 5221  19.241  33.336  12.852
40061W        W 5222  28.707  43.172  11.486
40062W        W 5223  43.130  28.509  14.270
40063W        W 5224   7.708  10.403  10.311
40064W        W 5225  18.107  40.075   0.288
40065W        W 5226  28.926  24.985   3.836
40066W        W 5227  10.320  22.391  11.116
40067W        W 5228  30.996   7.605   4.434
40068W        W 5229  32.869  40.555  13.818
40069W        W 5230  15.413  43.492   2.421
40070W        W 5231  12.322  24.143  14.494
40071W        W 5232  19.394  25.699  11.713
40072W        W 5233  31.624   8.387  10.449
40073W        W 5234  21.649  39.511   3.185
40074W        W 5235  28.370  33.319  13.306
40075W        W 5236  40.347   0.046   1.788
40076W        W 5237  15.604  10.362  13.542
40077W        W 5238  10.332  39.756  14.947
40078W        W 5239  22.691  20.197   2.018
40079W        W 5240   8.591  23.462  14.830
40080W        W 5241  39.930   7.076   4.766
40081W        W 5242  24.567  23.635  14.087
40082W        W 5243  24.861  22.085  13.932
40083W        W 5244  18.292  33.909   0.485
40084W        W 5245  43.249  28.444  13.618
40085W        W 5246  36.051  22.707  10.756
40086W        W 5247  30.996  12.578  12.338
40087W        W 5248  24.808  17.392   4.917
40088W        W 5249  26.978  26.887  13.782
40089W        W 5250  12.627  15.256  12.525
40090W        W 5251   6.825  28.263  11.505
40091W        W 5252  37.349  11.555   4.935
40092W        W 5253  39.795  11.405   1.737
40093W        W 5254  24.721  13.125  14.472
40094W        W 5255  29.218  11.424   1.331
40095W        W 5256  31.562  21.692   1.193
40096W        W 5257  43.924  29.374   2.085
40097W        W 5258  15.670   8.218  14.997
40098W        W 5259  22.997  33.566  11.901
40099W        W 5260  43.459  19.952  12.954
40100W        W 5261  29.411   7.642   3.546
40101W        W 5262  22.110  20.312   4.503
40102W        W 5263  37.844   7.900   0.265
40103W        W 5264  25.508   1.225   4.614
40104W        W 5265  16.859   8.367   3.867
40105W        W 5266  23.317   3.893   4.611
40106W        W 5267   1.110  44.165   2.586
40107W        W 5268  20.027  21.655   2.790
40108W        W 5269   2.136  36.988   5.386
40109W        W 5270  18.657   5.466  11.585
40110W        W 5271   3.880  15.237   1.455
40111W        W 5272  38.826  31.797  11.622
40112W        W 5273  20.735  13.739   0.749
40113W        W 5274  38.487  18.534   3.187
40114W        W 5275  23.353   7.822  12.935
40115W        W 5276  33.171  32.379  13.103
40116W        W 5277  35.693   7.410  11.846
40117W        W 5278  22.330  10.850   1.445
40118W        W 5279  41.887  39.919  10.945
40119W        W 5280  16.565  23.552  12.089
40120W        W 5281  42.946  12.634   3.252
40121W        W 5282  23.630   7.454   2.005
40122W        W 5283  16.671  24.748   0.020
40123W        W 5284  30.441  36.821   0.738
40124W        W 5285  19.852  38.062   0.513
40125W        W 5286   6.760  10.354  12.422
40126W        W 5287   2.509  44.026  13.362
40127W        W 5288  12.669  40.795  12.967
40128W        W 5289  35.069  42.435  12.594
40129W        W 5290  10.121   0.465  12.820
40130W        W 5291  10.293  32.584  11.743
40131W        W 5292   3.016  26.625  12.975
40132W        W 5293  19.124  26.020  13.456
40133W        W 5294   1.823  40.076  11.606
40134W        W 5295   4.598   3.356  13.824
40135W        W 5296  34.412  30.680   3.857
40136W        W 5297   7.748  34.483   3.628
40137W        W 5298  26.007  27.156  14.984
40138W        W 5299  16.110  35.525   2.878
40139W        W 5300  11.056  37.864   2.580
40140W        W 5301  17.844  10.342   1.321
40141W        W 5302  34.628  40.731   2.253
40142W        W 5303  38.011  41.866  12.544
40143W        W 5304  42.774  41.983  14.415
40144W        W 5305  17.790  33.046   2.803
40145W        W 5306  44.591  38.979  11.211
40146W        W 5307  22.502   5.294   0.988
40147W        W 5308  17.533  32.401  14.851
40148W        W 5309   6.863  37.136  10.438
40149W        W 5310  29.890   1.314  12.096
40150W        W 5311  30.242  27.587  14.002
40151W        W 5312  35.493  15.870  14.078
40152W        W 5313   7.922   5.182   1.980
40153W        W 5314  22.983  37.874   0.792
40154W        W 5315  36.177  40.084   0.330
40155W        W 5316  43.496  27.163  14.955
40156W        W 5317   0.375  20.008  11.927
40157W        W 5318   6.687  29.216   1.479
40158W        W 5319  37.636  34.136   3.716
40159W        W 5320  21.993  19.227  14.251
40160W        W 5321  37.679  29.113   0.295
40161W        W 5322  12.376  16.654  12.140
40162W        W 5323  18.046  44.180  11.487
40163W        W 5324   8.186  29.596   3.123
40164W        W 5325  25.010  44.791  10.720
40165W        W 5326  10.975  11.647   0.050
40166W        W 5327  44.951  26.589   2.856
40167W        W 5328  23.071  37.343  12.839
40168W        W 5329   0.750  15.302  11.641
40169W        W 5330  21.691   0.878  13.446
40170W        W 5331  17.026  12.713   1.399
40171W        W 5332  24.704  40.001  11.971
40172W        W 5333  19.483  13.093  14.903
40173W        W 5334  20.296  14.573  13.845
40174W        W 5335  27.849  36.515   3.171
40175W        W 5336  26.183  30.993   0.905
40176W        W 5337  30.202  38.067  12.766
40177W        W 5338  18.259  14.737  13.864
40178W        W 5339  29.465   6.330   0.071
40179W        W 5340   7.659   8.958   2.609
40180W        W 5341   4.248  11.567  11.298
40181W        W 5342  20.752  11.341  13.376
40182W        W 5343   1.697  44.520  14.451
40183W        W 5344  12.114  38.265  12.418
40184W        W 5345   9.622  27.732  12.382
40185W        W 5346  16.624  42.469  10.250
40186W        W 5347  23.286  30.488   3.122
40187W        W 5348  16.324  40.938  13.312
40188W        W 5349  41.797  13.285  12.102
40189W        W 5350  40.483  12.108  11.555
40190W        W 5351  20.740  28.851   3.315
40191W        W 5352  12.451  17.543  12.642
40192W        W 5353   6.450   7.560  12.615
40193W        W 5354   4.975  12.244  10.504
40194W        W 5355   2.283  31.328  13.443
40195W        W 5356   4.323  27.586   4.466
40196W        W 5357  12.882   4.395  13.034
40197W        W 5358  20.771  25.489   3.275
40198W        W 5359   8.884  22.533  10.714
40199W        W 5360   5.878   1.905  11.217
40200W        W 5361  24.273   2.297   3.131
40201W        W 5362  39.957  27.648  12.497
40202W        W 5363  27.045  34.303  10.584
40203W        W 5364  17.908  36.378  13.362
40204W        W 5365  38.779  40.472   0.207
40205W        W 5366  12.800  37.611  14.795
40206W        W 5367   5.644   0.545   4.111
40207W        W 5368  39.415  44.770  14.478
40208W        W 5369   4.802  27.855  12.003
40209W        W 5370  44.011  37.138   0.291
40210W        W 5371  17.181  16.799  14.334
40211W        W 5372  22.101  23.622  12.229
40212W        W 5373  43.323   8.675   2.109
40213W        W 5374   1.698   2.265   4.082
40214W        W 5375  27.918  15.065  10.689
40215W        W 5376  22.006  14.147  13.303
40216W        W 5377  27.324  38.308  12.512
40217W        W 5378  23.677  31.255   4.566
40218W        W 5379  16.798  11.178   4.004
40219W        W 5380  42.022  11.869  12.976
40220W        W 5381  22.241  19.453  11.106
40221W        W 5382  30.197  32.626   2.920
40222W        W 5383  42.439  14.301   4.633
40223W        W 5384  44.069  18.789  13.053
40224W        W 5385  26.619  17.274   3.678
40225W        W 5386  39.812  36.065  12.070
40226W        W 5387  18.724  13.388  14.547
40227W        W 5388  18.495   1.337  10.985
40228W        W 5389  28.519  38.992   0.816
40229W        W 5390  34.466  38.153   3.050
40230W        W 5391  26.484  11.627   2.288
40231W        W 5392  10.093  44.165  11.982
40232W        W 5393  41.534  28.617   4.265
40233W        W 5394   7.224  20.775   4.358
40234W        W 5395   5.452  27.538   0.034
40235W        W 5396  21.664  36.403  11.128
40236W        W 5397  36.544  43.452   0.415
40237W        W 5398  17.423  11.330  13.077
40238W        W 5399  38.515  24.047   3.937
40239W        W 5400   3.721  13.732   2.423
40240W        W 5401   5.905  43.012  13.077
40241W        W 5402  42.942  20.490   1.407
40242W        W 5403   9.632  21.201   2.214
40243W        W 5404   3.236   7.398  11.280
40244W        W 5405  30.190  32.897   2.371
40245W        W 5406  16.718  31.847  12.325
40246W        W 5407  15.006   3.286   1.573
40247W        W 5408  33.024   7.499   4.747
40248W        W 5409  36.106  39.997   5.035
40249W        W 5410  42.276  28.244  14.405
40250W        W 5411   7.859  34.978   3.207
40251W        W 5412  21.678  20.245   3.920
40252W        W 5413   7.016  23.182   2.324
40253W        W 5414  37.651  38.574   5.412
40254W        W 5415   2.895  36.112   2.391
40255W        W 5416   2.633  11.925   2.752
40256W        W 5417  16.323  26.698  14.478
40257W        W 5418  22.168  35.011   4.451
40258W        W 5419  25.995  21.483   4.025
40259W        W 5420  15.054  13.468   4.385
40260W        W 5421  29.929  35.918   1.604
40261W        W 5422   2.921  30.735   3.819
40262W        W 5423  24.594   6.150   0.746
40263W        W 5424  10.234  10.255  14.280
40264W        W 5425  21.974  42.539  14.628
40265W        W 5426  26.729  42.289  13.812
40266W        W 5427   1.421  43.476   3.283
40267W        W 5428  28.918   0.835  13.451
40268W        W 5429  19.104  27.411  14.111
40269W        W 5430  11.457  12.281  12.536
40270W        W 5431  10.753   9.935  13.583
40271W        W 5432  44.774  40.313   0.783
40272W        W 5433  19.871   6.520   5.051
40273W        W 5434  43.518   7.857   3.187
40274W        W 5435  12.772  11.216   2.730
40275W        W 5436  30.708   3.904   0.291
40276W        W 5437   2.301  24.955  12.514
40277W        W 5438  32.991  34.793  14.052
40278W        W 5439  39.764  43.418   4.096
40279W        W 5440  42.272  10.334   0.227
40280W        W 5441  24.617   3.720  12.795
40281W        W 5442  12.162  10.345  14.354
40282W        W 5443  34.773  14.287  10.780
40283W        W 5444   4.865  19.601   0.379
40284W        W 5445   5.319  21.702  13.210
40285W        W 5446   4.448  42.777  10.674
40286W        W 5447   8.930   8.228  12.119
40287W        W 5448  33.528  26.677   4.399
40288W        W 5449  34.571  28.556   3.687
40289W        W 5450  33.646  33.899   3.309
40290W        W 5451  28.619   6.912  12.422
40291W        W 5452  44.901  30.546   1.747
40292W        W 5453  42.311  24.487  10.837
40293W        W 5454  43.894  38.535   3.204
40294W        W 5455  10.862  34.581   1.189
40295W        W 5456  20.961  21.295   5.340
40296W        W 5457   2.106   1.747   2.732
40297W        W 5458  33.913  10.552  13.889
40298W        W 5459  19.858   0.383   2.690
40299W        W 5460  21.462  29.857  11.222
40300W        W 5461   3.402   1.434   3.355
40301W        W 5462  27.659  21.824   4.700
40302W        W 5463   6.194  38.353   1.799
40303W        W 5464  22.567  25.902  14.393
40304W        W 5465   8.741  23.028  10.741
40305W        W 5466   5.158  39.466  12.078
40306W        W 5467   3.303  40.380  14.960
40307W        W 5468   6.696  24.766  10.980
40308W        W 5469  39.926  21.253   2.340
40309W        W 5470  44.940  43.062   0.872
40310W        W 5471   6.210   5.065   2.921
40311W        W 5472   8.848  10.610   2.123
40312W        W 5473  33.496  30.665   3.594
40313W        W 5474   9.594  23.366   4.028
40314W        W 5475  24.846  40.865  11.459
40315W        W 5476  10.947  43.278  11.561
40316W        W 5477  19.341  35.993  12.043
40317W        W 5478  33.947   9.673   0.009
40318W        W 5479  27.670  41.362  12.401
40319W        W 5480  38.330   1.468   2.344
40320W        W 5481  30.061  17.747   3.844
40321W        W 5482  24.508  30.079  13.216
40322W        W 5483  11.211  19.895  12.693
40323W        W 5484  14.667  22.721   2.318
40324W        W 5485  12.194   9.246  10.708
40325W        W 5486   2.885  38.853   3.809
40326W        W 5487  28.165  29.945  11.247
40327W        W 5488  40.959  35.906  12.409
40328W        W 5489  27.942  31.007  11.497
40329W        W 5490   2.404   7.486  12.591
40330W        W 5491  22.535  29.009  11.939
40331W        W 5492  36.752   3.155   3.712
40332W        W 5493   8.682  15.025  14.912
40333W        W 5494  10.903   4.746   0.990
40334W        W 5495   8.339  16.073  12.578
40335W        W 5496  25.177  27.161   0.760
40336W        W 5497  10.830  36.185   4.357
40337W        W 5498  23.184   1.660   3.172
40338W        W 5499  26.001  30.778  14.356
40339W        W 5500  12.067   6.343   1.795
40340W        W 5501  29.780  21.526  10.305
40341W        W 5502  27.856  23.540  10.167
40342W        W 5503  26.574  19.250   2.408
40343W        W 5504   2.904  38.931   1.721
40344W        W 5505  12.826  18.910  11.036
40345W        W 5506  35.357  41.039   1.666
40346W        W 5507  30.921  11.243   0.788
40347W        W 5508  26.252   9.006  12.058
40348W        W 5509  21.289  34.414   1.274
40349W        W 5510   0.051   1.687  10.758
40350W        W 5511  31.058  12.896   3.309
40351W        W 5512   3.251  17.317   3.891
40352W        W 5513   5.322  23.242   2.808
40353W        W 5514  38.941  33.843   4.583
40354W        W 5515   5.269  36.822   0.052
40355W        W 5516   6.187   5.894  11.256
40356W        W 5517  12.359  23.531   1.352
40357W        W 5518   9.245   7.691  12.679
40358W        W 5519  19.689  29.876   3.667
40359W        W 5520  38.380  43.575  13.837
40360W        W 5521  30.907  24.221   3.275
40361W        W 5522  39.727   4.941   1.186
40362W        W 5523  21.179  11.497  12.442
40363W        W 5524  41.265  25.607   3.620
40364W        W 5525  23.061  17.181   2.211
40365W        W 5526  23.458   5.151   0.194
40366W        W 5527  22.564   0.796   3.493
40367W        W 5528  29.385  33.121   1.936
40368W        W 5529  10.780   7.343  12.336
40369W        W 5530   5.844  22.434   3.559
40370W        W 5531  30.199   3.440  12.290
40371W        W 5532  44.963  36.607  13.492
40372W        W 5533   7.406  14.589   4.399
40373W        W 5534  18.778   4.559  10.339
40374W        W 5535  29.231  33.400   3.185
40375W        W 5536  21.110  41.169  14.821
40376W        W 5537   3.555  29.716  11.941
40377W        W 5538  21.701  28.397  13.274
40378W        W 5539  38.315  37.466  10.973
40379W        W 5540  28.249  19.227  13.253
40380W        W 5541  15.086  20.900  11.859
40381W        W 5542  44.018  23.394   4.224
40382W        W 5543  36.465   0.859   3.689
40383W        W 5544  24.913   8.222  11.532
40384W        W 5545  14.041   7.856  10.696
40385W        W 5546  37.997  23.290   0.896
40386W        W 5547  19.553  15.199  13.904
40387W        W 5548   2.247  21.398  14.424
40388W        W 5549  34.260  42.741  12.533
40389W        W 5550  33.481  11.466   2.421
40390W        W 5551  36.872   4.965  10.711
40391W        W 5552   0.330  24.178  14.390
40392W        W 5553  34.947  37.589   4.138
40393W        W 5554  21.073  40.875  13.507
40394W        W 5555  34.808  30.627   2.983
40395W        W 5556   1.361  40.758   3.921
40396W        W 5557  17.087   8.763  10.985
40397W        W 5558  13.598  39.096  14.917
40398W        W 5559  17.894  31.123   1.773
40399W        W 5560  35.159  41.696  10.688
40400W        W 5561  28.885   8.888   3.918
40401W        W 5562  27.357  13.996  13.499
40402W        W 5563  37.123   4.721  11.139
40403W        W 5564   2.868  16.831   1.369
40404W        W 5565  19.795  38.441   3.680
40405W        W 5566  18.801  14.615   3.722
40406W        W 5567  38.312  23.564  14.332
40407W        W 5568  40.781  44.950  14.864
40408W        W 5569  40.242  22.759  11.252
40409W        W 5570   6.042  16.065   0.966
40410W        W 5571  36.832   1.948  12.868
40411W        W 5572  25.459  11.631   1.329
40412W        W 5573  39.507   3.940   2.261
40413W        W 5574  13.238  42.833  10.945
40414W        W 5575  16.566  25.547   2.176
40415W        W 5576   9.345  20.708   0.971
40416W        W 5577  39.051  43.237   1.199
40417W        W 5578  34.913   1.350   0.504
40418W        W 5579  14.847  21.744  11.450
40419W        W 5580  20.768  43.973   1.012
40420W        W 5581  42.946  32.938  12.604
40421W        W 5582  13.202  36.285   2.655
40422W        W 5583  31.161  21.284   1.148
40423W        W 5584  32.880  37.406  14.433
40424W        W 5585  12.777  43.799  14.971
40425W        W 5586  20.085  38.468   2.308
40426W        W 5587  33.077  28.661  13.421
40427W        W 5588  25.648   6.669   0.799
40428W        W 5589  35.448  33.606  11.940
40429W        W 5590   8.919   2.685  13.845
40430W        W 5591  20.517  34.829  13.861
40431W        W 5592   8.743  13.297  13.767
40432W        W 5593  20.913  29.525  14.088
40433W        W 5594  29.282  17.620   2.272
40434W        W 5595  16.870  21.622  14.200
40435W        W 5596  23.452   2.642   2.861
40436W        W 5597  24.620  44.437  12.367
40437W        W 5598   7.208  16.824  11.622
40438W        W 5599  34.197  24.590  13.807
40439W        W 5600   6.899  13.819   0.766
40440W        W 5601  17.207  29.160   1.857
40441W        W 5602  29.582  37.357  14.284
40442W        W 5603  28.057  19.179  14.215
40443W        W 5604   8.920  44.951   2.009
40444W        W 5605  12.366  10.696  13.582
40445W        W 5606  34.758  42.022  10.703
40446W        W 5607  30.252  19.136  12.347
40447W        W 5608   5.030  35.128  12.026
40448W        W 5609  22.747  30.725  14.876
40449W        W 5610  26.202  17.336  14.815
40450W        W 5611  36.022  43.046  13.873
40451W        W 5612   6.662  10.663   4.373
40452W        W 5613  42.964  32.149   3.182
40453W        W 5614  31.180  24.184   1.896
40454W        W 5615   3.425  15.318   1.879
40455W        W 5616   9.998  40.787  10.588
40456W        W 5617  27.276  21.170  10.650
40457W        W 5618  42.421   1.834  13.325
40458W        W 5619  36.062  42.838  14.806
40459W        W 5620  32.638  37.643   2.351
40460W        W 5621  29.184  34.866   0.886
40461W        W 5622  30.843  40.430  12.035
40462W        W 5623   4.870   1.601   2.192
40463W        W 5624  42.571  30.519  11.974
40464W        W 5625  43.806   5.135  12.915
40465W        W 5626   1.526  24.137  12.104
40466W        W 5627  23.423   4.278  11.592
40467W        W 5628  21.207  34.229  12.495
40468W        W 5629  43.594  15.051  11.069
40469W        W 5630  23.475   0.783  14.876
40470W        W 5631   1.625  40.366   3.648
40471W        W 5632   2.615  41.017  11.067
40472W        W 5633  34.296  25.893  11.107
40473W        W 5634  42.674  13.730  13.974
40474W        W 5635  18.693  42.188  13.020
40475W        W 5636  15.385  18.995  13.032
40476W        W 5637  43.455  23.429  13.075
40477W        W 5638  33.438  29.273   2.631
40478W        W 5639  25.511  11.124   3.140
40479W        W 5640  35.468   5.231  14.991
40480W        W 5641  35.400   1.139  13.789
40481W        W 5642  10.613  20.728   3.868
40482W        W 5643  31.394  44.055  11.153
40483W        W 5644   0.337  16.732  10.394
40484W        W 5645  28.064  25.912   0.077
40485W        W 5646  23.460  27.582  14.423
40486W        W 5647  21.506   6.269  13.877
40487W        W 5648  43.064  17.329   3.245
40488W        W 5649  33.140  22.262  11.000
40489W        W 5650  43.128   1.332  11.038
40490W        W 5651  18.063   4.615  13.410
40491W        W 5652  10.504  17.123  11.980
40492W        W 5653  42.934  28.701  12.034
40493W        W 5654  11.560  11.056  11.060
40494W        W 5655   5.683  31.704  12.043
40495W        W 5656   9.332  28.428   1.092
40496W        W 5657  17.529  33.976  12.477
40497W        W 5658  19.178  35.295  12.986
40498W        W 5659  19.610  29.550  14.338
40499W        W 5660   1.450   4.207   0.023
40500W        W 5661  26.453   3.098  10.862
40501W        W 5662   9.273  26.531   1.125
40502W        W 5663  19.139  29.182   3.484
40503W        W 5664  41.848   6.632   0.311
40504W        W 5665  10.437  13.660  13.813
40505W        W 5666  32.031  20.008   0.237
40506W        W 5667  16.328  37.250  14.945
40507W        W 5668  20.628  10.625  12.607
40508W        W 5669  20.877  16.890   1.437
40509W        W 5670  37.333  19.573  11.184
40510W        W 5671  36.347  35.196  14.561
40511W        W 5672  37.580  10.750  11.980
40512W        W 5673  13.298  23.291   0.865
40513W        W 5674  14.157  24.555   2.379
40514W        W 5675  27.870  26.851   1.782
40515W        W 5676  11.560  10.786  13.984
40516W        W 5677   1.485  35.463   0.882
40517W        W 5678  42.988  28.419  14.862
40518W        W 5679  13.620  12.391   4.596
40519W        W 5680  33.619   7.804  12.446
40520W        W 5681  42.884  17.136  14.455
40521W        W 5682  35.062  30.450  14.469
40522W        W 5683  14.579  43.889   2.789
40523W        W 5684  32.336  40.627   4.929
40524W        W 5685  34.110   7.202  12.994
40525W        W 5686  13.773   5.469   2.232
40526W        W 5687  18.268  33.319  12.070
40527W        W 5688  25.166  44.868  12.977
40528W        W 5689  35.387  37.676  14.504
40529W        W 5690  13.255  33.725  10.612
40530W        W 5691   4.554  40.600  12.813
40531W        W 5692   4.937  11.660  14.110
40532W        W 5693  35.131  15.088   2.070
40533W        W 5694  13.240  33.371  11.844
40534W        W 5695  35.549  36.218  14.300
40535W        W 5696  42.285  12.294   4.677
40536W        W 5697  41.852  19.945   3.514
40537W        W 5698   1.377  34.899   0.212
40538W        W 5699  28.766  16.101  11.521
40539W        W 5700  13.788  32.247   2.348
40540W        W 5701  42.033  29.464   4.233
40541W        W 5702  31.171  33.136   2.246
40542W        W 5703   6.326  35.298  13.827
40543W        W 5704  35.578  32.517   1.756
40544W        W 5705   2.421  36.916   9.988
40545W        W 5706   3.647  31.463   2.078
40546W        W 5707  29.650  11.837   4.526
40547W        W 5708  39.522   2.555  10.418
40548W        W 5709  25.258  44.297  10.697
40549W        W 5710  12.208   4.227   1.442
40550W        W 5711   8.861  11.263  11.211
40551W        W 5712  35.970  25.057   2.873
40552W        W 5713  34.318  39.992   9.758
40553W        W 5714  24.607  28.541   3.907
40554W        W 5715  33.563  23.723   3.289
40555W        W 5716  32.460  15.739   3.888
40556W        W 5717  11.830  32.017   3.774
40557W        W 5718   7.480   3.670  14.808
40558W        W 5719  34.243  37.965   4.721
40559W        W 5720  28.600  44.746   2.381
40560W        W 5721  40.630  39.739   1.984
40561W        W 5722   6.313   5.945   1.292
40562W        W 5723  41.583   1.563  14.261
40563W        W 5724  38.088  37.428  12.887
40564W        W 5725  27.482   3.345   2.350
40565W        W 5726  16.077  24.583  13.398
40566W        W 5727   1.330  16.379   1.899
40567W        W 5728   0.988   9.242   2.875
40568W        W 5729  40.597  24.920  11.689
40569W        W 5730   3.714  39.443   3.787
40570W        W 5731  39.980  18.679   4.772
40571W        W 5732  35.087  10.096   4.868
40572W        W 5733  33.274  27.387   1.807
40573W        W 5734  42.793  10.179  14.808
40574W        W 5735  23.076  36.388   1.244
40575W        W 5736   6.431  33.442   2.762
40576W        W 5737  23.639  41.473  14.005
40577W        W 5738  24.951  17.569   2.713
40578W        W 5739  12.259  22.671  14.340
40579W        W 5740  12.371   5.479  11.210
40580W        W 5741  20.057  21.951   3.755
40581W        W 5742  28.584  30.712   2.872
40582W        W 5743  13.109  38.889   0.461
40583W        W 5744   1.773  16.605  11.140
40584W        W 5745  16.445   7.589   0.492
40585W        W 5746  20.263  40.948  13.924
40586W        W 5747  20.828   7.322  10.636
40587W        W 5748  28.982  19.025   2.362
40588W        W 5749   3.640  26.955  13.819
40589W        W 5750  16.654  24.954  12.222
40590W        W 5751  17.908  23.531  12.024
40591W        W 5752   3.983  41.601  14.679
40592W        W 5753   1.476  41.867   3.338
40593W        W 5754  27.039  43.280   2.603
40594W        W 5755   1.012  36.488   0.359
40595W        W 5756  37.592  41.476   3.730
40596W        W 5757   6.927  42.337  11.198
40597W        W 5758  42.902   9.853  14.359
40598W        W 5759  33.665   7.511   0.005
40599W        W 5760  30.027  19.576  12.591
40600W        W 5761  30.604  15.813  11.187
40601W        W 5762  28.664  24.509  14.338
40602W        W 5763  32.748  31.542  14.443
40603W        W 5764  42.019   6.182   0.550
40604W        W 5765  15.468  13.794   1.264
40605W        W 5766  11.937   8.376   3.060
40606W        W 5767   0.748  10.899   5.432
40607W        W 5768  35.036  41.356   0.021
40608W        W 5769  43.561   7.552  11.417
40609W        W 5770  24.208  41.900  11.951
40610W        W 5771  38.483  18.416   3.906
40611W        W 5772  36.401  26.297   0.642
40612W        W 5773  15.832   6.730   4.745
40613W        W 5774  20.985  42.732  12.332
40614W        W 5775   9.271  22.138  13.315
40615W        W 5776  33.011  32.162  10.047
40616W        W 5777   6.085  44.973   2.631
40617W        W 5778  43.542  25.525  12.989
40618W        W 5779   5.306  11.402  12.822
40619W        W 5780  22.201  37.874   1.192
40620W        W 5781   2.149  31.400  11.639
40621W        W 5782  38.423  22.586   1.427
40622W        W 5783  26.319  14.675   3.353
40623W        W 5784  20.169  20.461  11.185
40624W        W 5785  35.906  23.788  14.688
40625W        W 5786  26.635  19.224   2.911
40626W        W 5787  19.234   3.466   4.616
40627W        W 5788  39.065  21.978  13.886
40628W        W 5789  40.549  16.750  10.991
40629W        W 5790  11.874   0.164  14.051
40630W        W 5791   9.791  43.030   4.213
40631W        W 5792   6.565  37.685  14.858
40632W        W 5793  41.284  14.826   0.677
40633W        W 5794  23.149  28.691   4.228
40634W        W 5795  22.939  44.008  12.290
40635W        W 5796  25.057  25.840  10.426
40636W        W 5797   4.710   4.335   0.854
40637W        W 5798  18.213  31.572   3.973
40638W        W 5799  19.549   8.718  14.470
40639W        W 5800   5.705  43.441   1.315
40640W        W 5801  39.350   5.366   0.758
40641W        W 5802  42.475  36.394  14.905
40642W        W 5803  23.218  33.499  12.931
40643W        W 5804  41.382   1.914  13.933
40644W        W 5805  35.890  17.568   2.305
40645W        W 5806  27.600   2.646   3.673
40646W        W 5807  25.653  20.176  12.586
40647W        W 5808  27.500  23.989  14.702
40648W        W 5809  30.138  44.182  12.782
40649W        W 5810  15.150  25.108  12.946
40650W        W 5811  20.569  25.955   4.080
40651W        W 5812  12.754  44.845   1.350
40652W        W 5813  42.326  21.177   1.858
40653W        W 5814  23.196  31.138  13.928
40654W        W 5815   4.235  13.620  11.599
40655W        W 5816   4.886  15.813   3.251
40656W        W 5817  44.740  42.827  13.523
40657W        W 5818  44.471  38.550   1.802
40658W        W 5819  15.170   9.130   2.491
40659W        W 5820   5.454  41.912   3.881
40660W        W 5821  13.760  17.057  13.829
40661W        W 5822   4.186  39.307   4.610
40662W        W 5823   6.732  37.179  14.911
40663W        W 5824  37.023  18.592   1.454
40664W        W 5825   5.516  28.116   3.736
40665W        W 5826  20.557   2.416   0.359
40666W        W 5827  14.380  44.967  14.130
40667W        W 5828  32.513  19.483   2.735
40668W        W 5829  35.383  16.227   1.190
40669W        W 5830  36.612  22.537  11.557
40670W        W 5831  32.027   0.359   1.824
40671W        W 5832   5.307  44.711   1.411
40672W        W 5833   4.021  41.759   3.706
40673W        W 5834  25.139  14.750  10.642
40674W        W 5835  19.253  28.692  14.983
40675W        W 5836   7.394   7.441   1.331
40676W        W 5837  43.026  12.091   2.414
40677W        W 5838  11.328  37.532  13.863
40678W        W 5839   9.793   0.658  14.020
40679W        W 5840  28.624  19.473   2.775
40680W        W 5841  12.795  36.598   2.514
40681W        W 5842   0.850  26.505   1.520
40682W        W 5843  39.526  31.455   2.785
40683W        W 5844  30.916  25.142   0.347
40684W        W 5845  34.922  30.595  13.077
40685W        W 5846  35.009   9.377  11.053
40686W        W 5847  44.909   0.430   0.484
40687W        W 5848  13.993  22.736  14.392
40688W        W 5849   3.342   6.230  12.997
40689W        W 5850  42.458  40.398  14.953
40690W        W 5851  34.802  15.120   0.825
40691W        W 5852   4.083  40.780   0.310
40692W        W 5853  40.082  31.024   0.999
40693W        W 5854   8.807  33.509  10.951
40694W        W 5855  27.176  37.864  13.448
40695W        W 5856  11.754  44.067   1.392
40696W        W 5857  28.691  40.446   1.376
40697W        W 5858   1.747  38.151   0.452
40698W        W 5859  28.547   8.587   1.483
40699W        W 5860   5.656  40.033   3.732
40700W        W 5861   5.654   1.471   2.682
40701W        W 5862   4.479  42.983  13.011
40702W        W 5863  40.930  34.863   3.098
40703W        W 5864  25.103   8.541   4.523
40704W        W 5865   2.694  25.113   1.389
40705W        W 5866  34.120  41.616  10.289
40706W        W 5867  27.180   6.813  14.303
40707W        W 5868  39.410   2.736  12.524
40708W        W 5869  42.787  32.382  10.735
40709W        W 5870   2.327  20.658  11.628
40710W        W 5871  24.710  16.591   0.394
40711W        W 5872  21.750   0.698   2.383
40712W        W 5873  18.048  33.964  13.526
40713W        W 5874  15.572   0.397   1.883
40714W        W 5875   3.799   9.671  13.085
40715W        W 5876  24.665   5.822   2.831
40716W        W 5877  15.615  12.005  12.007
40717W        W 5878   2.758  11.312  14.420
40718W        W 5879  17.747   7.962   3.098
40719W        W 5880  30.921   6.760   4.731
40720W        W 5881  34.363   5.272   4.519
40721W        W 5882   7.096  28.889  14.405
40722W        W 5883   2.013  17.532  10.604
40723W        W 5884  22.774  30.609   0.807
40724W        W 5885   6.977   4.833  12.598
40725W        W 5886  44.997   6.668  13.243
40726W        W 5887  43.871   7.216   1.643
40727W        W 5888  44.179  16.378  11.551
40728W        W 5889  42.666  14.875  12.105
40729W        W 5890  11.049  16.627  11.559
40730W        W 5891  16.131  43.069   9.809
40731W        W 5892  14.675  18.072  12.848
40732W        W 5893   3.876  44.786   1.321
40733W        W 5894  34.388   1.296  14.950
40734W        W 5895   5.511  44.384   0.527
40735W        W 5896  25.181  43.463  13.638
40736W        W 5897  36.887  41.873   0.926
40737W        W 5898  32.558  37.723  14.692
40738W        W 5899  11.258   9.223  11.372
40739W        W 5900  21.863   1.008   4.711
40740W        W 5901   7.656  26.153  14.400
40741W        W 5902   1.869   0.066  11.216
40742W        W 5903  20.683  20.684   1.363
40743W        W 5904  44.829  21.021  12.490
40744W        W 5905  26.472  36.349   3.290
40745W        W 5906  15.852  44.875  10.912
40746W        W 5907  39.817  32.084   3.655
40747W        W 5908  35.200  41.477  13.025
40748W        W 5909  27.702   8.795   1.277
40749W        W 5910  12.836   4.105   3.120
40750W        W 5911  40.471  10.368   2.314
40751W        W 5912  14.188  36.845  10.667
40752W        W 5913  40.324  42.398  13.527
40753W        W 5914  24.001  21.922  12.961
40754W        W 5915  33.488  37.102  11.943
40755W        W 5916  12.193  11.436  11.604
40756W        W 5917  21.287   7.219   4.355
40757W        W 5918  26.309  43.947   3.413
40758W        W 5919   4.029   3.241   3.071
40759W        W 5920   6.367  34.289   4.103
40760W        W 5921  31.861  28.214  12.680
40761W        W 5922  15.122  24.013   4.091
40762W        W 5923  32.069  29.411  10.759
40763W        W 5924   4.847  44.813   2.221
40764W        W 5925  40.945  36.360   4.714
40765W        W 5926  30.851  44.764   1.468
40766W        W 5927  32.662  41.393   3.893
40767W        W 5928  28.396  37.868   5.516
40768W        W 5929  25.100  25.126   3.638
40769W        W 5930  30.460   1.768  13.662
40770W        W 5931  38.279  41.217  13.401
40771W        W 5932   7.951  43.719   0.192
40772W        W 5933  35.422  10.964  13.372
40773W        W 5934  33.606   1.847  13.023
40774W        W 5935   1.239  14.894   0.774
40775W        W 5936  33.676  14.375   4.287
40776W        W 5937   7.042  33.220  11.942
40777W        W 5938  39.020  24.986  12.469
40778W        W 5939  20.304  19.618  13.956
40779W        W 5940  37.626   3.656  12.848
40780W        W 5941  34.159  15.124  11.485
40781W        W 5942  26.064   9.478  11.052
40782W        W 5943  22.718  26.497   3.160
40783W        W 5944  36.384  30.948  10.475
40784W        W 5945   3.742   5.292   4.183
40785W        W 5946  32.491   1.843  10.201
40786W        W 5947  26.940  37.835  14.303
40787W        W 5948   5.979  11.763   4.111
40788W        W 5949  11.675  15.017  11.091
40789W        W 5950  36.082   6.888  10.706
40790W        W 5951   8.525  24.789   3.453
40791W        W 5952  35.646  31.868   0.469
40792W        W 5953  30.917   7.190   0.330
40793W        W 5954  21.967  42.025   0.316
40794W        W 5955  37.427  17.693   4.115
40795W        W 5956  41.494  23.969   2.451
40796W        W 5957   4.401  28.237   0.039
40797W        W 5958  34.319  16.229  10.736
40798W        W 5959  32.560   4.954   0.219
40799W        W 5960   5.145   8.570   0.284
40800W        W 5961   8.940  17.348  14.918
40801W        W 5962  10.235  21.548   2.866
40802W        W 5963  44.827  30.878  12.495
40803W        W 5964  17.268   7.153  12.865
40804W        W 5965   6.160   5.118  12.769
40805W        W 5966  20.522  11.348   3.559
40806W        W 5967  16.867  43.507  14.730
40807W        W 5968   8.317  12.322   1.182
40808W        W 5969  23.476   6.710   4.495
40809W        W 5970   1.974  23.781  14.986
40810W        W 5971  10.828   9.910  12.621
40811W        W 5972  24.614  36.326  12.688
40812W        W 5973   2.756  34.041   2.667
40813W        W 5974  39.787  37.149   2.808
40814W        W 5975   5.207  21.148  14.974
40815W        W 5976  31.700  18.273  11.308
40816W        W 5977  26.705   7.730  13.465
40817W        W 5978   9.367  29.366   0.839
40818W        W 5979  31.783  35.891  11.067
40819W        W 5980  43.648   7.786  14.740
40820W        W 5981  24.016   1.835   2.594
40821W        W 5982  16.610  29.738   3.342
40822W        W 5983  22.947  42.548   2.348
40823W        W 5984  23.420  36.531   2.193
40824W        W 5985  42.311  37.894  11.944
40825W        W 5986  25.562  23.550   4.288
40826W        W 5987  27.834   3.074  14.556
40827W        W 5988   6.151  41.355  12.107
40828W        W 5989  10.659  41.498  14.936
40829W        W 5990  19.500  17.723   1.983
40830W        W 5991  13.567  26.856  12.106
40831W        W 5992  19.758   2.935   1.309
40832W        W 5993  19.777  12.566   3.141
40833W        W 5994  38.574  11.882   0.555
40834W        W 5995   5.703   4.800   4.143
40835W        W 5996  36.486  12.327  11.988
40836W        W 5997   9.445  28.538   4.057
40837W        W 5998  12.354  41.373   0.981
40838W        W 5999  13.349   3.437   0.002
40839W        W 6000  11.202  34.482  11.152
40840W        W 6001  42.335  20.585  14.835
40841W        W 6002   7.689  23.115  12.083
40842W        W 6003  43.321  30.689  10.681
40843W        W 6004   2.894  23.743  11.877
40844W        W 6005  32.002  44.668  12.540
40845W        W 6006  18.124  12.851  14.416
40846W        W 6007  19.994  12.126   3.311
40847W        W 6008  17.280   5.134  13.151
40848W        W 6009  18.467  15.398   1.862
40849W        W 6010  11.755  21.455   1.738
40850W        W 6011  13.351   4.960  11.441
40851W        W 6012   3.215  44.666  13.755
40852W        W 6013   6.205  34.441  14.192
40853W        W 6014  18.590  33.860   2.956
40854W        W 6015  12.651  31.563  14.232
40855W        W 6016  33.867  30.458   1.898
40856W        W 6017   0.790   8.688   3.696
40857W        W 6018   8.462  35.940   4.589
40858W        W 6019  40.071  21.969  14.096
40859W        W 6020  41.836  40.007  10.437
40860W        W 6021  33.184  10.451  13.368
40861W        W 6022  33.040   3.902  13.435
40862W        W 6023  30.568  41.235  14.852
40863W        W 6024  19.060   4.680   0.430
40864W        W 6025  41.070  12.055   4.994
40865W        W 6026   8.759  19.155   4.532
40866W        W 6027  38.120   8.190  11.650
40867W        W 6028   1.805  12.852   2.331
40868W        W 6029  24.647  22.332   3.529
40869W        W 6030  15.091  33.420  11.495
40870W        W 6031   9.309  21.531   0.473
40871W        W 6032  35.847  16.824  11.439
40872W        W 6033  19.651   3.421   2.210
40873W        W 6034  41.749  44.037  13.889
40874W        W 6035  21.986  21.055  14.501
40875W        W 6036  32.200   7.351  11.776
40876W        W 6037  17.169  35.236   4.906
40877W        W 6038  36.740  39.537   3.677
40878W        W 6039  34.925   7.808   4.206
40879W        W 6040  42.330  19.533   0.605
40880W        W 6041  34.712  44.833   1.299
40881W        W 6042  38.892  32.437   4.875
40882W        W 6043  19.094  37.027   0.174
40883W        W 6044  42.590  41.719   5.159
40884W        W 6045  21.638  44.858  13.974
40885W        W 6046  20.593  10.585   2.423
40886W        W 6047  16.569  22.819  11.142
40887W        W 6048   4.319  19.411  11.577
40888W        W 6049  36.798  35.891  11.553
40889W        W 6050  12.176  31.023   3.527
40890W        W 6051   2.666  14.107   0.771
40891W        W 6052  12.959  13.777   4.496
40892W        W 6053  33.463  16.425   1.304
40893W        W 6054   3.953  36.341   3.743
40894W        W 6055  39.309  34.790   2.703
40895W        W 6056  19.065  32.054   1.424
40896W        W 6057   4.368  36.178  12.050
40897W        W 6058  32.908  39.394   0.280
40898W        W 6059  44.950   5.981   0.361
40899W        W 6060  25.670  36.314   2.541
40900W        W 6061  42.551  15.618   4.118
40901W        W 6062  37.150   8.908  12.059
40902W        W 6063  29.444  23.403  12.157
40903W        W 6064  14.537  20.149  12.131
40904W        W 6065  39.638  40.426  13.543
40905W        W 6066  29.118   4.827  14.998
40906W        W 6067  36.620   8.518  14.530
40907W        W 6068  18.666   0.468   1.833
40908W        W 6069   1.585  30.494   3.260
40909W        W 6070  41.839  36.064   9.700
40910W        W 6071  21.147  17.863   4.459
40911W        W 6072  29.252  36.395  13.186
40912W        W 6073  20.922  10.378   4.582
40913W        W 6074   5.941   8.880  11.155
40914W        W 6075  19.867  16.670   3.559
40915W        W 6076   0.778  34.865   2.007
40916W        W 6077   2.291   8.590  10.541
40917W        W 6078  43.376   0.559   2.952
40918W        W 6079  23.192  20.971  11.532
40919W        W 6080  30.539  14.352   3.723
40920W        W 6081   0.233  18.526  12.467
40921W        W 6082  41.136  10.000  13.395
40922W        W 6083  17.819  13.319  10.504
40923W        W 6084  30.023  38.494   0.445
40924W        W 6085  11.638   6.399  12.090
40925W        W 6086  17.291  19.041  14.457
40926W        W 6087   3.481  17.667  14.530
40927W        W 6088  15.345  43.554   3.676
40928W        W 6089   6.648   2.953  11.450
40929W        W 6090   8.153  39.988  10.941
40930W        W 6091   2.963  17.590   0.991
40931W        W 6092  37.750  20.226  13.854
40932W        W 6093  16.892  23.855   1.178
40933W        W 6094  44.674  38.144  14.762
40934W        W 6095  36.424  30.813   3.855
40935W        W 6096  32.961   2.265   4.729
40936W        W 6097  25.239   0.193  14.458
40937W        W 6098  30.513  10.908  11.157
40938W        W 6099  26.831   9.040   4.630
40939W        W 6100  37.227  10.934   4.144
40940W        W 6101  38.582  38.430   1.763
40941W        W 6102   5.245  28.051   1.335
40942W        W 6103  20.238  43.079  13.482
40943W        W 6104   3.024  18.703  12.923
40944W        W 6105   3.368   9.041  13.292
40945W        W 6106  12.731  37.824  11.764
40946W        W 6107  33.991   4.500   4.206
40947W        W 6108  28.982  31.680   0.895
40948W        W 6109  40.996  30.375   2.080
40949W        W 6110  25.644  15.728   3.859
40950W        W 6111   0.012  15.628   1.713
40951W        W 6112  43.814  27.924   4.678
40952W        W 6113  17.821  17.268  11.687
40953W        W 6114   8.019  44.120  13.412
40954W        W 6115  41.477  26.960  10.380
40955W        W 6116  21.798  17.506   3.359
40956W        W 6117  11.130  22.992   0.520
40957W        W 6118  44.892   9.410  10.607
40958W        W 6119  16.705   8.565  14.429
40959W        W 6120  32.440  40.892   4.066
40960W        W 6121   8.835  19.231  13.025
40961W        W 6122   2.135  32.557   3.345
40962W        W 6123  37.245   3.642   1.023
40963W        W 6124  38.430  41.831  12.851
40964W        W 6125  37.934  18.663   0.269
40965W        W 6126  36.423  35.959   1.513
40966W        W 6127  33.281  26.107   2.260
40967W        W 6128  20.231  37.365   4.243
40968W        W 6129   6.721  23.678  13.586
40969W        W 6130  37.794  25.194   0.881
40970W        W 6131  16.287  43.079  14.379
40971W        W 6132  10.782  13.168   2.383
40972W        W 6133  17.007  15.152  13.822
40973W        W 6134  40.506   3.911   4.721
40974W        W 6135  24.791  17.830   4.590
40975W        W 6136  19.754  18.453  14.290
40976W        W 6137  24.574   9.584  10.809
40977W        W 6138  10.926  33.854   4.269
40978W        W 6139  15.697  18.779  11.195
40979W        W 6140  16.158  11.749   0.726
40980W        W 6141  38.595  44.529   0.242
40981W        W 6142   4.276  40.999   1.630
40982W        W 6143  41.008   8.270   0.011
40983W        W 6144  29.531  24.890  12.178
40984W        W 6145  30.034  29.153  14.782
40985W        W 6146  28.106  22.663   4.771
40986W        W 6147  37.142  40.855   2.774
40987W        W 6148  40.410  25.046   4.538
40988W        W 6149  12.946  41.055   4.705
40989W        W 6150  35.583  30.599  13.773
40990W        W 6151  42.528  22.143   4.040
40991W        W 6152  16.272   4.546  13.777
40992W        W 6153  10.203  36.108   5.138
40993W        W 6154  43.886  22.135   2.127
40994W        W 6155   8.529  28.063  14.048
40995W        W 6156   7.945  34.438   2.663
40996W        W 6157  32.572  16.377  10.820
40997W        W 6158   4.352  13.275  12.896
40998W        W 6159   0.904  40.920  11.132
40999W        W 6160   1.751  20.329  11.168
41000W        W 6161  27.881  18.087  12.931
41001W        W 6162  22.193  14.430   9.801
41002W        W 6163  26.049  16.806  12.507
41003W        W 6164  16.683  37.594  14.024
41004W        W 6165  37.401  31.001  11.674
41005W        W 6166   0.212  17.091   0.327
41006W        W 6167  19.670  11.142  12.666
41007W        W 6168   8.602  33.922  14.855
41008W        W 6169  27.565  44.555   1.638
41009W        W 6170   4.760  37.112   3.718
41010W        W 6171  40.465  11.841   1.389
41011W        W 6172  30.457  36.076  11.538
41012W        W 6173  42.011  15.307   3.810
41013W        W 6174  18.515  26.536   0.838
41014W        W 6175  39.358  20.504   4.423
41015W        W 6176  18.539   8.666  10.573
41016W        W 6177  30.971  30.165  14.818
41017W        W 6178  20.994  24.063   1.336
41018W        W 6179  28.379  24.258   2.370
41019W        W 6180  22.144  22.582  12.568
41020W        W 6181  12.280  40.628  14.307
41021W        W 6182  39.801  26.229   2.652
41022W        W 6183  16.459   2.729  12.067
41023W        W 6184  29.078  24.452  13.048
41024W        W 6185  31.510   1.488   4.099
41025W        W 6186  17.725  22.697   2.900
41026W        W 6187  37.899   2.828   0.372
41027W        W 6188  15.767   3.234  13.930
41028W        W 6189  22.618   3.459  12.009
41029W        W 6190  42.087   5.524  13.422
41030W        W 6191  14.872  33.619   3.728
41031W        W 6192   5.795  27.597  14.421
41032W        W 6193  29.443  39.259  14.465
41033W        W 6194  11.949  35.540  14.411
41034W        W 6195  32.112  24.054  13.580
41035W        W 6196  40.771  31.608   1.857
41036W        W 6197   7.637   3.800  11.106
41037W        W 6198  37.105  25.237  12.568
41038W        W 6199  43.077  21.348  14.528
41039W        W 6200  12.358  33.188  10.817
41040W        W 6201  15.318  40.079   1.291
41041W        W 6202  26.437  36.393  14.950
41042W        W 6203  11.830   1.080   0.797
41043W        W 6204  13.604  39.523   4.720
41044W        W 6205  27.323  19.607   0.800
41045W        W 6206  19.199  42.867   1.256
41046W        W 6207  44.810   6.284   2.327
41047W        W 6208  35.911   2.973   3.166
41048W        W 6209   4.257  40.357  10.694
41049W        W 6210  21.649  36.335   4.236
41050W        W 6211  15.350   0.813   3.237
41051W        W 6212  30.798  36.295   2.207
41052W        W 6213  23.234  43.316   2.780
41053W        W 6214   2.802  43.584  12.028
41054W        W 6215  14.081   6.803  12.657
41055W        W 6216  32.214  41.344   1.955
41056W        W 6217   0.867   3.447   0.113
41057W        W 6218  20.303  23.507   1.490
41058W        W 6219  29.708  13.937  12.830
41059W        W 6220   6.655  40.778  11.597
41060W        W 6221  10.984  29.029   4.020
41061W        W 6222  29.559  32.515   0.703
41062W        W 6223   0.391  15.250  14.832
41063W        W 6224  37.347  34.076   4.189
41064W        W 6225  29.046  28.981  11.505
41065W        W 6226   3.012  33.974   0.636
41066W        W 6227  42.367   9.175   0.861
41067W        W 6228  38.432   8.400   3.592
41068W        W 6229  43.535  12.342  12.583
41069W        W 6230   5.892  23.283  10.267
41070W        W 6231  31.620   6.926   2.309
41071W        W 6232  22.505  35.519  11.550
41072W        W 6233  43.758  39.346  13.397
41073W        W 6234  22.120  29.714  14.535
41074W        W 6235   9.138  21.836  14.433
41075W        W 6236  11.126  23.685   2.219
41076W        W 6237  18.715  22.638  11.632
41077W        W 6238   2.176  30.876  13.772
41078W        W 6239  34.249  39.116  14.839
41079W        W 6240  44.542  23.450   3.254
41080W        W 6241   1.744  35.745  13.310
41081W        W 6242  14.755  31.661   4.197
41082W        W 6243   0.847  12.129   2.275
41083W        W 6244  37.802   2.238   3.428
41084W        W 6245  19.674   7.410  13.287
41085W        W 6246  34.337  11.599   3.339
41086W        W 6247  20.194  41.866  14.068
41087W        W 6248  20.472  12.702  14.205
41088W        W 6249  39.503  27.111  13.816
41089W        W 6250  34.989  35.305  14.294
41090W        W 6251  40.920   6.270   3.114
41091W        W 6252  44.959  20.613  14.728
41092W        W 6253   2.257  13.825   1.080
41093W        W 6254  40.911  15.159   1.228
41094W        W 6255  40.930  32.419   1.223
41095W        W 6256  15.814   7.909   1.387
41096W        W 6257   1.534   4.989   0.746
41097W        W 6258   2.335  36.328   3.136
41098W        W 6259  29.771   7.312  14.019
41099W        W 6260  14.860   8.148   3.484
41100W        W 6261  14.788  27.797   3.685
41101W        W 6262  37.142   8.674   1.382
41102W        W 6263  10.284   1.814  13.166
41103W        W 6264  44.883  30.099  14.192
41104W        W 6265  37.489  34.578  13.936
41105W        W 6266  40.122  44.325   2.176
41106W        W 6267  17.256  36.390   0.551
41107W        W 6268   7.484   8.178   4.562
41108W        W 6269  36.231  10.524  13.474
41109W        W 6270  33.916  22.244  13.484
41110W        W 6271   8.671  34.916  10.708
41111W        W 6272  23.045  11.927   1.863
41112W        W 6273   5.071   6.357  13.465
41113W        W 6274  26.115  30.745  12.767
41114W        W 6275  34.639  36.082   1.946
41115W        W 6276  36.504  23.721  10.732
41116W        W 6277  44.576  44.511   0.637
41117W        W 6278  13.591  19.384  10.402
41118W        W 6279  40.061  15.561   1.653
41119W        W 6280  14.850  23.475   3.322
41120W        W 6281  13.145  27.594  11.615
41121W        W 6282   6.281  11.916  12.903
41122W        W 6283  41.820  19.232   4.950
41123W        W 6284  28.915   4.963   1.414
41124W        W 6285  24.739   2.711   3.755
41125W        W 6286  33.478   4.669   1.359
41126W        W 6287  37.092  37.984  10.538
41127W        W 6288  39.539  22.095  12.403
41128W        W 6289  39.679   8.661   1.597
41129W        W 6290   8.742  40.234   2.268
41130W        W 6291  25.727   2.002   1.241
41131W        W 6292   8.656  35.918  13.935
41132W        W 6293  16.888  19.169   1.681
41133W        W 6294  13.793  22.380   0.335
41134W        W 6295  13.744   3.755   0.915
41135W        W 6296  12.589  28.108   2.185
41136W        W 6297  25.304  29.088   2.524
41137W        W 6298  44.497  32.400  13.794
41138W        W 6299  35.254  15.083   0.192
41139W        W 6300  35.587   0.273   3.299
41140W        W 6301  17.710  44.027  14.708
41141W        W 6302  13.034  41.905  11.080
41142W        W 6303  34.172  24.892   1.348
41143W        W 6304   1.463  21.060  12.646
41144W        W 6305   8.932  25.687   3.612
41145W        W 6306   8.277  34.673  14.935
41146W        W 6307  29.411  22.466  13.335
41147W        W 6308  28.630  39.193  14.279
41148W        W 6309   2.852   3.610  11.551
41149W        W 6310   3.771  37.859  10.937
41150W        W 6311  26.084  25.455  11.176
41151W        W 6312  41.833  42.436   1.010
41152W        W 6313   8.396   7.940  11.575
41153W        W 6314  37.403  12.325  13.555
41154W        W 6315  24.854  15.558   2.796
41155W        W 6316  35.527  12.832  14.437
41156W        W 6317  15.102  33.429   0.242
41157W        W 6318  22.589  28.984  13.010
41158W        W 6319  41.024  16.800   0.801
41159W        W 6320  19.844   6.753  11.157
41160W        W 6321  29.675  41.547   1.446
41161W        W 6322  30.637  44.549  14.946
41162W        W 6323  30.928  26.054  10.790
41163W        W 6324  33.549  22.726   2.403
41164W        W 6325  20.534  42.103   0.400
41165W        W 6326   8.224  24.873  10.303
41166W        W 6327  24.682  34.468   4.106
41167W        W 6328  35.567  35.079   3.540
41168W        W 6329   0.054   9.422   1.477
41169W        W 6330   2.425  41.473  13.903
41170W        W 6331  33.001  27.459   4.865
41171W        W 6332  11.245  31.754   4.551
41172W        W 6333  22.158  37.428  10.322
41173W        W 6334  32.883  33.849   3.759
41174W        W 6335   0.535  14.846  11.693
41175W        W 6336   0.805   5.668  14.501
41176W        W 6337  34.358   6.216   3.453
41177W        W 6338  12.578  21.288  10.645
41178W        W 6339  44.330   7.174   0.741
41179W        W 6340  43.255  37.520  13.915
41180W        W 6341  25.606  43.057  11.939
41181W        W 6342   6.678   1.274   1.297
41182W        W 6343   4.881  13.006  13.595
41183W        W 6344   3.212  41.417  13.429
41184W        W 6345  24.900  34.490   1.497
41185W        W 6346  24.910  23.103  12.040
41186W        W 6347  23.324  27.395  11.638
41187W        W 6348   5.192  36.893   1.291
41188W        W 6349  33.618  32.424  12.841
41189W        W 6350  43.458  16.027  11.997
41190W        W 6351  28.985  36.835   2.212
41191W        W 6352  25.471  33.218   1.816
41192W        W 6353  41.753  37.040  12.355
41193W        W 6354   9.199   4.139  12.178
41194W        W 6355  28.745  28.327   4.926
41195W        W 6356  39.476  40.856   3.180
41196W        W 6357  32.647  12.779   1.933
41197W        W 6358  15.362  30.015   0.284
41198W        W 6359  23.120  27.533   3.601
41199W        W 6360  18.078  37.874  12.196
41200W        W 6361   6.834  22.729   3.268
41201W        W 6362  35.470  25.753  12.341
41202W        W 6363  23.200  18.553  11.942
41203W        W 6364  37.945  26.650  14.045
41204W        W 6365  40.807  23.222   1.502
41205W        W 6366  38.805  43.240  10.705
41206W        W 6367  24.600   8.665   5.300
41207W        W 6368   9.820  42.866   4.750
41208W        W 6369  28.371   7.758   2.777
41209W        W 6370  30.998  33.717   3.050
41210W        W 6371  13.724   8.850  10.425
41211W        W 6372  11.373  28.939  10.686
41212W        W 6373  43.905  43.319   0.785
41213W        W 6374  35.934  38.980   1.458
41214W        W 6375  41.203  36.827   4.659
41215W        W 6376  11.379  15.280  10.700
41216W        W 6377  31.510  21.535   3.727
41217W        W 6378  13.262  20.594  13.056
41218W        W 6379   7.366  21.315  10.625
41219W        W 6380  25.765  12.322   3.667
41220W        W 6381  27.072  39.741  12.081
41221W        W 6382  33.387  16.382   2.248
41222W        W 6383  18.209  32.847   4.538
41223W        W 6384  39.031   8.144   4.560
41224W        W 6385  20.132  35.525  12.729
41225W        W 6386   0.056  24.641  13.481
41226W        W 6387  44.632  12.681   5.633
41227W        W 6388  19.626   0.200  12.065
41228W        W 6389  30.502   2.643   1.803
41229W        W 6390  19.597  28.505   0.416
41230W        W 6391  13.064   4.012  14.430
41231W        W 6392   6.563  34.838  13.858
41232W        W 6393   7.813  15.766   2.557
41233W        W 6394  31.603  16.219   1.633
41234W        W 6395  33.591  17.817  10.262
41235W        W 6396  17.821  21.140  11.605
41236W        W 6397  27.310  10.650  12.417
41237W        W 6398  43.922  37.452  12.673
41238W        W 6399   8.348  34.458   4.944
41239W        W 6400   0.492   9.149   1.552
41240W        W 6401  23.972  10.817  12.172
41241W        W 6402  14.264   1.537  11.557
41242W        W 6403  38.239  43.311  14.300
41243W        W 6404  14.735   7.253  12.711
41244W        W 6405  32.569  40.554  10.898
41245W        W 6406  18.652  16.674  14.031
41246W        W 6407  35.156   7.459   0.029
41247W        W 6408  21.450  10.315  12.882
41248W        W 6409  25.065  35.350   3.657
41249W        W 6410  30.392  31.413  13.866
41250W        W 6411  30.651  40.139  11.644
41251W        W 6412   5.359  14.700   4.558
41252W        W 6413  35.893  21.789   4.732
41253W        W 6414  33.996   4.916  14.684
41254W        W 6415   0.401  25.020  13.576
41255W        W 6416  34.500   1.422  12.496
41256W        W 6417  13.345  24.999  14.881
41257W        W 6418  25.501  18.199  12.920
41258W        W 6419  12.114  31.944   2.630
41259W        W 6420  33.253  31.479   0.734
41260W        W 6421  22.843  35.856  12.443
41261W        W 6422  44.226   3.387  14.271
41262W        W 6423  44.071  31.533   4.491
41263W        W 6424  41.256  13.047  14.756
41264W        W 6425   6.137  22.751   2.491
41265W        W 6426  13.565  42.968  13.022
41266W        W 6427  31.467  32.235   1.669
41267W        W 6428   9.390  15.834  11.720
41268W        W 6429   7.188  40.047   3.785
41269W        W 6430  37.378   5.274   1.432
41270W        W 6431  12.158   4.221  11.586
41271W        W 6432   4.743  21.213   1.852
41272W        W 6433  16.316  30.600   2.276
41273W        W 6434   3.461  14.681   3.174
41274W        W 6435   0.241  21.751   1.434
41275W        W 6436  29.494  28.914   0.950
41276W        W 6437  24.780   4.906   1.195
41277W        W 6438   9.126  29.519  12.959
41278W        W 6439  41.579  39.476  11.550
41279W        W 6440  30.938   2.952   5.061
41280W        W 6441  34.807  28.420  11.003
41281W        W 6442  44.344   5.907  11.703
41282W        W 6443  42.466  27.519  11.108
41283W        W 6444  42.282   6.884   1.101
41284W        W 6445  23.420  20.994   0.703
41285W        W 6446  30.513  25.581  10.729
41286W        W 6447  19.037   3.805  14.217
41287W        W 6448  41.154  15.215  10.860
41288W        W 6449  43.338  35.814   0.273
41289W        W 6450  37.690  12.227  11.082
41290W        W 6451   4.428  29.872   0.433
41291W        W 6452  42.574   2.762   4.838
41292W        W 6453  25.925   5.616  11.515
41293W        W 6454   3.687  13.554   1.396
41294W        W 6455  17.249   8.303   2.307
41295W        W 6456   2.395  14.045   0.237
41296W        W 6457   9.093   3.642  13.038
41297W        W 6458  34.189  34.589   0.309
41298W        W 6459  40.906   6.040  11.148
41299W        W 6460  42.488  31.996   1.997
41300W        W 6461  25.699   9.365  11.567
41301W        W 6462  38.963  20.918  13.168
41302W        W 6463   3.857  16.088  13.634
41303W        W 6464  43.048  36.878  14.957
41304W        W 6465  25.885  15.243  10.843
41305W        W 6466  32.994  23.247   1.727
41306W        W 6467  33.546  28.476   0.938
41307W        W 6468  23.054  17.037   1.725
41308W        W 6469  20.995  23.187  12.162
41309W        W 6470  19.703  39.113  14.336
41310W        W 6471  17.671  33.984  10.336
41311W        W 6472   0.305   4.231  12.588
41312W        W 6473  41.810  37.685   0.655
41313W        W 6474   5.498   0.319  12.814
41314W        W 6475   2.694  39.797  12.652
41315W        W 6476  14.330  31.977  12.225
41316W        W 6477  42.635  37.094   1.297
41317W        W 6478  44.497  21.145  11.140
41318W        W 6479  27.258  14.296  13.982
41319W        W 6480  44.605  34.050   2.621
41320W        W 6481  20.351   8.057  11.904
41321W        W 6482  26.769  23.823   3.638
41322W        W 6483  22.789   4.550   3.326
41323W        W 6484  18.781  27.730  13.016
41324W        W 6485   2.172  25.958   2.764
41325W        W 6486  37.380  23.404   4.377
41326W        W 6487  42.131  13.807  11.531
41327W        W 6488   1.081  17.218   2.176
41328W        W 6489  44.184  13.361  10.205
41329W        W 6490  39.862  35.079   3.615
41330W        W 6491  21.805  24.253   0.806
41331W        W 6492  29.186  43.161   0.829
41332W        W 6493   7.301  27.896   0.230
41333W        W 6494  22.539  27.428  14.469
41334W        W 6495  31.007   5.474  14.867
41335W        W 6496  21.557  24.560  12.101
41336W        W 6497   5.248  35.998   2.212
41337W        W 6498   2.731  41.121   2.282
41338W        W 6499  14.792   5.397  12.161
41339W        W 6500   1.542  10.412  11.044
41340W        W 6501  23.544  43.500  11.245
41341W        W 6502  26.437   4.853  10.649
41342W        W 6503   6.251  37.970  14.419
41343W        W 6504  16.848   1.842   5.124
41344W        W 6505  40.302  42.951  13.880
41345W        W 6506   0.629   6.705   1.232
41346W        W 6507  36.007  36.578   0.568
41347W        W 6508  32.428  19.136   3.180
41348W        W 6509  20.231  43.102  10.158
41349W        W 6510  44.244  34.043  11.463
41350W        W 6511   9.630  11.934   2.702
41351W        W 6512  28.372  31.276   3.732
41352W        W 6513  28.790  22.955   0.433
41353W        W 6514   8.327  19.292  12.955
41354W        W 6515   3.183   7.756  10.919
41355W        W 6516  16.986   1.643  14.927
41356W        W 6517  33.373  25.079  12.924
41357W        W 6518  42.326   6.927  14.431
41358W        W 6519  13.916  26.953   3.331
41359W        W 6520  39.771   3.312   1.775
41360W        W 6521  31.172  42.822   2.115
41361W        W 6522  17.844  41.250  12.983
41362W        W 6523  34.526  25.514   3.247
41363W        W 6524  43.381  22.699   0.748
41364W        W 6525   4.846  20.116   0.291
41365W        W 6526  34.550   4.980  11.500
41366W        W 6527  20.135  23.434   4.908
41367W        W 6528   0.509  40.299   2.758
41368W        W 6529  28.056  36.578  12.933
41369W        W 6530   7.875  15.199   0.278
41370W        W 6531  28.911  33.325  13.925
41371W        W 6532  40.342  22.009   2.303
41372W        W 6533   9.347  42.228   4.327
41373W        W 6534  10.565  34.873   4.277
41374W        W 6535  22.894  32.810  12.986
41375W        W 6536  26.105  29.602   0.817
41376W        W 6537  35.476  21.242   1.280
41377W        W 6538  40.082   6.730   4.410
41378W        W 6539  43.798   3.746   4.929
41379W        W 6540  34.938   5.874   1.731
41380W        W 6541  12.112  42.717   0.019
41381W        W 6542   7.373  21.208  13.930
41382W        W 6543   1.938  37.963   1.951
41383W        W 6544  37.722   0.964  10.859
41384W        W 6545   8.502  12.715  14.885
41385W        W 6546  27.717  14.442  11.572
41386W        W 6547  17.151  23.970   3.117
41387W        W 6548  21.125  26.358   1.397
41388W        W 6549  19.217  16.552   0.496
41389W        W 6550  16.134  33.006   1.921
41390W        W 6551  40.458   4.517  11.869
41391W        W 6552  16.513  42.246   1.954
41392W        W 6553  28.697  21.180   3.840
41393W        W 6554   8.739  26.979  11.627
41394W        W 6555  41.878  32.943   0.084
41395W        W 6556  44.564  12.201  14.877
41396W        W 6557  12.040  35.203   3.322
41397W        W 6558  19.400  38.951  10.581
41398W        W 6559   7.366  21.011   0.428
41399W        W 6560  44.067  34.358   5.063
41400W        W 6561  11.863  42.933   1.941
41401W        W 6562  43.945  34.096   4.617
41402W        W 6563   2.724  29.628   0.385
41403W        W 6564  12.112  13.960   0.870
41404W        W 6565  11.285  24.175   2.111
41405W        W 6566   4.193  30.974   1.470
41406W        W 6567  26.959   8.937  12.897
41407W        W 6568  36.801  36.977   0.759
41408W        W 6569   1.911   5.423  13.818
41409W        W 6570   6.754  22.003  10.545
41410W        W 6571   3.775  11.875   4.680
41411W        W 6572  39.114   8.739   9.931
41412W        W 6573  37.956   8.740   4.261
41413W        W 6574  43.766  22.543  12.831
41414W        W 6575  15.601   6.580   0.184
41415W        W 6576  19.961   2.242  11.462
41416W        W 6577   4.857  35.623  10.606
41417W        W 6578   3.409  44.500   3.739
41418W        W 6579  16.663  11.555   5.073
41419W        W 6580  32.514  18.610   1.005
41420W        W 6581  36.519  32.560   0.861
41421W        W 6582  30.563   8.127  10.807
41422W        W 6583  14.250   0.466   1.127
41423W        W 6584  32.918  20.090   1.814
41424W        W 6585   2.924  24.615  10.805
41425W        W 6586   3.850  32.201  14.362
41426W        W 6587  26.042  17.014   1.323
41427W        W 6588  34.457  44.402  14.792
41428W        W 6589   6.944  30.107   0.436
41429W        W 6590  24.484  12.651  11.964
41430W        W 6591  30.416  35.850   3.700
41431W        W 6592  33.042  28.449   0.176
41432W        W 6593  27.146  25.053  13.866
41433W        W 6594  26.145  23.232  10.330
41434W        W 6595  43.889  12.321  12.140
41435W        W 6596  30.482  24.642  14.235
41436W        W 6597   7.495  35.070   0.788
41437W        W 6598  17.695  28.317   1.461
41438W        W 6599  21.820   0.167   0.291
41439W        W 6600  30.656  10.914  11.957
41440W        W 6601  26.130   3.237   5.010
41441W        W 6602  15.307  43.944   4.598
41442W        W 6603  30.368  30.993  14.146
41443W        W 6604  29.155  23.477  14.028
41444W        W 6605  26.987  27.401   1.219
41445W        W 6606  11.265  23.252   1.839
41446W        W 6607  16.041  25.684   0.852
41447W        W 6608  42.828   1.226  10.638
41448W        W 6609   9.207   2.465  10.657
41449W        W 6610  23.988  37.126  10.725
41450W        W 6611   6.483  25.760  13.531
41451W        W 6612  22.978  23.446  14.473
41452W        W 6613  20.074   7.286  12.992
41453W        W 6614  15.091   4.674   1.362
41454W        W 6615  31.411  13.306   1.891
41455W        W 6616  17.326  27.573  12.940
41456W        W 6617   5.442  35.522   2.167
41457W        W 6618  28.011   4.230   1.373
41458W        W 6619  40.797  29.719  10.670
41459W        W 6620  35.864  11.751   0.840
41460W        W 6621  38.889  33.836   2.845
41461W        W 6622  15.136  12.594  14.826
41462W        W 6623  39.147  42.403   4.521
41463W        W 6624  44.449   8.196  14.809
41464W        W 6625  23.069  26.027   0.068
41465W        W 6626  25.083   1.185  11.212
41466W        W 6627  42.661  19.695  13.388
41467W        W 6628  26.371  18.768   2.225
41468W        W 6629  11.008  41.108  14.798
41469W        W 6630  13.331  32.165  11.500
41470W        W 6631  24.642  33.507  14.731
41471W        W 6632  29.155  10.439   1.346
41472W        W 6633  22.539  44.765  14.631
41473W        W 6634  12.751   1.568   0.847
41474W        W 6635   2.511  28.598   4.605
41475W        W 6636  40.234  24.740   3.577
41476W        W 6637   3.413   8.908   4.050
41477W        W 6638  25.036   5.450  14.346
41478W        W 6639  38.997  37.009   0.023
41479W        W 6640   5.991  31.123  10.317
41480W        W 6641  33.153   7.848   1.716
41481W        W 6642   3.683  24.142   0.405
41482W        W 6643  42.213  20.795  12.967
41483W        W 6644  43.065   6.402  11.908
41484W        W 6645   1.169  27.643  12.879
41485W        W 6646  38.116  28.316   4.192
41486W        W 6647  38.370  19.672  12.014
41487W        W 6648  41.571  19.096   2.810
41488W        W 6649  18.232  39.203   2.662
41489W        W 6650   0.412  11.453   5.100
41490W        W 6651  42.344  16.115  11.470
41491W        W 6652   9.230  18.866   0.327
41492W        W 6653  22.152   8.003   0.870
41493W        W 6654  30.409  22.657  12.642
41494W        W 6655   7.082  24.500  11.219
41495W        W 6656  24.139  26.424   1.818
41496W        W 6657  43.311  16.703   4.617
41497W        W 6658  33.430  30.039  13.885
41498W        W 6659  32.958  21.112  12.899
41499W        W 6660   2.571  11.581  11.596
41500W        W 6661  41.895   5.700   4.127
41501W        W 6662  30.532  19.563   4.751
41502W        W 6663  28.191  43.646   1.405
41503W        W 6664  25.226   0.391  11.871
41504W        W 6665  36.035  29.718   1.800
41505W        W 6666  36.545  24.402   2.769
41506W        W 6667  30.970  25.910  12.117
41507W        W 6668   1.650  12.787   4.354
41508W        W 6669  41.773  27.888   0.785
41509W        W 6670  24.598  36.022  11.927
41510W        W 6671   9.748  35.003   4.778
41511W        W 6672   8.642  31.966  10.926
41512W        W 6673  34.421   1.961   3.575
41513W        W 6674  27.212   0.406  14.297
41514W        W 6675  41.817  28.659  13.030
41515W        W 6676   3.000  25.240  13.186
41516W        W 6677  18.406  44.424  10.170
41517W        W 6678   2.519  38.001   1.304
41518W        W 6679  32.235   0.037   2.798
41519W        W 6680   6.289   7.854   1.851
41520W        W 6681   6.149  18.654  13.872
41521W        W 6682  38.447  29.425   1.380
41522W        W 6683   6.929   5.933  11.632
41523W        W 6684  14.150  24.217  14.098
41524W        W 6685   0.823  24.685  11.382
41525W        W 6686  11.967  18.710   0.064
41526W        W 6687  44.942  10.846  13.253
41527W        W 6688   7.861  24.627  11.984
41528W        W 6689  19.295  14.577  10.267
41529W        W 6690  35.361  41.959  13.233
41530W        W 6691  39.978  39.076  12.013
41531W        W 6692  34.017  40.697   0.927
41532W        W 6693   8.354  15.251  10.413
41533W        W 6694  20.958  29.020   2.098
41534W        W 6695   8.859  20.758   3.792
41535W        W 6696  13.153  35.412   2.694
41536W        W 6697  27.453   5.805   3.627
41537W        W 6698  20.036  24.969   3.993
41538W        W 6699  25.599   8.332  12.710
41539W        W 6700  38.569   8.236  11.436
41540W        W 6701  17.054  23.704  14.656
41541W        W 6702  12.081  35.658   4.333
41542W        W 6703  42.391  39.130  12.406
41543W        W 6704  31.021  11.276  14.807
41544W        W 6705   8.129  27.439   1.250
41545W        W 6706  15.808  36.074   0.385
41546W        W 6707   8.780  19.462  12.560
41547W        W 6708  36.508   0.598   3.089
41548W        W 6709  27.771  29.896  11.572
41549W        W 6710  26.498  34.972  12.877
41550W        W 6711   7.409  13.731   2.652
41551W        W 6712   1.885  21.279  12.836
41552W        W 6713  41.160  27.752  11.034
41553W        W 6714  27.223   7.903   1.785
41554W        W 6715  33.216  31.385  11.589
41555W        W 6716   6.125  24.106   3.137
41556W        W 6717  32.188  41.843  11.701
41557W        W 6718  43.408  29.681   4.565
41558W        W 6719   1.740  30.158   2.289
41559W        W 6720   5.976  37.059   3.522
41560W        W 6721   5.203   9.264   0.864
41561W        W 6722  28.545  34.506  12.681
41562W        W 6723  14.018  23.111  13.552
41563W        W 6724   1.414   9.521   4.462
41564W        W 6725  17.300   1.704   0.740
41565W        W 6726  25.292   4.372   1.811
41566W        W 6727  15.357   8.358   2.221
41567W        W 6728   0.516  28.742   3.939
41568W        W 6729  12.943  26.635   0.632
41569W        W 6730   4.285  40.101  13.877
41570W        W 6731  40.237  38.121  11.591
41571W        W 6732  33.000  38.762  12.807
41572W        W 6733  44.282  11.777  14.943
41573W        W 6734   9.679  38.827   4.886
41574W        W 6735  30.979  24.172  11.921
41575W        W 6736  40.873  12.299  13.211
41576W        W 6737  16.723   9.131   3.376
41577W        W 6738  34.923  31.489   4.844
41578W        W 6739  20.153  11.019   0.893
41579W        W 6740  10.971  17.284  12.535
41580W        W 6741  44.428   6.354  14.498
41581W        W 6742  38.990  17.731   4.532
41582W        W 6743  25.271  24.051  11.491
41583W        W 6744  28.921  36.578   0.317
41584W        W 6745  28.547   8.118  10.811
41585W        W 6746  35.383  32.025  13.370
41586W        W 6747   2.306  33.692  11.018
41587W        W 6748  40.432  33.972   1.768
41588W        W 6749  31.432  32.359   4.693
41589W        W 6750   5.430   6.905  13.677
41590W        W 6751  38.346  35.801  14.810
41591W        W 6752  13.120  38.534   0.884
41592W        W 6753   9.226  21.715   4.058
41593W        W 6754   4.365  17.033   0.059
41594W        W 6755   7.669  31.033   4.787
41595W        W 6756  21.324   2.438  14.237
41596W        W 6757  37.594  37.386  12.508
41597W        W 6758  37.762  36.089  10.030
41598W        W 6759  33.594  14.678   0.840
41599W        W 6760   8.716   2.600  10.687
41600W        W 6761  12.492  29.483  11.265
41601W        W 6762  16.476  23.683  11.608
41602W        W 6763  17.641  20.245  12.132
41603W        W 6764  24.227   1.168  10.727
41604W        W 6765   6.795  28.067  11.994
41605W        W 6766   7.308  41.250  14.930
41606W        W 6767  43.890  44.999  12.410
41607W        W 6768   3.860   1.240  11.137
41608W        W 6769   7.162  38.596   2.811
41609W        W 6770  23.511  14.721  13.791
41610W        W 6771  29.486   2.659  12.101
41611W        W 6772   6.242  19.423  12.450
41612W        W 6773  43.735  33.859   0.121
41613W        W 6774  11.326  17.650   3.593
41614W        W 6775  16.130  21.994   4.295
41615W        W 6776   8.455   6.017   3.734
41616W        W 6777   4.766  41.836   1.473
41617W        W 6778  42.470  35.645  11.452
41618W        W 6779  26.210  25.685  13.013
41619W        W 6780   2.263  18.301  10.970
41620W        W 6781  14.668  12.618   3.189
41621W        W 6782  27.517  26.025  11.244
41622W        W 6783  36.012   9.317   3.405
41623W        W 6784  30.347  23.150   1.375
41624W        W 6785  23.911  42.358  14.186
41625W        W 6786  12.979  21.800   2.586
41626W        W 6787  12.817  44.040  11.386
41627W        W 6788  14.920  36.410  11.981
41628W        W 6789  37.048  43.267  11.907
41629W        W 6790  24.984  32.548   1.165
41630W        W 6791  18.502   2.396  13.496
41631W        W 6792  11.243   6.123  11.532
41632W        W 6793  30.090  12.557   1.946
41633W        W 6794   1.957   0.834   0.024
41634W        W 6795   0.904  16.381   2.686
41635W        W 6796  42.442  22.437   1.157
41636W        W 6797  24.071  19.582   2.846
41637W        W 6798   1.407  40.269  12.426
41638W        W 6799  25.372  32.175   4.185
41639W        W 6800  22.097  38.780   3.271
41640W        W 6801   9.809  29.604  12.032
41641W        W 6802   6.811  16.124   1.772
41642W        W 6803  43.055  32.901  11.719
41643W        W 6804  32.482  22.979  14.244
41644W        W 6805  34.016  29.142  10.413
41645W        W 6806   9.793  16.036   3.857
41646W        W 6807  20.882  41.979   3.982
41647W        W 6808   9.842  33.937  11.801
41648W        W 6809  42.429  17.226  12.121
41649W        W 6810   7.676  33.607   2.219
41650W        W 6811   7.135   6.898   3.195
41651W        W 6812  43.050  15.142  13.513
41652W        W 6813  14.314  37.372   0.907
41653W        W 6814  24.273   5.856  13.741
41654W        W 6815  33.765  43.413  11.123
41655W        W 6816  38.922  43.662   2.912
41656W        W 6817   0.186  14.839  13.045
41657W        W 6818   9.632   7.895  12.423
41658W        W 6819  16.296  26.495  12.116
41659W        W 6820  17.548  15.950  10.306
41660W        W 6821  35.334  21.049   1.752
41661W        W 6822  36.945  32.113  14.754
41662W        W 6823  37.125   7.776   1.295
41663W        W 6824  19.668  28.418  14.827
41664W        W 6825  21.706  16.928  11.819
41665W        W 6826  10.125   7.537  10.806
41666W        W 6827  28.204  37.222  11.191
41667W        W 6828  27.067   6.633  12.620
41668W        W 6829   0.291   5.889  12.502
41669W        W 6830  40.025  24.300  13.083
41670W        W 6831  12.584  33.560   3.639
41671W        W 6832   7.763   6.980   0.942
41672W        W 6833  28.171  41.606   4.544
41673W        W 6834  39.472  43.772   3.207
41674W        W 6835  40.760   6.340   4.912
41675W        W 6836  32.354  14.865  10.553
41676W        W 6837  17.034  12.364   5.220
41677W        W 6838  28.020  28.519   3.702
41678W        W 6839  43.968  39.459  13.860
41679W        W 6840  26.970  31.043  13.815
41680W        W 6841  43.938  32.446  11.698
41681W        W 6842  13.267  33.927   0.528
41682W        W 6843  41.940  30.131  10.452
41683W        W 6844  44.616  34.050   1.723
41684W        W 6845  36.939  37.298   4.103
41685W        W 6846  14.666   0.397   2.423
41686W        W 6847  18.767   3.323   0.456
41687W        W 6848  35.846  31.884   0.992
41688W        W 6849  27.547  36.931   0.424
41689W        W 6850   5.394  44.564  11.067
41690W        W 6851  26.880  27.733  13.409
41691W        W 6852  16.882  17.345  11.736
41692W        W 6853  40.086   9.321   4.131
41693W        W 6854  24.662  12.250  13.795
41694W        W 6855  41.520  31.438  12.252
41695W        W 6856  22.190  37.036   2.689
41696W        W 6857  13.916  16.821  14.275
41697W        W 6858  14.459  26.047   2.469
41698W        W 6859  16.707  29.681   0.617
41699W        W 6860   9.379  21.480  13.602
41700W        W 6861   6.695  32.990   2.709
41701W        W 6862   7.715   9.201   4.775
41702W        W 6863   4.838  31.246  10.211
41703W        W 6864  31.985  32.031   3.268
41704W        W 6865   7.604  19.277   2.715
41705W        W 6866  41.253   8.715   4.325
41706W        W 6867  31.345  16.177   1.201
41707W        W 6868  27.102  12.454   4.981
41708W        W 6869  22.406  28.922  12.432
41709W        W 6870  11.662  34.451  10.658
41710W        W 6871   8.411   7.049   1.832
41711W        W 6872   8.724  42.925  14.276
41712W        W 6873  32.408  43.042  11.128
41713W        W 6874  25.430  40.572   0.809
41714W        W 6875  20.011  41.775  13.535
41715W        W 6876  22.697  14.084  14.009
41716W        W 6877  12.683  19.263  12.449
41717W        W 6878  36.081  13.404   1.918
41718W        W 6879  20.222  24.519   0.305
41719W        W 6880  37.341  34.001  11.610
41720W        W 6881  17.107  38.428   2.604
41721W        W 6882  42.785  23.233   3.028
41722W        W 6883   0.389  29.482  14.801
41723W        W 6884  13.273  12.166  14.220
41724W        W 6885  15.304  31.774   2.879
41725W        W 6886  26.868  11.191   2.229
41726W        W 6887  32.525  12.750  10.749
41727W        W 6888  21.201   3.189   5.405
41728W        W 6889  24.192  41.959   2.320
41729W        W 6890  42.542  24.600   4.237
41730W        W 6891  22.271  16.022   5.330
41731W        W 6892  36.408  13.068  11.079
41732W        W 6893  24.909   9.335   4.860
41733W        W 6894  12.073  44.356   0.887
41734W        W 6895  40.453   6.928  14.863
41735W        W 6896  27.467   0.497   2.682
41736W        W 6897  22.965  37.306  13.389
41737W        W 6898   6.403  12.434   3.671
41738W        W 6899  32.424  25.956   3.746
41739W        W 6900  42.647  28.106  11.617
41740W        W 6901  11.449  39.983  13.590
41741W        W 6902  35.536  44.569   4.079
41742W        W 6903   8.453  20.073  12.298
41743W        W 6904  33.257  36.900  10.880
41744W        W 6905  24.525   1.538   3.171
41745W        W 6906  37.924  11.254   3.554
41746W        W 6907  42.112   3.887   2.834
41747W        W 6908  25.225  28.573  13.522
41748W        W 6909   3.186  35.907  11.473
41749W        W 6910   5.663  43.950   2.726
41750W        W 6911  13.728   1.961   4.362
41751W        W 6912  36.156  28.944   3.760
41752W        W 6913  25.257  21.943  11.169
41753W        W 6914   7.930  33.670  13.361
41754W        W 6915  34.922  34.029  13.439
41755W        W 6916  30.316  34.541   0.717
41756W        W 6917  42.431  26.467   1.418
41757W        W 6918   7.062  27.818  11.622
41758W        W 6919  14.042   7.868   0.458
41759W        W 6920  43.699  32.346   3.331
41760W        W 6921  23.135  15.143  10.583
41761W        W 6922  31.097   4.278   1.845
41762W        W 6923  20.610  10.690   3.947
41763W        W 6924  13.069   3.114   0.931
41764W        W 6925  31.619  20.394   1.311
41765W        W 6926  39.950  44.471   0.764
41766W        W 6927  29.395   1.074  14.841
41767W        W 6928  14.785  20.171   2.716
41768W        W 6929   3.288  16.916  10.151
41769W        W 6930  13.741  35.583  12.447
41770W        W 6931  43.496  14.232  10.739
41771W        W 6932  29.297  18.641   0.041
41772W        W 6933  28.539  25.965  14.352
41773W        W 6934  37.900   5.962   0.496
41774W        W 6935  28.457   7.970  12.528
41775W        W 6936  18.178  13.651  10.727
41776W        W 6937   1.710  33.501  13.205
41777W        W 6938  18.514  37.898  13.845
41778W        W 6939  29.992  28.213  10.767
41779W        W 6940  29.215  36.506  14.096
41780W        W 6941   7.941  35.932  10.569
41781W        W 6942  18.281   0.109  12.385
41782W        W 6943  16.758  14.614   4.541
41783W        W 6944   6.731  36.200   1.273
41784W        W 6945  14.774  16.850  10.002
41785W        W 6946  15.179  32.646   2.341
41786W        W 6947  15.020  22.414   1.916
41787W        W 6948  26.746  34.081   2.782
41788W        W 6949  42.331  40.218   0.414
41789W        W 6950   4.880  21.165  11.973
41790W        W 6951  21.060  33.191  13.307
41791W        W 6952  27.928  31.306   4.064
41792W        W 6953  18.548  13.932  14.902
41793W        W 6954  34.389  12.354   3.983
41794W        W 6955  42.491  16.195  11.990
41795W        W 6956  37.964  29.371   0.676
41796W        W 6957   5.346  18.985   3.031
41797W        W 6958  43.491  42.479  12.663
41798W        W 6959  35.073  26.271   0.278
41799W        W 6960  42.432  36.475   2.578
41800W        W 6961  27.106  28.747   4.110
41801W        W 6962  44.484   7.231   2.276
41802W        W 6963   6.479  19.138   4.426
41803W        W 6964  17.966  23.148  10.672
41804W        W 6965  13.557  25.378  12.305
41805W        W 6966  43.013  14.259   4.735
41806W        W 6967   6.717   3.461   2.051
41807W        W 6968   7.211  12.230   2.253
41808W        W 6969  42.619  10.652   0.018
41809W        W 6970   7.734  36.630   3.646
41810W        W 6971  18.645  24.321  11.975
41811W        W 6972  24.036   0.212   3.744
41812W        W 6973  27.232  39.937  10.627
41813W        W 6974   6.797   8.388   0.405
41814W        W 6975  25.779   3.441   0.970
41815W        W 6976  28.158  12.381  14.774
41816W        W 6977  13.326  44.936   0.037
41817W        W 6978  22.368  18.935   4.159
41818W        W 6979   9.507  24.943  13.308
41819W        W 6980  22.262   1.954  14.398
41820W        W 6981  23.738  44.889   1.274
41821W        W 6982  37.795  20.161   4.217
41822W        W 6983  34.375  28.445   1.241
41823W        W 6984  22.179  26.754  12.922
41824W        W 6985  29.572   3.366   4.677
41825W        W 6986  25.264  16.580  11.938
41826W        W 6987  27.605  24.604  10.856
41827W        W 6988   6.137  13.083   2.829
41828W        W 6989  40.455  19.619   1.794
41829W        W 6990   8.577  35.327   3.917
41830W        W 6991  43.361   6.427   4.607
41831W        W 6992  32.951  18.163  12.606
41832W        W 6993   5.341  43.845   2.192
41833W        W 6994  35.473  32.064  13.914
41834W        W 6995  43.181  15.452   4.980
41835W        W 6996  38.074   1.814  13.498
41836W        W 6997   7.845   2.478   3.194
41837W        W 6998   0.996   8.212   2.197
41838W        W 6999  40.106  24.463  10.689
41839W        W 7000  42.320  26.663   4.561
41840W        W 7001  41.736  27.400  10.186
41841W        W 7002  26.199  42.996   3.602
41842W        W 7003  11.256  40.770   0.665
41843W        W 7004  39.501  31.078   0.687
41844W        W 7005  30.009   5.980   4.300
41845W        W 7006   6.380  25.774  12.585
41846W        W 7007  17.133   4.275  14.828
41847W        W 7008  40.092  20.186  12.023
41848W        W 7009  36.907  37.056  10.414
41849W        W 7010  31.107  21.783   0.987
41850W        W 7011  43.056   4.318   3.796
41851W        W 7012   9.079  32.070  14.217
41852W        W 7013  36.086  42.772   2.982
41853W        W 7014   0.603  13.277  14.356
41854W        W 7015  15.352  38.979  12.447
41855W        W 7016  23.078  17.137   4.198
41856W        W 7017  33.981  15.053   3.692
41857W        W 7018   3.720   2.303   5.143
41858W        W 7019  27.664  44.240  12.022
41859W        W 7020  31.400  44.770  13.932
41860W        W 7021  28.965  24.919   2.789
41861W        W 7022  35.622  37.522   1.928
41862W        W 7023  39.511  20.490   0.382
41863W        W 7024  17.303  23.432   1.859
41864W        W 7025  34.332  37.764   4.257
41865W        W 7026  26.424  33.606  10.726
41866W        W 7027  16.174  37.533   1.264
41867W        W 7028  43.689   6.325  13.367
41868W        W 7029   9.710  15.650   4.627
41869W        W 7030  40.023  18.826   1.164
41870W        W 7031  30.463   4.460   4.530
41871W        W 7032   2.488  16.158   4.077
41872W        W 7033   4.186   8.184  13.263
41873W        W 7034  20.611   5.143   4.233
41874W        W 7035  18.630  32.440  11.654
41875W        W 7036  43.387   6.752   1.682
41876W        W 7037  19.740   4.565  11.541
41877W        W 7038  39.396  34.223   3.281
41878W        W 7039  42.282  14.662  11.020
41879W        W 7040  24.749   8.918   3.799
41880W        W 7041  39.857   3.009  12.507
41881W        W 7042   9.857  10.930   4.168
41882W        W 7043   3.778  35.652  14.474
41883W        W 7044   8.042  39.905  10.455
41884W        W 7045  44.834   2.395   2.746
41885W        W 7046  17.131   8.900   9.912
41886W        W 7047  22.248  11.303  14.727
41887W        W 7048  39.874  44.150   1.363
41888W        W 7049  36.895  25.017   3.689
41889W        W 7050  41.029  24.375  13.594
41890W        W 7051  35.615  40.983   0.185
41891W        W 7052  24.982   8.822   4.965
41892W        W 7053   1.976  43.043  14.178
41893W        W 7054  26.577   0.687  10.617
41894W        W 7055  21.337   3.529  10.230
41895W        W 7056  35.099  44.262   0.733
41896W        W 7057  36.489  13.940  12.778
41897W        W 7058  36.856  43.122  12.364
41898W        W 7059  27.017  16.313  10.346
41899W        W 7060  24.587  21.161  10.199
41900W        W 7061  22.499  32.463  10.565
41901W        W 7062  19.104  18.883  11.963
41902W        W 7063  13.124  36.843  11.443
41903W        W 7064  23.595  22.020  11.965
41904W        W 7065  42.331  21.187   3.695
41905W        W 7066   0.937  10.670  14.435
41906W        W 7067  40.465  29.828  11.208
41907W        W 7068  27.289  38.492   2.238
41908W        W 7069  17.634  10.591   0.384
41909W        W 7070  17.518  15.361   1.896
41910W        W 7071  27.482  11.046   2.162
41911W        W 7072  26.667  37.089   0.498
41912W        W 7073  37.841  30.182  13.412
41913W        W 7074  41.085  34.420   0.661
41914W        W 7075  22.630   1.961  11.185
41915W        W 7076  43.074  18.239  14.923
41916W        W 7077  23.169  13.908   2.816
41917W        W 7078   1.242  43.904   4.631
41918W        W 7079   1.026   4.224   4.101
41919W        W 7080   2.102  24.980   0.499
41920W        W 7081  44.229  33.565   4.297
41921W        W 7082  36.635  34.087   0.945
41922W        W 7083  30.127  10.119   3.256
41923W        W 7084  15.676   1.482   4.798
41924W        W 7085  25.609  21.577  11.123
41925W        W 7086  15.107  26.578  14.844
41926W        W 7087   0.259  28.555  12.413
41927W        W 7088   7.635  41.816  11.173
41928W        W 7089  42.896  34.488   0.908
41929W        W 7090  27.216   8.284   4.251
41930W        W 7091   1.694  17.706  11.607
41931W        W 7092  41.644  32.966  11.087
41932W        W 7093  28.138   5.212   3.229
41933W        W 7094   2.369  15.609  11.638
41934W        W 7095   4.118  26.476   3.059
41935W        W 7096  18.286  24.569  14.402
41936W        W 7097  39.946   9.147   2.318
41937W        W 7098  23.243  39.249  14.753
41938W        W 7099  14.186  19.493  12.574
41939W        W 7100   4.407  19.176   3.763
41940W        W 7101  28.958  13.751   1.753
41941W        W 7102   4.957  30.649  11.197
41942W        W 7103  25.583  31.648  10.273
41943W        W 7104  43.843  36.746   1.614
41944W        W 7105  12.120  36.579   4.131
41945W        W 7106  27.712  36.102  12.495
41946W        W 7107  22.934   5.406  13.902
41947W        W 7108  12.298  16.190  11.207
41948W        W 7109  41.232   0.828  14.739
41949W        W 7110  41.972  31.974   1.915
41950W        W 7111  41.267  27.007   4.668
41951W        W 7112   3.914  11.724   1.229
41952W        W 7113   2.511  31.135   2.315
41953W        W 7114   1.788  37.218  11.113
41954W        W 7115  40.790  39.857  13.319
41955W        W 7116  37.595  23.767   1.681
41956W        W 7117  13.299  27.493   4.312
41957W        W 7118  18.634  30.817  10.603
41958W        W 7119  26.679   7.175  14.759
41959W        W 7120  44.361   2.123   4.600
41960W        W 7121  28.995   3.497  13.353
41961W        W 7122  37.793   3.835   0.454
41962W        W 7123   8.789  27.506  13.906
41963W        W 7124   4.299   2.277  14.018
41964W        W 7125  14.390  30.929   4.322
41965W        W 7126  44.270   6.669   0.890
41966W        W 7127  10.381   3.351  13.298
41967W        W 7128  21.289   7.873   3.391
41968W        W 7129  12.083  27.545   1.873
41969W        W 7130  20.269  25.600  14.393
41970W        W 7131  26.613  36.271   1.504
41971W        W 7132  15.068  27.810   4.125
41972W        W 7133  29.562   2.236  14.899
41973W        W 7134  34.604  40.611  14.230
41974W        W 7135  21.165   1.298  14.831
41975W        W 7136   9.743  17.612  11.111
41976W        W 7137  19.741  41.132   2.422
41977W        W 7138  17.651  38.846  14.800
41978W        W 7139  16.657  38.360  12.247
41979W        W 7140  44.847  20.716  10.402
41980W        W 7141  38.763  12.178   3.635
41981W        W 7142  42.127  44.432   1.650
41982W        W 7143  22.020   9.578  11.280
41983W        W 7144   5.041  31.487  13.401
41984W        W 7145   7.603  21.655   4.834
41985W        W 7146  37.219  10.579   1.391
41986W        W 7147  15.522   0.695   4.633
41987W        W 7148  27.480   4.183  11.148
41988W        W 7149  30.232  23.529  13.350
41989W        W 7150  32.553   3.733   3.683
41990W        W 7151   8.748   1.329  11.368
41991W        W 7152  34.522  10.266  11.216
41992W        W 7153   8.783  37.040  10.751
41993W        W 7154  32.478  14.409   0.428
41994W        W 7155  18.746  36.907  13.400
41995W        W 7156  30.534  26.714  12.854
41996W        W 7157  24.745  44.424  10.962
41997W        W 7158   3.477  29.651  14.981
41998W        W 7159  33.139  26.993  11.085
41999W        W 7160  27.524  41.766   0.054
42000W        W 7161  38.951  26.629  13.492
42001W        W 7162  44.733  12.512  11.470
42002W        W 7163   5.494  14.503   5.056
42003W        W 7164  25.049  33.363  14.456
42004W        W 7165   2.824  19.457  14.571
42005W        W 7166   0.997  14.332  12.569
42006W        W 7167  13.234   3.442  11.923
42007W        W 7168  18.765   6.440  10.712
42008W        W 7169   5.609  11.434  14.400
42009W        W 7170  37.881  25.966  13.024
42010W        W 7171  33.087  36.741  14.524
42011W        W 7172  16.138   2.777   4.643
42012W        W 7173  27.596  21.523  14.370
42013W        W 7174  39.429  30.410   4.112
42014W        W 7175   9.821  30.147  10.467
42015W        W 7176  35.338  14.661  13.664
42016W        W 7177  42.064   0.030   2.810
42017W        W 7178  43.498   0.929  14.436
42018W        W 7179  24.034  24.532   0.438
42019W        W 7180  10.374  26.528   2.865
42020W        W 7181  14.229  41.980   4.435
42021W        W 7182  42.224   7.682  10.701
42022W        W 7183   0.280  26.711  13.857
42023W        W 7184  37.293  29.898  14.877
42024W        W 7185   1.812  11.131  10.560
42025W        W 7186  38.155  19.095   0.494
42026W        W 7187  14.681  34.919   0.727
42027W        W 7188  42.270  40.081   4.150
42028W        W 7189  15.671  31.856  10.857
42029W        W 7190  26.971  29.784   2.411
42030W        W 7191  44.905   3.168   0.940
42031W        W 7192  16.177  23.228  13.521
42032W        W 7193  13.611   3.212  11.144
42033W        W 7194   1.386  33.328  11.101
42034W        W 7195  12.780   9.427  14.602
42035W        W 7196  39.492  16.114   0.403
42036W        W 7197  13.098  23.000   2.686
42037W        W 7198   4.036   7.141  14.493
42038W        W 7199  14.779  32.387  10.787
42039W        W 7200   2.921   0.528   0.243
42040W        W 7201  25.899  17.194  14.381
42041W        W 7202  37.862  28.457   5.020
42042W        W 7203  33.762  24.686   4.090
42043W        W 7204   5.603  34.851  12.862
42044W        W 7205  20.504  10.713   2.980
42045W        W 7206  41.237  22.023  10.653
42046W        W 7207  10.377  10.746  13.437
42047W        W 7208  29.483  35.917   1.888
42048W        W 7209  20.497  28.817   1.988
42049W        W 7210   9.372  30.937  12.617
42050W        W 7211  43.265  32.564   2.295
42051W        W 7212  12.277  16.704   1.262
42052W        W 7213   9.161  14.574  13.796
42053W        W 7214  38.372  41.205  11.991
42054W        W 7215  23.649  34.102   5.069
42055W        W 7216   3.171  26.032   5.040
42056W        W 7217  11.844  22.908   1.690
42057W        W 7218  32.829  35.466  13.976
42058W        W 7219  19.484  15.081   2.573
42059W        W 7220  26.976  13.919   3.284
42060W        W 7221  19.531  25.775  13.818
42061W        W 7222   5.804  33.703   0.282
42062W        W 7223   9.716  23.612  13.357
42063W        W 7224   3.809  40.775   1.725
42064W        W 7225  13.728  17.953   3.598
42065W        W 7226   3.232   2.778   3.268
42066W        W 7227  23.994  34.158   1.806
42067W        W 7228  14.064  23.606  14.811
42068W        W 7229   8.275   2.984   1.921
42069W        W 7230  20.949  10.849   4.323
42070W        W 7231  12.352  25.244   1.920
42071W        W 7232   5.165  12.637   3.551
42072W        W 7233  44.664  33.726   5.165
42073W        W 7234  29.167   6.264  12.887
42074W        W 7235  29.053  16.637   4.118
42075W        W 7236  28.994  22.720   1.621
42076W        W 7237  39.581  34.868  12.167
42077W        W 7238  24.527  18.037  13.968
42078W        W 7239  30.142   2.772  11.487
42079W        W 7240  19.576  23.471   3.243
42080W        W 7241   1.987  34.180  13.748
42081W        W 7242  33.221  35.513  12.820
42082W        W 7243  14.110  16.361  13.505
42083W        W 7244  36.370  11.097   4.222
42084W        W 7245  12.385  19.048   2.291
42085W        W 7246  42.489  24.482   0.027
42086W        W 7247  38.973  24.937   4.114
42087W        W 7248  19.040   8.178   2.802
42088W        W 7249   4.268  41.151   5.073
42089W        W 7250  40.252  34.191  13.498
42090W        W 7251  18.780  16.281   0.851
42091W        W 7252  35.148   6.525   3.646
42092W        W 7253   1.198  15.661  10.831
42093W        W 7254  27.443  26.924  11.314
42094W        W 7255  24.619  41.038  10.990
42095W        W 7256   6.290  31.883   1.287
42096W        W 7257   8.733  26.948   9.843
42097W        W 7258  13.159  11.376  14.306
42098W        W 7259  41.856  32.449   4.623
42099W        W 7260  40.062  43.030  14.374
42100W        W 7261  28.461  32.351   3.764
42101W        W 7262  21.746  31.904   2.231
42102W        W 7263  15.563  15.321   1.573
42103W        W 7264  12.492  18.071  11.264
42104W        W 7265  23.070   9.076   9.938
42105W        W 7266   5.360  37.422  11.416
42106W        W 7267   7.647  43.768   2.273
42107W        W 7268  15.411  24.369  10.953
42108W        W 7269  10.561   2.832   2.768
42109W        W 7270   7.311  28.135  11.974
42110W        W 7271  24.801  35.416   5.430
42111W        W 7272  18.087  38.735  12.427
42112W        W 7273   1.234  34.619   4.076
42113W        W 7274  18.788  32.252  12.645
42114W        W 7275  31.866   2.775   3.163
42115W        W 7276  41.524  19.525   1.918
42116W        W 7277  21.777  33.892   3.453
42117W        W 7278  21.986  37.474  12.482
42118W        W 7279  27.545   9.626  13.373
42119W        W 7280   3.097  33.303   5.010
42120W        W 7281  20.009  12.625   1.186
42121W        W 7282  12.001  13.577  14.886
42122W        W 7283   5.475  30.124   0.028
42123W        W 7284  44.470   1.840   3.215
42124W        W 7285  15.646  16.046  11.543
42125W        W 7286  23.171  12.238   2.631
42126W        W 7287  25.075  17.076  12.925
42127W        W 7288  34.996  38.596   0.841
42128W        W 7289  26.441  35.789  11.170
42129W        W 7290   2.253  26.074   1.021
42130W        W 7291   2.442  25.374   0.328
42131W        W 7292  43.035  22.837  14.804
42132W        W 7293  14.742  18.309   5.076
42133W        W 7294  39.910  12.312   0.890
42134W        W 7295  11.416  19.333  12.034
42135W        W 7296   3.853  37.690   1.204
42136W        W 7297   9.569  10.257   4.896
42137W        W 7298   2.501  26.621   2.805
42138W        W 7299  26.690  32.032  11.281
42139W        W 7300  41.725  32.638   3.169
42140W        W 7301   0.559  33.535  14.361
42141W        W 7302  34.779  12.803  11.973
42142W        W 7303  26.198  42.948   3.070
42143W        W 7304   0.633   0.274   1.758
42144W        W 7305  14.670   2.906  11.974
42145W        W 7306  27.578  36.607   4.592
42146W        W 7307   2.066  31.640  12.075
42147W        W 7308  44.332  18.126   1.804
42148W        W 7309  23.811  10.448  10.245
42149W        W 7310  18.708  26.639   1.302
42150W        W 7311  18.602  29.531  10.926
42151W        W 7312  11.672  44.373   2.195
42152W        W 7313  35.324  38.493   3.609
42153W        W 7314  34.744  36.969  10.549
42154W        W 7315   2.393  16.979   1.162
42155W        W 7316  20.066  31.541   4.212
42156W        W 7317  24.295  33.593   2.457
42157W        W 7318   3.659  35.073   4.573
42158W        W 7319  34.183  43.828  11.471
42159W        W 7320  31.772   7.377  14.925
42160W        W 7321  25.204  20.090   1.167
42161W        W 7322  13.141  37.056   3.353
42162W        W 7323  12.745  27.459  14.765
42163W        W 7324   5.680  11.197  10.246
42164W        W 7325  13.703  18.285   2.298
42165W        W 7326  11.821  33.580   3.073
42166W        W 7327   7.200   9.185  12.539
42167W        W 7328  18.013  12.097   0.889
42168W        W 7329   8.212   8.986  11.157
42169W        W 7330  31.971   4.333   1.241
42170W        W 7331   1.966   4.192  13.046
42171W        W 7332  17.360  26.176   5.007
42172W        W 7333  41.074   8.371  13.398
42173W        W 7334  14.866  26.113  14.831
42174W        W 7335  18.587  37.937   3.957
42175W        W 7336  33.687   7.483  12.062
42176W        W 7337  23.120   6.889   0.355
42177W        W 7338  38.867  21.203   4.015
42178W        W 7339  17.629  29.417  11.050
42179W        W 7340  33.593  29.084  14.019
42180W        W 7341  16.616  31.124   3.614
42181W        W 7342  14.687  27.271   3.791
42182W        W 7343  16.943  19.693   0.386
42183W        W 7344  26.514  23.722  12.531
42184W        W 7345   5.691  25.060  14.287
42185W        W 7346  14.040  41.805  14.984
42186W        W 7347  30.550  20.132   2.284
42187W        W 7348  27.026  44.158  14.812
42188W        W 7349   1.973  24.857   4.552
42189W        W 7350  20.871  39.552   3.592
42190W        W 7351  24.638  11.184   0.344
42191W        W 7352  37.245  41.927  12.066
42192W        W 7353  26.184   7.227   2.054
42193W        W 7354   4.234  41.667  11.942
42194W        W 7355  39.957  31.991   1.612
42195W        W 7356   3.714  20.164  14.912
42196W        W 7357   4.667   1.750   3.617
42197W        W 7358  39.276  13.842   4.537
42198W        W 7359   4.884  41.774  13.544
42199W        W 7360  33.361  41.292  12.091
42200W        W 7361   4.737  11.178  10.592
42201W        W 7362  18.043  44.398  14.825
42202W        W 7363  27.929  10.353   1.725
42203W        W 7364  14.359  22.165   3.575
42204W        W 7365  24.008  38.788   0.961
42205W        W 7366  22.698  22.035   2.544
42206W        W 7367  28.667   1.956   2.177
42207W        W 7368  20.775  21.790   0.012
42208W        W 7369   4.364  14.013   4.974
42209W        W 7370  14.614  35.983  13.098
42210W        W 7371  24.077   8.334   3.096
42211W        W 7372  23.931  29.222   1.386
42212W        W 7373  25.124  36.288  13.033
42213W        W 7374  11.314  43.461  11.993
42214W        W 7375   7.786  37.454  12.571
42215W        W 7376  35.813  40.569   3.692
42216W        W 7377  37.610  43.997  11.441
42217W        W 7378  20.838  18.214   4.119
42218W        W 7379   7.503  42.034  13.067
42219W        W 7380  25.659   8.306   4.827
42220W        W 7381  38.817   7.252  13.796
42221W        W 7382  21.278  30.517   1.618
42222W        W 7383   6.419  37.564   0.844
42223W        W 7384  33.566  41.533  11.219
42224W        W 7385  39.421  33.967  13.815
42225W        W 7386   0.793  14.744  11.227
42226W        W 7387  38.937  17.034   1.822
42227W        W 7388  10.239  18.479  13.555
42228W        W 7389  15.598  29.642   3.218
42229W        W 7390  30.816  19.587   3.669
42230W        W 7391  29.025  24.266  13.533
42231W        W 7392   4.313   0.724   2.252
42232W        W 7393   8.320  43.553   1.626
42233W        W 7394  16.198   9.933   0.588
42234W        W 7395  39.554   9.837   3.024
42235W        W 7396  17.228  24.399  11.219
42236W        W 7397  27.136  10.254  10.532
42237W        W 7398  21.670  26.594   3.097
42238W        W 7399   5.109  11.779   1.299
42239W        W 7400   8.312  32.382  13.538
42240W        W 7401  37.394  11.024  11.505
42241W        W 7402  31.731  41.262  13.907
42242W        W 7403  41.871  12.865  13.956
42243W        W 7404  13.089   5.646  12.459
42244W        W 7405   6.783  24.543  13.983
42245W        W 7406  17.710  35.083   3.230
42246W        W 7407  13.435   1.239   1.265
42247W        W 7408  31.826  40.082   1.778
42248W        W 7409   3.878  32.940   3.119
42249W        W 7410  23.119  24.483  11.976
42250W        W 7411  26.526  18.222   0.679
42251W        W 7412  36.485  42.228  11.647
42252W        W 7413  30.250  19.936   1.514
42253W        W 7414   7.185   8.315  11.555
42254W        W 7415  28.888  23.921   2.641
42255W        W 7416  36.506  23.801  12.122
42256W        W 7417  18.459  10.540   3.408
42257W        W 7418  37.811   2.606  11.606
42258W        W 7419  19.638  38.570   0.197
42259W        W 7420  31.437  11.844   0.370
42260W        W 7421  20.531   4.958  13.976
42261W        W 7422  15.802   8.422  11.312
42262W        W 7423  17.690  22.090  12.864
42263W        W 7424  36.039  35.132   2.302
42264W        W 7425  34.093  23.265  10.646
42265W        W 7426  29.900  21.762   4.463
42266W        W 7427  24.645  44.204   3.157
42267W        W 7428  16.277  25.526   1.294
42268W        W 7429  33.989   4.246   2.011
42269W        W 7430  34.867  42.934   0.498
42270W        W 7431  33.798  27.644   0.541
42271W        W 7432  28.704  43.802   1.309
42272W        W 7433  18.852  22.532   1.393
42273W        W 7434   0.094  40.027   9.971
42274W        W 7435  19.171  42.836  14.266
42275W        W 7436  44.773  27.655   3.246
42276W        W 7437  41.513  14.997   3.234
42277W        W 7438  14.200  40.306   3.595
42278W        W 7439  26.050  19.593   4.040
42279W        W 7440  23.938   3.913   2.728
42280W        W 7441  28.607  20.801  13.926
42281W        W 7442  19.846   0.760   3.396
42282W        W 7443   1.811  38.030  10.745
42283W        W 7444  34.563  30.407   4.816
42284W        W 7445   0.854  42.914   4.794
42285W        W 7446  14.593  36.380  10.711
42286W        W 7447  24.420  29.419  12.045
42287W        W 7448  28.025  32.192  14.342
42288W        W 7449  26.105  13.614   0.199
42289W        W 7450  31.899  37.880  12.446
42290W        W 7451  13.742   4.685  13.302
42291W        W 7452   5.072  44.306   2.251
42292W        W 7453  32.444  19.461  13.721
42293W        W 7454   6.205  32.529   4.397
42294W        W 7455   4.910  21.972  13.905
42295W        W 7456  42.904  42.385   0.295
42296W        W 7457  10.403  31.748  11.119
42297W        W 7458  44.246  19.252  12.911
42298W        W 7459  20.241  10.304   3.193
42299W        W 7460   9.138  26.259  11.433
42300W        W 7461  28.506   3.627  11.706
42301W        W 7462  40.514  26.219  11.047
42302W        W 7463  24.035  39.744  14.942
42303W        W 7464   2.403  33.704  10.492
42304W        W 7465  41.803  20.456   3.362
42305W        W 7466  44.095  21.306  13.690
42306W        W 7467  34.839  42.962   2.643
42307W        W 7468   9.429   7.867   4.295
42308W        W 7469  36.332  18.117  11.627
42309W        W 7470  31.495   0.414   0.839
42310W        W 7471   6.970   7.467  13.920
42311W        W 7472   9.094  10.400  11.049
42312W        W 7473  44.698  41.912  11.520
42313W        W 7474  42.645  39.361   1.420
42314W        W 7475   8.107  17.208   0.192
42315W        W 7476  15.085   6.770   4.245
42316W        W 7477  23.757  11.283   0.035
42317W        W 7478  43.339  34.422  13.392
42318W        W 7479  22.794  21.160  14.887
42319W        W 7480  31.021  11.434   0.313
42320W        W 7481  22.073  30.968   4.403
42321W        W 7482  33.178  32.985  11.676
42322W        W 7483  37.989  27.380  10.618
42323W        W 7484   1.840  42.546   0.313
42324W        W 7485  42.030  31.047  12.617
42325W        W 7486  15.167  13.158   4.789
42326W        W 7487   8.264   8.184  13.585
42327W        W 7488  39.878  44.033   0.461
42328W        W 7489   2.666  12.346   1.275
42329W        W 7490  26.394  19.361   3.669
42330W        W 7491  31.915  18.321  14.439
42331W        W 7492  34.845  28.206  14.951
42332W        W 7493   7.455  43.840   0.043
42333W        W 7494  21.710   4.972  11.623
42334W        W 7495  33.350  12.173  10.611
42335W        W 7496   6.431   4.332   2.265
42336W        W 7497  24.623  34.365  14.837
42337W        W 7498  17.764   0.021  12.413
42338W        W 7499  26.023   0.932  11.466
42339W        W 7500  40.725  24.709   3.725
42340W        W 7501  12.770   5.175   0.518
42341W        W 7502   6.894   1.838  11.201
42342W        W 7503  39.231   2.142   1.278
42343W        W 7504  35.769  34.995  11.529
42344W        W 7505  20.356  30.471  11.608
42345W        W 7506  29.847  17.219   0.306
42346W        W 7507  39.502  30.470   2.919
42347W        W 7508  17.077  40.584  13.830
42348W        W 7509  42.973  38.698   2.741
42349W        W 7510  28.616   6.507   2.364
42350W        W 7511   3.758  27.918  13.372
42351W        W 7512   9.298  30.452  13.390
42352W        W 7513   4.359  16.112  13.441
42353W        W 7514  22.448  13.594   4.096
42354W        W 7515   4.770  37.625   1.342
42355W        W 7516  38.053  19.213   3.385
42356W        W 7517  42.439   5.062   1.603
42357W        W 7518   2.114  26.572  11.327
42358W        W 7519  24.412   9.212   4.134
42359W        W 7520   6.725  17.749   3.588
42360W        W 7521  31.419  24.128   3.237
42361W        W 7522  14.107  16.308   2.155
42362W        W 7523  37.929  29.519   4.266
42363W        W 7524   6.868  32.731   3.654
42364W        W 7525  43.957   1.889   4.330
42365W        W 7526  27.192   6.966  14.790
42366W        W 7527  18.756  21.311   4.070
42367W        W 7528  27.101  41.214   3.767
42368W        W 7529  37.581   0.243   4.379
42369W        W 7530  22.040   9.938   4.127
42370W        W 7531   5.951  35.221  11.983
42371W        W 7532  16.007  44.304  12.578
42372W        W 7533  14.600  20.623  14.432
42373W        W 7534  41.461  24.248   2.888
42374W        W 7535  34.335  30.471   2.840
42375W        W 7536  37.961  30.723   4.873
42376W        W 7537  43.215  23.527  14.021
42377W        W 7538  38.382  14.156  12.021
42378W        W 7539  37.822  37.683   1.335
42379W        W 7540  23.182  28.678  11.977
42380W        W 7541  16.585   1.718  11.154
42381W        W 7542  19.201  12.364  14.489
42382W        W 7543   6.604  43.043   0.423
42383W        W 7544  32.271   4.825   1.648
42384W        W 7545  13.301   2.845   2.720
42385W        W 7546  13.203  11.853  11.828
42386W        W 7547  24.894  41.570   4.324
42387W        W 7548  17.813  11.268   2.274
42388W        W 7549  29.622  10.094  14.553
42389W        W 7550  21.538   6.743   2.409
42390W        W 7551  41.277  32.531   3.409
42391W        W 7552  18.606  16.560  14.558
42392W        W 7553   9.396  28.982   2.797
42393W        W 7554   4.518  39.410   3.939
42394W        W 7555  33.966   8.209  13.513
42395W        W 7556  33.122  30.399   4.876
42396W        W 7557  35.636   8.569  14.487
42397W        W 7558  13.200  44.804  13.387
42398W        W 7559   9.923  40.463  11.010
42399W        W 7560   6.954  33.387   0.893
42400W        W 7561  18.207  21.239   1.071
42401W        W 7562   5.237  21.996   3.846
42402W        W 7563  39.836  37.133  12.382
42403W        W 7564  40.142  43.872  14.799
42404W        W 7565  43.916  34.953  10.680
42405W        W 7566  27.635  42.154   1.273
42406W        W 7567   8.980   2.115   2.187
42407W        W 7568  14.280  31.909   4.622
42408W        W 7569  14.358   1.908  13.017
42409W        W 7570  41.615  21.087  14.905
42410W        W 7571  31.697   8.933  14.624
42411W        W 7572  27.487   4.773  11.176
42412W        W 7573  18.439  34.830  11.526
42413W        W 7574  17.097   1.593   9.933
42414W        W 7575  34.450  25.474  14.305
42415W        W 7576  20.555  14.205   1.000
42416W        W 7577  26.048  38.019  12.043
42417W        W 7578   0.178  41.266  14.906
42418W        W 7579  33.850  23.565  12.472
42419W        W 7580  39.720   1.263   0.799
42420W        W 7581  38.400  24.871  10.815
42421W        W 7582  27.849  33.787   0.506
42422W        W 7583   9.817   9.464   1.798
42423W        W 7584  38.488  31.753   0.007
42424W        W 7585   9.022   1.440   4.987
42425W        W 7586  11.629  18.479  12.443
42426W        W 7587  10.208  43.913   1.426
42427W        W 7588  44.731  42.909   2.763
42428W        W 7589  24.171  27.526  12.805
42429W        W 7590   8.043  12.320   0.698
42430W        W 7591   8.347  36.458   1.206
42431W        W 7592  39.446  15.379   3.762
42432W        W 7593  30.877  17.636   0.853
42433W        W 7594   4.723  36.659  11.944
42434W        W 7595   8.910  26.982   5.797
42435W        W 7596   5.229  16.519   2.384
42436W        W 7597  36.028  25.506  10.627
42437W        W 7598  35.075  13.207  13.827
42438W        W 7599  26.520  39.616  14.533
42439W        W 7600  39.044  26.764  10.725
42440W        W 7601   4.242  13.805   2.387
42441W        W 7602  41.504  36.456   9.826
42442W        W 7603   9.756   8.408  13.275
42443W        W 7604  12.681  24.471  12.084
42444W        W 7605  41.118  36.275   2.245
42445W        W 7606  23.733  43.954   1.306
42446W        W 7607  35.402   5.754  14.118
42447W        W 7608  30.884  24.010  13.914
42448W        W 7609  42.948   1.276  13.289
42449W        W 7610  17.630  35.793  11.092
42450W        W 7611  15.155  15.843  11.963
42451W        W 7612  20.090   2.347  12.457
42452W        W 7613  21.436   5.449  10.910
42453W        W 7614  23.100   9.961  13.584
42454W        W 7615  14.845  11.334  10.717
42455W        W 7616   4.948  42.840  13.431
42456W        W 7617  22.406  22.744   2.917
42457W        W 7618  17.264  27.226   4.582
42458W        W 7619  35.285  42.766  13.408
42459W        W 7620  25.689  15.514   0.888
42460W        W 7621  22.044  38.945   1.843
42461W        W 7622  19.311  36.087   4.099
42462W        W 7623  30.089  15.530   3.291
42463W        W 7624   7.151  14.340  12.348
42464W        W 7625  15.356   3.387   2.850
42465W        W 7626  16.550  42.309  13.747
42466W        W 7627  31.648   4.181  11.521
42467W        W 7628   0.455   4.280  10.546
42468W        W 7629   3.770  28.195   0.873
42469W        W 7630   6.477  40.648   4.905
42470W        W 7631  36.932  30.175   0.216
42471W        W 7632  40.015  34.526  13.102
42472W        W 7633  43.255  21.598   2.668
42473W        W 7634  43.944   6.346   1.207
42474W        W 7635  11.676   5.374  14.561
42475W        W 7636  11.128  19.269  11.570
42476W        W 7637  41.749   2.503   1.865
42477W        W 7638  34.093  16.799  12.560
42478W        W 7639   7.278  40.449  14.636
42479W        W 7640   5.748  40.794   4.526
42480W        W 7641  15.379  35.344   0.769
42481W        W 7642  44.835  40.929   0.540
42482W        W 7643   8.015   3.838  14.350
42483W        W 7644  43.703  35.112   4.663
42484W        W 7645  40.106   4.979   4.161
42485W        W 7646  36.491  14.313  10.751
42486W        W 7647  19.052  30.663  13.567
42487W        W 7648  21.960  35.862  12.790
42488W        W 7649  19.158   1.402   4.835
42489W        W 7650   3.550  42.043  11.661
42490W        W 7651  16.865   7.744   3.189
42491W        W 7652  17.100   5.903   4.755
42492W        W 7653   6.652   8.237  10.741
42493W        W 7654  37.423   5.941   2.339
42494W        W 7655  13.565  26.176   0.373
42495W        W 7656  21.330   5.325  12.287
42496W        W 7657   0.219  22.480  12.574
42497W        W 7658   6.724  17.576   4.074
42498W        W 7659  23.254  18.038   4.257
42499W        W 7660  29.025  15.715  13.804
42500W        W 7661  30.433  22.812  11.112
42501W        W 7662  11.326  25.611   0.452
42502W        W 7663   9.356  40.450   4.458
42503W        W 7664  20.124  33.672  13.401
42504W        W 7665   9.359  11.264  14.079
42505W        W 7666  33.509   4.770  13.497
42506W        W 7667  41.524  31.859  11.952
42507W        W 7668   2.098  34.557   2.266
42508W        W 7669  16.366  10.710   3.016
42509W        W 7670  22.145  29.291  11.729
42510W        W 7671  29.798  12.611   2.839
42511W        W 7672  43.845  29.853  12.054
42512W        W 7673  37.160   0.463   4.127
42513W        W 7674   5.015   9.382   0.336
42514W        W 7675   3.557   6.409   4.992
42515W        W 7676  39.611  40.918  11.938
42516W        W 7677  28.301  20.599   1.701
42517W        W 7678   8.652  16.683   2.979
42518W        W 7679  17.039  24.459  14.071
42519W        W 7680  33.208  41.929  11.479
42520W        W 7681   1.836  11.049  13.520
42521W        W 7682  24.130  11.737  12.908
42522W        W 7683  43.529  11.307  12.401
42523W        W 7684   3.670  26.768   2.272
42524W        W 7685  43.322  31.558   3.975
42525W        W 7686  29.408  19.831   4.281
42526W        W 7687  33.430  38.001   2.808
42527W        W 7688  34.161   9.659  13.816
42528W        W 7689  37.865  17.107   3.741
42529W        W 7690  18.558  36.709   3.210
42530W        W 7691  39.399  44.208   4.649
42531W        W 7692  11.694  11.391  10.669
42532W        W 7693  39.599  17.941  13.028
42533W        W 7694  35.501  34.126  12.042
42534W        W 7695  34.129  15.354  13.799
42535W        W 7696  32.415  15.251   0.689
42536W        W 7697  39.046  26.990   3.292
42537W        W 7698  13.203  28.567   2.881
42538W        W 7699  17.779  32.544   4.504
42539W        W 7700  25.510  20.717   2.070
42540W        W 7701  43.200   9.784   1.506
42541W        W 7702  27.172  36.865  11.414
42542W        W 7703  31.828  38.057  13.862
42543W        W 7704  20.742  11.837  11.160
42544W        W 7705  40.003  35.603   4.354
42545W        W 7706   6.417  44.807  12.455
42546W        W 7707  30.038  26.785  12.741
42547W        W 7708  15.777  35.746  14.017
42548W        W 7709  24.587   4.109   1.969
42549W        W 7710   7.477  20.292   4.751
42550W        W 7711   5.534  28.939  14.926
42551W        W 7712  12.640  19.969   2.557
42552W        W 7713  22.992  35.917   4.677
42553W        W 7714  21.913   8.731   0.524
42554W        W 7715  11.230   9.077  12.884
42555W        W 7716  40.054  21.269   4.849
42556W        W 7717  41.808   9.892   1.780
42557W        W 7718  21.830  13.141  11.323
42558W        W 7719  20.309  21.596   2.368
42559W        W 7720  13.153  44.954   3.579
42560W        W 7721   9.058  24.203  14.374
42561W        W 7722  39.901  38.618   2.335
42562W        W 7723  15.087  37.527  13.950
42563W        W 7724   9.671   1.296   0.780
42564W        W 7725  43.469   7.888  11.807
42565W        W 7726  32.086  42.024  11.193
42566W        W 7727   4.896  13.704   3.817
42567W        W 7728  19.721  37.175   0.754
42568W        W 7729  10.610  38.589   2.884
42569W        W 7730  40.730  11.396   2.704
42570W        W 7731  29.050  10.636   2.770
42571W        W 7732  43.472  12.221   0.742
42572W        W 7733  41.880  36.535   9.483
42573W        W 7734  34.575  26.913  12.635
42574W        W 7735  42.626  39.890   1.457
42575W        W 7736  30.367  17.159   0.269
42576W        W 7737  17.084  18.335   3.260
42577W        W 7738   0.182   8.202   2.636
42578W        W 7739  42.121   5.292  11.945
42579W        W 7740  10.185  28.982  14.901
42580W        W 7741  36.384  40.613   1.798
42581W        W 7742  23.396  12.053   0.125
42582W        W 7743   2.097  19.813   2.486
42583W        W 7744  35.628  28.114   1.401
42584W        W 7745  34.456  14.899  10.542
42585W        W 7746  24.543  44.297   1.411
42586W        W 7747   5.413  17.127  14.300
42587W        W 7748  37.898  44.540   4.779
42588W        W 7749  44.319   3.788   2.700
42589W        W 7750  39.048   7.395   3.878
42590W        W 7751   3.822  35.097   0.741
42591W        W 7752  44.454  27.543   4.556
42592W        W 7753  25.233  43.415   4.770
42593W        W 7754  31.246  19.980   3.010
42594W        W 7755  28.999   8.767   5.310
42595W        W 7756  18.167  41.382   1.046
42596W        W 7757  11.046   4.743  13.591
42597W        W 7758  16.779  18.794  13.900
42598W        W 7759   6.010  15.211   2.261
42599W        W 7760  33.956  30.692  13.486
42600W        W 7761  18.341  36.986  11.038
42601W        W 7762   4.859  17.896   0.741
42602W        W 7763  28.131  10.900  12.887
42603W        W 7764  26.699  33.029   1.275
42604W        W 7765  33.046  25.621   1.652
42605W        W 7766  33.940  38.559   2.595
42606W        W 7767  18.819  11.913  10.770
42607W        W 7768  43.821  40.853  14.595
42608W        W 7769  27.248  18.596   2.574
42609W        W 7770  21.657  28.866  11.088
42610W        W 7771  37.136  41.932   2.761
42611W        W 7772   9.815  36.618   1.315
42612W        W 7773  27.245   7.215  10.712
42613W        W 7774   7.808  41.753   1.293
42614W        W 7775  20.307   4.713  12.326
42615W        W 7776  35.904  43.363  11.434
42616W        W 7777   9.949  17.231  10.369
42617W        W 7778  34.460  31.179   4.119
42618W        W 7779   4.458   3.889   3.375
42619W        W 7780  43.958  11.632  10.940
42620W        W 7781  33.553   5.255  12.675
42621W        W 7782  16.363  26.975   1.463
42622W        W 7783  31.363  40.971  14.146
42623W        W 7784  41.502  44.751  11.146
42624W        W 7785  34.587  16.149   4.507
42625W        W 7786  31.205  22.173  14.919
42626W        W 7787  28.495   7.095  11.550
42627W        W 7788  23.200  16.664   1.400
42628W        W 7789   7.730  20.436  14.244
42629W        W 7790  12.126   6.436  11.120
42630W        W 7791  10.853  27.538  13.534
42631W        W 7792  39.899  29.067  10.695
42632W        W 7793  23.977   8.946  14.644
42633W        W 7794   8.739  33.281   4.065
42634W        W 7795  13.089   3.350   4.236
42635W        W 7796  31.366   6.416  14.950
42636W        W 7797   8.847   1.949  12.965
42637W        W 7798  41.353   7.902   0.382
42638W        W 7799   7.262  21.778  12.747
42639W        W 7800  19.311   8.433  12.514
42640W        W 7801   8.429  37.415  10.558
42641W        W 7802  36.463  21.100  11.159
42642W        W 7803   7.388   3.335   0.179
42643W        W 7804  32.886  40.526   2.584
42644W        W 7805  17.595  28.693  12.344
42645W        W 7806  11.745  17.722  10.761
42646W        W 7807  30.662   5.326   0.333
42647W        W 7808  18.478   2.457   3.256
42648W        W 7809  42.385  34.621  12.838
42649W        W 7810  42.389  16.140  13.004
42650W        W 7811   6.460   8.427   3.357
42651W        W 7812  11.589  37.060  12.913
42652W        W 7813  10.080  39.520   0.812
42653W        W 7814  20.784  23.215   0.251
42654W        W 7815  10.599  39.248  13.944
42655W        W 7816  10.840  35.825   3.943
42656W        W 7817  28.174   1.000  13.967
42657W        W 7818  35.387  43.290  11.523
42658W        W 7819  25.411  10.847   3.582
42659W        W 7820  25.939  25.225  12.121
42660W        W 7821  18.213   6.659   1.788
42661W        W 7822   7.717   6.295  11.236
42662W        W 7823   1.825  22.248   0.045
42663W        W 7824  35.470  34.493   0.202
42664W        W 7825  14.214  19.897  13.784
42665W        W 7826  11.319   3.722   2.401
42666W        W 7827   9.711  30.367  13.938
42667W        W 7828  34.545   2.930  12.006
42668W        W 7829   5.208  30.493   3.652
42669W        W 7830  28.710  28.046   0.502
42670W        W 7831  44.898  12.360   0.984
42671W        W 7832  27.101  11.665  13.384
42672W        W 7833  17.540   0.180   0.724
42673W        W 7834  32.913   2.277   4.182
42674W        W 7835  38.956  20.784  14.513
42675W        W 7836  18.041   3.130  11.392
42676W        W 7837  14.349  29.227  14.164
42677W        W 7838  31.423  27.397  13.370
42678W        W 7839  16.062  22.068   0.396
42679W        W 7840   1.464  30.898  12.048
42680W        W 7841  31.235   4.643  14.817
42681W        W 7842   2.879  25.216  14.198
42682W        W 7843  23.557   8.816  12.495
42683W        W 7844  31.399  14.552  12.452
42684W        W 7845  22.684   4.538   2.365
42685W        W 7846  31.186  14.037  12.780
42686W        W 7847  12.191   9.731  13.132
42687W        W 7848  38.945  25.471   3.261
42688W        W 7849   7.938   1.599  11.755
42689W        W 7850   7.704  40.777  10.547
42690W        W 7851   7.175  42.674  13.580
42691W        W 7852   5.896  39.796  13.088
42692W        W 7853  10.215  16.277  13.040
42693W        W 7854  40.885   4.330   4.344
42694W        W 7855  19.213  12.295   1.779
42695W        W 7856   0.840  40.154  10.626
42696W        W 7857  12.471   3.310   1.312
42697W        W 7858  16.333   0.623  11.163
42698W        W 7859  37.285  35.427   4.908
42699W        W 7860  34.075  16.604  13.445
42700W        W 7861  13.096  35.363   3.818
42701W        W 7862  23.702  34.555  10.727
42702W        W 7863   3.423  40.977  10.728
42703W        W 7864  10.364  15.809  11.988
42704W        W 7865   2.361   5.201  13.848
42705W        W 7866  19.144  24.521   3.794
42706W        W 7867  36.543  33.641   1.696
42707W        W 7868  32.978  27.634   0.840
42708W        W 7869  14.137   8.195  11.666
42709W        W 7870  26.161  11.808  12.383
42710W        W 7871   7.389  17.747  14.822
42711W        W 7872  29.638  18.008  14.932
42712W        W 7873   5.886   7.779  10.716
42713W        W 7874  27.400  34.353  12.063
42714W        W 7875   7.756  38.819  13.472
42715W        W 7876  36.673  37.753   1.233
42716W        W 7877  15.632  38.381   0.111
42717W        W 7878  35.867   5.216  11.173
42718W        W 7879  36.881   0.489   1.488
42719W        W 7880  25.284  43.370  14.545
42720W        W 7881  20.096   5.521  14.337
42721W        W 7882   1.453  17.829   1.863
42722W        W 7883  34.540  27.413  12.795
42723W        W 7884  11.597  11.776   4.113
42724W        W 7885  11.876  28.340  11.533
42725W        W 7886  34.232  33.343   3.639
42726W        W 7887  13.580  22.280  11.221
42727W        W 7888   9.269  18.448   3.586
42728W        W 7889   3.785  21.006   3.777
42729W        W 7890  11.189   9.191  11.874
42730W        W 7891  39.913  23.943   0.650
42731W        W 7892   7.991  32.420  14.487
42732W        W 7893  36.610  31.015   4.279
42733W        W 7894  44.412  28.989  12.877
42734W        W 7895  13.260   7.120   2.215
42735W        W 7896   4.840   4.787   1.111
42736W        W 7897   1.703  17.364   4.684
42737W        W 7898  25.471  39.408   0.413
42738W        W 7899  37.642  41.958   0.537
42739W        W 7900  24.256  18.880   2.781
42740W        W 7901  28.402  21.034   0.294
42741W        W 7902   9.678  34.489  13.676
42742W        W 7903  27.453  16.120   1.807
42743W        W 7904  29.715   5.683   1.365
42744W        W 7905   8.758  28.453   2.352
42745W        W 7906  42.207   9.779   1.475
42746W        W 7907  41.265  12.086   2.700
42747W        W 7908  22.259  36.927   4.068
42748W        W 7909  32.097  29.689   3.671
42749W        W 7910  30.075  29.445   1.907
42750W        W 7911  29.170  14.660   0.891
42751W        W 7912  35.731  15.114   0.393
42752W        W 7913  42.775  21.051  14.202
42753W        W 7914  27.127  23.265  11.255
42754W        W 7915  40.214  15.122   4.372
42755W        W 7916  39.754  19.978  11.530
42756W        W 7917  18.036  21.687  13.908
42757W        W 7918  23.758  33.422   0.218
42758W        W 7919  44.248  10.532  12.595
42759W        W 7920  31.065  29.004  14.023
42760W        W 7921  11.855   4.348  11.969
42761W        W 7922  25.175  16.551  10.593
42762W        W 7923  30.223  15.243   1.446
42763W        W 7924   1.659  43.920   0.821
42764W        W 7925  11.752  29.680  14.099
42765W        W 7926   6.545  33.893   0.052
42766W        W 7927  31.008  31.759  14.275
42767W        W 7928  18.159   5.526   0.388
42768W        W 7929  12.799  37.308   2.272
42769W        W 7930  21.312  32.457   4.211
42770W        W 7931  11.290  40.311  14.356
42771W        W 7932  37.824  31.115  14.631
42772W        W 7933  20.649  26.725  14.964
42773W        W 7934  33.177   8.954  12.733
42774W        W 7935  10.489  15.060   4.244
42775W        W 7936  35.576  35.080  12.538
42776W        W 7937  12.809   6.120  10.407
42777W        W 7938  32.346  10.767  14.948
42778W        W 7939  42.986  35.059  12.381
42779W        W 7940  10.031  15.835   0.100
42780W        W 7941   9.582  37.618   4.188
42781W        W 7942  13.696  24.187  12.944
42782W        W 7943  27.375  41.525   4.106
42783W        W 7944   9.311   2.108   4.049
42784W        W 7945  34.886  44.784   0.327
42785W        W 7946   3.377  13.350   3.536
42786W        W 7947  26.765  42.886  12.425
42787W        W 7948  30.537  11.617   1.423
42788W        W 7949   2.527  25.074  14.566
42789W        W 7950   5.784  37.000  14.963
42790W        W 7951   2.704  23.247   3.701
42791W        W 7952  37.454   7.999  10.648
42792W        W 7953   9.407  28.618   0.612
42793W        W 7954  12.697  34.599   0.175
42794W        W 7955  39.443  12.719  10.569
42795W        W 7956  22.181  40.687  13.070
42796W        W 7957  16.038  22.021   1.284
42797W        W 7958  18.611  35.980  14.360
42798W        W 7959   7.971  21.837   1.718
42799W        W 7960  23.189  22.052   2.708
42800W        W 7961  28.634  10.882  13.104
42801W        W 7962  22.967  27.624  10.715
42802W        W 7963   6.181  22.773  12.558
42803W        W 7964  27.934   8.432  13.413
42804W        W 7965   0.273  32.320   4.105
42805W        W 7966   0.319  23.925   2.706
42806W        W 7967  15.109  43.749  13.974
42807W        W 7968  21.692   4.861  14.888
42808W        W 7969  43.073  28.722  12.937
42809W        W 7970  24.322  10.883   3.557
42810W        W 7971  10.345  19.564   1.139
42811W        W 7972  36.537   2.308  12.483
42812W        W 7973  25.249  30.500   2.984
42813W        W 7974  14.324  15.484   1.785
42814W        W 7975  34.902  24.641  12.400
42815W        W 7976   4.545  13.803   9.987
42816W        W 7977  31.123  28.578  13.095
42817W        W 7978   1.410  11.040   4.190
42818W        W 7979  41.357  15.791  12.167
42819W        W 7980  44.547  44.325   2.808
42820W        W 7981  21.622  14.444   5.033
42821W        W 7982  26.363   6.998   3.753
42822W        W 7983   7.480  37.788   2.208
42823W        W 7984  43.905  12.067  11.693
42824W        W 7985   5.909   0.603  14.573
42825W        W 7986  20.828  22.036  11.484
42826W        W 7987  43.257  23.000   0.356
42827W        W 7988  35.639  10.637   3.103
42828W        W 7989   5.653  19.176   2.209
42829W        W 7990  35.311   5.422  12.121
42830W        W 7991   8.528   6.821  14.742
42831W        W 7992  15.424  13.333  11.964
42832W        W 7993  33.884   4.772   0.153
42833W        W 7994  36.362   7.108  11.140
42834W        W 7995  21.328  22.271  12.270
42835W        W 7996  39.279  40.157  13.266
42836W        W 7997  29.683  29.802   2.784
42837W        W 7998  23.860  15.528   3.243
42838W        W 7999  35.886  27.749  13.942
42839W        W 8000  38.048  35.126   0.895
42840W        W 8001  28.630  11.678  13.268
42841W        W 8002  17.767  24.009   1.312
42842W        W 8003  38.701  31.317  12.408
42843W        W 8004  27.872  30.536   0.089
42844W        W 8005  43.429  14.599  10.365
42845W        W 8006  29.567  30.029  11.152
42846W        W 8007   5.206  26.416  11.363
42847W        W 8008  34.989  15.660  10.540
42848W        W 8009  41.875  40.003   1.227
42849W        W 8010  37.330  22.097  12.112
42850W        W 8011  36.083  34.616  11.725
42851W        W 8012  40.931  18.559  12.838
42852W        W 8013  26.128  30.513   3.526
42853W        W 8014  24.221  44.914   3.306
42854W        W 8015  44.987  25.688   3.174
42855W        W 8016  42.838   2.425   3.419
42856W        W 8017   4.442  17.865   1.379
42857W        W 8018   7.312  18.353  10.689
42858W        W 8019  26.574  40.915  12.034
42859W        W 8020  43.886  11.577  10.429
42860W        W 8021   2.931  35.448  11.547
42861W        W 8022  25.956   5.114   4.543
42862W        W 8023   7.780  44.315   1.559
42863W        W 8024  13.624  40.110   2.762
42864W        W 8025  15.623  22.607   0.999
42865W        W 8026  38.662   2.531  12.496
42866W        W 8027  25.288  36.515   4.124
42867W        W 8028  13.371  35.142   4.184
42868W        W 8029  14.319  23.111   2.344
42869W        W 8030  27.463  32.421   0.535
42870W        W 8031  36.745  31.193  10.758
42871W        W 8032   8.701  23.249   1.178
42872W        W 8033  10.233  41.367   0.894
42873W        W 8034  26.509   2.957   2.067
42874W        W 8035   7.669  24.080  14.695
42875W        W 8036  33.369  19.243   3.692
42876W        W 8037  43.229  43.491  11.410
42877W        W 8038   1.752  30.121  11.927
42878W        W 8039   8.789  26.670  14.786
42879W        W 8040  18.622  31.409  12.478
42880W        W 8041  28.678  17.307  10.216
42881W        W 8042   3.694  35.497   3.413
42882W        W 8043   2.939  29.307   0.804
42883W        W 8044   4.038   9.354   4.121
42884W        W 8045   4.050  12.610   1.405
42885W        W 8046  43.852  32.547  10.861
42886W        W 8047   8.683  42.823  13.235
42887W        W 8048  35.276  34.413  11.349
42888W        W 8049   0.425  26.522   5.129
42889W        W 8050  37.485  26.663  13.221
42890W        W 8051  42.380  10.707  11.480
42891W        W 8052  18.069  32.759   1.294
42892W        W 8053  11.329  41.105   4.053
42893W        W 8054  22.066  37.513  13.553
42894W        W 8055  39.799  42.363   1.805
42895W        W 8056   5.387  29.279   0.750
42896W        W 8057  34.322  26.784  14.486
42897W        W 8058   2.255  28.012  11.141
42898W        W 8059  30.560  25.304  11.153
42899W        W 8060  43.998  18.808   1.906
42900W        W 8061   5.000  31.619   3.573
42901W        W 8062  14.419  11.058  10.364
42902W        W 8063   4.160   3.997  10.971
42903W        W 8064  22.990  17.350  10.189
42904W        W 8065   1.810  38.537  12.533
42905W        W 8066  44.820  16.844  10.963
42906W        W 8067  12.600  39.329  13.790
42907W        W 8068  36.850  36.342  12.059
42908W        W 8069   8.204  23.451  13.668
42909W        W 8070  33.496  33.891   4.289
42910W        W 8071   8.340  41.744  11.648
42911W        W 8072   9.490   8.864  13.185
42912W        W 8073  27.231  23.118  10.783
42913W        W 8074  12.336  42.463  13.081
42914W        W 8075  23.310  13.823  13.354
42915W        W 8076  14.288  21.541   4.139
42916W        W 8077   7.666   0.943   3.328
42917W        W 8078   7.282  39.992   4.299
42918W        W 8079  20.696  40.956   4.771
42919W        W 8080  20.649  27.729  13.997
42920W        W 8081   0.356  29.050  12.476
42921W        W 8082  41.119   9.490   2.830
42922W        W 8083  38.776  28.810   1.843
42923W        W 8084   9.687  39.461  12.434
42924W        W 8085  42.528   0.376   2.568
42925W        W 8086  18.763  34.219   3.328
42926W        W 8087   9.301  21.187   0.002
42927W        W 8088   5.720  14.258  14.450
42928W        W 8089   0.713  20.177   0.438
42929W        W 8090   4.698   7.268   4.581
42930W        W 8091  25.740  31.335   0.516
42931W        W 8092  27.997  34.015  13.102
42932W        W 8093  39.304  43.008  10.639
42933W        W 8094   5.935  30.092   0.308
42934W        W 8095   5.144  33.016   3.774
42935W        W 8096  35.180   5.202  11.671
42936W        W 8097  18.885  43.327   4.458
42937W        W 8098  32.179  23.128  12.954
42938W        W 8099  34.387  30.894  14.842
42939W        W 8100  25.896  43.843   3.707
42940W        W 8101  24.472  37.918   1.161
42941W        W 8102  44.694  36.131  12.428
42942W        W 8103  30.770   1.787   3.257
42943W        W 8104  31.913  16.576  14.982
42944W        W 8105   3.789   5.789  13.911
42945W        W 8106  12.870  29.169  11.760
42946W        W 8107   3.844  27.215   0.858
42947W        W 8108  32.707  31.382   2.703
42948W        W 8109  39.121  30.263  14.165
42949W        W 8110  37.165  11.575   3.127
42950W        W 8111   1.935   6.347  14.331
42951W        W 8112  32.605  43.409   4.080
42952W        W 8113  40.365   6.414  12.941
42953W        W 8114  20.053  34.148  13.487
42954W        W 8115  25.799  32.087   1.146
42955W        W 8116  42.806  35.419   1.714
42956W        W 8117   5.714  30.132  13.401
42957W        W 8118   4.415  11.581   1.265
42958W        W 8119  25.241   2.855   3.858
42959W        W 8120  43.767  15.055   3.211
42960W        W 8121   2.090  38.327   0.817
42961W        W 8122  26.597  44.858  13.573
42962W        W 8123  28.163   4.215  13.048
42963W        W 8124  36.294  36.866   2.671
42964W        W 8125   9.288  39.114   4.660
42965W        W 8126  29.969  18.079  11.083
42966W        W 8127  25.929  19.106   0.867
42967W        W 8128  24.165   5.229  11.551
42968W        W 8129  34.543  33.913   0.918
42969W        W 8130   0.297  21.501   0.164
42970W        W 8131  21.660   0.492   4.826
42971W        W 8132   8.442  27.498   0.772
42972W        W 8133  27.080  15.482   5.007
42973W        W 8134  30.238   7.892   3.770
42974W        W 8135   0.404  17.567   0.444
42975W        W 8136  40.060   0.112   3.171
42976W        W 8137   5.981   8.779  12.074
42977W        W 8138  29.875  16.007   3.257
42978W        W 8139  10.396   5.437  13.601
42979W        W 8140  35.935   3.975   0.104
42980W        W 8141  26.664  41.209  13.291
42981W        W 8142  29.130  41.170  14.064
42982W        W 8143   0.588  40.117   9.733
42983W        W 8144  19.364  23.891   0.562
42984W        W 8145  33.928  11.369  11.041
42985W        W 8146   0.220  13.373   3.140
42986W        W 8147  29.028  20.929  12.886
42987W        W 8148  20.727  15.940   3.203
42988W        W 8149   2.868  16.226   5.390
42989W        W 8150  18.050   3.134  14.334
42990W        W 8151  17.181  38.352  11.449
42991W        W 8152  19.285  20.771   4.483
42992W        W 8153  23.202   7.903  14.219
42993W        W 8154  11.185  44.824  13.435
42994W        W 8155  44.296  38.885   2.191
42995W        W 8156  40.546  16.297   2.757
42996W        W 8157   7.379   3.897  12.047
42997W        W 8158  12.076   9.836   3.263
42998W        W 8159   9.656  19.310  11.608
42999W        W 8160  30.008  17.305   3.472
43000W        W 8161  32.039  26.022  12.583
43001W        W 8162  25.510  43.765   1.744
43002W        W 8163   9.473  35.107  13.361
43003W        W 8164  32.864  43.034  11.992
43004W        W 8165  37.421  34.974  12.362
43005W        W 8166  24.413  40.073   2.768
43006W        W 8167  39.835  10.893   1.713
43007W        W 8168  35.622  38.321  12.701
43008W        W 8169   9.384  27.530   4.218
43009W        W 8170  33.484  37.921  11.577
43010W        W 8171   8.034  35.406   3.855
43011W        W 8172  42.360  40.762  11.553
43012W        W 8173  10.706   3.163   3.719
43013W        W 8174  16.538  27.490  10.570
43014W        W 8175  31.896  30.889  12.384
43015W        W 8176   0.340  39.852  11.369
43016W        W 8177  21.498  30.479  14.343
43017W        W 8178  35.370  30.064   3.735
43018W        W 8179   0.399  21.933  13.475
43019W        W 8180  39.021   3.722   3.673
43020W        W 8181  12.303  11.754   0.358
43021W        W 8182  21.463  29.413  10.217
43022W        W 8183  32.366  40.411   2.445
43023W        W 8184  36.909  14.518   1.901
43024W        W 8185  38.469  15.178   2.656
43025W        W 8186   6.390   2.826   2.697
43026W        W 8187  17.401  27.246   1.003
43027W        W 8188  13.509   6.257   3.799
43028W        W 8189   3.819   5.486  12.078
43029W        W 8190  41.895   7.921  12.969
43030W        W 8191  14.410  11.539  10.564
43031W        W 8192  16.124  43.116  11.229
43032W        W 8193  20.582  14.770  14.465
43033W        W 8194  18.626  27.507   3.278
43034W        W 8195  15.034   3.185  12.252
43035W        W 8196  36.488   0.400   2.273
43036W        W 8197  41.810  10.909  12.985
43037W        W 8198  38.494  40.864   4.219
43038W        W 8199  27.015  34.458  13.908
43039W        W 8200  35.132  39.261   2.652
43040W        W 8201   1.887   3.716   0.930
43041W        W 8202  40.133  36.008  13.453
43042W        W 8203  33.817  10.750   1.928
43043W        W 8204   9.449  31.713  11.231
43044W        W 8205  44.540  20.448  13.817
43045W        W 8206  21.110  37.929   4.104
43046W        W 8207  30.650  39.712   0.910
43047W        W 8208  35.049   4.757  10.745
43048W        W 8209   6.879  29.905  13.007
43049W        W 8210  31.859  43.742   3.527
43050W        W 8211  31.104   1.856  14.752
43051W        W 8212  40.497  23.579  10.986
43052W        W 8213  19.783  32.897   4.081
43053W        W 8214  22.728  23.515   2.420
43054W        W 8215  38.751  22.115  12.051
43055W        W 8216   6.898  17.373   2.369
43056W        W 8217  11.071  22.145   3.428
43057W        W 8218  29.626   8.535   0.497
43058W        W 8219  14.847   5.089   1.526
43059W        W 8220  42.991  21.205   4.157
43060W        W 8221  34.004  37.443  10.723
43061W        W 8222  24.156  13.214   0.218
43062W        W 8223  10.415  39.604   3.747
43063W        W 8224  24.542  35.473   4.613
43064W        W 8225   1.300  39.807   4.202
43065W        W 8226  17.491  17.112   2.383
43066W        W 8227  17.185  40.385   0.341
43067W        W 8228  13.850  30.223   1.618
43068W        W 8229  39.380  35.351   3.826
43069W        W 8230  17.292  40.923   5.005
43070W        W 8231   7.776   9.794   0.326
43071W        W 8232  16.153  12.181  14.893
43072W        W 8233  35.917  22.755   2.167
43073W        W 8234   4.767  40.060  10.846
43074W        W 8235  19.637  40.906   3.406
43075W        W 8236  17.111  14.139   4.267
43076W        W 8237  20.579   2.217  14.351
43077W        W 8238  41.049  15.109  12.430
43078W        W 8239  21.042  17.518   2.257
43079W        W 8240  39.485  35.915   2.306
43080W        W 8241  11.736  10.126  14.548
43081W        W 8242   9.372  20.937  13.588
43082W        W 8243  30.801  42.886  12.041
43083W        W 8244  44.770  30.058  10.553
43084W        W 8245   1.219  27.521  12.380
43085W        W 8246  37.413   1.867   2.775
43086W        W 8247   3.120   5.184  12.807
43087W        W 8248  15.642  42.991  11.356
43088W        W 8249  12.295   8.907  14.276
43089W        W 8250  18.104  44.632   0.662
43090W        W 8251  37.799  18.673  13.895
43091W        W 8252  32.482   7.963   3.666
43092W        W 8253  35.355  27.165   1.039
43093W        W 8254  19.615   5.601   2.203
43094W        W 8255  13.718  42.858   1.934
43095W        W 8256   4.446  43.153  11.075
43096W        W 8257   1.746  20.915   1.682
43097W        W 8258   4.727  13.893   0.410
43098W        W 8259  42.036  24.363  11.296
43099W        W 8260   8.641   2.205  14.947
43100W        W 8261  44.834  43.527  14.420
43101W        W 8262  15.245   2.402  13.352
43102W        W 8263  28.163  19.205   4.871
43103W        W 8264  23.647  29.189  14.169
43104W        W 8265  35.111  38.912   3.326
43105W        W 8266  13.318  24.576   4.897
43106W        W 8267  13.345  16.182  12.939
43107W        W 8268  17.552   4.862   1.259
43108W        W 8269  15.644  41.454   2.209
43109W        W 8270  42.482  26.141  14.330
43110W        W 8271  32.098  26.352   2.883
43111W        W 8272  33.947  21.300   4.155
43112W        W 8273  36.638  16.699  10.723
43113W        W 8274  35.443  13.829   0.324
43114W        W 8275   8.002  42.115  12.967
43115W        W 8276  33.115  24.429   0.951
43116W        W 8277  23.701  34.073  11.509
43117W        W 8278  14.155   7.022  13.398
43118W        W 8279  10.788  10.925  14.443
43119W        W 8280  25.604  17.208  12.962
43120W        W 8281  11.303   9.293   2.916
43121W        W 8282   9.861   4.527  14.371
43122W        W 8283  21.825  39.151   4.183
43123W        W 8284  15.918  36.326  14.955
43124W        W 8285  28.507  28.306  14.763
43125W        W 8286  38.771   0.791  12.086
43126W        W 8287  34.560   8.112  11.710
43127W        W 8288  23.938  30.906  13.464
43128W        W 8289  30.122  25.549  11.118
43129W        W 8290  22.740  18.567  11.161
43130W        W 8291  17.326  23.817   0.082
43131W        W 8292  18.033   8.812  13.534
43132W        W 8293  27.874  32.064   2.707
43133W        W 8294  41.517   6.885   4.593
43134W        W 8295  29.172  18.836   4.230
43135W        W 8296  15.248   1.696  13.916
43136W        W 8297  31.912  28.105  13.535
43137W        W 8298  19.497  25.272  14.694
43138W        W 8299   3.293  33.559   0.456
43139W        W 8300   9.762   9.895  13.370
43140W        W 8301  13.224  12.668  14.047
43141W        W 8302  33.535  30.379   3.121
43142W        W 8303  31.197  29.576  11.305
43143W        W 8304   3.768   8.484  11.203
43144W        W 8305  26.227  21.315   9.736
43145W        W 8306   2.728  26.553   2.088
43146W        W 8307  38.928  24.704   3.667
43147W        W 8308  21.684  16.079   4.988
43148W        W 8309  23.260   4.575   2.884
43149W        W 8310   0.376  40.534   4.189
43150W        W 8311  28.591   4.467   4.587
43151W        W 8312  24.263  10.950  13.078
43152W        W 8313  38.319  23.932  12.094
43153W        W 8314  21.270  41.043  13.046
43154W        W 8315  40.304  36.528   0.244
43155W        W 8316  11.285  24.504   4.248
43156W        W 8317  40.762  40.998  14.885
43157W        W 8318  34.051   0.506   4.332
43158W        W 8319  39.775  23.688  12.467
43159W        W 8320  27.586   1.291   1.245
43160W        W 8321   0.011  31.024   1.940
43161W        W 8322  18.202  29.475   4.182
43162W        W 8323  23.831  19.118   3.068
43163W        W 8324  12.262   5.899  12.904
43164W        W 8325  36.873   8.727  11.639
43165W        W 8326  40.316  15.155   3.866
43166W        W 8327  10.368  44.252   0.311
43167W        W 8328  34.038  39.319  14.376
43168W        W 8329  37.256  18.101   2.635
43169W        W 8330  13.821  39.672   2.942
43170W        W 8331  41.471   1.680  11.544
43171W        W 8332  11.198   9.785   4.724
43172W        W 8333  14.486  32.587   4.534
43173W        W 8334  15.898   4.459   2.859
43174W        W 8335  43.908  33.515   1.197
43175W        W 8336  37.291  30.120  11.462
43176W        W 8337  37.599  34.842   0.854
43177W        W 8338   0.910  35.858  11.562
43178W        W 8339   6.782  30.368  12.154
43179W        W 8340   0.465  40.096  14.251
43180W        W 8341   3.528  18.732  14.540
43181W        W 8342   4.484  13.686   2.856
43182W        W 8343  44.287   5.132   3.278
43183W        W 8344   3.615  32.502   3.184
43184W        W 8345  30.535  12.890  12.532
43185W        W 8346  38.002   8.339   1.422
43186W        W 8347   6.342   6.353  13.835
43187W        W 8348  16.117  24.839   5.096
43188W        W 8349   7.543   9.467  14.037
43189W        W 8350  24.228  26.968   2.720
43190W        W 8351  20.113  18.876  12.152
43191W        W 8352   8.273  27.710  10.712
43192W        W 8353  27.913  18.746   4.592
43193W        W 8354   3.513  44.206   4.150
43194W        W 8355  37.495  23.588   4.849
43195W        W 8356  28.362  10.076   2.887
43196W        W 8357  31.926  43.359   2.867
43197W        W 8358  15.625  43.519   4.608
43198W        W 8359  43.034  11.587   3.320
43199W        W 8360  43.697  41.077  13.423
43200W        W 8361  44.285  36.306  14.050
43201W        W 8362  22.115  38.863   4.474
43202W        W 8363  21.300  26.499   4.541
43203W        W 8364  12.420  39.854  14.986
43204W        W 8365  36.580  25.489  13.981
43205W        W 8366  38.575  43.003  12.012
43206W        W 8367   1.422  25.970   3.238
43207W        W 8368  14.345  14.189   0.956
43208W        W 8369  23.527  26.323  13.403
43209W        W 8370  18.914   4.174   0.572
43210W        W 8371  28.420  19.545  14.092
43211W        W 8372  23.272  24.122  11.615
43212W        W 8373  17.214  18.023   3.672
43213W        W 8374   9.014  37.869   1.428
43214W        W 8375   4.434  36.261  12.846
43215W        W 8376   9.525  32.472   1.056
43216W        W 8377  15.122  17.381  12.081
43217W        W 8378   9.945  38.553  14.408
43218W        W 8379  41.487  17.561   2.748
43219W        W 8380   6.463  25.289   0.278
43220W        W 8381   6.606   2.353   1.783
43221W        W 8382  23.756  32.072   2.866
43222W        W 8383  28.169  15.704   1.016
43223W        W 8384  12.745  39.198   4.220
43224W        W 8385  27.684   5.862  13.500
43225W        W 8386  36.906  20.068   3.767
43226W        W 8387  24.499  42.502  12.990
43227W        W 8388   3.441  38.370  13.007
43228W        W 8389  20.507  30.600   3.720
43229W        W 8390  13.286  40.328   3.305
43230W        W 8391  17.720  12.572   3.628
43231W        W 8392  28.884  25.495   3.746
43232W        W 8393  31.267   8.209  11.953
43233W        W 8394  19.133  18.784   4.541
43234W        W 8395  20.593  10.316  11.260
43235W        W 8396  17.238  32.396   2.289
43236W        W 8397  37.841   1.442  12.317
43237W        W 8398   3.837  34.666  10.624
43238W        W 8399  20.464   8.082   2.394
43239W        W 8400  19.158   9.766   3.136
43240W        W 8401  38.970  41.035  14.369
43241W        W 8402  15.879  33.011  12.769
43242W        W 8403  19.597  44.521   3.263
43243W        W 8404  15.072  25.204  11.243
43244W        W 8405   8.429   5.075   1.806
43245W        W 8406  42.668  30.081  13.560
43246W        W 8407  34.004   3.878   1.459
43247W        W 8408  31.860  41.347  12.035
43248W        W 8409   5.210  24.154   4.198
43249W        W 8410  29.363  42.577  14.947
43250W        W 8411   6.636  42.296  13.002
43251W        W 8412  30.255  36.945   0.242
43252W        W 8413  21.094  27.900   1.201
43253W        W 8414  31.698  36.753  11.147
43254W        W 8415  36.858  34.853   2.892
43255W        W 8416  41.737  41.477   2.458
43256W        W 8417   5.177  21.390   4.698
43257W        W 8418   2.271   2.464   1.274
43258W        W 8419  21.177  18.802  14.285
43259W        W 8420  25.488  43.097  12.413
43260W        W 8421   3.849  41.980   2.347
43261W        W 8422  22.785  34.216   4.636
43262W        W 8423  31.667   5.700  10.808
43263W        W 8424  37.963  20.464  14.292
43264W        W 8425  30.351   8.865  14.460
43265W        W 8426  16.489  35.803  12.189
43266W        W 8427   1.496  15.804  11.715
43267W        W 8428  14.183  32.818   4.156
43268W        W 8429  37.857  37.551   3.897
43269W        W 8430   1.786  32.082   4.176
43270W        W 8431   2.220  42.262  13.339
43271W        W 8432   6.770  28.027   3.138
43272W        W 8433  17.463  13.353  12.424
43273W        W 8434  17.413  20.478   4.931
43274W        W 8435  38.303  11.475   0.737
43275W        W 8436  41.015   1.541   3.272
43276W        W 8437  13.769  21.088   0.902
43277W        W 8438  41.940  43.828   2.913
43278W        W 8439  39.683  41.796  11.104
43279W        W 8440  12.762  25.892  11.175
43280W        W 8441  41.509   2.960   1.863
43281W        W 8442  14.050  28.025   0.581
43282W        W 8443  31.027  41.508  14.908
43283W        W 8444   4.163  10.204   0.268
43284W        W 8445  36.285   9.325  12.447
43285W        W 8446  17.202   6.068   1.912
43286W        W 8447  41.573  14.218  10.781
43287W        W 8448  21.659  29.133  13.802
43288W        W 8449  18.661  41.417   2.295
43289W        W 8450  42.701  14.756   0.518
43290W        W 8451  37.983   0.418   0.200
43291W        W 8452  40.541  37.042  12.515
43292W        W 8453  13.155  22.330  12.056
43293W        W 8454  17.641   8.459   3.231
43294W        W 8455   1.493   0.030  13.770
43295W        W 8456  26.035  33.587  14.425
43296W        W 8457   1.898  15.071   0.070
43297W        W 8458  34.030  33.948   0.993
43298W        W 8459  41.989   7.356   2.021
43299W        W 8460  40.797   8.506  14.276
43300W        W 8461  37.272  20.955  10.761
43301W        W 8462  37.127  41.526  13.964
43302W        W 8463   0.974  39.942  13.075
43303W        W 8464  27.962  17.508   0.909
43304W        W 8465  20.753  40.369   3.299
43305W        W 8466  22.603  22.094   2.027
43306W        W 8467  21.489   9.852  12.093
43307W        W 8468  17.674  30.985   3.682
43308W        W 8469  29.714  37.100   0.126
43309W        W 8470  35.674  43.514  12.452
43310W        W 8471  14.690  24.216   4.957
43311W        W 8472  23.162   4.898   3.288
43312W        W 8473  19.709   8.096  12.458
43313W        W 8474  10.609   3.386   5.001
43314W        W 8475  15.254  22.512  11.964
43315W        W 8476  12.310   7.393   3.198
43316W        W 8477   5.864   2.346   1.310
43317W        W 8478  40.199   2.420   0.325
43318W        W 8479  30.590   5.838  14.533
43319W        W 8480  27.317  26.050   4.604
43320W        W 8481   8.257  15.915   3.690
43321W        W 8482  14.855   6.479  11.078
43322W        W 8483  24.585  29.457   4.041
43323W        W 8484  32.883  21.922   0.426
43324W        W 8485  29.608  23.037   3.230
43325W        W 8486  34.879  14.971  12.670
43326W        W 8487   7.833  16.172   1.926
43327W        W 8488   0.232  31.466   0.864
43328W        W 8489  17.917   7.756   0.436
43329W        W 8490   5.661  30.356  12.042
43330W        W 8491  25.196  44.924  12.086
43331W        W 8492  42.390   3.719   3.684
43332W        W 8493   5.335   4.615   1.327
43333W        W 8494   2.654  21.530   1.378
43334W        W 8495  43.712  20.064   0.841
43335W        W 8496   8.205  18.820  10.585
43336W        W 8497  40.792  25.877  10.774
43337W        W 8498   4.923  16.727  13.694
43338W        W 8499  39.046  21.027   2.700
43339W        W 8500   3.855   9.465   1.907
43340W        W 8501   3.477  17.707   0.971
43341W        W 8502  10.581  18.423  11.053
43342W        W 8503  44.405   3.315  13.011
43343W        W 8504  16.337  32.624  12.007
43344W        W 8505  26.110  15.678   1.150
43345W        W 8506  28.231  12.707   4.493
43346W        W 8507  41.939   8.968   1.927
43347W        W 8508  31.926  18.907   3.204
43348W        W 8509  23.519  13.280   1.220
43349W        W 8510  37.596  25.487   3.505
43350W        W 8511  19.749   9.782   4.915
43351W        W 8512   1.894  20.890  14.526
43352W        W 8513  25.921  22.231  13.955
43353W        W 8514  31.643  21.653  11.909
43354W        W 8515   8.297  12.007  11.946
43355W        W 8516  10.682  30.886  11.253
43356W        W 8517  29.159  25.061  14.887
43357W        W 8518   7.857   8.752   0.812
43358W        W 8519  14.661  12.379  12.100
43359W        W 8520  42.475  19.703   0.087
43360W        W 8521  20.733  40.436   4.650
43361W        W 8522  21.019  10.414   3.691
43362W        W 8523  35.141  17.525  14.837
43363W        W 8524  26.757  10.392   0.262
43364W        W 8525  28.031  28.194  12.015
43365W        W 8526  31.608  20.426  13.204
43366W        W 8527   4.355  34.937   2.354
43367W        W 8528  42.905  27.675   4.215
43368W        W 8529  40.554  11.967  10.211
43369W        W 8530  34.619   9.251   1.812
43370W        W 8531  38.895  29.557   2.914
43371W        W 8532  37.142  12.758  13.530
43372W        W 8533  41.241  20.156   4.832
43373W        W 8534  28.711  26.160   2.751
43374W        W 8535   1.754   6.286  14.958
43375W        W 8536   9.228   4.848   1.169
43376W        W 8537  33.794  41.059   1.863
43377W        W 8538  39.965  20.744   2.380
43378W        W 8539  44.979   3.053  14.882
43379W        W 8540  38.372  17.400  11.659
43380W        W 8541  40.786   7.297   4.078
43381W        W 8542  12.402  21.697   4.399
43382W        W 8543  13.491  32.366   4.550
43383W        W 8544  29.036  41.877   4.652
43384W        W 8545  44.382  33.126   4.096
43385W        W 8546  33.108   4.222   1.974
43386W        W 8547  32.540  11.919   1.933
43387W        W 8548   3.814   1.806   4.451
43388W        W 8549  21.633  14.042   3.356
43389W        W 8550   8.607  40.319   1.435
43390W        W 8551  18.266   6.445   3.675
43391W        W 8552  17.165  39.327   0.345
43392W        W 8553  25.445  11.252   1.703
43393W        W 8554  44.960  35.392  10.281
43394W        W 8555  40.509  20.185  14.817
43395W        W 8556  39.647  14.629   1.861
43396W        W 8557   8.728   4.419  10.711
43397W        W 8558  20.289   1.926  14.689
43398W        W 8559   5.141   3.375  13.945
43399W        W 8560  12.659  17.896   4.863
43400W        W 8561  35.438  26.505  10.705
43401W        W 8562  15.266  15.491  11.576
43402W        W 8563  43.751  30.821  14.952
43403W        W 8564  26.115  16.487  12.933
43404W        W 8565  39.883  25.776   3.544
43405W        W 8566  36.425  22.659   4.091
43406W        W 8567   0.670  39.159  13.538
43407W        W 8568   4.592  37.518   0.149
43408W        W 8569   1.089  23.872  14.662
43409W        W 8570  22.630   7.298   0.953
43410W        W 8571  19.464   7.629  12.498
43411W        W 8572  19.732   9.702   3.887
43412W        W 8573  33.436  21.317  12.942
43413W        W 8574  43.740  30.147  10.696
43414W        W 8575  31.311  41.284  12.057
43415W        W 8576  11.283  23.917  12.448
43416W        W 8577  21.872  24.666   3.613
43417W        W 8578  43.448  41.933  11.057
43418W        W 8579  29.487  16.347   1.469
43419W        W 8580  39.821  36.672   0.377
43420W        W 8581   1.234   0.793   2.213
43421W        W 8582   6.397   3.840  10.573
43422W        W 8583   8.336  34.405   2.348
43423W        W 8584   7.781  11.054  12.840
43424W        W 8585  27.476  26.864  14.529
43425W        W 8586  17.688  43.817  11.611
43426W        W 8587   6.635  20.306  13.363
43427W        W 8588  28.308   5.753  14.408
43428W        W 8589  11.748   5.093  11.965
43429W        W 8590  36.128  32.161   2.354
43430W        W 8591  17.133  27.644   3.875
43431W        W 8592  17.520   3.381   4.897
43432W        W 8593  27.633  37.589  13.521
43433W        W 8594  36.104   4.986   3.580
43434W        W 8595  32.965   7.933  11.657
43435W        W 8596  23.038  33.002   1.230
43436W        W 8597   4.901   7.546   4.185
43437W        W 8598   5.530   6.246  11.151
43438W        W 8599  23.675   6.848  12.457
43439W        W 8600  36.256  30.000   1.408
43440W        W 8601  16.115  16.949   5.475
43441W        W 8602  26.635  27.656  14.004
43442W        W 8603  26.990  14.043   3.996
43443W        W 8604  12.132  36.146  10.771
43444W        W 8605  32.982  18.553  12.007
43445W        W 8606   9.110  36.984  13.299
43446W        W 8607  29.626   9.999  11.820
43447W        W 8608  34.073  22.085  11.119
43448W        W 8609  19.809   7.741  11.110
43449W        W 8610   9.873  33.545   0.614
43450W        W 8611  15.101  12.105  12.022
43451W        W 8612   3.943  17.422   0.810
43452W        W 8613  43.457   1.404  14.211
43453W        W 8614  32.088  22.905   0.489
43454W        W 8615   7.870   2.259  12.462
43455W        W 8616  37.508  11.919  10.694
43456W        W 8617  42.846   8.809   1.934
43457W        W 8618  42.838  29.153   1.435
43458W        W 8619   0.163  27.033   3.673
43459W        W 8620  42.520  22.165  12.343
43460W        W 8621  40.742   2.400   3.237
43461W        W 8622  29.996  19.221   3.175
43462W        W 8623  12.661  38.306   4.141
43463W        W 8624  14.686  38.029   2.071
43464W        W 8625  27.179  16.098  14.385
43465W        W 8626   7.306  30.194   5.860
43466W        W 8627  41.070  31.480  11.991
43467W        W 8628  19.013  23.420  11.252
43468W        W 8629  41.515  41.578  13.035
43469W        W 8630  33.922  44.233  11.628
43470W        W 8631  40.313  23.128   0.282
43471W        W 8632  37.401  24.684  10.253
43472W        W 8633  39.200  30.356  11.476
43473W        W 8634  44.304  43.707   4.257
43474W        W 8635  25.483  37.560  13.584
43475W        W 8636  40.564  18.568  11.612
43476W        W 8637  35.104   8.394   3.594
43477W        W 8638   7.198  17.854  11.523
43478W        W 8639  13.778  28.953  13.425
43479W        W 8640  10.793  20.621   0.993
43480W        W 8641  44.359  28.606   2.702
43481W        W 8642   5.820   3.907   2.555
43482W        W 8643  21.759  21.047  12.970
43483W        W 8644  30.399   7.248  12.357
43484W        W 8645  12.240  18.068  10.813
43485W        W 8646  18.301   3.446   3.074
43486W        W 8647  12.904  12.169   4.057
43487W        W 8648  12.225  35.532   0.792
43488W        W 8649  32.906  10.081  14.123
43489W        W 8650  34.160  32.564  13.048
43490W        W 8651  14.566  44.353   4.547
43491W        W 8652  35.017  17.577   4.128
43492W        W 8653  30.519  21.397   9.825
43493W        W 8654  19.712   1.268  13.865
43494W        W 8655  38.080  41.449   3.564
43495W        W 8656  16.697  40.734   9.788
43496W        W 8657  29.474  22.257  14.686
43497W        W 8658   2.240  19.771   2.005
43498W        W 8659  41.289  44.899  13.363
43499W        W 8660  10.206  32.995  10.945
43500W        W 8661  19.558   4.325  12.501
43501W        W 8662   3.330  23.648  11.513
43502W        W 8663  44.033  13.509  11.632
43503W        W 8664  41.535  14.307   3.692
43504W        W 8665  15.487   3.155  13.525
43505W        W 8666  41.371  16.121   2.426
43506W        W 8667   9.020   9.696   0.653
43507W        W 8668   2.001  32.177  14.002
43508W        W 8669  17.162   8.617  14.762
43509W        W 8670   5.336   2.387  12.300
43510W        W 8671  15.891  26.116  14.976
43511W        W 8672  21.409  11.188  13.053
43512W        W 8673   8.602  27.017  13.839
43513W        W 8674   9.123  25.233  10.595
43514W        W 8675  28.815  36.945   9.892
43515W        W 8676  36.259  18.758   5.103
43516W        W 8677  33.555  24.177   4.201
43517W        W 8678  20.709  18.736   0.655
43518W        W 8679  15.732  36.839   4.673
43519W        W 8680  41.457  33.082   4.710
43520W        W 8681  26.629   0.567   1.296
43521W        W 8682  16.718  39.789  13.011
43522W        W 8683  30.459  30.126  14.093
43523W        W 8684  42.472  13.135  12.911
43524W        W 8685   2.497  31.971   1.338
43525W        W 8686  42.071  35.856   0.448
43526W        W 8687  20.229  26.020  11.639
43527W        W 8688  13.509  31.652  13.139
43528W        W 8689  26.171  36.708   5.093
43529W        W 8690  16.812  27.173   0.526
43530W        W 8691  36.412  21.757  10.604
43531W        W 8692  16.547   2.760   0.246
43532W        W 8693  13.608  32.384  10.693
43533W        W 8694   5.153  14.878  12.886
43534W        W 8695   3.905  38.904   3.711
43535W        W 8696  10.985   0.399   4.736
43536W        W 8697  21.173   3.405  14.486
43537W        W 8698   3.261  15.501   1.399
43538W        W 8699  31.097  14.595  11.996
43539W        W 8700   3.152  43.301   1.403
43540W        W 8701  38.616  40.763  11.891
43541W        W 8702  29.716   0.874  12.310
43542W        W 8703   8.806  16.284  13.941
43543W        W 8704  19.861  23.033   4.783
43544W        W 8705  22.087  38.501   5.447
43545W        W 8706  20.685   2.709   3.916
43546W        W 8707  28.241  18.839   0.010
43547W        W 8708   1.366  25.439  12.612
43548W        W 8709  36.033  10.370   1.973
43549W        W 8710  39.860   8.185  13.082
43550W        W 8711  26.319  36.666   1.332
43551W        W 8712  31.620  17.296  12.167
43552W        W 8713  44.086  30.351   4.710
43553W        W 8714   7.616  14.740   0.272
43554W        W 8715  30.854  24.573  10.933
43555W        W 8716  43.491   5.333  14.013
43556W        W 8717  43.374  25.708   3.203
43557W        W 8718  15.568   0.864  11.044
43558W        W 8719  41.579   0.363   0.895
43559W        W 8720  29.516  20.719  12.037
43560W        W 8721  30.111  33.747   1.012
43561W        W 8722   6.465  23.427   4.174
43562W        W 8723  39.276  35.904  11.233
43563W        W 8724  32.589  22.362   2.722
43564W        W 8725  13.195  38.290  11.096
43565W        W 8726  33.354   3.230  14.431
43566W        W 8727  42.514  12.080  13.936
43567W        W 8728  28.361  42.736   2.695
43568W        W 8729   3.464   9.359  14.798
43569W        W 8730  44.333  28.173  14.830
43570W        W 8731  10.855  26.496  13.314
43571W        W 8732  37.057  40.609   3.262
43572W        W 8733  12.018  39.277   4.894
43573W        W 8734  34.469  40.794  13.008
43574W        W 8735   0.475  34.063   3.244
43575W        W 8736  33.579  42.469  14.678
43576W        W 8737   4.496  44.927  11.417
43577W        W 8738  30.948  36.920  10.418
43578W        W 8739   1.145   8.175  13.879
43579W        W 8740  33.011  44.467  10.538
43580W        W 8741   2.691  24.502  10.337
43581W        W 8742   6.595  13.322   3.602
43582W        W 8743  42.771  40.361  12.875
43583W        W 8744  12.371  37.954   0.974
43584W        W 8745  22.125  32.080   1.886
43585W        W 8746  11.288   6.919  14.304
43586W        W 8747   7.090   6.940  11.620
43587W        W 8748   2.985  16.716  13.514
43588W        W 8749  28.510  14.547  10.889
43589W        W 8750  28.030   6.433  12.000
43590W        W 8751  21.268  39.881  10.534
43591W        W 8752  18.533  33.670   3.914
43592W        W 8753  31.991  12.971   4.348
43593W        W 8754  31.052   1.904  13.726
43594W        W 8755  33.002   4.970  14.510
43595W        W 8756  44.477  15.228   0.801
43596W        W 8757  32.443   0.488  13.857
43597W        W 8758   2.919  40.299   3.650
43598W        W 8759  19.509  32.737  12.092
43599W        W 8760  41.305  14.577   2.376
43600W        W 8761  44.933   9.972  13.136
43601W        W 8762   0.548  10.426  13.367
43602W        W 8763  41.835  16.870   2.409
43603W        W 8764  29.984  27.703  10.441
43604W        W 8765   9.331  24.073   0.426
43605W        W 8766  40.878  34.882  11.398
43606W        W 8767  19.227  36.331  14.765
43607W        W 8768  40.425  36.973   1.714
43608W        W 8769  32.382  40.434  13.964
43609W        W 8770  42.875  15.268   3.808
43610W        W 8771   5.470   1.206  13.881
43611W        W 8772  41.166  21.768  14.905
43612W        W 8773  26.046   5.082   1.142
43613W        W 8774   8.642  14.094  12.511
43614W        W 8775  40.822  15.318  14.286
43615W        W 8776  28.463  19.946  14.473
43616W        W 8777   3.229  15.660  11.566
43617W        W 8778   2.747  38.315  14.376
43618W        W 8779  42.492  28.189  11.143
43619W        W 8780  37.153  17.254   1.583
43620W        W 8781  25.035  36.888   2.775
43621W        W 8782  36.534  43.977   4.662
43622W        W 8783  28.496  34.880  14.004
43623W        W 8784  30.045   3.748   2.966
43624W        W 8785   4.865  33.622  13.392
43625W        W 8786  28.037   0.578   3.924
43626W        W 8787  43.342   4.730   3.640
43627W        W 8788  25.652  31.395  13.318
43628W        W 8789  21.613  12.805   1.947
43629W        W 8790  27.639  34.993  14.554
43630W        W 8791  37.023  40.612  12.836
43631W        W 8792  15.243   5.770  10.615
43632W        W 8793  44.701   5.461  11.647
43633W        W 8794   8.513   5.066  12.509
43634W        W 8795  16.611  42.975  11.539
43635W        W 8796   3.996  18.712  11.975
43636W        W 8797  39.094  18.977  11.113
43637W        W 8798  37.646  38.240  11.909
43638W        W 8799  41.808   6.122  14.210
43639W        W 8800  11.167  26.314   3.898
43640W        W 8801  30.954  40.721   2.254
43641W        W 8802  10.323  26.450   2.379
43642W        W 8803  19.449  43.908  10.223
43643W        W 8804  36.432  24.936  11.404
43644W        W 8805  27.065  35.977   2.678
43645W        W 8806  44.978   6.692   1.938
43646W        W 8807  13.360  23.972   3.721
43647W        W 8808   7.841  22.686  10.653
43648W        W 8809   3.750  19.577  14.383
43649W        W 8810  16.331  20.310  11.087
43650W        W 8811   5.088   2.172  14.371
43651W        W 8812   7.938  33.686   0.710
43652W        W 8813  35.393  29.216  11.415
43653W        W 8814  29.682  16.264  11.168
43654W        W 8815  33.166  39.225  12.617
43655W        W 8816  18.286   6.314  13.872
43656W        W 8817  29.203  41.493   1.233
43657W        W 8818  29.041   1.894   5.250
43658W        W 8819  22.116  44.407  13.272
43659W        W 8820  41.982  18.638   1.456
43660W        W 8821  33.574   3.427  13.968
43661W        W 8822  10.116   2.077  13.562
43662W        W 8823   5.241  35.627  12.442
43663W        W 8824  11.696  29.731   1.533
43664W        W 8825  44.535  38.060  13.454
43665W        W 8826  33.593   7.579  10.682
43666W        W 8827  36.926  25.063  13.379
43667W        W 8828  29.068  34.139  11.928
43668W        W 8829  11.008  32.256   4.519
43669W        W 8830  27.552  15.852   4.181
43670W        W 8831  41.588   3.806   0.980
43671W        W 8832  29.344  26.224  13.280
43672W        W 8833  32.366  31.986   5.005
43673W        W 8834  22.648  22.647   0.335
43674W        W 8835  37.076  31.403   3.616
43675W        W 8836  33.522  16.641   0.821
43676W        W 8837  44.011  16.214   0.413
43677W        W 8838  16.267   5.420   1.958
43678W        W 8839  39.497  10.287  13.536
43679W        W 8840   2.021  15.667  14.422
43680W        W 8841  30.405   3.682   0.659
43681W        W 8842   8.871  15.142  10.622
43682W        W 8843   9.610   1.414  13.059
43683W        W 8844  35.417   9.766   1.785
43684W        W 8845  37.319   9.895  14.335
43685W        W 8846  24.699  23.606   2.760
43686W        W 8847  24.059   5.689  12.242
43687W        W 8848   4.324  36.618  13.769
43688W        W 8849  27.070  14.777  14.771
43689W        W 8850  39.403  38.543  14.926
43690W        W 8851  40.544   4.371  10.668
43691W        W 8852  19.067  31.071  14.874
43692W        W 8853  12.670  20.947   2.717
43693W        W 8854  12.588  22.190   1.214
43694W        W 8855   4.903   2.516   1.265
43695W        W 8856  15.332  41.735  12.594
43696W        W 8857  26.623  11.241   0.527
43697W        W 8858  14.344   1.461   3.840
43698W        W 8859   4.461  33.422  12.827
43699W        W 8860  30.242  14.465  11.156
43700W        W 8861  20.291  18.092   2.138
43701W        W 8862  13.834  42.249  14.065
43702W        W 8863  26.528   3.452   3.614
43703W        W 8864  40.268  24.034  14.254
43704W        W 8865   7.795  18.783   4.721
43705W        W 8866  24.211   0.240   1.520
43706W        W 8867  28.053  34.911   3.196
43707W        W 8868  30.462  37.010  11.546
43708W        W 8869  12.286  35.139  10.680
43709W        W 8870  12.365  22.600  10.744
43710W        W 8871   1.974  18.736   1.191
43711W        W 8872  19.216  33.552   2.835
43712W        W 8873  34.997  41.797  11.171
43713W        W 8874  36.475  15.707  14.474
43714W        W 8875  40.254  31.258   0.536
43715W        W 8876  14.609  21.095   0.746
43716W        W 8877  21.847  24.497   1.296
43717W        W 8878  16.298  44.371   4.806
43718W        W 8879  40.476   2.167   4.172
43719W        W 8880   4.671  42.422  14.452
43720W        W 8881  23.923  31.589   2.724
43721W        W 8882  41.799  39.877  12.355
43722W        W 8883  38.054  17.580  12.885
43723W        W 8884  27.743  32.423  12.949
43724W        W 8885  38.961   9.611   3.399
43725W        W 8886   1.436  21.236   1.400
43726W        W 8887  33.132  10.192  11.544
43727W        W 8888  31.654  22.133   1.807
43728W        W 8889  29.291  35.459  13.310
43729W        W 8890  39.879  11.098   4.096
43730W        W 8891   8.875  41.029   4.221
43731W        W 8892  28.405  11.242  13.378
43732W        W 8893   3.537  15.220   3.286
43733W        W 8894  17.949   4.952   0.005
43734W        W 8895  36.922  21.452  12.848
43735W        W 8896   8.171  31.370   4.155
43736W        W 8897  25.661   2.397   2.205
43737W        W 8898  32.993  27.174   0.409
43738W        W 8899  37.319   2.719  11.579
43739W        W 8900  20.034   6.455   2.218
43740W        W 8901   5.162  33.587   4.118
43741W        W 8902  39.498  27.104   1.512
43742W        W 8903  29.017  41.686  13.372
43743W        W 8904  14.586  27.608   4.159
43744W        W 8905   6.188  12.314   3.221
43745W        W 8906   5.254   0.540   0.249
43746W        W 8907  36.437  27.542   3.449
43747W        W 8908  23.806  10.859   3.663
43748W        W 8909  33.145  12.802   1.905
43749W        W 8910  24.233  29.553   0.448
43750W        W 8911  44.542  33.105  12.856
43751W        W 8912  43.429  21.453   3.269
43752W        W 8913  33.631   6.171  14.557
43753W        W 8914  28.202  29.583   1.757
43754W        W 8915  11.302  16.368   2.292
43755W        W 8916  15.357  43.398   0.106
43756W        W 8917  18.650  23.396   4.104
43757W        W 8918  25.713  15.356   4.189
43758W        W 8919  22.223   2.708   1.269
43759W        W 8920   9.776  27.308  12.024
43760W        W 8921  32.358  11.659  11.059
43761W        W 8922   7.730  21.830  14.394
43762W        W 8923  27.713  27.167  11.681
43763W        W 8924  20.056  22.297  10.920
43764W        W 8925  24.989  42.416   3.107
43765W        W 8926  34.405  44.246   2.617
43766W        W 8927  11.080  13.983   4.544
43767W        W 8928  10.233  12.809  12.560
43768W        W 8929  24.134  25.092  11.786
43769W        W 8930  42.759   4.698   3.646
43770W        W 8931  22.276  30.840  11.584
43771W        W 8932  23.246  25.510  11.998
43772W        W 8933  42.438   9.831  11.992
43773W        W 8934  23.866   9.007   0.146
43774W        W 8935  19.894  30.095  12.756
43775W        W 8936  15.511  18.690   9.696
43776W        W 8937  43.606  21.219  13.523
43777W        W 8938  21.558  27.489  10.901
43778W        W 8939  16.932   6.573   3.992
43779W        W 8940   6.117   1.673   5.018
43780W        W 8941  10.239  15.535  10.044
43781W        W 8942  27.630  27.169   4.156
43782W        W 8943   9.774   5.176   1.823
43783W        W 8944  16.045   9.130  14.157
43784W        W 8945  38.604  14.583  11.859
43785W        W 8946  30.529  18.049   0.978
43786W        W 8947  27.484   6.649  11.393
43787W        W 8948  20.013  42.721   3.195
43788W        W 8949  11.363  24.982  12.489
43789W        W 8950  41.747   1.271   2.280
43790W        W 8951   3.824  21.612   4.632
43791W        W 8952  15.864  25.907   2.136
43792W        W 8953  42.198  39.364   3.618
43793W        W 8954  15.289  11.863   3.369
43794W        W 8955  30.588  40.240   0.870
43795W        W 8956  11.125  19.490   1.818
43796W        W 8957  23.548  17.645  13.211
43797W        W 8958  39.818  43.459  12.906
43798W        W 8959  23.440  42.959  12.413
43799W        W 8960  29.650  43.571  13.129
43800W        W 8961  23.145  10.595   0.822
43801W        W 8962  16.400  44.674  13.921
43802W        W 8963  29.345  33.908   3.793
43803W        W 8964   6.137  40.702   0.647
43804W        W 8965  35.952  27.137   4.135
43805W        W 8966   8.634   6.817  10.525
43806W        W 8967  36.163   6.370  12.946
43807W        W 8968  36.577  35.983   2.913
43808W        W 8969  14.109  41.326  11.486
43809W        W 8970  33.895  13.352  10.578
43810W        W 8971   6.653  37.444   3.260
43811W        W 8972  42.319  38.052   1.291
43812W        W 8973   2.320  29.712  14.551
43813W        W 8974   2.288   7.922   2.275
43814W        W 8975  35.450  17.998   4.582
43815W        W 8976  18.202  37.373  14.918
43816W        W 8977  29.356  24.587  14.797
43817W        W 8978  30.057  37.894  10.486
43818W        W 8979  19.276  40.991   3.750
43819W        W 8980  40.522  34.569   3.263
43820W        W 8981  28.041  36.503   2.606
43821W        W 8982  42.794  21.064   2.756
43822W        W 8983  16.743  30.705  11.607
43823W        W 8984  10.897   8.524   1.426
43824W        W 8985   0.438   8.457  13.417
43825W        W 8986  39.789  18.490  10.547
43826W        W 8987  23.683  13.719  14.005
43827W        W 8988  12.012  28.848  11.503
43828W        W 8989  14.721  10.763  12.442
43829W        W 8990  13.691  12.527  10.758
43830W        W 8991  18.981  41.239  13.991
43831W        W 8992  30.631  27.421   3.754
43832W        W 8993   1.288  40.340  14.705
43833W        W 8994   9.363  38.494   0.948
43834W        W 8995   6.257   3.956   4.235
43835W        W 8996   9.558  11.384  12.828
43836W        W 8997  18.487  20.219  11.655
43837W        W 8998  41.357  15.297   0.947
43838W        W 8999  34.855  44.032   2.477
43839W        W 9000  28.534  36.334   4.699
43840W        W 9001  35.935  35.411  14.331
43841W        W 9002  39.600  28.612   2.871
43842W        W 9003  35.533   4.834   3.879
43843W        W 9004  27.228  11.931   1.888
43844W        W 9005  39.879  15.805  10.497
43845W        W 9006   7.704  29.051  13.541
43846W        W 9007   2.619   3.654   0.218
43847W        W 9008  26.118  39.253   3.320
43848W        W 9009  39.413  39.843   4.238
43849W        W 9010  24.676  24.512  11.654
43850W        W 9011  25.493   8.633   1.823
43851W        W 9012  15.469   5.990  13.358
43852W        W 9013   3.402  37.256  13.814
43853W        W 9014  21.476  40.434   2.794
43854W        W 9015  10.020  17.650   2.563
43855W        W 9016   2.146  44.874   2.649
43856W        W 9017  43.042  29.224  13.055
43857W        W 9018  13.279  11.406   2.871
43858W        W 9019  38.445  25.099   3.318
43859W        W 9020   6.688  17.728   0.624
43860W        W 9021  35.344  19.086   1.385
43861W        W 9022  44.885  32.553  10.679
43862W        W 9023   7.776  40.000  11.300
43863W        W 9024  16.610  24.969   1.218
43864W        W 9025   0.308  18.948   2.338
43865W        W 9026  16.586  37.429   0.353
43866W        W 9027   2.407   3.366  13.503
43867W        W 9028  34.059  32.565   0.145
43868W        W 9029   0.348   8.926   3.798
43869W        W 9030   8.183  24.966   0.050
43870W        W 9031  32.394  27.787  14.232
43871W        W 9032  20.622  30.163   0.880
43872W        W 9033  33.909   0.036  12.076
43873W        W 9034  16.046  14.623  14.406
43874W        W 9035  25.112  22.499  13.703
43875W        W 9036  17.543  34.176  14.324
43876W        W 9037  22.585  13.130  13.832
43877W        W 9038   1.512  44.093  12.353
43878W        W 9039  22.201  32.107   2.424
43879W        W 9040   1.167  25.286   4.612
43880W        W 9041   5.328   9.796   4.186
43881W        W 9042  25.720  22.676  10.140
43882W        W 9043  41.899  28.670  11.681
43883W        W 9044  42.819  27.706   3.672
43884W        W 9045  20.005  28.083  14.229
43885W        W 9046  24.581  30.595   0.946
43886W        W 9047  42.018  20.106   4.256
43887W        W 9048  32.580  43.822  10.458
43888W        W 9049  23.090  37.781  11.937
43889W        W 9050   2.119  27.370   1.803
43890W        W 9051  10.294  11.921  11.813
43891W        W 9052   2.156  41.320   0.525
43892W        W 9053  31.645  10.227  12.623
43893W        W 9054  43.495  11.751   2.556
43894W        W 9055  25.688  20.169   2.774
43895W        W 9056  17.921  11.798   1.292
43896W        W 9057  40.540  23.737  14.828
43897W        W 9058   5.389   2.110   1.521
43898W        W 9059  11.315   3.616   4.673
43899W        W 9060   9.900   5.039   0.277
43900W        W 9061  34.002  21.928   5.455
43901W        W 9062  20.590  25.283   4.562
43902W        W 9063   6.139  44.610  10.196
43903W        W 9064   7.120   1.748  12.506
43904W        W 9065  24.035  39.531  14.443
43905W        W 9066   9.218  35.630  10.744
43906W        W 9067   6.994  12.318  14.071
43907W        W 9068   4.434  24.608  13.939
43908W        W 9069  43.852  11.318  11.994
43909W        W 9070   0.876   8.448   3.221
43910W        W 9071  13.819  20.675  11.250
43911W        W 9072  37.434  29.590   4.196
43912W        W 9073  31.997  34.099   1.515
43913W        W 9074  30.901  12.187   0.839
43914W        W 9075  44.843  10.821  11.906
43915W        W 9076  31.160  44.442   1.709
43916W        W 9077  30.143  31.347  11.075
43917W        W 9078  23.928  20.994   0.850
43918W        W 9079  25.999  20.717   2.297
43919W        W 9080   3.114   7.220  13.071
43920W        W 9081  41.571  33.896   0.225
43921W        W 9082  14.630   7.383   2.684
43922W        W 9083  31.712  24.235  10.858
43923W        W 9084  34.418  31.570   4.701
43924W        W 9085  29.130  25.700  11.058
43925W        W 9086  35.992  21.536   4.285
43926W        W 9087  32.582  10.246   2.683
43927W        W 9088  42.473  30.540  13.396
43928W        W 9089  34.211  20.990  14.587
43929W        W 9090  12.374  38.562  12.073
43930W        W 9091  17.065  44.670  10.559
43931W        W 9092   7.023  15.713  10.116
43932W        W 9093   3.965  16.420   0.608
43933W        W 9094   4.422  12.909   1.159
43934W        W 9095   4.139   5.743  13.390
43935W        W 9096  42.320  28.442   0.258
43936W        W 9097  28.150   2.844   0.513
43937W        W 9098  30.398  19.555   2.889
43938W        W 9099  27.700  13.196  13.361
43939W        W 9100  36.795  25.633   0.384
43940W        W 9101  17.660  15.850   1.923
43941W        W 9102  22.962  35.964   0.815
43942W        W 9103  31.316  12.366  13.601
43943W        W 9104  15.193  28.525   2.915
43944W        W 9105   0.998  44.051  13.698
43945W        W 9106  10.330  27.777   1.731
43946W        W 9107  20.132  35.025  12.603
43947W        W 9108   3.849   6.472  10.584
43948W        W 9109  22.966  32.358  13.844
43949W        W 9110  25.246   8.098  12.428
43950W        W 9111   1.046   6.362   2.846
43951W        W 9112  10.410  36.678  13.563
43952W        W 9113  16.318  22.530   0.426
43953W        W 9114   2.500  16.282  12.119
43954W        W 9115   8.286   8.486  10.781
43955W        W 9116  35.402  40.450   1.867
43956W        W 9117   3.025  25.046  12.688
43957W        W 9118  25.538  43.924  11.001
43958W        W 9119   2.546  25.407   0.984
43959W        W 9120  21.168  33.609   2.365
43960W        W 9121  15.676   3.417   3.644
43961W        W 9122  30.661  12.245  13.070
43962W        W 9123  10.836  10.421   0.588
43963W        W 9124   1.027  23.201  12.011
43964W        W 9125  27.463  32.560  11.673
43965W        W 9126   0.240  42.282   2.823
43966W        W 9127  33.608  27.554  14.545
43967W        W 9128  36.776   8.577   4.941
43968W        W 9129  14.665  11.209   4.924
43969W        W 9130  33.911  36.580   1.669
43970W        W 9131  14.209  16.651   1.217
43971W        W 9132   4.976  22.480  13.801
43972W        W 9133  33.152  37.543  11.668
43973W        W 9134  25.520  24.990   1.820
43974W        W 9135  22.590  32.946  10.775
43975W        W 9136  22.135   4.512  14.847
43976W        W 9137  27.722  23.571  14.455
43977W        W 9138  33.921  30.031  12.080
43978W        W 9139  25.486  16.243   0.284
43979W        W 9140  23.175  20.620   3.802
43980W        W 9141  43.443  20.751  13.341
43981W        W 9142   2.171  21.685   3.213
43982W        W 9143   1.517  28.638  13.005
43983W        W 9144  19.632   3.464  10.777
43984W        W 9145   7.486  37.336   1.895
43985W        W 9146  11.159  19.834   1.310
43986W        W 9147  22.984  39.796   4.408
43987W        W 9148  39.607  29.722  12.024
43988W        W 9149   1.737  44.693   1.428
43989W        W 9150  18.606  25.461   4.648
43990W        W 9151  32.676  28.225   2.456
43991W        W 9152  37.306  32.054   1.688
43992W        W 9153   8.732  25.212  12.173
43993W        W 9154  38.824  16.792   1.374
43994W        W 9155   8.093   9.241   0.838
43995W        W 9156  23.145  35.702   1.229
43996W        W 9157  24.650  25.058   0.012
43997W        W 9158   9.800  32.149  10.635
43998W        W 9159   2.823  37.038   3.291
43999W        W 9160  22.591  44.499  13.485
44000W        W 9161  36.580  38.345  10.626
44001W        W 9162  19.450   7.901  13.834
44002W        W 9163  32.540  10.017   3.546
44003W        W 9164  41.910  11.725  13.464
44004W        W 9165  26.594   7.412  12.504
44005W        W 9166  13.640   7.784   3.415
44006W        W 9167  13.680   9.399   1.741
44007W        W 9168  18.563  10.681  13.387
44008W        W 9169  22.599  29.523   3.631
44009W        W 9170  40.633  44.499  13.081
44010W        W 9171  15.590  15.688  12.874
44011W        W 9172   8.861  24.627  12.904
44012W        W 9173   2.479   6.534  12.550
44013W        W 9174  34.042  18.708  12.458
44014W        W 9175   2.516  24.139   3.198
44015W        W 9176  22.129  27.156   2.651
44016W        W 9177  34.815  44.581   3.338
44017W        W 9178  22.655  35.405  11.073
44018W        W 9179  11.742   0.076   0.945
44019W        W 9180  42.099  22.720   2.812
44020W        W 9181   5.343  15.718   1.633
44021W        W 9182  39.523  12.166   4.309
44022W        W 9183  32.850   9.172   2.223
44023W        W 9184  29.574  26.270  13.749
44024W        W 9185   4.744  41.241  13.454
44025W        W 9186   0.658  25.459  10.274
44026W        W 9187   5.734  29.133  12.570
44027W        W 9188   9.442  10.729   2.583
44028W        W 9189  19.080  13.131  13.974
44029W        W 9190  19.670   3.530  12.924
44030W        W 9191  23.349  12.728  12.818
44031W        W 9192  20.925  42.450  13.791
44032W        W 9193  37.736   5.299  11.560
44033W        W 9194  19.703  39.719   9.620
44034W        W 9195  34.765  29.087   2.713
44035W        W 9196  21.742   7.083   3.700
44036W        W 9197  10.025   8.801   3.441
44037W        W 9198  11.581   6.258  11.124
44038W        W 9199  17.224  20.482  11.516
44039W        W 9200  44.851  10.490   0.845
44040W        W 9201  14.250  29.721   2.854
44041W        W 9202  29.236  36.561   2.642
44042W        W 9203  37.332  40.053  14.671
44043W        W 9204  32.437  11.571   2.492
44044W        W 9205  14.542   9.945  14.937
44045W        W 9206  39.501  26.060   3.728
44046W        W 9207  12.123  18.165  13.296
44047W        W 9208  13.531  22.935   0.121
44048W        W 9209   0.933  20.126  13.457
44049W        W 9210  28.092  41.729  11.973
44050W        W 9211  20.339  15.789  14.967
44051W        W 9212  23.221   7.551   1.731
44052W        W 9213   5.237  29.310   0.237
44053W        W 9214  31.374  29.897   0.830
44054W        W 9215  13.178   9.921  10.856
44055W        W 9216   9.249  33.585  13.754
44056W        W 9217  35.044  27.737   3.867
44057W        W 9218  37.619  38.045  14.468
44058W        W 9219   6.077  16.309  10.593
44059W        W 9220  23.955  35.721  11.196
44060W        W 9221  32.110  31.422   4.419
44061W        W 9222   9.695  22.858   2.937
44062W        W 9223  36.436  27.615  14.606
44063W        W 9224  15.835  33.141   2.834
44064W        W 9225  19.848  26.290  14.925
44065W        W 9226  19.051   4.667  13.594
44066W        W 9227  26.103  40.915   1.908
44067W        W 9228   1.120  43.037  12.632
44068W        W 9229  31.506  31.559   2.072
44069W        W 9230  12.639  34.181  13.876
44070W        W 9231  13.213  10.450  13.723
44071W        W 9232  20.488  24.330  12.459
44072W        W 9233  13.693  39.504   2.449
44073W        W 9234  31.494   8.043  14.533
44074W        W 9235  34.619  15.760   4.126
44075W        W 9236  20.072  42.723   1.874
44076W        W 9237   6.365  17.110  14.547
44077W        W 9238  35.689   5.269   2.780
44078W        W 9239  17.809  13.378   0.993
44079W        W 9240  12.661  28.583  14.052
44080W        W 9241  39.211  20.007   4.492
44081W        W 9242   8.614  29.565  14.050
44082W        W 9243  34.105  37.495  11.627
44083W        W 9244   3.709  16.325  10.215
44084W        W 9245   2.066  25.643   3.927
44085W        W 9246  41.447  12.119   4.147
44086W        W 9247  19.240   3.682   2.408
44087W        W 9248  14.953  40.374   2.637
44088W        W 9249  16.801  30.514  13.425
44089W        W 9250  25.642  30.982   2.594
44090W        W 9251  39.992  38.571  12.069
44091W        W 9252  23.655  23.950   3.697
44092W        W 9253  13.807  42.385  11.850
44093W        W 9254  26.681  36.876   4.192
44094W        W 9255  10.280  11.757   2.195
44095W        W 9256  21.807  17.568   1.034
44096W        W 9257  35.653  38.687   0.214
44097W        W 9258   9.935   7.003   0.380
44098W        W 9259  29.016  10.297  10.593
44099W        W 9260  16.055   3.521   4.873
44100W        W 9261  33.847  34.977   3.653
44101W        W 9262  30.273  10.404   2.453
44102W        W 9263  40.455   2.566   2.840
44103W        W 9264  43.897   0.280   0.467
44104W        W 9265  43.052  40.839  12.935
44105W        W 9266   6.004  15.432   1.321
44106W        W 9267  42.030   6.926  13.247
44107W        W 9268   5.207  27.984  11.145
44108W        W 9269  17.497  17.879  14.871
44109W        W 9270  18.692   2.808   0.576
44110W        W 9271  20.164  34.628  13.547
44111W        W 9272  33.313  21.281   3.840
44112W        W 9273  27.157  25.744  14.330
44113W        W 9274  16.242  23.062  10.819
44114W        W 9275  43.897   9.375  10.604
44115W        W 9276  37.865  44.519  10.246
44116W        W 9277  24.754  23.322  10.796
44117W        W 9278  27.916   0.697   4.509
44118W        W 9279  10.147  15.768  12.912
44119W        W 9280  27.788  37.576  12.399
44120W        W 9281  44.435  27.499   3.647
44121W        W 9282   5.758  41.607  12.573
44122W        W 9283  12.483  38.999  10.238
44123W        W 9284   3.816  25.556   3.496
44124W        W 9285  34.984  28.187  13.032
44125W        W 9286   5.428  40.501   3.729
44126W        W 9287  31.971  43.257  10.576
44127W        W 9288  28.049  26.041  10.461
44128W        W 9289  30.185  41.085   4.027
44129W        W 9290  38.729  39.554  10.329
44130W        W 9291  32.581  44.373   1.667
44131W        W 9292  35.942  35.309   2.781
44132W        W 9293  17.528   3.059   0.860
44133W        W 9294  23.004   9.435  14.439
44134W        W 9295  39.015  32.911  10.784
44135W        W 9296  40.947  42.034  14.847
44136W        W 9297  26.793   8.339  14.645
44137W        W 9298   5.823  41.814  12.086
44138W        W 9299   2.153  37.358  13.612
44139W        W 9300  25.864  10.386   0.943
44140W        W 9301  40.069  24.210   4.333
44141W        W 9302   4.292  14.350   2.347
44142W        W 9303  15.034  34.138  14.711
44143W        W 9304  28.151  10.083  10.713
44144W        W 9305  36.080  30.059  12.086
44145W        W 9306   4.852   1.888   0.199
44146W        W 9307  10.115  10.590  13.902
44147W        W 9308   6.989  17.642  13.963
44148W        W 9309  36.260  16.166  13.789
44149W        W 9310  43.473  24.988  13.022
44150W        W 9311  11.171   5.803   3.657
44151W        W 9312  13.644  27.648  12.973
44152W        W 9313  15.041  32.405   4.549
44153W        W 9314   0.849   0.905  12.618
44154W        W 9315  41.139  43.886   0.832
44155W        W 9316  39.444  15.786  11.594
44156W        W 9317   9.663  38.644   3.285
44157W        W 9318  21.168  35.152  13.400
44158W        W 9319  40.031   8.706  10.587
44159W        W 9320  39.950  34.699   0.246
44160W        W 9321  13.440  40.111   0.492
44161W        W 9322  19.093   3.805  11.408
44162W        W 9323  14.411  44.195   2.248
44163W        W 9324  26.689  22.277   2.962
44164W        W 9325  10.835  20.695  13.477
44165W        W 9326  34.883  18.645   0.824
44166W        W 9327  16.901  17.417  13.696
44167W        W 9328  36.822  27.307   3.075
44168W        W 9329  25.423  30.972  11.638
44169W        W 9330  36.376  12.578   2.686
44170W        W 9331   9.327  13.173  12.479
44171W        W 9332  21.405  21.564   2.967
44172W        W 9333   2.150  44.544   4.177
44173W        W 9334  34.202  42.830   2.297
44174W        W 9335  39.421   9.839   3.539
44175W        W 9336   4.472  13.077  10.562
44176W        W 9337  26.174   4.497  13.293
44177W        W 9338   6.412   9.596  13.411
44178W        W 9339  16.194  31.878  13.391
44179W        W 9340  43.540  19.595   0.716
44180W        W 9341  18.871  34.240   1.783
44181W        W 9342  34.874  39.844  12.892
44182W        W 9343  35.901  39.908  12.528
44183W        W 9344  36.051  29.033   1.167
44184W        W 9345  13.597  44.008  11.166
44185W        W 9346  34.385  40.297   0.213
44186W        W 9347  35.885   3.992   3.346
44187W        W 9348  31.755  25.585  12.560
44188W        W 9349  19.131  40.750   2.829
44189W        W 9350   2.811  30.695   2.432
44190W        W 9351  13.188  24.123  13.121
44191W        W 9352  28.805  24.005   4.072
44192W        W 9353  29.366  44.433  12.377
44193W        W 9354  24.655   5.065  12.459
44194W        W 9355  41.786   6.456  14.642
44195W        W 9356  38.976  15.548  11.546
44196W        W 9357   4.864   3.800  13.784
44197W        W 9358  36.174  25.036  10.452
44198W        W 9359  29.074   5.786  12.108
44199W        W 9360  30.088   5.063   3.070
44200W        W 9361  13.833   5.915   0.393
44201W        W 9362   3.646  16.128   0.893
44202W        W 9363  23.158   6.897  14.833
44203W        W 9364  38.872  27.560  11.606
44204W        W 9365  30.082  27.094  14.051
44205W        W 9366   9.152   9.862   4.117
44206W        W 9367  34.279  44.228   0.661
44207W        W 9368  12.322  39.606   1.742
44208W        W 9369   1.651  28.016  10.279
44209W        W 9370  15.794  20.642   4.185
44210W        W 9371  13.224  40.960   0.367
44211W        W 9372  18.677  39.591   2.392
44212W        W 9373  21.779  29.855  13.746
44213W        W 9374  42.145  28.221  11.557
44214W        W 9375  40.797  12.918   4.111
44215W        W 9376   8.612  10.633  13.901
44216W        W 9377   3.597   9.775  10.678
44217W        W 9378  18.278   4.682   0.905
44218W        W 9379  25.495   9.243   4.188
44219W        W 9380  17.573  25.727   1.457
44220W        W 9381  30.848  13.193   0.003
44221W        W 9382   5.305  23.657   1.257
44222W        W 9383   6.293   5.909   0.768
44223W        W 9384  39.777  28.202   2.126
44224W        W 9385  34.824  10.025   9.893
44225W        W 9386  11.587  16.751  12.967
44226W        W 9387  34.951  12.778   3.350
44227W        W 9388  21.289   0.811   4.637
44228W        W 9389  41.762  16.222   4.266
44229W        W 9390  15.101  35.859   2.846
44230W        W 9391  39.852  16.706   0.350
44231W        W 9392  24.144   4.706  11.675
44232W        W 9393  26.849  29.126  13.763
44233W        W 9394   4.815  35.177  14.300
44234W        W 9395  16.732  25.178  14.125
44235W        W 9396  23.126  30.611   2.613
44236W        W 9397  25.128  15.324   3.647
44237W        W 9398  44.795  40.461   0.285
44238W        W 9399  42.005   6.846  11.899
44239W        W 9400  40.659  24.210  14.937
44240W        W 9401  11.154  17.666  14.740
44241W        W 9402  34.275   5.689   1.623
44242W        W 9403  11.706  11.257  11.552
44243W        W 9404  34.019   1.428   3.004
44244W        W 9405  39.055  38.248   0.170
44245W        W 9406  23.693  28.000   2.164
44246W        W 9407  13.607  27.381  12.104
44247W        W 9408  38.991  39.965   0.885
44248W        W 9409  32.837  21.596   3.107
44249W        W 9410  25.005  10.700  13.415
44250W        W 9411  22.250  25.563   1.276
44251W        W 9412  34.375   2.597  11.145
44252W        W 9413  18.185  11.936  12.560
44253W        W 9414   4.362   7.981  12.826
44254W        W 9415  27.347  25.428  14.702
44255W        W 9416   5.981  22.715   3.121
44256W        W 9417  40.445  21.007   5.044
44257W        W 9418  34.870   3.886  14.845
44258W        W 9419  20.971  16.184  12.507
44259W        W 9420  34.870  14.107  13.848
44260W        W 9421  42.752  33.222  12.986
44261W        W 9422  16.309  17.494   1.657
44262W        W 9423   6.184  13.281   1.667
44263W        W 9424  26.858  36.665   3.320
44264W        W 9425  31.854  43.433   0.085
44265W        W 9426  10.325  41.895  12.266
44266W        W 9427  37.496  15.613  13.630
44267W        W 9428  28.670  21.562   2.564
44268W        W 9429  26.048  13.595   1.187
44269W        W 9430  34.981  31.418   0.344
44270W        W 9431  29.212   0.961  12.497
44271W        W 9432   4.284  28.067   1.480
44272W        W 9433   1.447  40.999  11.901
44273W        W 9434   8.187  30.091   2.168
44274W        W 9435  41.014  17.496   2.220
44275W        W 9436  35.872  16.350  14.939
44276W        W 9437  10.162  35.230   0.215
44277W        W 9438  37.722  30.968  12.652
44278W        W 9439   4.856  15.628  12.942
44279W        W 9440  13.678  33.410  10.643
44280W        W 9441   1.764   9.787  14.979
44281W        W 9442  13.063  18.571   3.912
44282W        W 9443   4.195  17.147  14.057
44283W        W 9444  34.604  30.275   4.220
44284W        W 9445  20.243  27.250   1.312
44285W        W 9446  31.959   9.223   1.532
44286W        W 9447  18.299  26.993   2.003
44287W        W 9448  36.104  32.626  12.839
44288W        W 9449  15.619  31.264   2.184
44289W        W 9450   5.478  32.925   0.323
44290W        W 9451  44.581  35.816  14.109
44291W        W 9452  35.346  20.149  14.580
44292W        W 9453  42.417  26.978   1.367
44293W        W 9454  39.010  44.545   4.540
44294W        W 9455   7.316  30.432  14.839
44295W        W 9456  40.090  16.897  11.195
44296W        W 9457  19.796   4.362  14.992
44297W        W 9458  18.196  30.044  14.380
44298W        W 9459   7.337  30.533  13.860
44299W        W 9460  25.033  16.167  13.839
44300W        W 9461  28.351  38.751   2.852
44301W        W 9462  24.496  16.994  13.818
44302W        W 9463  43.309  42.100   3.663
44303W        W 9464  30.485  42.022   1.337
44304W        W 9465  39.513   7.876   4.580
44305W        W 9466  23.511  31.001  13.088
44306W        W 9467   3.880  26.910   2.715
44307W        W 9468  29.916  38.027  13.575
44308W        W 9469  39.112  11.182   0.311
44309W        W 9470  26.715  26.208   5.200
44310W        W 9471   7.229   4.675   1.304
44311W        W 9472  42.357  28.946   1.346
44312W        W 9473  38.957  21.794   2.278
44313W        W 9474  33.381  10.830   3.560
44314W        W 9475  40.018  28.919  11.173
44315W        W 9476  35.715  38.364  10.395
44316W        W 9477   0.806  24.611  13.003
44317W        W 9478   9.951  41.742  14.503
44318W        W 9479  39.926   5.007  12.706
44319W        W 9480  32.675  22.262   0.022
44320W        W 9481  21.579  33.344   3.339
44321W        W 9482  33.811  25.540   2.764
44322W        W 9483   5.819  17.880   2.447
44323W        W 9484   6.836  37.602  12.222
44324W        W 9485  32.387  28.423   1.370
44325W        W 9486  38.456  41.919   4.741
44326W        W 9487  40.850   3.851  14.413
44327W        W 9488  30.604   0.500  11.560
44328W        W 9489  13.817   4.974  13.763
44329W        W 9490   6.106  29.953  12.620
44330W        W 9491  28.353  33.550  14.356
44331W        W 9492  13.281  34.938   4.891
44332W        W 9493  29.934  34.892   0.415
44333W        W 9494  22.817  22.694   4.198
44334W        W 9495  44.350  16.500   1.177
44335W        W 9496  13.592  16.693  11.644
44336W        W 9497   0.805  17.320   2.644
44337W        W 9498  37.541   5.332   0.583
44338W        W 9499  12.492   8.127   1.959
44339W        W 9500  18.149  37.914  14.941
44340W        W 9501  42.410  25.247   1.280
44341W        W 9502  19.742  44.635  11.789
44342W        W 9503  28.854  34.603   1.814
44343W        W 9504   7.228  43.183  13.550
44344W        W 9505  18.078  30.451  14.873
44345W        W 9506  13.613  15.744   3.344
44346W        W 9507   6.069  36.965  11.399
44347W        W 9508  13.795  42.306   0.002
44348W        W 9509  38.838   6.454  10.635
44349W        W 9510   5.230  36.576   4.602
44350W        W 9511  42.233  25.606  11.069
44351W        W 9512   8.279  25.230   4.140
44352W        W 9513  28.635  16.526   0.361
44353W        W 9514  37.946   6.974  13.059
44354W        W 9515  32.746  23.473   2.403
44355W        W 9516  32.507  33.999   2.186
44356W        W 9517  30.472  12.110  14.876
44357W        W 9518   0.183  29.789  13.301
44358W        W 9519   8.387  42.442  12.898
44359W        W 9520  35.570  35.905   4.479
44360W        W 9521  32.054  19.775   3.634
44361W        W 9522  16.680   1.330   0.932
44362W        W 9523  10.870  33.034   1.675
44363W        W 9524  24.452  31.909  14.077
44364W        W 9525  28.229   3.327  11.011
44365W        W 9526  30.712  25.069   2.090
44366W        W 9527  40.452  18.555   4.523
44367W        W 9528  19.275  26.114   2.282
44368W        W 9529  11.302  26.167  13.855
44369W        W 9530  14.320  15.499  12.600
44370W        W 9531  31.974   7.716   3.649
44371W        W 9532   6.787   2.182  11.615
44372W        W 9533  44.127  29.922   5.047
44373W        W 9534  22.182   4.286   2.237
44374W        W 9535  25.152  25.997   4.552
44375W        W 9536  11.726  16.875   1.916
44376W        W 9537  38.673  20.502  14.845
44377W        W 9538  41.952  39.554   2.218
44378W        W 9539  12.080  18.003  12.398
44379W        W 9540  36.068   8.333  14.849
44380W        W 9541  23.947  10.269  13.830
44381W        W 9542   7.681  30.522  12.841
44382W        W 9543   8.659   1.344   1.177
44383W        W 9544   3.094   9.879  10.631
44384W        W 9545  41.602  26.954  10.877
44385W        W 9546   8.195  11.356  12.920
44386W        W 9547  20.821  33.970  11.192
44387W        W 9548   8.361  10.869   4.052
44388W        W 9549  44.675   0.561   4.129
44389W        W 9550  11.115  37.054   1.343
44390W        W 9551  13.944  21.140   2.316
44391W        W 9552   7.826   0.993   2.714
44392W        W 9553   9.415  42.404   2.158
44393W        W 9554  28.158  28.819   2.903
44394W        W 9555   3.010  42.801  10.747
44395W        W 9556  37.736  38.063   3.348
44396W        W 9557  15.790  38.207  14.107
44397W        W 9558  12.397   4.840  14.280
44398W        W 9559  26.170  43.098  13.617
44399W        W 9560  26.153  30.745   2.541
44400W        W 9561  26.433   0.725   0.327
44401W        W 9562  15.668  12.397  13.385
44402W        W 9563  44.140  27.946   3.636
44403W        W 9564  40.895  24.536  13.003
44404W        W 9565  37.792  10.421   0.024
44405W        W 9566  42.022  39.395  13.581
44406W        W 9567  13.877  42.226   2.339
44407W        W 9568  32.121  31.438  11.688
44408W        W 9569  19.661  38.127   2.774
44409W        W 9570  35.570  26.987   0.035
44410W        W 9571   5.414  23.028   4.625
44411W        W 9572   1.560  17.169  10.668
44412W        W 9573  10.415  33.923  14.403
44413W        W 9574   5.245  36.955  14.079
44414W        W 9575  27.631  12.326   0.411
44415W        W 9576  18.528  38.970  13.857
44416W        W 9577   6.985  32.187   2.230
44417W        W 9578   2.435  26.915   3.732
44418W        W 9579  34.979  38.380   1.811
44419W        W 9580  38.757  37.240   3.911
44420W        W 9581  18.221   1.989  12.654
44421W        W 9582  32.400  20.987   2.687
44422W        W 9583  26.021   9.247   3.165
44423W        W 9584  37.345  39.903   4.251
44424W        W 9585  16.619  35.253   0.285
44425W        W 9586  27.390  30.623  14.906
44426W        W 9587   7.572  13.679   4.081
44427W        W 9588  11.621  24.064  11.724
44428W        W 9589   1.932   3.858  13.909
44429W        W 9590  17.117  18.830  13.336
44430W        W 9591  12.729  16.843   1.012
44431W        W 9592   4.176  30.531  13.899
44432W        W 9593  10.851  34.696  14.729
44433W        W 9594  35.872  44.917   0.246
44434W        W 9595  35.289  26.562  14.891
44435W        W 9596  31.987  29.813  10.426
44436W        W 9597  29.760   2.301  11.199
44437W        W 9598  12.177  38.587   1.688
44438W        W 9599  16.238  22.004  11.593
44439W        W 9600  30.620  12.711   4.032
44440W        W 9601   0.058  17.664   0.914
44441W        W 9602  41.409   4.911  10.685
44442W        W 9603  21.037   2.059   3.922
44443W        W 9604  33.427   5.849  11.953
44444W        W 9605  19.614  40.421   0.928
44445W        W 9606  13.297  43.119   4.188
44446W        W 9607  30.909  22.050  13.960
44447W        W 9608  34.392  38.460   3.501
44448W        W 9609  12.825  25.452  14.369
44449W        W 9610  22.672  29.883  13.960
44450W        W 9611  31.420  30.365   1.717
44451W        W 9612  43.501   4.170   3.641
44452W        W 9613  17.800  18.577  11.531
44453W        W 9614  36.839  26.509   2.826
44454W        W 9615  10.119  38.402  11.101
44455W        W 9616  34.913  36.268   3.707
44456W        W 9617  38.653  37.156   4.407
44457W        W 9618  23.221  37.618  12.437
44458W        W 9619  29.471   6.088   3.944
44459W        W 9620   0.787   0.909  10.476
44460W        W 9621  36.859  32.226   0.693
44461W        W 9622  25.265  41.954  14.491
44462W        W 9623  38.987  10.397  14.293
44463W        W 9624  27.690  29.943   3.376
44464W        W 9625   8.117  23.083   4.618
44465W        W 9626  24.451  32.757   0.379
44466W        W 9627  22.174  43.810   0.425
44467W        W 9628   4.573   6.209  13.461
44468W        W 9629  29.165   5.213   1.795
44469W        W 9630  19.314  30.111   1.450
44470W        W 9631  34.298   9.488  11.125
44471W        W 9632  43.913   1.487  14.941
44472W        W 9633  27.192  26.159   1.156
44473W        W 9634   4.709  24.168   2.510
44474W        W 9635  26.126   3.217  13.025
44475W        W 9636   4.400  38.165  12.882
44476W        W 9637   4.336  18.209  14.852
44477W        W 9638  42.093  35.367  12.792
44478W        W 9639   9.137   4.575   4.503
44479W        W 9640  15.813  19.299  13.111
44480W        W 9641  44.427  36.844  14.021
44481W        W 9642  22.264  28.907   2.044
44482W        W 9643  15.469  24.897  11.027
44483W        W 9644   8.478  22.697   4.569
44484W        W 9645  23.986  32.555  10.660
44485W        W 9646   4.495  25.069   2.157
44486W        W 9647   4.258  34.142  13.897
44487W        W 9648   3.977  32.691  12.429
44488W        W 9649  23.736  29.689   3.708
44489W        W 9650  14.161  37.287   2.652
44490W        W 9651  13.578   8.354   1.806
44491W        W 9652  24.184  27.589  11.469
44492W        W 9653  42.277  38.003   4.730
44493W        W 9654  22.926  21.600   2.851
44494W        W 9655  24.653  43.426   2.673
44495W        W 9656   1.719  41.588  10.516
44496W        W 9657  36.541  33.455  13.842
44497W        W 9658  36.183  16.521   2.678
44498W        W 9659  17.504  31.412   2.445
44499W        W 9660  19.640  23.006  13.305
44500W        W 9661  32.048  35.325   4.202
44501W        W 9662  30.407   4.949   3.612
44502W        W 9663  32.312  41.839  13.080
44503W        W 9664  10.706  16.870  13.078
44504W        W 9665   7.599  21.469  11.053
44505W        W 9666  24.797  40.358  13.256
44506W        W 9667  39.659  18.001   0.456
44507W        W 9668  37.311   1.381   3.431
44508W        W 9669  40.356  32.666   3.283
44509W        W 9670   6.202  27.145   2.079
44510W        W 9671  13.073  10.250   2.307
44511W        W 9672   9.797  44.938  12.220
44512W        W 9673  44.667  31.054  10.667
44513W        W 9674  32.915  30.006   3.632
44514W        W 9675  24.525   7.916  13.407
44515W        W 9676  24.635  33.740  10.981
44516W        W 9677   2.437   4.181   0.468
44517W        W 9678   2.648  30.099  12.150
44518W        W 9679  15.682  22.968   4.539
44519W        W 9680  28.952  21.141  11.632
44520W        W 9681  15.765  42.315   1.481
44521W        W 9682  21.282   3.832   3.632
44522W        W 9683  16.238  12.663   1.790
44523W        W 9684  38.473   0.616  10.747
44524W        W 9685  18.035  29.171   2.762
44525W        W 9686  26.160  15.968   2.326
44526W        W 9687  17.768  11.730  12.347
44527W        W 9688   0.810   0.049   1.320
44528W        W 9689  11.826   0.736  13.964
44529W        W 9690  37.092  33.107   2.300
44530W        W 9691  21.035  30.938  11.059
44531W        W 9692  25.738  25.387   2.036
44532W        W 9693   1.244   2.809   4.537
44533W        W 9694   5.648  14.274  13.942
44534W        W 9695  40.817  15.541   2.447
44535W        W 9696  25.989  19.762   2.681
44536W        W 9697  43.949  35.987   2.834
44537W        W 9698  42.369   4.903  14.269
44538W        W 9699  32.702  10.666  11.093
44539W        W 9700  41.630  35.323  11.552
44540W        W 9701   8.543  15.606   2.086
44541W        W 9702   2.725   1.660   3.930
44542W        W 9703   2.977  22.250   1.783
44543W        W 9704   8.496  40.143  12.356
44544W        W 9705  33.626  40.572   4.911
44545W        W 9706  43.834   7.232   4.664
44546W        W 9707   3.662  24.332  12.090
44547W        W 9708  21.622  23.418  12.327
44548W        W 9709   7.465   6.658   2.878
44549W        W 9710  22.193  39.766  10.418
44550W        W 9711  35.452   4.297   2.112
44551W        W 9712  35.430   2.786   3.309
44552W        W 9713  24.253  43.888   1.261
44553W        W 9714  36.915  10.617   2.297
44554W        W 9715  24.066  29.623   4.138
44555W        W 9716  33.977   8.257   0.074
44556W        W 9717   4.715  28.025   2.320
44557W        W 9718  12.629  31.028  14.254
44558W        W 9719  44.241  12.536  13.366
44559W        W 9720   7.933  36.254  10.989
44560W        W 9721  30.579   1.504  10.837
44561W        W 9722  31.477  27.109  14.369
44562W        W 9723   1.347  24.016   2.268
44563W        W 9724  25.796  19.291  14.436
44564W        W 9725   7.850  35.866   3.719
44565W        W 9726  10.710  24.604  10.948
44566W        W 9727  26.491  32.873  11.503
44567W        W 9728   8.916  40.294  13.679
44568W        W 9729   9.670  43.763   0.279
44569W        W 9730  27.391  44.786  11.017
44570W        W 9731  43.868  14.384  14.718
44571W        W 9732  32.078   7.270   0.872
44572W        W 9733  28.491  16.707  13.528
44573W        W 9734  10.299  10.769  14.360
44574W        W 9735  42.045  23.720  13.033
44575W        W 9736  44.743  20.345  12.133
44576W        W 9737   9.297  11.911   1.827
44577W        W 9738  32.595  27.293   4.107
44578W        W 9739  35.500  35.870  11.527
44579W        W 9740  42.239  19.322   1.852
44580W        W 9741  19.565  26.405  11.129
44581W        W 9742  23.630  15.424   2.183
44582W        W 9743  26.638  12.035  12.373
44583W        W 9744  20.049  21.120  13.734
44584W        W 9745  23.519  40.065   2.663
44585W        W 9746  28.098   2.969   3.619
44586W        W 9747  13.316  22.538  14.246
44587W        W 9748  25.459  23.070   3.625
44588W        W 9749  19.047  34.972   2.904
44589W        W 9750   2.304  24.066  14.091
44590W        W 9751  11.201   2.542   0.920
44591W        W 9752  36.008  38.869  11.875
44592W        W 9753  26.504   8.631  13.882
44593W        W 9754  21.679  42.230  11.478
44594W        W 9755  29.415  15.215  13.093
44595W        W 9756  20.644   1.793   4.175
44596W        W 9757   8.270  22.985   3.239
44597W        W 9758  15.350   2.048  14.315
44598W        W 9759  34.046  32.018   1.788
44599W        W 9760   7.654   0.992   4.884
44600W        W 9761  27.421  19.467   4.977
44601W        W 9762  38.477  42.816   1.790
44602W        W 9763  25.703  43.417  13.067
44603W        W 9764  23.723  14.182  12.459
44604W        W 9765  21.665  10.291  13.364
44605W        W 9766  12.104   9.010  11.176
44606W        W 9767  19.275  36.842   0.649
44607W        W 9768  18.146   6.764  12.516
44608W        W 9769  38.038  34.936  14.921
44609W        W 9770  30.883  35.533   1.661
44610W        W 9771  10.180  19.901  11.980
44611W        W 9772  22.697   2.228  14.427
44612W        W 9773   4.728  13.270   1.582
44613W        W 9774  12.325  40.424   2.679
44614W        W 9775  20.145  42.352   2.774
44615W        W 9776  23.483  29.739  14.319
44616W        W 9777  14.624  15.438   1.335
44617W        W 9778  26.242  26.239   2.813
44618W        W 9779  41.577  24.588  11.542
44619W        W 9780  10.172   3.180   2.638
44620W        W 9781  44.851  16.583   0.499
44621W        W 9782  16.487  11.266   4.416
44622W        W 9783  23.825  17.610  11.683
44623W        W 9784   3.742  14.473   0.425
44624W        W 9785  31.812  18.221  10.777
44625W        W 9786   1.323  19.576   4.606
44626W        W 9787  10.446  12.744   9.917
44627W        W 9788  43.968  21.600  14.447
44628W        W 9789  30.782   4.188  13.468
44629W        W 9790  23.575   6.214   0.324
44630W        W 9791  11.629  27.437   3.911
44631W        W 9792  18.610  17.059   1.749
44632W        W 9793  39.888  30.487   4.702
44633W        W 9794   0.263  26.179   3.104
44634W        W 9795  21.804  31.951   3.307
44635W        W 9796  28.204  24.740  14.287
44636W        W 9797   3.457  44.764   3.298
44637W        W 9798  31.305   4.736  11.698
44638W        W 9799  16.218  12.635  13.479
44639W        W 9800   5.810  20.234  14.043
44640W        W 9801  34.807  33.943   0.472
44641W        W 9802  19.588  17.551   1.507
44642W        W 9803  31.039  16.185  11.986
44643W        W 9804  20.067  29.420   1.296
44644W        W 9805   7.904  16.701  13.569
44645W        W 9806  32.382  10.758  14.406
44646W        W 9807   1.688   1.312  13.476
44647W        W 9808  14.607  14.221   1.447
44648W        W 9809   0.471  25.740   4.211
44649W        W 9810   7.891  39.417   2.716
44650W        W 9811  16.471  25.265  14.973
44651W        W 9812  38.458  13.131  12.847
44652W        W 9813  23.710   8.416   2.139
44653W        W 9814  31.839  25.600   0.379
44654W        W 9815  22.678  18.463   2.185
44655W        W 9816  40.837   0.020   2.372
44656W        W 9817  30.666  42.352   0.292
44657W        W 9818  33.167  42.193  14.510
44658W        W 9819  42.539   7.896   4.756
44659W        W 9820  20.285  37.569   1.474
44660W        W 9821  36.843   3.341   4.912
44661W        W 9822  30.578  39.403   2.429
44662W        W 9823  17.651  35.690   3.793
44663W        W 9824   7.144   1.450  12.016
44664W        W 9825  22.707  15.650  14.382
44665W        W 9826  14.800  26.620  11.677
44666W        W 9827  30.461  13.580  14.945
44667W        W 9828  23.931  43.463   1.327
44668W        W 9829  23.060  10.147  10.772
44669W        W 9830  39.884  44.248   3.422
44670W        W 9831  33.462  20.002  14.633
44671W        W 9832  33.492  24.308  10.782
44672W        W 9833  42.556  32.569   1.367
44673W        W 9834  19.109  34.018   0.013
44674W        W 9835  30.833  39.911   1.760
44675W        W 9836  19.938  10.984   4.613
44676W        W 9837  44.713  38.200   1.502
44677W        W 9838  29.859  20.816   0.502
44678W        W 9839   3.184  23.177  14.831
44679W        W 9840  15.126  22.536  13.803
44680W        W 9841  44.005  16.039  12.369
44681W        W 9842   3.710  12.082   3.347
44682W        W 9843   3.373  31.865   2.779
44683W        W 9844  33.127  17.772  11.566
44684W        W 9845   3.609  24.396  12.771
44685W        W 9846   1.303  23.987   0.470
44686W        W 9847   6.368  24.283   1.928
44687W        W 9848  38.300  43.377   4.729
44688W        W 9849  30.380  12.771  13.557
44689W        W 9850   3.345  18.047  13.908
44690W        W 9851  43.481  20.779  12.581
44691W        W 9852   0.228  34.155  13.240
44692W        W 9853   0.799  25.747  13.457
44693W        W 9854  20.148  30.897   1.270
44694W        W 9855  39.298   7.727  11.183
44695W        W 9856  15.133  34.513   1.421
44696W        W 9857  25.998  39.934   2.383
44697W        W 9858  43.515  23.527  12.573
44698W        W 9859  19.214  41.773   2.641
44699W        W 9860   7.350  34.979   3.272
44700W        W 9861  20.601   2.307   4.209
44701W        W 9862  24.751  35.983  14.990
44702W        W 9863  33.774  32.177   3.647
44703W        W 9864  10.180  33.554  11.710
44704W        W 9865  21.580  33.524   0.526
44705W        W 9866  11.659   1.815  11.529
44706W        W 9867  10.258  24.532   0.325
44707W        W 9868  32.255  24.464   3.226
44708W        W 9869   1.691  32.472  11.081
44709W        W 9870  15.005  21.080   4.108
44710W        W 9871  20.504  21.708  13.356
44711W        W 9872  22.279  26.002   2.253
44712W        W 9873  10.972  19.079  12.038
44713W        W 9874  17.056  25.541   3.718
44714W        W 9875  31.923  17.564   4.331
44715W        W 9876   4.872  37.861   1.798
44716W        W 9877  13.367  27.692  13.428
44717W        W 9878  26.821  20.955   0.033
44718W        W 9879   7.382  22.123   0.444
44719W        W 9880  23.795   1.600  13.740
44720W        W 9881  10.354  40.482   2.898
44721W        W 9882  29.298   4.966  12.685
44722W        W 9883  21.068  32.583   3.144
44723W        W 9884  40.913  15.611   0.994
44724W        W 9885  40.409  18.991  14.015
44725W        W 9886  21.405  38.571  13.490
44726W        W 9887  11.846  38.499   2.352
44727W        W 9888  11.695  28.981   0.993
44728W        W 9889  23.602  14.501  12.001
44729W        W 9890  24.608  13.021   5.011
44730W        W 9891  12.162  36.028   2.326
44731W        W 9892   8.685  13.492   1.913
44732W        W 9893  19.817  36.837  13.457
44733W        W 9894  18.992   1.175  12.237
44734W        W 9895   5.414  29.820   3.171
44735W        W 9896  22.721  39.395   4.234
44736W        W 9897  11.936  16.273   2.764
44737W        W 9898   0.432   2.199   3.830
44738W        W 9899   1.387  41.344   3.344
44739W        W 9900  18.171  24.765  11.753
44740W        W 9901  43.856  39.051  12.933
44741W        W 9902   9.626  38.992   0.254
44742W        W 9903  25.895  21.675   2.319
44743W        W 9904  40.768  14.677  13.197
44744W        W 9905  29.183   1.902   2.272
44745W        W 9906  34.120   4.473  12.436
44746W        W 9907  30.381  44.075  11.009
44747W        W 9908   8.319  21.133   1.267
44748W        W 9909   7.310  30.510   3.605
44749W        W 9910  27.108  33.556   4.277
44750W        W 9911   8.860  37.999  12.130
44751W        W 9912  37.535   9.310  12.040
44752W        W 9913  28.941   9.093  13.883
44753W        W 9914  11.807  12.452   5.075
44754W        W 9915  44.838  27.690  12.780
44755W        W 9916  42.882   9.826   3.124
44756W        W 9917  24.104   2.876  13.310
44757W        W 9918  25.001   1.410   4.598
44758W        W 9919   8.793  18.749   1.520
44759W        W 9920  15.485  15.965   2.249
44760W        W 9921   9.359   1.163   3.713
44761W        W 9922  16.457   5.172  13.046
44762W        W 9923  17.093  12.079   2.264
44763W        W 9924   5.031   7.843  11.108
44764W        W 9925  12.761  37.012   4.136
44765W        W 9926  11.835  14.160   1.908
44766W        W 9927  32.960  43.915   1.537
44767W        W 9928  41.371  12.647   0.525
44768W        W 9929  10.148  11.208   4.493
44769W        W 9930   2.448  31.182  12.115
44770W        W 9931  24.639  20.521  13.853
44771W        W 9932   4.688  32.109   3.689
44772W        W 9933  26.831  25.897   4.658
44773W        W 9934   3.425  36.836   2.209
44774W        W 9935  14.120  42.693   9.845
44775W        W 9936   2.156  39.481  12.443
44776W        W 9937  14.071   0.179   0.727
44777W        W 9938  37.851  23.402  12.526
44778W        W 9939  34.979  13.973   1.455
44779W        W 9940  39.465   1.154   1.849
44780W        W 9941  22.717  34.223   3.708
44781W        W 9942  13.921  28.014   3.736
44782W        W 9943  18.456   5.936   1.319
44783W        W 9944  27.465  17.907  14.883
44784W        W 9945   1.456  42.974   3.094
44785W        W 9946   6.644  16.292  13.283
44786W        W 9947  18.081  42.986   2.002
44787W        W 9948  31.888  21.945  11.408
44788W        W 9949   5.773  21.534  13.429
44789W        W 9950   5.411   6.568   0.267
44790W        W 9951  29.930  17.204   2.942
44791W        W 9952   5.943  18.955   0.337
44792W        W 9953  27.557  27.158  14.954
44793W        W 9954  40.395  37.124   3.695
44794W        W 9955  22.189  33.083   2.606
44795W        W 9956   5.806  13.129   0.822
44796W        W 9957  40.962   0.852  11.568
44797W        W 9958   7.751  25.440   2.934
44798W        W 9959  26.112  13.772  14.160
44799W        W 9960  31.574  14.931  13.453
44800W        W 9961  20.758  42.852   2.614
44801W        W 9962  18.579  35.512   4.343
44802W        W 9963  14.697  26.214  12.041
44803W        W 9964  19.645  19.546   4.304
44804W        W 9965   0.872  42.002   4.766
44805W        W 9966  33.140  32.512  10.442
44806W        W 9967   4.691  33.862  11.487
44807W        W 9968  32.317  43.535  13.032
44808W        W 9969   1.754  29.125  12.940
44809W        W 9970  43.869  28.352   3.762
44810W        W 9971   6.740  37.981   3.298
44811W        W 9972  27.535   5.140   0.740
44812W        W 9973  23.479  42.768   0.937
44813W        W 9974  39.384  28.643   0.165
44814W        W 9975  23.008  42.932   1.110
44815W        W 9976  43.561   0.998  13.873
44816W        W 9977  35.016  38.516  12.583
44817W        W 9978   5.005  15.602  14.395
44818W        W 9979   8.742  33.462  11.863
44819W        W 9980  20.826  39.563  13.522
44820W        W 9981   3.938  43.537   2.383
44821W        W 9982  24.515  43.783   3.626
44822W        W 9983  29.131  27.576   3.464
44823W        W 9984   7.257  13.328  11.725
44824W        W 9985  15.698  19.159   0.411
44825W        W 9986   5.523  18.966  13.296
44826W        W 9987  32.179  17.020   1.811
44827W        W 9988   7.870  34.841  10.912
44828W        W 9989  31.930  25.201   4.469
44829W        W 9990   8.716   3.769   1.669
44830W        W 9991   1.721   1.075   3.596
44831W        W 9992   5.666   4.442   0.647
44832W        W 9993  31.541  34.400  10.436
44833W        W 9994   2.410  34.386   1.465
44834W        W 9995  22.793  10.683  13.122
44835W        W 9996  24.032  16.720  13.845
44836W        W 9997   1.468  32.149  14.300
44837W        W 9998  12.633  31.936   0.273
44838W        W 9999  10.755  15.840  11.601
44839W        W10000  11.516  23.104   1.350
44840W        W10001  31.864  30.495   4.264
44841W        W10002  40.389   1.270  14.960
44842W        W10003  30.057   8.810   0.312
44843W        W10004  27.990  19.892   2.229
44844W        W10005  33.187  37.850   9.899
44845W        W10006  14.008   5.398  14.050
44846W        W10007  37.430  14.701  14.863
44847W        W10008  22.243  42.570   1.840
44848W        W10009  43.358  25.415   1.444
44849W        W10010  25.969  44.385   3.442
44850W        W10011  26.009  41.408   2.253
44851W        W10012  15.312   8.413   3.732
44852W        W10013  16.288  41.529   1.189
44853W        W10014   4.705   1.477   1.265
44854W        W10015  10.897  20.359   3.621
44855W        W10016  44.187   6.676   2.287
44856W        W10017   5.554  17.721  12.132
44857W        W10018  25.380  20.987  11.162
44858W        W10019  41.549   8.379   3.651
44859W        W10020  43.446   7.415   2.963
44860W        W10021   5.689  18.124  12.495
44861W        W10022  33.023  21.287   4.310
44862W        W10023  31.629  15.261   3.710
44863W        W10024   4.644  13.163  11.072
44864W        W10025   8.829   0.909   0.955
44865W        W10026   6.289   9.786   4.609
44866W        W10027  37.427  22.222  12.967
44867W        W10028  33.265  35.005  12.031
44868W        W10029  26.244  23.587  14.845
44869W        W10030  36.069  32.364  11.189
44870W        W10031  42.809   9.890   0.285
44871W        W10032  15.545  34.341  13.346
44872W        W10033  44.435  19.202   1.348
44873W        W10034   8.237   0.443   2.184
44874W        W10035  36.310  12.627  13.764
44875W        W10036  32.463   4.437   0.355
44876W        W10037   9.225  44.766   0.702
44877W        W10038   5.812  30.526  13.064
44878W        W10039  29.451  40.556   2.822
44879W        W10040  20.711  12.611   2.772
44880W        W10041  11.817  42.999   3.254
44881W        W10042  41.307  23.512   2.190
44882W        W10043  26.468  28.072   0.809
44883W        W10044  30.872  40.357  13.938
44884W        W10045   3.966  42.831  13.345
44885W        W10046  35.212   5.357  12.639
44886W        W10047   4.582  34.491   2.458
44887W        W10048   5.191  40.844  14.537
44888W        W10049   8.930  33.058   1.408
44889W        W10050  37.633  18.271  12.974
44890W        W10051  18.852  15.616   3.635
44891W        W10052  30.922  40.305   4.603
44892W        W10053   8.199  37.843   0.317
44893W        W10054   5.771  36.383   3.314
44894W        W10055   3.646  33.416   2.153
44895W        W10056  31.059   0.545  13.750
44896W        W10057  35.144   8.431  14.555
44897W        W10058  16.201   8.612  13.479
44898W        W10059  16.163  27.080   1.937
44899W        W10060  41.905  24.903   0.640
44900W        W10061  39.178  17.068   0.150
44901W        W10062  44.509  28.082   2.305
44902W        W10063  24.060   3.449   2.162
44903W        W10064  33.107  24.954  13.429
44904W        W10065  30.968  22.274   0.925
44905W        W10066   1.216  31.121   2.734
44906W        W10067  43.217  24.241  14.242
44907W        W10068  13.861   0.325   3.417
44908W        W10069   2.628  32.478  11.113
44909W        W10070  13.758  40.028   4.749
44910W        W10071   4.247  34.595   0.351
44911W        W10072  40.926   2.916  14.359
44912W        W10073   1.365  29.992   3.257
44913W        W10074  25.492   8.440   3.196
44914W        W10075  28.508  40.536   3.724
44915W        W10076  39.482   6.765  14.126
44916W        W10077  25.361   9.241   5.078
44917W        W10078   4.154  20.301  11.202
44918W        W10079  16.076  23.338   4.434
44919W        W10080  13.796  17.484  11.119
44920W        W10081  21.141   4.353  10.661
44921W        W10082  34.738  22.134   2.849
44922W        W10083  19.935  14.345   4.118
44923W        W10084  30.303   2.978   4.582
44924W        W10085  36.717  18.777  11.418
44925W        W10086  15.586   6.783   0.653
44926W        W10087  27.109  24.396  12.972
44927W        W10088  16.353  22.023   3.071
44928W        W10089   9.950  36.462  11.607
44929W        W10090  16.191  42.032   4.695
44930W        W10091  21.782  27.766   2.417
44931W        W10092  11.367  39.482   1.299
44932W        W10093  28.412  22.273  11.611
44933W        W10094  11.797  23.559   1.416
44934W        W10095  26.737  22.615   3.762
44935W        W10096  25.755  14.799  12.562
44936W        W10097  12.342  15.438  11.537
44937W        W10098  33.757   4.835   3.315
44938W        W10099  39.957  40.989   3.417
44939W        W10100  29.417   9.532   1.828
44940W        W10101  16.356  23.789   2.730
44941W        W10102   2.465  18.567  14.509
44942W        W10103   6.296  35.795   2.552
44943W        W10104  43.441  16.095   2.828
44944W        W10105  25.915  10.503  14.853
44945W        W10106  15.405  21.262  14.276
44946W        W10107  14.869  10.376   0.765
44947W        W10108  34.309  28.600   4.136
44948W        W10109   6.905  17.567  14.796
44949W        W10110  14.724  13.551   3.534
44950W        W10111  37.516  20.755  14.341
44951W        W10112  24.682  29.010  11.369
44952W        W10113  36.341  33.664  11.026
44953W        W10114  44.194  18.074   2.296
44954W        W10115  28.148  26.657  12.245
44955W        W10116  40.066  40.956   2.417
44956W        W10117  43.228  43.863   1.790
44957W        W10118  22.628  23.462   1.912
44958W        W10119  37.084  26.633  14.442
44959W        W10120  29.454   3.651  12.147
44960W        W10121  33.599  15.450  12.618
44961W        W10122  27.423  42.248   1.736
44962W        W10123   9.725  21.766   0.278
44963W        W10124  36.403  10.277  12.826
44964W        W10125  14.754  21.304   3.697
44965W        W10126  44.891  43.025  10.814
44966W        W10127  27.508  35.085  10.815
44967W        W10128  24.067   5.188   3.145
44968W        W10129  38.046   0.010   4.543
44969W        W10130  15.998   5.414  11.142
44970W        W10131  44.558  30.956  14.399
44971W        W10132  41.655  38.599   4.084
44972W        W10133  14.186  13.217   4.773
44973W        W10134  41.487  24.580  13.527
44974W        W10135  32.200  24.282  11.081
44975W        W10136  25.405  35.380  11.618
44976W        W10137  14.648  41.487  14.508
44977W        W10138   3.596  37.778  13.739
44978W        W10139  17.817   1.362   0.033
44979W        W10140  43.739  26.431  13.842
44980W        W10141   4.461  33.989  12.512
44981W        W10142  17.065  29.642   4.519
44982W        W10143   4.805  10.367  14.428
44983W        W10144  44.059  40.477  14.273
44984W        W10145  20.833  42.496  14.710
44985W        W10146  10.584  14.924  13.253
44986W        W10147  35.697   5.259   1.865
44987W        W10148  20.131  43.488   4.914
44988W        W10149   8.445  14.318  12.942
44989W        W10150  12.068  26.674   4.508
44990W        W10151  30.735  35.465  10.812
44991W        W10152  40.376  39.973  14.979
44992W        W10153  26.757  44.305   3.824
44993W        W10154  28.961   3.664  11.966
44994W        W10155  10.233  28.403  14.393
44995W        W10156  11.173  38.446   1.715
44996W        W10157  23.646  29.602   1.687
44997W        W10158  10.654   8.357  13.398
44998W        W10159  22.580  44.952  12.899
44999W        W10160  32.606  40.188   4.803
45000W        W10161  33.527  39.646  11.319
45001W        W10162  32.182   2.412   0.412
45002W        W10163  34.004  31.481  13.822
45003W        W10164  19.456  11.325   3.305
45004W        W10165   7.532  42.560  14.711
45005W        W10166  40.301  40.354   4.088
45006W        W10167  15.836  21.210  10.519
45007W        W10168  21.700   2.161  12.051
45008W        W10169  35.443  31.195   1.483
45009W        W10170   1.746  10.056  14.165
45010W        W10171  26.004  36.556   3.289
45011W        W10172  24.873  15.148  10.970
45012W        W10173  30.988  33.501   1.475
45013W        W10174  25.590  37.472   3.392
45014W        W10175  37.603  14.422  11.650
45015W        W10176  38.113  29.175   2.871
45016W        W10177  26.662   8.149  12.063
45017W        W10178  20.332  22.611  10.600
45018W        W10179  23.043   1.718  11.008
45019W        W10180  24.087  27.441   1.648
45020W        W10181  10.758  15.955  11.073
45021W        W10182  35.639  20.141  14.120
45022W        W10183  39.199  29.018  11.552
45023W        W10184  12.744  41.864  13.703
45024W        W10185   6.311   2.845   3.930
45025W        W10186  31.618   0.534   2.076
45026W        W10187   1.612   2.770   4.122
45027W        W10188  18.445  41.013   5.524
45028W        W10189  27.714  33.105   3.342
45029W        W10190  36.073  25.499  14.021
45030W        W10191  36.674  17.035  10.300
45031W        W10192  42.720  11.165   0.900
45032W        W10193   8.189   5.970  10.613
45033W        W10194  19.051  31.072  10.751
45034W        W10195  38.183  37.118   3.679
45035W        W10196  33.061  15.760   0.909
45036W        W10197  25.737  14.156  13.995
45037W        W10198  20.690  13.046   2.298
45038W        W10199  34.346  38.895  12.164
45039W        W10200  24.396   7.060   3.115
45040W        W10201   2.445  22.946  11.450
45041W        W10202  30.930  22.005   3.602
45042W        W10203  42.451   7.181  14.852
45043W        W10204  44.466   2.287   0.433
45044W        W10205  20.854  40.460   5.153
45045W        W10206   0.820   6.298   0.845
45046W        W10207   7.651  37.843   1.183
45047W        W10208   5.935  30.580  13.566
45048W        W10209  16.402  43.506  10.644
45049W        W10210  37.789  13.933  12.464
45050W        W10211   6.601  30.861   3.335
45051W        W10212  29.950  27.130  14.893
45052W        W10213  44.309  34.934   2.347
45053W        W10214  41.592   8.214  10.852
45054W        W10215   2.398  11.126   0.347
45055W        W10216  24.877  40.206   1.536
45056W        W10217   0.421   7.236   0.076
45057W        W10218  30.025  19.000   4.742
45058W        W10219  33.848  44.506   4.339
45059W        W10220   7.872  16.572   0.515
45060W        W10221  37.110  13.276   2.747
45061W        W10222  27.658  40.100  14.992
45062W        W10223  26.273  22.959  12.614
45063W        W10224  10.689  43.043   2.259
45064W        W10225  22.781   6.493   2.361
45065W        W10226  32.009  17.745   3.821
45066W        W10227   1.705  31.086   3.203
45067W        W10228  13.662  44.439   0.476
45068W        W10229  18.913  31.198   0.813
45069W        W10230  37.771  43.381   1.856
45070W        W10231  34.955   3.670   1.914
45071W        W10232   7.792  22.013   4.145
45072W        W10233  40.852  19.607  13.265
45073W        W10234   0.792  26.995   4.594
45074W        W10235   0.431  20.081  14.999
45075W        W10236   7.987  21.626  11.997
45076W        W10237   1.985  26.657   3.652
45077W        W10238  18.911  33.527   4.230
45078W        W10239  39.992  28.036  10.589
45079W        W10240  17.772  38.942   2.293
45080W        W10241   1.727  11.737  12.962
45081W        W10242  44.311  24.239  10.484
45082W        W10243  43.952   1.532  10.617
45083W        W10244  26.140  40.403   4.231
45084W        W10245   7.935  17.253   5.053
45085W        W10246  16.637   2.088  13.050
45086W        W10247   8.544  23.279   1.674
45087W        W10248  42.363  10.167   1.179
45088W        W10249  39.635  39.531   0.842
45089W        W10250  19.232  28.911  12.376
45090W        W10251  18.939  19.227  10.690
45091W        W10252  32.923  10.771   3.325
45092W        W10253  31.123  14.538  11.089
45093W        W10254  32.194  17.497   2.853
45094W        W10255  14.648  13.815  12.083
45095W        W10256   8.821   2.491   1.250
45096W        W10257   8.923  15.377   4.240
45097W        W10258  37.955   7.381   0.432
45098W        W10259  20.083   0.337   1.637
45099W        W10260   5.451  26.489   0.379
45100W        W10261  18.052  44.845   2.807
45101W        W10262  27.564  33.465   4.100
45102W        W10263  20.005  39.547   1.364
45103W        W10264  27.711  15.614  14.692
45104W        W10265  13.975  17.680  13.620
45105W        W10266  28.583  35.877  14.315
45106W        W10267  39.938  10.119   2.328
45107W        W10268  30.045  35.506  12.596
45108W        W10269  11.307  27.977   1.650
45109W        W10270  43.771  10.529   4.176
45110W        W10271  42.775  15.119  10.684
45111W        W10272   2.997   3.867   2.184
45112W        W10273  29.031   6.224   2.180
45113W        W10274   8.318  41.522   0.348
45114W        W10275   4.792  40.749  13.261
45115W        W10276   7.937  24.172   3.170
45116W        W10277  14.731  20.800  11.005
45117W        W10278  23.036  21.325  12.972
45118W        W10279  37.707   0.795   1.381
45119W        W10280  20.564  35.849  13.822
45120W        W10281  17.185  29.086  11.369
45121W        W10282   7.279  10.773   1.203
45122W        W10283  41.722  26.657  12.172
45123W        W10284  10.928  28.884   2.758
45124W        W10285  32.430  30.073  11.148
45125W        W10286  39.188  44.529  14.884
45126W        W10287   1.843  12.571  12.449
45127W        W10288  34.420  42.207   2.833
45128W        W10289  28.321   5.235   5.012
45129W        W10290  31.420  43.209   2.785
45130W        W10291   5.945  14.217  10.768
45131W        W10292  44.750  22.660   1.367
45132W        W10293   8.263  32.215   3.230
45133W        W10294   9.497  37.578  10.339
45134W        W10295  30.384   6.663   1.839
45135W        W10296  18.820   9.422   2.319
45136W        W10297  23.082  15.896  14.952
45137W        W10298  33.011  35.183  14.436
45138W        W10299   4.761  18.378  13.992
45139W        W10300  38.841  34.196  11.165
45140W        W10301  41.985  23.996  13.482
45141W        W10302  12.664  11.138  14.319
45142W        W10303  37.599  19.587   2.934
45143W        W10304  34.526   0.016   0.836
45144W        W10305  18.590  22.535  13.552
45145W        W10306  16.596   0.447   1.046
45146W        W10307  39.009  11.641   2.326
45147W        W10308   5.805  22.535  11.622
45148W        W10309  29.505  18.611  12.421
45149W        W10310  39.132  41.899   2.793
45150W        W10311  43.771  28.042   0.836
45151W        W10312   3.805  35.632   1.916
45152W        W10313   3.230  14.419  14.524
45153W        W10314  10.665  33.413  14.405
45154W        W10315  38.748  27.425   2.389
45155W        W10316  20.936  12.333   0.825
45156W        W10317  40.816  43.478   0.968
45157W        W10318  18.310  41.805  13.985
45158W        W10319  12.205   5.785   3.716
45159W        W10320  34.722  39.538  10.655
45160W        W10321  16.244   4.909   4.567
45161W        W10322  19.513  24.205  13.465
45162W        W10323   6.805  39.491   2.041
45163W        W10324  35.358  31.751  12.487
45164W        W10325  13.350   9.546  14.452
45165W        W10326  43.779  29.409  12.336
45166W        W10327  22.463  15.592  11.971
45167W        W10328  24.208  26.225  10.773
45168W        W10329   7.357  16.750  14.344
45169W        W10330  33.421  27.129   1.351
45170W        W10331  33.476   9.853  11.161
45171W        W10332  35.141  32.295   1.276
45172W        W10333  17.410   8.560   1.857
45173W        W10334  38.893  33.221   0.803
45174W        W10335  18.537  14.590   2.336
45175W        W10336  34.764   4.094  14.384
45176W        W10337  15.807  37.257  10.884
45177W        W10338  30.518  20.657  14.258
45178W        W10339  28.508  34.115  14.925
45179W        W10340  18.806  20.588  13.464
45180W        W10341  35.771  30.041   1.206
45181W        W10342   3.173  32.658  11.114
45182W        W10343  42.863  34.605  12.661
45183W        W10344   7.236  44.001  11.901
45184W        W10345   7.899  35.606  12.934
45185W        W10346  44.951  37.498   2.733
45186W        W10347  25.794  41.998   3.261
45187W        W10348  40.557  29.390  12.072
45188W        W10349  27.496  43.026   4.267
45189W        W10350  27.607  21.535  13.475
45190W        W10351   9.185  38.858   1.747
45191W        W10352  36.827   7.594   3.203
45192W        W10353   1.828  12.309   2.248
45193W        W10354  21.183   4.914  13.438
45194W        W10355  40.513  16.991  11.460
45195W        W10356   6.990  15.863  13.347
45196W        W10357  43.945  18.739   2.932
45197W        W10358  25.606  26.297  13.741
45198W        W10359  16.538  19.091   2.086
45199W        W10360  14.801  15.750   0.264
45200W        W10361   1.787   9.678   0.988
45201W        W10362  14.489  42.378   0.879
45202W        W10363  22.153  10.320  14.319
45203W        W10364  32.012  14.663   1.806
45204W        W10365  24.214  33.410  14.993
45205W        W10366   0.689   2.885   4.243
45206W        W10367   5.264  42.185  10.452
45207W        W10368  18.848   8.754   3.696
45208W        W10369  37.928  36.410   1.408
45209W        W10370  43.671  40.837   2.215
45210W        W10371  19.099  18.781  13.130
45211W        W10372   1.924  25.183  11.485
45212W        W10373  27.317  35.835  13.827
45213W        W10374  33.445  19.201   4.585
45214W        W10375   4.354  10.320  10.464
45215W        W10376  24.447  16.536  12.464
45216W        W10377  32.636  22.338   5.022
45217W        W10378  32.882  27.655  11.709
45218W        W10379  26.190  16.004   0.138
45219W        W10380  41.257  17.085   4.436
45220W        W10381  30.936  29.502   4.087
45221W        W10382   2.291  14.939   5.437
45222W        W10383  17.153  17.191   2.017
45223W        W10384   2.026  25.528  10.915
45224W        W10385   0.433  22.639  13.005
45225W        W10386  33.468   0.443  14.955
45226W        W10387  36.357   9.667   2.702
45227W        W10388   8.341  20.763   2.635
45228W        W10389  16.476   1.270  12.464
45229W        W10390  31.893  10.433   5.172
45230W        W10391   0.092  42.961   3.153
45231W        W10392  15.824   5.889  11.393
45232W        W10393  35.604  42.323  13.519
45233W        W10394  38.782  13.625  11.522
45234W        W10395   7.389  27.604   0.763
45235W        W10396  10.279  38.483   1.148
45236W        W10397  17.144  38.015   5.234
45237W        W10398  37.893  37.916  13.036
45238W        W10399   1.982  40.569   1.711
45239W        W10400  26.481   3.739  13.490
45240W        W10401  22.207   7.829   3.349
45241W        W10402  36.415  25.058  12.136
45242W        W10403  16.375  35.515  14.468
45243W        W10404  21.686   3.424   1.205
45244W        W10405  12.295  33.896   2.715
45245W        W10406   7.662  38.296   2.291
45246W        W10407  22.429   1.221   4.776
45247W        W10408  21.948  13.555  11.647
45248W        W10409  12.762  10.950  13.318
45249W        W10410  20.347  13.834   2.593
45250W        W10411  10.354  24.901  10.266
45251W        W10412  28.249  36.038   2.580
45252W        W10413  41.417   3.635  13.385
45253W        W10414   0.978  32.213  11.603
45254W        W10415  22.736  17.411   1.545
45255W        W10416  36.677  23.909  13.110
45256W        W10417   8.702  14.287  10.207
45257W        W10418  13.804  35.819   0.856
45258W        W10419  18.469  10.411  10.279
45259W        W10420  21.520  26.129   2.977
45260W        W10421  15.004  19.694   2.721
45261W        W10422  36.971   1.897   2.119
45262W        W10423   8.720  29.009   5.011
45263W        W10424   1.010  36.400   1.247
45264W        W10425   4.417  35.859   1.687
45265W        W10426  33.374  27.466  12.523
45266W        W10427  13.468   3.322   2.633
45267W        W10428  33.880  14.519   0.428
45268W        W10429  23.506  28.011  12.657
45269W        W10430  34.290  14.747   2.147
45270W        W10431  32.801   1.141  11.109
45271W        W10432   2.458  27.026   2.025
45272W        W10433  14.696   1.237  10.687
45273W        W10434  43.446  23.453  12.046
45274W        W10435  41.261   7.361  12.474
45275W        W10436  43.757  44.699   2.245
45276W        W10437  13.634  21.090   2.776
45277W        W10438  17.661  43.725  14.295
45278W        W10439  31.600  22.623   1.371
45279W        W10440  23.546  30.088  12.985
45280W        W10441  27.548  16.728  11.067
45281W        W10442   3.489  10.605   0.768
45282W        W10443  21.522  41.044   0.178
45283W        W10444  11.826  14.461   1.236
45284W        W10445  31.445  13.506   0.664
45285W        W10446  25.640  12.283   0.379
45286W        W10447   8.751  36.982   3.673
45287W        W10448  16.513  17.264   5.407
45288W        W10449  33.884  23.583  10.134
45289W        W10450  23.153  25.420   1.520
45290W        W10451  23.772   9.073   4.026
45291W        W10452  11.637  14.667  11.478
45292W        W10453  35.482  14.934  12.803
45293W        W10454  30.446  41.123  13.944
45294W        W10455  43.549  33.936   2.358
45295W        W10456  22.736  34.651  11.943
45296W        W10457  16.405  11.757   4.668
45297W        W10458  37.658   2.172  14.838
45298W        W10459   2.967   0.894   0.979
45299W        W10460  20.458  10.105   4.502
45300W        W10461   6.425  10.340  12.027
45301W        W10462  11.409  44.843   2.224
45302W        W10463  43.948  27.005   4.159
45303W        W10464   8.378  30.068   3.049
45304W        W10465   7.180  18.083   1.832
45305W        W10466  38.309  32.074  13.196
45306W        W10467  12.775  18.573   0.043
45307W        W10468  15.332  13.321   0.411
45308W        W10469  13.036  21.030  11.417
45309W        W10470   5.216  37.879   3.202
45310W        W10471  16.689  24.055   3.381
45311W        W10472   4.306  26.955  12.041
45312W        W10473   4.916  24.945   3.482
45313W        W10474   0.020  37.335  12.943
45314W        W10475  28.148  20.498  14.900
45315W        W10476   5.730   4.910  14.422
45316W        W10477  38.041  11.105  12.614
45317W        W10478  43.296   3.322  14.614
45318W        W10479  12.866  29.674   3.989
45319W        W10480  38.012  38.215   4.559
45320W        W10481  11.006  33.680   3.755
45321W        W10482  15.369   9.792  14.493
45322W        W10483  20.609  14.505  12.091
45323W        W10484  38.956  42.885   0.826
45324W        W10485   5.134   4.357   1.722
45325W        W10486  18.378   8.189  13.468
45326W        W10487  24.153  13.253  13.358
45327W        W10488  35.997  44.058  11.614
45328W        W10489  41.751  23.359  12.832
45329W        W10490  26.590  18.788  13.090
45330W        W10491   1.325   9.414  11.103
45331W        W10492  43.241  41.920   0.877
45332W        W10493  20.331  28.502   3.298
45333W        W10494   7.378   4.701  13.965
45334W        W10495   8.184  41.831  12.509
45335W        W10496   4.462  30.794  11.153
45336W        W10497   6.499  39.235   2.881
45337W        W10498  20.940  22.123  11.975
45338W        W10499  24.755  16.602   4.550
45339W        W10500  43.840  28.228   2.840
45340W        W10501  40.996  27.471   1.785
45341W        W10502   3.836  33.550  13.431
45342W        W10503  41.644  37.544   4.453
45343W        W10504  17.502  24.219   1.743
45344W        W10505  44.763  11.825  13.339
45345W        W10506  38.125  43.290   0.387
45346W        W10507  33.692  32.837  11.562
45347W        W10508  23.599  37.967  14.903
45348W        W10509   3.849  39.831  13.899
45349W        W10510  42.806  15.879  11.392
45350W        W10511   9.317  26.995  11.993
45351W        W10512  31.009  23.241   2.838
45352W        W10513  22.997  29.936   1.863
45353W        W10514  21.634  23.929   3.700
45354W        W10515  19.190   9.698  12.199
45355W        W10516  28.021   9.228   0.004
45356W        W10517   8.589  22.072   3.041
45357W        W10518  19.224   3.135   2.340
45358W        W10519   9.215  21.064   2.526
45359W        W10520  27.566  41.272  12.908
45360W        W10521  24.066   3.535  10.653
45361W        W10522  43.451  37.306  11.941
45362W        W10523  21.818  40.455   3.190
45363W        W10524  33.444  36.398  14.677
45364W        W10525   2.779  36.926  14.440
45365W        W10526  43.803  11.956   1.037
45366W        W10527   6.719   9.850   0.457
45367W        W10528  28.406  31.463   2.339
45368W        W10529  12.071  37.685  14.239
45369W        W10530  33.927  22.226   3.223
45370W        W10531  37.995  31.572   1.966
45371W        W10532  25.760  23.926   0.524
45372W        W10533  18.783  23.520  10.349
45373W        W10534  27.689  16.643  11.580
45374W        W10535  29.483  44.170   5.178
45375W        W10536  26.065  29.728   2.369
45376W        W10537  41.452  34.638   3.090
45377W        W10538  36.986  38.957   4.949
45378W        W10539  15.111  18.245   2.164
45379W        W10540  15.095  39.799   0.872
45380W        W10541  12.167  39.538  13.386
45381W        W10542   1.744   3.250  13.025
45382W        W10543  20.803  30.942   3.318
45383W        W10544  21.003  39.703   9.358
45384W        W10545  19.025  24.562  14.887
45385W        W10546   2.215  20.164  11.436
45386W        W10547  25.597  24.495  14.236
45387W        W10548  13.191   3.184  11.458
45388W        W10549  23.340   9.250  11.062
45389W        W10550   4.331   2.728  12.528
45390W        W10551  42.993  36.348  14.945
45391W        W10552  35.888  39.596   2.269
45392W        W10553   4.409  36.895   0.657
45393W        W10554   8.937  10.202   3.762
45394W        W10555  24.224  27.384  13.765
45395W        W10556  21.233  16.378  14.019
45396W        W10557  27.335  23.840  13.476
45397W        W10558   9.691  28.100   4.773
45398W        W10559   5.202  29.359  11.092
45399W        W10560  38.953  11.953   1.908
45400W        W10561  10.063   2.275   0.989
45401W        W10562  22.195  41.448  13.823
45402W        W10563  39.319  13.654  13.729
45403W        W10564  37.863  22.258  10.578
45404W        W10565  41.049  43.447   1.967
45405W        W10566  42.983  25.211   4.682
45406W        W10567   4.388  31.828   1.349
45407W        W10568  40.127  23.237  12.073
45408W        W10569  22.374  28.597   9.946
45409W        W10570   0.801   0.731   1.923
45410W        W10571  24.048   8.413   0.681
45411W        W10572   3.669  29.816   9.981
45412W        W10573  27.107   6.977   1.402
45413W        W10574  29.958  21.459  11.148
45414W        W10575  41.030  10.197   0.136
45415W        W10576  20.995  40.116  13.794
45416W        W10577  20.103  11.413  12.567
45417W        W10578  23.617  19.996   4.761
45418W        W10579  32.202  29.160   1.234
45419W        W10580  15.197  19.157   2.275
45420W        W10581  29.176  24.756  10.674
45421W        W10582  35.239   9.672   1.282
45422W        W10583  15.133  40.557   2.187
45423W        W10584  35.386  24.517  12.363
45424W        W10585   5.454  42.930  13.413
45425W        W10586  18.984   3.339   5.047
45426W        W10587  33.861  24.962  11.118
45427W        W10588  15.871  32.635  10.968
45428W        W10589  31.865  36.567  12.924
45429W        W10590  30.268  37.572   4.978
45430W        W10591  36.879  13.757   4.095
45431W        W10592   7.760   6.615   1.330
45432W        W10593  34.492  44.225   4.108
45433W        W10594  16.786   2.833   1.331
45434W        W10595  11.194  38.643  14.758
45435W        W10596  26.467  25.570  14.253
45436W        W10597   1.725  14.169   0.969
45437W        W10598  43.831  44.744   0.253
45438W        W10599  41.402  42.040  11.321
45439W        W10600  41.023  23.622  14.627
45440W        W10601   2.647  22.883   1.339
45441W        W10602  14.202  43.917   3.128
45442W        W10603  39.057  22.261   3.257
45443W        W10604  23.915   9.565   0.810
45444W        W10605  40.786   6.424   1.828
45445W        W10606  25.043  29.077   4.388
45446W        W10607   5.347  14.151  10.902
45447W        W10608  38.940   3.064   4.801
45448W        W10609  44.911   3.123  11.892
45449W        W10610  22.738  22.143  14.866
45450W        W10611  22.061  13.312   3.215
45451W        W10612  18.187  13.095  13.049
45452W        W10613  39.819   7.238  12.616
45453W        W10614  12.015   9.619  12.120
45454W        W10615  22.529  22.720   3.757
45455W        W10616   3.048   3.863  14.703
45456W        W10617  31.646  26.685  14.859
45457W        W10618  21.240   5.441  14.502
45458W        W10619  11.100  19.334   0.399
45459W        W10620  32.402   1.466  10.975
45460W        W10621  20.284  41.863   3.382
45461W        W10622  27.508  37.807   0.003
45462W        W10623  24.430  26.438  13.505
45463W        W10624  29.467   6.107   4.477
45464W        W10625  19.695  36.326  14.518
45465W        W10626  33.881  29.073  14.750
45466W        W10627  37.363   8.476  12.273
45467W        W10628  37.566   7.366  11.651
45468W        W10629  16.850   6.985  12.073
45469W        W10630  35.697  33.170   0.791
45470W        W10631  19.714   2.930   0.344
45471W        W10632   9.183  20.094   1.627
45472W        W10633  44.531  20.999  14.423
45473W        W10634  17.282   4.425  12.392
45474W        W10635  16.753  27.239  13.909
45475W        W10636   1.906  27.583  10.404
45476W        W10637  29.392   8.775   4.103
45477W        W10638  44.743   3.377   1.387
45478W        W10639  38.118  20.602   0.521
45479W        W10640   6.849  18.317  11.981
45480W        W10641   4.263   0.016  13.408
45481W        W10642  28.636  26.636   2.911
45482W        W10643   0.286  22.650  11.563
45483W        W10644  10.399  39.096   1.889
45484W        W10645  40.406  18.085   2.262
45485W        W10646   8.887  12.372  13.528
45486W        W10647  36.942  38.575   0.676
45487W        W10648  13.619  40.217   4.275
45488W        W10649  42.885   7.988   1.441
45489W        W10650   0.765  39.646  11.592
45490W        W10651  27.244  23.094   3.247
45491W        W10652   8.869   5.633   0.818
45492W        W10653   7.288  38.395   1.488
45493W        W10654  18.674  34.280   0.302
45494W        W10655   3.613   3.242  12.654
45495W        W10656  32.007  29.998  11.422
45496W        W10657  24.663  16.588   1.760
45497W        W10658  38.064  32.910  13.057
45498W        W10659  23.218  11.176   0.699
45499W        W10660  44.586  16.699  11.631
45500W        W10661   4.800   3.637  12.848
45501W        W10662  19.219   7.628  13.443
45502W        W10663  17.286  35.916  14.794
45503W        W10664   3.473  40.658   0.397
45504W        W10665  10.739  43.519  10.401
45505W        W10666   0.673  11.112   3.014
45506W        W10667  27.198  32.055  13.756
45507W        W10668  23.193  37.744   4.662
45508W        W10669  17.351  26.589   0.357
45509W        W10670  35.856  27.164   0.808
45510W        W10671  25.894  43.389  12.581
45511W        W10672   0.305  21.385   4.529
45512W        W10673   7.476  20.631  11.039
45513W        W10674  14.938  24.740  12.071
45514W        W10675  21.318  16.587   0.299
45515W        W10676  24.577   0.016   3.660
45516W        W10677  22.549   2.880  14.365
45517W        W10678  23.059  32.165  10.781
45518W        W10679  12.356  42.347   0.936
45519W        W10680  22.953  36.552  14.961
45520W        W10681  13.550  36.924  12.838
45521W        W10682  37.746  35.421   1.361
45522W        W10683  24.130  10.271   1.321
45523W        W10684  39.021  32.714   4.423
45524W        W10685  40.218  26.418   2.909
45525W        W10686  15.143  33.366   1.717
45526W        W10687  43.853  11.083  10.597
45527W        W10688  42.045  33.484  13.323
45528W        W10689   4.780  44.782   1.667
45529W        W10690  20.774  33.892   1.625
45530W        W10691  24.371   8.171  12.491
45531W        W10692  40.310   8.355  12.885
45532W        W10693  16.066  35.778   2.316
45533W        W10694   0.792   1.405   1.659
45534W        W10695  44.382  44.088   2.376
45535W        W10696  28.733  41.763   1.943
45536W        W10697  14.636  24.941  11.023
45537W        W10698  18.328  32.023  11.586
45538W        W10699  34.639   3.272  12.385
45539W        W10700   7.749  22.971   1.350
45540W        W10701   7.849   0.970  14.728
45541W        W10702  12.113  15.916  11.604
45542W        W10703  17.155   9.793   4.430
45543W        W10704  42.258  10.636  14.097
45544W        W10705  42.707  14.561   5.052
45545W        W10706  12.805  40.925  14.415
45546W        W10707  26.421   0.536   2.594
45547W        W10708  10.178   2.837   1.734
45548W        W10709  36.433  40.464  10.935
45549W        W10710   5.913   2.134  14.198
45550W        W10711  22.590  39.879  13.444
45551W        W10712  36.510   5.794  12.540
45552W        W10713  20.157  42.203   4.994
45553W        W10714  10.618  42.527  12.051
45554W        W10715  25.758  12.387  11.824
45555W        W10716  17.754   7.794  13.499
45556W        W10717  20.633   7.286  13.739
45557W        W10718   5.950   6.150  10.859
45558W        W10719  16.874  20.617   3.261
45559W        W10720  34.595  14.712  11.011
45560W        W10721  43.467  27.716   1.730
45561W        W10722  34.300  13.016  14.802
45562W        W10723  14.246  29.220  13.561
45563W        W10724   2.038  10.345  11.109
45564W        W10725  38.372  34.566   4.280
45565W        W10726  41.497  37.751  10.764
45566W        W10727  19.260  41.097  11.218
45567W        W10728  39.749  41.371  12.164
45568W        W10729   0.149   6.749   1.443
45569W        W10730  39.756  13.802   2.004
45570W        W10731  13.994  35.940  14.951
45571W        W10732  13.664   6.402   0.349
45572W        W10733  37.602  32.461   1.694
45573W        W10734  17.488   6.865  10.698
45574W        W10735  18.819  23.798   2.804
45575W        W10736   9.141   1.781   1.810
45576W        W10737  44.546  33.637   0.040
45577W        W10738  27.643  11.618  14.959
45578W        W10739  11.240  23.128   2.747
45579W        W10740  15.339  10.897   1.399
45580W        W10741  19.092  36.445  12.107
45581W        W10742  42.766  43.315   1.230
45582W        W10743   4.209  12.350   2.390
45583W        W10744  37.080  30.661   1.705
45584W        W10745  40.971  12.916   3.571
45585W        W10746   8.286  27.169  14.548
45586W        W10747  33.473  28.975   0.745
45587W        W10748  27.071   7.480  14.776
45588W        W10749  30.668  17.558   0.389
45589W        W10750  16.700  26.035   1.986
45590W        W10751  11.805  43.339  14.652
45591W        W10752  26.244  12.564  13.858
45592W        W10753  32.903  10.278  12.968
45593W        W10754   4.464  27.416  12.695
45594W        W10755  35.839  41.949   3.139
45595W        W10756  36.557  12.759  14.714
45596W        W10757  33.062  30.992   3.385
45597W        W10758  12.375   3.890  11.268
45598W        W10759   9.351   0.795   3.346
45599W        W10760  28.006   6.973   3.864
45600W        W10761  12.571  38.825  13.856
45601W        W10762  25.097  35.448   2.676
45602W        W10763  11.763  12.064  13.410
45603W        W10764   9.817  37.929  13.646
45604W        W10765   2.514  32.971  12.961
45605W        W10766  33.956  31.900  11.528
45606W        W10767  11.696  24.678  13.608
45607W        W10768  44.373  12.183  12.189
45608W        W10769   3.364  23.961  11.924
45609W        W10770  27.236  29.119   1.746
45610W        W10771  13.031  43.263   4.596
45611W        W10772  14.028   6.706   0.665
45612W        W10773  27.921  26.638  13.331
45613W        W10774  28.364  24.727   4.101
45614W        W10775  39.350  32.935   1.797
45615W        W10776  40.307  28.585  10.895
45616W        W10777  30.047  22.714   3.162
45617W        W10778  34.697  38.551   0.390
45618W        W10779  22.693  39.349  13.408
45619W        W10780  15.826  32.018  13.007
45620W        W10781  36.000  36.871  11.957
45621W        W10782  33.963   7.148   2.238
45622W        W10783  21.810   6.640  11.943
45623W        W10784  29.065  34.429   3.621
45624W        W10785   5.312  31.799   4.757
45625W        W10786  16.902  11.631   4.590
45626W        W10787  33.792   9.866  10.681
45627W        W10788   0.809  23.739   1.417
45628W        W10789  41.521   2.324   3.094
45629W        W10790  26.650  21.521   0.099
45630W        W10791   9.225  39.531  14.413
45631W        W10792  12.613   6.424  11.806
45632W        W10793  12.243  43.438  10.709
45633W        W10794  39.482   1.001  10.662
45634W        W10795  17.121  41.458  13.321
45635W        W10796  24.649  28.406   2.250
45636W        W10797  14.791  31.820   2.016
45637W        W10798  10.603  34.550  13.049
45638W        W10799   1.471   7.294  14.059
45639W        W10800  43.301  42.068  11.839
45640W        W10801   8.254   0.286   1.148
45641W        W10802  21.962  38.200   9.981
45642W        W10803  24.585  24.076  13.392
45643W        W10804  24.654  36.840  11.041
45644W        W10805   9.419  17.525   3.640
45645W        W10806   7.610   4.207   3.795
45646W        W10807  40.955   3.771  13.872
45647W        W10808  17.840  41.253   3.225
45648W        W10809  16.733  13.654  12.844
45649W        W10810  31.625  35.581  14.886
45650W        W10811  14.740   7.171   3.544
45651W        W10812  34.580  41.650   4.070
45652W        W10813  17.032  32.847  10.831
45653W        W10814  37.907   3.484   4.152
45654W        W10815   9.290  23.018  14.004
45655W        W10816  22.967  43.850   1.639
45656W        W10817  31.090   7.761  14.371
45657W        W10818  20.924   9.833  14.377
45658W        W10819  31.685  20.226   2.511
45659W        W10820   1.285   5.712   0.314
45660W        W10821   1.286  35.875  11.164
45661W        W10822  31.515  26.933   0.320
45662W        W10823  44.912  43.834  12.997
45663W        W10824  34.176  32.155  11.935
45664W        W10825  27.366  29.597   1.474
45665W        W10826  38.701  43.862   1.092
45666W        W10827  30.932  18.237  10.684
45667W        W10828  24.067  11.188  12.654
45668W        W10829  28.605  40.852  14.824
45669W        W10830  34.121  26.126  11.572
45670W        W10831   6.698  24.585   4.835
45671W        W10832  25.764  34.400  10.572
45672W        W10833  42.232   9.775  13.946
45673W        W10834  11.908  38.777  12.457
45674W        W10835  11.041  27.025   1.964
45675W        W10836  24.185   8.550   5.020
45676W        W10837  20.036  31.670  14.519
45677W        W10838  39.838  17.542   1.676
45678W        W10839  32.145   3.860   2.340
45679W        W10840  37.991  37.851  11.070
45680W        W10841  14.158  42.747  11.618
45681W        W10842  13.140   1.886  13.990
45682W        W10843   5.293  37.882   2.614
45683W        W10844  19.954   9.967  14.145
45684W        W10845  40.583  39.263   0.264
45685W        W10846   3.369  23.858  13.453
45686W        W10847  26.126   4.901  13.652
45687W        W10848  40.508  28.266   3.191
45688W        W10849  21.146  24.707  10.985
45689W        W10850   3.704   0.384  13.341
45690W        W10851   4.775  38.833  11.166
45691W        W10852  30.709   5.945   2.198
45692W        W10853  25.996  30.052   4.103
45693W        W10854   1.722   8.644  12.208
45694W        W10855  27.556  29.611  11.997
45695W        W10856   0.273  12.197   5.042
45696W        W10857  14.161  20.029  12.485
45697W        W10858  23.602  24.163   3.226
45698W        W10859  33.506  12.903   2.302
45699W        W10860  37.372  16.297  12.852
45700W        W10861  20.988  23.674   4.887
45701W        W10862  32.081  12.296  12.923
45702W        W10863  12.747  24.433   1.701
45703W        W10864   7.806  32.215  12.590
45704W        W10865  26.060  43.470  13.979
45705W        W10866  36.619   5.495  14.399
45706W        W10867  11.318  41.636   4.495
45707W        W10868  38.538   1.746  14.802
45708W        W10869  11.808  21.003   3.184
45709W        W10870  40.473   8.527   0.979
45710W        W10871  29.929  26.109  12.344
45711W        W10872  17.943   7.834  10.751
45712W        W10873  17.862  38.769   4.198
45713W        W10874  35.331  37.975   1.866
45714W        W10875  12.579   7.581   4.026
45715W        W10876  14.267   6.832   1.370
45716W        W10877   5.277  44.484  13.851
45717W        W10878  43.496  27.612   0.828
45718W        W10879   5.403  14.858   9.794
45719W        W10880  31.056  23.198  13.308
45720W        W10881  34.173  38.014   3.794
45721W        W10882   1.792  24.823   3.360
45722W        W10883  31.225   1.728  11.535
45723W        W10884   6.305  13.756  13.556
45724W        W10885  26.717  20.583   3.774
45725W        W10886   1.387  28.466   2.948
45726W        W10887   5.193  24.068   0.535
45727W        W10888  27.665  29.127   3.598
45728W        W10889  34.511  37.973   1.365
45729W        W10890   5.419   9.242  13.495
45730W        W10891   9.371   5.474   1.744
45731W        W10892   5.714   3.531   0.942
45732W        W10893   8.394  36.861  14.080
45733W        W10894  36.850  14.064  14.278
45734W        W10895  39.197   4.637   5.101
45735W        W10896  38.482   7.328  12.085
45736W        W10897  31.560   2.971  14.434
45737W        W10898  22.484  15.575   4.094
45738W        W10899  29.621  16.107  11.669
45739W        W10900  41.989  16.970  12.927
45740W        W10901  15.648  35.217   3.688
45741W        W10902  41.891  35.556   4.622
45742W        W10903  30.386   5.401   4.742
45743W        W10904  18.508  12.208   0.801
45744W        W10905  12.473  21.573  11.515
45745W        W10906  14.882   1.999  14.542
45746W        W10907  11.359  35.581   0.553
45747W        W10908   2.953   1.745  13.812
45748W        W10909   5.231  16.007   0.675
45749W        W10910   8.162  22.206  14.920
45750W        W10911  18.770  21.580   4.525
45751W        W10912  21.484  21.200   3.328
45752W        W10913  10.382   1.955  12.670
45753W        W10914  17.988  35.590   2.817
45754W        W10915  43.302  31.570   2.242
45755W        W10916  10.551  33.845   3.499
45756W        W10917  32.282  13.869  13.507
45757W        W10918  16.254  28.410   0.269
45758W        W10919  36.881  38.531  12.789
45759W        W10920  11.603  39.731  14.064
45760W        W10921  37.059  26.200  11.515
45761W        W10922  17.470   1.456  14.311
45762W        W10923  40.452  14.394   0.425
45763W        W10924  40.400  24.066   1.295
45764W        W10925   8.874  24.204   2.110
45765W        W10926  42.227   1.235   0.879
45766W        W10927  29.242  20.553  11.582
45767W        W10928  37.739  28.475   4.484
45768W        W10929  14.589  34.078  14.967
45769W        W10930  10.399  42.405  12.989
45770W        W10931  35.079  10.398   0.797
45771W        W10932   1.538   3.404   0.726
45772W        W10933  36.126  12.876   1.951
45773W        W10934  42.085   0.173  10.211
45774W        W10935  21.679  42.536   3.728
45775W        W10936  42.770  18.465  10.446
45776W        W10937  31.178   1.113  12.613
45777W        W10938  12.679  12.996  13.475
45778W        W10939  37.390  38.443   3.424
45779W        W10940  34.605  37.347  13.953
45780W        W10941  26.665  21.551  13.880
45781W        W10942  36.603   3.476   0.847
45782W        W10943  43.010  42.186  14.828
45783W        W10944  12.559   8.583   1.742
45784W        W10945   8.685  18.644   4.411
45785W        W10946  23.654  19.644  11.734
45786W        W10947  22.899  42.927  10.167
45787W        W10948  35.696  25.980   4.703
45788W        W10949  43.364  31.949   3.411
45789W        W10950   4.150  13.972  10.278
45790W        W10951  12.769  32.924  10.648
45791W        W10952  15.684  19.115   4.875
45792W        W10953  37.598   6.948  12.640
45793W        W10954  41.933   0.951   4.133
45794W        W10955  10.641  11.004   4.573
45795W        W10956  18.220  40.961   0.733
45796W        W10957  31.228  23.649   9.819
45797W        W10958  39.433  10.353  11.029
45798W        W10959  39.041  44.128  10.652
45799W        W10960  17.684  43.758   2.246
45800W        W10961  21.218  12.649  12.087
45801W        W10962   3.058  23.155  13.924
45802W        W10963  11.358  23.647   2.668
45803W        W10964   7.312  41.874   1.343
45804W        W10965  11.337  39.127  13.421
45805W        W10966  16.462  17.677  12.841
45806W        W10967  20.661   8.519  12.825
45807W        W10968   0.048   0.452   3.268
45808W        W10969   8.554  30.432   4.206
45809W        W10970  16.630  26.764  14.911
45810W        W10971  10.336  23.459   4.238
45811W        W10972  35.269  27.450   0.314
45812W        W10973  11.168  41.009  11.946
45813W        W10974   9.663  20.213   3.458
45814W        W10975  35.615  34.976   4.032
45815W        W10976  29.059   8.416   1.356
45816W        W10977  15.358  17.158   1.762
45817W        W10978   0.423  35.118  12.319
45818W        W10979  32.573  42.162  11.348
45819W        W10980  13.912  10.725  12.962
45820W        W10981  43.473  43.544  12.865
45821W        W10982   8.796  10.930   1.237
45822W        W10983  27.463  28.601  13.378
45823W        W10984  20.221  26.563   2.834
45824W        W10985  12.835  24.771   1.297
45825W        W10986   2.160  33.510   4.148
45826W        W10987  39.036   7.026   9.751
45827W        W10988  24.335   1.692  10.694
45828W        W10989   8.781  24.740   1.510
45829W        W10990  36.993  28.593  14.379
45830W        W10991  10.098  44.358   2.216
45831W        W10992   2.684   6.966   2.174
45832W        W10993  27.648  35.344  12.067
45833W        W10994  43.850  36.114   1.848
45834W        W10995  35.487  32.136  14.437
45835W        W10996  13.087   1.990   3.752
45836W        W10997   7.481  35.500   3.728
45837W        W10998  21.909   6.929   4.214
45838W        W10999  23.550  24.534   2.195
45839W        W11000  14.841   8.288  11.162
45840W        W11001  44.117  26.209   0.970
45841W        W11002  17.588   2.974  11.038
45842W        W11003  13.871  10.273   4.452
45843W        W11004  31.910  35.617   4.612
45844W        W11005  16.258   6.413   1.793
45845W        W11006  42.868  13.795   3.675
45846W        W11007  10.391  23.814  14.524
45847W        W11008  44.031  33.053   3.728
45848W        W11009  36.764  36.853  12.022
45849W        W11010  24.307  22.145   1.751
45850W        W11011   0.359  27.021   1.549
45851W        W11012  27.916   1.375  11.544
45852W        W11013  24.661   7.578   4.312
45853W        W11014  21.399  15.006   4.383
45854W        W11015  24.340  20.607  12.701
45855W        W11016  12.394  11.650  12.573
45856W        W11017  37.349  18.238  11.493
45857W        W11018  12.785   9.287   2.235
45858W        W11019  13.979  30.633  12.001
45859W        W11020  32.678   2.288   1.925
45860W        W11021  16.050  41.629  11.971
45861W        W11022  32.240   9.927   1.731
45862W        W11023   0.545   9.882  12.429
45863W        W11024  18.201   6.765  13.026
45864W        W11025   3.042  18.811  12.415
45865W        W11026  22.713  32.109  12.726
45866W        W11027   0.909  40.122   2.491
45867W        W11028   1.196  26.528   4.113
45868W        W11029   3.421  44.022  14.551
45869W        W11030   3.511   0.268   3.277
45870W        W11031  36.817   5.257   4.229
45871W        W11032  38.897  18.382   1.396
45872W        W11033  16.039  18.775  11.896
45873W        W11034  22.651  37.938  12.118
45874W        W11035  18.984  16.838  13.023
45875W        W11036  31.550  20.746   0.375
45876W        W11037  24.690  37.016  14.511
45877W        W11038  19.669   1.236   2.687
45878W        W11039  12.895  42.494  10.219
45879W        W11040  12.552  10.272   2.246
45880W        W11041  22.555  11.250  14.308
45881W        W11042  27.490   5.748   1.905
45882W        W11043  14.248  16.569   0.296
45883W        W11044  15.854  24.656  11.710
45884W        W11045  26.938  20.699   3.340
45885W        W11046  25.929  13.280  11.233
45886W        W11047  37.680  36.057   5.012
45887W        W11048  42.301  16.284   4.305
45888W        W11049  31.163  43.918  12.560
45889W        W11050   8.439  43.993  10.766
45890W        W11051  34.080  26.724   0.840
45891W        W11052  14.953  21.339   2.360
45892W        W11053  39.041   0.072   1.290
45893W        W11054  16.153  35.376  13.993
45894W        W11055  28.471  16.210   4.517
45895W        W11056  22.943  29.651   0.628
45896W        W11057   4.499   3.349   3.230
45897W        W11058   1.252  18.138  14.409
45898W        W11059  15.743  19.579  12.600
45899W        W11060  23.035  14.623  10.570
45900W        W11061  12.550  29.118   0.834
45901W        W11062  23.991  17.656  13.437
45902W        W11063   1.739   1.873   0.642
45903W        W11064  30.037  23.553  13.851
45904W        W11065  22.554  26.588   1.286
45905W        W11066   8.318  13.913  10.740
45906W        W11067  35.373   4.405  13.433
45907W        W11068  16.967  14.219  10.664
45908W        W11069  40.937  15.138   1.747
45909W        W11070  40.342  22.135  14.796
45910W        W11071  40.838   8.739   4.001
45911W        W11072  20.579  17.409  10.223
45912W        W11073  26.825  37.249   4.523
45913W        W11074  32.086  30.111  14.149
45914W        W11075  19.819  41.505   1.349
45915W        W11076  11.583   2.332  10.933
45916W        W11077  42.789   0.776   2.837
45917W        W11078  28.543  12.433  12.608
45918W        W11079  12.116   1.827  13.557
45919W        W11080  40.356  10.129  14.502
45920W        W11081  16.906  43.103   4.029
45921W        W11082  12.697  39.817   0.414
45922W        W11083  19.847   3.379   3.617
45923W        W11084  37.055  37.841   3.480
45924W        W11085  14.209  24.911  11.684
45925W        W11086  43.053   9.268  12.929
45926W        W11087  43.550  34.431  14.288
45927W        W11088  32.099  32.360  13.427
45928W        W11089   2.958   5.411  10.612
45929W        W11090  40.182  37.302  12.775
45930W        W11091  33.695  41.976   3.283
45931W        W11092  29.152  13.196  12.612
45932W        W11093  34.891   2.802   0.786
45933W        W11094  30.550  30.951   1.609
45934W        W11095  38.539  18.908   4.073
45935W        W11096  21.083   2.891  14.409
45936W        W11097   1.551  37.592  10.880
45937W        W11098  17.631  13.241   2.789
45938W        W11099  21.714  31.555   1.827
45939W        W11100  35.542  43.363   2.284
45940W        W11101  41.776   7.287  13.876
45941W        W11102  25.770   5.598  11.987
45942W        W11103  27.327  24.674  10.067
45943W        W11104  29.075   0.473   2.249
45944W        W11105  44.483  14.083   0.894
45945W        W11106  26.592   1.241   0.216
45946W        W11107  11.204   7.432  14.258
45947W        W11108  19.931  42.362  14.377
45948W        W11109  11.923  12.348   1.483
45949W        W11110  30.229  20.061   4.229
45950W        W11111   3.240  43.265  13.288
45951W        W11112  17.258   6.931  11.485
45952W        W11113  32.882  16.973  10.990
45953W        W11114   6.282   7.252  12.979
45954W        W11115   1.763  29.950   3.592
45955W        W11116  14.692  30.702   3.968
45956W        W11117  11.335  13.800  14.068
45957W        W11118  38.981  14.573   3.870
45958W        W11119  27.002  27.136  10.996
45959W        W11120  31.292  10.469  13.495
45960W        W11121  26.035   6.011   9.965
45961W        W11122  30.164  30.516   1.356
45962W        W11123   5.111   1.398  10.652
45963W        W11124  27.305  16.322   3.793
45964W        W11125  44.458   5.725  10.272
45965W        W11126  24.010  29.253  13.358
45966W        W11127  32.568  20.215   3.091
45967W        W11128   8.613  41.746  11.185
45968W        W11129  20.147  30.660  12.054
45969W        W11130   7.371  21.248   4.536
45970W        W11131   3.459   4.494   4.372
45971W        W11132  12.156  23.682  11.225
45972W        W11133  43.876  14.448  12.867
45973W        W11134  20.565   9.708  12.175
45974W        W11135   7.643  39.247   4.530
45975W        W11136  29.487  43.898  10.668
45976W        W11137  21.915  23.188  10.353
45977W        W11138   6.029  28.164   3.772
45978W        W11139  38.770  40.433   0.876
45979W        W11140  27.810  23.698   3.639
45980W        W11141  36.452  32.055   0.957
45981W        W11142  19.642  34.190   4.998
45982W        W11143  12.304  43.192  12.099
45983W        W11144   0.037   9.202  13.004
45984W        W11145  40.762  28.204  13.533
45985W        W11146  10.817  22.261   4.857
45986W        W11147  34.864  16.034   2.299
45987W        W11148  29.165  22.540  14.330
45988W        W11149   2.892  34.456   1.591
45989W        W11150  21.309  38.780   2.751
45990W        W11151  19.611  31.040   2.620
45991W        W11152   5.334  33.443  10.981
45992W        W11153   5.836  24.707   5.421
45993W        W11154  38.885  35.117   3.181
45994W        W11155  43.055   2.872  12.469
45995W        W11156  36.541  40.910  12.176
45996W        W11157  39.025  42.955  13.351
45997W        W11158   8.376  44.884   1.468
45998W        W11159  29.923  39.015  14.523
45999W        W11160   4.921  37.030  14.489
46000W        W11161   1.850  44.972  12.144
46001W        W11162   0.730  40.103   4.173
46002W        W11163   7.308  15.252  12.446
46003W        W11164  37.784  12.525  12.432
46004W        W11165  12.686  33.205   2.350
46005W        W11166  16.572  39.388   3.673
46006W        W11167  13.604  23.014   1.583
46007W        W11168  17.763  34.308  14.793
46008W        W11169  40.987  16.600   1.696
46009W        W11170   0.257   7.581   1.834
46010W        W11171  44.187  20.345   2.668
46011W        W11172  40.160  12.843  12.493
46012W        W11173   3.717  33.703   0.718
46013W        W11174  13.998  33.586   4.972
46014W        W11175  41.341   4.109  14.770
46015W        W11176  27.399   9.685  11.634
46016W        W11177   2.411   3.459   2.743
46017W        W11178   5.347  11.717  10.153
46018W        W11179   3.810  16.839  10.232
46019W        W11180  23.859  20.152   3.389
46020W        W11181  29.970  25.251  12.914
46021W        W11182  25.723  35.007  11.431
46022W        W11183  29.793   1.481  11.167
46023W        W11184  21.115  10.489  12.501
46024W        W11185  25.106  12.902  13.360
46025W        W11186  37.484  19.752   1.508
46026W        W11187  37.284  15.085  12.952
46027W        W11188   0.570  17.160   2.183
46028W        W11189   9.767  43.082  14.986
46029W        W11190  16.839  19.681   3.266
46030W        W11191  40.405   4.876   3.399
46031W        W11192  13.766  37.865   0.636
46032W        W11193  11.422  13.413   0.743
46033W        W11194  19.896  35.655   2.268
46034W        W11195  33.972  27.909  11.396
46035W        W11196  33.582  27.006  11.376
46036W        W11197  25.114  40.440  11.318
46037W        W11198  11.339  16.825   3.214
46038W        W11199  13.711  19.696  12.535
46039W        W11200  28.038  18.095  13.833
46040W        W11201   7.313  10.217   3.894
46041W        W11202  44.077  38.387  13.303
46042W        W11203  30.240   1.839   3.350
46043W        W11204  10.728  30.607  10.377
46044W        W11205  13.582  41.935  11.977
46045W        W11206  42.467  37.194  14.522
46046W        W11207  41.724   2.893  13.809
46047W        W11208  30.219  23.034  13.111
46048W        W11209  21.081   9.101  11.552
46049W        W11210   9.080  10.856  13.887
46050W        W11211  34.503  12.375   3.487
46051W        W11212  32.684  41.862   0.893
46052W        W11213  25.366  40.759  11.624
46053W        W11214  42.941  10.860   0.544
46054W        W11215  43.945  11.146  11.101
46055W        W11216  32.693  30.938  11.193
46056W        W11217  42.930   4.451  14.820
46057W        W11218  43.766  14.939  12.975
46058W        W11219  10.292  25.980   4.234
46059W        W11220   2.447  34.826   3.829
46060W        W11221  31.155  34.474  14.961
46061W        W11222   6.290  34.385   0.687
46062W        W11223   5.134  11.186  14.479
46063W        W11224  40.467  43.042   0.624
46064W        W11225   7.423  12.331  13.828
46065W        W11226   4.433   8.873  14.310
46066W        W11227  30.877  15.633  14.848
46067W        W11228  38.397  20.718  10.810
46068W        W11229  37.433  32.064   3.940
46069W        W11230  19.244  17.374  12.499
46070W        W11231  12.755  24.955   1.776
46071W        W11232  30.041  43.576  14.509
46072W        W11233  14.592  30.959  11.255
46073W        W11234  14.590  15.091  13.547
46074W        W11235   0.784   3.892  10.444
46075W        W11236   5.247   0.056  11.098
46076W        W11237   1.450  39.971  13.321
46077W        W11238  44.116  42.457   0.824
46078W        W11239   7.556  27.243   2.280
46079W        W11240  40.087  40.405  14.766
46080W        W11241  33.508  31.290  14.712
46081W        W11242  27.533  30.482   1.923
46082W        W11243  17.720  21.852  14.345
46083W        W11244   2.006  14.232   1.868
46084W        W11245   5.749   3.474  13.358
46085W        W11246  10.787  30.052  12.889
46086W        W11247  21.609  32.129   4.869
46087W        W11248  43.344  37.913  14.236
46088W        W11249  23.753   5.898  11.228
46089W        W11250  22.162  37.388   3.871
46090W        W11251  14.146  21.969  14.508
46091W        W11252   5.404  12.860   3.172
46092W        W11253   6.288  26.161   0.420
46093W        W11254   1.745  10.248   0.663
46094W        W11255  35.917  31.851   2.693
46095W        W11256   3.981  17.105   2.191
46096W        W11257  30.060  40.065  11.002
46097W        W11258  43.815  44.252   0.453
46098W        W11259  18.584  10.900   2.446
46099W        W11260  39.089  12.828  14.902
46100W        W11261   6.636  22.543   0.812
46101W        W11262  17.031  32.748   4.100
46102W        W11263   3.371  44.477   5.018
46103W        W11264  19.079   1.966  14.802
46104W        W11265   1.031  33.627  10.838
46105W        W11266  13.927   3.738  11.724
46106W        W11267  22.591  37.624  11.654
46107W        W11268  27.900  15.793  11.592
46108W        W11269   9.235  42.531  11.074
46109W        W11270  17.122   4.219  13.257
46110W        W11271   7.894  37.065   3.358
46111W        W11272   1.202  44.008   1.058
46112W        W11273  13.417   7.726  14.731
46113W        W11274  28.523  22.440  10.637
46114W        W11275  26.867   7.232  14.287
46115W        W11276  34.621  37.546  13.113
46116W        W11277   4.847  18.316   4.582
46117W        W11278  36.858   2.992  14.756
46118W        W11279  11.288  21.091  10.358
46119W        W11280  43.848  14.326  12.025
46120W        W11281   2.242  26.920  12.558
46121W        W11282  29.168   7.267   2.808
46122W        W11283  15.363  31.985   0.545
46123W        W11284  38.074  26.718  11.244
46124W        W11285  40.135  17.713   3.189
46125W        W11286   0.829  43.687   0.242
46126W        W11287  27.876  22.781  11.551
46127W        W11288   6.824  43.287   3.731
46128W        W11289  42.419  20.709   1.026
46129W        W11290  41.301  22.689   4.251
46130W        W11291   2.395   5.764  13.715
46131W        W11292  17.263   9.079   1.783
46132W        W11293   5.455  12.742   2.227
46133W        W11294  24.391  40.207  13.899
46134W        W11295  21.464  10.861   4.237
46135W        W11296  13.853  16.199  12.942
46136W        W11297  15.978   5.331   3.973
46137W        W11298   7.348  16.083   0.410
46138W        W11299   2.801  25.867  12.394
46139W        W11300  27.729  44.116  11.516
46140W        W11301  12.004  28.989   0.335
46141W        W11302   1.346  17.840   9.706
46142W        W11303  19.750  36.398  12.678
46143W        W11304  41.497  38.381  14.035
46144W        W11305   3.295  16.504  11.547
46145W        W11306  11.544  35.343   3.427
46146W        W11307  19.525  36.760  14.815
46147W        W11308   7.196  31.803  13.088
46148W        W11309   3.418   2.159   2.684
46149W        W11310  33.577  19.122   1.329
46150W        W11311  22.223  35.442   4.767
46151W        W11312   2.045  34.002   0.478
46152W        W11313  21.970  20.651  12.084
46153W        W11314  21.130   8.727   3.480
46154W        W11315   3.711   5.271  13.942
46155W        W11316  40.814   9.491   1.334
46156W        W11317  40.064  19.755   3.347
46157W        W11318  24.575   0.793  12.357
46158W        W11319   5.387  39.834   3.124
46159W        W11320  39.537  15.198   1.005
46160W        W11321   5.326  33.081  12.457
46161W        W11322   0.263  17.206   4.188
46162W        W11323  13.744  23.243  11.931
46163W        W11324  36.835   4.464  14.262
46164W        W11325  44.388   6.239   3.220
46165W        W11326  38.314   0.452   1.055
46166W        W11327  13.709  27.107   3.948
46167W        W11328  35.066  44.859  12.465
46168W        W11329   7.767  24.452   3.730
46169W        W11330  26.726  43.637  12.934
46170W        W11331  26.899   9.617  11.745
46171W        W11332  18.758   9.797   2.825
46172W        W11333  29.925   1.692  12.910
46173W        W11334  16.059   5.162   2.368
46174W        W11335  10.619  44.389   2.191
46175W        W11336  29.866  31.234  11.676
46176W        W11337  42.407  27.671  11.597
46177W        W11338   8.204   5.752   0.424
46178W        W11339  32.145  11.512   0.695
46179W        W11340   1.268  34.888   1.768
46180W        W11341  34.006  34.445  14.838
46181W        W11342  25.849  21.067  14.832
46182W        W11343   1.485  32.591  10.629
46183W        W11344  41.798  35.546  11.117
46184W        W11345  15.901  41.497   3.723
46185W        W11346  37.119  36.296  11.605
46186W        W11347  22.180  16.828   1.263
46187W        W11348  33.364  22.213  11.626
46188W        W11349  37.261   4.932   0.434
46189W        W11350  21.772  38.421   2.027
46190W        W11351  44.159   2.864   5.142
46191W        W11352   1.495  20.861  14.033
46192W        W11353  32.421  33.550   0.457
46193W        W11354   3.210   0.275   4.165
46194W        W11355  32.545   6.266   1.421
46195W        W11356  39.737  40.993  10.617
46196W        W11357  31.096  39.901  13.935
46197W        W11358   1.282  27.578   2.316
46198W        W11359  34.173  22.014  12.023
46199W        W11360   9.744  14.196   4.457
46200W        W11361  34.840  28.048   3.197
46201W        W11362  42.590  24.469   3.359
46202W        W11363  22.187   0.794   2.134
46203W        W11364   1.350   1.895   4.070
46204W        W11365   3.384   0.386  12.347
46205W        W11366  34.338  33.790   3.975
46206W        W11367  41.291  40.349   0.323
46207W        W11368   6.721  12.215   0.537
46208W        W11369  13.091   6.398   1.705
46209W        W11370   4.847  10.098  10.636
46210W        W11371  36.459  34.744  12.042
46211W        W11372  37.983   1.071   4.044
46212W        W11373  24.623  23.086  13.912
46213W        W11374  24.568   2.787   4.691
46214W        W11375  40.928  42.988   2.276
46215W        W11376  24.224  17.693  12.052
46216W        W11377  35.057  39.802   1.351
46217W        W11378   6.354  28.005  12.295
46218W        W11379  15.722   6.251  10.948
46219W        W11380   6.148  13.809   0.342
46220W        W11381  13.714  27.181   0.829
46221W        W11382  32.879  17.091   4.693
46222W        W11383  25.971  11.625   1.321
46223W        W11384  43.993  42.412  13.495
46224W        W11385   0.852   4.695   1.869
46225W        W11386  44.573  19.007   1.862
46226W        W11387  33.415  15.902   4.618
46227W        W11388   6.831  31.489   3.804
46228W        W11389  36.264  12.219   2.321
46229W        W11390   5.748  23.754  10.901
46230W        W11391   1.480   8.010  14.666
46231W        W11392  25.423  44.414  13.000
46232W        W11393  23.915  25.998   1.622
46233W        W11394  26.455  18.316   2.738
46234W        W11395  15.070   2.651   0.109
46235W        W11396   5.808  44.017   0.883
46236W        W11397   2.694  24.015   1.841
46237W        W11398  24.982  18.101   3.702
46238W        W11399   6.956  43.897  10.549
46239W        W11400  14.824  30.480   0.790
46240W        W11401  22.943  44.796   0.794
46241W        W11402  26.532  22.074  13.920
46242W        W11403  16.347  30.486  12.466
46243W        W11404   5.236   2.787   2.196
46244W        W11405  36.105   7.766   4.132
46245W        W11406  34.542   8.388  13.740
46246W        W11407  35.290  27.963   0.982
46247W        W11408  19.153  32.925   3.662
46248W        W11409  37.899  15.680   3.784
46249W        W11410   1.732   5.332   4.105
46250W        W11411  31.298  19.694   1.726
46251W        W11412  12.291   8.013  13.776
46252W        W11413  17.542  25.155  12.307
46253W        W11414   9.603  23.566  14.844
46254W        W11415  26.078  25.624   0.926
46255W        W11416  14.054  17.252  14.556
46256W        W11417  13.661   7.000   0.954
46257W        W11418  15.150  27.234  10.947
46258W        W11419  12.917   3.650   3.362
46259W        W11420  30.478  31.459   2.365
46260W        W11421   1.015  22.490   0.346
46261W        W11422  43.842   3.906   4.428
46262W        W11423  24.454  26.270  12.926
46263W        W11424  11.031  14.634  14.009
46264W        W11425   2.296  31.556   1.992
46265W        W11426  14.179   3.431   1.810
46266W        W11427  29.712  41.115  13.346
46267W        W11428  34.409  36.299  11.299
46268W        W11429  29.116  23.747   3.107
46269W        W11430  33.084  24.660   2.219
46270W        W11431  42.460   1.580  10.775
46271W        W11432  16.046  38.784   3.634
46272W        W11433  30.403   9.682   4.083
46273W        W11434  18.193  40.517   3.192
46274W        W11435   9.159  35.115  10.642
46275W        W11436  11.393  16.157  14.015
46276W        W11437  27.711  23.015  11.966
46277W        W11438  33.635  36.234  12.461
46278W        W11439  20.945  38.602  13.693
46279W        W11440  36.401  29.131   2.413
46280W        W11441   8.345   3.801  12.374
46281W        W11442  39.821  33.900  12.778
46282W        W11443  24.325  21.283  13.541
46283W        W11444   1.662  27.633  10.862
46284W        W11445  23.021  14.471   2.877
46285W        W11446  31.699  32.364   2.111
46286W        W11447  21.044   4.648   0.418
46287W        W11448  10.206   4.022   0.008
46288W        W11449  29.982  41.975   4.360
46289W        W11450  25.393  39.311   1.923
46290W        W11451  11.089  14.245  12.843
46291W        W11452  30.210  33.967  14.589
46292W        W11453  21.642  10.985  13.939
46293W        W11454  27.670  14.676  12.020
46294W        W11455  31.165  35.558  10.530
46295W        W11456  12.149  12.804   1.364
46296W        W11457  39.298  19.136   2.427
46297W        W11458  10.914  10.940  13.355
46298W        W11459  13.066  22.200  14.776
46299W        W11460  29.045  27.069  12.617
46300W        W11461  11.491  29.012   0.478
46301W        W11462   0.022  33.639  14.843
46302W        W11463   0.697  25.421   0.416
46303W        W11464   3.805  18.254   4.509
46304W        W11465   0.373  39.099  10.741
46305W        W11466   7.836   1.506   0.532
46306W        W11467   6.585  39.815  13.728
46307W        W11468  34.452  13.806  12.867
46308W        W11469   6.335  27.074  12.332
46309W        W11470  29.984  42.549   3.135
46310W        W11471   7.703  36.922  10.978
46311W        W11472  20.572  27.447   3.566
46312W        W11473  11.137  39.110  12.043
46313W        W11474  11.722  28.888   4.536
46314W        W11475  30.426  28.214   1.275
46315W        W11476  12.102  33.842   1.472
46316W        W11477  19.299  20.128  12.419
46317W        W11478   0.886  40.512   2.106
46318W        W11479  11.662  41.373  13.268
46319W        W11480  20.213  26.617   0.245
46320W        W11481  36.111  34.363   3.838
46321W        W11482  24.408  13.354  12.537
46322W        W11483  26.542  26.469  10.548
46323W        W11484  16.977  17.770  12.872
46324W        W11485  29.102  11.119  12.557
46325W        W11486   6.401  20.618   3.787
46326W        W11487  21.595  32.985  12.585
46327W        W11488   0.254  13.633   5.548
46328W        W11489  30.063   5.861   3.449
46329W        W11490  18.000  36.246   1.720
46330W        W11491  11.296  38.012  12.191
46331W        W11492  20.180  29.693   3.782
46332W        W11493  42.816  44.212  14.757
46333W        W11494   3.739   5.519  10.937
46334W        W11495  40.982   3.207  13.911
46335W        W11496  43.100  12.399   0.429
46336W        W11497  26.195  14.568   0.661
46337W        W11498  43.500  15.673  14.902
46338W        W11499  35.478  30.921  13.152
46339W        W11500   8.942  28.399   4.217
46340W        W11501  41.411   5.310   3.124
46341W        W11502   7.673  29.113   0.015
46342W        W11503  42.937  21.908  11.599
46343W        W11504   4.387   4.180  11.394
46344W        W11505  41.181   0.814   3.686
46345W        W11506  30.523  22.261  13.715
46346W        W11507  27.597  41.536  10.923
46347W        W11508  39.101  44.738   0.891
46348W        W11509   4.657   8.444   0.415
46349W        W11510   5.191  24.165   1.045
46350W        W11511   9.856  31.902   2.620
46351W        W11512  40.708  41.796  14.453
46352W        W11513   1.110  30.051   0.039
46353W        W11514  29.578  42.972  13.825
46354W        W11515  23.434  22.025  14.003
46355W        W11516  27.267  30.420  13.366
46356W        W11517  42.381  17.252  15.000
46357W        W11518  44.178  26.951   2.814
46358W        W11519  29.149  24.770  13.494
46359W        W11520  18.944  35.575   1.016
46360W        W11521  10.713  19.555   4.461
46361W        W11522  37.727   8.822  12.115
46362W        W11523  30.607  13.148   4.314
46363W        W11524   9.817  21.181  13.831
46364W        W11525  19.167  39.806   2.334
46365W        W11526  13.334  40.368  10.686
46366W        W11527  10.282  41.950  13.302
46367W        W11528   6.978   4.406   4.207
46368W        W11529  23.083  44.808   4.627
46369W        W11530  38.766  39.923   2.401
46370W        W11531  13.740  12.160   4.146
46371W        W11532  20.198  11.382  11.449
46372W        W11533  21.491  37.913  10.610
46373W        W11534  18.261  28.518   4.150
46374W        W11535   7.777  10.176  13.120
46375W        W11536  32.663   2.422  13.367
46376W        W11537   1.665  32.579   4.103
46377W        W11538   5.754  15.629   3.785
46378W        W11539  19.486   2.742   3.251
46379W        W11540  33.694  21.209  12.510
46380W        W11541  38.481  19.715  10.738
46381W        W11542  43.778  43.763  13.288
46382W        W11543  22.535  21.820   3.754
46383W        W11544  21.165  33.528  11.077
46384W        W11545  24.407  25.580  13.326
46385W        W11546  21.094  14.929  13.818
46386W        W11547  25.963  10.795  13.530
46387W        W11548  26.643  37.815   0.981
46388W        W11549   9.811   3.745  10.784
46389W        W11550  20.326  34.573   4.650
46390W        W11551  30.574  41.894  12.554
46391W        W11552  37.588   3.382  14.311
46392W        W11553  42.304  11.807   4.382
46393W        W11554  37.352   1.999   0.352
46394W        W11555  18.568  43.808  11.439
46395W        W11556  19.406  37.894   2.321
46396W        W11557  30.355  30.947  11.941
46397W        W11558  12.815  37.758  11.276
46398W        W11559  11.835  35.754   3.552
46399W        W11560   7.668  12.769   4.710
46400W        W11561  34.871  41.067  14.320
46401W        W11562  35.951  36.658  10.255
46402W        W11563  34.591  42.798  13.852
46403W        W11564  17.675  27.503   2.195
46404W        W11565  20.690  41.494  11.644
46405W        W11566  27.418  26.594  13.108
46406W        W11567  22.982  15.411  14.736
46407W        W11568  19.836  20.497  11.600
46408W        W11569  10.537  22.450   2.586
46409W        W11570   2.390  37.338   3.338
46410W        W11571   3.280  27.534  12.525
46411W        W11572  28.075  43.358   0.006
46412W        W11573  31.417  37.200  11.247
46413W        W11574  15.702  35.062  14.384
46414W        W11575   9.430  24.218  12.045
46415W        W11576  23.154  23.218   4.578
46416W        W11577  27.052  35.160   3.268
46417W        W11578   6.443  30.741   5.007
46418W        W11579  43.427   1.391  14.745
46419W        W11580  27.954  34.206   3.739
46420W        W11581  26.573  20.396   1.646
46421W        W11582  13.489   3.964  11.875
46422W        W11583  16.217   7.190   1.101
46423W        W11584  27.691   7.897  11.924
46424W        W11585  43.960   3.751  10.497
46425W        W11586  37.958  11.128   1.300
46426W        W11587  40.076  15.057  13.583
46427W        W11588  28.733  40.555   4.165
46428W        W11589  14.477  40.764   4.199
46429W        W11590  40.803  11.519  12.561
46430W        W11591  13.301  26.585  12.466
46431W        W11592   2.364  26.518   1.324
46432W        W11593   0.138  40.077   4.160
46433W        W11594   4.113  18.845  13.432
46434W        W11595  34.510  17.668   2.399
46435W        W11596   8.179  34.662  13.363
46436W        W11597   7.798   1.967   2.419
46437W        W11598   2.787  43.042  11.141
46438W        W11599  30.914  26.725   2.811
46439W        W11600  24.722  20.598  13.060
46440W        W11601  38.127  24.311   4.123
46441W        W11602  30.783  19.466   9.928
46442W        W11603  39.355  40.799   0.583
46443W        W11604  42.238   4.450   0.185
46444W        W11605  44.841  24.609   3.927
46445W        W11606   8.092  39.469   4.673
46446W        W11607  40.340   6.866  13.809
46447W        W11608  28.726  34.204   2.733
46448W        W11609   0.354   7.641  14.771
46449W        W11610  19.191  22.147  13.134
46450W        W11611  23.133   4.190   3.219
46451W        W11612  42.401  34.118   0.193
46452W        W11613  30.058   7.344  10.766
46453W        W11614  43.590   2.875   0.961
46454W        W11615  37.651  28.554   1.448
46455W        W11616  33.011   9.810   0.451
46456W        W11617  17.324  42.384  11.855
46457W        W11618   9.112  24.531   0.629
46458W        W11619  13.717  18.552   0.831
46459W        W11620  16.093  32.931   2.429
46460W        W11621  32.174  31.142  14.357
46461W        W11622   8.083  12.779   1.394
46462W        W11623  44.854  33.572   2.616
46463W        W11624   4.711   7.242   1.023
46464W        W11625  22.228  30.391  10.888
46465W        W11626  40.268  28.345   9.618
46466W        W11627  42.453  12.654   3.337
46467W        W11628  41.010  24.146  11.474
46468W        W11629  30.611  36.303  14.443
46469W        W11630   9.458   2.253   4.532
46470W        W11631  39.379  24.314  14.062
46471W        W11632  19.538   6.952   4.502
46472W        W11633  22.733  41.793   4.997
46473W        W11634  20.798  31.255  11.621
46474W        W11635  12.750  16.676  14.002
46475W        W11636   3.637  29.951  10.791
46476W        W11637  34.827  26.702  11.517
46477W        W11638  29.913  27.555   4.190
46478W        W11639  43.897  37.605   1.368
46479W        W11640  21.612   5.479   1.704
46480W        W11641  27.721  17.465   1.413
46481W        W11642  11.408  18.156   4.915
46482W        W11643  39.030  23.023   0.957
46483W        W11644   6.648  36.681  10.637
46484W        W11645   2.652   0.429   5.030
46485W        W11646  14.651  17.777  12.431
46486W        W11647  26.207  21.542   4.473
46487W        W11648  32.145   7.862   0.365
46488W        W11649  21.133  40.902   4.998
46489W        W11650   9.410  13.546   3.826
46490W        W11651  19.359  28.062  12.437
46491W        W11652  32.032   6.003  11.052
46492W        W11653  34.454  36.214   1.472
46493W        W11654  17.518   4.830   4.110
46494W        W11655   0.459  23.744  14.154
46495W        W11656  35.918   3.688  13.418
46496W        W11657  22.779  14.179  12.127
46497W        W11658  23.503  11.682  13.265
46498W        W11659  30.601  21.473  11.569
46499W        W11660  15.549   1.844   4.001
46500W        W11661  16.960   1.167   0.151
46501W        W11662  33.945  12.559  13.855
46502W        W11663  13.727  15.801  14.239
46503W        W11664  20.516  25.580   3.717
46504W        W11665  26.234  41.388  13.785
46505W        W11666  15.417   8.963  13.470
46506W        W11667   4.932   9.668  13.371
46507W        W11668  23.201  33.951   1.186
46508W        W11669  33.947  38.794   3.416
46509W        W11670  27.134  41.024   1.966
46510W        W11671   9.195  13.337   4.843
46511W        W11672  18.559  17.603  12.059
46512W        W11673  27.508  34.884  11.276
46513W        W11674  20.152  19.733   0.373
46514W        W11675   3.879  32.387  10.666
46515W        W11676  15.791  36.184  11.700
46516W        W11677  23.047  19.696  12.420
46517W        W11678   5.409  13.050  13.985
46518W        W11679  41.339  34.170  14.724
46519W        W11680  44.010   2.880   4.601
46520W        W11681  38.360  12.246  14.413
46521W        W11682  11.774  10.387  10.082
46522W        W11683  19.023  42.281  14.317
46523W        W11684  25.183  33.484   0.853
46524W        W11685  20.766  25.001  12.962
46525W        W11686  20.035  14.921  11.767
46526W        W11687   5.309   3.339   4.684
46527W        W11688  27.010  24.909  12.975
46528W        W11689  42.816  41.549   1.394
46529W        W11690  25.610   1.203   2.605
46530W        W11691  12.319  38.554  11.556
46531W        W11692  44.794   6.887  12.816
46532W        W11693   5.280  42.818   3.330
46533W        W11694   3.118  18.307  12.181
46534W        W11695  33.378  23.577  10.159
46535W        W11696  41.765  20.071   4.712
46536W        W11697  21.271  13.434  13.436
46537W        W11698  14.102  12.189   2.219
46538W        W11699  19.070  38.637  12.665
46539W        W11700  31.497   2.695  10.701
46540W        W11701   7.643   3.283   0.912
46541W        W11702  40.941  25.973   0.344
46542W        W11703  29.988  19.632   2.563
46543W        W11704  10.277  30.651   2.793
46544W        W11705  44.276  12.250   1.804
46545W        W11706  42.308   3.743   4.646
46546W        W11707   5.275  27.141   2.271
46547W        W11708  21.580  26.186   4.847
46548W        W11709  44.328  14.671   2.103
46549W        W11710  34.071  26.770   3.682
46550W        W11711  16.770   6.644   2.595
46551W        W11712  39.293  26.232   1.399
46552W        W11713   4.825  44.292   1.796
46553W        W11714   7.775  12.664   0.971
46554W        W11715  18.739  19.934   4.118
46555W        W11716  24.629  28.713  10.968
46556W        W11717   5.842  19.749  14.936
46557W        W11718  26.503   6.422   0.836
46558W        W11719  36.458  39.088   3.669
46559W        W11720   8.687  31.525  10.654
46560W        W11721  12.583  26.911   0.389
46561W        W11722  37.739  17.811  10.392
46562W        W11723  13.407  11.083   3.797
46563W        W11724   6.425  44.382  13.886
46564W        W11725  21.328  26.634   1.780
46565W        W11726   5.155  42.665   2.712
46566W        W11727   7.781  20.529   4.313
46567W        W11728  14.263  33.470  11.939
46568W        W11729   7.287  44.307  11.419
46569W        W11730  44.701   4.513   2.495
46570W        W11731  15.126  23.663  12.847
46571W        W11732  34.378  26.448  14.893
46572W        W11733   4.099   0.516   4.473
46573W        W11734  35.099   9.234   0.105
46574W        W11735  27.544  43.943   4.320
46575W        W11736  22.729  18.069   2.849
46576W        W11737  22.503  31.963   0.353
46577W        W11738  13.622  29.211   3.304
46578W        W11739  14.909   8.299  14.392
46579W        W11740  39.055  23.179   0.466
46580W        W11741  43.050  31.200   4.266
46581W        W11742  15.341  27.000   0.057
46582W        W11743  10.929  25.499  11.643
46583W        W11744  32.629  25.543   0.764
46584W        W11745  34.108  12.695   0.921
46585W        W11746  35.111  14.764   1.021
46586W        W11747   7.892  28.602  13.122
46587W        W11748  14.845  23.716  10.226
46588W        W11749   4.381  11.299   3.168
46589W        W11750   8.395  44.971  12.152
46590W        W11751  12.210  43.864  13.786
46591W        W11752   6.211  21.768   4.598
46592W        W11753   9.869   1.298   1.275
46593W        W11754  37.126   5.597  14.390
46594W        W11755  35.429  42.113  11.126
46595W        W11756   6.290   6.744  13.008
46596W        W11757   6.406   7.308   2.618
46597W        W11758  22.044   8.495   0.945
46598W        W11759  41.777   0.231  11.554
46599W        W11760   2.243  39.991  12.445
46600W        W11761   6.786  23.974  12.628
46601W        W11762  14.584  30.686  12.675
46602W        W11763  43.837  38.832  13.397
46603W        W11764   4.942  40.971   2.970
46604W        W11765  23.379  37.822  10.769
46605W        W11766   4.977  31.430   1.631
46606W        W11767  15.848  29.344  10.967
46607W        W11768  29.281  39.906   4.596
46608W        W11769  24.546  44.732   2.175
46609W        W11770  33.415   6.733   3.085
46610W        W11771  43.973  31.681  12.983
46611W        W11772  30.127  15.734  10.408
46612W        W11773  32.514   6.075  12.605
46613W        W11774  33.771   4.344  13.323
46614W        W11775  25.766   3.662   1.763
46615W        W11776  26.068   2.532   2.854
46616W        W11777   7.254  37.632  13.506
46617W        W11778  11.334  19.120  11.120
46618W        W11779  30.570  41.375  10.299
46619W        W11780  15.293  10.597  13.170
46620W        W11781  19.436  26.626  14.832
46621W        W11782  29.107  22.281   4.090
46622W        W11783  16.996  44.814   3.665
46623W        W11784  12.388  37.496  13.423
46624W        W11785  19.193  34.519  10.755
46625W        W11786   5.274  12.834  10.921
46626W        W11787  37.510  34.340  14.415
46627W        W11788  40.781  13.937  14.053
46628W        W11789  22.052  44.698   1.532
46629W        W11790  10.323  15.081  12.360
46630W        W11791  21.326  24.709  12.540
46631W        W11792  37.244  26.633   4.239
46632W        W11793  29.876   7.858  14.004
46633W        W11794  28.556  30.840  13.578
46634W        W11795  10.455  28.098   2.664
46635W        W11796  25.391   4.881   1.940
46636W        W11797  23.114  13.836   0.739
46637W        W11798  19.510  20.542   4.080
46638W        W11799  39.550  22.563  10.661
46639W        W11800  29.464   1.457   0.220
46640W        W11801  44.996  44.007  11.435
46641W        W11802   2.310  28.443  12.636
46642W        W11803   8.350  13.067  11.138
46643W        W11804  38.855  39.820  11.079
46644W        W11805  10.272  42.269   4.239
46645W        W11806   9.783  37.609  10.779
46646W        W11807  23.774  26.004   0.224
46647W        W11808  14.617  20.056   0.124
46648W        W11809  33.940  36.345   0.838
46649W        W11810  26.463  24.453   2.819
46650W        W11811  16.714  41.163  13.598
46651W        W11812  36.639  20.748   1.216
46652W        W11813  13.641   8.025   4.628
46653W        W11814   8.631  24.980  14.808
46654W        W11815  34.200   1.693   4.283
46655W        W11816  10.459  32.442   1.001
46656W        W11817  25.654   6.486   3.297
46657W        W11818  27.229  24.759   1.005
46658W        W11819  40.934  32.285   0.707
46659W        W11820  38.120  26.483  12.095
46660W        W11821   2.700  15.566  10.280
46661W        W11822  36.756  18.240  12.952
46662W        W11823  20.109   0.413   3.148
46663W        W11824  36.348  23.521  12.985
46664W        W11825  19.070  35.526   3.598
46665W        W11826   6.762   7.399  11.685
46666W        W11827   7.625  38.782   1.370
46667W        W11828   8.460  10.847  10.453
46668W        W11829  28.431  13.398  13.864
46669W        W11830  22.986   5.029  14.280
46670W        W11831  12.465  26.701  12.043
46671W        W11832  41.583   0.800  11.169
46672W        W11833  17.887   3.352   4.518
46673W        W11834  27.696  31.076  12.174
46674W        W11835   4.094  26.551   3.564
46675W        W11836  22.242  26.570   4.682
46676W        W11837  27.708  16.718   0.688
46677W        W11838  35.697  20.101  13.605
46678W        W11839  22.033  27.710  10.729
46679W        W11840   2.907   2.552  13.357
46680W        W11841  10.740  44.348  11.101
46681W        W11842  17.388   5.612  12.875
46682W        W11843  35.345  12.424   3.254
46683W        W11844  33.217  13.695   2.729
46684W        W11845  39.599  24.203  12.814
46685W        W11846  28.265  30.966   2.311
46686W        W11847   7.170   4.891   0.221
46687W        W11848  20.991  17.296   3.223
46688W        W11849   6.596  19.464   1.834
46689W        W11850  15.293  24.008  12.175
46690W        W11851  37.652   0.217  11.148
46691W        W11852  27.780  24.484   9.861
46692W        W11853  13.737   3.761  12.604
46693W        W11854  41.001   3.503  12.947
46694W        W11855  39.344  18.720  12.895
46695W        W11856  17.782   8.206   1.759
46696W        W11857  18.525  21.256   3.614
46697W        W11858  28.782  12.114  13.493
46698W        W11859  38.928  12.150   1.012
46699W        W11860  17.331  21.961  11.645
46700W        W11861   8.141  25.462   2.613
46701W        W11862  41.773  14.959   0.844
46702W        W11863  22.457   8.717   3.395
46703W        W11864  35.056  38.140   0.667
46704W        W11865   8.402   9.767   5.087
46705W        W11866  15.191  35.937  14.320
46706W        W11867  20.134   5.123  12.548
46707W        W11868  44.939  23.826   0.039
46708W        W11869  26.413  32.219   1.713
46709W        W11870   9.310  22.961  10.122
46710W        W11871  15.258  33.001  12.154
46711W        W11872  11.154  16.238  11.903
46712W        W11873  11.605  27.335   4.421
46713W        W11874  44.783  16.387  12.066
46714W        W11875   7.115  35.588  12.488
46715W        W11876  29.717  18.736  12.929
46716W        W11877   2.780   2.580  14.397
46717W        W11878  40.549  12.743   3.301
46718W        W11879  12.835  27.700   4.211
46719W        W11880   7.888  11.774  10.733
46720W        W11881  37.796  10.620  13.957
46721W        W11882  16.587  32.607   0.581
46722W        W11883  44.782  22.189   3.696
46723W        W11884  43.178  30.066  11.487
46724W        W11885  19.498  14.346  12.969
46725W        W11886  13.255  24.415   2.882
46726W        W11887  16.972  17.485   5.305
46727W        W11888  32.971   8.411   0.575
46728W        W11889  25.462  30.206  13.944
46729W        W11890  33.537  39.832  14.027
46730W        W11891  27.723  17.015  14.662
46731W        W11892  38.297  27.571  13.939
46732W        W11893  37.112   0.468  12.310
46733W        W11894  34.280  32.919   0.935
46734W        W11895   1.581  20.715  13.047
46735W        W11896  44.930  34.078  11.505
46736W        W11897  35.066   2.866  13.432
46737W        W11898  27.516   4.461  12.535
46738W        W11899  30.648  24.255   2.798
46739W        W11900   9.337  29.523  11.498
46740W        W11901  15.599  39.433  13.875
46741W        W11902  20.626  42.717  13.433
46742W        W11903  30.032  44.220  10.616
46743W        W11904   2.821  28.503  11.876
46744W        W11905   2.814  29.977  14.520
46745W        W11906   7.017  16.564  12.634
46746W        W11907   2.282  43.205   1.887
46747W        W11908   4.677  16.611   4.161
46748W        W11909  21.031  24.221   4.527
46749W        W11910  37.603  38.115   1.137
46750W        W11911  24.138   9.831  14.558
46751W        W11912   5.736  38.159  10.669
46752W        W11913  31.160  11.847   1.960
46753W        W11914  39.055  24.065  11.575
46754W        W11915  11.964  39.524  10.789
46755W        W11916  26.989   7.163  11.159
46756W        W11917  14.805   0.645   0.596
46757W        W11918  20.257   8.511  14.047
46758W        W11919   9.112  33.219  14.730
46759W        W11920  41.858  15.352   3.322
46760W        W11921   4.881  35.537   2.165
46761W        W11922  40.928  28.603  11.037
46762W        W11923  35.613  34.684  11.000
46763W        W11924   6.356   4.265  11.355
46764W        W11925  31.830  26.980   3.714
46765W        W11926  41.287  25.920  14.952
46766W        W11927  36.366  38.098   2.787
46767W        W11928  35.727  25.082  10.723
46768W        W11929  12.141  16.535  10.768
46769W        W11930  24.577  16.329   4.130
46770W        W11931  33.016  20.346   2.823
46771W        W11932  31.050  39.367  13.269
46772W        W11933   5.802  23.681   1.480
46773W        W11934   5.383   3.883  13.931
46774W        W11935  44.635   8.294  13.318
46775W        W11936  19.152  14.651   1.251
46776W        W11937  26.507   2.326   4.626
46777W        W11938   7.474   4.184  14.817
46778W        W11939  31.866  18.807  10.697
46779W        W11940  40.543  36.521  12.494
46780W        W11941  42.226  26.654   2.360
46781W        W11942  29.566   1.693  10.174
46782W        W11943  34.958  26.623  13.899
46783W        W11944  43.212  43.912  12.529
46784W        W11945  21.975   2.761  13.472
46785W        W11946  14.609  21.715   2.339
46786W        W11947  31.954  43.266   3.376
46787W        W11948   2.763  41.567  12.203
46788W        W11949  17.134  21.590  10.492
46789W        W11950  24.055   4.825  12.218
46790W        W11951  37.852   7.238  13.919
46791W        W11952  23.036   6.422   1.459
46792W        W11953   1.488  25.918  11.131
46793W        W11954   5.850   9.916   0.086
46794W        W11955  18.195  16.299  13.327
46795W        W11956  17.042  27.567   0.803
46796W        W11957  42.223   7.253   3.984
46797W        W11958  19.940  35.927  11.028
46798W        W11959  29.551  31.141   2.900
46799W        W11960  10.431  38.875  11.000
46800W        W11961  13.581   2.644  14.291
46801W        W11962  28.525   7.526   3.239
46802W        W11963  39.642  26.190   0.445
46803W        W11964  18.800   2.493   4.161
46804W        W11965   8.312  13.325   2.749
46805W        W11966  21.185   3.788  14.922
46806W        W11967   0.045  40.008  13.985
46807W        W11968  37.820  44.483  12.776
46808W        W11969  20.047  21.653   1.927
46809W        W11970  40.137  29.869  12.140
46810W        W11971  40.431   5.784  11.217
46811W        W11972   7.940   6.189  12.985
46812W        W11973  16.990   9.673   4.961
46813W        W11974   2.016  26.937   2.812
46814W        W11975  38.885  23.541  14.346
46815W        W11976  36.301  35.663  11.083
46816W        W11977  28.524  35.865  11.165
46817W        W11978  27.927  27.089  12.552
46818W        W11979  34.597  30.969   1.764
46819W        W11980   4.720   5.719  11.993
46820W        W11981  19.298  25.754   4.084
46821W        W11982  19.130  32.994   0.118
46822W        W11983  34.487  25.079  14.627
46823W        W11984  31.125  29.039   2.134
46824W        W11985   4.976  43.941   4.306
46825W        W11986   0.766  14.380  10.853
46826W        W11987  41.486  11.904  13.809
46827W        W11988  17.776   7.415  14.461
46828W        W11989  11.921   4.140  14.845
46829W        W11990  42.422  29.096  14.483
46830W        W11991  27.929   6.004   3.625
46831W        W11992   7.508  34.036   3.258
46832W        W11993  19.881  35.276  14.560
46833W        W11994  21.737  12.935   0.346
46834W        W11995  43.547  21.124  12.998
46835W        W11996  19.675  37.250  14.710
46836W        W11997  14.439   8.993   1.315
46837W        W11998  15.525  37.566  11.186
46838W        W11999   9.140   6.946  10.549
46839W        W12000  34.480  23.995   2.372
46840W        W12001  13.283  12.883  14.583
46841W        W12002  43.039  15.727   4.029
46842W        W12003   5.912  23.929  11.474
46843W        W12004  34.980   2.449  10.625
46844W        W12005   7.759  34.948   1.243
46845W        W12006  13.208  23.611  13.389
46846W        W12007  44.432   0.997   1.005
46847W        W12008   3.562  15.255  14.340
46848W        W12009  36.453   6.794   0.265
46849W        W12010  20.052  22.758   3.383
46850W        W12011  15.566  20.762  14.120
46851W        W12012  10.654  41.975   4.470
46852W        W12013   9.886  23.653  14.417
46853W        W12014   7.346   7.122  12.899
46854W        W12015  35.692  13.749   1.923
46855W        W12016  14.142  40.543   1.346
46856W        W12017  20.664   1.362   1.428
46857W        W12018  15.369  37.715   2.406
46858W        W12019  11.732  19.253   2.794
46859W        W12020  37.954   3.602  14.963
46860W        W12021   5.961  13.624   0.790
46861W        W12022  39.272  17.839  13.403
46862W        W12023  30.684  23.247  11.210
46863W        W12024  33.701  21.662  10.914
46864W        W12025  39.031  36.735   4.703
46865W        W12026  28.148  18.612  13.998
46866W        W12027  10.591  28.250  14.063
46867W        W12028   1.241  15.840  14.835
46868W        W12029  38.552  32.813  14.929
46869W        W12030  31.805  44.774   2.642
46870W        W12031  29.560  11.097  10.903
46871W        W12032   2.215  14.559   0.343
46872W        W12033  28.472  19.002   3.252
46873W        W12034  31.997  31.933   0.402
46874W        W12035  21.544  30.921   4.497
46875W        W12036  33.878  14.899   1.260
46876W        W12037   1.910  28.514   2.885
46877W        W12038   3.738   8.212   2.294
46878W        W12039  16.809   2.487  11.527
46879W        W12040  37.993  20.781   3.266
46880W        W12041  43.771  25.718   0.771
46881W        W12042   6.846  38.856  13.466
46882W        W12043  28.950  26.064   3.203
46883W        W12044   6.645  23.391   1.956
46884W        W12045  11.297  43.773  11.585
46885W        W12046   9.134  25.663  12.659
46886W        W12047  41.976  15.071  13.369
46887W        W12048  35.058  35.036  12.517
46888W        W12049  11.815  37.991   2.277
46889W        W12050  32.476  30.386   0.780
46890W        W12051  14.763  25.905  11.087
46891W        W12052  30.424  15.121  11.577
46892W        W12053  30.554  11.880   2.881
46893W        W12054  34.053  16.642   1.781
46894W        W12055  37.268  31.026  14.400
46895W        W12056   4.792  12.907   4.478
46896W        W12057  34.615  13.612  14.997
46897W        W12058  38.436  42.732   0.774
46898W        W12059  15.399  12.105   0.569
46899W        W12060  43.444  25.955  11.964
46900W        W12061  23.112  12.407   3.129
46901W        W12062  17.754  19.772   2.853
46902W        W12063  12.829   8.647   1.306
46903W        W12064  33.808  19.726   0.885
46904W        W12065   1.342  30.818   1.916
46905W        W12066  33.962  38.018   0.482
46906W        W12067  38.042  10.879  14.377
46907W        W12068  15.716  33.679  14.356
46908W        W12069  33.972  25.525   4.191
46909W        W12070  18.177   6.390  14.866
46910W        W12071  23.639   3.824  10.692
46911W        W12072  27.470  27.550   4.472
46912W        W12073  33.388  23.742  12.626
46913W        W12074  37.000  24.987   0.835
46914W        W12075  28.474   4.423  13.443
46915W        W12076   5.299  26.376  13.055
46916W        W12077  17.783  31.965  12.897
46917W        W12078  23.509  27.993   3.587
46918W        W12079  21.242  36.931  14.451
46919W        W12080  36.537  37.281   9.980
46920W        W12081  14.643  25.203   2.769
46921W        W12082   5.254  18.183   1.385
46922W        W12083   6.078  28.959  13.440
46923W        W12084  36.364  42.870   1.620
46924W        W12085   2.464  19.242   0.870
46925W        W12086  33.979  38.267  10.102
46926W        W12087  28.655  43.218  12.301
46927W        W12088   3.324  31.087  13.370
46928W        W12089   7.753  30.375  12.259
46929W        W12090  15.604  24.245   4.618
46930W        W12091   0.687   3.414   4.326
46931W        W12092  14.757  42.536  12.204
46932W        W12093  31.494  28.394  13.424
46933W        W12094  32.320  18.595  13.276
46934W        W12095  35.644  21.757  13.421
46935W        W12096  43.600  24.718  13.463
46936W        W12097  10.132  42.978   2.189
46937W        W12098   5.443  12.391   1.014
46938W        W12099  44.847  41.517  11.825
46939W        W12100  31.632  17.306   0.969
46940W        W12101  36.389   9.667   0.234
46941W        W12102  16.333  15.787  13.340
46942W        W12103   0.685  18.327  13.308
46943W        W12104  31.394  15.571   1.389
46944W        W12105   8.409  26.942   2.567
46945W        W12106   9.253   5.485  14.837
46946W        W12107  15.811   5.387  11.621
46947W        W12108  14.328   2.786  12.810
46948W        W12109  43.108  34.158  12.850
46949W        W12110  39.957  36.152   0.439
46950W        W12111  33.726  11.279   1.134
46951W        W12112  37.834  31.940  12.344
46952W        W12113  44.521  39.831  12.184
46953W        W12114  18.790  37.369   4.080
46954W        W12115  31.187   5.724  12.580
46955W        W12116  35.082   9.278   2.908
46956W        W12117  44.415   9.392   2.212
46957W        W12118  22.301  33.947   3.588
46958W        W12119   2.001  29.495   1.209
46959W        W12120  15.056  14.396  14.436
46960W        W12121  30.142   6.764  13.642
46961W        W12122  34.486   9.046   0.974
46962W        W12123   2.815  15.404  11.787
46963W        W12124  11.187  44.771  10.670
46964W        W12125   8.585   4.916  10.821
46965W        W12126  41.719  35.624   0.739
46966W        W12127  24.750  42.566  13.860
46967W        W12128  38.345   2.681   1.312
46968W        W12129  38.076  43.133  11.111
46969W        W12130  32.473  12.193  10.853
46970W        W12131  18.981  21.796   5.313
46971W        W12132  36.997   6.189   3.541
46972W        W12133  26.726   7.278  10.709
46973W        W12134   1.336  19.776   3.270
46974W        W12135  24.872  44.939  12.499
46975W        W12136  14.464  10.012  12.238
46976W        W12137   1.358  36.028   4.086
46977W        W12138  30.839  31.080  13.938
46978W        W12139  22.711  13.813   3.701
46979W        W12140  22.584   3.675   2.878
46980W        W12141  12.104   5.152  12.364
46981W        W12142  34.404  16.133  14.117
46982W        W12143  38.257  14.926  13.771
46983W        W12144   6.397  26.655  12.053
46984W        W12145  36.987  20.684   2.388
46985W        W12146   6.220  42.277  14.395
46986W        W12147  43.707  24.286  13.146
46987W        W12148   1.854  32.925  10.832
46988W        W12149  26.449  29.197  14.791
46989W        W12150  34.532  42.459   3.274
46990W        W12151  11.580  26.598  13.917
46991W        W12152  30.455   1.926   2.879
46992W        W12153  33.194   1.729  12.437
46993W        W12154  15.811   2.295   3.841
46994W        W12155  19.005   2.457  12.547
46995W        W12156   8.371  16.752  13.350
46996W        W12157  29.905  22.601  12.517
46997W        W12158  42.947  31.531  10.456
46998W        W12159  39.516  16.261   3.637
46999W        W12160  24.052  42.649  10.719
47000W        W12161   3.766  29.652  12.397
47001W        W12162  23.941  17.158   1.664
47002W        W12163   4.855   9.142  14.828
47003W        W12164  21.855  28.983   2.338
47004W        W12165   5.160  35.954   1.286
47005W        W12166  14.579  40.537   4.747
47006W        W12167  37.396  37.147   3.050
47007W        W12168   3.718  33.326  10.106
47008W        W12169   0.885  16.173   4.546
47009W        W12170  44.383   0.684  11.507
47010W        W12171  12.232  20.215   2.358
47011W        W12172  30.587   8.764  13.985
47012W        W12173  24.962  28.555  12.075
47013W        W12174  24.613  14.453   0.816
47014W        W12175  22.573   1.466  11.004
47015W        W12176  17.013  11.087   2.143
47016W        W12177   1.519  13.757  13.495
47017W        W12178  19.139  10.171  14.005
47018W        W12179  43.255  34.924  13.453
47019W        W12180  38.170  37.881  14.539
47020W        W12181  38.613  21.033  12.803
47021W        W12182  26.276   1.840   2.139
47022W        W12183  32.232  23.487   1.266
47023W        W12184  20.657  40.244   1.397
47024W        W12185  15.616   2.798  12.766
47025W        W12186   8.451  33.612   2.957
47026W        W12187  33.140  24.674   1.710
47027W        W12188  10.234  10.067   0.151
47028W        W12189  17.254  32.316  11.964
47029W        W12190  32.006  38.532  14.954
47030W        W12191  11.840  41.858   3.741
47031W        W12192  25.022   2.906  13.172
47032W        W12193  23.785  39.467   2.314
47033W        W12194   4.494  10.668   3.723
47034W        W12195   9.090   5.310   1.341
47035W        W12196   9.127   8.749  11.701
47036W        W12197  22.312  14.161  12.355
47037W        W12198  39.361  12.175  13.487
47038W        W12199  28.893  15.243  13.990
47039W        W12200  13.540   5.284   1.792
47040W        W12201  32.048   1.435   4.106
47041W        W12202  14.798  28.935   1.889
47042W        W12203   1.045  38.538  12.150
47043W        W12204   0.573  31.252  11.997
47044W        W12205  15.085   7.313   0.184
47045W        W12206  35.546  24.884   3.556
47046W        W12207   2.843  11.392   0.298
47047W        W12208  25.731  28.901   2.288
47048W        W12209  17.722  29.937  11.090
47049W        W12210  17.823   1.400   1.442
47050W        W12211  11.154  21.106  13.353
47051W        W12212   6.824  30.924   4.665
47052W        W12213  23.137  26.056  13.603
47053W        W12214  16.884  31.373  12.478
47054W        W12215  33.758  13.550   0.984
47055W        W12216  11.503   0.235  13.378
47056W        W12217  15.718  32.652  11.446
47057W        W12218  27.015  18.216  13.911
47058W        W12219   4.711   8.481   1.263
47059W        W12220  35.640   7.374   0.975
47060W        W12221   2.704  13.744  13.108
47061W        W12222  33.383  40.924   4.176
47062W        W12223  22.622  27.633   1.370
47063W        W12224   1.476  31.555   2.860
47064W        W12225  37.333   4.363  14.273
47065W        W12226  40.971  24.671  10.741
47066W        W12227  25.740  37.514   1.345
47067W        W12228   7.772  18.051  14.021
47068W        W12229  33.896  20.020   3.750
47069W        W12230  24.247  42.860   2.359
47070W        W12231  18.181  23.291   3.234
47071W        W12232  25.010  38.879  11.975
47072W        W12233  35.312   7.368   1.390
47073W        W12234  17.126   2.141  11.767
47074W        W12235  10.058   4.845   2.782
47075W        W12236  36.292   9.944   0.679
47076W        W12237   4.943  41.966  14.432
47077W        W12238   7.806   0.810  14.244
47078W        W12239  25.153   9.011  10.511
47079W        W12240  38.484  15.083   0.553
47080W        W12241  19.974   4.470   2.768
47081W        W12242   6.227  33.340  12.453
47082W        W12243  26.232  33.918   1.355
47083W        W12244  23.155   1.772   1.662
47084W        W12245  41.703  24.072  10.361
47085W        W12246   9.636  11.649   3.631
47086W        W12247  36.671  27.838   4.301
47087W        W12248   7.798  16.096  10.398
47088W        W12249  26.604  15.215  10.260
47089W        W12250  13.261  28.088  11.623
47090W        W12251  15.611   7.855   4.747
47091W        W12252  18.059  43.801   3.718
47092W        W12253  35.586  36.340   0.335
47093W        W12254  25.409  25.001   4.108
47094W        W12255  10.304   2.289   3.917
47095W        W12256   3.894  21.071  12.354
47096W        W12257  30.041   4.204  14.243
47097W        W12258  38.993   6.728   4.638
47098W        W12259  22.622   8.617  13.321
47099W        W12260  21.966  43.336   3.359
47100W        W12261  32.932  16.985  12.040
47101W        W12262  44.042  44.404   2.944
47102W        W12263  25.791  30.184  12.151
47103W        W12264  33.486  28.853  14.450
47104W        W12265  28.189  21.543  14.765
47105W        W12266  22.148  26.520  12.003
47106W        W12267  17.169  19.666  11.985
47107W        W12268  36.586  44.050   0.952
47108W        W12269   7.138   0.150  11.065
47109W        W12270  29.409   8.448  13.474
47110W        W12271  39.123   7.757   3.186
47111W        W12272   0.894  44.298   4.007
47112W        W12273  41.859   0.246  12.452
47113W        W12274  35.813  38.564   2.195
47114W        W12275   7.358   1.785   2.644
47115W        W12276  42.716  38.838   1.314
47116W        W12277   0.356  10.489   2.361
47117W        W12278  29.925   4.178   3.767
47118W        W12279   2.413  14.435   5.350
47119W        W12280  40.831  11.728  10.799
47120W        W12281  31.144  13.546   3.633
47121W        W12282  10.350  39.467   1.285
47122W        W12283  32.783  32.313   1.019
47123W        W12284   3.706   0.887   3.857
47124W        W12285  34.604   4.165  12.226
47125W        W12286  35.623  36.001  10.619
47126W        W12287  20.614  34.913  13.358
47127W        W12288  26.119   3.969   4.626
47128W        W12289  28.881   8.379  13.397
47129W        W12290  15.670  26.801   3.182
47130W        W12291  35.977  26.237   0.985
47131W        W12292   8.055  26.983  11.134
47132W        W12293   6.839  30.154   9.822
47133W        W12294  10.040  41.234  14.455
47134W        W12295  23.694  13.610   3.868
47135W        W12296   0.791   6.881   0.083
47136W        W12297  22.999  43.512   0.336
47137W        W12298  22.997  18.296   4.612
47138W        W12299   9.520   7.256  12.796
47139W        W12300   9.410  43.793  10.606
47140W        W12301   6.048  21.012   0.411
47141W        W12302  13.899  27.104  13.892
47142W        W12303  39.304  43.976   2.233
47143W        W12304  22.058  26.031   5.521
47144W        W12305  22.989  23.975  13.537
47145W        W12306  22.441  43.769  12.591
47146W        W12307  10.168   2.241   1.496
47147W        W12308  22.207  36.829  11.642
47148W        W12309  40.605  31.664   0.547
47149W        W12310  31.328  38.935   3.678
47150W        W12311  41.336  17.589  11.481
47151W        W12312  22.249  20.254  13.978
47152W        W12313  39.465  36.934   4.502
47153W        W12314  38.909  12.725  11.866
47154W        W12315  20.764  20.138   4.022
47155W        W12316   8.887  35.422  13.798
47156W        W12317  11.867  12.841   2.741
47157W        W12318  35.828  11.624  13.888
47158W        W12319  35.705  18.240  11.873
47159W        W12320  29.054  42.891  10.685
47160W        W12321  15.097  12.687   0.741
47161W        W12322  14.257  42.408  14.838
47162W        W12323  10.663  13.653   2.609
47163W        W12324  36.884   8.401  13.014
47164W        W12325  37.909  12.703   4.744
47165W        W12326  31.976   6.846  14.418
47166W        W12327  26.918   0.013  14.491
47167W        W12328   7.445  15.243  12.980
47168W        W12329  34.210  14.401   1.205
47169W        W12330  16.132  38.215   0.044
47170W        W12331  10.874  32.621   3.055
47171W        W12332  20.171  43.802  11.537
47172W        W12333  36.620  30.085   1.007
47173W        W12334   2.245  23.340   0.420
47174W        W12335  40.480  25.028   1.474
47175W        W12336   7.700   7.244  11.409
47176W        W12337  43.355  10.609   1.819
47177W        W12338   2.284  14.224   3.331
47178W        W12339  41.879  10.118   0.523
47179W        W12340  12.721  12.492  13.393
47180W        W12341  28.002  21.639   3.136
47181W        W12342  37.842  32.604  13.561
47182W        W12343  11.725  15.998  11.162
47183W        W12344   8.863  26.153  14.859
47184W        W12345  14.800  16.749   2.452
47185W        W12346  28.374  28.142   1.791
47186W        W12347   6.461  33.991   0.991
47187W        W12348   9.775  21.607  11.130
47188W        W12349   6.745  29.310  14.292
47189W        W12350  29.407  40.126  10.625
47190W        W12351  29.612  33.135   4.497
47191W        W12352   8.664  29.296  12.049
47192W        W12353  11.689  22.045   4.628
47193W        W12354  18.268  42.550   3.197
47194W        W12355  24.161  37.174  12.277
47195W        W12356  17.350   7.700   1.474
47196W        W12357  28.897  28.254   2.662
47197W        W12358  44.088  31.486   3.324
47198W        W12359  29.284  12.152  13.380
47199W        W12360  14.287  20.770  11.974
47200W        W12361  12.539   9.758   2.208
47201W        W12362  14.629   7.958  11.907
47202W        W12363   9.674  44.922   4.344
47203W        W12364  29.810  21.625   3.247
47204W        W12365  31.666  22.424  13.071
47205W        W12366  35.170  44.821   2.789
47206W        W12367   8.768  12.251   2.343
47207W        W12368   2.703  21.712  12.304
47208W        W12369  39.578  41.623   3.648
47209W        W12370   9.057  38.410   9.844
47210W        W12371   0.187   7.810  10.494
47211W        W12372  34.700   1.163  10.693
47212W        W12373   4.343  33.559  11.947
47213W        W12374  37.523   3.742   2.544
47214W        W12375  32.519  31.630   2.281
47215W        W12376  26.187  25.007  12.526
47216W        W12377  30.993  29.075   4.880
47217W        W12378  28.088  39.156   2.617
47218W        W12379  13.413  34.017  13.570
47219W        W12380  39.310  27.562  10.561
47220W        W12381  11.611  20.653   1.319
47221W        W12382  10.348  24.051   2.340
47222W        W12383  17.364  41.071   3.089
47223W        W12384  23.813  30.410   3.955
47224W        W12385  13.077  24.924  13.945
47225W        W12386  36.858  17.697  10.764
47226W        W12387  10.686  18.475  13.824
47227W        W12388  27.333  41.329   0.710
47228W        W12389   8.970   8.915  13.229
47229W        W12390  17.845   0.864   0.158
47230W        W12391   9.098  27.988   1.276
47231W        W12392   7.286  27.377   1.226
47232W        W12393  22.316  44.219  11.099
47233W        W12394  16.403   5.422  12.013
47234W        W12395  35.398  11.834  12.104
47235W        W12396  19.764   4.211   0.855
47236W        W12397  15.301  12.343  11.610
47237W        W12398  24.613  24.557  14.042
47238W        W12399  36.506  23.171   0.430
47239W        W12400  35.888   1.698  12.348
47240W        W12401   2.804   0.285  11.088
47241W        W12402  18.107  44.860   1.490
47242W        W12403  13.255  23.421   2.936
47243W        W12404  40.379  29.981  14.957
47244W        W12405  44.003  26.188   3.808
47245W        W12406  38.562  17.507  13.003
47246W        W12407  27.490  33.364  14.443
47247W        W12408  19.345   1.485   3.856
47248W        W12409  36.842  13.129  11.958
47249W        W12410  36.564  40.839   3.397
47250W        W12411  27.282  10.852  13.782
47251W        W12412   4.689  44.342  10.710
47252W        W12413  36.843  17.989   2.921
47253W        W12414  29.998  33.138   4.135
47254W        W12415  16.209  36.784   1.922
47255W        W12416   4.281  35.681   4.126
47256W        W12417  36.835  29.486  12.010
47257W        W12418  11.349  27.737   2.600
47258W        W12419  12.391   8.372   3.292
47259W        W12420  36.054  43.306  13.411
47260W        W12421   7.685  22.597  11.929
47261W        W12422  20.297  20.257   4.210
47262W        W12423  43.488   3.154   2.790
47263W        W12424   7.481   8.163  14.049
47264W        W12425  16.791  16.567  13.783
47265W        W12426  29.155   9.325  10.927
47266W        W12427  43.677  31.056  11.532
47267W        W12428  15.310   5.056   3.455
47268W        W12429  38.459  37.496   2.179
47269W        W12430  41.558  35.487  14.927
47270W        W12431  44.853   2.852   4.382
47271W        W12432   5.785  44.268   4.028
47272W        W12433  42.878  39.954   3.328
47273W        W12434   0.216  39.376  13.374
47274W        W12435  37.920   6.046   1.592
47275W        W12436  25.335  40.423  12.663
47276W        W12437  40.250  39.495   1.742
47277W        W12438  44.393   7.476   3.594
47278W        W12439  37.526  36.399  12.604
47279W        W12440   0.378  36.072   2.654
47280W        W12441  40.364  20.740   0.727
47281W        W12442  40.300  10.340   3.784
47282W        W12443  14.283  16.773  12.110
47283W        W12444  28.147  34.194  12.507
47284W        W12445   1.800  19.608  12.145
47285W        W12446  16.975   5.639  12.045
47286W        W12447  44.487  16.095   4.313
47287W        W12448  37.804  44.009  10.145
47288W        W12449  19.069   6.710  13.365
47289W        W12450  16.236   9.201  12.450
47290W        W12451   1.044  13.155  13.014
47291W        W12452  27.102  36.111  12.979
47292W        W12453  14.467  31.446   4.993
47293W        W12454   1.408   9.152  12.867
47294W        W12455  44.345  24.722   4.167
47295W        W12456  20.159  11.927  14.387
47296W        W12457  40.716   4.149   1.846
47297W        W12458  33.073   2.407  10.693
47298W        W12459   2.773  31.353   1.906
47299W        W12460  30.469  22.507  11.524
47300W        W12461  39.844  21.657   3.193
47301W        W12462  21.172  42.364   4.946
47302W        W12463  33.130  11.363  14.903
47303W        W12464  11.444  20.980  11.997
47304W        W12465  28.090  18.041  10.398
47305W        W12466  44.244  31.427   0.910
47306W        W12467  18.067  30.027  11.928
47307W        W12468   4.753   2.469   0.309
47308W        W12469  27.170  33.890  12.073
47309W        W12470  17.648   7.276  12.459
47310W        W12471  38.483  40.618   4.702
47311W        W12472  44.268  44.325  10.061
47312W        W12473   6.663  39.686  12.377
47313W        W12474  30.555  22.722   9.901
47314W        W12475  27.929  13.276  12.883
47315W        W12476   7.716  39.312  11.900
47316W        W12477  27.865  33.351  12.437
47317W        W12478  40.068   9.061  12.049
47318W        W12479  10.777  43.259  13.898
47319W        W12480  21.689  10.491  10.760
47320W        W12481   4.150  17.143  13.027
47321W        W12482  26.203  25.746   2.919
47322W        W12483  38.711  33.017   4.136
47323W        W12484  28.132  22.306   1.268
47324W        W12485  40.893   1.233  13.474
47325W        W12486  36.631  34.629  13.420
47326W        W12487  15.172   0.891   4.298
47327W        W12488  30.647   3.775  10.674
47328W        W12489  13.562  19.523  12.993
47329W        W12490   7.829  14.586  10.364
47330W        W12491  29.843  36.499   2.638
47331W        W12492  16.947  22.455  11.170
47332W        W12493   2.442  40.832   2.626
47333W        W12494  28.393  22.218  13.069
47334W        W12495   1.684   3.228   1.218
47335W        W12496   4.156  23.055   2.217
47336W        W12497  36.644  42.422  10.444
47337W        W12498  29.095   7.889   1.221
47338W        W12499  24.066  21.772   0.519
47339W        W12500  41.337   6.847  10.664
47340W        W12501  35.559  30.111  11.145
47341W        W12502  13.143   0.831  14.857
47342W        W12503  30.077  18.585   2.488
47343W        W12504   6.233  15.332  11.548
47344W        W12505  14.105  32.959  13.918
47345W        W12506  39.495   4.057   0.062
47346W        W12507  17.331  34.374   2.486
47347W        W12508  43.137  43.151  11.049
47348W        W12509  32.062   8.044   2.196
47349W        W12510  26.625  29.874   3.286
47350W        W12511  22.744   2.960   0.308
47351W        W12512   8.897   7.146  11.162
47352W        W12513  18.812  12.085  13.759
47353W        W12514  19.606  36.435  12.179
47354W        W12515  16.225   7.605  11.154
47355W        W12516  19.339  34.842  11.135
47356W        W12517  43.817   3.973   2.510
47357W        W12518  34.314  42.357  13.753
47358W        W12519   5.699  44.370   3.541
47359W        W12520  13.552  42.949   5.041
47360W        W12521  20.618  31.569  13.023
47361W        W12522  29.557  32.772  14.741
47362W        W12523   3.728   2.511  11.574
47363W        W12524  10.472  12.815   3.774
47364W        W12525   3.638  33.503  11.571
47365W        W12526  41.400  16.311   1.430
47366W        W12527  38.069  41.510   2.112
47367W        W12528  35.507  41.445  13.453
47368W        W12529  38.476  38.153  11.419
47369W        W12530   2.961   7.258  12.569
47370W        W12531  32.022  34.152  12.454
47371W        W12532  14.986  21.776  12.404
47372W        W12533  22.617  19.783   3.260
47373W        W12534   6.283   9.618   0.287
47374W        W12535   5.838  10.433   4.804
47375W        W12536  15.366   9.642  13.504
47376W        W12537  33.497  43.731   0.234
47377W        W12538  25.678   8.816  12.824
47378W        W12539  11.527  31.997  12.867
47379W        W12540  25.421  43.016  12.896
47380W        W12541  20.299  33.456   0.779
47381W        W12542  29.476  39.216   4.127
47382W        W12543  16.805  31.052   0.188
47383W        W12544  31.068  23.735  10.798
47384W        W12545  24.975  12.756  11.847
47385W        W12546  28.282  21.202   2.446
47386W        W12547   7.317  42.408   4.237
47387W        W12548  31.257  11.655   4.460
47388W        W12549  24.216  36.680  12.083
47389W        W12550   1.742  15.043   5.579
47390W        W12551  30.466  27.149   0.427
47391W        W12552  29.920   0.176   4.445
47392W        W12553  37.768  14.650   3.338
47393W        W12554  29.238  26.654  12.348
47394W        W12555   2.007  38.027   1.431
47395W        W12556  18.235  31.386  12.143
47396W        W12557  38.185  32.958  11.042
47397W        W12558  10.661  13.798   3.619
47398W        W12559   9.347   0.877  14.852
47399W        W12560   5.225  30.302   3.179
47400W        W12561  40.447  35.025   1.807
47401W        W12562  14.949   9.591  11.163
47402W        W12563  25.554  41.399   5.030
47403W        W12564  32.690  41.109   3.450
47404W        W12565  12.632   6.928   3.215
47405W        W12566  22.386  12.962   9.824
47406W        W12567  26.342  35.963   0.687
47407W        W12568  33.106  10.190  14.639
47408W        W12569   0.706  22.035   3.571
47409W        W12570  10.802  23.477  11.987
47410W        W12571  10.396  44.025   1.886
47411W        W12572  24.365  31.480  11.923
47412W        W12573   5.405   0.977  11.120
47413W        W12574   9.110  42.854   0.462
47414W        W12575   0.186  36.107  13.446
47415W        W12576   9.554  34.768  11.189
47416W        W12577  21.712  31.071   4.041
47417W        W12578  44.478  18.642  13.989
47418W        W12579  15.588  24.917   1.446
47419W        W12580  30.929   8.783   2.411
47420W        W12581   5.338  25.338  12.468
47421W        W12582   2.008  37.047  12.514
47422W        W12583  26.476  20.450  10.806
47423W        W12584  28.411  28.028  11.140
47424W        W12585   8.221  25.709  11.621
47425W        W12586  22.969  29.559  13.693
47426W        W12587  13.426  25.691  11.534
47427W        W12588  25.588  13.388  12.614
47428W        W12589  41.077   8.421   1.864
47429W        W12590   3.300   6.260  12.097
47430W        W12591  44.249  19.288   5.019
47431W        W12592  37.119  11.328  11.203
47432W        W12593  42.055  30.440  13.119
47433W        W12594  38.352  36.539  11.182
47434W        W12595  29.537   9.649  10.977
47435W        W12596   7.844   2.539  11.582
47436W        W12597  40.170  32.048  11.031
47437W        W12598   1.521  26.778  13.015
47438W        W12599  36.545  14.417   4.789
47439W        W12600   0.993  35.821  10.714
47440W        W12601  36.394  31.900  11.608
47441W        W12602  18.736  34.053  12.961
47442W        W12603  18.760  29.715  14.090
47443W        W12604   9.517  22.958   4.586
47444W        W12605   5.533  36.873   3.255
47445W        W12606  10.151   5.180  11.835
47446W        W12607   7.897   9.060   1.297
47447W        W12608  39.483  42.460   4.146
47448W        W12609   4.892  35.232   3.609
47449W        W12610  36.492  36.045   1.020
47450W        W12611  26.749  25.134   0.412
47451W        W12612  27.742   9.160  13.227
47452W        W12613  33.920  14.233  14.805
47453W        W12614  33.478  36.600   0.700
47454W        W12615   0.369  38.336  11.592
47455W        W12616  33.899  17.725   1.750
47456W        W12617  16.996   4.287   2.312
47457W        W12618  37.814  19.747   2.312
47458W        W12619  34.729  19.285  14.279
47459W        W12620  17.252   5.462  14.104
47460W        W12621  44.365  43.226   3.296
47461W        W12622  28.698  23.571   1.263
47462W        W12623  42.875  28.203  12.065
47463W        W12624  37.076  10.759  11.856
47464W        W12625   0.952  40.043  12.511
47465W        W12626  14.700  14.598   3.879
47466W        W12627  17.302  16.528  13.921
47467W        W12628  26.298  20.874   1.759
47468W        W12629  41.261  29.006   2.566
47469W        W12630  29.385  25.497   2.759
47470W        W12631  17.139  34.163  12.066
47471W        W12632  33.250  42.680  14.344
47472W        W12633  12.051  36.903  12.691
47473W        W12634   5.917  33.435   2.818
47474W        W12635  19.808  40.296   1.852
47475W        W12636  38.733  37.996  14.812
47476W        W12637  37.452  11.687   2.705
47477W        W12638  16.800  18.622   2.188
47478W        W12639   8.568  28.791  12.002
47479W        W12640   0.990  29.018   3.045
47480W        W12641  31.696  44.521  11.036
47481W        W12642  34.187  12.704   2.693
47482W        W12643  27.802  19.496  12.872
47483W        W12644  15.248  18.515  12.941
47484W        W12645   1.325  24.186   4.180
47485W        W12646   3.599  33.002  13.582
47486W        W12647  38.372  36.236  13.816
47487W        W12648  10.471  42.877   1.787
47488W        W12649  28.749  28.993  13.458
47489W        W12650  35.146   2.503   2.781
47490W        W12651  20.053  14.253   4.979
47491W        W12652  27.094  22.018  11.471
47492W        W12653  34.372  27.042   2.437
47493W        W12654  17.063  42.378  13.847
47494W        W12655   2.796  13.090   0.961
47495W        W12656  34.443  11.925  14.561
47496W        W12657  29.172  34.821  11.530
47497W        W12658  34.061  34.523  13.353
47498W        W12659   8.397  39.954  11.899
47499W        W12660   9.677   8.356  13.773
47500W        W12661  34.338   1.215   4.174
47501W        W12662  20.584   0.363  12.471
47502W        W12663  11.085  11.837  13.362
47503W        W12664  31.412  34.912  10.593
47504W        W12665  21.855   6.376  10.575
47505W        W12666  20.952  43.971  11.205
47506W        W12667  12.136  14.185   2.378
47507W        W12668  12.242   4.271  13.446
47508W        W12669  13.943  18.438   2.728
47509W        W12670  27.583  41.278   3.198
47510W        W12671  10.224  26.908   2.188
47511W        W12672   2.973  13.662  12.669
47512W        W12673  28.665  19.534   0.435
47513W        W12674   2.895  18.131   1.774
47514W        W12675  21.687  32.839   2.666
47515W        W12676  16.673  37.607   1.414
47516W        W12677   9.793  29.094  14.273
47517W        W12678  28.454  17.995   2.586
47518W        W12679  24.938  20.963   3.118
47519W        W12680  34.374  16.150   2.178
47520W        W12681  24.150  16.841  14.537
47521W        W12682   2.816  30.906   3.325
47522W        W12683  40.744  36.166  12.806
47523W        W12684  41.870  30.522  12.646
47524W        W12685   0.371  22.182   1.709
47525W        W12686  34.966  23.196   1.455
47526W        W12687  26.667  35.093  10.726
47527W        W12688  16.718  30.201   4.854
47528W        W12689  38.653  25.266   0.282
47529W        W12690  36.631  33.306   1.316
47530W        W12691  27.763  10.377  12.377
47531W        W12692  34.685  41.593  10.373
47532W        W12693   6.972  33.152  13.216
47533W        W12694  38.160  18.741  11.589
47534W        W12695  21.321  18.311   4.289
47535W        W12696  43.152   3.933   1.763
47536W        W12697  31.037  18.754   3.563
47537W        W12698  41.347   7.888   3.594
47538W        W12699  20.221   3.921   0.657
47539W        W12700  14.845   0.813   0.072
47540W        W12701  33.962   4.295  14.916
47541W        W12702  12.611  10.599   3.369
47542W        W12703  21.976  32.673  13.046
47543W        W12704   2.313  11.246  12.326
47544W        W12705  12.615   1.612  14.835
47545W        W12706  36.789  19.432   4.634
47546W        W12707  14.298  13.155  12.404
47547W        W12708   5.645   2.156  11.745
47548W        W12709   3.033  26.626   0.575
47549W        W12710  18.797  14.345  14.568
47550W        W12711   2.515  38.333  12.995
47551W        W12712  38.002  43.996   1.712
47552W        W12713  35.790   9.355   4.881
47553W        W12714   6.132  24.019  11.952
47554W        W12715  15.083  42.230  11.905
47555W        W12716  22.241  11.167  11.079
47556W        W12717  20.913  37.332   0.215
47557W        W12718  12.325   1.346   2.929
47558W        W12719   5.772  21.210  10.653
47559W        W12720  21.844  17.114  14.914
47560W        W12721  26.411  44.679   3.578
47561W        W12722  15.290  30.455  12.603
47562W        W12723  24.005  18.920   5.376
47563W        W12724  31.813   6.792  13.923
47564W        W12725  14.048  35.617   0.360
47565W        W12726  32.493  44.252  13.414
47566W        W12727   3.348  40.811   4.375
47567W        W12728  23.964  22.999   0.087
47568W        W12729  37.927  35.643   0.924
47569W        W12730  18.316  17.292   0.920
47570W        W12731  18.590  32.133  10.273
47571W        W12732  39.911  21.483   1.823
47572W        W12733   2.473  16.768   9.922
47573W        W12734  38.872  37.638   1.406
47574W        W12735   5.961  32.115   2.277
47575W        W12736   5.991  32.132  12.027
47576W        W12737   4.073   8.668  14.649
47577W        W12738  22.508  20.293  10.869
47578W        W12739   7.900  31.904   1.895
47579W        W12740  41.115  44.592  12.950
47580W        W12741  14.758  25.432   4.064
47581W        W12742  35.626  19.504   1.301
47582W        W12743  31.824  26.064  13.999
47583W        W12744  15.498  22.765  14.078
47584W        W12745   5.587   5.875  14.463
47585W        W12746  16.499  42.474   0.992
47586W        W12747  10.616  10.420   0.100
47587W        W12748  33.504   0.787  13.489
47588W        W12749  19.676  38.969  11.009
47589W        W12750  39.881  10.710   2.315
47590W        W12751   0.415  44.565   4.738
47591W        W12752   7.482   8.467   1.417
47592W        W12753  42.018   1.481  13.365
47593W        W12754  26.988   3.964  13.835
47594W        W12755   5.343  11.517  13.772
47595W        W12756   8.392  13.412  10.752
47596W        W12757  27.563  23.584   4.067
47597W        W12758  29.188  27.483  13.992
47598W        W12759  10.836  37.636   1.523
47599W        W12760  21.043  30.147   4.600
47600W        W12761   9.339  27.592  14.539
47601W        W12762  19.553  33.349  12.453
47602W        W12763  36.243  42.121   4.521
47603W        W12764   7.926   0.241   3.752
47604W        W12765  16.584  14.109   4.546
47605W        W12766   3.683  32.821  14.086
47606W        W12767  35.598  15.402  12.987
47607W        W12768  34.597  31.170   0.181
47608W        W12769   3.165   5.725  11.281
47609W        W12770  22.281   6.614  12.239
47610W        W12771  19.169  23.025   0.432
47611W        W12772  35.929  29.435  13.447
47612W        W12773  27.521  22.851  12.806
47613W        W12774  28.823  36.032   3.828
47614W        W12775   5.344  15.684   3.045
47615W        W12776  22.117  12.341  14.786
47616W        W12777  35.894   7.097   0.390
47617W        W12778  14.825  22.660   4.768
47618W        W12779   6.220   6.682  10.749
47619W        W12780   3.794  44.199   4.587
47620W        W12781  14.131   3.813  13.033
47621W        W12782  31.444  38.759  13.995
47622W        W12783  12.983  43.342   1.826
47623W        W12784   4.869  42.709   3.702
47624W        W12785  14.136  31.508  10.628
47625W        W12786   2.238  40.646  11.064
47626W        W12787  18.205  30.066   4.545
47627W        W12788  27.405  26.559   4.740
47628W        W12789   9.492   3.753   1.135
47629W        W12790  32.558   3.343  13.257
47630W        W12791   2.310   4.643   3.272
47631W        W12792   0.258  17.572   3.251
47632W        W12793  20.029  36.645  10.589
47633W        W12794  27.878  29.950   4.177
47634W        W12795  16.370   5.359   4.326
47635W        W12796  41.448   0.305  12.027
47636W        W12797   3.138  11.144  11.932
47637W        W12798  29.229  43.882   0.319
47638W        W12799   0.230  12.812   0.905
47639W        W12800  31.564   7.497   4.445
47640W        W12801  33.439  43.730   1.624
47641W        W12802  12.884  23.142   3.156
47642W        W12803  14.280  39.312  14.649
47643W        W12804  28.141  38.812   1.227
47644W        W12805   7.157   7.848   4.066
47645W        W12806  14.254   2.509  13.712
47646W        W12807  17.338  20.740   0.902
47647W        W12808  11.251  28.944   2.294
47648W        W12809  35.532  19.326   4.055
47649W        W12810   0.728  25.113   2.659
47650W        W12811  26.465  25.139  11.358
47651W        W12812  28.609  16.848  13.040
47652W        W12813   3.079  13.069  12.013
47653W        W12814   6.205  36.466   0.873
47654W        W12815   9.948  27.455   1.747
47655W        W12816  37.466  16.661   2.213
47656W        W12817  26.932  14.787  10.308
47657W        W12818  34.101   9.886  11.919
47658W        W12819  11.625  20.025   4.462
47659W        W12820  14.673   7.209  12.160
47660W        W12821  21.662   8.864   3.280
47661W        W12822   3.942  14.578   3.744
47662W        W12823   2.944  26.133  11.974
47663W        W12824  44.844   4.486  13.815
47664W        W12825  20.752  17.587  13.328
47665W        W12826  25.284  32.093   1.138
47666W        W12827  11.035  20.573   3.166
47667W        W12828  31.064  28.903  14.526
47668W        W12829   6.298   3.265  10.157
47669W        W12830  34.597   7.184   1.743
47670W        W12831  16.368  11.693  11.177
47671W        W12832  21.103  30.987  11.955
47672W        W12833  11.400   3.090   0.174
47673W        W12834  28.528  27.591   5.082
47674W        W12835  40.987  42.637   1.373
47675W        W12836  42.628  20.984  14.682
47676W        W12837  27.728   2.744  12.528
47677W        W12838  30.886  42.151   2.462
47678W        W12839  14.851  41.047   3.222
47679W        W12840  25.689  21.326  14.400
47680W        W12841  31.127  21.054   3.124
47681W        W12842  21.589  20.582  14.463
47682W        W12843  25.638   2.262   2.694
47683W        W12844   6.013  31.494   0.701
47684W        W12845  16.136  12.211   0.442
47685W        W12846  34.516  10.170  12.581
47686W        W12847  10.183  41.480  13.068
47687W        W12848  18.537  30.529   0.089
47688W        W12849  28.567  26.388  12.031
47689W        W12850  19.331   0.848  12.564
47690W        W12851  35.810  25.760   0.962
47691W        W12852  38.447  30.750   3.262
47692W        W12853  15.555  23.918  14.999
47693W        W12854  32.522  22.597  11.703
47694W        W12855   2.352  36.310   1.688
47695W        W12856  41.983  26.235   3.341
47696W        W12857  16.777  42.799  12.009
47697W        W12858  17.723  19.785  14.960
47698W        W12859  34.885  27.928   4.505
47699W        W12860  41.335  34.389   1.805
47700W        W12861   0.270  23.570  12.139
47701W        W12862  31.456  13.235   3.304
47702W        W12863  38.943  19.248  11.828
47703W        W12864   9.818  22.246   0.478
47704W        W12865   2.414  40.214  12.880
47705W        W12866  39.271  34.458  12.048
47706W        W12867  15.926   1.685   0.866
47707W        W12868  18.756  11.875  14.748
47708W        W12869  30.941   9.639   2.856
47709W        W12870  25.039  14.775   4.394
47710W        W12871  30.990  11.180  11.099
47711W        W12872  36.504  35.019   1.969
47712W        W12873  40.764   9.581   3.409
47713W        W12874  42.324  12.944   1.497
47714W        W12875  36.108  23.055  12.884
47715W        W12876  11.643  41.956   0.077
47716W        W12877  39.851   2.924  14.446
47717W        W12878  18.217  41.431   0.538
47718W        W12879  25.304  33.542  12.991
47719W        W12880   1.085  10.935   3.262
47720W        W12881   2.781  20.704   1.817
47721W        W12882  10.808  36.062  12.393
47722W        W12883   5.073   3.559   1.391
47723W        W12884   5.648  42.432   2.469
47724W        W12885   6.451   7.621  14.999
47725W        W12886   6.929  36.203  11.309
47726W        W12887  15.222  31.993  13.882
47727W        W12888  15.145  24.505   3.931
47728W        W12889  23.076  12.845  11.970
47729W        W12890   2.195  43.218   2.763
47730W        W12891  14.366  26.249   2.925
47731W        W12892  44.212   7.772  13.910
47732W        W12893   8.332  11.763  12.464
47733W        W12894  33.563  12.755  14.136
47734W        W12895  37.944  34.826   2.211
47735W        W12896  16.728  10.216  11.033
47736W        W12897  11.861  31.361   0.311
47737W        W12898  18.654  20.124   0.327
47738W        W12899  42.069  29.009  14.917
47739W        W12900  40.523  29.058  14.885
47740W        W12901   8.382   4.725  14.741
47741W        W12902  30.571   8.873  11.179
47742W        W12903  18.562  33.275  12.511
47743W        W12904  36.353  24.976   4.235
47744W        W12905   3.071  27.160  12.837
47745W        W12906  30.016  20.241   3.220
47746W        W12907   4.337  26.738   1.706
47747W        W12908  40.010  18.187   4.575
47748W        W12909  42.820   9.060  11.623
47749W        W12910   4.244  21.618   4.337
47750W        W12911  11.092  25.633   0.923
47751W        W12912  37.368  16.617  14.814
47752W        W12913  34.915   4.844   0.266
47753W        W12914   7.561  22.430  11.079
47754W        W12915  27.257  33.838  10.498
47755W        W12916  34.450  44.788  11.678
47756W        W12917   6.059  43.975   3.570
47757W        W12918  33.573   2.814   2.199
47758W        W12919  22.126  16.899  14.468
47759W        W12920  21.764  30.487  10.726
47760W        W12921  36.794   1.337  13.643
47761W        W12922  25.997  22.196   0.711
47762W        W12923  17.494  13.897   4.638
47763W        W12924  26.563  16.236  12.881
47764W        W12925  42.406  24.906   3.567
47765W        W12926  12.683  25.482  12.117
47766W        W12927  16.081  40.095  14.810
47767W        W12928   0.783  29.483  11.616
47768W        W12929  32.879  22.763   1.813
47769W        W12930  37.331  16.363   0.779
47770W        W12931  17.947  43.125  12.843
47771W        W12932   9.259  16.617  13.368
47772W        W12933  29.720  11.714   3.612
47773W        W12934  14.684  34.488   1.811
47774W        W12935  12.067  16.541   1.687
47775W        W12936  16.783  44.438   4.539
47776W        W12937  34.868  20.518  12.516
47777W        W12938  21.148  18.807  14.810
47778W        W12939  17.579  40.284  12.791
47779W        W12940  13.913  22.267   3.341
47780W        W12941  21.758  15.236  13.981
47781W        W12942  11.757   5.892  12.846
47782W        W12943  32.329  20.683   2.221
47783W        W12944  22.125  22.195  11.796
47784W        W12945  23.038   6.480  10.724
47785W        W12946  41.791   3.174  11.615
47786W        W12947  28.592   3.024  10.664
47787W        W12948   6.362   8.717   3.787
47788W        W12949   4.235  20.942   0.090
47789W        W12950  12.387  12.670  12.413
47790W        W12951   4.793  23.120  10.251
47791W        W12952   3.716  17.176  12.071
47792W        W12953  39.949  18.237   0.805
47793W        W12954  27.884  30.392  11.363
47794W        W12955  14.737  36.010  11.681
47795W        W12956  17.020  32.045   3.618
47796W        W12957  10.440  35.382  14.355
47797W        W12958  29.116  42.425  12.770
47798W        W12959  16.661  29.040   1.158
47799W        W12960  26.324  39.945  12.959
47800W        W12961  41.239  38.105   3.270
47801W        W12962   1.231  37.193  14.440
47802W        W12963  15.706   4.850   4.619
47803W        W12964  21.583  26.949  10.677
47804W        W12965  13.891   8.933  13.981
47805W        W12966  35.470   6.084  11.059
47806W        W12967   1.965  24.047  11.031
47807W        W12968   6.803   8.149   3.034
47808W        W12969   2.016  13.237  12.025
47809W        W12970   5.260  18.647   4.183
47810W        W12971  31.292  19.534  12.612
47811W        W12972  22.750  18.023   4.243
47812W        W12973  41.917  26.689  10.276
47813W        W12974  19.353  37.663  11.574
47814W        W12975   1.869   4.892   3.271
47815W        W12976   3.811  10.127   4.549
47816W        W12977  25.849  13.066  10.750
47817W        W12978  17.257  40.329  11.600
47818W        W12979  10.328  41.019  13.319
47819W        W12980   7.687  10.255   1.798
47820W        W12981  40.556   1.234  12.009
47821W        W12982  37.037  14.961   0.556
47822W        W12983  36.525  31.767   2.463
47823W        W12984  30.930   6.335  13.836
47824W        W12985  22.163  16.553  10.956
47825W        W12986   4.854  40.657  14.904
47826W        W12987  17.196  12.823  10.214
47827W        W12988  43.380   5.535   4.090
47828W        W12989   4.957  38.338   3.279
47829W        W12990  40.116  36.364   2.506
47830W        W12991  10.666  41.417   5.238
47831W        W12992  40.132  35.696   1.292
47832W        W12993  44.288  26.447   0.487
47833W        W12994  28.884  10.132  11.537
47834W        W12995  24.606   8.924   2.445
47835W        W12996  15.387  16.958  13.084
47836W        W12997  10.836  34.358  13.498
47837W        W12998  13.046   3.718   0.340
47838W        W12999  17.692  32.092  12.041
47839W        W13000  29.921  37.299  12.131
47840W        W13001  42.975  12.681   1.760
47841W        W13002  31.654  26.670   4.134
47842W        W13003  32.454  36.277  13.775
47843W        W13004  23.488  36.083   1.277
47844W        W13005  41.282  41.160   3.175
47845W        W13006  40.485  24.301   3.394
47846W        W13007  23.190  18.999  11.690
47847W        W13008  16.136  21.254   0.894
47848W        W13009   3.672   0.710  10.446
47849W        W13010  19.602  22.558   3.199
47850W        W13011  37.699  33.078  13.488
47851W        W13012  13.353  28.087   1.713
47852W        W13013  10.018  18.312   4.525
47853W        W13014  37.396  33.421  12.068
47854W        W13015  44.855  17.865  11.122
47855W        W13016   4.371   1.031   1.831
47856W        W13017  30.492   3.172   5.040
47857W        W13018  35.521  26.706   3.515
47858W        W13019  25.140   4.828   4.840
47859W        W13020  28.068   9.845   4.611
47860W        W13021   4.178  38.732  13.463
47861W        W13022   6.655  26.763  13.459
47862W        W13023   0.334  40.746   3.715
47863W        W13024   3.759  19.182  13.583
47864W        W13025  23.122  43.036   4.553
47865W        W13026  12.527  27.416   3.921
47866W        W13027  42.120  22.670  13.869
47867W        W13028  26.946  10.303  12.206
47868W        W13029  25.234  34.959   0.744
47869W        W13030  23.984   6.200  12.964
47870W        W13031  23.530   7.278   3.245
47871W        W13032  15.220  23.037  12.108
47872W        W13033   0.301   5.207  12.989
47873W        W13034  39.116   6.651   2.273
47874W        W13035  16.660  14.065  12.189
47875W        W13036  33.931   9.166  13.998
47876W        W13037  10.881  32.758   2.539
47877W        W13038  26.445  13.223   3.829
47878W        W13039  43.381  27.115   0.844
47879W        W13040  43.870  34.476   0.876
47880W        W13041  43.756  16.135  14.914
47881W        W13042  15.698  29.466   4.549
47882W        W13043  21.034  40.925   0.295
47883W        W13044  44.041  13.574   3.333
47884W        W13045  17.996   6.921  10.783
47885W        W13046  13.334  23.519   1.344
47886W        W13047  37.545  24.556  14.754
47887W        W13048   1.993  43.368   3.659
47888W        W13049  31.448  41.334   0.958
47889W        W13050  40.316   9.335   1.272
47890W        W13051  25.621   9.908  13.569
47891W        W13052   2.826   8.669   2.897
47892W        W13053  34.823  11.188  10.739
47893W        W13054   6.278  33.324  10.711
47894W        W13055   1.339  31.675  10.558
47895W        W13056  41.489  29.944   4.201
47896W        W13057  34.512   1.383   4.636
47897W        W13058   8.153  39.938   4.035
47898W        W13059  38.884  28.705   2.384
47899W        W13060  11.151  39.138   4.718
47900W        W13061  10.159   8.223  10.635
47901W        W13062  38.487  20.076  11.456
47902W        W13063  36.810  38.919  14.988
47903W        W13064   2.710   4.327   2.940
47904W        W13065   0.726  42.877   2.709
47905W        W13066  17.237   5.201   3.743
47906W        W13067  39.313  34.846  14.256
47907W        W13068  32.657  33.847  13.387
47908W        W13069  21.364  23.778  11.480
47909W        W13070   2.293   7.559  14.192
47910W        W13071  36.494  19.383   3.208
47911W        W13072  16.157   1.986  14.800
47912W        W13073  15.270  36.383   1.723
47913W        W13074  35.158  27.089  11.356
47914W        W13075  39.100  21.255   4.487
47915W        W13076  11.101  42.831   4.188
47916W        W13077  38.284  18.257   2.638
47917W        W13078  23.763  36.851   1.725
47918W        W13079  14.272  21.518   0.450
47919W        W13080  11.352  21.179   2.545
47920W        W13081   2.991  12.299  13.499
47921W        W13082  21.832  40.591   0.232
47922W        W13083  32.949  14.549  13.756
47923W        W13084  21.284  16.305   5.234
47924W        W13085   0.009  18.902  11.279
47925W        W13086  30.665  41.380  10.812
47926W        W13087   3.004   5.929   1.342
47927W        W13088  23.714   9.417   2.254
47928W        W13089   2.933  41.677   3.278
47929W        W13090  34.087  37.888  10.460
47930W        W13091  29.685  17.392   4.132
47931W        W13092  38.002   1.820  11.119
47932W        W13093   4.410  21.937  14.780
47933W        W13094  30.698  32.232  11.020
47934W        W13095   5.841  44.919  12.598
47935W        W13096  13.008  37.504   0.322
47936W        W13097  10.784  41.176   3.489
47937W        W13098  13.289   8.980   5.080
47938W        W13099   9.081  29.524   3.207
47939W        W13100  27.295  32.340   1.306
47940W        W13101  29.220  35.168  14.486
47941W        W13102  39.337  16.618   0.355
47942W        W13103   0.753   7.255  14.674
47943W        W13104   2.297  11.898   0.739
47944W        W13105  11.144  41.774   2.694
47945W        W13106  38.719  30.484   0.761
47946W        W13107  25.625  37.187  11.102
47947W        W13108  12.843  21.665   4.698
47948W        W13109  43.448  15.034   0.995
47949W        W13110  34.226  32.903  11.457
47950W        W13111  40.114  42.504  13.065
47951W        W13112  32.755  30.063   2.613
47952W        W13113   4.508  16.188  12.111
47953W        W13114  26.514  22.778  14.522
47954W        W13115  17.721   4.655   2.564
47955W        W13116  40.618   9.896  14.909
47956W        W13117  36.660  41.755   2.795
47957W        W13118   8.226  41.897   2.818
47958W        W13119   6.412   8.151   2.651
47959W        W13120  39.582   6.195   0.716
47960W        W13121  29.018   8.802  11.508
47961W        W13122  11.428   3.750  13.314
47962W        W13123  35.916   1.241  12.588
47963W        W13124   5.785  37.528   4.617
47964W        W13125  13.777  19.116   3.356
47965W        W13126  27.064  31.050   0.211
47966W        W13127  20.043  39.272   2.865
47967W        W13128   8.286  29.523   0.740
47968W        W13129  40.854  14.121   0.214
47969W        W13130   8.773  24.792   9.837
47970W        W13131  20.168   7.902  12.375
47971W        W13132  18.727  41.900   0.732
47972W        W13133   0.015   2.808   3.045
47973W        W13134   5.443  20.491  10.671
47974W        W13135  44.371  36.957  11.605
47975W        W13136  26.947  30.840   4.967
47976W        W13137  25.190  42.869   4.200
47977W        W13138   5.816   9.385   0.256
47978W        W13139  26.117   1.305  11.107
47979W        W13140  12.421   7.481  13.804
47980W        W13141  12.651   0.222  11.903
47981W        W13142   6.933   7.037   1.923
47982W        W13143  21.840  31.052  11.418
47983W        W13144  41.302  34.616   0.012
47984W        W13145  23.588  25.790  13.450
47985W        W13146  21.153  39.013  13.107
47986W        W13147  23.640  16.213   9.874
47987W        W13148  12.779  14.592  11.870
47988W        W13149   4.745  17.793  13.541
47989W        W13150   0.432  40.215   4.604
47990W        W13151  17.237  39.561  14.871
47991W        W13152  31.588  32.160   2.909
47992W        W13153  44.421  36.571  14.964
47993W        W13154   4.365  16.209  14.550
47994W        W13155  39.018   3.820  13.914
47995W        W13156   4.515  34.071   1.674
47996W        W13157  30.133  22.004   0.843
47997W        W13158  15.100  34.120  10.571
47998W        W13159  25.088  28.023  14.896
47999W        W13160  39.435  12.359   0.309
48000W        W13161  24.205  19.581   2.318
48001W        W13162   1.759  21.633   1.320
48002W        W13163   3.883   5.429  12.985
48003W        W13164  11.315   0.915  13.905
48004W        W13165  20.339  40.388  13.381
48005W        W13166  15.128  20.017   0.208
48006W        W13167  14.479  37.118   4.831
48007W        W13168  23.722  12.883   0.321
48008W        W13169  17.332  28.750  13.207
48009W        W13170   8.090  33.832  12.114
48010W        W13171  10.844   9.266   5.147
48011W        W13172  31.211  16.851  11.488
48012W        W13173  34.504  20.105  14.152
48013W        W13174  23.241  14.355  12.346
48014W        W13175  16.754  16.968  13.462
48015W        W13176  37.280  25.667  12.944
48016W        W13177   5.874  18.987   1.759
48017W        W13178  38.691   9.819   1.370
48018W        W13179  12.952  40.242   0.267
48019W        W13180  27.527  43.910  14.001
48020W        W13181   0.716   4.908  11.837
48021W        W13182  12.637  28.915  12.618
48022W        W13183  21.903  21.556  13.756
48023W        W13184  13.059  23.102   4.570
48024W        W13185   5.336  25.470  10.911
48025W        W13186   9.317   2.553   1.361
48026W        W13187  25.737  11.092  12.340
48027W        W13188  33.075  25.251  11.519
48028W        W13189  29.258   8.779   2.664
48029W        W13190   2.147  42.022   4.041
48030W        W13191  13.511  38.445   3.197
48031W        W13192  13.443  38.485   2.253
48032W        W13193  30.569  23.432   3.930
48033W        W13194   4.712  22.841  14.052
48034W        W13195  39.466  32.691   3.138
48035W        W13196   4.923  41.395   2.658
48036W        W13197   9.264  16.672  10.861
48037W        W13198   1.258   7.367   1.822
48038W        W13199  21.639  32.431  10.780
48039W        W13200  29.570   2.719  13.423
48040W        W13201  12.802  36.596  11.963
48041W        W13202  30.624  30.539  10.742
48042W        W13203   6.695   8.080   3.706
48043W        W13204  32.721   4.629   1.869
48044W        W13205  20.748  32.603   4.978
48045W        W13206  41.421  29.026   3.641
48046W        W13207  11.296  33.098   2.276
48047W        W13208   3.414  11.608  14.173
48048W        W13209  28.808   7.101  11.958
48049W        W13210  33.101  41.948  13.304
48050W        W13211  36.585  39.978  10.745
48051W        W13212  39.139  39.469   0.842
48052W        W13213  36.621  40.449  12.458
48053W        W13214   6.428   1.755   0.869
48054W        W13215  15.387  21.482  12.565
48055W        W13216  36.682  27.955   9.889
48056W        W13217   7.682  26.792   4.983
48057W        W13218   9.184  20.355  12.647
48058W        W13219  44.935  20.789  11.947
48059W        W13220  30.036  16.092  12.584
48060W        W13221  21.268  13.909   3.685
48061W        W13222  16.104  23.800   0.750
48062W        W13223  22.597  17.090   2.417
48063W        W13224  24.305   8.644  11.612
48064W        W13225   4.362   5.261   2.671
48065W        W13226  26.835  13.838  11.235
48066W        W13227   0.474  35.848   1.602
48067W        W13228  15.613  30.373  14.001
48068W        W13229  41.228  36.867  14.334
48069W        W13230  44.296  39.142   2.644
48070W        W13231  11.241  36.331  11.350
48071W        W13232  34.119   6.279   4.443
48072W        W13233  26.908  11.327  14.291
48073W        W13234  22.693  27.929   4.272
48074W        W13235  35.022  18.076  11.194
48075W        W13236  29.886  23.606   2.643
48076W        W13237  24.053  19.801  10.917
48077W        W13238  20.468   9.292  14.887
48078W        W13239   8.220   7.107  14.035
48079W        W13240  33.010  24.315   3.119
48080W        W13241   8.273  30.878   4.068
48081W        W13242  24.113  12.876   4.565
48082W        W13243  10.832  16.190   2.368
48083W        W13244   2.897  21.532   0.294
48084W        W13245  39.602   4.409   3.782
48085W        W13246  37.987  32.185  10.827
48086W        W13247  20.468  16.704   2.419
48087W        W13248  42.785  28.561  13.342
48088W        W13249  34.321  21.344  11.997
48089W        W13250  20.733  25.207   1.303
48090W        W13251  28.000  38.630  14.799
48091W        W13252  11.593   3.085   1.516
48092W        W13253  10.594  29.939  11.444
48093W        W13254  15.126  40.125  13.603
48094W        W13255  28.148  41.266  12.197
48095W        W13256  10.633   0.651  12.519
48096W        W13257  39.288   9.345  12.415
48097W        W13258  35.354  12.680   3.695
48098W        W13259  38.489  28.384   1.850
48099W        W13260  37.978  17.663  12.367
48100W        W13261  10.367   6.802  11.275
48101W        W13262  22.731   6.370  12.995
48102W        W13263  35.047  16.503  12.469
48103W        W13264   6.431  14.027  11.994
48104W        W13265  22.259   6.735  11.357
48105W        W13266  21.567   6.968  14.458
48106W        W13267  29.533   0.230   1.727
48107W        W13268  28.462   3.292   0.685
48108W        W13269  31.391   2.781  12.540
48109W        W13270  21.049  12.960  10.791
48110W        W13271  37.160   6.721  12.479
48111W        W13272  25.561  14.630  13.009
48112W        W13273   2.681  33.623   4.134
48113W        W13274  19.053  42.935  11.146
48114W        W13275  24.915   9.199  14.380
48115W        W13276  40.957  36.846   1.745
48116W        W13277  38.449  28.045  10.748
48117W        W13278  38.540  16.176   4.055
48118W        W13279   5.433   0.402   3.643
48119W        W13280   2.993  28.951   1.995
48120W        W13281  34.534  36.788   0.287
48121W        W13282  32.056  21.112  11.107
48122W        W13283  42.979  14.373  11.393
48123W        W13284   2.047   2.455   2.148
48124W        W13285  42.195  40.583   4.051
48125W        W13286  31.681   1.954   3.142
48126W        W13287  23.079  22.948   0.339
48127W        W13288  13.408  12.107   1.428
48128W        W13289   7.174   6.232  14.054
48129W        W13290  14.581  23.636  13.994
48130W        W13291  10.961  18.361   3.320
48131W        W13292  35.157  15.876   1.873
48132W        W13293  35.148  28.420  11.401
48133W        W13294  29.167  33.888   3.324
48134W        W13295  38.890  36.355  12.962
48135W        W13296  25.259  42.906   3.257
48136W        W13297  25.984  35.486   3.909
48137W        W13298  10.677  27.024   3.287
48138W        W13299  23.522  11.979   0.619
48139W        W13300  32.555  11.015   3.879
48140W        W13301  42.464  33.165   2.663
48141W        W13302  19.800  17.060   0.735
48142W        W13303  36.457  11.665   2.929
48143W        W13304  22.586  22.299  12.501
48144W        W13305  38.549   8.243  11.933
48145W        W13306  20.129  44.812   3.734
48146W        W13307  23.965  23.957   4.131
48147W        W13308   7.766  38.777  11.753
48148W        W13309   0.266  37.574   1.020
48149W        W13310  17.146  21.191  14.375
48150W        W13311  26.616   0.880   2.241
48151W        W13312  19.832  14.263   2.158
48152W        W13313  11.201  26.763  12.994
48153W        W13314  26.501   7.088  12.890
48154W        W13315  25.612  24.989   2.358
48155W        W13316  17.667  15.083   0.584
48156W        W13317   4.861  34.070   2.478
48157W        W13318  30.759  37.782   2.328
48158W        W13319   2.357  40.815   3.161
48159W        W13320  39.418  36.466   1.382
48160W        W13321  42.060  14.407   2.938
48161W        W13322   7.160  29.442   0.321
48162W        W13323  42.926  11.352  11.129
48163W        W13324  24.140  11.198  13.547
48164W        W13325   3.241  20.501   1.719
48165W        W13326  12.076  20.704  13.711
48166W        W13327  28.449  15.604   0.384
48167W        W13328  16.375  37.949  12.022
48168W        W13329  10.889   8.458   2.833
48169W        W13330  36.604  37.831  10.599
48170W        W13331  36.062   4.720   1.335
48171W        W13332  43.965  37.434   2.273
48172W        W13333  36.965  38.477  13.834
48173W        W13334   8.432   9.699  13.774
48174W        W13335  10.154   1.322  13.077
48175W        W13336  36.970  19.691  13.666
48176W        W13337  31.009  31.564   1.349
48177W        W13338  35.136   0.475  14.588
48178W        W13339  36.393  16.208   2.280
48179W        W13340  42.512  22.089   0.776
48180W        W13341   6.909  25.589   0.983
48181W        W13342  28.959   5.937   3.903
48182W        W13343  24.670  34.279  13.858
48183W        W13344   3.407  35.056   0.427
48184W        W13345   7.812  38.419  10.909
48185W        W13346  28.917  26.055   0.855
48186W        W13347  11.107   3.795   1.944
48187W        W13348  28.575  11.624   4.097
48188W        W13349  39.971   3.617   3.552
48189W        W13350  28.639  16.703   4.425
48190W        W13351  15.091  15.713  12.909
48191W        W13352  28.006   5.445   4.633
48192W        W13353   1.765  37.284  12.009
48193W        W13354   3.774  31.278   4.819
48194W        W13355  29.694  26.051  12.826
48195W        W13356  25.454   9.622   5.450
48196W        W13357   1.944  44.733   3.721
48197W        W13358  26.861  40.536  14.950
48198W        W13359  19.048  24.218  13.631
48199W        W13360  15.267  15.552   1.962
48200W        W13361  39.558  31.199   3.686
48201W        W13362  34.340  28.637  11.118
48202W        W13363  23.200  30.059  11.769
48203W        W13364  10.679  44.761  13.998
48204W        W13365  29.940  12.700  12.813
48205W        W13366  13.166  17.250   2.771
48206W        W13367  13.223   6.643  12.397
48207W        W13368   0.206  20.158   1.863
48208W        W13369   8.583   5.389  11.155
48209W        W13370  16.122   3.436  14.984
48210W        W13371  36.935  36.140   4.426
48211W        W13372  30.395  26.871   2.156
48212W        W13373  15.668  18.832   4.189
48213W        W13374  10.218  28.077  14.839
48214W        W13375  33.778  38.235  10.692
48215W        W13376  36.140  32.139  12.948
48216W        W13377  43.387   8.291   2.912
48217W        W13378   2.425   1.651   4.376
48218W        W13379   9.608  44.799   4.848
48219W        W13380  27.948  38.936  11.263
48220W        W13381  13.317   8.938  14.958
48221W        W13382  34.530  23.245  12.390
48222W        W13383  41.417  13.833   2.717
48223W        W13384  16.311  44.741   0.894
48224W        W13385  33.446  31.091   1.329
48225W        W13386   6.691   5.944   1.843
48226W        W13387   0.990  28.759  11.078
48227W        W13388  20.702  39.181   0.288
48228W        W13389  24.053  25.755  14.114
48229W        W13390   3.168  39.596  12.790
48230W        W13391   6.608   9.354   0.650
48231W        W13392   6.894  37.366  14.447
48232W        W13393  34.520  25.399  13.811
48233W        W13394  27.136  23.238   0.695
48234W        W13395  35.876   3.534   2.097
48235W        W13396  14.298  33.909   3.928
48236W        W13397   4.690  24.651   2.360
48237W        W13398  38.795  20.384  13.312
48238W        W13399  29.163  36.011   4.264
48239W        W13400   1.839   4.472  14.805
48240W        W13401  41.452  27.837  13.500
48241W        W13402  44.404   5.129   2.364
48242W        W13403  21.936  36.962   3.639
48243W        W13404  38.555  21.228  13.306
48244W        W13405  36.819  17.184  10.771
48245W        W13406  21.241  17.754  11.743
48246W        W13407   1.266  10.275   3.904
48247W        W13408  42.090   5.345   1.902
48248W        W13409  27.637   4.639  11.656
48249W        W13410  37.538  17.027   0.352
48250W        W13411  39.546   1.974   0.809
48251W        W13412   6.667  19.716   1.389
48252W        W13413  11.312  38.429   1.161
48253W        W13414  43.016  44.786   4.667
48254W        W13415  25.412  17.353  14.369
48255W        W13416  43.082  14.095   1.945
48256W        W13417  39.316  28.607   3.306
48257W        W13418  10.684   1.369   1.917
48258W        W13419  20.613  24.841   0.413
48259W        W13420  21.166  41.234   2.964
48260W        W13421  20.018  16.638  14.979
48261W        W13422  13.488  37.266  12.231
48262W        W13423  36.697  39.454   2.718
48263W        W13424   3.240   9.650  12.167
48264W        W13425   0.962  30.440  13.353
48265W        W13426   0.381  33.881   3.785
48266W        W13427  11.269  34.449   3.262
48267W        W13428   7.306  10.836  13.568
48268W        W13429   1.948   4.286  10.740
48269W        W13430  44.510  22.026   2.728
48270W        W13431  24.216   9.717   3.919
48271W        W13432   3.049  19.611  13.292
48272W        W13433  25.465  34.634   1.335
48273W        W13434  34.832   7.224  12.023
48274W        W13435  23.294  35.217   3.602
48275W        W13436  19.606   1.382   4.551
48276W        W13437  11.949   6.877  12.678
48277W        W13438  27.590  20.793  12.303
48278W        W13439  20.636  30.456  12.028
48279W        W13440   0.768   3.470  10.136
48280W        W13441  44.195  21.181  14.974
48281W        W13442  19.729   6.663   2.767
48282W        W13443  44.975  36.602   0.360
48283W        W13444  20.259  21.739  14.967
48284W        W13445   9.389  27.294   0.628
48285W        W13446   6.568  27.016  14.871
48286W        W13447   6.594  15.698  12.435
48287W        W13448  14.946  17.882   0.806
48288W        W13449  21.020  13.296   0.810
48289W        W13450   4.431  18.904   3.152
48290W        W13451  25.282  37.658  12.230
48291W        W13452  37.065  38.773   3.697
48292W        W13453  12.448  18.782   0.868
48293W        W13454   7.282   8.954   5.005
48294W        W13455   6.622  36.406   1.773
48295W        W13456  38.281   1.648   1.383
48296W        W13457   8.399   8.675  13.569
48297W        W13458  14.545  23.615   1.500
48298W        W13459  42.686  28.715  11.038
48299W        W13460  19.049  40.558  12.716
48300W        W13461  12.574  23.606  14.042
48301W        W13462  25.222  39.794   4.076
48302W        W13463  41.039  29.700   4.205
48303W        W13464  30.474  26.007   2.185
48304W        W13465   3.164   8.620  13.506
48305W        W13466  19.311  11.289   2.146
48306W        W13467  38.896  18.347   2.348
48307W        W13468  32.646   8.261   3.263
48308W        W13469  12.810   3.856   4.328
48309W        W13470  10.414  41.580   2.285
48310W        W13471   7.140  16.598   3.315
48311W        W13472  11.177  22.614   2.692
48312W        W13473  33.920  22.483  11.910
48313W        W13474   8.546  31.805   9.931
48314W        W13475  40.858  28.270  12.719
48315W        W13476  35.986  21.923  12.014
48316W        W13477   4.255  31.684  11.140
48317W        W13478   4.134  15.843  11.983
48318W        W13479  37.372  43.466   4.203
48319W        W13480  31.199   8.378   2.198
48320W        W13481   2.774  37.012  11.637
48321W        W13482  29.096  30.669   1.709
48322W        W13483  29.450  20.535   3.113
48323W        W13484  31.138  14.848  11.539
48324W        W13485  18.086  38.688  11.087
48325W        W13486  20.789  26.076   3.653
48326W        W13487  44.244  14.644  12.514
48327W        W13488  39.377  30.985  13.518
48328W        W13489  30.723   9.306  12.014
48329W        W13490  33.109  22.842   1.339
48330W        W13491  40.702  30.665  11.765
48331W        W13492  20.779  13.865   3.370
48332W        W13493  43.379  19.469  10.956
48333W        W13494  18.644  26.936  14.657
48334W        W13495  30.346  36.089   0.377
48335W        W13496  29.588  11.139   0.402
48336W        W13497  23.589  32.130  11.599
48337W        W13498   7.693  40.175  14.475
48338W        W13499  29.894  42.439   4.163
48339W        W13500  35.596  40.001   2.117
48340W        W13501   2.186  32.046   1.741
48341W        W13502  25.614  26.985  12.488
48342W        W13503  20.343   1.566   3.353
48343W        W13504   4.852  19.306   1.043
48344W        W13505  16.693  42.115  12.431
48345W        W13506  11.220  13.007  14.492
48346W        W13507  41.716  27.534   2.434
48347W        W13508   5.028  32.073  11.130
48348W        W13509  25.605  39.789   2.773
48349W        W13510  20.754  17.326   0.024
48350W        W13511   1.746  11.263   4.608
48351W        W13512  38.065  15.652   0.883
48352W        W13513  32.207  12.173   3.262
48353W        W13514  13.122  13.287   4.554
48354W        W13515  14.016  32.586   3.686
48355W        W13516   5.358  33.460  14.501
48356W        W13517  15.994  42.279  11.610
48357W        W13518  32.412  43.361   2.621
48358W        W13519  21.370   4.943  12.950
48359W        W13520  44.920  10.115   3.626
48360W        W13521  39.272  17.666   3.607
48361W        W13522  36.423  22.736  13.920
48362W        W13523   1.380  11.943  13.508
48363W        W13524   5.739  38.880   3.279
48364W        W13525  30.465  30.444   1.806
48365W        W13526  43.911   6.177  10.758
48366W        W13527  41.073   9.687   0.087
48367W        W13528   5.756  43.099  12.575
48368W        W13529   6.636  44.431   4.551
48369W        W13530   2.679  40.225  12.368
48370W        W13531   6.216  33.103  12.936
48371W        W13532  17.810  27.737   0.315
48372W        W13533  12.850  11.918  12.564
48373W        W13534  44.794   4.721   0.857
48374W        W13535  43.089   3.168  10.784
48375W        W13536  20.671   4.582   4.438
48376W        W13537  13.111   7.311  14.888
48377W        W13538  10.868  32.733   0.843
48378W        W13539  29.678  38.751   4.045
48379W        W13540  14.920   0.354  14.855
48380W        W13541  25.540   0.210   4.534
48381W        W13542  10.887  36.537   1.238
48382W        W13543  21.774  16.439   0.471
48383W        W13544  32.923  33.886  10.668
48384W        W13545  30.747  36.655   3.259
48385W        W13546   8.655   6.368   1.415
48386W        W13547  42.242  16.327  13.965
48387W        W13548  34.638  43.579  10.185
48388W        W13549  12.264  42.998   1.638
48389W        W13550  41.745  17.122   0.400
48390W        W13551   8.573  39.684  11.089
48391W        W13552  10.641  39.726  12.560
48392W        W13553  13.665  20.941  13.112
48393W        W13554   4.370  26.128   3.407
48394W        W13555  28.379  13.827   0.792
48395W        W13556  17.130  40.123  13.041
48396W        W13557   5.600  37.659  10.557
48397W        W13558  20.097  27.984  13.259
48398W        W13559  21.239  43.899   0.835
48399W        W13560  40.287  34.697  11.099
48400W        W13561  23.221  20.757   2.379
48401W        W13562  44.957  32.595   1.751
48402W        W13563  44.454   1.653  14.087
48403W        W13564  33.656  12.993   1.000
48404W        W13565  13.558  42.923   3.797
48405W        W13566  13.927  14.025  13.818
48406W        W13567  34.139   5.843  10.625
48407W        W13568  17.349  42.360  13.388
48408W        W13569   4.755  21.532   3.433
48409W        W13570  26.580  20.363   0.703
48410W        W13571  41.039  35.487   3.243
48411W        W13572  13.781  20.175   2.660
48412W        W13573  11.147  11.548  12.853
48413W        W13574  40.063  37.589   4.481
48414W        W13575   4.156  25.048   4.023
48415W        W13576  12.372  32.419   2.440
48416W        W13577   3.398  38.593   4.572
48417W        W13578  39.879  41.410   1.666
48418W        W13579  20.649  14.808   1.717
48419W        W13580   8.350  31.221   1.390
48420W        W13581  41.083  32.882   2.185
48421W        W13582  13.657  15.320   1.177
48422W        W13583  10.172   8.597  13.589
48423W        W13584   3.800  42.224   2.796
48424W        W13585  40.236  18.670   0.710
48425W        W13586  24.910  39.325   1.756
48426W        W13587  36.995  21.736   0.551
48427W        W13588   7.586  24.523  12.410
48428W        W13589  42.526  10.585   3.823
48429W        W13590  19.055  20.296  13.801
48430W        W13591   1.095  30.066   1.961
48431W        W13592  39.910  44.915  10.420
48432W        W13593  41.021  40.419  11.612
48433W        W13594  44.833  44.762   2.172
48434W        W13595  36.964  18.517   2.004
48435W        W13596  17.775  33.527   2.429
48436W        W13597  44.747   8.399  11.555
48437W        W13598   2.333   6.507  13.053
48438W        W13599  36.355  13.472   3.208
48439W        W13600  11.397  22.445  11.390
48440W        W13601  34.987  41.917   2.740
48441W        W13602   1.672  31.750  14.051
48442W        W13603  33.448  23.399   4.583
48443W        W13604  11.162   3.699  14.309
48444W        W13605  24.928  23.238   4.984
48445W        W13606  35.905  31.989  13.384
48446W        W13607  37.048  30.408  11.095
48447W        W13608  25.699  31.591  14.505
48448W        W13609  23.690  28.526   3.413
48449W        W13610  28.205  15.363   4.597
48450W        W13611  11.156   2.911   1.789
48451W        W13612  13.311   9.445   4.796
48452W        W13613  12.775   0.643   3.283
48453W        W13614  38.532  30.500   4.286
48454W        W13615  34.868  22.480  14.455
48455W        W13616  33.359   7.183   9.969
48456W        W13617   5.805  27.868   2.221
48457W        W13618  16.589  35.619  14.927
48458W        W13619  18.945   8.112   4.951
48459W        W13620  14.174   4.503  12.462
48460W        W13621  31.405   9.026  13.637
48461W        W13622  34.156  32.276   1.254
48462W        W13623  28.991   9.143  11.920
48463W        W13624  36.542  43.812  13.387
48464W        W13625  31.977  20.657   2.673
48465W        W13626   7.378  36.673  11.726
48466W        W13627  41.915  33.903   3.279
48467W        W13628  19.323   0.772   3.306
48468W        W13629   4.485  14.550  11.588
48469W        W13630  41.910  22.494  14.888
48470W        W13631  19.099  14.277   0.422
48471W        W13632   7.127  22.376   0.822
48472W        W13633   1.314  43.785   2.863
48473W        W13634  34.559  17.553   2.896
48474W        W13635  17.239  44.454  13.488
48475W        W13636   1.544  23.713   4.161
48476W        W13637  27.536  10.242   3.249
48477W        W13638  12.139  39.592   0.847
48478W        W13639  33.012  25.631  11.163
48479W        W13640  43.008   3.261   2.601
48480W        W13641   4.388  10.287  11.371
48481W        W13642  15.233  20.011  13.856
48482W        W13643  41.082  23.493   4.189
48483W        W13644  15.176  24.570   4.927
48484W        W13645  35.976  28.953  11.193
48485W        W13646  29.019  26.986   2.805
48486W        W13647  42.428  28.044   2.222
48487W        W13648  36.029  36.510   0.064
48488W        W13649  33.930  17.829  11.024
48489W        W13650  18.809  19.076  14.494
48490W        W13651  33.376   7.329  12.472
48491W        W13652  16.019  14.840   3.638
48492W        W13653  40.612  12.481  14.034
48493W        W13654  24.858   5.809   3.340
48494W        W13655  14.889  31.162   3.164
48495W        W13656  18.547  41.049   0.340
48496W        W13657  12.375  36.433   1.265
48497W        W13658  12.443  16.131   2.765
48498W        W13659  10.345   2.675   0.389
48499W        W13660   8.676  31.661  12.356
48500W        W13661   0.443  16.597  11.418
48501W        W13662  41.081  19.082   2.946
48502W        W13663   4.024  34.795  11.994
48503W        W13664  32.603   5.529  10.357
48504W        W13665   1.642  24.075   4.573
48505W        W13666  38.026  21.821   3.115
48506W        W13667  27.735  35.549  14.318
48507W        W13668  30.438  44.244  11.483
48508W        W13669  11.157   1.894   2.712
48509W        W13670   9.087  41.628  11.800
48510W        W13671  23.471   0.054  10.607
48511W        W13672  36.116   9.788  11.766
48512W        W13673  27.498  21.167   4.614
48513W        W13674   2.228  34.605  13.973
48514W        W13675  32.613  32.133   4.580
48515W        W13676  37.574  34.278   4.898
48516W        W13677   0.478  44.352   1.829
48517W        W13678   7.192  10.665   0.302
48518W        W13679  22.908  27.851   1.803
48519W        W13680  36.988  36.973   3.295
48520W        W13681  36.856  22.730   3.179
48521W        W13682  24.283  44.408  11.170
48522W        W13683  41.111  37.452  14.351
48523W        W13684   5.370  14.300  13.381
48524W        W13685   0.508   3.453   1.924
48525W        W13686  16.573   3.055  13.023
48526W        W13687   2.802  38.812   0.261
48527W        W13688  19.502   2.758  11.185
48528W        W13689  25.221  38.202   0.518
48529W        W13690   5.525   4.915  10.729
48530W        W13691  11.200  26.062   4.701
48531W        W13692  33.571  34.571  11.928
48532W        W13693   1.695  31.647  11.674
48533W        W13694  42.914  26.526  14.549
48534W        W13695   3.832  25.460   4.100
48535W        W13696  29.578  40.996  12.384
48536W        W13697  12.309  37.047  10.704
48537W        W13698  25.400  14.364  10.016
48538W        W13699   0.182  20.185   0.473
48539W        W13700  29.483  38.616   4.509
48540W        W13701  27.232  20.085  13.728
48541W        W13702  43.994  22.554  13.316
48542W        W13703  23.008  19.839  13.309
48543W        W13704  21.741  42.005  13.873
48544W        W13705  22.553  41.352   2.372
48545W        W13706  20.588   0.910   0.351
48546W        W13707  25.424  28.327   3.862
48547W        W13708  16.249  23.292  14.774
48548W        W13709  35.339  36.384   4.507
48549W        W13710  30.449  25.507  12.837
48550W        W13711  26.096   5.980   2.706
48551W        W13712  33.968  13.747   3.369
48552W        W13713  37.670  22.062  14.739
48553W        W13714  30.387  12.182   0.748
48554W        W13715  44.722  30.176   4.050
48555W        W13716  36.358   7.912   0.815
48556W        W13717  24.095  30.999  12.469
48557W        W13718   0.032  37.841   0.623
48558W        W13719   9.362   1.878  10.145
48559W        W13720   1.927  19.623  14.389
48560W        W13721  30.645  27.503  14.556
48561W        W13722  44.593  28.702   1.675
48562W        W13723  41.977  33.863  10.504
48563W        W13724  22.698  21.114   2.727
48564W        W13725   8.430  18.623   3.792
48565W        W13726  43.403  39.833  11.945
48566W        W13727   7.068  16.820   2.819
48567W        W13728  23.923  18.238   9.693
48568W        W13729  12.164  23.248  12.536
48569W        W13730  33.278  35.203  13.974
48570W        W13731   6.783  41.041   3.706
48571W        W13732   6.816   4.012   2.063
48572W        W13733  17.833  10.786  11.475
48573W        W13734  12.763  32.398  10.743
48574W        W13735   3.953  24.166  12.483
48575W        W13736  43.567  14.599   1.446
48576W        W13737   8.220  36.857   3.719
48577W        W13738  27.506  11.881  12.581
48578W        W13739  15.208  25.893  11.405
48579W        W13740  14.544  15.990   3.551
48580W        W13741  32.015  41.802  12.227
48581W        W13742  15.718  10.757   0.513
48582W        W13743  34.918  19.964  14.905
48583W        W13744  38.888  16.094   2.833
48584W        W13745  40.591  17.669  14.505
48585W        W13746  32.362  20.625   1.283
48586W        W13747  27.286  10.698   3.137
48587W        W13748  10.162  10.408  14.762
48588W        W13749  14.745  13.593  14.108
48589W        W13750   9.816  26.500   1.711
48590W        W13751  21.699   3.268  11.188
48591W        W13752   5.334  37.086   4.500
48592W        W13753  34.304   9.387  12.084
48593W        W13754  28.212  23.015  12.105
48594W        W13755  32.243  35.589  11.673
48595W        W13756   1.829  24.952  12.209
48596W        W13757  19.943   6.965   3.218
48597W        W13758  41.246   9.845   0.577
48598W        W13759  38.064   0.897   0.441
48599W        W13760  39.260  32.766   2.278
48600W        W13761  34.590  22.265  14.059
48601W        W13762  25.629   3.958   1.306
48602W        W13763  44.209   6.497   4.525
48603W        W13764  27.556  26.433  14.805
48604W        W13765  30.576  41.265   4.349
48605W        W13766  43.267   7.650   1.768
48606W        W13767   3.436   4.204  12.947
48607W        W13768   4.855  25.418   3.269
48608W        W13769  13.668  37.889  12.965
48609W        W13770   3.226  35.682  13.017
48610W        W13771  31.109  15.926   4.564
48611W        W13772  12.023  15.044   3.148
48612W        W13773  40.045  25.536  10.754
48613W        W13774   8.402  19.297   3.332
48614W        W13775   4.870  15.600  10.302
48615W        W13776  16.503  40.196  11.281
48616W        W13777   3.761  25.495  13.984
48617W        W13778  12.533  28.928   0.353
48618W        W13779  19.786   4.062  11.721
48619W        W13780  27.063  22.621   2.981
48620W        W13781  13.556  17.999   1.897
48621W        W13782  26.624  29.570   3.758
48622W        W13783  20.151  23.013   1.513
48623W        W13784  23.963  34.072  12.476
48624W        W13785   1.016   1.991  13.011
48625W        W13786  27.675  44.468   0.752
48626W        W13787  10.446  23.110   3.441
48627W        W13788  30.998   8.251   5.042
48628W        W13789   5.718  40.402   4.161
48629W        W13790  20.313  25.648  12.414
48630W        W13791  38.460  41.096   3.617
48631W        W13792  36.456  27.181   2.151
48632W        W13793   3.879  10.572   0.035
48633W        W13794  18.688  12.014   3.648
48634W        W13795   0.904  15.279   1.982
48635W        W13796  13.771  17.895  10.803
48636W        W13797  28.381  39.143   4.985
48637W        W13798  38.470   7.910   2.240
48638W        W13799  15.027   0.700  13.922
48639W        W13800  29.109   1.107   4.431
48640W        W13801   4.251  22.953  11.720
48641W        W13802  11.345  16.228   1.328
48642W        W13803   4.650  40.292   5.048
48643W        W13804  41.878  29.740  14.488
48644W        W13805  37.244  18.169  11.995
48645W        W13806  22.535   9.827   1.792
48646W        W13807  22.683  39.849   2.294
48647W        W13808  14.422  22.296   4.655
48648W        W13809  29.403  34.883  13.535
48649W        W13810   4.361  22.618   4.066
48650W        W13811  30.663  27.466   2.335
48651W        W13812  12.646  35.138   4.067
48652W        W13813  20.916  39.459  14.421
48653W        W13814  22.573  18.518   4.403
48654W        W13815   9.228  10.449   0.544
48655W        W13816  41.515  39.221  10.633
48656W        W13817  27.138  11.878  14.962
48657W        W13818  14.659   3.749  11.558
48658W        W13819  14.651  11.723   0.717
48659W        W13820   9.310  30.861  10.754
48660W        W13821  33.094  34.355  13.775
48661W        W13822  39.507   9.758  11.867
48662W        W13823   5.926  35.973   1.734
48663W        W13824   3.865  43.702   3.720
48664W        W13825  32.050  43.873  10.544
48665W        W13826   2.268  20.124  14.856
48666W        W13827  27.299   6.735   0.248
48667W        W13828  44.831  40.809   5.689
48668W        W13829   8.798  17.338   1.300
48669W        W13830  23.753   7.077   4.245
48670W        W13831  25.209   5.109  13.524
48671W        W13832  30.900  44.282  10.754
48672W        W13833   9.476  13.810  13.789
48673W        W13834  16.229  37.052   0.416
48674W        W13835  33.303  23.146   4.170
48675W        W13836   2.490  21.001  10.986
48676W        W13837  44.574   0.844  14.636
48677W        W13838  15.185  25.685  10.885
48678W        W13839   6.749  32.665   1.397
48679W        W13840  22.153  11.836  12.354
48680W        W13841   2.141  20.150   1.665
48681W        W13842   5.349  20.328   4.588
48682W        W13843  25.665  10.254   1.387
48683W        W13844   5.787  42.781   4.212
48684W        W13845   5.278  11.617   4.677
48685W        W13846   5.941  34.059   3.265
48686W        W13847   4.547   5.437  11.093
48687W        W13848  36.530  22.076   0.940
48688W        W13849  30.512  44.987   3.751
48689W        W13850  30.411  41.461   2.105
48690W        W13851  18.268   5.814   0.851
48691W        W13852   5.335   7.377  12.949
48692W        W13853  18.203  35.412   3.254
48693W        W13854   9.738   4.687   1.933
48694W        W13855  41.918  27.620   0.298
48695W        W13856  31.507  20.478  12.190
48696W        W13857  30.276  31.337   1.877
48697W        W13858   9.420  32.118   2.331
48698W        W13859  36.057  36.829  13.395
48699W        W13860  38.858  24.227  14.715
48700W        W13861  40.986  41.792   0.326
48701W        W13862  31.579  28.084   2.577
48702W        W13863  22.734  39.067   1.392
48703W        W13864  16.907  14.447  12.454
48704W        W13865  36.988  44.345   2.070
48705W        W13866   6.411  19.002   1.719
48706W        W13867  14.710   2.709   4.209
48707W        W13868  16.089  23.481  13.058
48708W        W13869  36.607  27.751  12.897
48709W        W13870  42.884  14.793   4.052
48710W        W13871  26.465  21.050  12.988
48711W        W13872   7.622  33.025  12.149
48712W        W13873   5.501  34.421   3.667
48713W        W13874  17.213  12.968  12.141
48714W        W13875   8.935  27.418   0.858
48715W        W13876   1.395  36.381   3.257
48716W        W13877   8.307  14.210  14.820
48717W        W13878  41.453  37.047   1.669
48718W        W13879  41.322  27.781  14.534
48719W        W13880  29.184  22.440   2.433
48720W        W13881   6.744   9.462  11.043
48721W        W13882  18.028  34.176   3.751
48722W        W13883  16.194  29.944   1.860
48723W        W13884  31.698  37.797  14.331
48724W        W13885  33.182   4.995  11.090
48725W        W13886  19.201   8.699  14.095
48726W        W13887  16.266  11.061  11.628
48727W        W13888  37.786  10.386   0.864
48728W        W13889   0.679  29.058  14.225
48729W        W13890  44.357  12.135   2.335
48730W        W13891  30.725  25.259   2.573
48731W        W13892  31.468  37.567   2.791
48732W        W13893  35.508   1.702  13.636
48733W        W13894  12.386  30.544  14.328
48734W        W13895  27.141  17.330   4.783
48735W        W13896  12.325  32.113   4.090
48736W        W13897   4.506  33.319  10.478
48737W        W13898  10.513  21.698  11.616
48738W        W13899  37.052  17.011  11.201
48739W        W13900   1.534  34.031  13.944
48740W        W13901  12.811  37.993  13.930
48741W        W13902  34.485   0.620   1.715
48742W        W13903   7.199  33.921   2.658
48743W        W13904   8.140  36.006  12.669
48744W        W13905  12.377  25.049  12.397
48745W        W13906  18.407  31.056   1.859
48746W        W13907  23.768  32.393   1.782
48747W        W13908  29.636  28.123   4.769
48748W        W13909  12.356  44.988  14.336
48749W        W13910  26.509  39.200  13.660
48750W        W13911  16.706   3.613   4.648
48751W        W13912  25.214  23.945  14.070
48752W        W13913   4.814   7.171  11.698
48753W        W13914  13.602   0.845  14.248
48754W        W13915  31.997   7.363  14.446
48755W        W13916  24.059   1.983   4.532
48756W        W13917  39.794   5.381  13.059
48757W        W13918  21.999  26.391  11.118
48758W        W13919  30.391  10.563  13.754
48759W        W13920   0.377  24.773   2.371
48760W        W13921  23.916  10.260  14.823
48761W        W13922   4.310   0.342  12.131
48762W        W13923  42.333  10.689   2.232
48763W        W13924  18.635   7.315  10.906
48764W        W13925  43.868  31.556  10.713
48765W        W13926   5.437   7.887  13.009
48766W        W13927   0.941  20.587   3.618
48767W        W13928  10.247  39.044   0.975
48768W        W13929  10.360   4.435   3.243
48769W        W13930  11.590   1.392  11.149
48770W        W13931   8.492  19.146  13.440
48771W        W13932  25.544  14.624  13.890
48772W        W13933  39.322  21.815   3.591
48773W        W13934  21.998   4.169  11.591
48774W        W13935  16.437  41.471   3.684
48775W        W13936  13.887   1.857  14.507
48776W        W13937  21.614  40.847   1.126
48777W        W13938  30.305  15.329  12.613
48778W        W13939  11.021   8.303   0.963
48779W        W13940  41.315  10.434   3.666
48780W        W13941   8.779   8.856   1.255
48781W        W13942  36.426  40.474  14.524
48782W        W13943  44.993   8.126  11.200
48783W        W13944   7.990  25.005  12.917
48784W        W13945  36.511   7.848   3.602
48785W        W13946  33.898   7.002  12.095
48786W        W13947  20.946  12.116   3.611
48787W        W13948  30.399  14.568  14.760
48788W        W13949  18.999   2.146  11.256
48789W        W13950  36.039  35.345  13.401
48790W        W13951  31.013   1.335  14.607
48791W        W13952  36.486  44.358  11.680
48792W        W13953   7.401  42.366  10.991
48793W        W13954   6.992  14.256  14.866
48794W        W13955  31.927   9.388   2.007
48795W        W13956  22.721  18.568   2.700
48796W        W13957   9.609   0.344  11.965
48797W        W13958  26.299  40.269  12.576
48798W        W13959   4.834  15.847  11.623
48799W        W13960  23.459  26.238   1.590
48800W        W13961   0.755  21.022   5.030
48801W        W13962  27.276  26.551  12.195
48802W        W13963  38.506  32.629   4.616
48803W        W13964   3.539  12.667   1.317
48804W        W13965  32.434  37.057  11.987
48805W        W13966  19.527   9.840  13.882
48806W        W13967  15.040  22.722   1.028
48807W        W13968  43.784  32.004   5.096
48808W        W13969  30.049  37.227  12.841
48809W        W13970  39.779  38.118   2.313
48810W        W13971  18.652  18.034  10.623
48811W        W13972  39.275  28.920  13.418
48812W        W13973   1.895  32.460   2.915
48813W        W13974   2.431  24.496  13.791
48814W        W13975  27.765  16.015  14.307
48815W        W13976   0.233  25.600   4.700
48816W        W13977  13.356   2.501  14.746
48817W        W13978  22.138  40.025  12.373
48818W        W13979  23.028  31.022  13.341
48819W        W13980  10.483   0.484   4.476
48820W        W13981  33.919  15.135   1.749
48821W        W13982  22.977  19.333  13.334
48822W        W13983  20.159  11.912   4.077
48823W        W13984  25.737   4.907   2.447
48824W        W13985  27.135  10.371  13.973
48825W        W13986  14.373  30.502  14.465
48826W        W13987  39.277  33.513  14.024
48827W        W13988  34.364   7.204  14.367
48828W        W13989  39.484   2.708  14.771
48829W        W13990  14.597  26.548  14.749
48830W        W13991  12.329   7.152  12.470
48831W        W13992  26.654  25.108  14.882
48832W        W13993  39.767  30.154   3.721
48833W        W13994  29.228  20.464   3.590
48834W        W13995  31.586  34.749   1.866
48835W        W13996  12.776  44.620   3.300
48836W        W13997  30.066  37.638  12.486
48837W        W13998  43.439  31.572   0.267
48838W        W13999  16.095   7.754  14.010
48839W        W14000  29.394   2.397   2.268
48840W        W14001  14.758  35.204  11.217
48841W        W14002  44.425  35.465   9.764
48842W        W14003  14.063  32.389  11.979
48843W        W14004   6.478   3.992   1.680
48844W        W14005  11.800  35.542  12.431
48845W        W14006  19.799  13.999  14.746
48846W        W14007  35.114  23.523   1.828
48847W        W14008  39.223  43.196   4.885
48848W        W14009  35.110  17.232   1.891
48849W        W14010  37.425  18.471   2.292
48850W        W14011  42.768   4.968  13.916
48851W        W14012  44.127  21.229   1.618
48852W        W14013   3.458   6.918  14.272
48853W        W14014   0.557  40.095  12.837
48854W        W14015  28.488  37.852  14.431
48855W        W14016   4.918  43.546   0.031
48856W        W14017  19.037  33.421   3.727
48857W        W14018  19.520  41.509  13.593
48858W        W14019  12.111  42.507   2.736
48859W        W14020   3.187  12.081  14.291
48860W        W14021  43.280  27.064   3.126
48861W        W14022  34.693   4.189   3.303
48862W        W14023   0.073  41.428   2.945
48863W        W14024   5.674  34.493   3.146
48864W        W14025   2.650  20.407  14.343
48865W        W14026   8.705  41.824   4.648
48866W        W14027  14.025   0.142  13.232
48867W        W14028   9.309  38.398  13.059
48868W        W14029  10.243   0.965  14.861
48869W        W14030  15.117   8.411  11.614
48870W        W14031  20.315  30.399   3.231
48871W        W14032  28.121  26.302   0.452
48872W        W14033  19.668  38.967   4.732
48873W        W14034  33.960  27.389  12.058
48874W        W14035  40.907  29.392   1.266
48875W        W14036  38.137  12.965  13.577
48876W        W14037  14.066  14.724   2.650
48877W        W14038  35.485  11.443  13.524
48878W        W14039  18.026  13.294   3.324
48879W        W14040  40.470  40.843   4.149
48880W        W14041  20.669  11.610  10.697
48881W        W14042  41.349  20.917  13.269
48882W        W14043  15.247   6.838  14.871
48883W        W14044  39.808  34.457   2.011
48884W        W14045  25.084  41.470   5.309
48885W        W14046  39.841  31.459   0.899
48886W        W14047   1.730  13.840   4.171
48887W        W14048  44.442  22.702   0.791
48888W        W14049  21.595  19.059  14.564
48889W        W14050  21.607  40.923  13.472
48890W        W14051  27.351  40.561   1.794
48891W        W14052   4.784  23.071   4.543
48892W        W14053  23.098  15.017  13.924
48893W        W14054  10.690   4.068  11.237
48894W        W14055  15.202  29.957  12.830
48895W        W14056  18.551  21.616  14.648
48896W        W14057  34.831   4.434  13.475
48897W        W14058  25.089  36.499   3.650
48898W        W14059  44.206  12.485  11.349
48899W        W14060  32.686  42.510  12.812
48900W        W14061  39.971  35.199   4.667
48901W        W14062  33.475  28.673   3.970
48902W        W14063  28.677  41.219   2.130
48903W        W14064  11.006  14.081   1.356
48904W        W14065  22.315  21.575  11.537
48905W        W14066  20.192  37.907  12.890
48906W        W14067  35.134   4.332   3.058
48907W        W14068  13.022  31.355  14.536
48908W        W14069  29.421  19.168  12.959
48909W        W14070   2.281  44.239   1.932
48910W        W14071  28.715  17.108   2.687
48911W        W14072   4.741  12.369  12.766
48912W        W14073  29.051  41.789   3.187
48913W        W14074   7.811  27.457  10.706
48914W        W14075   0.963  12.439   2.678
48915W        W14076   8.377  42.368   2.968
48916W        W14077  14.228  14.561   4.125
48917W        W14078   3.687  32.617  11.078
48918W        W14079  17.342  23.506   2.385
48919W        W14080  44.238  17.369   4.580
48920W        W14081  28.402   4.732   0.341
48921W        W14082   2.494  36.893   1.943
48922W        W14083  14.424  11.725  14.851
48923W        W14084  26.371  25.664  11.583
48924W        W14085  20.526  33.169  14.410
48925W        W14086  26.514  13.858  10.713
48926W        W14087  26.671  31.890  11.774
48927W        W14088  29.001   1.458  11.491
48928W        W14089   7.051  43.532  12.598
48929W        W14090  39.154  21.322   3.575
48930W        W14091  12.866  18.041  11.629
48931W        W14092  25.471  35.034  10.974
48932W        W14093  10.863   6.309  14.030
48933W        W14094  40.790  30.700  14.008
48934W        W14095  15.535  34.077  12.808
48935W        W14096  40.992  21.716  13.424
48936W        W14097  42.194   9.443  14.794
48937W        W14098  16.760  39.797  13.800
48938W        W14099  18.829  18.009  11.109
48939W        W14100  23.968  15.212   2.839
48940W        W14101  25.058   3.977  13.292
48941W        W14102  20.518  22.932  14.891
48942W        W14103  20.813  28.406   3.030
48943W        W14104  39.874  34.323  14.895
48944W        W14105  28.521  25.143   0.500
48945W        W14106  14.807  36.194   4.949
48946W        W14107   7.615  16.221   2.396
48947W        W14108  11.131  17.545  11.475
48948W        W14109  16.289  21.485  10.753
48949W        W14110  39.480  11.845   0.409
48950W        W14111  28.359  25.483   3.677
48951W        W14112   2.571  29.354   4.943
48952W        W14113  36.436  12.907  12.884
48953W        W14114  31.467  14.425  10.720
48954W        W14115  14.862  25.575  12.980
48955W        W14116   5.793  11.154  12.826
48956W        W14117   3.917   6.881  10.885
48957W        W14118  17.106  21.562  11.014
48958W        W14119   5.729  37.089   4.902
48959W        W14120  31.573  38.175  13.361
48960W        W14121   7.242  29.886   0.077
48961W        W14122   2.006  27.119  12.126
48962W        W14123   1.446   7.269  13.478
48963W        W14124  36.463  11.241   4.739
48964W        W14125  24.126  10.317   0.316
48965W        W14126  35.950   7.597  12.636
48966W        W14127   5.013  39.588   3.760
48967W        W14128  10.403  32.391  14.010
48968W        W14129   9.390  31.717   1.507
48969W        W14130   0.850  35.660  14.975
48970W        W14131  27.547   4.465   4.407
48971W        W14132   4.991  35.426  11.586
48972W        W14133  41.751  13.925  14.964
48973W        W14134  42.735  40.464   2.131
48974W        W14135  37.096  24.198  13.186
48975W        W14136  44.969   8.260   0.871
48976W        W14137  35.383   9.168   1.295
48977W        W14138  23.462  43.922  14.960
48978W        W14139  26.802   1.314  13.468
48979W        W14140   4.496  19.412  13.851
48980W        W14141  12.207  29.765   0.805
48981W        W14142  43.766  26.996   3.302
48982W        W14143  17.434   3.880   4.039
48983W        W14144   2.183  41.769  12.002
48984W        W14145  10.742   9.684  11.886
48985W        W14146  40.551  40.307   1.252
48986W        W14147  21.175  29.326  14.464
48987W        W14148   2.224  22.515   4.123
48988W        W14149  31.926  15.624  12.283
48989W        W14150  24.514  25.546  11.623
48990W        W14151   4.211  12.234   4.327
48991W        W14152  43.355  13.176   4.068
48992W        W14153  19.736  28.568   2.220
48993W        W14154   4.479  41.865   4.828
48994W        W14155   7.469  24.725   1.847
48995W        W14156  41.857   7.785   3.707
48996W        W14157  16.680  21.327  10.406
48997W        W14158  28.216  22.568  10.211
48998W        W14159   3.760  24.061   2.108
48999W        W14160  12.255  25.746  11.875
49000W        W14161  13.977  32.135  13.363
49001W        W14162  32.983  21.163   0.776
49002W        W14163  27.407  15.151  10.650
49003W        W14164  10.243   3.235  14.529
49004W        W14165  44.858  22.234   4.687
49005W        W14166   6.173  19.240   2.138
49006W        W14167   7.474  13.056   0.777
49007W        W14168  18.553  15.093   1.464
49008W        W14169  27.114   9.848  14.103
49009W        W14170  43.860  12.369  13.027
49010W        W14171   5.707   8.616  13.952
49011W        W14172  13.206  40.494   1.146
49012W        W14173  10.369  40.474  13.525
49013W        W14174  21.942  35.690  12.092
49014W        W14175  34.627   6.447  12.027
49015W        W14176   6.419  29.506  11.564
49016W        W14177  11.620  27.628  14.339
49017W        W14178  26.363  28.484   0.518
49018W        W14179  23.986  39.425  12.034
49019W        W14180  33.611  42.152   9.851
49020W        W14181  18.730  20.055  13.439
49021W        W14182  35.969  23.107   2.568
49022W        W14183  26.638  15.573   3.750
49023W        W14184  44.282   6.786   0.373
49024W        W14185  38.912  12.353   2.861
49025W        W14186  14.548  11.587  14.359
49026W        W14187   2.972  11.947   4.507
49027W        W14188  23.748  24.163   5.015
49028W        W14189  40.800  44.599   0.406
49029W        W14190  18.122  16.137   3.053
49030W        W14191  29.850  37.855  11.463
49031W        W14192  13.862  29.205  11.986
49032W        W14193  38.390   3.834  14.737
49033W        W14194  22.307   9.178   4.174
49034W        W14195  35.813   3.419  13.869
49035W        W14196  30.271   8.621   4.588
49036W        W14197  23.352  18.843  14.386
49037W        W14198   9.672  15.683  14.155
49038W        W14199   0.212  28.980   0.377
49039W        W14200  21.200  39.539  10.891
49040W        W14201   2.982  24.642   2.688
49041W        W14202   6.853  27.970  14.485
49042W        W14203  36.056  10.863   2.144
49043W        W14204   7.834  11.522   2.667
49044W        W14205  26.523  25.090  12.910
49045W        W14206  36.084  17.213  11.148
49046W        W14207  20.533   5.975  12.447
49047W        W14208   4.741  14.227   1.230
49048W        W14209  37.203  20.199   2.381
49049W        W14210  34.749  36.672  13.147
49050W        W14211  15.269  36.374   2.837
49051W        W14212  35.856  36.345   4.544
49052W        W14213   8.929   6.858   4.125
49053W        W14214  37.410   1.440   3.947
49054W        W14215  35.663   7.655  14.062
49055W        W14216  44.241   9.396   3.131
49056W        W14217  33.020  42.402  11.492
49057W        W14218  35.589  25.980  11.492
49058W        W14219  27.316  38.271   4.076
49059W        W14220  15.544   4.361   4.718
49060W        W14221   8.917  30.400  13.024
49061W        W14222  25.950  27.218  11.191
49062W        W14223   8.971  26.125  10.656
49063W        W14224  13.002   2.677  10.623
49064W        W14225  42.245  42.833   2.807
49065W        W14226  11.256  44.037   1.232
49066W        W14227  26.490  20.676   2.667
49067W        W14228  21.492   8.675   1.478
49068W        W14229  21.683   4.767  12.571
49069W        W14230  35.625  44.266   2.287
49070W        W14231  44.995  39.863  13.502
49071W        W14232  29.682   0.473   0.404
49072W        W14233  37.491  44.727  11.137
49073W        W14234  29.510  24.423   0.701
49074W        W14235  12.735  35.364   0.769
49075W        W14236  16.357  44.408   1.726
49076W        W14237  24.490  26.104   3.014
49077W        W14238  39.503  39.384   2.232
49078W        W14239   7.217  26.994  13.539
49079W        W14240  23.135  40.255   3.177
49080W        W14241  15.387  33.830  11.551
49081W        W14242  20.116  42.286  11.531
49082W        W14243  32.726  13.198   1.132
49083W        W14244  41.248  19.304   4.410
49084W        W14245   0.252  42.889  13.481
49085W        W14246   1.676  15.592  12.197
49086W        W14247  31.601  16.704   4.027
49087W        W14248   3.104   3.883   4.544
49088W        W14249   6.020   5.068   3.766
49089W        W14250  26.712  33.286   4.094
49090W        W14251  42.224  18.960   0.794
49091W        W14252  39.325  38.067   3.540
49092W        W14253  25.181   8.600   0.016
49093W        W14254  37.115   2.287  12.540
49094W        W14255  12.542  37.042  11.932
49095W        W14256  29.959  24.567  13.972
49096W        W14257  13.738   2.815  14.960
49097W        W14258  38.393  15.620   3.396
49098W        W14259  34.972  21.567   2.837
49099W        W14260  10.642  22.656   4.178
49100W        W14261  17.452  15.019  14.127
49101W        W14262   0.894   5.389  12.906
49102W        W14263  26.423  13.833  12.049
49103W        W14264  21.301  31.053  11.473
49104W        W14265   4.924  23.735   0.912
49105W        W14266  44.220  39.621  13.418
49106W        W14267   1.494  26.446   2.885
49107W        W14268   7.700  12.249   3.172
49108W        W14269  37.342  35.547   3.887
49109W        W14270  41.402   6.385  14.307
49110W        W14271  35.518  29.053   3.289
49111W        W14272  22.897  23.631   4.935
49112W        W14273  19.197  16.278  12.497
49113W        W14274  30.658  29.125   1.266
49114W        W14275  38.428  28.783  12.527
49115W        W14276   6.226  33.213   1.779
49116W        W14277  29.101  27.881   4.037
49117W        W14278  38.782   6.873   2.614
49118W        W14279   3.421  41.945   0.866
49119W        W14280  20.697  30.882  10.686
49120W        W14281   5.293  43.289   3.897
49121W        W14282  25.736  34.938   0.930
49122W        W14283  39.464  40.064   3.777
49123W        W14284  19.289  16.103  14.267
49124W        W14285  22.725  33.980   0.367
49125W        W14286   6.640   3.918   0.432
49126W        W14287  32.811  44.963  10.509
49127W        W14288  19.530  26.570   4.070
49128W        W14289  33.456   8.145   4.173
49129W        W14290  16.531  41.925   0.388
49130W        W14291   6.739  14.678   4.118
49131W        W14292   3.625  23.716   2.474
49132W        W14293  34.334   4.700  12.954
49133W        W14294  39.013  44.733   2.787
49134W        W14295  26.711  13.371  14.090
49135W        W14296  25.961   2.725  14.426
49136W        W14297  36.895  27.810  13.392
49137W        W14298  41.250  28.561  10.635
49138W        W14299  13.298  36.459  12.834
49139W        W14300  22.761  20.965   3.647
49140W        W14301  44.761  14.563  12.829
49141W        W14302  34.864  13.654  12.556
49142W        W14303  11.724  11.483   1.882
49143W        W14304   3.404   7.387   1.712
49144W        W14305  20.946  18.277  12.258
49145W        W14306   0.829  43.519  10.920
49146W        W14307   1.273  33.663   0.382
49147W        W14308   2.481   9.962  10.290
49148W        W14309  38.452  26.721  13.768
49149W        W14310   5.474  36.961  14.547
49150W        W14311  33.271  41.347  13.763
49151W        W14312  14.395  20.433   0.855
49152W        W14313  42.414  35.141   2.361
49153W        W14314  43.861  11.632   1.446
49154W        W14315  18.966  21.156   1.689
49155W        W14316  16.840  42.606  12.494
49156W        W14317  24.936  32.980   2.309
49157W        W14318  24.437  36.659  14.209
49158W        W14319  32.985  13.392   3.677
49159W        W14320  27.581  11.829  14.043
49160W        W14321  22.485  13.854   4.533
49161W        W14322  43.410  17.817  11.596
49162W        W14323   2.156  10.618  13.429
49163W        W14324  19.562   0.578  10.713
49164W        W14325  17.925   5.852   1.300
49165W        W14326  40.776  24.962   4.170
49166W        W14327   7.270  28.428   1.113
49167W        W14328  17.191  29.583  11.252
49168W        W14329  15.571  12.681   4.162
49169W        W14330  44.860  16.822  14.876
49170W        W14331   2.027   8.361   2.272
49171W        W14332   4.670  43.315   0.470
49172W        W14333   9.779  20.922   4.057
49173W        W14334   5.964  25.395   3.356
49174W        W14335   4.696   5.902  11.155
49175W        W14336  17.286  32.102  12.996
49176W        W14337  41.404  37.746  14.658
49177W        W14338  27.961  39.397  13.427
49178W        W14339  43.389  26.267  14.620
49179W        W14340  41.013  37.186   0.815
49180W        W14341  11.715  18.948  14.257
49181W        W14342  18.604  23.925   4.112
49182W        W14343  12.073   5.158   3.651
49183W        W14344  40.939  35.285   0.742
49184W        W14345  37.014  18.180  10.694
49185W        W14346  24.294   8.887  11.143
49186W        W14347  27.433   3.697   4.280
49187W        W14348  10.692  28.605  12.921
49188W        W14349  25.681  16.322   4.609
49189W        W14350   7.232  44.062   2.377
49190W        W14351  42.925  14.308   1.403
49191W        W14352  28.167  31.179  14.343
49192W        W14353  16.782   9.927   2.732
49193W        W14354  18.126  28.375  13.979
49194W        W14355   3.808   5.359   2.859
49195W        W14356  28.126  27.044   1.330
49196W        W14357  14.439   1.559   0.378
49197W        W14358  38.498  29.893   4.928
49198W        W14359  40.949   7.127   1.170
49199W        W14360  31.313  14.336   4.607
49200W        W14361  13.710  24.689   3.125
49201W        W14362  20.404   9.883  14.374
49202W        W14363   7.215  31.663   2.138
49203W        W14364  26.485  31.981   5.119
49204W        W14365  20.967  43.036  13.203
49205W        W14366  29.425  26.915  11.904
49206W        W14367  22.637  23.664  12.196
49207W        W14368  23.720  20.950  10.706
49208W        W14369  15.740  11.843   5.121
49209W        W14370  21.640  43.797  12.512
49210W        W14371  27.156  24.318   4.510
49211W        W14372  30.166  30.696  14.871
49212W        W14373  29.553  32.624  13.784
49213W        W14374  28.066  32.521   3.434
49214W        W14375  39.757  38.011  13.353
49215W        W14376  31.262  19.129   1.789
49216W        W14377   0.035  38.690  11.358
49217W        W14378  30.680   7.259   4.738
49218W        W14379  34.908  27.987  11.536
49219W        W14380   5.468  37.342   3.511
49220W        W14381  13.911  29.448   0.466
49221W        W14382  25.452  12.760  12.027
49222W        W14383  44.520  15.024  13.491
49223W        W14384  25.785  22.184   1.676
49224W        W14385   8.603   1.152   4.096
49225W        W14386   1.355  20.897  11.660
49226W        W14387  28.578  16.751  12.004
49227W        W14388  23.504  33.844   3.559
49228W        W14389  17.979  29.406   0.593
49229W        W14390  42.412  11.760  13.327
49230W        W14391  26.099  16.424   4.899
49231W        W14392  27.923  11.366  12.808
49232W        W14393  37.428   5.931  12.740
49233W        W14394   0.677  32.475   4.376
49234W        W14395  17.423  41.240   5.428
49235W        W14396  10.846  28.154  11.644
49236W        W14397  41.198  41.151  13.042
49237W        W14398  34.977  33.981   3.260
49238W        W14399   8.922  23.045   1.979
49239W        W14400  27.880  34.888   4.164
49240W        W14401  24.151  28.551  12.135
49241W        W14402  34.205  19.664  13.358
49242W        W14403  26.390  30.410  14.382
49243W        W14404   9.783  16.707  11.077
49244W        W14405   9.488  43.400   4.409
49245W        W14406  26.870  30.024   2.849
49246W        W14407  30.571  14.597   4.188
49247W        W14408  39.402  32.517   4.732
49248W        W14409   4.458  43.684   4.212
49249W        W14410  25.027   2.013   0.644
49250W        W14411  36.599  18.603   4.129
49251W        W14412   9.354  16.168  13.622
49252W        W14413  35.221  19.353  14.419
49253W        W14414  11.638  37.527   4.178
49254W        W14415  26.572   4.515   1.487
49255W        W14416  20.160  37.463  14.713
49256W        W14417  30.863  44.031  11.204
49257W        W14418  23.709  34.421   4.640
49258W        W14419   8.912  20.741   4.714
49259W        W14420  24.253   6.117  12.024
49260W        W14421   7.179  30.210   4.992
49261W        W14422  26.814  36.798   1.508
49262W        W14423   2.221  15.872  14.874
49263W        W14424   7.858  33.022   4.551
49264W        W14425  43.132  35.192  10.845
49265W        W14426   5.878  44.493   2.698
49266W        W14427  38.336  20.958   4.033
49267W        W14428  19.018  37.574   2.882
49268W        W14429  10.154   1.336   1.832
49269W        W14430  35.969   4.340   0.936
49270W        W14431  26.156  14.687   1.150
49271W        W14432  31.486  23.455  11.485
49272W        W14433  22.763  26.131   2.307
49273W        W14434  44.364  17.987   0.314
49274W        W14435  33.005  42.044  11.944
49275W        W14436   5.169  22.921   3.754
49276W        W14437  33.170  20.291  13.905
49277W        W14438  27.590  28.256   3.752
49278W        W14439  33.180  35.434  13.459
49279W        W14440   1.874  32.455   4.576
49280W        W14441  44.194  30.114   3.203
49281W        W14442  11.079  13.713   2.294
49282W        W14443  17.905  25.059   4.245
49283W        W14444  42.255  24.674   4.721
49284W        W14445  24.516  27.077  11.765
49285W        W14446  18.754   1.412   5.174
49286W        W14447  22.961  17.099  12.064
49287W        W14448  35.530  27.554   0.748
49288W        W14449  28.437   9.706   3.856
49289W        W14450  20.139  33.172  13.491
49290W        W14451  16.829  33.436  12.076
49291W        W14452  11.398  17.644   4.737
49292W        W14453  28.134  31.964  13.845
49293W        W14454  15.728  42.970   4.513
49294W        W14455  30.215  20.663  10.702
49295W        W14456   7.967  20.610  11.154
49296W        W14457  15.939  11.338   3.563
49297W        W14458  16.034  11.049   4.278
49298W        W14459  15.422   4.285  12.884
49299W        W14460  20.937  39.412  10.384
49300W        W14461  14.117  24.127  13.597
49301W        W14462  18.211  36.690   0.849
49302W        W14463  28.069   4.191   3.233
49303W        W14464  24.543  42.502  10.773
49304W        W14465  41.830  19.530   2.704
49305W        W14466  35.882  34.065   1.289
49306W        W14467  11.196  28.692  12.866
49307W        W14468  12.573   0.936  12.446
49308W        W14469  19.673  19.845   0.966
49309W        W14470   5.830   4.090  14.791
49310W        W14471  13.530  18.083   0.989
49311W        W14472  18.570  37.931  12.387
49312W        W14473  16.308   3.265  12.065
49313W        W14474  13.563  30.145  14.297
49314W        W14475   1.825   1.783   1.476
49315W        W14476   5.790  29.633  13.507
49316W        W14477   3.433   8.754  13.995
49317W        W14478  10.940   3.216   4.620
49318W        W14479  35.404  23.670   4.087
49319W        W14480   6.799  28.958   3.237
49320W        W14481  44.345  32.811  11.068
49321W        W14482  41.854  28.020   1.701
49322W        W14483  13.906  40.142   3.203
49323W        W14484   0.338   4.987  11.037
49324W        W14485  28.493  19.645  11.469
49325W        W14486  34.897  18.100   3.257
49326W        W14487  17.955  15.771   1.019
49327W        W14488  40.912  36.324  11.586
49328W        W14489  27.170  21.394  13.840
49329W        W14490  44.043  28.066  14.388
49330W        W14491  13.873  26.108   3.042
49331W        W14492  31.445  43.087  11.995
49332W        W14493  30.782  37.060   0.370
49333W        W14494  23.665   4.694   0.402
49334W        W14495  24.800  36.785  13.883
49335W        W14496   8.196  31.008  14.522
49336W        W14497  29.550   7.606   2.211
49337W        W14498  39.437  32.331  13.052
49338W        W14499  36.055  36.695  12.590
49339W        W14500  30.558  18.584   0.295
49340W        W14501  24.754  29.537   0.420
49341W        W14502  41.949  34.087  13.983
49342W        W14503  10.503  35.254   0.604
49343W        W14504   5.732  31.994  11.587
49344W        W14505  21.653  44.677   0.259
49345W        W14506  23.872  40.423   1.364
49346W        W14507  10.092  39.906   1.378
49347W        W14508  10.532  13.805  11.112
49348W        W14509  44.522   1.047   1.515
49349W        W14510   6.505   4.886   3.866
49350W        W14511  11.183   9.303  14.854
49351W        W14512  39.951   3.679   0.565
49352W        W14513  13.100  13.278  14.287
49353W        W14514  15.919  39.746  14.458
49354W        W14515   9.756  17.092  12.902
49355W        W14516  33.721  31.584   0.562
49356W        W14517  42.556  28.512   3.318
49357W        W14518  16.294  14.742   0.950
49358W        W14519  16.670  11.633   0.579
49359W        W14520  42.782  36.429  14.044
49360W        W14521  29.224  19.043  12.499
49361W        W14522  39.224  39.828   4.737
49362W        W14523  29.600  11.341   2.237
49363W        W14524  32.472  14.323   1.857
49364W        W14525  28.539  31.313  10.598
49365W        W14526  11.144   0.871   4.739
49366W        W14527  23.702   8.550  12.076
49367W        W14528  27.621  33.594  11.566
49368W        W14529  30.447  26.475   4.615
49369W        W14530  37.876  38.315   0.755
49370W        W14531  37.113  31.526   2.156
49371W        W14532  28.094  42.743  12.139
49372W        W14533  26.674   0.067  13.090
49373W        W14534   8.282  37.731   4.210
49374W        W14535   5.414  34.352  12.989
49375W        W14536  42.407  33.386  12.039
49376W        W14537  38.157  43.317  13.446
49377W        W14538   7.663  41.031   0.509
49378W        W14539  24.114  26.607  13.129
49379W        W14540  42.481   7.195  10.424
49380W        W14541  32.584  24.657  13.044
49381W        W14542  18.809  27.256  10.805
49382W        W14543  25.137  11.705   0.000
49383W        W14544  16.084  19.335   0.764
49384W        W14545  37.004  16.804   4.342
49385W        W14546  40.367  10.865   2.444
49386W        W14547  27.556  14.667  14.934
49387W        W14548   9.313  31.393   1.935
49388W        W14549  21.728  28.220   1.463
49389W        W14550  11.753  25.410   2.832
49390W        W14551   3.273  29.453  11.600
49391W        W14552  27.544  35.938   2.844
49392W        W14553  42.996   6.264   3.105
49393W        W14554  10.398  35.971   1.722
49394W        W14555  36.419  42.500   4.208
49395W        W14556   0.341  16.548  13.542
49396W        W14557  35.531  38.716   0.740
49397W        W14558  39.090  39.093  14.393
49398W        W14559  28.231  23.516   5.441
49399W        W14560  31.142  26.632   0.573
49400W        W14561  42.980   9.408   0.238
49401W        W14562   9.329   8.894   4.624
49402W        W14563  21.195  42.800  14.471
49403W        W14564  12.550  36.520   5.041
49404W        W14565  34.060   0.927   1.632
49405W        W14566   7.488  35.867   3.349
49406W        W14567   3.212  14.812   4.506
49407W        W14568  15.478  15.128  14.041
49408W        W14569   8.871  11.479  14.212
49409W        W14570  19.922  18.515   1.779
49410W        W14571   5.155   9.959   2.131
49411W        W14572  25.927  34.569  14.432
49412W        W14573  10.202  22.059   2.390
49413W        W14574  36.547   4.337   4.682
49414W        W14575  14.168  33.864   0.267
49415W        W14576  15.616  26.920   4.666
49416W        W14577  30.698   6.822  11.300
49417W        W14578  29.509  37.108   1.320
49418W        W14579   0.516  21.470   3.976
49419W        W14580  36.776  28.976  14.636
49420W        W14581  33.216  43.923  10.471
49421W        W14582   2.258  29.856  12.448
49422W        W14583  44.258   4.057   3.344
49423W        W14584  17.747  36.428   0.771
49424W        W14585  40.928  13.853   2.561
49425W        W14586  32.240  14.473  12.908
49426W        W14587   0.901  37.616  11.856
49427W        W14588   2.737  41.039  12.069
49428W        W14589  14.752   1.420   3.520
49429W        W14590  15.167  36.156   3.370
49430W        W14591   6.482  36.050  13.355
49431W        W14592  10.201  20.509  12.613
49432W        W14593  23.376  40.559   1.313
49433W        W14594  17.050  16.659  13.048
49434W        W14595  44.924  14.356   1.998
49435W        W14596  36.577  32.618   1.757
49436W        W14597  18.195   3.883   4.509
49437W        W14598  42.086  25.693  12.115
49438W        W14599  42.249  17.713   0.774
49439W        W14600  36.627  31.888   0.375
49440W        W14601  22.035  30.215   0.475
49441W        W14602  20.074  29.473  14.091
49442W        W14603   0.693  33.012   2.413
49443W        W14604   5.952   8.370   3.228
49444W        W14605   1.004  40.956   1.837
49445W        W14606   9.264  21.570   4.841
49446W        W14607  29.616  16.614  11.523
49447W        W14608  15.363  43.921   0.248
49448W        W14609  44.890  15.392  12.044
49449W        W14610  24.577  30.165   3.570
49450W        W14611  41.461  43.549  14.884
49451W        W14612   6.291  25.821   3.244
49452W        W14613  19.923  32.568   2.201
49453W        W14614  44.014  10.048  13.468
49454W        W14615  14.044   9.794  14.977
49455W        W14616   4.029  39.573   4.191
49456W        W14617  32.223  31.671  14.425
49457W        W14618  41.669  38.117  14.940
49458W        W14619  33.225  31.358  14.274
49459W        W14620  43.310   4.699   4.509
49460W        W14621  23.866  18.677   4.118
49461W        W14622   8.062  19.739  13.001
49462W        W14623  28.049  44.123  14.409
49463W        W14624  41.641  42.072   4.374
49464W        W14625  26.479  15.644  13.729
49465W        W14626  39.887  26.184   2.097
49466W        W14627   1.802  11.780  11.989
49467W        W14628  17.790   6.037   0.844
49468W        W14629  36.363  32.075   2.834
49469W        W14630  17.326  25.603  13.397
49470W        W14631  41.378  33.756  12.131
49471W        W14632  33.868  24.681  12.499
49472W        W14633   5.733  25.221   5.270
49473W        W14634   8.178  30.872   2.750
49474W        W14635   9.761  22.374  12.519
49475W        W14636  30.029  15.666   1.195
49476W        W14637  41.984   7.381  14.813
49477W        W14638  44.535   2.416   1.435
49478W        W14639  28.442  13.775   1.823
49479W        W14640  32.997  14.198   2.006
49480W        W14641  39.579  15.579  11.140
49481W        W14642   9.429  31.605   0.362
49482W        W14643  13.958  40.423  11.574
49483W        W14644   5.226  12.004   0.083
49484W        W14645  43.861  16.417  13.330
49485W        W14646   3.129   7.810   1.900
49486W        W14647  33.676   3.527  12.579
49487W        W14648  22.581  14.269  13.528
49488W        W14649  44.510  24.594  12.703
49489W        W14650  35.386  24.595   0.716
49490W        W14651   3.169  16.314   0.781
49491W        W14652  18.087   5.235  11.044
49492W        W14653  35.370  44.031  11.948
49493W        W14654   2.880  43.152  12.901
49494W        W14655  25.587  19.506  14.855
49495W        W14656  31.533  43.714   2.779
49496W        W14657   9.921  14.317  11.999
49497W        W14658  12.307   0.777  12.023
49498W        W14659   5.156  31.083  14.946
49499W        W14660  35.333  37.480  12.077
49500W        W14661  15.503   4.129   0.073
49501W        W14662   3.138  35.081  11.214
49502W        W14663   8.900  24.744  10.767
49503W        W14664  19.807   6.459  10.713
49504W        W14665  37.337  13.689   0.456
49505W        W14666  41.434  15.171  12.969
49506W        W14667  18.026  20.976  11.151
49507W        W14668  42.533  17.203  13.544
49508W        W14669  40.606  37.436   0.581
49509W        W14670  29.756  36.718  12.014
49510W        W14671  37.635  44.330   4.363
49511W        W14672  15.834  40.025   1.274
49512W        W14673  33.441   7.633  14.547
49513W        W14674  27.922  44.573   0.317
49514W        W14675   6.218  43.483   1.296
49515W        W14676   9.221  13.704   0.349
49516W        W14677  37.499  28.970  12.444
49517W        W14678  31.491  21.073   0.818
49518W        W14679  20.703  43.269   2.945
49519W        W14680  36.398  22.241  11.907
49520W        W14681  33.098  22.597  13.068
49521W        W14682  36.322  24.189   3.738
49522W        W14683  26.346   1.900  12.953
49523W        W14684  33.799   5.584   3.748
49524W        W14685   8.321   5.285  11.621
49525W        W14686  26.204  24.239  12.905
49526W        W14687  37.455  44.221  12.472
49527W        W14688  40.197  41.015   4.587
49528W        W14689  13.362  34.026   2.729
49529W        W14690   8.217  26.130  14.332
49530W        W14691  33.667  39.371   2.562
49531W        W14692  29.621  12.713   1.728
49532W        W14693  28.618  38.484  11.695
49533W        W14694  32.913  40.277   1.110
49534W        W14695   6.301  28.231   3.161
49535W        W14696  21.436  35.963  12.030
49536W        W14697  26.218  37.532  12.150
49537W        W14698  13.009  25.159  10.433
49538W        W14699  27.126  19.181   1.221
49539W        W14700  29.132  35.086   3.638
49540W        W14701  25.260   2.958  14.821
49541W        W14702  18.092  10.913   1.371
49542W        W14703  25.474  20.265  12.122
49543W        W14704  29.171  25.926   3.724
49544W        W14705   3.576   7.876   1.558
49545W        W14706  38.471  28.941  13.537
49546W        W14707  22.669   1.851   3.206
49547W        W14708  37.736  25.247   2.739
49548W        W14709  19.260  40.854  13.806
49549W        W14710  20.473  35.715  13.058
49550W        W14711  18.542  36.378   1.428
49551W        W14712  11.176   1.734  12.940
49552W        W14713  30.474  17.157  11.599
49553W        W14714  24.047  34.667   0.587
49554W        W14715  33.034  28.393  12.975
49555W        W14716  12.940  39.088  13.323
49556W        W14717  33.034   2.700  14.037
49557W        W14718  26.554  36.593  13.469
49558W        W14719  13.378   1.183  14.570
49559W        W14720   7.069  35.003  13.986
49560W        W14721  28.636  39.359  12.929
49561W        W14722  15.736   5.736  10.038
49562W        W14723  27.658  17.096  11.928
49563W        W14724  29.655   4.306  12.032
49564W        W14725   1.186  16.288  12.563
49565W        W14726  21.461   1.901   0.922
49566W        W14727  44.954  12.184  13.722
49567W        W14728   5.955  41.989   3.165
49568W        W14729  34.051  30.309  11.395
49569W        W14730  20.106   7.721  13.354
49570W        W14731  12.191  31.609   1.848
49571W        W14732   5.270  11.085   0.495
49572W        W14733  22.991  28.046   3.744
49573W        W14734   5.783  18.999  12.092
49574W        W14735   8.382  14.288  11.077
49575W        W14736  15.390  17.216   3.052
49576W        W14737  32.371  15.360  10.726
49577W        W14738  17.499  29.940   2.146
49578W        W14739  32.105  30.614   3.311
49579W        W14740  39.038  39.339   4.723
49580W        W14741  19.403  12.181  12.959
49581W        W14742  35.811  28.657   1.794
49582W        W14743   4.439  17.041  12.518
49583W        W14744  14.223  30.252   2.827
49584W        W14745  44.516  32.961   2.693
49585W        W14746  18.104  26.522  13.043
49586W        W14747   2.488  34.521  12.603
49587W        W14748  19.255  23.336  12.632
49588W        W14749  29.758   1.804  14.322
49589W        W14750  21.367   9.991  11.616
49590W        W14751  22.265  34.597  10.657
49591W        W14752   0.441  18.637  11.456
49592W        W14753   3.178  35.740  14.786
49593W        W14754  22.181  19.038  10.726
49594W        W14755  34.574  21.141   4.942
49595W        W14756   5.502  42.980   1.460
49596W        W14757  13.375  26.601   1.422
49597W        W14758  29.933   4.817   0.335
49598W        W14759  29.982   2.755  13.786
49599W        W14760  39.340  15.174   0.010
49600W        W14761   4.139   4.437  13.862
49601W        W14762  19.821  16.698  10.511
49602W        W14763  36.632  39.045   1.859
49603W        W14764  27.698  11.268   3.728
49604W        W14765  23.205  35.611   2.342
49605W        W14766  14.952   2.260   3.307
49606W        W14767  30.425   7.361  11.324
49607W        W14768   0.861   9.170  11.118
49608W        W14769  15.596  17.310   3.876
49609W        W14770  20.651   8.051  12.509
49610W        W14771  44.860   0.303  14.498
49611W        W14772  39.635  23.092  12.104
49612W        W14773  20.127  22.709   4.466
49613W        W14774   7.743  15.003  13.510
49614W        W14775   0.094   1.754  13.211
49615W        W14776  36.343  21.265   5.155
49616W        W14777  11.573  38.661  13.323
49617W        W14778  12.239  15.992   3.268
49618W        W14779  19.572  43.968   3.359
49619W        W14780   0.542   4.673  14.533
49620W        W14781   9.290  38.155  14.791
49621W        W14782  43.951   2.396   1.217
49622W        W14783  17.049   8.753   0.783
49623W        W14784  20.800   5.301   2.263
49624W        W14785  34.622  11.361   2.166
49625W        W14786  29.444  44.470   0.475
49626W        W14787  38.063  44.316   2.876
49627W        W14788   4.267   3.949   2.455
49628W        W14789   7.837  11.843  12.566
49629W        W14790  21.063  43.731  11.651
49630W        W14791  26.895  44.864  11.554
49631W        W14792  17.099  30.570  11.129
49632W        W14793  30.797  30.002   3.860
49633W        W14794  42.371  30.982  12.072
49634W        W14795  11.738  39.500  14.524
49635W        W14796  41.078  19.597   3.191
49636W        W14797  38.604   0.478   2.454
49637W        W14798  38.754  40.832  10.572
49638W        W14799  38.641  13.543   1.223
49639W        W14800  10.171  14.632  13.142
49640W        W14801   9.017  21.192  14.470
49641W        W14802  35.525   3.818  14.824
49642W        W14803   2.547   5.198  12.080
49643W        W14804  18.576  36.517  12.112
49644W        W14805   7.190   0.475  12.644
49645W        W14806  42.540   2.041  12.473
49646W        W14807  42.902  33.965  14.041
49647W        W14808  44.558  37.080  13.557
49648W        W14809  16.388  37.463   3.666
49649W        W14810  32.801  14.613  10.652
49650W        W14811  39.938  19.407  12.913
49651W        W14812  33.006  29.581   2.471
49652W        W14813  22.820   2.796  12.604
49653W        W14814  36.081  44.838   3.080
49654W        W14815  17.322  21.162   2.927
49655W        W14816  35.929  40.294  14.905
49656W        W14817  15.629  30.212   1.218
49657W        W14818  38.790   2.418   1.270
49658W        W14819  16.267  12.068  11.554
49659W        W14820  20.946  16.845   0.799
49660W        W14821   9.182  31.607   2.383
49661W        W14822  18.549  30.128  11.128
49662W        W14823   2.788  33.615   2.384
49663W        W14824  15.643  35.837   0.816
49664W        W14825  41.566   4.209  11.628
49665W        W14826  28.645  40.221  11.198
49666W        W14827  26.491  36.586  10.775
49667W        W14828  26.695  20.109   1.157
49668W        W14829  44.410  42.945   1.500
49669W        W14830  26.237  43.417   4.696
49670W        W14831  17.722   5.968   3.612
49671W        W14832  42.067  20.716  13.794
49672W        W14833  31.462  16.396  12.257
49673W        W14834  15.821   3.466   2.708
49674W        W14835  19.514  27.430   0.851
49675W        W14836   5.216   0.866  11.965
49676W        W14837  35.519  21.045   0.789
49677W        W14838  26.743  30.926   1.880
49678W        W14839  28.923  14.980   3.475
49679W        W14840  32.822  42.623   4.979
49680W        W14841  18.537  21.409   0.695
49681W        W14842  28.106   7.758   0.639
49682W        W14843  26.442  28.226  13.891
49683W        W14844  39.866  12.483   4.032
49684W        W14845  22.971  43.944  14.775
49685W        W14846  44.865  17.050   2.802
49686W        W14847  25.218   2.550  13.976
49687W        W14848  11.634   9.374  13.915
49688W        W14849  27.749  31.054  13.196
49689W        W14850   2.238   1.392  11.887
49690W        W14851   0.974   0.932   1.487
49691W        W14852  40.408  37.980   2.767
49692W        W14853   3.379  42.987  14.419
49693W        W14854  27.928   5.246   1.471
49694W        W14855   3.684  17.728   0.480
49695W        W14856  20.891   6.812   1.746
49696W        W14857  24.289   7.827  12.946
49697W        W14858  39.479  32.027  12.370
49698W        W14859   1.683  22.193  10.601
49699W        W14860   9.752  33.619   3.108
49700W        W14861  41.756   1.815   3.687
49701W        W14862  39.391  24.596  14.515
49702W        W14863  24.572  36.147   3.690
49703W        W14864  38.321  22.632   4.807
49704W        W14865  18.705  18.767  10.655
49705W        W14866   3.838  32.026   3.253
49706W        W14867  33.973  18.845   3.244
49707W        W14868  29.192  20.298   4.169
49708W        W14869   5.527  44.861  10.672
49709W        W14870  16.194  31.861   2.754
49710W        W14871  25.573  13.097   2.721
49711W        W14872  17.808  33.880  13.982
49712W        W14873  16.172   1.773  14.321
49713W        W14874  27.435   2.616  13.863
49714W        W14875  39.986  26.480   0.811
49715W        W14876  43.953  33.861   3.359
49716W        W14877  10.714  27.841  14.848
49717W        W14878  16.245  12.078   4.301
49718W        W14879  22.555  14.405   2.263
49719W        W14880  31.228  38.071   1.044
49720W        W14881  37.038   0.479  10.526
49721W        W14882  38.341   6.857   0.842
49722W        W14883  27.436  41.715   2.231
49723W        W14884  19.604  37.058  11.517
49724W        W14885  24.532  27.251   1.816
49725W        W14886  10.147  42.539  10.300
49726W        W14887  31.018   0.001   3.943
49727W        W14888  21.438  32.838  14.570
49728W        W14889  11.825   9.444   3.650
49729W        W14890  40.326  12.552   4.750
49730W        W14891  29.973  34.018  11.678
49731W        W14892  34.400  12.047  11.580
49732W        W14893   7.040  22.873  13.582
49733W        W14894  36.428  26.690   3.786
49734W        W14895   0.750   0.714   2.442
49735W        W14896  29.474  16.404  10.715
49736W        W14897   2.324  22.433  10.661
49737W        W14898   1.915  24.615   0.184
49738W        W14899   5.162  18.213   0.366
49739W        W14900  25.619  41.049   4.277
49740W        W14901  23.140   7.138  11.951
49741W        W14902  12.188  21.232   1.950
49742W        W14903  15.510  28.962  10.693
49743W        W14904  21.850  19.503  10.216
49744W        W14905  38.476  16.767   1.770
49745W        W14906   5.724  21.653  10.947
49746W        W14907   0.396  30.351   0.762
49747W        W14908  39.294  35.062  13.371
49748W        W14909  19.171   0.396  13.357
49749W        W14910  13.647  36.864  11.358
49750W        W14911  18.088  13.729  12.175
49751W        W14912  20.299  38.795   0.428
49752W        W14913  17.005   0.247   1.854
49753W        W14914  28.971  26.872  10.640
49754W        W14915  31.965  23.804  11.013
49755W        W14916  43.240  36.562   2.651
49756W        W14917  21.133   1.300   3.505
49757W        W14918  35.118  13.146   4.660
49758W        W14919   6.743  17.653  10.564
49759W        W14920  35.817  39.735  13.989
49760W        W14921  34.139  40.622   4.890
49761W        W14922  19.494  13.593  14.826
49762W        W14923  44.551   6.334   0.451
49763W        W14924   8.411  10.649  13.408
49764W        W14925  43.423   6.903   4.267
49765W        W14926  17.958  26.001   1.247
49766W        W14927  19.683   3.686  14.893
49767W        W14928  35.209   0.310   3.672
49768W        W14929  11.796  26.926   4.136
49769W        W14930  14.705  27.680   1.312
49770W        W14931   3.162  33.874  12.510
49771W        W14932  42.511  42.380   0.798
49772W        W14933  36.716  17.462  11.186
49773W        W14934   0.683  13.725  13.834
49774W        W14935   3.180  38.531  13.433
49775W        W14936   1.075   4.638  12.107
49776W        W14937   3.320  31.392   0.409
49777W        W14938  23.172  36.064  10.658
49778W        W14939  33.147   2.557   2.787
49779W        W14940   9.153  28.999  14.912
49780W        W14941  32.999  26.600   1.111
49781W        W14942  14.248  13.269  13.275
49782W        W14943   4.795   8.617  14.878
49783W        W14944  39.035  22.042   1.833
49784W        W14945   1.559  21.280   4.121
49785W        W14946  17.981   0.511   3.407
49786W        W14947  44.003  19.204  13.355
49787W        W14948  36.357  44.781  12.933
49788W        W14949  23.612  14.628   4.121
49789W        W14950  12.846  31.157  12.830
49790W        W14951  21.776   6.228   3.267
49791W        W14952   2.198  31.557   2.497
49792W        W14953  36.167   0.507  14.607
49793W        W14954  22.225  27.003  14.337
49794W        W14955  26.643  42.093   4.792
49795W        W14956  23.119  33.470   2.473
49796W        W14957  38.518  37.573   0.436
49797W        W14958   3.836   9.745  10.191
49798W        W14959   5.186  33.908  13.108
49799W        W14960  38.954  10.923   3.996
49800W        W14961  25.942  19.405  12.156
49801W        W14962  36.707   6.751   1.930
49802W        W14963   0.463  16.163   2.877
49803W        W14964  29.945  37.394   0.474
49804W        W14965  26.770  18.646   0.821
49805W        W14966  27.727   8.811  11.166
49806W        W14967  11.658  18.003  14.448
49807W        W14968  38.643   2.385  11.419
49808W        W14969  30.870  34.928   1.425
49809W        W14970  42.006   0.507  11.104
49810W        W14971  18.651  37.832  14.763
49811W        W14972  42.008  28.005   4.660
49812W        W14973  38.284   6.774   2.779
49813W        W14974  16.074  10.785  14.726
49814W        W14975   1.703  37.099  13.427
49815W        W14976  23.975  37.268   0.234
49816W        W14977  13.147  41.386  13.363
49817W        W14978  17.623  21.979  13.827
49818W        W14979   5.644  24.202   0.792
49819W        W14980  22.999  40.131   4.049
49820W        W14981   5.752  40.913   0.935
49821W        W14982   8.394  12.798   2.779
49822W        W14983  20.666  27.256  13.023
49823W        W14984  11.314   0.144   4.411
49824W        W14985   3.912  10.127   2.764
49825W        W14986  36.544   2.468   3.653
49826W        W14987   5.843  24.544   3.117
49827W        W14988  17.762   1.281   2.728
49828W        W14989  27.014  27.510   2.718
49829W        W14990  12.378  25.769   1.789
49830W        W14991  40.745  18.613  13.824
49831W        W14992   0.834  21.056  13.784
49832W        W14993  41.456  33.125   1.212
49833W        W14994  33.226  24.738   3.312
49834W        W14995  19.962   6.916  12.599
49835W        W14996  36.962  11.411   3.578
49836W        W14997  40.322  27.896   0.841
49837W        W14998  32.818  25.075   2.448
49838W        W14999   3.180   4.398  12.426
49839W        W15000   6.789   1.724   1.569
49840W        W15001  33.329  10.001   2.316
49841W        W15002  15.610  29.045   1.820
49842W        W15003  11.311  13.378  13.373
49843W        W15004  43.758  26.026   4.215
49844W        W15005   0.902  20.820  11.072
49845W        W15006  14.809   2.450  11.741
49846W        W15007   1.715  23.536   3.698
49847W        W15008  23.162  43.877  11.057
49848W        W15009  44.221  44.598  11.393
49849W        W15010   5.256  19.987  11.035
49850W        W15011  26.331  28.081   4.215
49851W        W15012  30.868  11.418   4.194
49852W        W15013   0.471  21.107  11.072
49853W        W15014   6.910  10.640   2.146
49854W        W15015  16.140  34.382   0.435
49855W        W15016   7.711   3.393  12.951
49856W        W15017  16.824  38.065  11.119
49857W        W15018   1.979  29.591  12.835
49858W        W15019   5.712   6.181   3.257
49859W        W15020   6.132   0.759  12.422
49860W        W15021  17.104   8.226  14.370
49861W        W15022  16.296  18.289   2.065
49862W        W15023  38.473  42.851   3.396
49863W        W15024  42.390  38.741   2.246
49864W        W15025  26.409  14.715  10.307
49865W        W15026  12.964  14.635  14.358
49866W        W15027  18.146  21.270   0.364
49867W        W15028  20.530  11.544   2.664
49868W        W15029  21.659  41.307   0.730
49869W        W15030   3.187  28.858   0.381
49870W        W15031  39.397  24.984  14.885
49871W        W15032  43.520  19.132  12.384
49872W        W15033  26.604  36.090   3.734
49873W        W15034  10.627  39.963   1.413
49874W        W15035  42.780  27.184   4.898
49875W        W15036  32.516  17.251  14.981
49876W        W15037   8.799  33.769  11.464
49877W        W15038   3.218  39.051   1.302
49878W        W15039  23.963   9.232   1.281
49879W        W15040  35.319  25.443   4.221
49880W        W15041  31.018   1.005   2.787
49881W        W15042  41.121   0.552   4.569
49882W        W15043  39.570  11.097  14.268
49883W        W15044  33.967  42.967   0.245
49884W        W15045  43.564  13.916  12.480
49885W        W15046  20.553  13.296  13.065
49886W        W15047  36.129  13.388   3.650
49887W        W15048  20.202  31.886  14.042
49888W        W15049  25.525  13.945  13.445
49889W        W15050  29.381   1.745   0.855
49890W        W15051  28.163  35.804  12.495
49891W        W15052  32.664   3.626   1.650
49892W        W15053  40.072  17.563   2.631
49893W        W15054  10.312   7.371  14.491
49894W        W15055  28.976  26.346  11.441
49895W        W15056   8.567  23.897   1.745
49896W        W15057  21.964   9.002   2.856
49897W        W15058   0.926  14.961  14.532
49898W        W15059  23.201  31.390  12.419
49899W        W15060  24.181   1.382   2.340
49900W        W15061  43.830  39.548   3.672
49901W        W15062  40.561  32.904   2.260
49902W        W15063   0.561  23.134  14.934
49903W        W15064  30.706  19.154   2.597
49904W        W15065  33.377  13.756   3.647
49905W        W15066  10.108  19.012   0.331
49906W        W15067  21.970  10.196  13.853
49907W        W15068   7.426  25.472  11.181
49908W        W15069  11.603  15.721   5.006
49909W        W15070  10.184  15.096   0.855
49910W        W15071  28.452  15.109   1.835
49911W        W15072   3.190   0.429   1.228
49912W        W15073  11.743   6.196   1.347
49913W        W15074  41.037  31.604   2.756
49914W        W15075  24.072  43.064  13.410
49915W        W15076  44.082  18.512  10.340
49916W        W15077  38.617   9.617  13.892
49917W        W15078   2.316  18.701   3.142
49918W        W15079  33.112  27.042  12.528
49919W        W15080  35.293  19.550   3.279
49920W        W15081  11.311   5.738  12.611
49921W        W15082  31.015  20.453  12.527
49922W        W15083  38.343   7.691  14.383
49923W        W15084  16.510  24.223  13.330
49924W        W15085   2.301  36.807  11.496
49925W        W15086  26.528   4.977  11.539
49926W        W15087  26.585   9.453   0.317
49927W        W15088  34.830  36.359  10.178
49928W        W15089  16.314  42.408   3.195
49929W        W15090  13.734   4.253   1.767
49930W        W15091  10.236   9.708   1.311
49931W        W15092  31.011  19.360  14.362
49932W        W15093  32.861  23.641  13.994
49933W        W15094  11.296   8.771   0.231
49934W        W15095  37.974  16.252   2.362
49935W        W15096  29.554  32.647  10.707
49936W        W15097  21.202  35.497  12.021
49937W        W15098   1.317  44.950   1.256
49938W        W15099   3.098  10.772  12.480
49939W        W15100  43.067  43.498   2.170
49940W        W15101  30.540   7.026   3.650
49941W        W15102  18.579  36.861  10.604
49942W        W15103  37.839  44.795  13.913
49943W        W15104  27.443  19.045  12.894
49944W        W15105  34.493   1.399   2.792
49945W        W15106  24.524  43.864   4.558
49946W        W15107  16.557  10.388  14.492
49947W        W15108  40.979  19.523   1.823
49948W        W15109  22.798  15.143  12.076
49949W        W15110  15.442  39.578  14.397
49950W        W15111  33.340  33.382  13.064
49951W        W15112  44.468  15.082  12.063
49952W        W15113   7.396  34.074   2.179
49953W        W15114  22.020   4.459   3.604
49954W        W15115  36.467   5.119   1.239
49955W        W15116  17.336  31.901  11.629
49956W        W15117  44.796   3.405   4.558
49957W        W15118  29.045  12.272  12.861
49958W        W15119   3.136   5.463  13.251
49959W        W15120   2.605  26.964  11.432
49960W        W15121  38.115  30.888  13.005
49961W        W15122  37.569  32.929  12.113
49962W        W15123  13.238   5.318   0.265
49963W        W15124  36.670  25.843  11.611
49964W        W15125  27.442  36.468  11.622
49965W        W15126  19.027  23.023   1.408
49966W        W15127  44.419  43.289   1.905
49967W        W15128  38.761   1.555   1.888
49968W        W15129  11.195  25.721  14.379
49969W        W15130  18.323  29.177  11.478
49970W        W15131  38.188  42.317   4.515
49971W        W15132  29.893  10.876   2.406
49972W        W15133  28.937   7.577   1.848
49973W        W15134  16.409  15.012   0.269
49974W        W15135  29.220  29.146  12.540
49975W        W15136   7.279  36.121   4.362
49976W        W15137   5.778  38.070   2.788
49977W        W15138   0.738  15.592   4.164
49978W        W15139  14.456  39.972  13.919
49979W        W15140  27.507  41.760   0.952
49980W        W15141  39.822  20.414   4.141
49981W        W15142   6.706  26.238  13.590
49982W        W15143  37.374  10.764  14.969
49983W        W15144  11.336  17.746  13.724
49984W        W15145  10.177  34.070   2.683
49985W        W15146  19.216  18.635   4.006
49986W        W15147   8.525  35.965   1.049
49987W        W15148  36.185   3.841  10.650
49988W        W15149  11.709  11.727  10.253
49989W        W15150  35.957   9.133  11.209
49990W        W15151  15.107  26.547  10.474
49991W        W15152  12.762  18.569  11.418
49992W        W15153  38.994  20.518  10.673
49993W        W15154  13.742  37.612   3.932
49994W        W15155  23.234  44.291   1.666
49995W        W15156  32.336  27.429  12.328
49996W        W15157  29.673   7.153   1.208
49997W        W15158  27.126  27.222   2.238
49998W        W15159  13.644  42.495  13.186
49999W        W15160   7.305  20.491   0.411
50000W        W15161  23.890  28.180  11.537
50001W        W15162  34.378   5.767  14.273
50002W        W15163  28.093  27.157  12.042
50003W        W15164  35.390  33.032   4.481
50004W        W15165  34.573  41.215   0.276
50005W        W15166   9.642  21.116  10.922
50006W        W15167  42.880   8.930  12.146
50007W        W15168  41.936   2.770  14.255
50008W        W15169  10.323   7.571   3.764
50009W        W15170  31.028  41.290   1.260
50010W        W15171  27.452  36.262   0.981
50011W        W15172  19.854  30.845  12.444
50012W        W15173  29.402  24.098  12.720
50013W        W15174  38.393  34.117   3.277
50014W        W15175  44.294  14.741  13.051
50015W        W15176  26.434  15.175   1.717
50016W        W15177  23.995  21.895  14.127
50017W        W15178  31.125  29.576  10.795
50018W        W15179  10.554   7.113   3.688
50019W        W15180  16.224  19.596  12.984
50020W        W15181  38.842  22.660   3.546
50021W        W15182  10.705  16.263  12.407
50022W        W15183  23.015  29.069  14.319
50023W        W15184  17.626  37.141  11.983
50024W        W15185  37.767   2.358   2.132
50025W        W15186  16.014  10.717  11.881
50026W        W15187  12.728   5.116   3.336
50027W        W15188   7.320  32.563  13.843
50028W        W15189  12.917  32.641   3.303
50029W        W15190  28.787  14.885  12.295
50030W        W15191  33.397  44.261  10.793
50031W        W15192  21.777  28.200   0.950
50032W        W15193  17.025   3.525  14.919
50033W        W15194   8.359   1.185  12.436
50034W        W15195   6.801  12.816   0.778
50035W        W15196  11.765   0.411  10.741
50036W        W15197  39.455   1.783  12.133
50037W        W15198  44.896  24.988   5.006
50038W        W15199  12.245  22.045  11.571
50039W        W15200  26.888   4.260   0.510
50040W        W15201  30.253  12.249  13.552
50041W        W15202  24.272  33.249   0.512
50042W        W15203  11.839   9.634  14.385
50043W        W15204  14.514  42.998  10.160
50044W        W15205   4.854  15.204  14.845
50045W        W15206   4.384  31.875   4.146
50046W        W15207  21.268   3.818   2.721
50047W        W15208  33.894  12.611  11.499
50048W        W15209   8.616  11.675  13.811
50049W        W15210   9.296   3.521   0.235
50050W        W15211  16.187  36.643  12.519
50051W        W15212   5.671  25.989   0.409
50052W        W15213   8.588   2.412   5.584
50053W        W15214   2.799  25.004  10.415
50054W        W15215   0.063  42.536   0.915
50055W        W15216  35.765  31.100   4.784
50056W        W15217  34.403  21.121   3.586
50057W        W15218  21.010  39.837   1.377
50058W        W15219  14.542   5.378  13.991
50059W        W15220  19.614  19.587  13.594
50060W        W15221  15.801  35.119   4.994
50061W        W15222  22.982  24.233  14.896
50062W        W15223  22.634  31.482  10.574
50063W        W15224  28.064  39.933   4.086
50064W        W15225  42.342   6.690  13.943
50065W        W15226  18.241  36.531  13.730
50066W        W15227  31.531  16.573  14.066
50067W        W15228  26.122   9.970  12.071
50068W        W15229   6.512  20.602  11.485
50069W        W15230  28.281  32.816   2.653
50070W        W15231  11.039  17.377   0.352
50071W        W15232   3.779  40.472   2.159
50072W        W15233  12.555  23.338  12.894
50073W        W15234  35.031  40.288   1.537
50074W        W15235  20.824   4.329   2.195
50075W        W15236  23.723  15.101  14.733
50076W        W15237  21.256  15.391  13.682
50077W        W15238   2.229  15.394  10.009
50078W        W15239  30.073  10.325  12.247
50079W        W15240  39.373   8.824   0.020
50080W        W15241  22.976  11.158   0.226
50081W        W15242  27.670  30.711   4.556
50082W        W15243   3.280  38.519   2.412
50083W        W15244  42.559  35.581   2.153
50084W        W15245  40.541  40.569  11.461
50085W        W15246  23.204  39.860  11.089
50086W        W15247  27.589  17.122  11.411
50087W        W15248  13.709   8.330   4.214
50088W        W15249  35.917  38.782   3.716
50089W        W15250  43.614  40.775   4.436
50090W        W15251  11.744  15.761   3.670
50091W        W15252  25.666  25.223   4.494
50092W        W15253  21.681  24.552   3.128
50093W        W15254  12.556  23.655   0.834
50094W        W15255  37.378  31.524  13.791
50095W        W15256  33.976  33.000   3.301
50096W        W15257  26.582  11.037  12.255
50097W        W15258   3.298   5.105   1.241
50098W        W15259   9.137   5.895  12.730
50099W        W15260  26.939  22.017  14.779
50100W        W15261  26.898   1.553  12.424
50101W        W15262  13.754  40.080   3.752
50102W        W15263   8.281  19.292  11.209
50103W        W15264  11.323   7.657   4.683
50104W        W15265  40.418  37.335   3.226
50105W        W15266  19.654   4.301   4.651
50106W        W15267  25.097  23.029  13.677
50107W        W15268  23.869  40.008   3.702
50108W        W15269  17.150  38.041   4.260
50109W        W15270   2.183  43.999  11.182
50110W        W15271   4.828  31.893   4.526
50111W        W15272   3.955  18.303   3.638
50112W        W15273  15.824  23.722   2.832
50113W        W15274  40.950   6.506  12.463
50114W        W15275   2.541   3.756  14.724
50115W        W15276  11.118  22.142  10.626
50116W        W15277  26.480  25.916   0.797
50117W        W15278  33.576  12.726   3.789
50118W        W15279  10.145   0.297  10.271
50119W        W15280   2.442  41.293   1.907
50120W        W15281  36.549  40.456  12.983
50121W        W15282   5.258  38.331  13.758
50122W        W15283  14.817   0.235  11.616
50123W        W15284   8.826   6.740   1.780
50124W        W15285  37.056   7.773   5.124
50125W        W15286  30.002  41.122   2.285
50126W        W15287  28.391  24.567   4.911
50127W        W15288   5.757  43.987  13.086
50128W        W15289  10.468  24.075  13.466
50129W        W15290  23.597  37.652  14.027
50130W        W15291  14.537   3.273  10.171
50131W        W15292  30.734  20.985  13.358
50132W        W15293  21.237  38.456  11.835
50133W        W15294  17.708   5.241   0.385
50134W        W15295  36.388  25.518  14.461
50135W        W15296   8.777  16.620  10.619
50136W        W15297  30.473  39.808  14.353
50137W        W15298  22.833  20.651  11.709
50138W        W15299  11.374   4.755  12.033
50139W        W15300   9.856   4.022  14.431
50140W        W15301  38.067  36.671   3.294
50141W        W15302   1.882  11.439   2.791
50142W        W15303   8.546  31.885   0.682
50143W        W15304  24.215  35.785   4.944
50144W        W15305  38.475  42.263  11.930
50145W        W15306  28.023  33.873   0.033
50146W        W15307   4.408  35.752  12.921
50147W        W15308  42.982   8.092   3.155
50148W        W15309  29.284  24.608   3.060
50149W        W15310  37.989  34.404  13.948
50150W        W15311   3.955  37.429   0.765
50151W        W15312  13.753  39.867  12.839
50152W        W15313  12.814  37.185  13.488
50153W        W15314  38.209   3.714   3.281
50154W        W15315  34.924  15.131  11.265
50155W        W15316  34.141  13.052  12.912
50156W        W15317  28.099  34.017  10.953
50157W        W15318  14.154   3.199   1.121
50158W        W15319  21.009  38.706   4.641
50159W        W15320  37.944   2.111   4.193
50160W        W15321   7.350  29.565  11.381
50161W        W15322   2.541   1.731  12.180
50162W        W15323  24.957  28.120   4.102
50163W        W15324  36.181  28.971  13.519
50164W        W15325  19.233  20.170   3.306
50165W        W15326  19.700  19.462  14.572
50166W        W15327  12.534  40.648   3.507
50167W        W15328   8.633   6.919   2.316
50168W        W15329  42.779  16.148   0.843
50169W        W15330  44.384  26.652   0.017
50170W        W15331   5.431  29.988   4.483
50171W        W15332  17.803  18.947  13.724
50172W        W15333  25.307  40.271  13.157
50173W        W15334  14.984  43.955  10.724
50174W        W15335  29.648  44.964   2.320
50175W        W15336  15.172   2.889  10.603
50176W        W15337  26.218  41.405  14.722
50177W        W15338  29.563  12.637   0.831
50178W        W15339  35.797  36.012   3.286
50179W        W15340   7.928  36.139   3.279
50180W        W15341  36.397  19.432  11.172
50181W        W15342  42.442  35.565   4.208
50182W        W15343   7.631   4.236   2.868
50183W        W15344  26.663  25.431   2.900
50184W        W15345  15.903   7.701  12.439
50185W        W15346  13.724  10.408  12.587
50186W        W15347  24.516  43.331   3.356
50187W        W15348  31.029  12.081   2.836
50188W        W15349  34.623  13.165   4.508
50189W        W15350  18.522  12.713  13.022
50190W        W15351  28.525  37.030   3.650
50191W        W15352  30.317  16.819   2.936
50192W        W15353  25.336  18.238   2.082
50193W        W15354  34.039  37.520   5.460
50194W        W15355  35.624  19.501  11.666
50195W        W15356  43.955  44.556  13.815
50196W        W15357  30.347  12.192   2.243
50197W        W15358   9.481  19.934   3.871
50198W        W15359  12.211  15.322   0.908
50199W        W15360  13.896   7.434   3.144
50200W        W15361  39.051  12.681  13.263
50201W        W15362   1.205  12.668  12.013
50202W        W15363  17.192   9.198   2.309
50203W        W15364  31.459  40.940   3.938
50204W        W15365  12.105  13.204   0.430
50205W        W15366  43.734  12.261  14.385
50206W        W15367  20.522  16.569   0.015
50207W        W15368  17.322   6.405  12.420
50208W        W15369  26.024  15.825  13.563
50209W        W15370  38.051  40.143  10.410
50210W        W15371  33.031  31.160   4.705
50211W        W15372   8.869  19.602  13.366
50212W        W15373  23.120   5.450   4.173
50213W        W15374  28.932  14.851   4.081
50214W        W15375   7.653   1.475   4.227
50215W        W15376  16.721  19.458   2.819
50216W        W15377  44.388  12.218   0.884
50217W        W15378  14.580  15.527   3.131
50218W        W15379  11.299   3.516  10.735
50219W        W15380   3.677  10.846   4.078
50220W        W15381   5.899   6.397   0.240
50221W        W15382  27.901  27.792   0.321
50222W        W15383   8.313  10.638   2.299
50223W        W15384   9.753   2.748  12.379
50224W        W15385  43.332   8.672   3.718
50225W        W15386   5.371  23.950  10.123
50226W        W15387  24.655  24.077   3.208
50227W        W15388  12.125  36.795  14.956
50228W        W15389   8.444  28.795  12.911
50229W        W15390  43.728  34.061  14.638
50230W        W15391   1.525  36.362   2.758
50231W        W15392  29.712  23.196  13.010
50232W        W15393  12.243  14.234   0.442
50233W        W15394  10.719  17.150   4.850
50234W        W15395  20.556  16.170  14.727
50235W        W15396   1.773  27.842   0.847
50236W        W15397   2.481  33.642   9.962
50237W        W15398  15.623  34.673   3.536
50238W        W15399  39.806   5.852   3.379
50239W        W15400   9.939  13.913   0.904
50240W        W15401  35.654  35.769   3.995
50241W        W15402  17.786  31.405  14.435
50242W        W15403  16.669  25.237  13.039
50243W        W15404  20.504  42.377  12.896
50244W        W15405  12.882   0.890  11.131
50245W        W15406  36.806  13.222   1.056
50246W        W15407  40.403  31.875  11.993
50247W        W15408  10.610   8.606   0.988
50248W        W15409  40.090  42.344   4.866
50249W        W15410  10.906  32.179   1.773
50250W        W15411   0.816  38.681  13.419
50251W        W15412  20.704  28.498   0.406
50252W        W15413   9.830  25.987  14.886
50253W        W15414  30.691  20.341   4.246
50254W        W15415  40.260  34.148   2.888
50255W        W15416  35.414  18.699  13.361
50256W        W15417  41.687  30.995   1.645
50257W        W15418  17.592  39.831   0.969
50258W        W15419  25.049  25.662   3.573
50259W        W15420  39.969  20.657   3.683
50260W        W15421   4.909  14.221   4.100
50261W        W15422  39.789   9.991  11.032
50262W        W15423  25.047   0.971   4.350
50263W        W15424  37.497   5.628   4.579
50264W        W15425  22.355  25.671  14.813
50265W        W15426  21.121   8.559   1.924
50266W        W15427   7.859   2.863  10.840
50267W        W15428  23.724  43.647   0.878
50268W        W15429   1.592  24.437  13.402
50269W        W15430  18.749  24.716   1.869
50270W        W15431  43.735  26.630  12.595
50271W        W15432   5.469   9.202   3.701
50272W        W15433  35.611  10.217   1.693
50273W        W15434  37.437  22.178  11.167
50274W        W15435  41.482  27.979   4.081
50275W        W15436  42.593   8.218  12.207
50276W        W15437   8.127  38.828   0.265
50277W        W15438  17.073  12.659   2.884
50278W        W15439  30.153  37.204   0.906
50279W        W15440  36.638  42.269  13.506
50280W        W15441  33.606  10.780   1.172
50281W        W15442  28.241  16.161  11.424
50282W        W15443  35.600  19.982   1.109
50283W        W15444  23.757  24.515  14.391
50284W        W15445  17.728  41.750   2.304
50285W        W15446   1.758  28.401   4.182
50286W        W15447   4.688   9.918   4.413
50287W        W15448   9.675  26.024   0.764
50288W        W15449  17.073  27.409  11.192
50289W        W15450  31.884  17.654   0.676
50290W        W15451   2.729   3.398  13.905
50291W        W15452   3.179   3.361  11.864
50292W        W15453  36.415  36.322   0.376
50293W        W15454  39.876  31.024   2.491
50294W        W15455  15.644  28.502   1.788
50295W        W15456  14.870   9.703  13.568
50296W        W15457  16.547  38.951   9.794
50297W        W15458  25.801  34.781   2.266
50298W        W15459   3.742   0.799   0.465
50299W        W15460  43.240  27.579   2.279
50300W        W15461   0.527  43.961  14.050
50301W        W15462  15.749  33.988   3.294
50302W        W15463  16.980  42.455   0.788
50303W        W15464  26.717  17.609  10.651
50304W        W15465  36.099   7.424   0.769
50305W        W15466  42.343  24.184  14.356
50306W        W15467  11.761  28.910   3.666
50307W        W15468  41.538   3.296  10.820
50308W        W15469  16.521  38.548   0.258
50309W        W15470  30.906  42.123   1.029
50310W        W15471  28.564  37.116   2.358
50311W        W15472   8.781  41.991  11.600
50312W        W15473  17.142  31.481   4.172
50313W        W15474   2.835   9.734  13.398
50314W        W15475  35.929  34.604   1.404
50315W        W15476  32.902  31.670   4.631
50316W        W15477  36.883  13.555   2.305
50317W        W15478  14.278   5.907   4.808
50318W        W15479   2.351  28.929   4.028
50319W        W15480  17.047  27.987  14.989
50320W        W15481  39.775  44.937  13.987
50321W        W15482  17.991  13.783  13.568
50322W        W15483   0.892  42.348  12.924
50323W        W15484  28.492  17.238  11.241
50324W        W15485  11.611  20.627  14.010
50325W        W15486  23.691   0.248   2.263
50326W        W15487  44.691  30.056  11.503
50327W        W15488  43.618  40.470  12.524
50328W        W15489   4.861   3.717   3.089
50329W        W15490  42.773  25.699   3.706
50330W        W15491  38.026  34.567   3.787
50331W        W15492  11.091  18.811   0.351
50332W        W15493  35.157  36.014   1.977
50333W        W15494  26.478   2.703   2.536
50334W        W15495  25.164  12.061   1.237
50335W        W15496  35.937   2.822   2.417
50336W        W15497  27.737  32.503  12.157
50337W        W15498  12.444  15.242   0.451
50338W        W15499  10.335  17.954   2.843
50339W        W15500  26.441   8.722  10.601
50340W        W15501  38.281   0.155   3.217
50341W        W15502  19.293  42.037  11.201
50342W        W15503  17.523  25.766  14.303
50343W        W15504   7.767  26.635  14.203
50344W        W15505  25.097  36.992   3.369
50345W        W15506  17.847  12.842   0.325
50346W        W15507  16.295  34.182  13.649
50347W        W15508  11.657  42.765   2.786
50348W        W15509  42.477  40.034   2.883
50349W        W15510   7.015  41.937  12.912
50350W        W15511  13.834  33.930   3.664
50351W        W15512  19.244  20.750   1.425
50352W        W15513  32.587  16.650   2.386
50353W        W15514   3.059  36.447  14.389
50354W        W15515  12.359  28.546  10.817
50355W        W15516   0.326  14.816  14.385
50356W        W15517  36.442  21.278   4.331
50357W        W15518  33.705  33.928   4.809
50358W        W15519  27.505  27.619   2.644
50359W        W15520  26.936  18.050  14.795
50360W        W15521  38.997  33.080  12.906
50361W        W15522  34.201  18.697  10.869
50362W        W15523  23.940  28.123   3.865
50363W        W15524  37.870  15.017   1.977
50364W        W15525   9.352  25.130  12.218
50365W        W15526   4.348  43.448  12.811
50366W        W15527  36.039  12.049  11.939
50367W        W15528   3.171  41.514  12.520
50368W        W15529  17.747   7.682  14.928
50369W        W15530  25.602  32.167   3.699
50370W        W15531  21.068  19.329  14.203
50371W        W15532  35.467  41.363   2.432
50372W        W15533   7.721  10.239  11.625
50373W        W15534  44.346  39.341  12.094
50374W        W15535   8.685  10.712  14.837
50375W        W15536  31.344   7.800   0.820
50376W        W15537  12.197  38.405   4.403
50377W        W15538  42.436   4.258  13.862
50378W        W15539  27.036   4.483  14.406
50379W        W15540  41.041  36.807  13.840
50380W        W15541   0.034   9.207   4.346
50381W        W15542  44.836  14.264   1.504
50382W        W15543  39.864  32.903  10.743
50383W        W15544  26.650   4.875  12.447
50384W        W15545  14.367  10.887   2.368
50385W        W15546  44.284  28.040   1.833
50386W        W15547  30.049  13.079  10.902
50387W        W15548  19.376  32.118  10.803
50388W        W15549  24.684  12.245   2.901
50389W        W15550  44.287  32.551   2.413
50390W        W15551  36.359  42.771  10.728
50391W        W15552   6.313  18.228  14.992
50392W        W15553  21.681  14.324   2.405
50393W        W15554  23.973  32.086  13.226
50394W        W15555  43.228  35.253   2.683
50395W        W15556  35.637  38.993   1.891
50396W        W15557   8.288   9.684   2.566
50397W        W15558   4.571  20.482  10.570
50398W        W15559   6.465  44.835   0.014
50399W        W15560  37.504  14.582  13.473
50400W        W15561  37.881  21.696  10.581
50401W        W15562  26.361  14.708   5.092
50402W        W15563   3.893   1.289   1.893
50403W        W15564  16.614  32.175  13.462
50404W        W15565  22.628  18.955   2.367
50405W        W15566  26.162   1.439   4.710
50406W        W15567  30.555  38.822   5.009
50407W        W15568   9.270  34.089  13.939
50408W        W15569  39.532  41.435  13.834
50409W        W15570  33.044  28.647   0.659
50410W        W15571  43.384  11.043  13.918
50411W        W15572  29.787  21.423  14.471
50412W        W15573  21.256  21.910   2.610
50413W        W15574  15.395   2.468  11.504
50414W        W15575  29.219   1.930  11.581
50415W        W15576  37.961   6.018  10.454
50416W        W15577   6.753  15.254  14.565
50417W        W15578  27.898  32.691  13.379
50418W        W15579  30.094  14.477   1.549
50419W        W15580  23.756  37.533  12.480
50420W        W15581  19.860   0.351   0.336
50421W        W15582  31.184   3.237  12.592
50422W        W15583  24.602  32.416   0.786
50423W        W15584  38.525  15.880   0.811
50424W        W15585  13.677  30.445   5.006
50425W        W15586  22.705  17.654   4.940
50426W        W15587  43.427  17.272  14.303
50427W        W15588  32.146   9.275  11.998
50428W        W15589  29.083  37.396   1.501
50429W        W15590   5.121  28.884   3.257
50430W        W15591   0.506  40.117  13.747
50431W        W15592  12.045  41.418  11.087
50432W        W15593   0.351  32.348  10.631
50433W        W15594  16.393  14.378   2.845
50434W        W15595  38.057  39.172   1.757
50435W        W15596  14.326  21.822   1.891
50436W        W15597  34.764   8.159  12.989
50437W        W15598  32.983  30.861  10.771
50438W        W15599   4.223   0.353  14.993
50439W        W15600  15.709  25.033  14.116
50440W        W15601  34.906  20.261  10.448
50441W        W15602   0.363  22.642   3.200
50442W        W15603  22.262   9.748   0.402
50443W        W15604   5.510  21.182   5.033
50444W        W15605   9.019  22.826  11.135
50445W        W15606  27.276  16.058  10.745
50446W        W15607  18.051  28.623  12.086
50447W        W15608   4.436   5.110  12.652
50448W        W15609  37.620   1.303  13.977
50449W        W15610  20.531  20.943   3.199
50450W        W15611  28.940  12.033   2.175
50451W        W15612  19.137  31.373   2.595
50452W        W15613  20.214   0.443  12.837
50453W        W15614  11.124  11.559   2.658
50454W        W15615  17.091  15.159  11.097
50455W        W15616  36.539  14.320  13.114
50456W        W15617  29.510   5.593   0.903
50457W        W15618  30.098  15.103  14.842
50458W        W15619  19.573  14.071  12.528
50459W        W15620  35.442  20.088  11.172
50460W        W15621  37.127  31.217   0.811
50461W        W15622  28.410  41.539   0.797
50462W        W15623  26.148  34.376   2.182
50463W        W15624  18.799  30.996   4.636
50464W        W15625  33.479  15.959  12.545
50465W        W15626   1.365  38.403   2.991
50466W        W15627  31.707  43.507   1.366
50467W        W15628  22.622  27.596   2.321
50468W        W15629  28.149  37.354   1.470
50469W        W15630   8.867  38.674   1.178
50470W        W15631  32.498  10.674   3.053
50471W        W15632  30.399  28.872  14.981
50472W        W15633  44.516   7.163  12.479
50473W        W15634   4.333  10.891  14.788
50474W        W15635   9.548  42.588   4.009
50475W        W15636  37.845  20.767   4.790
50476W        W15637  18.608   1.781  11.579
50477W        W15638  32.693  34.428   2.450
50478W        W15639  30.935   0.397   2.200
50479W        W15640  40.414   0.446   4.819
50480W        W15641  40.890  40.541   4.427
50481W        W15642   3.959  13.833  13.394
50482W        W15643  38.513  29.147   0.582
50483W        W15644  20.683  19.984   3.075
50484W        W15645  35.449  29.884   1.962
50485W        W15646  35.099  19.996   0.886
50486W        W15647  19.071   0.357   3.164
50487W        W15648   2.890  32.053   2.739
50488W        W15649  14.640   0.218   1.390
50489W        W15650  41.338   5.667  13.367
50490W        W15651  36.244   9.289  11.649
50491W        W15652  10.209   2.941  13.600
50492W        W15653  30.239  31.655   4.132
50493W        W15654  43.243  43.337   1.431
50494W        W15655  16.283   8.864  14.517
50495W        W15656  25.872   1.307  10.661
50496W        W15657  16.031  20.469  10.632
50497W        W15658   4.369  26.087   2.214
50498W        W15659  36.879   2.843   0.730
50499W        W15660  27.510  11.205   1.430
50500W        W15661  22.612  23.175   0.260
50501W        W15662  20.114  41.071   2.081
50502W        W15663  11.730  34.036  13.968
50503W        W15664  10.882   0.767   0.805
50504W        W15665   4.227  35.977  11.595
50505W        W15666   3.657  34.666   1.001
50506W        W15667  23.796   1.973  13.310
50507W        W15668  20.487   6.814   4.720
50508W        W15669  39.871  12.629   0.397
50509W        W15670  15.718   7.243  10.382
50510W        W15671  16.887  34.480   2.190
50511W        W15672  41.417   5.973   4.338
50512W        W15673  21.286  24.656   2.148
50513W        W15674  33.568  20.222   3.173
50514W        W15675  44.509  37.619  14.537
50515W        W15676   3.895   3.486  14.646
50516W        W15677  13.865   4.745   3.859
50517W        W15678  37.481   1.198  11.440
50518W        W15679  25.684   4.085  14.409
50519W        W15680   8.674  11.618   4.551
50520W        W15681  22.232  38.171  11.961
50521W        W15682  28.176  40.355   1.331
50522W        W15683   1.966  16.656   1.300
50523W        W15684   2.744   6.625  14.950
50524W        W15685   8.398   2.196   0.398
50525W        W15686  44.456  17.246   0.811
50526W        W15687  10.581   9.475  11.087
50527W        W15688  13.860   8.703   2.136
50528W        W15689  43.214  23.959  12.501
50529W        W15690   8.687  39.990   4.056
50530W        W15691  22.897  27.559  13.689
50531W        W15692  44.896  12.604  14.735
50532W        W15693   4.747  14.654  11.998
50533W        W15694  39.392  28.397   4.136
50534W        W15695  29.374  18.727  14.258
50535W        W15696   3.507  34.366  13.436
50536W        W15697   4.584  38.397   0.006
50537W        W15698  29.071  35.339   0.705
50538W        W15699  15.117  42.832  13.870
50539W        W15700   6.276  29.526  12.060
50540W        W15701   7.488  13.754  13.999
50541W        W15702  17.166   0.842   4.088
50542W        W15703   9.737  36.862  12.331
50543W        W15704  42.321  39.839  10.614
50544W        W15705  27.082  33.804   1.841
50545W        W15706  21.839  14.361  11.122
50546W        W15707   8.806  16.201  11.853
50547W        W15708  22.159   9.672  14.882
50548W        W15709  32.391  22.093  11.452
50549W        W15710   4.613  37.353  11.564
50550W        W15711  38.455  10.609   1.905
50551W        W15712  18.259   0.689  13.945
50552W        W15713  26.192   9.524   4.938
50553W        W15714  29.415  35.828  10.648
50554W        W15715  11.305  14.074   1.924
50555W        W15716  43.916  36.936  11.336
50556W        W15717  26.168  39.727   1.405
50557W        W15718  23.767  23.561   3.025
50558W        W15719   1.122  16.096   4.086
50559W        W15720  13.625  39.980   2.241
50560W        W15721  13.760  29.475  13.441
50561W        W15722  40.406  37.491  13.838
50562W        W15723  21.127   8.253  12.563
50563W        W15724  36.071  22.866   0.112
50564W        W15725  12.574   7.581   0.240
50565W        W15726   8.831  42.965  13.740
50566W        W15727  35.124   2.902  11.401
50567W        W15728   2.864  15.468  10.773
50568W        W15729  20.119  10.943  12.360
50569W        W15730   6.178   6.952  12.109
50570W        W15731   6.913  20.298  13.859
50571W        W15732  40.686  10.953   3.778
50572W        W15733  38.187  24.581  11.337
50573W        W15734  40.895   1.201  13.994
50574W        W15735  31.085  28.676  11.168
50575W        W15736   0.003   9.956  14.595
50576W        W15737  40.858  19.827  14.958
50577W        W15738  18.963  32.231   2.378
50578W        W15739   8.239  16.017   2.221
50579W        W15740   5.358  38.936  13.022
50580W        W15741   5.718  30.601   3.656
50581W        W15742   4.432  32.467  10.734
50582W        W15743  14.236   3.787  10.319
50583W        W15744  29.458   3.323  12.558
50584W        W15745  29.657   6.602  13.502
50585W        W15746  11.818  34.868   0.771
50586W        W15747  25.276  34.991  13.396
50587W        W15748   5.382  16.053   4.492
50588W        W15749  17.627  29.733   1.271
50589W        W15750   9.693  16.564  13.638
50590W        W15751  18.133  29.890   1.486
50591W        W15752  18.082  11.297  11.613
50592W        W15753   9.803  35.792  14.046
50593W        W15754  15.067   2.142   0.781
50594W        W15755  13.712  19.241  11.406
50595W        W15756   1.803  36.310  14.982
50596W        W15757   8.281  14.225  12.013
50597W        W15758  14.529  31.013   0.836
50598W        W15759  37.583  11.186  11.037
50599W        W15760  39.882  40.310   4.733
50600W        W15761   9.725  23.641  11.577
50601W        W15762  18.742   0.866  13.964
50602W        W15763  23.434  40.015   0.693
50603W        W15764  27.311  21.543   4.975
50604W        W15765  37.474  27.923  11.543
50605W        W15766  31.657  25.613  11.468
50606W        W15767  23.942  24.137  13.621
50607W        W15768   8.114  15.726  11.374
50608W        W15769   2.563  28.646  13.072
50609W        W15770  38.031  13.189   3.147
50610W        W15771  34.947  10.730   0.427
50611W        W15772  22.497  22.123   1.518
50612W        W15773   7.949   5.382   4.225
50613W        W15774  33.079  43.608  12.144
50614W        W15775  44.930  39.417  12.911
50615W        W15776  38.483  30.426  10.689
50616W        W15777  36.032  15.254  14.067
50617W        W15778   7.917  12.322  13.884
50618W        W15779  27.070  16.840   4.642
50619W        W15780   2.047   6.137   3.731
50620W        W15781  44.817  25.587   0.767
50621W        W15782  33.347  25.431   3.709
50622W        W15783  10.317  22.762   1.796
50623W        W15784   3.924  30.508  11.953
50624W        W15785  13.868  23.543   3.693
50625W        W15786  24.978  28.655   0.296
50626W        W15787  32.961  18.323   2.250
50627W        W15788  39.593  27.437   3.975
50628W        W15789   0.957  26.007   2.334
50629W        W15790  22.420  30.593  12.154
50630W        W15791  33.097  26.950  14.789
50631W        W15792   9.074  10.133   0.932
50632W        W15793  39.422  10.270   4.261
50633W        W15794  12.818   4.193  11.106
50634W        W15795  37.059  28.362  13.297
50635W        W15796   2.540  31.632  11.887
50636W        W15797   7.634  23.594  13.929
50637W        W15798  35.044  34.140   0.930
50638W        W15799  17.453   1.811  12.031
50639W        W15800  23.122  38.471   0.338
50640W        W15801  11.561  41.225   1.445
50641W        W15802  31.647  25.077   2.136
50642W        W15803   6.168  25.955   1.420
50643W        W15804  39.250   3.867   3.229
50644W        W15805  40.180  18.308  11.826
50645W        W15806  28.174  38.340  12.504
50646W        W15807  22.499   7.391   3.116
50647W        W15808  38.774  23.586   0.296
50648W        W15809  14.060  37.099   1.312
50649W        W15810  18.286  21.240  13.935
50650W        W15811  17.591  39.580   0.513
50651W        W15812  11.185   9.499   4.290
50652W        W15813   7.411   9.830   1.624
50653W        W15814  29.487  20.131   4.711
50654W        W15815  21.116  22.695  12.579
50655W        W15816  39.837  37.770  11.654
50656W        W15817  28.554  38.309  14.688
50657W        W15818   1.036  21.217  11.947
50658W        W15819   0.158   1.348   2.924
50659W        W15820   7.372  16.120   4.569
50660W        W15821  41.939  10.312   1.493
50661W        W15822   2.508   0.321   3.253
50662W        W15823  23.037   6.105   2.917
50663W        W15824  29.592  15.058  14.871
50664W        W15825  29.588  40.679   5.032
50665W        W15826  22.106  39.950   3.133
50666W        W15827   4.877  10.462   2.732
50667W        W15828  25.959  30.352  14.074
50668W        W15829  42.527   6.301  11.373
50669W        W15830  30.847  21.543  13.398
50670W        W15831  16.509  33.446  10.999
50671W        W15832  40.078  16.060   2.841
50672W        W15833  28.177  21.522   0.800
50673W        W15834  43.234  31.072  14.981
50674W        W15835   8.572  13.712   4.419
50675W        W15836  10.861  26.040   2.964
50676W        W15837  39.997  11.808  14.046
50677W        W15838  36.251   9.792  12.794
50678W        W15839  38.831   3.806   0.302
50679W        W15840  35.062  31.890   3.132
50680W        W15841  17.049  23.053   2.620
50681W        W15842   2.342  16.665  11.805
50682W        W15843  24.390  34.615  14.416
50683W        W15844  31.446  22.639  14.974
50684W        W15845  12.227  25.188   2.810
50685W        W15846  15.660  12.799  11.643
50686W        W15847  36.978  31.423   4.669
50687W        W15848   8.828  41.718   1.623
50688W        W15849   4.202  25.986   2.943
50689W        W15850  36.045   4.338  10.590
50690W        W15851   1.340   3.296  11.864
50691W        W15852  19.311  36.627  14.330
50692W        W15853  30.170  39.106  12.426
50693W        W15854   5.501  12.391   5.118
50694W        W15855   0.910  11.164  10.660
50695W        W15856  18.723  29.655   1.765
50696W        W15857  21.729  33.980  14.255
50697W        W15858  35.482  27.733   1.744
50698W        W15859  31.399  40.472  12.927
50699W        W15860   4.308  19.006  10.640
50700W        W15861   0.442  38.306   1.734
50701W        W15862  24.012  14.591   1.278
50702W        W15863  23.295  37.988   0.368
50703W        W15864  16.419  18.844   2.872
50704W        W15865  32.880  31.878  12.349
50705W        W15866  16.806  22.937   1.269
50706W        W15867  40.598   8.647  13.408
50707W        W15868  36.287  20.789   3.695
50708W        W15869  37.118  21.337  14.806
50709W        W15870  19.131  29.630  10.648
50710W        W15871  13.367   9.216   2.903
50711W        W15872  23.516  36.120  13.712
50712W        W15873  34.786   5.252   4.154
50713W        W15874  29.307   2.020  14.456
50714W        W15875   1.423  16.592  14.376
50715W        W15876  11.710  29.550  10.149
50716W        W15877   5.828  15.078   3.724
50717W        W15878  13.849  38.378  12.948
50718W        W15879  37.326  16.496   3.568
50719W        W15880  30.347   4.103   2.585
50720W        W15881  16.683  15.570  12.070
50721W        W15882   2.834  23.182  14.422
50722W        W15883  42.186  36.865  12.020
50723W        W15884  33.078   0.580   1.014
50724W        W15885  34.837  11.843   0.989
50725W        W15886   3.287  30.878   1.309
50726W        W15887   5.428  10.208   4.522
50727W        W15888  35.120  33.609  12.617
50728W        W15889  31.218  38.982   0.724
50729W        W15890  18.101  43.715   0.391
50730W        W15891  44.440  24.740  15.000
50731W        W15892  40.414  27.787  13.530
50732W        W15893  27.240   0.518  11.138
50733W        W15894  15.642  18.948  14.384
50734W        W15895  19.957  27.247  12.449
50735W        W15896   9.885   9.357  14.524
50736W        W15897  16.117  26.586  10.614
50737W        W15898  11.594  33.080   3.878
50738W        W15899  15.363   6.804  11.590
50739W        W15900  21.717  33.272   3.858
50740W        W15901   7.091   0.339   3.091
50741W        W15902  11.161   3.441   1.000
50742W        W15903  38.471  31.653  13.722
50743W        W15904   2.413   0.529  11.860
50744W        W15905  34.006  33.673  13.725
50745W        W15906  34.632   2.684   0.292
50746W        W15907  30.343   8.627  10.802
50747W        W15908  20.160  15.621   2.883
50748W        W15909   8.208   5.251  12.119
50749W        W15910  35.463  18.094   1.480
50750W        W15911   0.062  37.104  13.406
50751W        W15912  15.135  40.384  14.887
50752W        W15913  20.564   7.789  14.317
50753W        W15914   3.867  26.485  13.904
50754W        W15915  41.018  32.372   2.182
50755W        W15916  39.783  30.482   0.239
50756W        W15917  40.899   5.924   2.660
50757W        W15918  23.507  29.354  11.230
50758W        W15919  33.520   2.808  11.926
50759W        W15920  11.895  28.540  11.057
50760W        W15921   1.415   7.490  14.600
50761W        W15922  33.176  42.892  11.600
50762W        W15923  39.257  25.086   1.608
50763W        W15924  21.004  24.219   2.194
50764W        W15925  12.890   5.368   2.460
50765W        W15926  17.221  18.997   0.138
50766W        W15927  33.520  44.311   1.666
50767W        W15928  38.417   9.668   3.237
50768W        W15929  33.512  44.062   1.224
50769W        W15930  19.990  20.266  10.759
50770W        W15931  19.198  25.954   2.760
50771W        W15932  27.429   9.161  12.793
50772W        W15933  29.241  40.576   4.152
50773W        W15934   2.255  11.205  10.786
50774W        W15935  43.606   9.480   1.668
50775W        W15936  28.571  20.846   0.794
50776W        W15937   4.477  32.135  12.011
50777W        W15938  43.716  15.388   3.663
50778W        W15939  21.141  38.021  14.355
50779W        W15940  20.159  30.890  12.843
50780W        W15941   3.256   6.606  11.650
50781W        W15942  21.972  36.412   2.452
50782W        W15943   9.372  37.877  12.926
50783W        W15944  14.822  24.560   1.174
50784W        W15945   6.464  43.858  10.710
50785W        W15946  19.494  17.164  11.139
50786W        W15947   0.302  16.854   3.669
50787W        W15948   7.895  28.961   1.849
50788W        W15949  14.395  17.187   3.212
50789W        W15950  29.665  14.283  12.012
50790W        W15951  10.704  26.486  11.949
50791W        W15952   9.242  18.826  14.335
50792W        W15953  38.393  15.197   1.800
50793W        W15954  11.821  38.265   4.778
50794W        W15955  29.564  43.272  14.531
50795W        W15956  12.677  41.312  14.070
50796W        W15957   6.190  29.790   4.044
50797W        W15958  27.464  33.416  12.046
50798W        W15959  30.430  37.605  12.897
50799W        W15960  21.392  30.926  12.933
50800W        W15961   9.422   4.938   3.609
50801W        W15962  19.783  37.455   4.619
50802W        W15963  42.002  35.178   0.793
50803W        W15964  33.423  36.134   1.323
50804W        W15965  25.992  37.108   2.647
50805W        W15966  18.929  21.709   0.474
50806W        W15967  32.989  41.799   4.177
50807W        W15968   1.979  33.306   2.756
50808W        W15969   6.059  29.009  14.877
50809W        W15970   1.224  30.505   0.290
50810W        W15971  13.622   2.171  11.633
50811W        W15972   6.819  43.709  11.033
50812W        W15973  33.751  25.081   0.129
50813W        W15974  12.871  17.156   1.437
50814W        W15975   1.288  18.995   3.641
50815W        W15976  29.617  34.880  10.766
50816W        W15977  22.782  29.075   2.383
50817W        W15978  35.036  26.916   3.302
50818W        W15979   0.787  23.288   3.614
50819W        W15980  14.284  38.389   2.728
50820W        W15981  17.511  36.479   2.326
50821W        W15982  22.728   2.470  11.079
50822W        W15983  31.503   2.713  13.995
50823W        W15984  35.574   7.366   4.738
50824W        W15985  16.490  32.696   1.701
50825W        W15986  20.299  30.218   1.811
50826W        W15987   4.374  34.881  14.467
50827W        W15988  14.945  26.473   4.246
50828W        W15989  37.153  24.770  14.498
50829W        W15990  23.615  34.632  14.743
50830W        W15991   8.119   4.234   3.768
50831W        W15992  42.411   4.077  11.484
50832W        W15993  41.796   1.838  12.034
50833W        W15994  34.166  19.565   2.770
50834W        W15995   2.346  40.258   1.916
50835W        W15996   4.267  36.750  12.911
50836W        W15997  30.103   5.447   1.693
50837W        W15998  25.027   6.263  10.804
50838W        W15999   2.032  22.556   3.653
50839W        W16000  18.163  12.600   0.765
50840W        W16001  35.060  13.248  12.813
50841W        W16002   1.724  34.962   2.820
50842W        W16003  40.931  24.870  13.426
50843W        W16004  31.111  40.473  12.493
50844W        W16005   0.015  44.575   1.723
50845W        W16006  12.118  40.246  12.535
50846W        W16007  39.377  33.421  14.967
50847W        W16008   7.968  21.529   1.288
50848W        W16009   2.779   7.730  13.397
50849W        W16010  31.540  38.557  12.936
50850W        W16011  31.921  18.393   3.198
50851W        W16012  11.282   6.011   2.875
50852W        W16013  43.986  39.865   0.189
50853W        W16014  16.128  43.683  14.005
50854W        W16015  15.185  29.956  13.785
50855W        W16016  15.773  16.602   3.086
50856W        W16017  17.943  10.182  13.284
50857W        W16018  38.725   4.418  12.091
50858W        W16019  24.114   7.798   1.305
50859W        W16020   6.877  17.770  12.984
50860W        W16021  28.591  44.246   4.940
50861W        W16022  29.381  13.244  12.120
50862W        W16023  16.456  23.690   4.447
50863W        W16024  43.878  16.519  10.606
50864W        W16025  15.221  32.531  13.997
50865W        W16026  44.255  16.556  10.238
50866W        W16027   8.994  15.815  13.722
50867W        W16028  40.806  18.290  11.102
50868W        W16029  13.196  36.960   0.302
50869W        W16030  35.878  23.735   0.675
50870W        W16031   9.356  36.361   3.958
50871W        W16032  33.954  21.120   0.024
50872W        W16033  11.128   8.663   4.657
50873W        W16034  12.167  10.420   1.275
50874W        W16035   3.084   2.273   3.384
50875W        W16036  11.146  40.032   2.445
50876W        W16037  11.397   9.771   1.749
50877W        W16038  13.045  42.904   2.902
50878W        W16039  20.049  15.687  14.506
50879W        W16040  17.318  37.871  13.840
50880W        W16041  38.437   0.352  14.429
50881W        W16042  42.507  17.113   3.898
50882W        W16043  26.024  27.478  12.003
50883W        W16044  16.269  30.491  13.446
50884W        W16045  29.666   5.702   2.688
50885W        W16046   8.779  41.331  10.960
50886W        W16047  23.726  37.142   0.893
50887W        W16048  25.461  25.519  10.382
50888W        W16049  33.845  11.315   2.808
50889W        W16050   6.923  15.380   3.505
50890W        W16051  28.496  13.362   0.383
50891W        W16052  44.012  31.162  13.017
50892W        W16053  10.670  18.777   3.431
50893W        W16054  14.841  44.864   0.048
50894W        W16055   8.758  14.493  14.902
50895W        W16056  22.993  36.038   2.556
50896W        W16057  38.585   2.474   1.745
50897W        W16058  38.506   9.765   2.260
50898W        W16059  21.167  16.995  12.848
50899W        W16060   6.962  40.354   0.027
50900W        W16061  38.631  15.719  12.148
50901W        W16062  29.167  33.554   0.334
50902W        W16063  43.880  42.000  14.779
50903W        W16064  44.785  30.357   2.324
50904W        W16065   8.735  29.256  11.172
50905W        W16066  30.619  24.989   4.488
50906W        W16067  42.284  13.253  14.814
50907W        W16068  32.413  29.633   0.283
50908W        W16069  28.054  14.200  12.434
50909W        W16070  36.960  44.308   3.132
50910W        W16071   1.487   2.790   1.391
50911W        W16072  18.568  44.047   0.255
50912W        W16073  17.106  19.697  13.406
50913W        W16074   7.853  12.743  11.667
50914W        W16075   8.471  38.005   2.319
50915W        W16076  33.945  44.498   1.892
50916W        W16077  27.699  32.052   1.361
50917W        W16078  24.538  35.646  11.552
50918W        W16079   9.355  28.397   4.537
50919W        W16080  14.286   1.353   3.339
50920W        W16081   2.161  41.523  12.852
50921W        W16082   8.767  21.556  11.668
50922W        W16083  28.005  42.495  10.297
50923W        W16084  25.443   1.762   1.703
50924W        W16085  43.300  13.156  12.080
50925W        W16086  32.559  34.360  11.767
50926W        W16087  44.780   4.042  14.787
50927W        W16088  34.947   7.736   3.129
50928W        W16089   6.303  29.474  13.426
50929W        W16090   8.829  43.973   3.391
50930W        W16091  14.354  12.348   1.373
50931W        W16092   8.116  21.276   3.944
50932W        W16093  26.985  17.099   3.364
50933W        W16094   2.026  15.811   0.374
50934W        W16095  12.242  26.431   2.265
50935W        W16096  26.714   0.292   0.393
50936W        W16097  28.315  17.433   2.354
50937W        W16098   5.125   3.206   0.969
50938W        W16099  33.907  44.729   3.182
50939W        W16100  30.936  35.788   2.116
50940W        W16101  20.762  27.211   3.991
50941W        W16102  36.566  17.969  11.145
50942W        W16103   9.905  33.916  11.296
50943W        W16104   4.726  20.951  11.457
50944W        W16105  21.165  25.356  10.309
50945W        W16106   7.873  27.054   0.459
50946W        W16107  12.823  44.350   2.710
50947W        W16108  35.475  30.041   0.180
50948W        W16109  21.421  28.620   4.080
50949W        W16110  35.804  17.269  10.696
50950W        W16111  31.385  26.615  11.566
50951W        W16112  35.633   2.214   2.119
50952W        W16113  17.112  13.996  12.977
50953W        W16114  13.832  37.961   4.316
50954W        W16115   8.582  22.800  12.975
50955W        W16116  12.090  34.623  12.531
50956W        W16117  17.645  32.365  13.250
50957W        W16118  44.058   8.324   1.018
50958W        W16119  10.879  10.918  10.511
50959W        W16120  11.940  40.357   0.346
50960W        W16121  22.121  26.886   1.266
50961W        W16122   6.164  40.031   3.629
50962W        W16123  32.541  21.804   1.748
50963W        W16124  40.650   2.839  14.806
50964W        W16125  29.971   3.809   2.391
50965W        W16126   3.728  22.282   3.925
50966W        W16127  36.385  17.616  12.047
50967W        W16128  43.813  22.086  12.105
50968W        W16129  39.000   0.717  11.600
50969W        W16130   6.259  34.850   4.764
50970W        W16131   0.332  16.329  14.847
50971W        W16132   0.732  35.965   1.159
50972W        W16133  40.950  39.970   2.315
50973W        W16134   0.545  42.113  11.607
50974W        W16135   1.439   8.898   0.917
50975W        W16136  31.012  37.527  11.219
50976W        W16137  27.426  16.048  13.891
50977W        W16138  23.275  39.441  13.750
50978W        W16139  30.013  18.674  12.504
50979W        W16140  26.927  26.946   4.624
50980W        W16141  31.548  13.092  11.441
50981W        W16142  21.955  10.855   2.634
50982W        W16143  33.326   1.260   4.337
50983W        W16144  12.498  34.079  11.034
50984W        W16145  19.666   9.728   1.310
50985W        W16146  18.281   1.483  12.713
50986W        W16147  20.633  44.271   4.224
50987W        W16148   1.230  28.890   1.245
50988W        W16149  31.898   3.498   4.167
50989W        W16150  43.723  35.580   0.525
50990W        W16151  24.225   8.384  12.045
50991W        W16152  44.669  28.345  11.543
50992W        W16153  36.100  37.871  14.418
50993W        W16154  34.559  27.455  13.292
50994W        W16155  32.637  17.119   2.177
50995W        W16156  38.364  41.077  10.841
50996W        W16157  16.637   2.968  11.486
50997W        W16158  22.050  12.231  14.271
50998W        W16159  35.344  15.704  11.828
50999W        W16160  29.971  36.617   2.129
51000W        W16161  29.057  23.849   0.388
51001W        W16162   7.667  36.497  12.118
51002W        W16163  25.138  31.072  14.883
51003W        W16164  43.339  30.064  12.900
51004W        W16165  24.568  30.821  12.317
51005W        W16166   0.024  23.226   0.557
51006W        W16167   3.831   9.347  11.994
51007W        W16168  35.853  41.115   2.138
51008W        W16169  29.684  43.326   2.748
51009W        W16170  25.866  21.469   3.196
51010W        W16171  21.198  23.560  13.562
51011W        W16172  43.820  32.165  13.049
51012W        W16173  19.758  27.693   2.615
51013W        W16174  27.051  29.281   2.388
51014W        W16175   3.158   1.899   0.503
51015W        W16176   9.481  43.779   1.968
51016W        W16177  22.771  28.364  10.739
51017W        W16178  27.967  23.937   4.067
51018W        W16179  31.259   9.305  11.485
51019W        W16180   4.320  38.838   0.801
51020W        W16181   4.065  36.390   0.945
51021W        W16182  19.604  36.542  10.898
51022W        W16183  31.569  26.051  12.351
51023W        W16184   1.297  41.295  12.285
51024W        W16185  33.468   2.649   1.244
51025W        W16186  18.707   0.202   4.342
51026W        W16187  29.875  28.486   1.798
51027W        W16188  17.182  25.048  12.964
51028W        W16189   7.479  16.383  11.625
51029W        W16190  20.992  23.701  11.957
51030W        W16191  40.866  34.623   4.334
51031W        W16192  40.808   3.957   3.976
51032W        W16193  40.780   1.348   1.822
51033W        W16194  21.144  33.848   0.461
51034W        W16195   0.505   7.817   2.539
51035W        W16196   1.338  30.408  11.904
51036W        W16197  14.665  40.118   0.733
51037W        W16198  34.655  24.951  11.597
51038W        W16199  30.654  17.285   4.911
51039W        W16200  29.369  34.982   2.263
51040W        W16201   9.462  29.652   3.515
51041W        W16202   9.727   9.167  12.856
51042W        W16203  26.233  29.497   5.005
51043W        W16204  29.123  13.788  13.630
51044W        W16205  33.836  11.304  12.005
51045W        W16206   8.860  27.286  12.015
51046W        W16207  29.140   5.824  14.099
51047W        W16208  32.293  23.466  14.098
51048W        W16209  15.560  44.766   2.253
51049W        W16210  43.348   7.740   1.277
51050W        W16211  16.078  44.538   3.131
51051W        W16212   3.527  36.521  13.370
51052W        W16213  18.100  36.397   3.136
51053W        W16214  28.037  13.742  13.065
51054W        W16215  14.805   6.752   3.815
51055W        W16216  25.276  29.640   1.218
51056W        W16217   7.843  20.943   2.696
51057W        W16218  36.244  25.632  13.534
51058W        W16219   8.831  23.712   1.358
51059W        W16220  29.923  39.762  11.416
51060W        W16221  34.479  17.328  11.458
51061W        W16222   5.498  34.402   4.579
51062W        W16223   1.504  31.141   4.502
51063W        W16224   9.654  19.617  12.854
51064W        W16225   0.893  35.310   2.251
51065W        W16226  16.649  36.031  12.629
51066W        W16227  24.194  13.552  14.762
51067W        W16228  30.121   8.909   5.033
51068W        W16229  13.140  17.178   0.943
51069W        W16230  44.279  19.114  13.982
51070W        W16231  38.781  34.838   2.736
51071W        W16232   0.338  16.584   0.318
51072W        W16233   9.820   0.050  12.719
51073W        W16234  31.051  39.483   5.477
51074W        W16235  23.602  10.734   1.970
51075W        W16236  38.370  36.354  13.016
51076W        W16237  10.414  43.596   2.759
51077W        W16238  35.159   5.804  13.284
51078W        W16239  31.427  19.973  12.928
51079W        W16240  41.358   3.825   0.210
51080W        W16241  13.055  27.472   3.810
51081W        W16242  27.906  35.791   5.032
51082W        W16243  11.262  41.954  14.268
51083W        W16244  30.153   7.364   3.867
51084W        W16245  13.949   8.274  13.480
51085W        W16246  31.206   3.876   0.496
51086W        W16247  31.118  26.755  14.878
51087W        W16248  13.283  36.833  13.256
51088W        W16249  34.511  38.619  14.900
51089W        W16250  31.587   0.864  12.270
51090W        W16251  40.782   2.904  13.451
51091W        W16252  25.114   2.565  11.393
51092W        W16253  28.213  16.428  12.267
51093W        W16254   4.369  44.001   1.729
51094W        W16255  23.750  29.476   2.703
51095W        W16256  30.239  35.982  12.453
51096W        W16257  14.765  17.321   1.265
51097W        W16258   7.373  19.105  14.460
51098W        W16259  30.194  42.784   1.765
51099W        W16260  30.158  13.040   2.163
51100W        W16261  15.069  21.579   4.701
51101W        W16262   9.172  34.883   0.442
51102W        W16263  15.420  34.586  10.283
51103W        W16264  36.718  18.057  12.003
51104W        W16265  12.872   0.984  12.877
51105W        W16266  43.177  20.826  14.438
51106W        W16267   4.564  11.008  12.477
51107W        W16268  29.467  34.370   1.204
51108W        W16269  34.099  32.091   3.247
51109W        W16270  23.344   3.804   3.505
51110W        W16271  27.553  12.407   1.744
51111W        W16272  18.478  31.435   4.806
51112W        W16273  21.746  29.960   2.149
51113W        W16274  28.680  14.665   0.703
51114W        W16275  42.845  14.804  13.155
51115W        W16276   8.807  12.622   4.559
51116W        W16277  21.541  38.075  13.492
51117W        W16278  15.894  23.628   3.870
51118W        W16279  40.040   8.267  13.977
51119W        W16280   9.783  20.097  14.914
51120W        W16281  10.846  20.276  10.718
51121W        W16282  11.783  18.245   1.419
51122W        W16283  21.545  13.985  13.526
51123W        W16284   6.281  36.060   5.047
51124W        W16285  28.004  21.490  11.694
51125W        W16286  30.117  41.854  12.330
51126W        W16287  26.182  21.730   1.848
51127W        W16288  13.556  31.016   0.377
51128W        W16289  18.933  29.197   0.329
51129W        W16290  41.721  19.760  10.860
51130W        W16291  31.494   9.586   2.782
51131W        W16292  35.670  23.016  13.142
51132W        W16293  31.890  18.459   0.342
51133W        W16294  26.954  16.333   2.130
51134W        W16295  44.288  30.667   0.224
51135W        W16296  23.485  34.906   4.869
51136W        W16297  20.069  20.157  10.269
51137W        W16298  32.364  36.124   3.372
51138W        W16299  39.569  21.220   4.694
51139W        W16300  29.872  38.753  13.108
51140W        W16301  10.046   0.836   1.143
51141W        W16302  38.452  30.181   0.450
51142W        W16303  20.980  32.561   1.218
51143W        W16304  36.413  29.482  10.657
51144W        W16305  22.645  27.670   0.848
51145W        W16306  20.098   6.903   0.571
51146W        W16307  36.452  39.818   0.704
51147W        W16308  19.600  18.730   4.822
51148W        W16309  13.200  39.144   2.151
51149W        W16310  27.707  38.408   3.055
51150W        W16311  26.517   9.689  11.401
51151W        W16312   4.338   1.776  11.654
51152W        W16313   2.328  11.551   2.560
51153W        W16314  39.950  22.782   0.403
51154W        W16315  31.619  38.937  11.930
51155W        W16316   5.328   6.674   4.488
51156W        W16317  25.641  16.596   2.134
51157W        W16318  43.923  23.924  11.254
51158W        W16319   5.135   9.258   4.702
51159W        W16320  43.798  18.041   1.899
51160W        W16321  25.203  26.813  13.845
51161W        W16322  29.490   8.856   0.882
51162W        W16323  25.711  18.946   9.793
51163W        W16324  22.147  24.257  11.144
51164W        W16325  30.358  11.915  14.398
51165W        W16326   7.336   9.711   0.019
51166W        W16327   6.464  18.001  12.139
51167W        W16328  22.017  12.090   1.680
51168W        W16329  26.896   6.740   0.563
51169W        W16330  32.035  33.776   4.228
51170W        W16331   9.811  19.125  12.926
51171W        W16332  13.623  11.197  12.966
51172W        W16333   7.263   7.762   0.875
51173W        W16334  38.579   9.217   3.417
51174W        W16335  19.799  19.827  10.566
51175W        W16336   9.260  15.054  11.505
51176W        W16337   9.882   5.939  12.023
51177W        W16338  42.956  24.653  12.002
51178W        W16339   5.715  33.031   1.700
51179W        W16340  33.884  43.460   3.367
51180W        W16341  26.514  21.512  10.736
51181W        W16342  38.738  24.449  10.779
51182W        W16343  15.668  27.842  11.113
51183W        W16344   5.794  34.592   0.760
51184W        W16345  13.605  39.990  14.134
51185W        W16346  44.680  40.663  10.202
51186W        W16347  13.618  13.417  11.898
51187W        W16348  18.259  16.769   0.740
51188W        W16349  11.539  17.442  14.506
51189W        W16350  17.426  38.388   0.037
51190W        W16351  44.442  37.243   1.341
51191W        W16352  18.234  27.365  13.890
51192W        W16353  15.200  19.021   4.367
51193W        W16354   5.215  31.710   2.026
51194W        W16355  42.665  19.679  11.638
51195W        W16356  24.799  41.555  13.848
51196W        W16357   8.807   5.063   2.311
51197W        W16358   3.665   6.910  14.769
51198W        W16359   8.988   3.172  12.314
51199W        W16360  36.948  28.009  10.803
51200W        W16361   2.984  24.522   4.497
51201W        W16362  37.035  26.433  13.356
51202W        W16363   6.753  27.512   3.015
51203W        W16364  10.945  44.513  14.388
51204W        W16365  30.475  16.026  13.996
51205W        W16366  10.647  39.464   3.158
51206W        W16367   3.652  43.626  11.623
51207W        W16368  10.672  41.316  12.491
51208W        W16369   7.453  10.095  10.664
51209W        W16370  32.430  19.613   0.806
51210W        W16371  40.391   7.696   4.016
51211W        W16372  27.668  40.545   1.258
51212W        W16373  42.005   7.945  11.083
51213W        W16374   7.149   3.745   4.081
51214W        W16375  29.185  11.586   4.609
51215W        W16376  14.594  43.260  13.116
51216W        W16377  42.721  21.005  10.846
51217W        W16378  33.151  34.628  10.555
51218W        W16379  28.032  22.029   0.839
51219W        W16380  23.797  12.407   2.419
51220W        W16381  31.912  24.043   3.273
51221W        W16382  44.507  19.642  12.717
51222W        W16383  34.110  37.463  13.992
51223W        W16384  11.289  29.493   1.299
51224W        W16385  35.072  42.387   3.638
51225W        W16386  15.602  13.770  10.865
51226W        W16387  23.564  37.564   0.261
51227W        W16388  29.859  40.920  10.643
51228W        W16389  33.330   6.398  12.538
51229W        W16390  27.167  25.423  12.909
51230W        W16391  43.877  27.069   1.027
51231W        W16392  14.387  35.812   1.626
51232W        W16393  16.813   1.859   0.919
51233W        W16394  12.182   8.246   0.023
51234W        W16395  26.429  10.630  14.764
51235W        W16396  19.187  42.488  11.449
51236W        W16397  42.993   2.977   2.141
51237W        W16398  32.148  10.975  12.069
51238W        W16399  27.639   8.065  11.213
51239W        W16400  15.311  11.659  11.075
51240W        W16401   0.294  11.307   3.810
51241W        W16402  41.875  18.178   1.204
51242W        W16403  17.727  18.193   3.685
51243W        W16404   0.369  34.998  11.812
51244W        W16405  40.503   3.768  11.720
51245W        W16406   7.105  17.039   3.685
51246W        W16407  38.506  40.715   3.267
51247W        W16408  18.121  31.011  14.510
51248W        W16409  36.893  41.809  14.493
51249W        W16410   0.745   9.407   3.283
51250W        W16411  29.562   4.269  14.426
51251W        W16412   3.462  11.494  11.668
51252W        W16413  34.342   8.649  12.348
51253W        W16414  39.883  18.378   3.770
51254W        W16415  30.615   8.342   4.314
51255W        W16416   7.377  17.576  11.108
51256W        W16417  10.840  18.564   1.662
51257W        W16418  43.784  24.623  14.945
51258W        W16419  17.567  23.584  14.654
51259W        W16420  39.786  26.131   1.199
51260W        W16421  31.905  31.053  11.367
51261W        W16422   5.283  20.170   3.612
51262W        W16423  33.066  21.452   0.286
51263W        W16424  41.638   8.916   4.622
51264W        W16425  41.471   5.140  14.767
51265W        W16426  10.043  24.226   1.569
51266W        W16427  40.840  11.744  11.340
51267W        W16428   3.282  43.798   1.312
51268W        W16429   0.708  23.240  13.429
51269W        W16430  33.340  19.722   1.562
51270W        W16431  29.415  41.065   1.414
51271W        W16432   4.816   7.656  11.547
51272W        W16433   5.119   0.508   4.099
51273W        W16434  22.917  32.935  11.188
51274W        W16435   5.360  18.180   2.362
51275W        W16436  43.500  15.499  11.921
51276W        W16437  18.932  27.647   1.874
51277W        W16438   7.058  28.453  11.062
51278W        W16439  10.814  23.142  12.698
51279W        W16440  26.905  21.972  13.028
51280W        W16441   2.007  31.146   2.244
51281W        W16442  20.836   6.252  11.556
51282W        W16443   6.349  21.230   1.900
51283W        W16444   5.301  25.426  14.408
51284W        W16445  29.400  28.703   0.248
51285W        W16446   8.352  18.791  11.425
51286W        W16447  20.768  17.689  13.836
51287W        W16448   9.742   3.738  14.879
51288W        W16449  33.403   3.895   3.248
51289W        W16450  27.486  36.030   3.904
51290W        W16451  16.113   6.319  10.631
51291W        W16452  34.378  39.623  11.064
51292W        W16453  30.785  37.879   0.843
51293W        W16454  30.074  21.332   3.586
51294W        W16455  37.641  18.581  12.545
51295W        W16456  34.073  22.095   9.764
51296W        W16457  16.052  14.051  10.994
51297W        W16458  28.920  26.341  10.685
51298W        W16459  38.630  35.034   4.097
51299W        W16460   7.371   7.661   4.489
51300W        W16461  40.361  15.774  10.709
51301W        W16462  36.434  35.464   1.689
51302W        W16463  31.989  12.797   1.269
51303W        W16464  44.466  13.003   3.817
51304W        W16465  25.427  36.399  11.509
51305W        W16466  11.771  22.051  13.807
51306W        W16467  24.714  34.113  11.347
51307W        W16468  30.977  24.580  14.803
51308W        W16469   9.294  12.193   0.953
51309W        W16470  22.029  34.898  13.879
51310W        W16471  12.559  40.411   4.660
51311W        W16472  14.905   2.044   1.763
51312W        W16473   6.331  24.557  14.279
51313W        W16474  10.350  17.786   3.333
51314W        W16475  41.948  22.701  10.203
51315W        W16476   0.857   6.691   3.697
51316W        W16477  36.467  12.081   1.775
51317W        W16478  16.668   2.819  13.832
51318W        W16479   7.335  42.677   4.693
51319W        W16480  43.740  36.959   0.725
51320W        W16481  22.637  44.443  10.716
51321W        W16482   2.464   7.367   4.110
51322W        W16483  16.677  23.125   3.018
51323W        W16484  44.293   7.889  10.967
51324W        W16485  18.008  26.686  12.119
51325W        W16486   2.732  22.030   4.865
51326W        W16487  36.583  15.699   2.163
51327W        W16488  42.827  33.770  10.651
51328W        W16489  40.107  26.580  13.178
51329W        W16490  43.353  27.919  13.556
51330W        W16491   8.845  19.613  11.317
51331W        W16492   8.167  31.669  10.674
51332W        W16493  18.910  37.107   0.909
51333W        W16494   6.919   5.435  13.072
51334W        W16495  32.950  10.494  13.833
51335W        W16496  34.558  41.247   2.319
51336W        W16497   5.684  37.133   3.927
51337W        W16498   3.945  24.097   0.865
51338W        W16499  40.768  43.848   2.782
51339W        W16500  19.805  22.643  14.818
51340W        W16501   1.802  38.585   3.126
51341W        W16502   6.476   6.148  12.517
51342W        W16503   3.214  13.701  10.392
51343W        W16504  26.644  29.350   0.295
51344W        W16505  43.482  16.517  10.999
51345W        W16506   5.180  28.354   1.785
51346W        W16507   2.840  27.738  13.762
51347W        W16508  19.796  30.621   2.350
51348W        W16509  25.774   5.880   4.216
51349W        W16510   9.811  44.334   0.307
51350W        W16511   2.441  37.327   5.033
51351W        W16512  39.759  40.897   4.826
51352W        W16513  14.900   3.884   2.127
51353W        W16514  10.314   9.399   4.124
51354W        W16515  29.691  44.559  12.784
51355W        W16516   3.699  41.588  11.943
51356W        W16517  19.311  31.487  12.660
51357W        W16518  22.692  16.440   9.711
51358W        W16519   6.009  14.195  14.864
51359W        W16520  18.305   0.206  13.740
51360W        W16521  32.999  23.012   2.283
51361W        W16522  16.146  39.899   0.746
51362W        W16523  34.623  32.187   3.203
51363W        W16524  37.413  42.260  13.892
51364W        W16525  42.512  27.689   4.586
51365W        W16526  42.651  21.216  13.128
51366W        W16527  24.389  33.469   3.824
51367W        W16528  30.836  34.027   0.473
51368W        W16529  18.017  26.674   0.833
51369W        W16530  22.338  20.740   9.830
51370W        W16531  13.713   0.428  12.940
51371W        W16532   5.138   9.386   3.340
51372W        W16533   9.096  31.138   3.692
51373W        W16534  10.352  37.981  13.926
51374W        W16535   1.477  22.287  11.655
51375W        W16536  40.817  42.868   4.863
51376W        W16537  19.632  26.511   2.268
51377W        W16538  21.664  17.524  10.994
51378W        W16539  21.387  40.931   2.052
51379W        W16540  32.237  19.300   4.606
51380W        W16541  42.746   9.359  12.497
51381W        W16542  30.453  35.638  11.208
51382W        W16543   5.515   7.846   1.449
51383W        W16544   8.236  10.828  12.956
51384W        W16545  30.608  23.770  11.068
51385W        W16546  35.331   8.463   4.564
51386W        W16547  16.806  26.654  10.504
51387W        W16548  39.162  18.219  12.953
51388W        W16549  16.532  43.009  12.440
51389W        W16550  25.034  20.606  14.512
51390W        W16551  16.783   1.311   3.598
51391W        W16552   8.165   6.010  12.486
51392W        W16553  33.169  24.281   4.996
51393W        W16554  10.980  44.410  11.992
51394W        W16555  39.968  30.164  12.554
51395W        W16556  19.426  42.470  14.576
51396W        W16557  21.205  23.764  12.455
51397W        W16558  13.132   9.166   1.385
51398W        W16559  11.265  34.951  10.941
51399W        W16560  33.055   3.170   0.937
51400W        W16561   5.720  23.299  11.117
51401W        W16562  25.247   0.233   1.199
51402W        W16563  21.078  14.383   3.736
51403W        W16564   4.955  15.639  11.090
51404W        W16565  36.491  20.019   1.987
51405W        W16566  20.216  19.180  13.039
51406W        W16567   4.524  17.636   2.556
51407W        W16568  43.967   3.897  12.435
51408W        W16569  44.601  30.018   4.886
51409W        W16570  14.067  41.465  10.590
51410W        W16571   0.007   0.079  13.524
51411W        W16572   7.861  44.643  12.700
51412W        W16573  29.426  12.225  14.734
51413W        W16574   8.602  38.950  12.911
51414W        W16575   3.344  13.337   1.791
51415W        W16576  11.403   2.583   1.412
51416W        W16577  16.434   0.404  14.701
51417W        W16578   7.783  18.001  12.625
51418W        W16579  12.739  27.886   2.762
51419W        W16580   6.407  28.645  13.179
51420W        W16581  42.050  30.083   1.247
51421W        W16582   2.010  37.439   1.341
51422W        W16583  27.211  22.918   4.581
51423W        W16584  22.801  13.534  14.960
51424W        W16585  24.744  25.413  14.272
51425W        W16586  38.413  20.559  11.786
51426W        W16587  36.861  13.201  14.739
51427W        W16588  18.016  11.156   4.578
51428W        W16589   7.205   2.799  13.864
51429W        W16590  34.768  38.277   2.258
51430W        W16591  13.813  38.494  11.607
51431W        W16592  36.261  40.834  12.574
51432W        W16593  21.133  13.286   2.177
51433W        W16594  13.120  12.315   3.399
51434W        W16595  12.829  10.351   4.673
51435W        W16596  25.894  31.791  12.511
51436W        W16597  27.044  39.942   0.794
51437W        W16598   5.758   2.544   2.746
51438W        W16599  36.016  11.199   3.456
51439W        W16600  33.457  42.276  11.776
51440W        W16601   2.820  22.133  10.627
51441W        W16602  10.902  24.223  12.588
51442W        W16603  43.355  13.694  12.052
51443W        W16604  11.617  13.198  14.175
51444W        W16605  21.081   6.122   3.681
51445W        W16606  43.936   4.432   4.371
51446W        W16607  26.116  44.202   2.964
51447W        W16608   5.888  33.608  14.361
51448W        W16609  43.431  34.792   0.253
51449W        W16610  16.522  17.636  11.954
51450W        W16611  44.106   6.873  14.893
51451W        W16612  34.398   4.390  10.798
51452W        W16613  27.554   7.196  12.465
51453W        W16614  17.742   5.340   1.256
51454W        W16615  38.925  44.997   4.852
51455W        W16616  24.209  42.474   4.428
51456W        W16617  39.825  19.157  10.638
51457W        W16618  19.818  23.706   3.652
51458W        W16619  28.108  24.649   3.651
51459W        W16620  34.617  18.219   0.689
51460W        W16621  31.408  14.736  14.802
51461W        W16622  32.174   6.583  14.994
51462W        W16623  17.209  10.419  10.913
51463W        W16624  26.141  12.263  12.139
51464W        W16625   4.343  16.836   1.907
51465W        W16626  30.402  13.598  10.591
51466W        W16627  12.544  37.338  11.119
51467W        W16628  41.289  33.266  11.945
51468W        W16629  19.073  41.217  13.466
51469W        W16630   6.919  35.359  11.110
51470W        W16631  22.043  41.283   2.271
51471W        W16632  18.221  33.541  14.286
51472W        W16633  13.130  41.325  14.388
51473W        W16634  27.997  38.570  13.928
51474W        W16635  33.385  29.206  10.310
51475W        W16636  26.091  12.529   5.159
51476W        W16637  31.087  42.295   3.721
51477W        W16638  26.690  28.219  13.425
51478W        W16639  28.695  37.890  10.325
51479W        W16640  44.724  25.266   1.236
51480W        W16641  21.616  15.025  13.535
51481W        W16642  11.896  39.019   1.729
51482W        W16643  29.155  39.853  13.572
51483W        W16644   3.950  34.090  13.453
51484W        W16645   6.421  15.566   2.447
51485W        W16646   2.242  28.167   2.627
51486W        W16647  15.742  39.516  11.736
51487W        W16648  27.175  13.541  11.546
51488W        W16649  33.534  12.282   3.554
51489W        W16650   9.309  27.559  14.017
51490W        W16651  41.297  23.615  13.830
51491W        W16652  28.014  28.643   4.221
51492W        W16653  16.018  12.460  14.443
51493W        W16654  44.753   7.701   1.832
51494W        W16655  18.786   8.311  11.637
51495W        W16656  30.179  36.992   4.227
51496W        W16657  13.645  29.546  12.909
51497W        W16658  23.794  24.639  13.505
51498W        W16659  32.498  42.293  13.273
51499W        W16660  35.589  40.462   2.352
51500W        W16661   8.597  15.397  12.172
51501W        W16662  35.831  25.504   4.131
51502W        W16663  28.593  10.191  14.733
51503W        W16664  12.457   0.798   2.287
51504W        W16665  11.589  21.937   1.898
51505W        W16666  31.219  21.276  10.519
51506W        W16667  32.486  11.302  12.315
51507W        W16668  27.757  10.929  12.500
51508W        W16669   3.979  19.211   3.082
51509W        W16670   5.574   5.396  12.072
51510W        W16671  35.361  37.033   3.811
51511W        W16672  39.733  30.545   1.897
51512W        W16673  24.098  20.826  13.418
51513W        W16674  26.765   2.902   2.917
51514W        W16675  33.714  24.482  13.949
51515W        W16676  25.246   8.716  12.546
51516W        W16677  19.007   7.687  12.961
51517W        W16678  41.919  27.233  14.100
51518W        W16679  10.622  32.610   1.883
51519W        W16680  32.219  41.173   3.657
51520W        W16681  41.690  15.229  10.744
51521W        W16682  27.466  37.833   2.859
51522W        W16683  12.080  14.002   4.723
51523W        W16684  30.944   8.591   4.648
51524W        W16685  15.623  39.843  14.896
51525W        W16686  39.077  12.073  11.136
51526W        W16687  38.586   7.307   4.096
51527W        W16688  38.509  40.332   4.240
51528W        W16689  24.201  21.217  10.809
51529W        W16690  13.838  15.220   2.642
51530W        W16691  19.002  37.912  13.728
51531W        W16692  38.832  39.260   0.281
51532W        W16693   9.276   7.538  11.188
51533W        W16694   4.496  21.166   3.166
51534W        W16695  23.976  43.848  14.833
51535W        W16696  31.170  23.215  11.044
51536W        W16697  38.894  35.139  14.432
51537W        W16698   9.632  42.137  11.892
51538W        W16699  32.135  37.539   2.443
51539W        W16700  39.941   8.231  11.182
51540W        W16701   9.940   1.694   2.163
51541W        W16702  39.095  41.851   3.652
51542W        W16703   6.965  32.948  14.568
51543W        W16704  38.430   6.506  13.351
51544W        W16705  20.816  24.193  14.238
51545W        W16706  18.714  25.131   2.187
51546W        W16707  31.382   5.228  10.706
51547W        W16708   2.868  25.467  14.633
51548W        W16709   1.386   4.493  13.063
51549W        W16710  35.085  30.102  12.474
51550W        W16711  34.608  25.967  11.521
51551W        W16712  26.475  44.481  13.025
51552W        W16713  37.059   4.298  13.823
51553W        W16714  14.669  10.567  14.044
51554W        W16715  23.224  26.546   3.330
51555W        W16716   2.140  33.038  10.390
51556W        W16717  16.697   4.383  14.556
51557W        W16718  13.626  28.694   3.335
51558W        W16719  40.156   6.583  11.557
51559W        W16720  32.103  39.024   0.205
51560W        W16721  24.447   4.415   0.217
51561W        W16722  26.885  17.290   4.294
51562W        W16723  24.923  42.973   4.642
51563W        W16724  29.071  16.873   3.661
51564W        W16725  41.285  28.202   0.332
51565W        W16726  42.850  31.837  11.699
51566W        W16727  34.813  15.356  13.457
51567W        W16728  14.159  31.492  14.988
51568W        W16729  27.060   6.596   1.040
51569W        W16730   0.969   7.402   3.176
51570W        W16731  17.533  25.470  13.868
51571W        W16732  31.608  29.155  12.905
51572W        W16733  21.161  33.518   1.835
51573W        W16734  40.247  29.962   3.548
51574W        W16735  21.971  39.086  11.950
51575W        W16736  10.862  19.292  12.939
51576W        W16737  24.501  24.065   1.764
51577W        W16738  22.573  21.073   1.879
51578W        W16739  24.552   9.389   2.734
51579W        W16740   6.778  39.848  11.529
51580W        W16741   2.851   8.691   0.871
51581W        W16742  26.712  22.950   0.750
51582W        W16743   1.807   2.174  12.585
51583W        W16744  31.434  12.143   0.827
51584W        W16745  26.493  21.111   4.618
51585W        W16746  19.049  30.601   0.093
51586W        W16747  24.762  18.358   0.748
51587W        W16748  12.244  42.770   2.309
51588W        W16749  38.771  44.838  14.867
51589W        W16750  41.896  41.911   1.764
51590W        W16751   2.004  22.150  10.987
51591W        W16752  29.549  38.117  13.916
51592W        W16753   4.772  31.888   1.755
51593W        W16754  30.145  28.244   2.180
51594W        W16755  17.252  14.735  11.339
51595W        W16756  38.107  20.659   2.308
51596W        W16757  42.119  29.158   3.194
51597W        W16758  10.687   6.660   3.913
51598W        W16759  28.080  44.423  12.280
51599W        W16760  19.757  16.722  11.042
51600W        W16761  15.874  19.619  11.538
51601W        W16762  41.711  43.987  11.685
51602W        W16763  34.353  37.591   0.532
51603W        W16764  28.054  18.029   0.256
51604W        W16765  13.023  38.328   1.445
51605W        W16766  14.244  12.646  12.511
51606W        W16767  13.045  17.185  14.336
51607W        W16768  34.879   1.132   3.131
51608W        W16769  27.092  44.931  10.604
51609W        W16770  30.908   4.010   1.359
51610W        W16771   2.252  25.911   3.475
51611W        W16772  15.875  20.359  12.400
51612W        W16773   5.988  13.315  10.789
51613W        W16774  12.200  41.639  14.464
51614W        W16775   4.868  38.954  13.792
51615W        W16776   9.777  12.679   4.714
51616W        W16777  35.883   3.142  14.873
51617W        W16778  19.968   8.421   3.198
51618W        W16779  19.668   4.456  12.974
51619W        W16780  20.867  32.687   4.487
51620W        W16781   4.468   8.355   3.585
51621W        W16782  41.676   3.384   4.127
51622W        W16783  16.787   5.279   4.042
51623W        W16784  16.656  44.615   5.586
51624W        W16785   2.443  27.124  14.336
51625W        W16786  28.740  29.063  14.393
51626W        W16787  21.202  12.789   0.914
51627W        W16788   5.290  33.132   4.799
51628W        W16789  21.647  39.474  10.621
51629W        W16790  16.297  27.649   4.576
51630W        W16791   5.362  19.272  12.009
51631W        W16792  28.553  27.112   3.150
51632W        W16793  19.657  23.239  12.322
51633W        W16794  29.994  25.956   2.385
51634W        W16795  40.275  43.906  11.167
51635W        W16796  34.716  36.837  13.975
51636W        W16797  19.985  36.424  13.169
51637W        W16798  33.393  15.349  13.089
51638W        W16799  24.687  13.152   2.922
51639W        W16800   9.456  28.481   2.646
51640W        W16801  19.238  44.901  14.758
51641W        W16802  24.396   9.248   3.224
51642W        W16803  22.034  43.299   1.342
51643W        W16804  44.870  12.568  12.855
51644W        W16805  33.924  12.878   4.560
51645W        W16806   1.349  25.507  11.485
51646W        W16807   4.931  32.398   0.009
51647W        W16808  24.472  16.616   2.696
51648W        W16809  11.704  21.512   3.230
51649W        W16810   2.393  40.362   2.890
51650W        W16811   2.518  29.084   3.202
51651W        W16812   0.449   1.854   4.742
51652W        W16813   3.591  43.922   0.872
51653W        W16814   2.531  39.383   0.836
51654W        W16815  35.083   6.428   0.416
51655W        W16816  26.971   1.489   4.815
51656W        W16817  18.100   5.246  13.939
51657W        W16818  31.079  12.925   4.320
51658W        W16819   4.838  26.965  12.005
51659W        W16820   6.190  33.015   3.650
51660W        W16821  33.441  19.975   4.092
51661W        W16822   3.661  20.176  12.633
51662W        W16823   1.851  33.305  11.660
51663W        W16824   6.717  44.399   1.150
51664W        W16825   9.188  38.383   3.433
51665W        W16826  33.437  44.563   1.196
51666W        W16827  19.564   2.051  11.740
51667W        W16828  27.622  19.737   4.400
51668W        W16829  12.442   6.884  11.988
51669W        W16830  10.269   7.255   1.390
51670W        W16831  32.046  13.971  13.019
51671W        W16832   4.375  27.053   2.119
51672W        W16833  27.477   1.003  14.472
51673W        W16834  15.400  44.164   4.146
51674W        W16835   9.053  14.713  11.822
51675W        W16836  21.743   2.761  14.042
51676W        W16837  15.635  42.479   0.635
51677W        W16838  42.495  27.232   0.902
51678W        W16839  10.636  26.145  11.558
51679W        W16840  27.969  37.792   2.721
51680W        W16841  20.209  34.840  14.949
51681W        W16842   7.674  30.743   2.509
51682W        W16843   7.339  17.817  12.387
51683W        W16844  41.927  29.405  13.739
51684W        W16845   9.189  44.739   3.665
51685W        W16846   7.956  29.643   1.281
51686W        W16847   9.827  36.399   0.289
51687W        W16848  40.515  24.203  12.967
51688W        W16849  12.191   6.373   3.183
51689W        W16850   2.458  20.530   1.455
51690W        W16851  27.860   1.340  13.399
51691W        W16852   0.836  16.615   0.496
51692W        W16853   5.706  13.756  14.385
51693W        W16854   1.788  17.553  11.077
51694W        W16855  17.114  23.269  12.073
51695W        W16856  31.654   9.087   2.763
51696W        W16857  32.918  13.183  11.753
51697W        W16858   7.629  23.738   1.816
51698W        W16859  26.981   3.675  13.331
51699W        W16860  23.033  18.544  10.439
51700W        W16861  17.345   6.754  14.819
51701W        W16862  22.698   5.308   2.790
51702W        W16863  36.471  12.184   3.609
51703W        W16864   5.709  10.146  12.652
51704W        W16865  39.791  21.232  11.971
51705W        W16866  14.670  33.832  10.634
51706W        W16867  22.706  14.941  10.326
51707W        W16868  13.160  10.265   0.922
51708W        W16869  28.510   5.517   4.550
51709W        W16870  20.738  37.362   1.134
51710W        W16871   6.740  14.776   4.641
51711W        W16872  43.360  22.221  12.907
51712W        W16873  39.871   8.405   2.745
51713W        W16874  34.519  38.595  13.514
51714W        W16875  34.384  35.405   0.817
51715W        W16876   8.463  37.735  13.006
51716W        W16877  20.195  36.839   0.914
51717W        W16878   6.416   4.371   0.395
51718W        W16879  32.561  34.953  14.284
51719W        W16880   1.901   4.818   0.214
51720W        W16881  34.971  27.186   2.840
51721W        W16882  38.780  13.807   4.768
51722W        W16883  40.005  41.246  11.174
51723W        W16884  22.826   8.307   1.278
51724W        W16885   5.643  40.598  12.501
51725W        W16886  19.144  23.686   2.337
51726W        W16887  40.283  17.152   5.005
51727W        W16888   5.210  18.339   1.892
51728W        W16889  44.537  33.606  12.662
51729W        W16890  22.939  43.558  12.538
51730W        W16891  33.976  31.309  12.911
51731W        W16892  33.091  42.890   0.271
51732W        W16893  20.554  15.077   3.992
51733W        W16894  22.042  37.519   2.871
51734W        W16895  23.545  21.516  14.846
51735W        W16896   6.840  33.156  13.705
51736W        W16897  31.408   2.707  13.490
51737W        W16898  39.048   5.857   0.081
51738W        W16899  27.221  44.323   4.823
51739W        W16900  31.804  19.536   1.705
51740W        W16901   6.753  20.411  12.871
51741W        W16902  25.290  36.574  13.983
51742W        W16903  15.982  21.519  13.972
51743W        W16904  33.629  24.604  12.991
51744W        W16905  19.082  26.226  11.082
51745W        W16906  27.792  14.160  13.204
51746W        W16907   3.872  10.664  13.010
51747W        W16908  23.189   1.362   3.831
51748W        W16909  26.663  20.533   4.635
51749W        W16910   0.860  11.536   5.368
51750W        W16911  33.477  13.628  10.419
51751W        W16912  16.660  34.015  12.185
51752W        W16913   1.398  12.032  10.664
51753W        W16914  38.192  20.114   2.373
51754W        W16915   8.314   1.050  12.927
51755W        W16916  30.676   1.116   5.079
51756W        W16917  26.150  21.093   2.630
51757W        W16918  36.492  41.872  14.906
51758W        W16919  11.084  24.677   3.788
51759W        W16920  14.882  28.506  14.086
51760W        W16921  36.021  15.083  12.639
51761W        W16922  19.211  14.257   3.705
51762W        W16923  25.261  25.635  10.866
51763W        W16924  30.980  11.710   2.466
51764W        W16925   6.376   1.510   3.183
51765W        W16926   9.415  23.559   1.740
51766W        W16927   9.208   4.768  14.276
51767W        W16928  36.195   0.035   1.900
51768W        W16929   3.144  10.129   0.537
51769W        W16930  25.137   9.885  13.781
51770W        W16931   0.037  22.037   2.831
51771W        W16932  32.880  26.541  10.524
51772W        W16933  26.514  15.094   3.160
51773W        W16934  18.258  41.446  14.997
51774W        W16935  34.786   3.274   1.121
51775W        W16936  27.909  14.759   0.994
51776W        W16937  30.121  32.162   3.194
51777W        W16938  13.745  41.287   0.902
51778W        W16939  44.222  41.446   4.980
51779W        W16940  22.008   1.477   0.844
51780W        W16941  13.800  30.839   2.237
51781W        W16942   6.618  15.709   3.751
51782W        W16943   3.877  29.865   0.860
51783W        W16944  28.285   2.436  13.540
51784W        W16945   7.505  24.702   0.945
51785W        W16946  28.186  44.301   0.729
51786W        W16947   9.438   8.260   2.167
51787W        W16948  43.984  21.321   2.487
51788W        W16949  22.687  37.597   1.307
51789W        W16950  20.645  32.983   1.957
51790W        W16951  19.010  43.054  13.804
51791W        W16952  37.147  38.992  12.056
51792W        W16953  29.548  11.202   3.650
51793W        W16954   0.293  11.863   3.128
51794W        W16955  26.920   1.890  12.023
51795W        W16956  34.492  35.447   2.122
51796W        W16957  22.017  29.206   4.046
51797W        W16958  19.812  10.303  14.780
51798W        W16959  36.418  35.389  12.916
51799W        W16960  39.481   7.855  14.849
51800W        W16961  43.896   9.684   2.615
51801W        W16962  17.116   2.587   3.096
51802W        W16963  15.056  29.024  10.991
51803W        W16964  28.996   5.315  12.351
51804W        W16965  33.561  41.513   4.840
51805W        W16966  43.852  32.570   3.748
51806W        W16967   9.332  23.965   2.277
51807W        W16968  19.214  20.810   0.920
51808W        W16969  28.059  11.205   4.209
51809W        W16970  16.650   7.189  12.506
51810W        W16971  12.089   3.132   2.331
51811W        W16972  12.052   2.442   4.427
51812W        W16973  22.382  29.013  13.490
51813W        W16974  19.259  27.562  13.065
51814W        W16975   0.175  18.205  11.338
51815W        W16976  27.503   0.944  11.167
51816W        W16977  26.790  32.135   1.352
51817W        W16978  14.867  43.469  13.523
51818W        W16979   4.767  37.519  12.049
51819W        W16980  13.696  27.495   1.265
51820W        W16981  42.503  14.260   2.688
51821W        W16982  12.445  36.781  12.983
51822W        W16983   5.749  15.226  12.510
51823W        W16984  38.923  31.378  10.722
51824W        W16985  29.084  12.361   1.259
51825W        W16986  23.103   2.813   4.137
51826W        W16987  39.118  25.136   2.250
51827W        W16988  18.259  14.859   0.862
51828W        W16989   2.932  27.706   1.279
51829W        W16990  22.289  13.352  13.403
51830W        W16991  18.240   1.928  13.534
51831W        W16992  30.207   0.778  11.429
51832W        W16993  24.666   9.694   4.170
51833W        W16994  13.296  32.947   2.163
51834W        W16995  12.046  43.060   4.155
51835W        W16996  19.441  32.359   2.223
51836W        W16997   7.677  33.344  14.016
51837W        W16998  11.342   7.877   2.272
51838W        W16999  30.123   5.866  13.874
51839W        W17000  35.790  20.568  13.817
51840W        W17001   6.791  27.266  13.407
51841W        W17002  38.013  37.617   3.388
51842W        W17003  40.274  42.541  11.666
51843W        W17004  20.713  42.907   3.758
51844W        W17005   7.323  21.674  14.689
51845W        W17006  43.846  14.793   1.860
51846W        W17007  30.886  37.493   4.339
51847W        W17008   1.983  16.293   4.006
51848W        W17009  30.635  11.871  13.451
51849W        W17010  43.957   1.876   4.855
51850W        W17011  28.653  23.995  14.298
51851W        W17012  26.777  30.447  13.503
51852W        W17013  20.316  35.229  12.068
51853W        W17014   4.423  30.623  12.009
51854W        W17015  22.233   0.165   1.322
51855W        W17016  23.061  30.025  12.782
51856W        W17017  13.796   0.467   3.911
51857W        W17018   3.928   2.668  13.920
51858W        W17019   5.800  15.876  10.725
51859W        W17020  11.536  17.159  11.646
51860W        W17021  36.704  24.043  11.491
51861W        W17022  26.662   6.658  11.963
51862W        W17023  35.234   4.713   0.901
51863W        W17024   0.838  27.200  14.514
51864W        W17025  20.836  33.364   2.706
51865W        W17026  10.840  36.815   3.724
51866W        W17027  28.657  24.647  13.381
51867W        W17028  16.806  38.960  14.367
51868W        W17029  33.685  12.002   2.243
51869W        W17030  15.303  35.308  11.566
51870W        W17031  20.802   0.227   4.353
51871W        W17032  36.085  39.332   1.855
51872W        W17033  41.701  34.877   4.079
51873W        W17034  43.901   3.473   2.627
51874W        W17035  24.116  10.079   2.626
51875W        W17036   2.275  10.220  10.670
51876W        W17037   4.831  29.964   1.402
51877W        W17038  34.088  10.086  14.737
51878W        W17039  42.889   8.803  13.753
51879W        W17040  10.551  25.087  13.466
51880W        W17041  33.343  11.187   2.871
51881W        W17042  40.313  41.156   0.422
51882W        W17043   1.902  21.659   4.298
51883W        W17044  19.842  21.244  14.660
51884W        W17045  35.078  28.299  10.102
51885W        W17046   0.010  43.240   0.380
51886W        W17047  38.842  15.383  14.264
51887W        W17048  30.568  20.709   1.705
51888W        W17049  29.185   0.538  13.828
51889W        W17050  21.584  23.139  14.294
51890W        W17051  42.076  39.346  14.090
51891W        W17052  11.704  36.334  10.561
51892W        W17053  18.700   8.302  14.932
51893W        W17054  40.856  22.698   3.905
51894W        W17055  15.542   1.336   0.784
51895W        W17056  24.342   9.108   1.661
51896W        W17057   4.885  42.441   1.789
51897W        W17058  29.620   4.131  11.107
51898W        W17059  44.532  38.606  13.424
51899W        W17060  42.411   7.968   0.292
51900W        W17061  14.174  30.468  14.965
51901W        W17062  44.443  12.620   4.656
51902W        W17063  38.241   0.264   3.754
51903W        W17064  28.727  20.582   4.725
51904W        W17065  15.786   1.037   1.128
51905W        W17066  17.169   2.467   4.500
51906W        W17067  23.122   7.440  11.091
51907W        W17068  24.510  21.791   2.752
51908W        W17069  39.435  39.242  13.994
51909W        W17070   1.042  37.126   2.309
51910W        W17071  27.090  31.425  12.017
51911W        W17072  31.864   8.312   4.363
51912W        W17073  26.042  42.463   3.276
51913W        W17074  32.111  42.480   3.698
51914W        W17075  13.900  19.055   1.912
51915W        W17076   8.279  21.733  11.522
51916W        W17077  41.416  10.114  11.984
51917W        W17078   7.251  35.277  11.490
51918W        W17079  24.606  38.782  13.871
51919W        W17080  25.487  23.972   4.033
51920W        W17081   4.428   2.080   0.461
51921W        W17082  34.817  38.903   2.861
51922W        W17083  35.992  30.844   2.681
51923W        W17084  30.497  43.913   4.682
51924W        W17085  12.675  24.072   2.103
51925W        W17086   0.517  18.787  12.810
51926W        W17087   2.987  22.465  13.457
51927W        W17088  16.526  33.119   1.377
51928W        W17089   4.261  17.731   0.346
51929W        W17090  30.719  31.053   3.567
51930W        W17091  32.113  14.811  11.398
51931W        W17092  14.815   6.232   9.917
51932W        W17093   5.897  19.854  13.157
51933W        W17094  34.507   8.853  13.476
51934W        W17095  10.864  29.514   3.852
51935W        W17096  39.927  13.425   0.008
51936W        W17097  26.737   9.192  13.300
51937W        W17098  20.029  10.430   4.551
51938W        W17099  22.437  35.512  12.062
51939W        W17100  31.001  43.949   1.689
51940W        W17101   4.464   6.334  14.806
51941W        W17102  24.087  37.033  11.703
51942W        W17103   3.792  33.467  11.050
51943W        W17104  13.075   7.658   4.099
51944W        W17105  16.575  30.024   1.290
51945W        W17106  44.918  19.519   1.190
51946W        W17107  20.777   2.842  14.874
51947W        W17108   0.049   9.182  11.942
51948W        W17109  28.890  38.401  10.324
51949W        W17110   4.977  12.390  13.520
51950W        W17111  32.026   2.909  14.155
51951W        W17112  43.525  10.472   3.198
51952W        W17113  41.328   1.265   0.038
51953W        W17114  38.788  14.023  10.723
51954W        W17115  15.658   8.592  12.388
51955W        W17116  33.876  22.027   0.299
51956W        W17117  39.781  15.651   2.857
51957W        W17118  18.718   6.784   1.724
51958W        W17119  15.980  35.755  13.006
51959W        W17120  31.126  36.328   4.010
51960W        W17121  10.691  27.621  10.742
51961W        W17122  32.336   7.376   0.282
51962W        W17123   1.251   6.352  11.663
51963W        W17124  16.607  17.449   4.924
51964W        W17125  44.223   8.461   5.343
51965W        W17126  12.890   0.816   4.802
51966W        W17127  34.921  20.233   4.462
51967W        W17128   5.860  35.409  14.074
51968W        W17129  32.784  34.794  11.977
51969W        W17130  16.768  37.122   1.263
51970W        W17131  28.571  30.551   1.754
51971W        W17132  28.385  14.088  11.578
51972W        W17133  37.465  22.544   1.045
51973W        W17134  32.070  36.542   3.630
51974W        W17135  39.627  26.256   4.201
51975W        W17136  27.986  35.565   1.679
51976W        W17137  11.798  13.312  12.672
51977W        W17138  15.485  36.476   2.179
51978W        W17139  10.123  14.312  10.769
51979W        W17140  31.158  33.566   1.958
51980W        W17141  16.591  25.046   3.480
51981W        W17142  37.536  29.710   0.833
51982W        W17143  23.421  44.565   3.338
51983W        W17144  38.033  30.952  12.145
51984W        W17145  30.018  22.110   4.083
51985W        W17146  11.793  19.706  11.847
51986W        W17147  35.058  13.216  13.316
51987W        W17148   3.355   9.229  13.791
51988W        W17149  16.321  22.957  11.613
51989W        W17150  19.153  22.695  11.924
51990W        W17151   1.891  18.791   4.257
51991W        W17152  30.690  28.391   3.267
51992W        W17153  36.114   2.192   3.684
51993W        W17154  42.697  37.773   4.941
51994W        W17155  44.780  40.518  14.780
51995W        W17156  44.022   4.956  11.443
51996W        W17157  31.802   8.836   4.407
51997W        W17158   2.626  37.921  13.406
51998W        W17159  44.732  16.156  13.537
51999W        W17160  19.106  33.112  14.609
52000W        W17161  15.930  23.233   2.073
52001W        W17162  26.897  26.359  12.504
52002W        W17163  12.138  15.730   2.842
52003W        W17164   8.384   7.869   1.409
52004W        W17165  32.212  13.850   0.214
52005W        W17166  40.847   1.477   0.921
52006W        W17167  14.233   8.710   4.243
52007W        W17168  22.673  35.699   2.305
52008W        W17169   2.306  30.204  10.517
52009W        W17170  34.968   1.284   3.627
52010W        W17171  43.920  11.702   3.798
52011W        W17172  15.766   1.658  13.070
52012W        W17173  13.382   1.416   4.295
52013W        W17174  42.385   9.912   3.278
52014W        W17175  41.521  28.833  12.018
52015W        W17176  28.890   3.922  14.558
52016W        W17177  20.359  25.267  12.035
52017W        W17178  14.684  13.247   4.935
52018W        W17179  37.263   5.589  11.085
52019W        W17180  25.522  22.540   1.944
52020W        W17181  12.236  20.644   2.694
52021W        W17182  12.792  22.252   0.381
52022W        W17183  37.491  20.478   4.534
52023W        W17184   1.926  14.794   4.168
52024W        W17185  31.021  10.017  13.488
52025W        W17186  17.103  36.015  14.280
52026W        W17187  44.367  14.035   1.416
52027W        W17188  31.135   8.085  12.832
52028W        W17189   3.216   7.707  14.309
52029W        W17190  43.321  34.146   4.140
52030W        W17191  32.998  16.882   3.202
52031W        W17192  12.225  44.679  14.871
52032W        W17193  34.925  22.816   4.415
52033W        W17194  16.812  22.240  11.640
52034W        W17195  10.637  30.323   1.271
52035W        W17196   7.167  19.927   1.279
52036W        W17197  37.067  32.886  14.318
52037W        W17198  37.011  24.946  12.144
52038W        W17199  41.509  26.182  11.309
52039W        W17200  27.665  20.412   2.879
52040W        W17201  42.399   5.779   1.878
52041W        W17202  15.573  14.780   0.250
52042W        W17203   6.723  33.513   3.194
52043W        W17204   2.583  25.551   3.232
52044W        W17205  26.098  20.248  11.957
52045W        W17206  43.647   5.680  11.086
52046W        W17207  38.323  19.870   0.965
52047W        W17208  26.269  43.697   2.963
52048W        W17209   1.960  15.205   5.146
52049W        W17210   0.497  15.244   3.259
52050W        W17211  43.890  39.001   0.727
52051W        W17212  34.065  41.621  12.606
52052W        W17213  17.777  10.702   4.712
52053W        W17214  16.093   0.612   2.309
52054W        W17215  40.132  30.558  10.723
52055W        W17216  44.965   5.788   2.296
52056W        W17217   1.416   0.977   3.995
52057W        W17218   3.061  27.125  12.288
52058W        W17219  13.763   3.017  12.067
52059W        W17220   2.616  10.124   4.293
52060W        W17221   7.916  25.011   2.666
52061W        W17222  17.693  13.733   2.953
52062W        W17223  15.570  27.765  12.587
52063W        W17224  20.036  13.888  11.642
52064W        W17225  31.524  37.087  13.351
52065W        W17226  29.640  30.074  14.729
52066W        W17227   8.104  39.564   0.886
52067W        W17228  44.804  21.866   2.265
52068W        W17229  28.161  14.542   2.384
52069W        W17230  44.952   6.323  11.482
52070W        W17231  31.025  25.384  13.021
52071W        W17232   2.686   2.285  11.102
52072W        W17233  39.568   5.829   1.526
52073W        W17234   6.324  24.286  13.847
52074W        W17235  42.801  23.935  14.298
52075W        W17236  35.361   9.683   0.765
52076W        W17237  30.341  14.597   5.018
52077W        W17238  26.558  29.906   1.737
52078W        W17239  37.113  32.508  12.862
52079W        W17240  41.400  37.328  14.962
52080W        W17241  41.245  11.284   3.871
52081W        W17242   3.910   0.194   0.983
52082W        W17243  36.953  13.786   2.777
52083W        W17244   2.737  29.238   4.147
52084W        W17245  37.715  11.556   3.124
52085W        W17246  15.764  34.659   2.701
52086W        W17247  29.658   0.253  12.136
52087W        W17248  23.949  28.915  13.817
52088W        W17249  19.718  15.731  11.905
52089W        W17250  28.306  44.100   0.250
52090W        W17251  30.344  43.440   4.569
52091W        W17252  30.665   8.469  12.068
52092W        W17253  28.076  32.914  11.653
52093W        W17254  42.294  28.539  13.956
52094W        W17255  42.916  34.313  13.662
52095W        W17256  22.461   4.825   4.128
52096W        W17257  13.740  22.145  12.641
52097W        W17258   6.966   0.940  12.000
52098W        W17259  15.534  42.956  12.364
52099W        W17260  30.966   2.057   2.812
52100W        W17261  18.155   9.812   3.862
52101W        W17262  26.271  42.373   2.828
52102W        W17263  15.634  34.103   1.971
52103W        W17264  27.818  40.025  11.211
52104W        W17265   1.347  43.313  12.989
52105W        W17266  32.427  32.423  12.564
52106W        W17267   1.786  28.320   0.656
52107W        W17268   5.889  19.312  13.087
52108W        W17269   6.214  27.605   5.538
52109W        W17270  21.709  11.536  10.624
52110W        W17271  39.644  37.320  13.803
52111W        W17272  15.158  10.707   4.708
52112W        W17273  26.741   3.915  14.947
52113W        W17274  41.996  16.262   4.740
52114W        W17275  32.584  17.312   1.699
52115W        W17276  43.608  37.114   3.366
52116W        W17277  27.683   8.980  11.963
52117W        W17278   4.714  37.026  13.368
52118W        W17279  21.224   0.785  11.185
52119W        W17280   1.033  14.540  14.834
52120W        W17281  30.540  35.535  13.335
52121W        W17282  20.350   7.251  11.565
52122W        W17283  33.835  33.480   5.060
52123W        W17284  11.688  35.455   3.967
52124W        W17285  10.315  31.755   9.875
52125W        W17286   2.851   2.775  10.764
52126W        W17287  34.836  19.534   0.757
52127W        W17288  42.553  13.235  13.835
52128W        W17289   6.028  16.420   2.715
52129W        W17290  33.650  43.015   3.188
52130W        W17291  38.593  31.695   4.753
52131W        W17292  13.397  28.679  12.479
52132W        W17293  12.364  40.122   5.056
52133W        W17294  17.308   8.871  13.795
52134W        W17295  35.458   2.828  14.918
52135W        W17296  15.990  13.773   2.340
52136W        W17297   8.433  36.973   4.658
52137W        W17298   7.568  27.564  10.274
52138W        W17299  22.114  22.745   2.463
52139W        W17300  16.368  36.429   0.895
52140W        W17301  23.948   4.630  13.044
52141W        W17302  32.437  31.943  13.534
52142W        W17303   1.690  36.486  14.022
52143W        W17304   9.258   9.687  13.402
52144W        W17305  27.132  37.505  12.078
52145W        W17306  16.610  32.468   0.090
52146W        W17307   8.909   5.152   4.445
52147W        W17308   5.174  19.198  10.577
52148W        W17309   5.757   6.505  10.541
52149W        W17310  15.859  38.489   1.007
52150W        W17311  17.710  35.593   3.280
52151W        W17312  42.375  20.663   3.605
52152W        W17313  44.548  41.395   3.722
52153W        W17314  13.531  30.643   3.625
52154W        W17315  32.888  36.814   9.970
52155W        W17316  37.113  18.228   3.330
52156W        W17317  41.835  34.966  12.973
52157W        W17318  29.646  19.209   4.045
52158W        W17319  40.442  39.008  14.748
52159W        W17320   4.057   0.800  11.388
52160W        W17321   4.011  14.536  10.981
52161W        W17322  13.836   3.945   1.373
52162W        W17323   9.677   7.920  14.429
52163W        W17324  30.971  16.386  11.524
52164W        W17325   7.739  13.573  11.615
52165W        W17326   6.508  32.054  12.063
52166W        W17327  33.140  43.437  14.383
52167W        W17328   3.174   8.333  12.094
52168W        W17329   3.725   7.280  11.156
52169W        W17330  44.782  28.538  13.337
52170W        W17331  10.407  43.972   2.397
52171W        W17332  13.752  14.819  11.198
52172W        W17333   3.837  24.102  13.406
52173W        W17334  25.249  18.512   0.755
52174W        W17335  10.223  25.518  14.255
52175W        W17336   2.637  12.621   0.310
52176W        W17337   3.504  12.253  14.962
52177W        W17338  44.905  42.499   1.848
52178W        W17339  44.998  39.237   3.175
52179W        W17340  41.058  34.838   0.969
52180W        W17341  22.248  20.255  14.916
52181W        W17342  14.861   3.783  13.536
52182W        W17343  28.940  37.900  12.212
52183W        W17344  39.724  37.644   0.685
52184W        W17345  17.724  17.744   1.559
52185W        W17346  13.103  22.127  10.651
52186W        W17347  34.679  40.099  10.128
52187W        W17348   8.784  13.800  10.961
52188W        W17349  27.128  33.980  10.998
52189W        W17350  19.802  13.900  12.962
52190W        W17351  31.100  44.516   4.070
52191W        W17352  22.993  20.178  10.695
52192W        W17353   3.698  36.761  11.814
52193W        W17354  34.498  35.764   1.211
52194W        W17355  28.665  13.213   4.173
52195W        W17356  13.698   6.465  14.556
52196W        W17357  24.141  30.467   0.626
52197W        W17358   5.443  16.039  13.459
52198W        W17359  19.907   5.819   3.944
52199W        W17360   7.765   2.054  11.070
52200W        W17361  16.229  17.308   2.136
52201W        W17362  38.673   1.768   2.763
52202W        W17363  37.096   3.855  13.561
52203W        W17364  19.700  15.336   2.133
52204W        W17365  20.095  30.007   4.205
52205W        W17366  19.462   7.628   1.206
52206W        W17367  16.412  31.581  12.005
52207W        W17368  14.355   8.171   3.660
52208W        W17369  10.103  44.981   2.722
52209W        W17370  29.543  15.573   1.859
52210W        W17371  11.611  11.347  12.873
52211W        W17372  44.375  20.277   1.503
52212W        W17373  23.291   4.959   0.642
52213W        W17374  14.261  24.141  12.086
52214W        W17375  30.644   0.219   0.363
52215W        W17376  38.352  27.934   1.632
52216W        W17377  30.665  38.892   1.294
52217W        W17378  19.820  35.904   3.265
52218W        W17379   4.980  38.838   1.938
52219W        W17380  25.950  22.757  14.315
52220W        W17381  24.516   6.310  10.949
52221W        W17382  16.124   4.626  11.466
52222W        W17383   7.729  24.768   4.544
52223W        W17384  35.424   9.948  12.492
52224W        W17385  17.287   4.378   4.140
52225W        W17386  11.858  12.335   2.884
52226W        W17387  34.431  25.522   1.756
52227W        W17388  15.130  42.261   2.522
52228W        W17389  22.649  17.736  10.019
52229W        W17390   1.450  16.720  11.591
52230W        W17391  20.574   2.858  11.588
52231W        W17392  34.391   9.711   1.904
52232W        W17393  11.255  41.697  11.502
52233W        W17394  38.557  39.358   0.699
52234W        W17395  11.225  28.943  11.169
52235W        W17396  31.824   9.709  12.541
52236W        W17397  24.514  17.530  13.829
52237W        W17398  29.592  30.040   4.763
52238W        W17399   0.647  16.675   4.000
52239W        W17400  25.949  14.950   2.263
52240W        W17401  31.970   1.062   2.839
52241W        W17402  32.711  26.460   3.784
52242W        W17403  16.813  29.503   4.098
52243W        W17404  34.072   4.080  11.441
52244W        W17405   9.301  16.602  12.378
52245W        W17406  36.518  39.776  14.423
52246W        W17407  17.170   3.197  13.918
52247W        W17408  24.016  41.793  11.116
52248W        W17409  16.672  38.153   4.070
52249W        W17410  12.932  28.864  13.632
52250W        W17411  36.932  41.268  14.745
52251W        W17412  28.677  11.377  12.407
52252W        W17413  23.045  43.843  10.549
52253W        W17414  21.700  35.145  13.392
52254W        W17415  16.726  21.785  10.747
52255W        W17416   4.213  26.897  13.978
52256W        W17417  41.511  14.593  14.804
52257W        W17418  17.530  18.049  12.996
52258W        W17419   2.656  35.527   0.295
52259W        W17420  41.499   9.637  13.419
52260W        W17421  19.278  10.822   3.608
52261W        W17422  31.506  12.701  10.592
52262W        W17423  18.625  19.759  13.012
52263W        W17424   1.854   6.319   0.974
52264W        W17425  19.312  13.485   3.262
52265W        W17426  27.922   5.467   1.928
52266W        W17427   5.868  27.439   1.775
52267W        W17428  26.196  22.079   4.468
52268W        W17429  27.665  15.584  13.802
52269W        W17430  18.679  37.317  14.715
52270W        W17431  15.067  33.093   4.072
52271W        W17432  29.702  40.858   4.037
52272W        W17433  36.236   0.280   2.758
52273W        W17434  40.306  24.769  13.984
52274W        W17435  26.123  16.913   4.566
52275W        W17436   0.983  28.319   1.251
52276W        W17437  14.247  19.015   0.719
52277W        W17438  44.812  30.442  13.809
52278W        W17439  17.511   8.975   0.896
52279W        W17440   0.305  29.682  13.771
52280W        W17441  42.330  32.487   1.821
52281W        W17442  44.219  41.956  13.339
52282W        W17443  14.708  26.220   1.185
52283W        W17444   0.294  37.558  13.330
52284W        W17445  27.530  39.834   0.954
52285W        W17446  44.371   4.409   0.611
52286W        W17447  18.122  27.432   3.331
52287W        W17448  21.705   3.742  13.785
52288W        W17449   8.444  40.098  13.482
52289W        W17450   1.842   2.808  11.953
52290W        W17451  11.284  15.255  13.785
52291W        W17452  23.589  17.848   2.656
52292W        W17453  36.357  30.530   5.113
52293W        W17454  39.002  31.459  11.995
52294W        W17455  44.168  44.734  12.771
52295W        W17456   7.220  24.913  13.402
52296W        W17457   8.064  33.898   0.250
52297W        W17458  11.227  16.086  13.092
52298W        W17459   5.932   0.672   1.868
52299W        W17460  30.145  33.145  13.993
52300W        W17461  13.332   9.741   4.142
52301W        W17462  31.420  23.504   2.573
52302W        W17463  34.103   9.963  11.068
52303W        W17464   4.246  19.923   4.120
52304W        W17465  17.332  17.971  11.122
52305W        W17466  44.999  16.334  13.111
52306W        W17467   6.104   8.212   1.188
52307W        W17468  20.243  27.209  12.012
52308W        W17469  16.253  42.926   4.508
52309W        W17470  30.370  33.354   4.385
52310W        W17471   2.571  13.217  12.032
52311W        W17472  16.657  26.157   1.476
52312W        W17473  16.438  40.285   0.986
52313W        W17474   8.390  29.600  11.321
52314W        W17475  30.009   5.950  12.029
52315W        W17476  43.381  34.038   3.255
52316W        W17477  31.641  30.089   1.298
52317W        W17478  33.109  25.137   1.456
52318W        W17479  39.376  15.239  11.678
52319W        W17480  41.694  31.902  10.801
52320W        W17481   2.804   3.442   1.936
52321W        W17482   5.854  28.484   3.189
52322W        W17483  17.220  29.680   1.782
52323W        W17484  40.443   0.853   3.187
52324W        W17485  10.582  31.970   3.601
52325W        W17486  18.108   4.233  13.755
52326W        W17487  16.820  37.687  11.920
52327W        W17488  21.569  35.277   1.743
52328W        W17489  31.030  43.298  10.730
52329W        W17490   8.161  26.167   3.768
52330W        W17491  16.379  10.358   0.839
52331W        W17492   2.526  33.860  14.843
52332W        W17493  26.047   5.630   4.580
52333W        W17494   1.457  41.165   4.274
52334W        W17495  44.082  12.357  13.985
52335W        W17496   6.226  15.878  14.768
52336W        W17497  27.108  20.993  12.358
52337W        W17498   1.925  16.850   2.240
52338W        W17499  24.111   0.846   3.062
52339W        W17500  39.786  24.505   3.562
52340W        W17501  27.630  43.844  14.522
52341W        W17502  31.230  35.339   0.736
52342W        W17503   3.253  34.884  10.344
52343W        W17504  25.517  31.986   2.287
52344W        W17505   5.635  36.984  10.538
52345W        W17506  33.396  27.776  13.423
52346W        W17507   6.359  25.671   1.931
52347W        W17508  37.357   0.802  14.012
52348W        W17509   1.461  40.026  11.965
52349W        W17510  41.410   2.936  14.205
52350W        W17511  33.791  14.127   0.825
52351W        W17512  38.953   1.084   4.108
52352W        W17513  36.962  31.097  14.812
52353W        W17514  39.373  12.609   2.735
52354W        W17515   3.761  19.966   3.881
52355W        W17516  25.484   5.696   0.928
52356W        W17517  40.475  25.039   0.065
52357W        W17518  26.650  35.198   5.038
52358W        W17519  44.538  42.402  11.585
52359W        W17520  24.791   2.966  10.915
52360W        W17521  19.597  40.335   0.009
52361W        W17522  37.429  38.570   0.920
52362W        W17523   7.714  23.540   4.183
52363W        W17524   6.328  35.417   3.968
52364W        W17525   1.041  31.375  14.621
52365W        W17526  37.458  40.225   3.368
52366W        W17527  26.533  43.030  11.985
52367W        W17528  26.943  28.945   0.231
52368W        W17529  11.403  15.785  12.035
52369W        W17530  35.224   0.938   0.869
52370W        W17531  16.568  17.063   9.761
52371W        W17532  14.892  14.176   1.887
52372W        W17533   1.018  44.363  14.106
52373W        W17534   0.943  18.024   1.379
52374W        W17535  40.921  38.277   5.094
52375W        W17536  42.472  21.708  12.579
52376W        W17537   0.391  11.048   1.367
52377W        W17538  18.624  25.163   3.620
52378W        W17539  38.869  23.665  13.436
52379W        W17540  38.505  40.310  13.397
52380W        W17541  42.881  31.704   1.784
52381W        W17542  29.353  11.328  13.826
52382W        W17543  22.174  26.421   3.131
52383W        W17544  33.146  15.181  11.449
52384W        W17545   0.928  33.421  11.328
52385W        W17546  30.021  34.098   3.247
52386W        W17547   4.623  33.312   0.920
52387W        W17548  17.857  26.712   1.639
52388W        W17549  25.596   4.236  10.522
52389W        W17550  10.849  16.138  14.064
52390W        W17551  19.603  10.920   1.195
52391W        W17552   1.940  41.450   1.218
52392W        W17553  21.017  38.983  14.016
52393W        W17554  42.549  36.074   1.248
52394W        W17555  34.859  16.228   4.081
52395W        W17556   5.790  20.046   3.689
52396W        W17557  41.574  11.187   2.487
52397W        W17558  16.299  19.163   1.630
52398W        W17559  38.392  34.912  14.519
52399W        W17560   6.739  25.071  14.261
52400W        W17561  19.713   0.539  14.446
52401W        W17562  42.312  29.901  10.752
52402W        W17563  36.904  37.109  13.162
52403W        W17564   3.447   8.668   4.569
52404W        W17565  14.977   3.243   5.117
52405W        W17566  16.950  26.469   4.498
52406W        W17567  26.083   3.965  13.241
52407W        W17568   4.051  41.669  12.967
52408W        W17569  25.154   2.922  10.542
52409W        W17570  22.752  11.137   1.566
52410W        W17571  27.995   4.205  13.548
52411W        W17572  31.474   4.330   0.360
52412W        W17573   6.702  23.746  14.502
52413W        W17574   5.687  23.547  13.500
52414W        W17575   0.965  42.453   5.057
52415W        W17576  31.060   3.357   4.748
52416W        W17577  23.240   0.897  13.554
52417W        W17578   1.785  11.090  11.550
52418W        W17579  13.943  31.137   1.811
52419W        W17580  31.526  29.973  11.205
52420W        W17581  12.579  32.471   1.975
52421W        W17582  42.281  42.830   1.833
52422W        W17583  39.300  13.544   4.105
52423W        W17584  43.214   6.906   0.639
52424W        W17585  26.562  34.828   4.116
52425W        W17586  29.215  30.324  14.918
52426W        W17587  22.143   9.166  14.801
52427W        W17588  35.558  40.740   3.165
52428W        W17589  10.923  12.190   1.382
52429W        W17590  15.628  24.089   1.644
52430W        W17591   0.220  15.913  12.859
52431W        W17592  15.822  42.931  13.298
52432W        W17593   1.289   0.444  12.841
52433W        W17594  27.990  44.774   2.893
52434W        W17595   9.886   7.585   3.197
52435W        W17596  14.762  42.520   0.454
52436W        W17597   1.187  34.659   2.234
52437W        W17598  11.615   2.238   4.188
52438W        W17599  20.602   8.443  13.336
52439W        W17600  27.943   3.693   4.091
52440W        W17601  41.526  16.231   5.000
52441W        W17602  35.490  39.970   1.622
52442W        W17603  15.239  26.403   1.242
52443W        W17604  34.581  20.719  12.953
52444W        W17605   1.606  44.646   3.331
52445W        W17606  10.963  10.913  11.048
52446W        W17607  29.320  35.148  12.881
52447W        W17608  12.138   4.663   2.284
52448W        W17609   6.320   7.413   3.130
52449W        W17610  13.498  21.180  10.662
52450W        W17611  41.881   4.925  14.010
52451W        W17612  23.086  23.501   1.659
52452W        W17613   6.777   5.720  12.497
52453W        W17614  28.310  30.381  10.999
52454W        W17615  39.730  29.043  11.604
52455W        W17616   2.891  42.407   2.932
52456W        W17617  23.209  34.821   0.699
52457W        W17618  19.647  24.931  14.326
52458W        W17619   3.308   8.602   0.196
52459W        W17620  16.569  37.819   0.949
52460W        W17621   4.981  33.451  10.604
52461W        W17622   6.771  32.883   0.039
52462W        W17623  31.585  22.747   0.461
52463W        W17624   3.929  13.743   3.896
52464W        W17625  18.932  35.092  11.580
52465W        W17626   2.872   6.736   4.623
52466W        W17627  35.316  19.653  14.826
52467W        W17628   5.367   0.790  13.576
52468W        W17629  22.027  20.987  10.169
52469W        W17630  29.932   4.744   3.862
52470W        W17631  29.177   0.208  12.882
52471W        W17632  28.489  39.929  11.593
52472W        W17633  28.996  12.388   2.640
52473W        W17634  16.750  38.453  12.731
52474W        W17635  18.596  34.635   0.878
52475W        W17636  35.846   7.146  13.368
52476W        W17637  19.029  15.658   0.433
52477W        W17638  37.005  34.660  12.600
52478W        W17639  18.696  32.868   0.441
52479W        W17640  22.219  29.116   1.003
52480W        W17641  16.009  44.883  13.150
52481W        W17642  16.812  15.220   1.273
52482W        W17643   4.794   7.730   2.429
52483W        W17644   1.792  34.943  10.482
52484W        W17645  31.553   9.605   3.658
52485W        W17646  27.564  27.515   2.129
52486W        W17647   1.114  32.988   4.861
52487W        W17648  40.999  20.475   0.517
52488W        W17649  29.670  19.356   4.529
52489W        W17650  33.888   2.894  12.780
52490W        W17651  31.291   2.290  12.042
52491W        W17652   5.361  27.945  13.759
52492W        W17653  23.619  40.646   1.791
52493W        W17654  26.524   8.621   2.826
52494W        W17655  17.633  12.598  11.082
52495W        W17656  32.100   0.321   0.805
52496W        W17657  11.912   7.701   2.309
52497W        W17658  33.697  29.585  12.089
52498W        W17659  42.284   4.632   3.826
52499W        W17660  34.520   6.153   1.681
52500W        W17661  35.956  37.339  13.504
52501W        W17662  34.421  39.819  13.894
52502W        W17663  36.886  43.730  12.074
52503W        W17664   2.693  22.671   0.870
52504W        W17665  43.282  32.505   0.687
52505W        W17666  22.352  24.628   1.231
52506W        W17667  20.667   8.656   0.686
52507W        W17668  22.088  40.445  14.003
52508W        W17669  30.090  20.837   3.793
52509W        W17670  27.344  13.732  11.097
52510W        W17671  23.256  25.440  14.505
52511W        W17672  12.819  13.844  12.379
52512W        W17673  25.720  36.471  14.245
52513W        W17674  16.116  31.582  12.917
52514W        W17675   9.139  15.678   0.375
52515W        W17676  11.273  43.449  11.180
52516W        W17677  11.909   0.433   1.768
52517W        W17678  33.661  34.852   1.412
52518W        W17679  24.994  17.152  10.736
52519W        W17680  14.464  15.841   0.930
52520W        W17681   5.833  41.616   1.351
52521W        W17682   1.409  25.141  10.193
52522W        W17683  24.224   8.389  12.929
52523W        W17684  39.762   5.268   1.672
52524W        W17685   5.762  14.579  13.538
52525W        W17686  24.678   4.091   3.849
52526W        W17687  19.164  18.814  10.911
52527W        W17688  21.774  32.477   4.523
52528W        W17689  24.164  39.577  13.566
52529W        W17690  10.173   4.099  10.482
52530W        W17691  20.590  13.582  11.925
52531W        W17692  36.303  31.569  12.353
52532W        W17693   1.460  44.073  14.105
52533W        W17694   1.190   4.240  11.189
52534W        W17695  39.995  17.502  11.428
52535W        W17696  21.877   8.940   4.126
52536W        W17697  24.053  38.554   0.475
52537W        W17698  41.053   1.258  11.899
52538W        W17699  20.793   6.157   4.398
52539W        W17700  43.866  20.542   3.086
52540W        W17701   7.656  26.451   1.250
52541W        W17702  15.751  28.383  11.962
52542W        W17703  14.478  11.045  14.451
52543W        W17704  23.052   1.995   0.675
52544W        W17705  13.210  26.462   4.435
52545W        W17706  32.858  12.190  11.586
52546W        W17707  41.174  17.787  12.414
52547W        W17708  13.399  15.023   3.827
52548W        W17709  29.994  38.476   2.954
52549W        W17710   2.062  35.782  12.267
52550W        W17711  22.312  17.393   5.166
52551W        W17712   3.370  18.557   3.181
52552W        W17713  27.073  44.777  13.936
52553W        W17714  42.005  28.982  14.013
52554W        W17715  40.068   6.830  12.808
52555W        W17716  35.031  22.674  10.453
52556W        W17717  31.005  10.023   4.795
52557W        W17718  32.006  35.086   4.662
52558W        W17719  41.436  18.022   2.466
52559W        W17720  44.947   1.014   1.837
52560W        W17721  13.555  36.034  13.210
52561W        W17722  20.763   2.782   2.236
52562W        W17723  17.486  15.800  14.414
52563W        W17724   0.066  17.079   3.276
52564W        W17725  35.451   4.769   2.307
52565W        W17726   8.137  14.751   0.243
52566W        W17727   8.699  34.894   2.695
52567W        W17728  33.924  39.063   1.418
52568W        W17729  28.981  43.093   3.851
52569W        W17730  25.080   4.049   2.196
52570W        W17731  10.865  40.392   2.768
52571W        W17732  36.565   5.977   0.892
52572W        W17733  25.468  32.596   0.190
52573W        W17734  30.664  34.055  10.732
52574W        W17735  38.942  20.295  14.358
52575W        W17736  18.726  29.501   4.154
52576W        W17737  23.640  29.050   1.932
52577W        W17738  14.485  41.272   4.189
52578W        W17739  28.265  12.665   2.198
52579W        W17740   6.643   0.329   0.754
52580W        W17741  41.958   8.692   3.691
52581W        W17742  34.970  34.911   1.780
52582W        W17743  27.626  42.702   2.132
52583W        W17744  32.491  25.252   3.162
52584W        W17745  12.141  18.684   4.993
52585W        W17746  19.997   4.214  11.259
52586W        W17747   2.954  21.286  12.463
52587W        W17748   3.622   5.569  13.466
52588W        W17749  12.334  41.287   4.743
52589W        W17750  42.794  40.048   4.153
52590W        W17751  39.761  17.249   3.875
52591W        W17752  21.496  11.470  13.896
52592W        W17753  14.559  20.645   2.781
52593W        W17754  23.278  30.107   4.977
52594W        W17755  37.985   5.366   4.740
52595W        W17756  35.908  33.652  11.672
52596W        W17757  29.721   9.961   0.045
52597W        W17758   3.389   2.276  11.896
52598W        W17759  35.987   0.404  13.654
52599W        W17760  27.890  20.625  11.939
52600W        W17761   3.796   0.854   2.794
52601W        W17762  33.855  34.593   4.017
52602W        W17763  29.649  32.305   4.188
52603W        W17764  23.863  44.779  12.517
52604W        W17765  26.020  38.587   0.773
52605W        W17766  27.598   9.884   0.956
52606W        W17767  10.301  32.502   4.128
52607W        W17768  26.983   3.146   2.261
52608W        W17769  19.202   6.426   3.622
52609W        W17770   9.340  15.338  14.482
52610W        W17771   2.722   4.689   4.216
52611W        W17772  24.386  38.929   3.514
52612W        W17773  34.276  17.055  13.743
52613W        W17774  29.983  30.930  13.172
52614W        W17775   0.208  38.981  12.184
52615W        W17776  39.340  39.057  14.851
52616W        W17777   3.954  19.766   2.439
52617W        W17778  23.011  19.000  11.200
52618W        W17779  43.906  15.179   4.105
52619W        W17780   6.672  29.592  11.125
52620W        W17781   9.511  15.389  11.919
52621W        W17782  12.227   8.106   0.883
52622W        W17783  24.186  32.093  10.450
52623W        W17784  30.373  38.566  12.056
52624W        W17785  43.693   7.714  13.891
52625W        W17786  11.974  26.491  12.061
52626W        W17787  31.525  40.288   1.167
52627W        W17788  28.181  15.576  12.843
52628W        W17789  41.226  17.121   0.447
52629W        W17790   7.811  31.408   2.001
52630W        W17791   3.972  38.029  11.922
52631W        W17792  30.405  28.177  13.973
52632W        W17793  17.579  36.553  10.687
52633W        W17794   4.286  10.841  10.649
52634W        W17795  17.400  35.103  13.792
52635W        W17796  16.327   7.822   3.211
52636W        W17797  20.604  22.759   1.542
52637W        W17798  39.617   8.286   1.954
52638W        W17799  12.505   8.825   3.869
52639W        W17800  24.383  15.740  10.596
52640W        W17801  23.566  31.200   2.737
52641W        W17802   1.917  32.431  14.459
52642W        W17803   8.647  10.223   2.415
52643W        W17804  21.101  38.500  12.822
52644W        W17805  10.066  38.385  12.413
52645W        W17806   0.312  26.988  12.513
52646W        W17807  29.338  39.561   2.684
52647W        W17808  36.134  20.710  12.578
52648W        W17809  35.334  25.084   1.334
52649W        W17810  27.897  36.245   0.174
52650W        W17811  13.213  19.655   4.459
52651W        W17812  40.985  26.865   3.872
52652W        W17813  29.100  31.940   1.346
52653W        W17814  28.903  41.097  13.075
52654W        W17815  20.291  44.516   2.077
52655W        W17816  23.900   0.222   4.533
52656W        W17817  18.494   8.307  12.078
52657W        W17818  18.710  29.432   3.655
52658W        W17819  13.551   1.995  13.544
52659W        W17820  28.594  41.581  10.670
52660W        W17821  11.847  33.109  11.544
52661W        W17822  29.836  11.390  13.625
52662W        W17823  31.164  31.361  12.797
52663W        W17824  34.472  21.975   2.010
52664W        W17825  34.295  21.367  10.151
52665W        W17826  35.488  10.800  14.239
52666W        W17827   4.288  30.011  13.491
52667W        W17828  27.781  35.854  14.796
52668W        W17829  38.384  16.999   3.812
52669W        W17830  31.464  25.395   3.626
52670W        W17831   8.233   7.378  13.073
52671W        W17832  34.877  36.875   2.862
52672W        W17833  11.682  40.353   3.421
52673W        W17834   2.699   7.200   3.674
52674W        W17835  38.276  33.610   3.439
52675W        W17836  25.432   9.376  12.951
52676W        W17837  38.213   9.651  10.892
52677W        W17838  13.798   0.853   0.260
52678W        W17839  28.153   8.947  13.450
52679W        W17840  38.522   4.431  13.935
52680W        W17841  31.666  43.762   0.856
52681W        W17842  17.539  13.836   1.175
52682W        W17843  15.806   7.260   0.717
52683W        W17844   6.033  10.615   0.845
52684W        W17845   4.326   4.701   1.284
52685W        W17846   4.385  21.689   2.478
52686W        W17847   9.837  18.101  14.320
52687W        W17848  35.383  16.773  14.829
52688W        W17849  30.851   4.491  13.888
52689W        W17850  17.365  44.459   1.289
52690W        W17851  11.870  36.514  14.606
52691W        W17852  44.497  10.306  13.011
52692W        W17853  28.978   5.315  10.592
52693W        W17854   0.779  28.279  11.187
52694W        W17855  33.882  29.361   2.880
52695W        W17856   1.391  10.341   4.873
52696W        W17857  15.177  17.010  12.450
52697W        W17858  28.208  42.859   0.030
52698W        W17859  32.385  30.653  10.721
52699W        W17860  35.684  34.415  10.540
52700W        W17861  42.736   7.847   2.380
52701W        W17862  43.011   5.005  12.353
52702W        W17863  20.237  28.979   9.980
52703W        W17864   8.274  32.064  14.818
52704W        W17865  14.711  32.586   2.124
52705W        W17866  14.158  37.943  10.997
52706W        W17867  30.388  19.445   1.364
52707W        W17868  44.422  22.420  14.437
52708W        W17869  16.564  16.805   4.479
52709W        W17870  14.879   4.029  12.023
52710W        W17871   5.042  28.796  14.847
52711W        W17872  23.509  24.773  10.265
52712W        W17873   1.193  28.655  13.534
52713W        W17874  39.811  29.542   2.857
52714W        W17875  34.928  12.735  13.066
52715W        W17876  28.539   5.001   4.578
52716W        W17877  35.454  22.258   4.239
52717W        W17878  15.269  25.908   2.759
52718W        W17879  23.003  24.508   2.809
52719W        W17880  24.993  14.638  14.926
52720W        W17881  24.159  44.703   2.844
52721W        W17882  24.642  24.342   1.298
52722W        W17883  27.400  42.915  14.088
52723W        W17884  11.939  39.371   4.340
52724W        W17885  29.730  25.945   2.820
52725W        W17886  40.081   1.931   4.424
52726W        W17887   7.664  14.273  14.027
52727W        W17888   6.429  29.899   3.297
52728W        W17889   0.012  44.010   0.003
52729W        W17890  19.217  41.540   1.781
52730W        W17891  39.589   7.321   1.267
52731W        W17892  38.184  37.414  11.988
52732W        W17893   3.952  12.136   3.866
52733W        W17894  33.001  14.742  11.123
52734W        W17895  23.414  11.563   5.423
52735W        W17896  26.681  29.452   5.260
52736W        W17897  44.754   8.400  13.959
52737W        W17898  35.829   8.774   0.812
52738W        W17899  27.125  28.235   4.066
52739W        W17900   7.134  39.333   2.410
52740W        W17901  33.141  27.132   0.916
52741W        W17902  24.495  31.020   2.183
52742W        W17903  22.258  28.076   0.792
52743W        W17904  20.628  37.547  10.850
52744W        W17905  36.431  25.168   3.768
52745W        W17906  17.260  39.338  11.305
52746W        W17907  30.087  41.010   0.798
52747W        W17908  28.925  13.974  14.945
52748W        W17909  36.915  27.140   3.553
52749W        W17910  15.605   1.271  14.832
52750W        W17911  30.969  24.998  11.214
52751W        W17912  11.275  37.824  11.474
52752W        W17913  24.459   5.384  11.122
52753W        W17914  11.830  42.436  13.806
52754W        W17915  10.138  15.674   2.860
52755W        W17916  33.375  14.616  10.567
52756W        W17917  18.088  20.006  14.340
52757W        W17918  32.157  20.148  11.086
52758W        W17919   7.945   8.645   2.291
52759W        W17920  31.906  17.152   1.386
52760W        W17921  13.650   4.023  14.029
52761W        W17922  22.656  21.947   1.015
52762W        W17923  19.172  27.025   4.475
52763W        W17924  43.589  26.465   2.255
52764W        W17925  14.046  37.335   1.799
52765W        W17926  39.272  15.367  14.546
52766W        W17927   9.266  15.200   0.973
52767W        W17928  18.792  24.786  12.919
52768W        W17929   7.475  35.609   2.510
52769W        W17930  27.383  34.784   4.270
52770W        W17931  11.311  19.068  10.600
52771W        W17932   5.731   5.322   4.110
52772W        W17933  37.893  19.145  10.759
52773W        W17934  33.090  43.378   1.421
52774W        W17935  42.510  35.514   3.305
52775W        W17936  28.518  30.445   4.880
52776W        W17937  16.542   9.293  10.952
52777W        W17938   4.040  34.152   4.419
52778W        W17939  41.278  13.052   4.250
52779W        W17940  27.570   2.166   1.251
52780W        W17941   7.774  25.187  13.347
52781W        W17942  41.810  14.567   2.282
52782W        W17943  26.457  27.093  11.502
52783W        W17944   9.281  39.005  14.271
52784W        W17945  28.940  32.299  14.294
52785W        W17946  31.531  14.885  12.093
52786W        W17947  18.236  41.079  14.238
52787W        W17948  37.401   7.908  13.395
52788W        W17949  18.645  41.583   0.301
52789W        W17950  42.987   7.808  14.070
52790W        W17951  39.764  28.663   4.336
52791W        W17952   0.884  26.264   3.800
52792W        W17953   6.635   6.230   3.801
52793W        W17954  17.269  31.076  13.992
52794W        W17955   3.730   5.745   3.268
52795W        W17956  10.306  32.001  10.617
52796W        W17957   1.183  33.450   0.855
52797W        W17958  19.904  34.856   3.629
52798W        W17959  39.485   0.713   0.477
52799W        W17960  34.406  22.213  11.509
52800W        W17961  14.300   5.371  11.992
52801W        W17962  33.570   0.450   0.849
52802W        W17963  14.564  19.233   2.853
52803W        W17964   8.768   4.135  14.710
52804W        W17965  27.861  30.095   2.885
52805W        W17966  37.895  19.215  14.828
52806W        W17967  22.413  11.088  13.863
52807W        W17968  21.482   7.308   1.691
52808W        W17969  37.473   4.901   4.116
52809W        W17970  31.093   3.564   2.450
52810W        W17971  13.775  43.401  10.524
52811W        W17972  10.666  40.748  12.506
52812W        W17973  15.191  37.776   0.761
52813W        W17974  25.928  25.208  14.453
52814W        W17975  38.767  42.533   3.674
52815W        W17976  34.528   6.161  10.474
52816W        W17977  38.579  16.261  11.264
52817W        W17978  42.896  16.466   4.065
52818W        W17979  35.089  13.138   3.705
52819W        W17980  10.065   7.161   3.467
52820W        W17981  40.815  24.196   3.775
52821W        W17982  36.795  25.421  12.184
52822W        W17983  32.450  22.544  10.281
52823W        W17984  42.953  35.832   1.456
52824W        W17985  43.700  38.541   1.440
52825W        W17986  24.913   3.566  12.384
52826W        W17987  41.451  11.588   4.273
52827W        W17988  21.644  26.014  12.711
52828W        W17989  35.460   7.896   0.319
52829W        W17990  24.068  23.994   3.106
52830W        W17991  25.446   0.676  14.895
52831W        W17992  10.624  18.114   3.652
52832W        W17993  42.028  30.559  12.012
52833W        W17994  30.532  26.238   5.068
52834W        W17995  11.200  33.929  13.910
52835W        W17996  10.268  27.540   4.615
52836W        W17997   1.431  32.335  13.401
52837W        W17998   2.278  40.328  14.314
52838W        W17999   8.293  36.466  14.783
52839W        W18000  17.985   0.002  11.938
52840W        W18001  13.627  37.496   4.411
52841W        W18002  44.324  38.848   3.095
52842W        W18003  14.554   8.177  13.097
52843W        W18004  19.650  39.417  12.934
52844W        W18005  34.675  44.003   0.934
52845W        W18006   3.425  36.334  11.623
52846W        W18007  28.141  44.990  11.942
52847W        W18008   3.730   0.154  14.976
52848W        W18009   4.336   3.713  13.500
52849W        W18010  31.285  33.262  10.352
52850W        W18011  11.195   3.006   0.699
52851W        W18012  21.509  33.019  14.083
52852W        W18013  23.172  10.463  10.319
52853W        W18014  32.807  23.022   3.294
52854W        W18015   0.100  16.116   0.462
52855W        W18016  23.059  12.559  14.433
52856W        W18017  11.790  37.254   1.825
52857W        W18018  43.381  35.458  11.248
52858W        W18019   3.017  37.248   4.577
52859W        W18020  35.079  20.313  11.983
52860W        W18021  17.687  32.561  11.754
52861W        W18022  19.251   1.083  14.033
52862W        W18023  42.256  12.661   3.796
52863W        W18024   5.230  13.382  14.864
52864W        W18025  31.379  33.959   3.325
52865W        W18026  44.654   1.357   2.865
52866W        W18027  23.479  34.133  14.705
52867W        W18028  43.400  14.365  13.639
52868W        W18029  16.210  34.803   2.314
52869W        W18030   9.703   8.104  11.960
52870W        W18031  43.816  42.702  12.152
52871W        W18032   0.818  22.554   4.346
52872W        W18033  40.596  10.825  12.318
52873W        W18034  15.374  18.325  14.325
52874W        W18035  17.059  39.013   9.987
52875W        W18036  17.607   4.877   2.094
52876W        W18037  31.034  23.634  11.311
52877W        W18038  26.883  34.510   0.699
52878W        W18039  28.661   7.293   2.797
52879W        W18040   2.973  34.793   2.597
52880W        W18041  23.378  39.427  14.275
52881W        W18042  33.549  41.485   3.265
52882W        W18043   5.985  35.888   3.329
52883W        W18044   0.824  37.839   3.613
52884W        W18045  12.693  22.280  11.473
52885W        W18046  36.638  40.467  11.945
52886W        W18047  13.365  18.303  13.294
52887W        W18048  36.905  28.366  11.199
52888W        W18049   4.287  10.213   3.880
52889W        W18050   6.981  22.648   1.238
52890W        W18051  36.054  35.805   0.923
52891W        W18052   7.851  31.321  14.777
52892W        W18053  20.024  43.804   3.156
52893W        W18054   9.164  42.515   1.291
52894W        W18055  30.653  10.375  11.128
52895W        W18056   0.523  22.624   2.237
52896W        W18057  10.367  15.500  11.528
52897W        W18058   2.242  12.029   2.385
52898W        W18059  10.791  40.294  10.654
52899W        W18060  22.318  14.074  10.501
52900W        W18061   4.661  24.143  10.912
52901W        W18062   7.187  44.866   3.317
52902W        W18063  20.627  26.687   0.556
52903W        W18064   3.431  30.134   0.906
52904W        W18065  38.849  13.675  13.992
52905W        W18066  12.088  32.495  14.917
52906W        W18067  44.427  10.695  13.345
52907W        W18068  18.307  26.949   1.478
52908W        W18069  19.199   0.242  11.390
52909W        W18070   9.773   5.203  11.464
52910W        W18071  27.005   7.440   3.062
52911W        W18072  11.887  27.036  14.818
52912W        W18073   8.123  32.624   4.233
52913W        W18074  18.164   4.475  12.325
52914W        W18075   0.251  22.684   1.223
52915W        W18076  11.697   5.249  11.477
52916W        W18077  28.730  42.856  14.396
52917W        W18078   8.707  26.474  11.567
52918W        W18079  37.002  23.668   4.620
52919W        W18080  27.861   8.267   5.067
52920W        W18081   1.148  40.802  14.911
52921W        W18082  26.945  37.754  11.529
52922W        W18083  34.765  35.188   2.467
52923W        W18084  22.064  36.934  12.502
52924W        W18085  10.980  17.109  11.717
52925W        W18086   0.855  21.710  11.630
52926W        W18087  33.407  31.025  12.581
52927W        W18088  15.985  20.488  11.560
52928W        W18089  40.451  32.086  14.876
52929W        W18090  40.876  23.073   2.870
52930W        W18091   6.742  42.308  14.372
52931W        W18092  22.724  24.003   4.462
52932W        W18093  23.777   9.865   3.682
52933W        W18094  25.112  26.274  11.646
52934W        W18095  28.188  41.283  11.696
52935W        W18096  33.589  13.375   1.427
52936W        W18097  42.748  40.440   3.320
52937W        W18098  30.876   5.373  10.959
52938W        W18099  34.167  44.763   2.734
52939W        W18100   9.835  20.681   2.177
52940W        W18101   6.639  28.990  14.701
52941W        W18102   2.554   7.396   0.462
52942W        W18103  13.630   1.006   0.724
52943W        W18104  41.395  19.660   3.609
52944W        W18105  11.374   1.889  11.112
52945W        W18106  33.643   0.256  14.260
52946W        W18107   0.337  22.452   2.686
52947W        W18108  33.624   1.731   0.421
52948W        W18109  41.877  12.182   4.410
52949W        W18110  14.838  44.418   2.081
52950W        W18111  39.773   7.410  14.909
52951W        W18112  20.810  10.390   3.223
52952W        W18113  14.570   9.374   3.831
52953W        W18114   9.264  38.612  12.491
52954W        W18115  41.174   3.930   1.814
52955W        W18116  33.556   8.458   2.255
52956W        W18117  11.661   8.072   0.475
52957W        W18118  22.191  15.548   0.229
52958W        W18119  12.115  44.030  12.395
52959W        W18120   3.408   3.640   1.988
52960W        W18121  21.761  30.078  12.561
52961W        W18122  38.326  18.293  11.390
52962W        W18123   1.741  11.747   3.217
52963W        W18124   3.941   7.485   1.741
52964W        W18125  30.798   9.086  11.571
52965W        W18126   8.601  43.794  12.583
52966W        W18127  32.005  38.953   2.558
52967W        W18128   0.057  22.801   2.334
52968W        W18129  11.717  30.080  11.529
52969W        W18130  23.893  14.079   1.237
52970W        W18131  31.371  10.845  12.593
52971W        W18132   8.187  43.990  14.416
52972W        W18133  14.092  34.365   3.838
52973W        W18134   6.164  10.888  14.805
52974W        W18135   4.296  25.726  14.717
52975W        W18136  12.339  44.466  11.502
52976W        W18137  18.845   0.365   4.836
52977W        W18138  37.849  29.103  14.780
52978W        W18139  43.996  30.405  11.080
52979W        W18140  24.146  15.205   0.470
52980W        W18141  12.805  37.273  10.664
52981W        W18142  44.479  39.307  13.881
52982W        W18143  20.700  38.398   1.011
52983W        W18144  34.478   1.896   4.706
52984W        W18145   8.833  29.530  13.581
52985W        W18146  12.788  18.097   1.408
52986W        W18147   1.726  29.075   1.286
52987W        W18148  23.780  15.334  11.814
52988W        W18149  32.630  12.555  11.219
52989W        W18150  13.274   2.237   0.872
52990W        W18151   5.220  22.558  14.813
52991W        W18152   3.463  34.411  14.275
52992W        W18153  15.856   3.611  13.418
52993W        W18154   3.769  20.078   1.282
52994W        W18155  23.903  30.666   9.769
52995W        W18156  27.914  25.175  14.418
52996W        W18157  26.655  44.975   0.828
52997W        W18158  19.112  28.953  13.818
52998W        W18159  22.538  33.573  11.664
52999W        W18160  20.057  40.599  10.715
53000W        W18161  15.639   1.803  11.249
53001W        W18162  42.417   6.911   2.023
53002W        W18163  12.582   5.264  14.513
53003W        W18164  42.311  15.694   3.672
53004W        W18165  23.568  40.803   2.291
53005W        W18166  33.101  30.543  11.388
53006W        W18167   9.905  33.908  14.472
53007W        W18168  30.072  34.942  10.545
53008W        W18169  36.378  20.515  14.842
53009W        W18170   5.309  42.897  13.940
53010W        W18171  39.663  20.751  14.937
53011W        W18172  25.021  42.907   1.923
53012W        W18173   0.655  27.941   2.749
53013W        W18174   0.059  33.590   4.856
53014W        W18175  27.464   1.734   1.472
53015W        W18176   5.265  15.186   1.754
53016W        W18177   4.209   1.361   1.454
53017W        W18178  22.240   1.438  14.485
53018W        W18179   7.833  39.461  14.105
53019W        W18180   8.550  31.790   1.601
53020W        W18181   3.861   3.265  13.114
53021W        W18182  26.188   2.155  10.956
53022W        W18183  41.527  34.803  10.731
53023W        W18184  43.514  12.738   0.420
53024W        W18185   3.277  11.679   2.159
53025W        W18186  38.292  20.812   0.979
53026W        W18187  34.242  10.554  14.911
53027W        W18188  37.497  12.889   2.321
53028W        W18189   0.873  28.906   2.551
53029W        W18190  28.880  35.451   2.250
53030W        W18191  39.087  10.262  14.793
53031W        W18192   6.285  27.118  13.489
53032W        W18193  41.468   7.714  12.774
53033W        W18194  30.588  19.082   0.538
53034W        W18195  37.067  25.525   0.834
53035W        W18196  17.144  14.288  11.133
53036W        W18197  44.919  24.556  13.001
53037W        W18198  38.053  33.026  11.991
53038W        W18199   5.215  33.841   1.195
53039W        W18200  38.402  15.358  14.000
53040W        W18201   1.723  30.698   2.299
53041W        W18202  37.373  33.852   1.349
53042W        W18203  19.134   3.194  13.992
53043W        W18204  41.464  22.004   4.701
53044W        W18205  29.508  31.669   1.128
53045W        W18206  33.526   8.625   5.093
53046W        W18207  26.668  29.699  12.917
53047W        W18208  23.572  27.462   0.283
53048W        W18209  37.756  16.075   0.823
53049W        W18210  16.579   9.772   2.297
53050W        W18211  16.205  16.979   1.741
53051W        W18212   0.487  27.199   0.556
53052W        W18213  29.609   6.749  12.147
53053W        W18214  23.545  19.528   3.094
53054W        W18215  36.117  22.078   2.900
53055W        W18216  23.735   3.968  12.488
53056W        W18217  13.527  31.070  13.825
53057W        W18218  23.754  21.215   2.641
53058W        W18219  37.513  22.988  11.621
53059W        W18220  40.359   8.841   2.227
53060W        W18221  34.628  23.029  10.412
53061W        W18222  25.017  44.504   2.311
53062W        W18223  37.171  38.872   3.204
53063W        W18224  41.083   6.867   3.830
53064W        W18225  34.683  35.926   4.022
53065W        W18226  27.136  38.029  12.952
53066W        W18227  40.452   3.445   0.512
53067W        W18228  10.356  12.788   2.723
53068W        W18229  32.470  18.939   3.753
53069W        W18230   5.431   3.367  12.964
53070W        W18231   6.247  33.031   4.539
53071W        W18232  32.920  42.389   3.224
53072W        W18233  20.181  21.679  10.282
53073W        W18234  34.122  39.693  10.626
53074W        W18235  29.887   5.461  14.809
53075W        W18236   2.945  16.939  11.442
53076W        W18237  14.553  34.131  14.445
53077W        W18238  15.542  22.336  10.213
53078W        W18239  27.407  13.690   1.989
53079W        W18240  10.283  34.115   4.690
53080W        W18241   1.963  15.172   2.405
53081W        W18242  17.299  37.379  11.620
53082W        W18243  20.006  28.143   2.366
53083W        W18244  31.091  21.380   0.643
53084W        W18245  35.835  11.918  13.453
53085W        W18246  42.047   9.138   4.346
53086W        W18247   7.659  39.879  10.812
53087W        W18248   0.717  16.416   9.753
53088W        W18249   0.424   1.894  13.578
53089W        W18250  41.410  19.581  11.211
53090W        W18251  27.167  35.591  12.888
53091W        W18252  36.520  15.608  14.983
53092W        W18253  28.150  25.962   4.317
53093W        W18254  40.894  42.277  14.354
53094W        W18255  29.051  17.822   3.684
53095W        W18256  26.067  40.503   3.204
53096W        W18257  16.945  28.394  11.888
53097W        W18258  23.907  41.529  12.567
53098W        W18259  36.809  10.062   3.248
53099W        W18260  29.424  29.539  11.919
53100W        W18261  29.560  29.174  10.551
53101W        W18262  44.198  11.178   2.701
53102W        W18263   3.195  42.334  11.883
53103W        W18264   1.472   9.049  13.978
53104W        W18265  17.120  12.204   1.404
53105W        W18266  19.430  14.812  11.104
53106W        W18267  14.494   8.916   4.617
53107W        W18268  20.237  20.085  13.123
53108W        W18269  33.063  34.974   3.446
53109W        W18270  42.037   9.947   2.901
53110W        W18271  12.176  30.286   0.792
53111W        W18272  16.521   1.322   1.941
53112W        W18273  28.188   5.400  11.001
53113W        W18274  26.452  12.489  12.498
53114W        W18275  27.469  17.765  12.679
53115W        W18276  27.770  40.332  14.532
53116W        W18277   6.209  15.632  11.007
53117W        W18278   6.801   3.871  14.003
53118W        W18279  24.671   5.854   3.954
53119W        W18280  15.781  34.312  12.414
53120W        W18281   5.184  40.945   3.716
53121W        W18282  29.396   1.165  12.018
53122W        W18283  34.934  29.445  11.537
53123W        W18284  19.039   4.347  12.586
53124W        W18285  44.737  26.033  11.467
53125W        W18286   9.362  42.998   2.652
53126W        W18287  39.515  21.079   1.113
53127W        W18288  44.130  11.248   4.552
53128W        W18289  22.233  27.938   2.245
53129W        W18290  31.961  13.655   1.439
53130W        W18291  41.671  43.002  11.167
53131W        W18292  38.752   8.806   3.704
53132W        W18293  23.883   9.160   3.137
53133W        W18294  31.781  36.848   3.321
53134W        W18295   3.784  21.806   1.855
53135W        W18296  28.662   7.880  13.400
53136W        W18297  37.001  20.470   1.458
53137W        W18298  37.604  17.687   2.613
53138W        W18299  30.424  14.274  13.293
53139W        W18300  40.352  30.322  12.921
53140W        W18301  13.189  25.992   3.721
53141W        W18302   4.801  35.652   2.719
53142W        W18303  26.190  36.446  13.995
53143W        W18304  13.618  31.567   1.809
53144W        W18305  29.438  27.210   3.628
53145W        W18306  38.319   0.960  12.954
53146W        W18307  36.862  13.874  10.703
53147W        W18308  42.508  37.081  13.676
53148W        W18309  36.401  40.082  14.012
53149W        W18310  41.362  32.918  14.505
53150W        W18311  29.005  21.657   0.768
53151W        W18312  10.591  41.942   5.008
53152W        W18313  31.620  16.222   0.776
53153W        W18314  26.310  41.344  12.186
53154W        W18315  23.190  29.351   1.939
53155W        W18316  11.533  42.981  11.119
53156W        W18317  31.932  26.201   1.719
53157W        W18318  26.995  24.988  10.607
53158W        W18319  44.452  37.605   2.678
53159W        W18320  42.568  31.632   0.301
53160W        W18321  44.972   2.375   3.736
53161W        W18322   3.023  20.421   2.990
53162W        W18323  34.674  28.910   0.353
53163W        W18324   2.860  21.578   2.698
53164W        W18325  10.730   7.316  11.292
53165W        W18326   1.485  28.913  11.831
53166W        W18327  31.128  24.602   2.576
53167W        W18328  20.317  29.424   0.472
53168W        W18329  40.789  31.584  12.418
53169W        W18330   3.434   6.740  10.752
53170W        W18331  20.220  14.093  13.993
53171W        W18332   4.138  36.519   1.927
53172W        W18333  37.994  35.503  11.115
53173W        W18334  14.360  31.902  13.112
53174W        W18335  37.092  43.960  14.151
53175W        W18336  30.037  11.240  13.149
53176W        W18337   7.953  28.033  11.202
53177W        W18338  40.432  25.050  13.528
53178W        W18339  39.993  39.005   3.842
53179W        W18340   9.207  30.447  12.479
53180W        W18341  30.408  26.975   1.144
53181W        W18342  35.000  42.800   1.804
53182W        W18343   5.139  30.675  10.190
53183W        W18344  11.884   5.465  11.045
53184W        W18345  40.631  30.703   0.381
53185W        W18346   8.786  20.148  11.916
53186W        W18347  14.013  38.398   3.174
53187W        W18348  43.383  19.311  11.447
53188W        W18349   2.292  15.110  13.373
53189W        W18350  34.170  33.483   2.287
53190W        W18351  37.524  27.411  11.435
53191W        W18352  38.702  24.711  11.229
53192W        W18353  25.541  27.200  13.465
53193W        W18354  29.052  16.516  12.923
53194W        W18355  43.194   1.347  13.744
53195W        W18356  14.796  31.991  14.429
53196W        W18357  16.836  40.039  11.657
53197W        W18358   6.964  32.119   4.217
53198W        W18359  44.950   0.742   1.398
53199W        W18360   8.376  44.908  13.949
53200W        W18361   0.934  44.658   2.670
53201W        W18362  37.303  20.980   0.766
53202W        W18363  25.535  34.120  10.922
53203W        W18364  20.338  17.523   2.692
53204W        W18365   4.468   5.907   0.420
53205W        W18366   6.447  10.370   3.587
53206W        W18367  36.259   5.724  11.031
53207W        W18368  29.546  10.720   2.809
53208W        W18369  16.810  32.670   2.633
53209W        W18370  38.465  28.405  13.531
53210W        W18371  16.127  34.351  10.751
53211W        W18372   2.205  19.982   2.959
53212W        W18373  21.493   8.322  12.950
53213W        W18374  31.596  12.915   2.742
53214W        W18375  23.051   2.767  13.535
53215W        W18376  40.846  19.620   0.826
53216W        W18377  26.408   3.256  12.582
53217W        W18378  16.119  21.210  14.366
53218W        W18379  19.752  36.729   3.138
53219W        W18380  35.569  35.748   2.900
53220W        W18381  17.927   7.946   3.981
53221W        W18382  40.819  21.010  12.013
53222W        W18383  12.661  38.364   1.041
53223W        W18384   8.787  14.362  12.091
53224W        W18385  40.436   9.044   0.831
53225W        W18386  36.784  38.933  12.452
53226W        W18387  13.076  35.029   2.365
53227W        W18388  41.864  13.076   1.213
53228W        W18389  33.830  17.872  14.050
53229W        W18390  31.986  36.912  14.867
53230W        W18391  16.069  13.838   4.551
53231W        W18392   4.796  13.037   4.970
53232W        W18393  33.381  42.930  12.498
53233W        W18394  43.007  44.662  11.939
53234W        W18395  24.762  41.306  14.704
53235W        W18396   6.257   2.817   4.916
53236W        W18397  12.578  16.075  10.808
53237W        W18398  10.690  18.988  13.345
53238W        W18399  31.131  19.006  11.119
53239W        W18400   2.455  40.387   3.401
53240W        W18401  41.352  22.391  14.926
53241W        W18402  12.601  37.250  13.012
53242W        W18403  15.983  31.594   2.352
53243W        W18404  42.418   7.185  11.951
53244W        W18405  38.677  14.098   0.216
53245W        W18406  16.797  32.905  12.087
53246W        W18407  43.963   8.462   1.867
53247W        W18408  26.697  21.827   1.875
53248W        W18409  30.556  12.579  12.069
53249W        W18410  20.541   9.692  10.680
53250W        W18411  38.966  15.160   1.748
53251W        W18412  12.114  13.298  13.988
53252W        W18413  19.630   1.513  11.719
53253W        W18414  13.921  35.070  10.835
53254W        W18415  30.549  16.018  14.912
53255W        W18416  29.570  13.258   2.447
53256W        W18417  23.066  34.998  13.551
53257W        W18418   7.719  18.073   0.019
53258W        W18419  25.852   7.144   3.709
53259W        W18420  32.593  16.233  13.815
53260W        W18421  12.124  36.855  11.691
53261W        W18422   2.028  15.611   1.817
53262W        W18423  15.207  29.989   1.461
53263W        W18424  31.114  17.103  11.038
53264W        W18425   9.756   6.406  13.099
53265W        W18426  29.978  41.015   4.934
53266W        W18427   0.230  28.696  14.069
53267W        W18428  15.255  23.411   2.701
53268W        W18429  43.276  44.323   3.844
53269W        W18430  30.057  23.096  13.607
53270W        W18431  43.548  42.488   1.733
53271W        W18432  13.618  27.615   1.763
53272W        W18433  15.632  24.148   4.071
53273W        W18434   9.621  32.772   2.912
53274W        W18435  17.260  44.926  12.443
53275W        W18436  28.117  23.731  14.800
53276W        W18437   3.442  29.127   0.728
53277W        W18438   8.117  10.207   2.562
53278W        W18439  23.587  17.426  11.239
53279W        W18440   3.932  30.064  12.664
53280W        W18441   3.645  28.119   4.123
53281W        W18442   5.796   5.693   1.971
53282W        W18443  38.028  43.891  14.567
53283W        W18444   4.283  19.640  14.325
53284W        W18445  41.386  42.833   0.447
53285W        W18446  38.909   2.955  10.624
53286W        W18447  35.484  14.557   0.727
53287W        W18448  40.938  14.620  10.783
53288W        W18449  18.681  28.674  10.677
53289W        W18450   5.159  43.976   4.801
53290W        W18451   4.221  23.212   3.245
53291W        W18452  19.301  26.092  10.646
53292W        W18453   7.928  24.257   2.362
53293W        W18454  25.165  15.140  11.389
53294W        W18455  10.546  12.527   1.385
53295W        W18456   0.787  42.480  14.478
53296W        W18457  24.640  33.375   4.269
53297W        W18458  21.563  27.400   3.784
53298W        W18459  32.759   6.612   1.722
53299W        W18460  17.655  16.670  14.530
53300W        W18461   1.333  28.205   3.938
53301W        W18462  22.541  23.499  14.234
53302W        W18463  40.876  35.449  13.694
53303W        W18464  36.011  15.149   4.918
53304W        W18465  30.643   5.881  13.909
53305W        W18466  40.554  44.631  11.696
53306W        W18467  43.522   9.358   0.279
53307W        W18468  43.393   4.821  12.087
53308W        W18469  11.420  11.805   3.622
53309W        W18470   7.239  26.994   9.736
53310W        W18471  32.477  40.518   0.988
53311W        W18472  17.307  13.831   3.309
53312W        W18473  16.141  18.804  13.392
53313W        W18474   6.801   5.747  10.665
53314W        W18475  19.814  43.221   2.708
53315W        W18476  11.515  11.680   0.896
53316W        W18477  21.242  32.182   9.992
53317W        W18478  17.256  12.251   3.652
53318W        W18479   9.911  20.027   4.276
53319W        W18480  35.388  43.335  14.023
53320W        W18481   1.417  33.124  10.631
53321W        W18482  21.602   9.374   1.884
53322W        W18483  35.545  18.774  10.672
53323W        W18484  34.942  26.714  10.639
53324W        W18485  22.701  32.704   4.539
53325W        W18486   7.184  32.309  12.786
53326W        W18487  16.996   0.850   3.611
53327W        W18488  39.338  17.522   2.235
53328W        W18489   5.297  30.595  12.334
53329W        W18490   2.573  37.954   3.272
53330W        W18491   1.777  30.610  11.717
53331W        W18492   4.699   1.489  13.097
53332W        W18493  35.926  19.187   4.357
53333W        W18494   7.230   5.326  11.890
53334W        W18495  25.570   1.842  10.120
53335W        W18496  17.889  39.216  12.089
53336W        W18497  25.018   1.438   1.860
53337W        W18498   1.837  41.529   3.133
53338W        W18499  43.005  17.384   0.892
53339W        W18500  39.028  28.362   2.018
53340W        W18501  40.442  44.754  14.491
53341W        W18502  41.176   7.104   3.238
53342W        W18503  40.496  40.811   2.120
53343W        W18504  20.896   1.883   4.934
53344W        W18505  30.546  16.414  12.047
53345W        W18506   6.213  32.078   4.636
53346W        W18507  26.301  37.372   3.060
53347W        W18508   1.140  22.332   3.446
53348W        W18509  27.536   2.138   3.544
53349W        W18510  27.540  42.298  12.003
53350W        W18511   9.323  29.590  13.439
53351W        W18512  37.469  43.282   2.271
53352W        W18513  34.666  44.802   2.617
53353W        W18514  43.507  43.891   4.004
53354W        W18515   5.475   5.349   4.537
53355W        W18516  34.599   2.978   2.635
53356W        W18517  29.996  20.995  10.322
53357W        W18518  28.045  31.066  14.881
53358W        W18519   5.287  14.391   2.358
53359W        W18520  34.002  42.177  14.712
53360W        W18521   7.449  23.592   4.629
53361W        W18522   2.157  22.800   4.542
53362W        W18523  43.421  32.195   2.916
53363W        W18524  18.383  39.279   5.021
53364W        W18525   8.953  32.945   3.140
53365W        W18526   9.819  16.118  13.875
53366W        W18527   9.858  37.356  12.361
53367W        W18528  44.836  26.883   4.618
53368W        W18529  25.748  31.112  12.912
53369W        W18530  13.979  10.921   0.891
53370W        W18531  30.590  41.807  14.813
53371W        W18532   6.328  23.231   1.044
53372W        W18533  35.556  35.129  13.413
53373W        W18534   2.205  31.908  11.577
53374W        W18535  28.919  42.283  14.917
53375W        W18536   2.303  25.045   3.136
53376W        W18537  33.305  25.172   2.381
53377W        W18538  30.209  13.123   0.723
53378W        W18539  32.745  14.341  12.367
53379W        W18540   1.800  36.950   1.359
53380W        W18541  34.134  29.573  14.962
53381W        W18542  10.443  41.044  14.771
53382W        W18543  37.214  28.003   3.707
53383W        W18544  28.441  43.460  11.862
53384W        W18545  15.334  33.836   1.638
53385W        W18546  11.632  32.481   2.834
53386W        W18547   2.901   3.516  13.420
53387W        W18548  19.539  44.739   4.517
53388W        W18549  31.924  23.631   0.002
53389W        W18550  24.559   5.647   0.918
53390W        W18551   2.503  21.053  12.361
53391W        W18552  35.155  19.061   0.674
53392W        W18553   8.805  29.909   4.186
53393W        W18554  27.993  12.548  10.337
53394W        W18555  41.933  28.668   0.486
53395W        W18556  33.858  17.138  10.651
53396W        W18557  32.997   4.171   3.412
53397W        W18558  43.333  33.094   2.312
53398W        W18559  40.851  19.347  12.425
53399W        W18560  20.037   5.762  13.892
53400W        W18561  18.428  37.157   0.743
53401W        W18562  42.912  19.455  11.235
53402W        W18563   4.430   3.493   4.599
53403W        W18564  40.869  15.207   0.176
53404W        W18565  29.191  31.909  14.066
53405W        W18566   7.851  41.953   1.784
53406W        W18567   4.969  20.410   3.203
53407W        W18568   9.144  44.322  12.051
53408W        W18569   9.646  10.677   4.565
53409W        W18570  35.508  32.823   0.384
53410W        W18571  10.964  41.587  14.526
53411W        W18572  20.349  14.059  12.055
53412W        W18573   8.714  23.305  12.898
53413W        W18574   6.948  19.266  11.507
53414W        W18575  27.074  17.256  10.736
53415W        W18576  17.575  28.685   0.522
53416W        W18577  21.653  39.513  11.151
53417W        W18578  38.111  25.627  13.740
53418W        W18579  33.481  35.285   3.323
53419W        W18580   6.934  42.388   4.845
53420W        W18581   4.749  20.281  13.408
53421W        W18582  18.029  25.478  12.919
53422W        W18583  35.038  43.039  13.786
53423W        W18584  32.529  24.099  13.925
53424W        W18585  39.504   1.520   3.669
53425W        W18586  42.840   1.105   4.254
53426W        W18587  39.811  20.048   0.342
53427W        W18588  28.216  16.921   4.559
53428W        W18589  35.130  34.810   3.592
53429W        W18590  24.009  20.127   4.058
53430W        W18591  29.112  37.364  12.401
53431W        W18592  28.104  44.738   4.204
53432W        W18593  17.529   1.410   2.290
53433W        W18594  41.919  32.112  11.235
53434W        W18595  21.105   1.538   3.961
53435W        W18596  37.399  31.365  14.780
53436W        W18597  34.186  33.417  12.891
53437W        W18598  37.045   5.959  11.418
53438W        W18599  16.498  40.122  13.384
53439W        W18600   3.701  13.576  13.928
53440W        W18601  21.216  35.928  10.730
53441W        W18602  18.926  11.453  14.486
53442W        W18603  10.960  35.526   2.640
53443W        W18604   1.332  43.770  10.909
53444W        W18605  27.457  18.502   4.367
53445W        W18606  26.149  33.363   0.383
53446W        W18607  40.808  42.161  12.500
53447W        W18608  24.153  32.487  14.688
53448W        W18609  30.120  42.994   4.550
53449W        W18610  24.763  16.200  10.631
53450W        W18611  18.834   6.152  10.282
53451W        W18612  14.475  19.573  11.316
53452W        W18613  33.518   7.418   2.295
53453W        W18614  12.149  22.485   0.283
53454W        W18615  27.597  41.574  13.340
53455W        W18616  44.242  38.488   4.119
53456W        W18617  33.014   5.385   2.824
53457W        W18618  28.955   4.182   3.407
53458W        W18619  22.655  15.247  14.070
53459W        W18620  19.179  23.199   4.264
53460W        W18621   8.380  34.101  13.935
53461W        W18622  10.110  33.524   1.809
53462W        W18623   1.297  32.004   1.189
53463W        W18624   2.124   9.056  10.775
53464W        W18625  24.616  42.798   5.058
53465W        W18626  30.892  42.494  13.281
53466W        W18627  22.223  17.963  10.586
53467W        W18628  10.933  37.413  11.549
53468W        W18629  13.807  34.875  14.297
53469W        W18630  23.877  16.126   0.300
53470W        W18631  11.253   4.805   3.132
53471W        W18632  35.567  43.333  14.519
53472W        W18633  40.374  44.680  10.437
53473W        W18634  10.189  27.021   4.629
53474W        W18635  29.355  10.360  13.603
53475W        W18636  31.874  10.688  12.439
53476W        W18637  31.127  17.590   1.688
53477W        W18638  14.084  15.744   3.647
53478W        W18639   6.645   5.276   2.615
53479W        W18640  39.479  26.490  12.505
53480W        W18641  27.901  32.387   0.258
53481W        W18642  36.605  42.971  10.272
53482W        W18643  38.791  22.951  13.829
53483W        W18644   9.629  14.645  14.412
53484W        W18645  22.886   9.659  10.608
53485W        W18646  44.380  37.413  11.855
53486W        W18647  45.000  34.044   1.349
53487W        W18648  28.107   8.182   2.617
53488W        W18649  12.133  18.717   3.974
53489W        W18650  29.887   0.178   2.778
53490W        W18651  43.391  20.760  10.768
53491W        W18652   0.927   2.550  14.744
53492W        W18653   3.911  29.253  13.268
53493W        W18654  23.698  17.599  10.729
53494W        W18655  29.149  25.338  14.417
53495W        W18656   4.331  34.810  10.744
53496W        W18657  20.107  31.456   0.382
53497W        W18658  24.656  10.162   0.329
53498W        W18659  35.142  28.739   2.772
53499W        W18660  36.821  36.530   4.779
53500W        W18661  44.773   7.624   0.557
53501W        W18662  25.691   4.743  11.371
53502W        W18663   3.736  39.101  10.489
53503W        W18664  21.757   9.761   4.620
53504W        W18665  24.711   7.960   0.342
53505W        W18666   8.841  38.487  12.851
53506W        W18667  14.108   0.726  14.426
53507W        W18668   4.972  29.640  10.708
53508W        W18669  18.775  11.555  11.968
53509W        W18670  43.587  34.769   1.641
53510W        W18671  42.313  44.782   1.271
53511W        W18672  31.030  39.737   1.300
53512W        W18673  15.411  33.028  11.650
53513W        W18674  43.011  44.367   4.334
53514W        W18675   1.445   2.445  14.071
53515W        W18676  32.382  44.512   0.989
53516W        W18677  20.596   4.872   2.939
53517W        W18678   3.757  23.906   4.167
53518W        W18679  43.315  41.996  14.454
53519W        W18680  12.481  25.712   1.272
53520W        W18681  11.209  14.715   2.511
53521W        W18682  12.750  32.855   0.366
53522W        W18683  40.386  41.849   2.188
53523W        W18684  24.973  21.951  13.006
53524W        W18685  15.522  23.661  12.490
53525W        W18686  25.185  16.917  14.224
53526W        W18687  15.299   3.707   2.453
53527W        W18688   8.306   6.929   3.341
53528W        W18689   1.206  39.832  14.751
53529W        W18690   8.911  28.574  14.748
53530W        W18691   6.541  16.738   1.885
53531W        W18692  26.595   1.191   4.588
53532W        W18693   9.107  40.822  11.974
53533W        W18694   2.821  14.509   2.628
53534W        W18695  27.636  36.666  13.820
53535W        W18696  42.578  25.268  11.197
53536W        W18697  19.622  30.581   2.883
53537W        W18698  14.117  25.265   2.727
53538W        W18699  21.538  11.812   0.933
53539W        W18700  19.634  39.323   3.179
53540W        W18701   5.778  21.735   1.582
53541W        W18702  28.307   5.259  13.855
53542W        W18703  44.075  41.480   2.778
53543W        W18704  37.549  41.995  11.518
53544W        W18705  22.675  31.466   2.303
53545W        W18706   1.995  23.150  11.628
53546W        W18707   5.528  18.875   4.570
53547W        W18708   7.701  15.747  13.871
53548W        W18709  36.122  10.822   3.127
53549W        W18710   5.016  13.092  11.699
53550W        W18711  39.088  20.243   2.219
53551W        W18712  28.697  37.601  12.570
53552W        W18713  13.816  32.966  14.387
53553W        W18714  40.719  32.363  12.800
53554W        W18715  30.048   9.639   3.112
53555W        W18716  28.436  15.733  13.296
53556W        W18717  27.193  40.482  11.628
53557W        W18718   9.621  37.152  11.111
53558W        W18719  39.024  24.232   4.666
53559W        W18720   8.754  23.949  14.870
53560W        W18721  39.497   9.391   3.305
53561W        W18722  15.641  43.442  11.119
53562W        W18723   9.258  12.876   4.636
53563W        W18724  44.289  22.783  10.686
53564W        W18725   4.829  32.680  12.965
53565W        W18726  11.207  12.432  12.087
53566W        W18727  24.611  19.330  12.162
53567W        W18728  35.622  22.554   1.791
53568W        W18729  37.959  38.450   4.103
53569W        W18730  33.924  37.012  11.633
53570W        W18731   2.436  34.191  11.072
53571W        W18732  22.534  17.413  11.971
53572W        W18733  10.334  35.073   3.870
53573W        W18734  17.828  38.639   1.350
53574W        W18735  14.896   8.087  13.502
53575W        W18736  18.618  40.542   5.721
53576W        W18737  23.090  27.234   0.206
53577W        W18738   9.915  14.440  14.786
53578W        W18739  29.083   0.351   0.956
53579W        W18740  22.573  25.873  11.447
53580W        W18741  44.671  22.745  14.099
53581W        W18742  30.880  41.675   2.254
53582W        W18743  33.065  32.029   5.151
53583W        W18744  21.797   1.836   2.705
53584W        W18745  11.863  37.256   4.562
53585W        W18746   6.848  43.790  14.334
53586W        W18747  28.396  32.833  13.508
53587W        W18748  26.424  41.594   4.567
53588W        W18749  18.321  27.049   0.970
53589W        W18750  26.790   9.720   3.266
53590W        W18751  40.342  41.175  11.592
53591W        W18752  23.329  38.196  11.152
53592W        W18753  24.940   0.426  12.288
53593W        W18754  27.454  22.626   4.186
53594W        W18755  17.672  25.535   0.092
53595W        W18756  20.510   3.813   3.156
53596W        W18757  34.509  29.203  12.256
53597W        W18758   5.487  28.629   5.090
53598W        W18759  35.342  11.043   1.731
53599W        W18760  17.753  12.888   0.869
53600W        W18761  43.380  36.819  12.135
53601W        W18762  37.083   1.766   3.722
53602W        W18763  26.990  10.977  13.344
53603W        W18764  38.337   5.207   4.182
53604W        W18765  23.724   6.655   2.588
53605W        W18766  16.037   4.649   2.307
53606W        W18767  34.903   7.683   4.723
53607W        W18768  18.281  30.962   4.569
53608W        W18769  20.294  32.557   3.607
53609W        W18770  33.415  27.443  11.043
53610W        W18771   1.678  13.280  11.122
53611W        W18772  44.800  12.848   0.622
53612W        W18773  29.725  39.024   1.916
53613W        W18774  16.685  35.514  11.275
53614W        W18775  32.468  43.024  14.602
53615W        W18776  20.197  23.626  13.921
53616W        W18777   2.413  40.519  13.838
53617W        W18778  38.288  18.247  11.944
53618W        W18779  30.046  20.569   2.799
53619W        W18780  37.718   2.788   1.857
53620W        W18781  19.809  27.215   2.473
53621W        W18782  14.619  25.645  14.872
53622W        W18783  33.577  27.715  12.118
53623W        W18784  28.467  24.936  12.820
53624W        W18785  19.940   9.235  14.735
53625W        W18786  35.098  21.579  11.858
53626W        W18787  16.304  29.618  13.006
53627W        W18788  26.103  15.864   0.676
53628W        W18789  19.796   5.164   0.505
53629W        W18790  20.710  10.058   2.335
53630W        W18791  15.591  38.206   3.290
53631W        W18792  34.774  20.678   0.374
53632W        W18793  21.494  44.926   3.292
53633W        W18794  18.338  31.058  13.813
53634W        W18795  36.986  25.998   2.776
53635W        W18796  30.739   0.896  12.380
53636W        W18797  13.808   0.050   2.809
53637W        W18798  11.901  13.744   2.208
53638W        W18799  17.554   4.337   1.421
53639W        W18800  40.660  30.303   3.515
53640W        W18801   6.013  14.750   1.947
53641W        W18802  11.712  21.254  11.148
53642W        W18803  28.896  19.549   3.807
53643W        W18804  36.154  41.063   3.113
53644W        W18805  42.827  34.955  13.082
53645W        W18806  17.202  15.793   1.669
53646W        W18807  34.401  14.772  12.521
53647W        W18808  34.613  13.067  11.547
53648W        W18809  43.217  27.253   1.722
53649W        W18810  12.055  33.447   1.824
53650W        W18811  44.902  10.030   3.122
53651W        W18812  30.404  31.517   0.552
53652W        W18813   6.016  22.842  13.647
53653W        W18814   0.416  11.032   4.272
53654W        W18815  34.360  22.698  11.743
53655W        W18816  14.901  23.817  13.562
53656W        W18817   6.041  39.391  11.732
53657W        W18818  39.781  25.641   2.659
53658W        W18819   2.405  26.249   3.130
53659W        W18820  38.739  34.103   4.189
53660W        W18821  40.957   2.269  11.075
53661W        W18822  27.061   5.152   0.999
53662W        W18823  32.001  28.882  14.056
53663W        W18824  34.531  23.557   0.249
53664W        W18825  43.792   5.237   3.177
53665W        W18826  15.175  28.929  13.018
53666W        W18827  30.380  34.858   2.223
53667W        W18828   4.501  23.645  14.491
53668W        W18829  32.800  39.528  13.396
53669W        W18830  39.872  15.182  11.277
53670W        W18831   6.291   7.294  14.330
53671W        W18832   9.250  24.002   4.875
53672W        W18833  14.722  24.153   2.768
53673W        W18834  22.937  33.715  11.407
53674W        W18835   3.228  17.279   1.809
53675W        W18836  38.902  20.748  12.424
53676W        W18837   5.160  24.299   2.786
53677W        W18838  29.035  43.364   0.366
53678W        W18839  15.693   3.728  14.782
53679W        W18840  34.632   1.762  14.846
53680W        W18841  18.327  34.549   1.909
53681W        W18842  11.678   4.268   0.822
53682W        W18843  42.223  30.227   1.729
53683W        W18844  26.550  30.230  11.627
53684W        W18845  24.001  37.965   0.968
53685W        W18846  17.012   7.562   1.863
53686W        W18847   1.242  24.239  14.996
53687W        W18848  28.938  19.926  13.129
53688W        W18849  36.998   7.190  12.379
53689W        W18850   4.932  12.690   2.236
53690W        W18851  18.136  32.373   2.268
53691W        W18852  24.559   3.374   1.330
53692W        W18853   3.849  31.835  13.031
53693W        W18854  20.509  23.141   1.884
53694W        W18855  38.379  43.842   3.835
53695W        W18856  20.066  37.023  14.968
53696W        W18857   8.378   8.279   0.357
53697W        W18858   7.799  26.047  11.709
53698W        W18859  38.939  23.875   3.165
53699W        W18860  30.815  36.901  13.361
53700W        W18861  42.371  28.270  13.524
53701W        W18862  44.284   4.216   2.411
53702W        W18863  32.295   0.717  13.418
53703W        W18864   7.802  21.653  12.926
53704W        W18865  15.286  35.849   3.792
53705W        W18866  13.185  21.753  12.048
53706W        W18867  15.579  18.209  13.875
53707W        W18868  36.454  30.292  14.843
53708W        W18869  39.324  23.596   3.595
53709W        W18870   4.200  28.580   4.206
53710W        W18871  29.748  31.576  11.309
53711W        W18872  18.071  18.671   1.869
53712W        W18873  43.946   5.148   2.661
53713W        W18874  27.213  35.610  14.277
53714W        W18875  37.329  14.131   4.012
53715W        W18876  32.406  34.032   1.178
53716W        W18877  12.167   4.445  10.373
53717W        W18878   1.086  16.234   5.010
53718W        W18879  39.461  42.737   0.942
53719W        W18880  22.481  10.672  13.550
53720W        W18881   5.980  19.931  11.982
53721W        W18882  13.813  13.651  11.470
53722W        W18883   2.367  43.739   1.902
53723W        W18884  36.037  25.222  11.549
53724W        W18885  35.073   6.274   4.999
53725W        W18886   8.817   5.180  14.965
53726W        W18887   2.502   5.069   4.480
53727W        W18888  40.458  27.516  11.578
53728W        W18889  15.560   7.845   2.734
53729W        W18890  16.307  33.450   2.074
53730W        W18891  43.537  35.392   9.967
53731W        W18892  14.962  12.628   5.040
53732W        W18893  19.786  28.494  11.175
53733W        W18894  14.199  26.645  12.544
53734W        W18895   2.274  33.634  12.452
53735W        W18896   3.240  34.185  13.023
53736W        W18897  42.509  15.112  11.669
53737W        W18898  37.439   8.676  11.704
53738W        W18899  35.515   3.597  10.311
53739W        W18900  43.957  37.502  14.149
53740W        W18901  37.047   1.362   1.212
53741W        W18902  31.467  44.859   4.237
53742W        W18903  14.765  35.657  13.988
53743W        W18904  21.712  10.763  13.027
53744W        W18905   3.982  12.192  10.652
53745W        W18906  31.590  35.589   4.217
53746W        W18907   6.384  20.480   4.982
53747W        W18908  10.341  22.976   4.482
53748W        W18909   0.684   4.334   2.395
53749W        W18910   7.978   0.065  12.440
53750W        W18911  16.512  16.995   0.461
53751W        W18912  26.712   5.608  11.974
53752W        W18913  21.921  32.920  14.392
53753W        W18914  16.052   0.378  13.451
53754W        W18915  18.857   4.798  14.477
53755W        W18916  30.187  12.550   4.628
53756W        W18917  13.877  35.863   4.640
53757W        W18918  21.428   1.014   3.824
53758W        W18919  35.377  41.888  13.740
53759W        W18920   2.191  12.040   3.193
53760W        W18921  44.487   9.800   2.793
53761W        W18922  20.641  44.029  11.617
53762W        W18923  13.045  35.886   9.845
53763W        W18924  26.219   5.303  11.877
53764W        W18925  16.043  25.356   2.906
53765W        W18926  25.158  17.100   3.636
53766W        W18927  30.920  37.574   0.396
53767W        W18928   2.935  12.515   0.791
53768W        W18929  39.969   4.147   2.133
53769W        W18930  27.027  28.545  14.376
53770W        W18931  11.056  14.731   0.612
53771W        W18932  12.472  40.060   3.982
53772W        W18933   3.753  31.149   0.289
53773W        W18934  22.583  28.933   0.448
53774W        W18935  32.957  23.692   1.973
53775W        W18936  19.425   4.297   0.450
53776W        W18937  15.304  25.438  11.661
53777W        W18938  14.073  11.310   2.408
53778W        W18939  42.375  18.948   1.299
53779W        W18940  19.267  42.322   3.430
53780W        W18941  22.124   7.283   4.973
53781W        W18942  44.217  14.261   2.386
53782W        W18943  19.650  43.334   3.988
53783W        W18944  34.155  24.384  12.047
53784W        W18945  22.792   5.041   0.562
53785W        W18946  30.447  25.049  13.036
53786W        W18947  11.290  22.226   4.363
53787W        W18948  43.888   5.130  10.646
53788W        W18949   8.744  42.547   3.947
53789W        W18950   7.409  11.782   4.945
53790W        W18951  33.378  30.046  14.828
53791W        W18952  18.473  17.745  14.756
53792W        W18953  26.598   3.872  12.485
53793W        W18954   0.570  26.350   2.272
53794W        W18955  33.703  13.395   2.288
53795W        W18956  36.604  11.124   0.422
53796W        W18957  37.969  12.232  12.824
53797W        W18958  43.004  27.547   5.193
53798W        W18959  26.332  10.392  13.548
53799W        W18960  15.892  30.863  10.717
53800W        W18961  28.549  33.206   2.459
53801W        W18962   5.903  39.587   3.685
53802W        W18963  37.277  27.202   4.095
53803W        W18964  36.692  41.800   3.558
53804W        W18965   6.435  18.719   0.211
53805W        W18966  11.861  26.741   2.376
53806W        W18967  34.981  31.098  13.200
53807W        W18968   1.955  32.822  12.591
53808W        W18969  15.306   6.055   4.980
53809W        W18970  15.664  25.096   4.407
53810W        W18971  16.173  42.019  13.545
53811W        W18972   0.868  22.369   2.647
53812W        W18973  29.425  30.515   2.345
53813W        W18974  11.747   6.635   3.273
53814W        W18975  28.614  25.999   4.552
53815W        W18976  13.833  24.224   3.682
53816W        W18977   4.909   1.018  12.986
53817W        W18978  43.804  40.013  14.291
53818W        W18979   8.789  31.592   2.733
53819W        W18980  44.534   2.311  12.954
53820W        W18981   0.881  32.081  12.638
53821W        W18982   4.461   3.865   0.182
53822W        W18983   2.169  17.390   1.422
53823W        W18984  43.144   0.844  13.593
53824W        W18985  16.777  33.582   1.418
53825W        W18986  38.249  12.141   3.598
53826W        W18987  19.661  40.882  10.567
53827W        W18988  31.338   0.560  10.439
53828W        W18989  28.576  32.927   0.570
53829W        W18990  39.550  31.472  14.579
53830W        W18991  19.596  43.407  12.700
53831W        W18992  15.821  20.217   3.576
53832W        W18993   0.262  23.601  11.115
53833W        W18994   3.464  28.002  14.949
53834W        W18995  24.628  12.819   2.193
53835W        W18996  43.012  38.923   3.429
53836W        W18997  21.480  40.851   3.121
53837W        W18998   5.713  16.728   4.727
53838W        W18999  11.383  39.889   1.741
53839W        W19000   7.930  35.051  14.975
53840W        W19001  25.517  24.774  11.134
53841W        W19002   1.971  21.795  12.859
53842W        W19003  32.483  13.517   1.476
53843W        W19004  22.257  31.855   0.809
53844W        W19005  42.436  18.176   4.448
53845W        W19006  41.512   7.708   0.849
53846W        W19007  18.317  35.037  10.994
53847W        W19008  39.002   4.332   1.052
53848W        W19009  36.903  33.147   0.425
53849W        W19010  43.239   3.686  13.357
53850W        W19011  10.793   1.171   2.395
53851W        W19012  37.892   7.736   4.475
53852W        W19013  41.904  35.438  11.966
53853W        W19014  25.942  10.265  12.809
53854W        W19015  26.123  21.233   3.602
53855W        W19016  19.570  25.445   1.515
53856W        W19017  44.555  42.718   0.916
53857W        W19018  11.617  24.608  11.073
53858W        W19019  19.596  22.751  10.112
53859W        W19020   8.321  25.943   1.748
53860W        W19021  41.768  27.922  12.339
53861W        W19022  42.395  42.904   3.404
53862W        W19023  35.007  18.726   2.412
53863W        W19024  11.374  39.947   3.264
53864W        W19025  38.551  28.867   1.360
53865W        W19026   8.894  36.632   2.235
53866W        W19027   8.225  18.525  14.401
53867W        W19028  40.988  44.286   2.861
53868W        W19029   2.204  22.498   0.841
53869W        W19030  43.748  26.069   1.930
53870W        W19031   1.401  35.080  14.709
53871W        W19032  19.982  15.187   2.651
53872W        W19033  26.726  21.601   0.965
53873W        W19034  12.559  22.717   0.483
53874W        W19035  27.689  40.414  11.526
53875W        W19036  32.833   7.696  14.801
53876W        W19037   6.833  25.415  10.338
53877W        W19038  36.798  26.816  13.621
53878W        W19039   7.505   6.314   3.993
53879W        W19040  18.871   4.481   1.901
53880W        W19041  31.179  32.448  13.482
53881W        W19042  39.384   9.182   0.802
53882W        W19043  41.005  14.664   1.978
53883W        W19044  21.480   5.393   3.279
53884W        W19045  35.835  32.623   4.551
53885W        W19046  28.397   5.860  10.912
53886W        W19047  25.342  37.665  14.879
53887W        W19048  34.975  42.471   4.597
53888W        W19049  25.146  12.818   0.227
53889W        W19050  32.956  36.824  10.490
53890W        W19051   6.662  30.091   0.871
53891W        W19052  34.801  12.119  14.238
53892W        W19053  10.719   9.936   1.421
53893W        W19054  17.639  20.262   2.900
53894W        W19055   3.695  23.089   1.344
53895W        W19056  20.103  39.587  11.990
53896W        W19057   5.943  29.707   2.585
53897W        W19058  25.230   4.693  13.102
53898W        W19059  37.993  12.844  11.611
53899W        W19060  22.079   6.970   1.232
53900W        W19061  27.563  10.686  11.540
53901W        W19062  21.772  26.001   3.960
53902W        W19063  36.936  34.883  11.142
53903W        W19064  43.256  33.057  14.974
53904W        W19065  32.686  44.864  11.951
53905W        W19066  16.313  13.457   4.112
53906W        W19067  38.696  38.581  12.917
53907W        W19068  24.754  17.454   3.183
53908W        W19069  43.840  13.853  14.762
53909W        W19070  34.949  36.473   1.196
53910W        W19071  10.673  20.588   2.775
53911W        W19072  43.198   6.174  13.226
53912W        W19073  37.967  21.259  14.736
53913W        W19074  30.837  20.690   1.224
53914W        W19075  26.948  25.742   0.879
53915W        W19076  18.184  24.860  10.650
53916W        W19077  31.964  43.921  13.054
53917W        W19078  32.948  36.431  12.091
53918W        W19079   9.112  42.148  13.446
53919W        W19080  35.526   8.275  14.039
53920W        W19081  27.605   4.698   2.633
53921W        W19082   9.395  29.940  10.717
53922W        W19083  36.544  39.808   3.118
53923W        W19084  10.232  21.115  13.449
53924W        W19085  42.869  27.547  10.763
53925W        W19086   1.643  15.583  10.580
53926W        W19087  15.809  15.827   3.726
53927W        W19088  18.750  30.442  12.336
53928W        W19089  36.967   9.302   0.935
53929W        W19090   6.762  21.004  12.201
53930W        W19091  33.963  25.602  12.484
53931W        W19092  42.858  28.610  11.521
53932W        W19093   8.856  29.482   0.899
53933W        W19094  23.537   9.184   2.730
53934W        W19095  33.505   0.697   0.387
53935W        W19096  29.546   6.472  12.591
53936W        W19097  18.620  22.470   0.925
53937W        W19098  36.859  36.418   1.460
53938W        W19099   3.677  37.971  12.344
53939W        W19100  21.118  29.367   0.248
53940W        W19101   5.610   7.499  11.976
53941W        W19102  41.187  28.426   2.615
53942W        W19103  19.490  20.019   4.142
53943W        W19104  23.151   3.490   4.319
53944W        W19105  22.242  39.120   2.665
53945W        W19106  34.775  22.302  13.432
53946W        W19107  36.355  33.019   4.085
53947W        W19108  12.892  37.598   2.809
53948W        W19109  35.899  23.546   4.068
53949W        W19110   8.918  23.559   1.919
53950W        W19111  40.524  35.353  14.608
53951W        W19112  42.951  17.363   3.760
53952W        W19113  35.674  40.239   3.290
53953W        W19114   3.668  41.407  12.426
53954W        W19115  39.013  30.867   4.264
53955W        W19116  39.913  11.744  10.777
53956W        W19117  25.484  35.477  14.932
53957W        W19118  29.387  21.692   0.319
53958W        W19119   3.930  11.311   1.918
53959W        W19120   2.801  42.877   2.750
53960W        W19121  15.269  31.442  13.952
53961W        W19122  28.078   6.901   9.954
53962W        W19123  18.991  44.366  14.445
53963W        W19124  43.968   5.434   2.205
53964W        W19125   0.888  11.715   4.493
53965W        W19126  20.682  12.635  10.692
53966W        W19127  10.205  34.054  14.876
53967W        W19128  12.662  40.553   4.136
53968W        W19129  34.128   4.865  14.189
53969W        W19130  43.049  11.339  12.609
53970W        W19131   9.366   3.126  11.975
53971W        W19132  18.805  12.946  12.650
53972W        W19133  27.058  43.387   1.268
53973W        W19134  43.834  18.646  11.567
53974W        W19135  15.292  28.032  13.392
53975W        W19136  16.240   5.970   1.544
53976W        W19137  23.299  18.044   1.714
53977W        W19138  28.939  35.094  13.241
53978W        W19139  13.329  29.769  13.425
53979W        W19140  16.012  16.772   5.009
53980W        W19141  17.803   7.723  12.112
53981W        W19142  34.848  17.935  14.964
53982W        W19143  30.014  13.119  11.435
53983W        W19144  28.131  36.176   0.657
53984W        W19145  17.651  20.105  11.208
53985W        W19146  25.814   2.269   0.409
53986W        W19147  33.846  28.085  13.856
53987W        W19148   5.159  36.594  12.382
53988W        W19149  43.327   6.647   3.283
53989W        W19150  19.739  10.197   3.053
53990W        W19151  14.131  23.159   0.767
53991W        W19152  13.067   8.079  14.533
53992W        W19153  14.190   6.302   0.359
53993W        W19154  41.454   9.824  12.465
53994W        W19155  33.982  41.236   0.847
53995W        W19156  24.219  30.952  13.922
53996W        W19157  44.882   9.384   0.039
53997W        W19158  29.411  42.944   0.350
53998W        W19159  19.044  26.763   4.040
53999W        W19160  10.251   9.233  13.591
54000W        W19161  28.155  37.679   1.872
54001W        W19162  33.053  18.617   3.278
54002W        W19163  12.734  23.942   4.709
54003W        W19164  23.580   1.891   2.902
54004W        W19165  41.450   9.158   1.920
54005W        W19166   2.329   0.055   0.978
54006W        W19167   1.784  34.002   1.995
54007W        W19168   5.275  24.912  14.557
54008W        W19169  33.527  26.585   4.905
54009W        W19170  39.299  13.646  11.526
54010W        W19171  33.060  13.551  12.138
54011W        W19172  13.253  43.745   2.932
54012W        W19173   6.454  13.530  12.123
54013W        W19174  25.238  15.777   0.286
54014W        W19175   3.902  22.604   2.292
54015W        W19176  14.725  10.663   4.207
54016W        W19177  42.843  43.950   4.583
54017W        W19178  26.212  42.706   0.328
54018W        W19179  36.410  15.520  12.605
54019W        W19180   3.972  14.000  11.144
54020W        W19181   9.229   0.756   2.804
54021W        W19182   1.537  16.317  13.902
54022W        W19183  14.281  25.931  11.768
54023W        W19184  23.901  36.382   0.118
54024W        W19185   8.810  25.713   1.316
54025W        W19186  17.255  26.643  12.870
54026W        W19187  37.488   1.924  11.994
54027W        W19188   6.355   4.229  14.874
54028W        W19189  41.880  25.036  10.475
54029W        W19190  33.565   7.994  14.888
54030W        W19191  18.725  31.090   2.832
54031W        W19192  32.539  28.597  13.051
54032W        W19193  32.407  26.551  10.712
54033W        W19194  16.640  33.170  12.496
54034W        W19195   6.489   0.414   4.651
54035W        W19196   4.370  39.901  11.617
54036W        W19197  24.540  22.646   1.746
54037W        W19198  33.435  23.721  11.616
54038W        W19199  15.886  37.761  13.845
54039W        W19200  36.840  11.619   0.818
54040W        W19201  13.137  22.080  13.348
54041W        W19202  17.693  13.806  12.726
54042W        W19203   1.201   1.525   2.783
54043W        W19204   2.724  40.465  13.249
54044W        W19205   5.407  30.086  12.438
54045W        W19206  19.632   0.469  13.562
54046W        W19207   9.477  30.094  14.319
54047W        W19208   6.542  13.637   4.016
54048W        W19209   3.160   3.234  12.918
54049W        W19210  32.650  30.640   5.002
54050W        W19211  35.161  14.065  12.535
54051W        W19212  20.758  20.627   3.599
54052W        W19213   3.382   3.912   2.529
54053W        W19214  29.544  13.734  11.988
54054W        W19215  25.600  32.752   0.661
54055W        W19216  41.955  21.819  12.969
54056W        W19217  26.090  42.901   4.109
54057W        W19218  30.207  38.857   0.746
54058W        W19219   9.570  41.404  11.183
54059W        W19220   7.435  34.321  11.558
54060W        W19221  43.229  15.280  13.984
54061W        W19222  21.819   5.403  14.806
54062W        W19223  12.938  23.686  12.950
54063W        W19224  34.863  11.829   4.034
54064W        W19225   0.199  39.000  14.924
54065W        W19226  25.133   6.452   2.215
54066W        W19227  41.261  41.998   3.563
54067W        W19228  44.871  37.966   2.514
54068W        W19229  11.841  12.834   1.759
54069W        W19230  34.386  19.598  14.519
54070W        W19231  28.470  44.584  11.001
54071W        W19232  14.625  21.679  10.991
54072W        W19233  17.312  40.663   0.771
54073W        W19234  42.030  10.145   4.605
54074W        W19235   1.580  17.228  11.451
54075W        W19236  11.768   5.004  12.730
54076W        W19237  36.092   8.343   0.840
54077W        W19238  19.551  44.902  13.028
54078W        W19239   8.645  43.795  11.647
54079W        W19240  21.259  44.057   5.035
54080W        W19241  23.251   0.469  14.481
54081W        W19242  14.645   5.001  11.860
54082W        W19243   5.086  15.608   4.530
54083W        W19244   2.800  22.152   3.353
54084W        W19245  39.584  23.144  14.592
54085W        W19246  24.659  32.985   1.873
54086W        W19247  23.815   8.606   1.377
54087W        W19248  38.328  17.804   0.911
54088W        W19249  22.165   8.682   0.067
54089W        W19250   5.833   0.326  11.536
54090W        W19251  21.508   2.506   3.745
54091W        W19252  13.510  22.983  14.442
54092W        W19253  15.105  31.845   4.548
54093W        W19254  35.951   7.023   4.614
54094W        W19255   5.859   6.747   3.731
54095W        W19256   0.216  14.000   5.152
54096W        W19257   0.692  21.047   0.847
54097W        W19258  18.798   4.232   2.914
54098W        W19259  22.516   5.115  14.062
54099W        W19260  11.036  42.987  11.122
54100W        W19261  30.138   0.884  11.930
54101W        W19262  30.904   6.154   3.063
54102W        W19263  29.617  27.559   1.223
54103W        W19264   2.920   4.422  11.966
54104W        W19265  24.614   7.095   4.105
54105W        W19266  37.038   8.535   4.051
54106W        W19267   5.310  37.552  13.313
54107W        W19268  42.044  19.814  10.468
54108W        W19269   9.244  14.211   4.790
54109W        W19270  14.394  16.742   4.198
54110W        W19271   0.776   7.741  11.760
54111W        W19272  43.308   9.702  13.047
54112W        W19273  37.845   6.443  10.740
54113W        W19274  43.756  12.775  14.935
54114W        W19275  28.224  17.580  10.184
54115W        W19276  39.029  25.125   4.593
54116W        W19277   1.970  40.453   3.228
54117W        W19278  16.155   9.777   4.667
54118W        W19279  36.439   9.647   2.173
54119W        W19280   8.647  12.839  10.774
54120W        W19281  13.863  30.023  12.904
54121W        W19282  18.852  40.943   2.197
54122W        W19283  40.006  40.031   3.758
54123W        W19284  12.614  29.640  13.925
54124W        W19285  15.036   6.782   3.316
54125W        W19286  35.451   9.488  14.381
54126W        W19287  28.561   7.376  11.127
54127W        W19288   7.939   4.808  13.429
54128W        W19289  10.493  34.424   1.531
54129W        W19290   7.110  26.148  13.915
54130W        W19291  23.450   0.784  14.016
54131W        W19292   3.179  33.648   2.027
54132W        W19293  21.206   0.786  14.840
54133W        W19294  19.400  36.542  11.695
54134W        W19295   9.132  10.678   3.611
54135W        W19296  25.067  44.449  13.826
54136W        W19297  11.392  22.742  14.217
54137W        W19298  39.956  35.514  11.099
54138W        W19299  41.924  17.063   1.486
54139W        W19300  14.774   3.298  14.450
54140W        W19301  40.358   0.374   3.907
54141W        W19302   0.665  31.337   0.590
54142W        W19303  13.424   2.921   3.577
54143W        W19304   1.208  30.387  10.162
54144W        W19305  35.577   2.818   2.801
54145W        W19306  24.560  27.233   4.053
54146W        W19307  12.169  38.149  14.445
54147W        W19308  33.864  35.850  14.440
54148W        W19309  25.260  11.586  14.497
54149W        W19310  33.399  44.506   4.020
54150W        W19311  34.662  20.736  14.722
54151W        W19312  26.953  22.711  10.677
54152W        W19313  40.015   7.877  14.834
54153W        W19314  19.978  10.628  13.295
54154W        W19315  38.386  10.463   0.324
54155W        W19316  13.316  38.296   2.728
54156W        W19317  11.688  22.460   0.033
54157W        W19318  42.083  34.204  10.134
54158W        W19319  14.571  16.990   0.321
54159W        W19320  30.517  44.961   4.664
54160W        W19321  15.901  21.767  14.475
54161W        W19322  33.642   7.799   0.471
54162W        W19323  13.055  16.702  11.628
54163W        W19324  29.995  30.038  10.874
54164W        W19325   8.211   1.239   1.410
54165W        W19326  36.087  43.963   0.995
54166W        W19327  13.703  28.568   1.721
54167W        W19328  22.097  30.867  11.008
54168W        W19329  24.036  29.341  10.640
54169W        W19330   3.250  37.276   3.116
54170W        W19331  33.904  36.556  10.547
54171W        W19332  38.962  35.070   3.697
54172W        W19333   4.458  24.563  11.091
54173W        W19334  33.514  15.591   0.025
54174W        W19335   5.586   6.061   1.670
54175W        W19336  35.507  17.774   3.071
54176W        W19337  16.902  35.785   2.294
54177W        W19338  43.881   3.107   2.272
54178W        W19339  36.163   1.706   1.319
54179W        W19340  17.189  13.261  14.764
54180W        W19341  14.281  22.632   1.576
54181W        W19342   4.644  37.919  13.318
54182W        W19343  36.930  26.522   3.701
54183W        W19344   0.196  11.283  13.335
54184W        W19345  22.861  12.732   9.935
54185W        W19346  30.540  30.025  14.599
54186W        W19347  23.117   5.859  14.030
54187W        W19348  10.775  24.615  10.396
54188W        W19349  44.139   1.709  12.161
54189W        W19350  38.434   0.737  14.795
54190W        W19351  17.986  17.378   3.220
54191W        W19352  44.319  25.318   3.375
54192W        W19353  39.155  18.477  10.960
54193W        W19354  37.963   2.629   4.717
54194W        W19355   8.614  44.341   3.096
54195W        W19356  15.749   2.218   0.051
54196W        W19357  26.588  15.524  11.541
54197W        W19358  38.389  29.804  14.876
54198W        W19359  21.148  16.268   3.104
54199W        W19360  39.077  13.614  12.466
54200W        W19361  33.930   4.814   1.175
54201W        W19362  24.122  24.580  11.920
54202W        W19363   9.602   2.326  13.087
54203W        W19364  10.228   6.236   1.435
54204W        W19365   2.881  38.167   2.436
54205W        W19366  23.254  38.295  12.035
54206W        W19367  12.422  41.745   2.309
54207W        W19368  43.067   8.558  14.867
54208W        W19369  39.058   2.308  12.201
54209W        W19370  28.555   6.645  12.851
54210W        W19371  30.194  15.757  12.929
54211W        W19372   0.520  44.535  12.952
54212W        W19373  13.335   1.198  13.413
54213W        W19374  11.310   2.381   2.576
54214W        W19375  24.387  13.246   3.316
54215W        W19376  16.346  41.287  12.875
54216W        W19377   3.536  32.118  13.961
54217W        W19378   4.311  18.078  13.447
54218W        W19379   1.655   3.812   5.086
54219W        W19380  35.385   3.891  12.736
54220W        W19381  21.615  21.774  13.078
54221W        W19382  34.485  25.140   9.963
54222W        W19383   8.907  21.670   2.778
54223W        W19384  28.980  16.684   2.193
54224W        W19385   0.980  20.744   2.097
54225W        W19386  20.742   3.334   3.226
54226W        W19387   3.996  29.434  11.958
54227W        W19388  41.108   9.180   3.311
54228W        W19389  19.223  35.928   0.687
54229W        W19390  12.154  36.592  10.475
54230W        W19391   5.646  32.011   1.871
54231W        W19392  34.623  35.258   1.247
54232W        W19393  32.945  11.320  12.086
54233W        W19394  40.344   7.745   2.149
54234W        W19395  19.726  15.114  10.775
54235W        W19396  13.759  26.997   1.363
54236W        W19397   6.181  36.521  12.672
54237W        W19398  44.557  18.825  11.527
54238W        W19399   7.782  20.116  13.860
54239W        W19400  31.637  20.917  12.926
54240W        W19401   2.806  35.432   1.839
54241W        W19402   4.393  26.463   0.402
54242W        W19403  13.120  22.725  13.785
54243W        W19404  10.377  29.499   2.338
54244W        W19405   7.899  25.737  14.987
54245W        W19406   1.636  35.856   2.662
54246W        W19407  41.747  11.558   0.818
54247W        W19408  25.781  33.111  11.963
54248W        W19409  21.047  28.484  14.947
54249W        W19410  31.917  28.938   2.769
54250W        W19411  17.646   1.400  13.811
54251W        W19412  40.557  13.834  11.265
54252W        W19413  35.770   7.109   3.395
54253W        W19414  44.441  26.415   1.644
54254W        W19415  40.174  21.589  14.866
54255W        W19416   4.646   6.713   4.503
54256W        W19417  28.895   8.752   1.806
54257W        W19418   0.503  39.376  14.745
54258W        W19419  31.099  12.869   1.727
54259W        W19420  27.550  41.746  12.711
54260W        W19421  26.188  38.091   0.882
54261W        W19422  27.017   4.513  13.793
54262W        W19423   7.853  22.324  14.519
54263W        W19424  14.292   0.279   2.800
54264W        W19425  25.022  33.883   4.752
54265W        W19426  39.985  15.329  14.350
54266W        W19427  22.698   7.359  10.318
54267W        W19428   4.649  42.496  13.069
54268W        W19429  12.777  23.899  13.411
54269W        W19430   7.641  18.200   3.715
54270W        W19431  42.384  31.302  11.241
54271W        W19432   1.752  22.748   0.846
54272W        W19433  33.995  34.914   3.150
54273W        W19434   6.869  34.556   4.082
54274W        W19435  34.156   3.308  12.566
54275W        W19436  33.896  16.101  11.005
54276W        W19437  11.358  40.595   4.136
54277W        W19438  19.674  10.456   0.310
54278W        W19439  17.054  23.999   0.694
54279W        W19440  44.524  40.937  10.620
54280W        W19441  22.430  38.472  13.044
54281W        W19442  25.825   1.437  11.498
54282W        W19443  19.829  32.017  11.767
54283W        W19444  22.075  18.496   3.314
54284W        W19445  26.516  35.341  12.506
54285W        W19446  42.411  11.799   3.874
54286W        W19447  26.601  18.575  10.726
54287W        W19448  21.647   4.463  11.856
54288W        W19449  34.870  33.816   1.335
54289W        W19450  29.693   1.982   2.379
54290W        W19451   2.777  31.857   0.039
54291W        W19452   2.338  40.208  11.983
54292W        W19453   2.752  37.804  11.227
54293W        W19454   2.099  36.625  14.671
54294W        W19455  34.358   0.213   4.015
54295W        W19456   9.936  43.374   4.677
54296W        W19457   5.128  27.180   2.799
54297W        W19458  13.951  44.703  11.945
54298W        W19459  16.696  37.780   5.527
54299W        W19460  23.066   6.150  11.659
54300W        W19461  16.016  15.189   1.756
54301W        W19462  30.012  33.718  12.561
54302W        W19463  44.757  31.989  14.027
54303W        W19464  16.851  39.007   4.026
54304W        W19465   4.112  34.609   3.334
54305W        W19466  38.804  14.984   3.614
54306W        W19467   3.229  13.065  11.526
54307W        W19468  13.711  28.370  14.611
54308W        W19469   0.285  32.687   4.666
54309W        W19470  36.500   4.428  12.487
54310W        W19471  23.694  13.149   4.080
54311W        W19472  17.960  43.987   5.573
54312W        W19473  31.611  14.495   1.450
54313W        W19474  41.115  27.217  12.760
54314W        W19475  40.261  15.037  10.991
54315W        W19476  13.034  15.105   4.186
54316W        W19477  19.111  31.478  11.709
54317W        W19478  29.000   7.587   0.346
54318W        W19479  19.288  39.940  14.800
54319W        W19480  25.142  37.174  12.788
54320W        W19481  21.091  39.418   2.347
54321W        W19482  16.657  24.679   0.791
54322W        W19483  41.098   1.073   4.569
54323W        W19484  28.031   1.057   1.363
54324W        W19485  12.687  38.365   3.630
54325W        W19486   2.019  30.087   0.445
54326W        W19487  11.272  43.260   3.974
54327W        W19488  26.112  10.202   0.538
54328W        W19489  31.732   7.830   5.206
54329W        W19490  20.545  15.082   0.831
54330W        W19491  20.444  12.334  12.400
54331W        W19492  23.155  16.506  12.884
54332W        W19493  14.454  35.329   0.449
54333W        W19494  33.416  17.746  13.753
54334W        W19495  27.328  40.440  11.128
54335W        W19496  16.578  21.534   0.795
54336W        W19497  10.304  26.377  13.991
54337W        W19498  13.401  31.526   4.713
54338W        W19499   5.191  17.047  11.168
54339W        W19500  28.182  37.318   2.856
54340W        W19501  37.654  12.780  13.596
54341W        W19502  31.014  10.720   0.824
54342W        W19503  30.374  39.482   2.887
54343W        W19504  41.505  34.284  10.763
54344W        W19505  30.570  37.141   5.027
54345W        W19506  28.416  11.671   1.339
54346W        W19507  19.481  39.930  12.277
54347W        W19508  33.114   7.763  12.544
54348W        W19509  10.925  13.711  12.599
54349W        W19510   5.596  28.028  13.293
54350W        W19511  15.322  31.031   1.357
54351W        W19512  44.308  24.287  14.352
54352W        W19513  30.629   2.954  11.603
54353W        W19514  34.938   7.461  10.723
54354W        W19515  28.642  44.974  10.716
54355W        W19516  25.764  34.579   3.124
54356W        W19517  31.942   0.519  13.719
54357W        W19518  32.474  35.750   1.258
54358W        W19519  11.227  29.917   3.135
54359W        W19520   9.716  25.623  10.846
54360W        W19521   0.687  23.725  11.407
54361W        W19522  34.754  17.749  14.466
54362W        W19523  43.493   5.472   0.900
54363W        W19524  14.048  39.889   2.526
54364W        W19525  30.095  25.429   1.616
54365W        W19526  43.267  32.968   1.817
54366W        W19527  32.105  44.481   1.442
54367W        W19528  16.045  22.783  11.203
54368W        W19529  44.319  36.064  11.222
54369W        W19530  33.393   8.368  14.346
54370W        W19531  31.406  10.465  12.217
54371W        W19532  35.631  37.503   3.636
54372W        W19533  34.327  30.002   4.574
54373W        W19534  16.321  25.624  11.611
54374W        W19535  43.898  31.506  11.676
54375W        W19536  13.333  24.253   1.097
54376W        W19537  34.561  38.451  11.801
54377W        W19538  10.265  17.812   1.877
54378W        W19539  36.185  22.668   1.704
54379W        W19540  11.854  31.453   3.695
54380W        W19541  26.615  38.107   0.509
54381W        W19542   4.793  22.727  14.554
54382W        W19543  25.472  28.510   0.311
54383W        W19544  14.649  19.691   1.351
54384W        W19545  43.673  31.915  14.071
54385W        W19546  22.409  29.721   0.840
54386W        W19547  22.590  40.489  10.918
54387W        W19548  27.477  14.491  13.434
54388W        W19549  19.646  35.915   0.348
54389W        W19550  17.251   7.583  14.804
54390W        W19551  32.126  20.153   2.806
54391W        W19552   3.034  35.350  10.651
54392W        W19553  32.447   3.171  12.776
54393W        W19554  40.244  24.310   0.824
54394W        W19555  26.718   5.509   2.362
54395W        W19556  28.206  15.399  10.924
54396W        W19557   4.132   3.296   2.571
54397W        W19558  16.391  20.543   2.261
54398W        W19559  16.349  19.497  11.400
54399W        W19560  17.165   1.594  11.638
54400W        W19561  12.193  29.457   3.237
54401W        W19562  11.786   8.242  13.856
54402W        W19563   0.913  19.454   2.107
54403W        W19564   6.439  40.389   3.404
54404W        W19565  44.478  28.217   3.338
54405W        W19566  38.798   6.175  14.658
54406W        W19567  39.801  18.051  14.964
54407W        W19568   3.468   5.359  14.896
54408W        W19569  32.555   2.385  11.401
54409W        W19570  37.600  36.140  11.787
54410W        W19571  10.274  13.243  14.815
54411W        W19572  20.492  23.551   4.144
54412W        W19573  28.882  27.129   0.992
54413W        W19574   9.804  17.555   4.033
54414W        W19575  13.714   3.786   2.819
54415W        W19576  20.034  43.236   3.184
54416W        W19577  15.721  20.411  14.592
54417W        W19578  10.785   9.319  11.538
54418W        W19579  20.744  15.185   1.309
54419W        W19580  13.315  41.454  11.013
54420W        W19581  15.219  34.870   0.552
54421W        W19582  23.539  40.056   1.206
54422W        W19583  44.802  23.905  11.203
54423W        W19584  22.064  24.529  12.064
54424W        W19585   2.917  20.573   0.227
54425W        W19586  26.444   2.467   1.116
54426W        W19587  34.734  34.446  14.595
54427W        W19588   9.255  12.316   1.454
54428W        W19589  36.416  22.108   4.842
54429W        W19590   8.263  17.765   4.021
54430W        W19591  36.793  15.770  10.756
54431W        W19592  33.858  12.306  10.614
54432W        W19593   7.911   3.202  12.125
54433W        W19594  35.160   2.757   0.342
54434W        W19595  16.381  41.866   2.386
54435W        W19596  16.672  28.661   0.468
54436W        W19597  11.404  37.946  12.681
54437W        W19598  10.366  22.079   4.181
54438W        W19599   4.319   1.772   4.244
54439W        W19600  16.392  33.420  13.947
54440W        W19601  43.354  14.349  12.684
54441W        W19602   0.461  22.186  12.205
54442W        W19603  21.029  37.961  10.939
54443W        W19604  38.939  33.555  11.980
54444W        W19605  13.327  15.833  11.965
54445W        W19606  18.410  22.061   4.482
54446W        W19607  29.551  39.778  12.963
54447W        W19608  43.668  21.935   3.285
54448W        W19609   4.209  22.125  14.308
54449W        W19610   4.425  41.921  14.635
54450W        W19611  37.548  24.601  13.895
54451W        W19612  21.159  38.164  13.828
54452W        W19613  37.606  39.728   3.364
54453W        W19614  42.287  35.786  11.934
54454W        W19615  13.290  36.432  12.063
54455W        W19616  32.623   0.308  13.360
54456W        W19617   9.537   9.705  14.374
54457W        W19618  17.554  36.955  11.507
54458W        W19619  22.616  26.151  14.844
54459W        W19620  24.653   5.731  13.428
54460W        W19621  29.527  19.015   3.061
54461W        W19622  43.759  26.974   4.652
54462W        W19623  39.231   0.740   2.442
54463W        W19624  32.844  33.485  12.185
54464W        W19625  37.044  17.586  14.281
54465W        W19626  19.742  27.444  12.912
54466W        W19627   4.764  35.090   0.266
54467W        W19628  12.275   2.494   1.639
54468W        W19629  30.555  14.323   1.775
54469W        W19630  24.235  21.151   4.066
54470W        W19631  19.549  43.734  14.124
54471W        W19632  12.750  22.192  12.373
54472W        W19633   4.757   1.114  11.858
54473W        W19634  36.164  12.243   4.709
54474W        W19635   3.893  20.754  11.529
54475W        W19636  25.015  30.674  11.816
54476W        W19637  15.081   9.605   3.708
54477W        W19638  24.143   4.034  10.717
54478W        W19639   4.902   7.656   0.243
54479W        W19640  23.149  30.634   0.347
54480W        W19641  41.073   6.811  12.926
54481W        W19642  24.833  11.106  13.143
54482W        W19643  41.970   8.292  13.331
54483W        W19644  31.702  12.978   3.720
54484W        W19645  39.557  34.492   0.928
54485W        W19646  33.941  37.254   5.006
54486W        W19647   9.434   6.917   4.138
54487W        W19648  39.091  22.712   5.030
54488W        W19649  20.455  19.556   2.376
54489W        W19650   1.310  20.100  13.995
54490W        W19651  23.980  26.114  13.255
54491W        W19652  24.006  29.390   0.886
54492W        W19653  16.719  29.247  11.753
54493W        W19654  21.768  20.692   1.227
54494W        W19655  25.725  30.382   3.215
54495W        W19656   2.236  25.216  12.069
54496W        W19657  19.550  24.048  14.370
54497W        W19658  33.168  22.158   0.814
54498W        W19659   1.845  43.331   1.487
54499W        W19660  25.187  26.652  10.650
54500W        W19661  29.530  27.191   2.100
54501W        W19662  40.562  23.903  13.840
54502W        W19663   2.482   5.394   0.798
54503W        W19664  17.731  36.411  12.502
54504W        W19665  19.261   6.501   4.440
54505W        W19666  28.785  31.382  11.473
54506W        W19667  29.416   7.640  13.849
54507W        W19668  13.919  17.420   0.181
54508W        W19669   2.307   8.381   0.028
54509W        W19670  39.808   7.766  10.951
54510W        W19671  26.138   6.198   4.058
54511W        W19672   5.428  43.593   4.276
54512W        W19673  30.526  28.382  14.944
54513W        W19674  23.056  44.910  12.043
54514W        W19675  30.069  21.089  14.779
54515W        W19676  38.343  27.577  13.144
54516W        W19677  31.941  41.340   0.774
54517W        W19678  16.147  33.343   0.287
54518W        W19679  29.846  19.721   4.053
54519W        W19680  31.673  17.851   4.938
54520W        W19681  32.644  14.692   3.529
54521W        W19682  37.880  44.585  13.263
54522W        W19683  22.131  27.276  14.786
54523W        W19684  34.587  22.008  10.558
54524W        W19685  30.426  31.880  14.486
54525W        W19686  41.397  23.125   2.939
54526W        W19687  17.173   6.137   5.197
54527W        W19688  32.073   9.355  10.534
54528W        W19689   6.651  30.032  13.461
54529W        W19690  13.942  38.505   2.330
54530W        W19691  31.033   9.448  13.366
54531W        W19692  32.520  21.194  10.899
54532W        W19693   8.188  12.124  11.001
54533W        W19694   7.856  43.956   4.831
54534W        W19695  15.120  14.833  10.674
54535W        W19696   6.672  31.884   1.887
54536W        W19697  34.839  34.348  11.055
54537W        W19698  42.426  20.201  10.511
54538W        W19699  25.237  16.762   4.731
54539W        W19700  37.397  37.340   3.785
54540W        W19701  36.474  27.709  10.830
54541W        W19702  41.978   7.241  10.657
54542W        W19703  17.902  41.677   1.422
54543W        W19704  19.338  22.128  13.998
54544W        W19705  29.302  21.544  12.358
54545W        W19706  43.803   6.443  14.914
54546W        W19707   0.517  31.903  10.843
54547W        W19708  24.022   8.088   0.285
54548W        W19709  30.299  25.943   9.514
54549W        W19710  41.574  16.538  10.775
54550W        W19711  22.157  32.376   3.360
54551W        W19712  14.678  17.653   3.666
54552W        W19713  33.205  37.687  10.384
54553W        W19714  42.384  26.361   0.489
54554W        W19715  39.587   5.706   2.446
54555W        W19716  33.050  25.594   4.288
54556W        W19717  14.539  28.855  13.836
54557W        W19718  16.726  41.556  10.701
54558W        W19719   9.750  31.944   3.144
54559W        W19720  24.449   8.433   0.318
54560W        W19721   6.279  20.808   4.256
54561W        W19722   4.690   9.074  10.725
54562W        W19723   1.347   2.248  14.545
54563W        W19724  17.776  21.954   1.321
54564W        W19725  37.381  10.465   3.668
54565W        W19726  11.904   9.095   2.162
54566W        W19727  40.476  10.194   1.809
54567W        W19728  24.033  37.389  13.789
54568W        W19729   2.989  34.821  10.772
54569W        W19730  34.549  15.796   3.205
54570W        W19731  17.316  32.447  10.954
54571W        W19732   1.643  38.591   2.613
54572W        W19733  19.488  31.436   3.412
54573W        W19734  41.693  41.319   3.923
54574W        W19735  31.000  42.457   0.657
54575W        W19736   0.236  35.567  13.465
54576W        W19737  41.257  34.979   4.336
54577W        W19738  35.152  32.011   4.072
54578W        W19739  33.599  33.950   0.030
54579W        W19740   6.471  25.515  14.291
54580W        W19741  11.671  32.351   0.236
54581W        W19742  43.264   6.176  12.568
54582W        W19743  20.590  25.729   2.800
54583W        W19744  39.549   1.830  14.943
54584W        W19745  36.788  33.785   5.002
54585W        W19746  28.109   4.601   9.949
54586W        W19747  41.989   7.916  11.989
54587W        W19748  28.905  15.084  13.097
54588W        W19749   7.638   0.572   2.964
54589W        W19750  32.951   7.982  12.980
54590W        W19751  19.120  33.870  11.991
54591W        W19752  43.495   9.637  12.537
54592W        W19753   3.499  19.677  14.938
54593W        W19754  20.447  12.249   3.775
54594W        W19755  14.271  31.807   4.115
54595W        W19756  43.772  10.223  10.669
54596W        W19757  36.991  26.115   1.236
54597W        W19758  38.570  11.335   2.170
54598W        W19759  42.048   3.302   2.222
54599W        W19760  25.199   4.931   2.411
54600W        W19761   2.989  28.190   3.304
54601W        W19762  11.271  13.266   3.572
54602W        W19763  42.982  13.416   0.338
54603W        W19764  32.631   7.943  13.952
54604W        W19765  18.334  35.143  13.907
54605W        W19766  13.773  26.603   1.043
54606W        W19767   9.929  26.019  12.388
54607W        W19768   3.318  37.580  14.704
54608W        W19769  42.424  21.596   2.157
54609W        W19770   7.747  25.509  11.580
54610W        W19771  24.986  19.610  11.975
54611W        W19772   6.775   2.709   3.655
54612W        W19773   5.590  29.165  13.572
54613W        W19774  19.193   8.355   0.049
54614W        W19775  16.263  18.259   4.563
54615W        W19776  14.286  43.005  12.065
54616W        W19777  14.842  11.717  13.934
54617W        W19778  27.757  18.080  14.452
54618W        W19779  37.984  39.848  10.851
54619W        W19780  42.357  24.079   2.652
54620W        W19781  21.486   0.284  13.284
54621W        W19782  35.719  19.901   3.220
54622W        W19783  14.776  32.553   1.162
54623W        W19784   8.323  13.542   3.240
54624W        W19785  18.365   5.390   2.188
54625W        W19786  43.064  27.601  12.364
54626W        W19787   3.954  27.870  11.949
54627W        W19788   3.273  37.347  12.842
54628W        W19789  26.002  13.594  10.811
54629W        W19790   8.472  37.149   2.750
54630W        W19791  19.550  37.735  14.799
54631W        W19792  25.191   2.692   3.374
54632W        W19793  17.404  22.239   0.836
54633W        W19794  33.900  21.620   9.929
54634W        W19795  37.197  24.179  11.517
54635W        W19796  41.886  13.575  13.275
54636W        W19797  40.375  14.709   4.634
54637W        W19798  16.275  13.837  12.684
54638W        W19799   3.189   6.764   3.312
54639W        W19800  35.638  26.667  14.535
54640W        W19801  15.063   2.986   2.572
54641W        W19802  15.289  20.322  14.295
54642W        W19803  44.959  33.003  13.158
54643W        W19804  40.038  18.034  10.688
54644W        W19805   4.224  34.382  11.764
54645W        W19806   9.151   6.892  12.875
54646W        W19807  20.708  17.701   3.043
54647W        W19808  35.494  23.637  13.291
54648W        W19809   6.795   5.099  13.461
54649W        W19810  17.634  40.157  12.288
54650W        W19811  41.921  14.942  12.864
54651W        W19812  17.612  35.525   0.698
54652W        W19813  39.072   6.247   0.910
54653W        W19814  42.045  43.923  14.305
54654W        W19815   9.269  28.106   1.781
54655W        W19816  39.994  35.467  14.749
54656W        W19817  29.222  13.636  11.589
54657W        W19818   6.608  29.646   1.181
54658W        W19819  37.125  15.892   0.764
54659W        W19820  16.507  10.737  13.861
54660W        W19821  12.232  28.442   3.192
54661W        W19822  31.529  10.267   0.211
54662W        W19823  10.133  37.982  14.499
54663W        W19824  39.103  29.112   4.622
54664W        W19825  44.428   4.920  11.134
54665W        W19826  43.658  19.749  11.722
54666W        W19827  31.814  21.712  14.758
54667W        W19828  40.242   1.975  11.194
54668W        W19829  30.213   9.115  11.558
54669W        W19830  19.955   1.859   1.857
54670W        W19831  15.893  21.746   0.006
54671W        W19832  22.670   5.450  12.125
54672W        W19833   7.714   5.270   1.492
54673W        W19834  37.043  11.123   2.208
54674W        W19835   6.441  15.223  14.131
54675W        W19836  34.373  16.594  14.990
54676W        W19837  17.564  16.496  13.081
54677W        W19838  28.661  41.890   4.309
54678W        W19839   9.832   6.225  10.535
54679W        W19840  15.171  32.030  10.744
54680W        W19841  43.754  19.194  10.719
54681W        W19842   3.727  15.722   3.227
54682W        W19843   1.804  39.398   3.695
54683W        W19844  28.124  13.853  11.194
54684W        W19845  18.331  10.237  11.246
54685W        W19846  40.774  43.743  11.180
54686W        W19847  27.989  12.708   0.365
54687W        W19848  36.389  27.152  14.368
54688W        W19849   0.298  38.808   0.392
54689W        W19850   1.857   8.167   0.719
54690W        W19851  26.393   1.420  10.682
54691W        W19852  15.444  10.721  11.222
54692W        W19853  34.139   2.847  13.303
54693W        W19854  28.774  43.031   2.805
54694W        W19855  43.951  32.057   3.710
54695W        W19856  24.034  27.676  12.306
54696W        W19857  25.296  21.619   9.725
54697W        W19858   5.233  21.646   1.936
54698W        W19859  43.909   8.137   0.031
54699W        W19860  16.176  30.779   2.768
54700W        W19861  25.673  21.990  10.817
54701W        W19862  41.651   8.709  14.514
54702W        W19863  35.473  13.519   4.068
54703W        W19864  30.833   1.753  13.278
54704W        W19865   0.518   8.222  10.638
54705W        W19866  24.607  39.716  13.849
54706W        W19867  27.525  19.170  10.722
54707W        W19868  43.837  24.176   1.960
54708W        W19869   6.340   1.993  12.915
54709W        W19870  25.458  27.180  11.388
54710W        W19871   0.722  39.345  14.232
54711W        W19872  26.390   1.733  11.179
54712W        W19873  22.442  24.586  10.302
54713W        W19874  23.129  16.144  12.043
54714W        W19875  18.063  43.527  14.509
54715W        W19876  33.339  20.575   0.416
54716W        W19877  14.562   5.786  14.327
54717W        W19878  18.745  15.108   3.609
54718W        W19879  22.086  34.186   0.967
54719W        W19880  30.253  23.211  11.508
54720W        W19881  40.552  37.801  12.895
54721W        W19882  20.273   0.871  12.528
54722W        W19883  43.342  44.372  14.347
54723W        W19884  41.212  44.016  14.934
54724W        W19885   7.098  25.983   0.395
54725W        W19886  13.185  32.093  10.599
54726W        W19887  44.073  32.766   0.980
54727W        W19888  29.442  16.704   2.404
54728W        W19889  15.767  21.095   3.604
54729W        W19890  29.779  18.207   2.767
54730W        W19891  15.670  20.274  13.962
54731W        W19892  36.867  44.518   0.006
54732W        W19893  22.999  38.803   2.192
54733W        W19894  20.732   3.777  13.181
54734W        W19895  36.902  10.616  12.356
54735W        W19896  43.005  28.471  12.485
54736W        W19897  12.863  32.362   0.504
54737W        W19898  13.334  11.595   2.398
54738W        W19899  17.567  42.518  12.629
54739W        W19900  34.421  32.367   3.664
54740W        W19901  15.698  14.654  12.997
54741W        W19902  17.700  32.543   1.589
54742W        W19903  10.218  37.257  12.983
54743W        W19904   5.555  24.470  12.643
54744W        W19905   5.406  20.975  10.937
54745W        W19906  15.125  13.519  13.347
54746W        W19907  33.813   8.726   3.637
54747W        W19908   0.001   0.221  14.022
54748W        W19909  13.312   5.854  11.932
54749W        W19910   2.414  37.404  11.198
54750W        W19911  10.759  21.524  14.947
54751W        W19912   0.435  44.710   1.444
54752W        W19913  18.662   2.002   4.260
54753W        W19914  17.612   2.396  13.053
54754W        W19915  11.518  21.132   5.093
54755W        W19916   8.953   1.769  12.497
54756W        W19917  44.991   4.474   2.920
54757W        W19918   9.354  20.736   3.861
54758W        W19919  32.008  28.196   5.029
54759W        W19920  23.177  35.438   4.869
54760W        W19921  16.029   4.773  13.296
54761W        W19922  14.075  15.112  12.380
54762W        W19923  17.682   2.048   0.911
54763W        W19924   0.921   2.016  12.131
54764W        W19925  24.097   0.139  12.810
54765W        W19926  24.715  34.427  12.160
54766W        W19927  15.914  21.555   2.554
54767W        W19928  38.996   4.919   3.387
54768W        W19929  27.453  10.184   4.587
54769W        W19930  30.917   4.898  12.116
54770W        W19931  38.766   0.005   3.217
54771W        W19932  18.237  39.509  13.996
54772W        W19933   0.290   3.631  10.039
54773W        W19934  18.712  18.498  12.882
54774W        W19935  29.683  31.749   5.035
54775W        W19936   9.974  35.968  11.497
54776W        W19937  41.888  26.752  13.945
54777W        W19938   8.802  35.161   4.695
54778W        W19939  15.628  38.402  10.729
54779W        W19940   2.730  42.587   0.405
54780W        W19941  37.379   8.140   2.746
54781W        W19942  24.546  44.886  11.121
54782W        W19943  43.941  43.697  11.921
54783W        W19944   3.496  14.204  14.133
54784W        W19945  25.143  12.063  13.087
54785W        W19946  16.566   9.943  14.771
54786W        W19947  31.462  31.537   0.451
54787W        W19948  33.562  35.101  12.822
54788W        W19949  21.902  42.391   3.158
54789W        W19950  44.017   2.467  11.080
54790W        W19951  34.839   6.999  14.289
54791W        W19952  18.787  30.056  13.703
54792W        W19953  29.510  16.823  13.621
54793W        W19954  38.258  21.658   4.458
54794W        W19955  25.432  19.318   3.288
54795W        W19956  10.664  26.131   3.432
54796W        W19957  44.024   4.315   2.838
54797W        W19958   9.586  44.040  12.039
54798W        W19959  35.067  34.107   0.039
54799W        W19960  35.079  41.772   4.113
54800W        W19961   6.231   5.697   4.848
54801W        W19962  14.396  29.541   3.687
54802W        W19963  29.603  24.492  12.993
54803W        W19964  18.268   1.218   2.457
54804W        W19965   4.859  38.594   2.823
54805W        W19966  24.770  41.528   2.722
54806W        W19967  44.599  41.222   4.232
54807W        W19968   3.939   0.787  10.891
54808W        W19969  31.986  34.876   1.320
54809W        W19970  21.757  14.838   1.800
54810W        W19971   0.895  15.321  13.433
54811W        W19972   1.348  25.976  14.978
54812W        W19973  40.286  15.641   2.640
54813W        W19974  17.008  11.072  12.907
54814W        W19975  32.756  16.754  10.528
54815W        W19976   5.402  14.921   3.161
54816W        W19977  27.775  42.050  10.178
54817W        W19978  40.949  38.615  12.137
54818W        W19979  23.701  30.091  12.008
54819W        W19980  31.101  11.775  12.337
54820W        W19981  30.857  10.756   2.311
54821W        W19982   9.466   0.801  12.156
54822W        W19983   2.257  40.297  13.402
54823W        W19984  25.637  40.938   4.769
54824W        W19985  10.691  17.611   1.298
54825W        W19986  29.654  32.597   2.812
54826W        W19987   4.662  33.514  12.361
54827W        W19988  11.829  12.701   4.084
54828W        W19989  24.036   2.034   1.141
54829W        W19990  14.646   7.788   3.162
54830W        W19991  35.118   9.787  12.072
54831W        W19992  21.640  41.859  14.847
54832W        W19993   4.964  19.478   2.447
54833W        W19994  10.615   0.291  12.882
54834W        W19995  11.798  32.836  13.321
54835W        W19996  44.752   1.294   4.660
54836W        W19997   9.750   8.900  13.747
54837W        W19998  40.384  24.249  12.097
54838W        W19999  32.404  14.783   3.974
54839W        W20000  38.525  14.260  13.934
54840W        W20001  17.763   6.902  14.479
54841W        W20002  38.956   0.129  11.576
54842W        W20003  17.296  41.451   0.329
54843W        W20004  44.753  19.328  13.042
54844W        W20005  20.643  31.819  12.583
54845W        W20006  26.649   4.309  14.099
54846W        W20007  11.619  29.194   0.017
54847W        W20008  23.203  43.485   4.843
54848W        W20009  17.192   3.987   3.177
54849W        W20010  13.307  21.737   4.939
54850W        W20011  10.661  39.051   0.447
54851W        W20012  21.196   9.446   0.610
54852W        W20013  44.036  41.833   4.076
54853W        W20014   1.906  13.152   0.433
54854W        W20015   6.972  11.154   3.231
54855W        W20016  19.640  11.625  11.558
54856W        W20017  27.513  27.383  14.469
54857W        W20018  41.302  30.730   3.122
54858W        W20019  29.514  16.639  13.134
54859W        W20020   6.424   3.370   3.210
54860W        W20021  28.445  39.096  12.527
54861W        W20022  30.155  17.611   0.454
54862W        W20023  13.644   0.251   4.882
54863W        W20024  35.523  31.076   2.477
54864W        W20025  13.409   7.186  11.579
54865W        W20026  34.797  25.402   0.476
54866W        W20027  30.938  19.680   5.054
54867W        W20028  20.290  42.821   2.337
54868W        W20029  36.382  43.886   4.183
54869W        W20030  37.436   5.920   4.140
54870W        W20031  34.874  25.244  10.306
54871W        W20032  29.390  39.602  14.854
54872W        W20033  30.925  29.956   4.354
54873W        W20034  21.755  15.234   3.743
54874W        W20035   7.174  19.272  13.999
54875W        W20036  16.393  34.077   0.800
54876W        W20037  25.476   2.308  13.578
54877W        W20038  39.104  43.328  10.141
54878W        W20039  15.662  16.127  12.069
54879W        W20040  34.701   0.442  12.568
54880W        W20041  27.094  35.447   2.627
54881W        W20042  44.891  43.138  11.314
54882W        W20043  37.908  26.639  13.535
54883W        W20044  31.389   6.506  14.056
54884W        W20045   2.002  13.565   3.811
54885W        W20046   6.146  17.035   2.696
54886W        W20047  15.490  32.879  10.705
54887W        W20048  10.067  29.046   1.089
54888W        W20049   3.254  36.973  11.923
54889W        W20050  16.707  19.474  12.135
54890W        W20051  34.805   1.292  14.621
54891W        W20052  44.708  11.172   2.735
54892W        W20053  20.674   0.731  12.841
54893W        W20054  40.946  13.614  11.039
54894W        W20055  13.375   8.924  13.936
54895W        W20056  17.156  18.196  12.628
54896W        W20057  31.375   2.421  12.901
54897W        W20058  40.591  29.817  12.952
54898W        W20059  17.583   7.111  14.031
54899W        W20060  30.246  33.350  10.980
54900W        W20061  16.249  16.564   4.111
54901W        W20062   4.184  31.159  14.539
54902W        W20063  41.554   8.153  12.515
54903W        W20064  33.505  18.750   3.557
54904W        W20065  27.254  41.816   0.498
54905W        W20066  10.602  38.354   4.686
54906W        W20067  44.204   0.312  12.134
54907W        W20068   8.156  40.839  13.114
54908W        W20069  38.096  22.748  10.737
54909W        W20070  33.038   0.253   0.204
54910W        W20071  39.973   2.520   3.660
54911W        W20072  15.312  23.679   3.189
54912W        W20073  23.934  33.070   3.239
54913W        W20074   8.183   7.338   0.913
54914W        W20075  10.925  19.049   0.814
54915W        W20076   6.230   9.090   1.460
54916W        W20077  29.596   9.755   2.935
54917W        W20078  29.484  43.797   2.645
54918W        W20079  11.143  24.664  11.227
54919W        W20080  40.794  21.298   1.448
54920W        W20081  43.293   3.678   3.684
54921W        W20082  44.709  40.729   3.254
54922W        W20083  23.284  22.929  10.428
54923W        W20084   2.268  44.859  14.186
54924W        W20085  38.087  31.811   0.387
54925W        W20086  31.688  32.948  14.019
54926W        W20087  35.167  19.652  11.234
54927W        W20088  16.752  35.409   0.787
54928W        W20089  13.194  41.119   2.285
54929W        W20090  17.240  36.541  11.641
54930W        W20091   3.243  27.176  13.530
54931W        W20092  14.107   9.237   4.435
54932W        W20093  25.964   8.750   2.411
54933W        W20094  12.381  12.904   0.779
54934W        W20095  19.546   1.476  14.322
54935W        W20096   5.626  15.759   2.084
54936W        W20097  32.983   8.317  12.039
54937W        W20098  19.621  11.829  14.895
54938W        W20099  18.351  13.559  13.988
54939W        W20100  12.262  23.676  12.148
54940W        W20101  32.402  28.190  14.582
54941W        W20102   8.663  34.757   0.309
54942W        W20103   0.771  28.557  12.501
54943W        W20104   8.766   1.850  12.026
54944W        W20105  20.340  28.278  12.865
54945W        W20106  24.084  10.807  11.187
54946W        W20107   2.043  31.155  11.199
54947W        W20108  18.592   7.567   3.319
54948W        W20109  14.722  35.506   0.016
54949W        W20110  30.076  41.510   1.000
54950W        W20111   4.708  43.244   1.361
54951W        W20112  15.779   0.993  10.596
54952W        W20113   7.807   3.339  10.997
54953W        W20114  31.953  37.418   1.969
54954W        W20115  39.001  41.079  13.175
54955W        W20116  21.178  13.802   2.212
54956W        W20117  26.338  23.577  13.436
54957W        W20118  44.988  19.544  12.623
54958W        W20119  42.761  20.821   1.793
54959W        W20120  34.784   5.386   1.887
54960W        W20121  29.057  13.917  11.183
54961W        W20122  43.450  10.108  11.040
54962W        W20123  30.647  15.302  11.161
54963W        W20124  37.856  34.789  12.585
54964W        W20125  25.461  10.223  12.415
54965W        W20126  12.107  43.847   1.061
54966W        W20127  40.148  10.269  11.589
54967W        W20128  17.130   2.696   3.661
54968W        W20129  32.339  36.499   1.683
54969W        W20130  11.549  24.010   4.131
54970W        W20131  28.223  23.312  14.474
54971W        W20132  19.839  27.590   3.113
54972W        W20133  24.364  37.274  14.905
54973W        W20134  11.455   8.890  13.772
54974W        W20135   1.757   9.353   1.934
54975W        W20136  33.610   3.850   1.951
54976W        W20137   5.592   3.727   1.411
54977W        W20138  30.100  20.339  13.345
54978W        W20139  25.160  25.145   2.166
54979W        W20140  10.723  34.166  14.753
54980W        W20141  19.282   9.172  13.897
54981W        W20142  24.008  17.855  14.420
54982W        W20143  43.362  39.883   3.105
54983W        W20144  16.367  12.861   3.922
54984W        W20145  27.598  27.075  13.030
54985W        W20146  10.668  13.307  11.101
54986W        W20147  34.685  20.310   1.391
54987W        W20148  28.615  32.423   2.797
54988W        W20149   0.134  10.765   4.656
54989W        W20150  16.619  11.420   2.953
54990W        W20151  24.867  40.894  10.574
54991W        W20152  19.507  12.542   4.006
54992W        W20153   2.999  14.788  13.854
54993W        W20154  19.265  24.928   2.870
54994W        W20155  32.077  35.094  14.333
54995W        W20156  27.930  37.034   3.724
54996W        W20157  15.969  29.008  11.484
54997W        W20158  39.094   9.739  12.823
54998W        W20159  19.668  22.117   4.688
54999W        W20160  38.356  22.626   3.836
55000W        W20161  17.703  19.107   1.285
55001W        W20162  17.404  26.624   1.868
55002W        W20163  12.300  22.523   1.489
55003W        W20164   6.187  23.617  10.653
55004W        W20165   8.873  29.133   3.738
55005W        W20166  27.686  42.023   4.081
55006W        W20167   9.743  14.293  13.817
55007W        W20168  37.470  32.547  14.243
55008W        W20169  40.896  25.249   2.328
55009W        W20170  35.500  33.414  11.464
55010W        W20171  11.927  39.803   4.938
55011W        W20172   1.915  32.841   3.720
55012W        W20173   2.998  28.398  14.382
55013W        W20174  43.905   5.636  14.283
55014W        W20175  21.813  15.778  14.936
55015W        W20176   3.983  37.035   3.349
55016W        W20177   8.282  36.653  13.422
55017W        W20178   9.835  24.245   0.547
55018W        W20179   7.342  37.045  12.670
55019W        W20180  17.066  25.455   2.795
55020W        W20181  20.207  10.513   1.790
55021W        W20182   2.834  23.730   0.327
55022W        W20183  29.888  16.016   0.805
55023W        W20184  32.714  19.645  13.300
55024W        W20185  40.386   8.631   4.268
55025W        W20186  25.654  24.594   3.103
55026W        W20187   8.166   0.350  10.987
55027W        W20188  30.606  15.256  13.536
55028W        W20189   4.296   4.166   1.128
55029W        W20190  31.414  26.601   1.005
55030W        W20191  23.637  27.227  14.775
55031W        W20192  31.638  33.161   3.579
55032W        W20193  29.083   6.457   3.189
55033W        W20194  14.048  27.153   1.766
55034W        W20195  33.492  41.895   0.402
55035W        W20196   2.171  10.163   3.289
55036W        W20197  14.181  27.721   2.833
55037W        W20198   1.870   4.494   1.830
55038W        W20199  30.488   7.679  13.966
55039W        W20200   4.687  30.497  14.046
55040W        W20201  34.982  30.106   2.232
55041W        W20202  15.614  21.202   0.212
55042W        W20203  18.233  37.335  12.522
55043W        W20204  29.576  38.664   0.276
55044W        W20205  13.209  40.002  11.032
55045W        W20206  41.346   5.759  11.012
55046W        W20207   7.208   4.484   2.708
55047W        W20208  10.977   7.979  14.704
55048W        W20209  25.168  30.657  13.733
55049W        W20210  14.365  12.029   1.794
55050W        W20211  33.512  31.177   3.612
55051W        W20212  22.328  12.412   1.404
55052W        W20213  17.257  24.275   4.262
55053W        W20214  42.727  11.299   1.680
55054W        W20215   5.191   2.691   0.842
55055W        W20216  29.183   2.917  11.649
55056W        W20217  42.642  27.990  13.088
55057W        W20218  44.553  44.878  14.565
55058W        W20219  17.673  27.158  14.133
55059W        W20220  11.557  29.187  13.539
55060W        W20221   4.743  26.292   0.873
55061W        W20222  35.199  33.645   2.278
55062W        W20223   1.278  26.588  11.573
55063W        W20224   9.473  20.092   4.505
55064W        W20225  39.834  27.196  12.920
55065W        W20226  42.492  44.701   0.382
55066W        W20227  39.477  21.758   1.921
55067W        W20228  29.620  22.130   4.686
55068W        W20229  30.382   0.006  14.971
55069W        W20230  15.584  32.960   2.413
55070W        W20231  17.859  34.532  11.611
55071W        W20232   7.718  18.599  14.866
55072W        W20233  39.483  33.642  11.906
55073W        W20234  25.196  38.810   4.076
55074W        W20235  19.530  34.367  11.209
55075W        W20236   5.867  29.201   2.640
55076W        W20237   9.088  21.295  12.675
55077W        W20238  30.846  15.300   0.249
55078W        W20239  29.878   6.354   4.641
55079W        W20240  16.830  21.449  14.706
55080W        W20241  35.452  22.879  12.222
55081W        W20242  22.808   3.763   3.350
55082W        W20243  22.755   7.294  14.777
55083W        W20244  29.618   7.396   0.745
55084W        W20245  19.746  12.800   1.632
55085W        W20246  28.158  38.879  14.354
55086W        W20247   6.006  14.801  12.395
55087W        W20248  31.421  20.544   0.847
55088W        W20249  36.592  35.413  12.422
55089W        W20250  35.166  42.549   2.268
55090W        W20251  11.930  19.295  12.103
55091W        W20252  19.472  13.095  10.687
55092W        W20253  41.763  37.116   3.700
55093W        W20254  20.938  26.471  11.064
55094W        W20255  11.868  29.231   4.931
55095W        W20256  34.366  36.071  10.184
55096W        W20257  34.300   5.453   0.545
55097W        W20258  12.060  44.566  13.167
55098W        W20259  22.667   5.808  11.251
55099W        W20260  34.087   8.675  13.739
55100W        W20261  31.430  37.956  10.762
55101W        W20262  23.684  14.056  13.613
55102W        W20263  21.288  36.427  13.816
55103W        W20264  43.537  42.362  14.960
55104W        W20265  16.183  42.334  14.963
55105W        W20266  25.519  41.794   0.871
55106W        W20267  20.139  43.307  10.629
55107W        W20268  16.606  24.285   1.899
55108W        W20269  14.523  36.179  11.189
55109W        W20270  10.158   3.809  13.095
55110W        W20271  20.596  40.166  10.175
55111W        W20272   0.193  38.771   2.972
55112W        W20273  13.332   8.139   2.258
55113W        W20274  20.047  17.280  12.056
55114W        W20275  38.976  32.440  10.586
55115W        W20276  33.446  13.111  10.459
55116W        W20277  11.897  30.429  14.461
55117W        W20278  41.263   9.866  11.528
55118W        W20279  18.273  22.759   2.182
55119W        W20280  29.910   4.410   2.274
55120W        W20281  40.046  27.693   4.054
55121W        W20282  34.982  16.747   2.426
55122W        W20283  28.068  41.395  10.662
55123W        W20284  13.892   7.323  11.462
55124W        W20285   8.443   1.222  10.668
55125W        W20286  24.291  13.205   0.725
55126W        W20287  10.359   1.457  12.508
55127W        W20288  33.882  22.789  14.543
55128W        W20289  26.105  29.405   1.377
55129W        W20290  33.963  19.653   0.382
55130W        W20291  22.657  32.582  12.562
55131W        W20292  29.355   8.042  12.551
55132W        W20293  17.305  20.467  11.017
55133W        W20294  34.348  21.971  12.520
55134W        W20295  17.723  32.521  11.244
55135W        W20296  38.516  33.667  12.673
55136W        W20297  36.121  38.234  12.674
55137W        W20298  30.836  19.075   4.932
55138W        W20299  10.576  27.931   3.281
55139W        W20300  33.054  17.815   2.302
55140W        W20301  10.034   8.861   0.059
55141W        W20302  17.754  42.273  13.078
55142W        W20303  26.016  28.387   1.441
55143W        W20304   1.625  32.867  11.838
55144W        W20305  28.902  25.415   2.905
55145W        W20306  11.611   0.443   1.318
55146W        W20307   3.153   8.797  10.795
55147W        W20308  43.510  18.017  11.116
55148W        W20309  16.187  37.365  14.067
55149W        W20310  42.760   2.933  11.181
55150W        W20311   3.633   7.746   2.076
55151W        W20312  15.126  35.368   3.723
55152W        W20313  37.007  10.934  12.755
55153W        W20314  36.927  24.841  12.880
55154W        W20315  41.361  31.564   2.334
55155W        W20316  22.606  15.642  13.365
55156W        W20317  37.437   1.215   1.534
55157W        W20318   0.320   4.365  13.574
55158W        W20319  11.595   1.260   4.106
55159W        W20320  42.502  28.425  12.365
55160W        W20321  19.104  24.270  13.085
55161W        W20322  27.000  38.029  11.963
55162W        W20323  28.191   7.291   2.604
55163W        W20324  11.341  10.577  11.108
55164W        W20325   6.730  30.739   2.831
55165W        W20326  20.592  12.848  11.152
55166W        W20327  28.601   1.489  10.565
55167W        W20328   0.911  22.117  11.953
55168W        W20329   4.910  38.644   1.450
55169W        W20330  42.287  23.182   3.121
55170W        W20331  35.671  12.901  13.479
55171W        W20332  37.097   9.889  14.870
55172W        W20333  11.831  30.994  10.757
55173W        W20334  44.301   4.626   1.563
55174W        W20335  19.342  36.538   1.825
55175W        W20336  44.119   2.154   0.779
55176W        W20337   1.190   3.229   1.423
55177W        W20338  19.694   4.893   3.001
55178W        W20339  38.116  17.565   0.518
55179W        W20340  20.452  27.473  12.570
55180W        W20341  28.388   3.194  11.486
55181W        W20342  34.597  10.149  14.843
55182W        W20343  15.590  25.409   3.536
55183W        W20344  18.622  39.377  10.240
55184W        W20345  16.403  26.531   1.770
55185W        W20346  13.370   2.114   5.131
55186W        W20347  37.550   1.790   4.356
55187W        W20348  12.184  36.021   0.995
55188W        W20349  28.732  29.643   1.841
55189W        W20350   5.418   0.298  13.780
55190W        W20351  27.128  27.237   4.276
55191W        W20352  37.645  23.578   2.822
55192W        W20353  22.531   3.415  14.717
55193W        W20354   7.700   7.420   2.823
55194W        W20355  29.741   4.680   0.826
55195W        W20356  40.734  19.059   1.920
55196W        W20357  37.098  15.795   2.179
55197W        W20358  11.089  20.628   4.038
55198W        W20359  38.304   4.902  13.852
55199W        W20360  39.409  36.145  10.757
55200W        W20361  24.522  26.471   2.208
55201W        W20362  11.068  16.186  13.599
55202W        W20363  37.852   1.049   1.793
55203W        W20364  25.665  44.335   4.780
55204W        W20365   7.744   3.867   1.565
55205W        W20366  10.736  27.735   2.431
55206W        W20367  14.237  29.559  14.569
55207W        W20368  21.672  14.099   4.634
55208W        W20369   5.714  23.670  12.880
55209W        W20370  13.895  42.454  10.508
55210W        W20371   5.488   8.819  12.976
55211W        W20372  40.942  24.798  12.534
55212W        W20373   5.778  13.679   3.385
55213W        W20374  17.413  37.485   3.743
55214W        W20375  18.164  43.838  13.551
55215W        W20376  23.577  37.395  12.968
55216W        W20377  14.655   9.197  13.583
55217W        W20378  29.013  26.868   3.848
55218W        W20379   1.739  34.898  12.676
55219W        W20380   5.772   2.232  13.238
55220W        W20381  39.790   2.748   0.413
55221W        W20382   0.024  33.518   2.000
55222W        W20383  36.351  24.212  13.365
55223W        W20384   0.694   6.174  14.730
55224W        W20385  35.413   1.815  12.091
55225W        W20386  16.206  33.391  10.596
55226W        W20387  37.045  14.873  12.506
55227W        W20388   8.226  27.166   4.045
55228W        W20389  23.062  18.346   0.890
55229W        W20390  40.097  24.061  14.832
55230W        W20391  44.814   0.262   2.802
55231W        W20392  29.448  35.058   0.482
55232W        W20393   9.373  10.871  12.000
55233W        W20394  35.827   9.016  11.696
55234W        W20395  27.564  17.341  10.950
55235W        W20396   0.985  21.067   0.422
55236W        W20397   8.124  31.956   3.677
55237W        W20398  42.041   8.179  10.603
55238W        W20399  21.446  35.101  11.607
55239W        W20400  31.494  19.745   2.613
55240W        W20401  43.069  41.213   2.780
55241W        W20402   7.368  44.494  11.897
55242W        W20403  31.609  27.213  14.892
55243W        W20404  18.664  29.534  14.957
55244W        W20405  37.492   4.254  10.590
55245W        W20406  13.614  18.729  12.241
55246W        W20407  28.332  43.978  12.001
55247W        W20408  40.897  12.671  14.446
55248W        W20409   6.944  11.508   1.142
55249W        W20410  15.748  43.030  12.808
55250W        W20411  37.662  21.989  12.556
55251W        W20412  16.549  44.561   0.429
55252W        W20413  44.347  42.804  10.356
55253W        W20414  37.871  44.963  14.909
55254W        W20415  32.672  18.287  14.979
55255W        W20416  12.556  43.463   4.636
55256W        W20417  15.840   4.203   2.011
55257W        W20418  11.373  43.713   3.731
55258W        W20419   1.123  15.531  13.023
55259W        W20420  26.649  14.626  13.041
55260W        W20421  41.978   9.308  11.912
55261W        W20422  13.259  21.231   0.960
55262W        W20423  43.330  20.595   2.972
55263W        W20424  38.509  38.953   1.059
55264W        W20425  30.020  24.584   0.701
55265W        W20426  23.960  44.842  10.667
55266W        W20427  14.257  38.368  14.655
55267W        W20428  23.126  30.379  14.894
55268W        W20429  35.137  16.320   3.671
55269W        W20430  30.412  25.574  11.581
55270W        W20431   1.428  29.073  13.332
55271W        W20432  19.807  42.833   4.512
55272W        W20433  27.032  31.587   0.219
55273W        W20434   7.925  13.720   2.810
55274W        W20435  34.800  24.559   1.785
55275W        W20436  33.328  33.292   0.858
55276W        W20437   1.239  18.278  12.462
55277W        W20438  36.651  21.468   3.081
55278W        W20439   6.886  25.284   4.106
55279W        W20440  27.722  17.197   2.805
55280W        W20441  12.436   2.232  13.544
55281W        W20442  42.421  18.041  14.358
55282W        W20443  44.660   5.934   2.686
55283W        W20444  10.235  14.214   4.673
55284W        W20445  44.448  23.108  11.039
55285W        W20446   1.756   4.217   2.680
55286W        W20447  10.203  33.910   0.788
55287W        W20448  18.844  36.695   2.774
55288W        W20449  12.764  28.384   2.631
55289W        W20450  36.303  14.824  10.727
55290W        W20451  39.414  20.693  12.267
55291W        W20452  10.095  38.529  13.418
55292W        W20453  18.346  15.081   2.302
55293W        W20454   4.683  27.177  14.798
55294W        W20455  16.340  32.942   3.682
55295W        W20456   3.294  38.110  14.047
55296W        W20457   6.915  18.345  11.026
55297W        W20458  24.227  18.107  13.536
55298W        W20459  16.065  10.392  14.411
55299W        W20460  27.035  13.379   2.236
55300W        W20461   0.376  32.846   2.778
55301W        W20462  15.472  33.309  12.539
55302W        W20463  24.764  19.531  10.283
55303W        W20464  36.930  10.791  11.360
55304W        W20465  20.045  35.614  11.835
55305W        W20466   1.968  26.174   3.807
55306W        W20467  29.572  44.488   4.743
55307W        W20468  28.569  12.846   1.815
55308W        W20469   4.817  29.025  14.422
55309W        W20470   1.315  20.873   4.330
55310W        W20471   1.565  28.105  14.342
55311W        W20472  34.424  28.544  13.593
55312W        W20473  11.765  20.585   1.799
55313W        W20474  31.208   6.733   4.289
55314W        W20475  15.192  30.895   0.785
55315W        W20476   9.622   5.951   4.767
55316W        W20477  42.698  23.655   1.736
55317W        W20478  21.733  42.259   1.452
55318W        W20479  32.611  24.610  11.131
55319W        W20480  35.048  39.977  10.615
55320W        W20481  12.815   5.892  13.982
55321W        W20482   9.728  33.273  13.048
55322W        W20483  11.133  31.897   2.942
55323W        W20484   8.140   8.840  14.505
55324W        W20485   5.965  31.022   2.416
55325W        W20486   2.056  29.945  14.952
55326W        W20487   5.003   0.423  12.863
55327W        W20488  44.362  29.597   0.204
55328W        W20489  38.126  22.280  14.866
55329W        W20490  33.012  31.397   3.698
55330W        W20491  43.319  23.968  13.048
55331W        W20492  20.598  32.090  13.020
55332W        W20493   6.254  42.911  11.103
55333W        W20494  11.753   0.489  11.674
55334W        W20495  33.911  26.913  13.191
55335W        W20496  13.260   7.903   1.766
55336W        W20497  44.953  36.889  14.393
55337W        W20498  33.137  25.545  14.010
55338W        W20499  40.548  36.970   0.834
55339W        W20500  12.609  30.154  14.062
55340W        W20501  15.944  30.662   3.755
55341W        W20502  28.435  18.654  12.459
55342W        W20503  10.714  29.579  12.606
55343W        W20504  18.554   4.606   0.451
55344W        W20505  40.560  18.055  10.702
55345W        W20506  23.056  20.855  13.124
55346W        W20507  33.249  32.544   3.084
55347W        W20508  27.061  44.230   2.917
55348W        W20509   7.889  43.839   1.698
55349W        W20510  29.575  18.516   3.142
55350W        W20511  21.654  38.068  11.591
55351W        W20512  11.597   0.987  11.755
55352W        W20513   2.857  38.639  10.316
55353W        W20514  22.454  25.193   4.026
55354W        W20515   4.817   2.926   1.911
55355W        W20516  13.316  21.025  12.307
55356W        W20517  20.655  32.185   0.346
55357W        W20518  24.755   3.283   0.838
55358W        W20519  36.979  31.223   0.312
55359W        W20520  31.568  36.297   1.365
55360W        W20521  33.191  21.193  12.415
55361W        W20522  22.220  37.738   2.408
55362W        W20523  19.066  27.774   3.301
55363W        W20524  16.791   3.692  10.706
55364W        W20525  41.468  40.965   3.627
55365W        W20526  31.898   0.516  12.034
55366W        W20527  21.632  10.196  11.181
55367W        W20528   5.008  38.734   0.006
55368W        W20529  12.582  42.789   2.714
55369W        W20530  40.866   0.933   0.857
55370W        W20531  36.417  38.439  13.044
55371W        W20532  10.108  37.088  13.457
55372W        W20533  31.194   0.617  12.492
55373W        W20534  20.146  35.122  13.638
55374W        W20535  15.673  28.454   3.805
55375W        W20536  18.273  15.826   1.431
55376W        W20537  17.516  20.920  11.131
55377W        W20538  12.138  13.318  11.454
55378W        W20539  41.892   1.221   3.203
55379W        W20540  30.918  21.196   4.079
55380W        W20541  41.436  24.261  12.665
55381W        W20542   6.061   3.880   1.222
55382W        W20543   1.885  18.265   1.375
55383W        W20544  35.821   0.727   1.388
55384W        W20545  37.358   6.889  11.555
55385W        W20546  39.663  33.858   3.546
55386W        W20547   2.257   9.844   5.539
55387W        W20548  30.446   2.846  11.047
55388W        W20549  30.337   8.906  13.521
55389W        W20550  34.495   7.630   0.539
55390W        W20551  39.332  21.007   3.164
55391W        W20552  32.712  41.240  11.448
55392W        W20553   6.074  26.949  12.816
55393W        W20554  42.262  29.462   1.213
55394W        W20555   4.158  30.850   2.887
55395W        W20556  11.572  15.869   4.493
55396W        W20557  27.193  27.952   3.648
55397W        W20558   3.448  25.915   3.670
55398W        W20559   9.624  43.117  12.144
55399W        W20560  28.520   1.771   2.637
55400W        W20561  26.676  35.678   0.316
55401W        W20562  29.147  40.081  11.232
55402W        W20563  22.996  39.755  10.606
55403W        W20564  11.036  21.627  13.406
55404W        W20565   8.628  37.156  12.010
55405W        W20566  44.372  27.864  12.916
55406W        W20567  13.517   4.347   4.761
55407W        W20568  44.950  38.526  12.368
55408W        W20569  15.174  44.946  13.198
55409W        W20570   4.740   3.863   1.119
55410W        W20571  18.072   0.439  10.766
55411W        W20572  26.620  31.960   3.730
55412W        W20573  24.519  43.569  13.978
55413W        W20574  20.116  20.788   2.941
55414W        W20575  36.191  13.014  11.544
55415W        W20576   3.263  35.797   2.202
55416W        W20577  39.557  23.149   3.388
55417W        W20578  41.569  34.447  11.709
55418W        W20579  32.970  26.807   2.880
55419W        W20580  27.282  23.318   5.596
55420W        W20581  33.534   9.983   5.032
55421W        W20582  17.066  36.902  13.717
55422W        W20583  31.368  25.394  14.483
55423W        W20584   8.780  11.050   1.759
55424W        W20585  38.530  36.670   3.042
55425W        W20586  29.177   7.389   1.368
55426W        W20587   4.748  40.710   4.428
55427W        W20588  23.227  30.623  14.447
55428W        W20589  29.895  36.838   0.612
55429W        W20590  14.214  10.566  12.417
55430W        W20591  41.473  23.593  10.436
55431W        W20592   6.406  14.040   0.747
55432W        W20593  23.590  13.743   0.944
55433W        W20594  35.850  30.409  14.440
55434W        W20595  30.917  26.475   1.016
55435W        W20596  19.099  18.227  13.175
55436W        W20597  27.250   8.331  14.862
55437W        W20598  26.456  42.292  10.771
55438W        W20599   5.638   9.596  13.808
55439W        W20600  13.388   6.370   2.576
55440W        W20601  22.886  22.462   1.759
55441W        W20602  16.748  20.578   1.885
55442W        W20603   6.319  42.246   0.823
55443W        W20604  40.512  42.855   4.248
55444W        W20605  28.941  40.572   2.803
55445W        W20606  19.833   5.901   3.239
55446W        W20607  11.721  12.415  12.994
55447W        W20608   4.024  40.480  11.145
55448W        W20609  12.619  38.520   1.936
55449W        W20610  24.063   1.675  11.144
55450W        W20611  43.399  35.725   2.883
55451W        W20612  19.249  29.913  13.953
55452W        W20613   4.656   2.680  13.325
55453W        W20614  44.381  30.664  10.864
55454W        W20615  33.475  32.576   1.590
55455W        W20616  27.559  27.839   4.041
55456W        W20617  40.475  38.877   4.576
55457W        W20618  42.245   5.925  14.356
55458W        W20619  11.850  34.993   3.744
55459W        W20620   8.247   5.834  14.504
55460W        W20621  29.521   8.607  14.614
55461W        W20622  27.704  29.374   1.793
55462W        W20623  21.985  13.181   1.268
55463W        W20624  42.342  29.909   4.319
55464W        W20625   4.825  13.349  12.527
55465W        W20626   8.201  15.191   1.983
55466W        W20627  41.431  22.732  12.969
55467W        W20628  10.153  25.763   0.751
55468W        W20629  33.839  15.103  12.319
55469W        W20630  17.874  30.999  14.047
55470W        W20631  40.962  18.430  10.616
55471W        W20632   3.023  44.538  14.369
55472W        W20633   1.254  25.752   1.885
55473W        W20634   5.852  20.726  10.911
55474W        W20635  31.965  30.326  10.680
55475W        W20636  28.496  43.084  13.124
55476W        W20637  22.140  41.339  11.442
55477W        W20638  17.599  37.272   2.724
55478W        W20639  13.237  43.326   3.715
55479W        W20640  25.685  43.338  13.597
55480W        W20641  43.320  34.239   2.757
55481W        W20642  38.797  37.029  12.625
55482W        W20643  36.653  37.944   3.203
55483W        W20644  15.841  44.994  14.535
55484W        W20645  10.423  44.013   0.968
55485W        W20646  44.396  17.032  11.194
55486W        W20647  23.661  43.987  11.118
55487W        W20648  40.506   0.250  12.553
55488W        W20649   1.267  38.023  10.806
55489W        W20650  33.011   8.274  13.876
55490W        W20651  34.861  26.136  13.920
55491W        W20652  20.448  12.434   0.985
55492W        W20653   1.438  33.516  13.897
55493W        W20654  34.987  34.416   1.934
55494W        W20655  33.685  34.609   2.812
55495W        W20656  37.488  34.858  14.427
55496W        W20657  19.613  12.730  12.352
55497W        W20658  11.653  22.490   1.970
55498W        W20659  41.859  41.586   4.326
55499W        W20660  28.976  27.220  14.541
55500W        W20661  32.077   6.664  11.425
55501W        W20662  36.500   9.546   1.051
55502W        W20663  22.576  20.909  10.255
55503W        W20664  44.746  10.416  10.470
55504W        W20665  31.136   8.306  10.569
55505W        W20666  23.654  16.637   3.293
55506W        W20667   8.773  10.653   0.343
55507W        W20668  23.483  12.584  11.785
55508W        W20669  20.174  10.236  13.765
55509W        W20670  36.135  12.143  11.041
55510W        W20671  39.456  27.101  10.751
55511W        W20672   9.112  24.191   3.862
55512W        W20673  38.364   9.277   4.832
55513W        W20674  21.012  34.464  11.166
55514W        W20675  11.011  22.391  14.347
55515W        W20676  36.381  20.305   3.787
55516W        W20677   9.878  38.939   3.757
55517W        W20678   5.158  19.410   3.323
55518W        W20679  39.637  12.119   4.833
55519W        W20680  41.976  33.964  14.935
55520W        W20681  12.102   3.651  14.904
55521W        W20682  41.105  35.974   1.341
55522W        W20683   5.043  21.176   4.240
55523W        W20684  12.074  10.799  14.009
55524W        W20685  29.922   5.196   3.563
55525W        W20686  23.527  15.080  12.782
55526W        W20687   5.883  20.495   2.942
55527W        W20688  29.658  13.389   2.966
55528W        W20689  14.772  33.374  11.901
55529W        W20690  26.148  42.005  11.607
55530W        W20691  40.432   9.842   1.244
55531W        W20692  13.087  20.468   1.420
55532W        W20693  16.332  20.177   3.576
55533W        W20694  42.958  21.501  11.911
55534W        W20695  22.770  25.422  14.361
55535W        W20696  41.770  19.061   1.806
55536W        W20697   0.745  38.945  12.090
55537W        W20698   1.315   8.206   3.107
55538W        W20699  12.121   8.881   1.745
55539W        W20700  41.271  25.199  12.504
55540W        W20701  36.693  33.045   4.497
55541W        W20702  27.874  27.712  13.663
55542W        W20703  30.606  39.324  14.951
55543W        W20704   9.755  41.015  13.341
55544W        W20705   5.120   9.795   4.671
55545W        W20706  34.443   0.270   2.200
55546W        W20707   4.262  37.648  12.171
55547W        W20708  12.811  10.716   2.370
55548W        W20709  40.822  11.209   0.873
55549W        W20710  44.976  32.403  11.545
55550W        W20711  38.198  12.382  10.997
55551W        W20712  32.875  31.724  13.752
55552W        W20713  32.575  31.146  10.630
55553W        W20714  25.857  37.877  11.580
55554W        W20715  26.533  26.545  12.812
55555W        W20716  31.546  14.758   0.984
55556W        W20717  42.836  41.343   1.875
55557W        W20718   3.282  17.970  12.527
55558W        W20719   0.961  44.963  14.944
55559W        W20720  30.501   1.972  11.075
55560W        W20721  30.180  40.745  14.934
55561W        W20722  12.297  41.373   0.444
55562W        W20723  27.499  43.524   2.598
55563W        W20724   9.579  18.588   2.574
55564W        W20725  24.958  10.103  14.906
55565W        W20726   2.769  30.168  11.658
55566W        W20727  43.282   6.502  14.711
55567W        W20728  34.848  15.454   1.807
55568W        W20729  13.489  12.157  14.742
55569W        W20730   2.300  23.725  10.717
55570W        W20731  42.911  22.421  11.573
55571W        W20732  15.995   3.378   1.363
55572W        W20733  17.889   8.288  13.415
55573W        W20734   8.202  39.385  14.488
55574W        W20735   3.296  27.956   0.995
55575W        W20736  29.046   1.729  12.935
55576W        W20737  19.708  21.105   4.387
55577W        W20738  44.550  14.116  13.374
55578W        W20739  25.719   9.097  12.006
55579W        W20740  43.758  37.024  12.398
55580W        W20741  39.925  31.443  12.846
55581W        W20742  31.377   9.890  10.624
55582W        W20743  40.768  16.544   3.178
55583W        W20744  22.228  14.172  14.300
55584W        W20745  23.170  25.753  13.152
55585W        W20746  22.797  38.857   0.471
55586W        W20747  20.462  38.568   4.959
55587W        W20748  21.261  26.067  10.623
55588W        W20749  15.264  12.078  13.854
55589W        W20750  30.181  11.302   2.311
55590W        W20751  19.542  20.081  10.930
55591W        W20752  34.590   6.281   0.231
55592W        W20753   2.976  32.177   1.363
55593W        W20754  22.978  34.162  11.107
55594W        W20755   5.850  18.258  14.753
55595W        W20756  35.116  44.421   2.263
55596W        W20757  29.092  16.609   1.266
55597W        W20758   4.797  15.037   1.910
55598W        W20759  18.618  17.994   5.047
55599W        W20760   1.332  20.323   1.333
55600W        W20761  40.456   1.227   3.796
55601W        W20762  18.047  28.629  14.417
55602W        W20763   7.612  33.610   0.298
55603W        W20764  13.576  25.741   1.169
55604W        W20765  35.091  40.701  12.133
55605W        W20766  32.079   2.613   4.719
55606W        W20767   0.518  30.043   0.325
55607W        W20768   9.382  41.994   3.463
55608W        W20769  18.675   0.734   1.294
55609W        W20770  13.442   6.228  11.533
55610W        W20771  42.284  26.564  11.308
55611W        W20772  21.717  35.452  14.421
55612W        W20773   7.730  22.218   3.645
55613W        W20774  41.410  20.116   1.263
55614W        W20775  35.317   7.267  12.158
55615W        W20776  20.098  25.067  11.543
55616W        W20777  16.886  33.614   1.907
55617W        W20778  39.783  33.446  13.980
55618W        W20779  16.428  32.966   2.824
55619W        W20780  23.516  18.035   4.704
55620W        W20781  35.399  20.163   2.731
55621W        W20782  11.183  36.062  10.597
55622W        W20783  25.238   0.760   1.244
55623W        W20784  21.029  34.894  10.681
55624W        W20785   7.725  33.856  14.852
55625W        W20786  10.610  29.071  12.506
55626W        W20787  37.052  32.609  10.617
55627W        W20788  15.719  38.988   2.778
55628W        W20789  42.391  25.543   4.725
55629W        W20790   9.850  23.060  12.277
55630W        W20791   9.198  32.641   3.445
55631W        W20792   1.814  28.493  10.430
55632W        W20793   0.250  21.996   0.844
55633W        W20794  19.497  39.037  12.414
55634W        W20795   4.812  24.744   0.902
55635W        W20796   3.395  10.649  11.135
55636W        W20797  44.751  23.517  10.855
55637W        W20798  39.375  18.087   2.264
55638W        W20799  19.186  28.163  14.856
55639W        W20800  43.297  15.804  11.563
55640W        W20801  20.205   1.343  12.758
55641W        W20802  43.129  31.714   4.418
55642W        W20803  38.681   6.354  13.785
55643W        W20804  34.898   3.740   1.374
55644W        W20805  12.955  19.495   1.215
55645W        W20806  44.953  43.748   0.453
55646W        W20807   8.100   8.315  11.714
55647W        W20808  22.482   1.865   0.847
55648W        W20809  11.299  27.955  11.180
55649W        W20810  17.006   1.412   2.295
55650W        W20811  18.978  31.889   2.801
55651W        W20812  36.092  16.481   4.125
55652W        W20813   0.755  37.856  10.841
55653W        W20814  37.110  23.968   0.798
55654W        W20815  39.393   7.815   1.744
55655W        W20816  30.863  15.121   3.519
55656W        W20817  26.734  43.171   3.700
55657W        W20818  44.831  41.942   3.685
55658W        W20819  28.520  15.058  11.563
55659W        W20820   5.467  42.770  12.926
55660W        W20821  22.560  38.595  11.477
55661W        W20822  18.639   7.202  14.903
55662W        W20823  43.135  24.100   0.934
55663W        W20824   9.634  18.767   1.229
55664W        W20825  38.372  10.940   0.108
55665W        W20826   4.645  14.609   4.626
55666W        W20827   4.511  10.717   2.261
55667W        W20828  20.778  18.247   2.159
55668W        W20829  28.432  41.334  13.056
55669W        W20830  26.487  20.159  12.945
55670W        W20831  11.907  40.418  10.662
55671W        W20832  22.301  30.562  14.649
55672W        W20833   6.694  36.175   4.320
55673W        W20834  17.971  28.308   2.356
55674W        W20835  40.825   0.814  12.085
55675W        W20836  14.082  42.894  14.732
55676W        W20837  43.568  29.406  14.277
55677W        W20838   8.910  38.042  13.121
55678W        W20839  13.944  44.370  12.548
55679W        W20840  21.516  30.119  14.723
55680W        W20841  41.803  16.575  13.626
55681W        W20842  42.503   6.786   2.863
55682W        W20843   8.204   3.264   4.641
55683W        W20844  21.608  29.522   2.823
55684W        W20845  20.038  22.212   9.888
55685W        W20846  21.166  41.274  11.692
55686W        W20847  12.160  34.384   4.553
55687W        W20848   8.929  21.224  13.528
55688W        W20849   7.699  43.467   4.793
55689W        W20850   8.276  41.215  11.717
55690W        W20851  37.241  26.447   0.082
55691W        W20852  22.116  37.161  10.764
55692W        W20853  39.789  24.909   3.227
55693W        W20854  18.009  36.566  12.896
55694W        W20855   6.092   1.661  12.480
55695W        W20856  43.095  43.852  11.724
55696W        W20857  27.289  42.726   1.730
55697W        W20858  18.943  39.481   9.848
55698W        W20859  22.040   9.000   0.998
55699W        W20860   6.751  31.217  13.950
55700W        W20861  25.145  15.303   2.437
55701W        W20862   0.456  29.536  14.282
55702W        W20863  44.201  17.096   4.083
55703W        W20864   1.247  36.011   5.031
55704W        W20865   6.544  24.024  10.666
55705W        W20866  25.791  32.482   4.055
55706W        W20867  28.530   6.080  14.764
55707W        W20868  14.162  11.628   0.824
55708W        W20869   3.169  34.533   1.135
55709W        W20870  12.908   1.908   1.823
55710W        W20871  14.592   8.709  14.406
55711W        W20872  26.514   5.760  14.070
55712W        W20873  14.065  31.255  12.396
55713W        W20874  29.068  10.708  13.342
55714W        W20875   6.848  41.496  11.150
55715W        W20876  39.612  38.343  14.454
55716W        W20877  19.069  19.429   1.260
55717W        W20878  11.073  35.692  13.131
55718W        W20879   5.301  27.501   0.529
55719W        W20880  44.837  21.631  14.293
55720W        W20881  29.557  20.628   3.971
55721W        W20882  19.035  13.971  12.520
55722W        W20883  37.486   0.485   0.422
55723W        W20884   6.866  18.321  12.929
55724W        W20885  16.250  36.027   1.278
55725W        W20886   7.245   0.522   2.202
55726W        W20887   1.713  23.631  12.429
55727W        W20888  11.435   0.789   4.277
55728W        W20889  28.612  21.091  12.073
55729W        W20890  16.226   3.803  11.833
55730W        W20891  25.675   4.276   4.129
55731W        W20892  25.292  42.223   1.202
55732W        W20893  12.133  26.675  12.924
55733W        W20894  12.487  14.087  11.121
55734W        W20895  41.565  14.654  14.286
55735W        W20896   4.514  21.922   5.093
55736W        W20897  41.323   7.474  13.739
55737W        W20898  33.882   1.302  11.751
55738W        W20899  23.974  32.865  14.377
55739W        W20900   7.171  34.329  11.116
55740W        W20901   0.021  19.769   2.169
55741W        W20902  14.805  43.422  10.112
55742W        W20903  36.886  26.662  12.425
55743W        W20904  24.722  26.480   3.275
55744W        W20905  43.141  23.329  14.987
55745W        W20906  22.675  35.580   1.039
55746W        W20907   2.895  32.550  10.682
55747W        W20908  31.991   3.759  11.477
55748W        W20909  10.132  36.381   4.414
55749W        W20910   9.178  18.042  12.484
55750W        W20911  44.733   3.601  12.751
55751W        W20912  17.103  34.477  14.393
55752W        W20913  40.728  15.594  13.471
55753W        W20914  42.847  41.089  14.499
55754W        W20915   5.644  35.474   3.361
55755W        W20916  39.441   0.213   0.366
55756W        W20917  33.160  12.117   4.733
55757W        W20918  40.897  27.282  12.316
55758W        W20919  42.278   7.162  12.854
55759W        W20920  10.335  31.799   2.384
55760W        W20921  31.615   3.276  14.873
55761W        W20922  37.771  19.316   1.386
55762W        W20923  43.468   7.682  10.925
55763W        W20924  36.877  39.047   1.395
55764W        W20925   4.159  40.695  12.143
55765W        W20926  23.503  40.606  12.468
55766W        W20927  31.555  38.874   4.138
55767W        W20928  41.419   0.301  13.034
55768W        W20929  29.092  24.015  14.003
55769W        W20930  26.003  24.591   2.261
55770W        W20931  10.372  43.456   0.376
55771W        W20932  26.544  29.670   1.258
55772W        W20933   1.462  18.583  11.479
55773W        W20934  38.336  41.360  14.778
55774W        W20935  19.628  15.105   3.562
55775W        W20936  35.015   5.015  14.788
55776W        W20937  13.658  34.658  13.114
55777W        W20938  28.124  40.278  10.394
55778W        W20939  10.167  35.130  12.330
55779W        W20940  22.131  19.803  13.133
55780W        W20941  40.594  20.100  12.039
55781W        W20942  19.309  37.342  10.740
55782W        W20943  23.251  44.402  14.892
55783W        W20944  36.491  42.960   5.053
55784W        W20945   2.372   3.404   2.235
55785W        W20946  23.460  31.422  11.966
55786W        W20947   0.401  24.684   0.857
55787W        W20948  14.080   1.484   2.417
55788W        W20949  41.828  16.213  14.596
55789W        W20950  37.759   9.089  11.639
55790W        W20951  12.768  39.690  11.131
55791W        W20952  25.601  25.259  11.259
55792W        W20953  33.903  11.958   4.892
55793W        W20954  34.148  22.806  10.408
55794W        W20955  24.274  35.853   3.208
55795W        W20956  35.638  28.732   3.683
55796W        W20957  38.350  44.118   2.425
55797W        W20958  27.926  22.654   3.053
55798W        W20959  15.737  15.127   2.564
55799W        W20960   8.984   3.963   1.146
55800W        W20961  33.246  38.155  10.626
55801W        W20962  41.746  29.323  12.526
55802W        W20963  20.727  42.382   3.633
55803W        W20964  28.866  31.877   3.253
55804W        W20965  29.843  27.098   4.433
55805W        W20966  20.071  29.087   2.149
55806W        W20967   1.855  28.717  11.449
55807W        W20968   2.248  14.708   1.713
55808W        W20969  20.449  17.266   3.128
55809W        W20970  14.905  43.990  13.566
55810W        W20971  34.471  43.920  13.340
55811W        W20972  20.522  37.353   3.406
55812W        W20973  44.946   7.425  12.544
55813W        W20974   9.456  19.791  10.761
55814W        W20975   9.948  30.584   1.843
55815W        W20976  23.333  35.256   1.005
55816W        W20977  11.299   0.641  12.076
55817W        W20978  44.520  14.553  11.104
55818W        W20979  32.224  22.476  10.745
55819W        W20980  19.844   0.932  13.489
55820W        W20981   0.349  22.937   3.717
55821W        W20982   3.020   9.859   2.261
55822W        W20983   5.882  33.218   1.231
55823W        W20984  33.018   0.358  14.703
55824W        W20985   7.916  10.308  10.786
55825W        W20986   1.977  18.302   2.272
55826W        W20987  36.597   7.421  11.475
55827W        W20988  41.599  42.144  13.855
55828W        W20989  36.387  10.050  13.327
55829W        W20990  10.885  17.562   0.798
55830W        W20991   0.297   5.315  10.647
55831W        W20992  22.494  14.696  14.760
55832W        W20993  41.231  36.864   0.179
55833W        W20994  25.047  21.192  13.618
55834W        W20995  29.475  12.407   3.201
55835W        W20996   0.782   3.303  13.591
55836W        W20997  10.689  18.083   1.899
55837W        W20998  44.071  17.250   3.163
55838W        W20999  37.502  25.760   0.664
55839W        W21000  11.831   4.763   0.778
55840W        W21001  37.924  44.340  14.252
55841W        W21002  16.214  14.568  10.987
55842W        W21003  27.193  29.632  13.941
55843W        W21004  22.195   6.384  11.717
55844W        W21005  30.111  38.171  12.280
55845W        W21006  11.236  16.691   1.857
55846W        W21007   6.293   7.883  13.621
55847W        W21008   8.202  10.355   3.812
55848W        W21009  19.435  35.883   3.625
55849W        W21010  40.252   1.473   1.783
55850W        W21011  19.831   1.890  12.146
55851W        W21012   3.890  23.811  11.930
55852W        W21013   6.823  33.514   1.798
55853W        W21014   6.376   7.659   3.598
55854W        W21015  16.765  44.348   2.824
55855W        W21016  23.029   3.531   1.758
55856W        W21017  43.850  26.667   3.723
55857W        W21018  26.206  17.721   1.825
55858W        W21019  28.604  31.898   0.526
55859W        W21020  44.206   9.368  11.495
55860W        W21021  23.543  17.440   2.979
55861W        W21022   9.515  34.595  14.896
55862W        W21023  20.610   0.384   2.323
55863W        W21024  27.212   8.685   4.547
55864W        W21025  38.868   0.499   1.708
55865W        W21026  11.948  34.865   4.572
55866W        W21027   8.427  41.908  10.725
55867W        W21028  42.891  40.229  14.723
55868W        W21029  15.260  34.397  12.503
55869W        W21030  27.945  33.749  10.066
55870W        W21031   9.805  19.797  13.816
55871W        W21032  14.318  21.653   1.389
55872W        W21033   1.675  37.639   1.663
55873W        W21034  34.666  14.341   3.322
55874W        W21035  41.304  20.123   3.788
55875W        W21036   1.822   5.752  13.079
55876W        W21037   7.782   0.004  13.885
55877W        W21038  39.814   8.181   1.450
55878W        W21039  37.923   9.801   1.621
55879W        W21040  42.540  22.096   2.100
55880W        W21041   9.933  35.712   4.409
55881W        W21042  25.399  34.451  13.542
55882W        W21043  22.251  29.658   4.263
55883W        W21044  11.503  40.972  10.490
55884W        W21045  39.065  33.951   1.916
55885W        W21046   3.709  10.258  11.881
55886W        W21047  27.683  20.724  14.815
55887W        W21048  38.954  30.428   0.290
55888W        W21049  20.045  30.119  10.433
55889W        W21050   4.434  10.097   2.830
55890W        W21051  13.601  40.981   3.772
55891W        W21052  42.667   3.234  11.604
55892W        W21053  39.145  35.076   4.207
55893W        W21054  38.492  21.528   2.243
55894W        W21055  40.890   1.961  14.679
55895W        W21056  13.141  43.959   2.451
55896W        W21057  43.357  33.721   2.822
55897W        W21058  41.367  43.298  11.873
55898W        W21059  24.123  39.355   3.285
55899W        W21060  10.068  31.907  12.964
55900W        W21061  23.799   5.779  13.895
55901W        W21062   7.858  39.313  13.592
55902W        W21063  35.857  13.799  13.562
55903W        W21064  37.360   0.697  14.906
55904W        W21065  44.237  28.509  10.263
55905W        W21066  19.410  15.894  10.686
55906W        W21067  42.988  44.181   2.807
55907W        W21068  37.791  29.972  11.530
55908W        W21069   5.178   8.468   4.375
55909W        W21070  16.848  18.541   1.297
55910W        W21071  37.543  31.968   0.401
55911W        W21072  27.024  43.872   4.617
55912W        W21073  28.642  13.204  14.357
55913W        W21074  20.013  19.617  10.992
55914W        W21075  27.158  29.656  11.104
55915W        W21076  17.317  22.731  14.474
55916W        W21077  34.337   3.915  11.863
55917W        W21078  29.668   9.265   2.823
55918W        W21079  23.047  11.691  12.048
55919W        W21080  39.614   0.922  13.308
55920W        W21081  18.459   1.509   1.719
55921W        W21082   2.573  37.448  10.711
55922W        W21083  11.561  19.592   1.560
55923W        W21084  34.993   3.434  13.532
55924W        W21085   4.320  28.953   3.456
55925W        W21086  20.254  10.817   0.163
55926W        W21087  22.955  23.289  11.311
55927W        W21088   8.162  18.259  12.371
55928W        W21089  22.156   1.467   4.382
55929W        W21090  10.806  36.022   1.388
55930W        W21091   6.988  33.251   3.620
55931W        W21092  23.486  37.098  12.538
55932W        W21093  38.586  26.525  12.846
55933W        W21094  24.218  20.589  14.513
55934W        W21095  43.972  14.045  11.580
55935W        W21096   2.781   9.760   2.701
55936W        W21097  41.320  13.602  14.903
55937W        W21098  21.706   5.732   1.254
55938W        W21099   4.679  18.263   2.100
55939W        W21100  20.680  36.769   1.738
55940W        W21101  22.606  41.568   3.277
55941W        W21102   4.569  24.004  10.417
55942W        W21103  13.272  12.200  12.699
55943W        W21104  28.000  32.659  10.803
55944W        W21105  43.931  15.056   2.309
55945W        W21106  15.700   2.705  13.277
55946W        W21107  10.217   0.819  13.486
55947W        W21108  29.675  17.656  14.054
55948W        W21109   5.685   6.464   4.148
55949W        W21110   7.454  16.496  14.836
55950W        W21111  21.060  28.204  10.717
55951W        W21112  44.941   7.299  14.862
55952W        W21113  33.475  33.455   3.065
55953W        W21114  38.492  22.044   2.257
55954W        W21115  25.320  10.392  13.995
55955W        W21116  31.329  25.770  10.660
55956W        W21117  37.473  30.377   1.430
55957W        W21118  13.689  17.419   2.681
55958W        W21119  10.066  26.134   0.375
55959W        W21120   4.167  10.741  11.584
55960W        W21121  28.038  35.331  10.758
55961W        W21122   8.283  13.757  14.507
55962W        W21123  40.506  39.295   2.241
55963W        W21124  20.376  39.502  14.388
55964W        W21125  26.725  31.762  10.822
55965W        W21126  37.402  10.530  11.523
55966W        W21127   6.917  13.397   1.941
55967W        W21128  35.433  15.341   4.207
55968W        W21129   6.941  41.567   2.872
55969W        W21130  21.699   5.852   2.223
55970W        W21131  19.518  20.000  13.917
55971W        W21132   4.204  18.755   1.795
55972W        W21133  30.344  34.808  12.106
55973W        W21134  44.768  43.028   3.585
55974W        W21135  10.311  22.446   1.372
55975W        W21136  34.884  32.471   3.859
55976W        W21137   5.096  13.982  13.054
55977W        W21138  27.045  14.559   0.768
55978W        W21139  16.112  32.357  13.300
55979W        W21140   3.541  35.009  12.104
55980W        W21141  12.101  23.539   3.246
55981W        W21142  20.237  44.016  11.991
55982W        W21143  12.533  17.753   4.186
55983W        W21144  38.033  17.779   2.894
55984W        W21145   5.776   4.755   3.151
55985W        W21146   8.113  34.902   3.649
55986W        W21147  44.550  42.919  14.542
55987W        W21148   7.940  15.225  10.994
55988W        W21149  39.826   2.259   4.094
55989W        W21150  44.358  11.624   0.436
55990W        W21151  29.000  30.020   4.358
55991W        W21152  30.298   8.741   2.726
55992W        W21153  14.855   0.861   2.188
55993W        W21154  44.479  43.331  11.097
55994W        W21155  30.558  19.103   3.089
55995W        W21156   0.206  32.240   3.116
55996W        W21157   2.446   9.188   0.261
55997W        W21158  40.882  30.538  14.522
55998W        W21159  16.157  23.252   3.595
55999W        W21160   6.022  23.139  10.754
56000W        W21161  17.654  28.592  14.072
56001W        W21162  23.767  27.130  11.582
56002W        W21163  12.171  15.700  14.238
56003W        W21164  10.282  34.431   4.276
56004W        W21165  22.719  40.916  11.659
56005W        W21166  32.267  35.866   4.879
56006W        W21167  21.064  30.018  11.513
56007W        W21168  39.284  17.507   0.860
56008W        W21169  27.152  10.682  10.236
56009W        W21170  35.793  17.172   4.110
56010W        W21171  11.430   6.890   1.933
56011W        W21172   4.880  13.611  10.957
56012W        W21173  21.221   2.266  11.986
56013W        W21174  36.473  35.532  10.633
56014W        W21175  27.929  37.809   1.363
56015W        W21176  44.218  12.000   1.361
56016W        W21177   5.194  13.760  10.595
56017W        W21178  36.814   8.350   4.465
56018W        W21179  10.142   9.197   2.683
56019W        W21180   4.256  41.395  10.635
56020W        W21181  19.024  33.852  13.359
56021W        W21182  13.607   0.779   3.345
56022W        W21183   3.999  44.236   0.852
56023W        W21184  20.005  24.863  14.954
56024W        W21185  42.400  37.608   3.506
56025W        W21186  16.692  33.616  10.520
56026W        W21187  40.405  32.103   4.984
56027W        W21188   9.280  24.300  12.530
56028W        W21189  39.433   8.881  12.856
56029W        W21190  43.601   9.490   0.816
56030W        W21191  39.275   5.187  13.989
56031W        W21192  18.739  22.550   2.241
56032W        W21193  40.825   8.913  14.605
56033W        W21194  36.886  12.832   3.895
56034W        W21195  31.286  28.140   3.873
56035W        W21196  32.594  31.641  14.943
56036W        W21197  37.739  10.567  12.554
56037W        W21198   0.202   6.218   4.074
56038W        W21199   1.213  44.444   4.816
56039W        W21200  28.022   8.263  12.382
56040W        W21201  42.690   6.927   0.288
56041W        W21202  32.104   3.630  13.280
56042W        W21203  33.520   1.129   4.804
56043W        W21204  22.683  25.319   4.981
56044W        W21205   7.783  21.513  14.844
56045W        W21206   2.360  26.990   1.532
56046W        W21207  21.515  39.016   2.305
56047W        W21208  35.602  27.157  12.660
56048W        W21209  29.102   5.346  13.364
56049W        W21210  29.367  42.234   0.943
56050W        W21211  33.090   1.152   0.382
56051W        W21212  26.630  20.102  10.450
56052W        W21213  43.472   5.002   4.081
56053W        W21214  17.065  36.586  13.084
56054W        W21215  40.427   6.059   1.755
56055W        W21216   9.031  44.746  10.475
56056W        W21217   4.660  10.593   4.291
56057W        W21218  23.069  35.155   2.736
56058W        W21219  27.969   9.876  14.463
56059W        W21220  29.906  29.197  11.963
56060W        W21221  34.330  23.766  12.421
56061W        W21222  27.949  39.579  10.150
56062W        W21223   1.315  43.739  11.412
56063W        W21224  16.581  29.917  14.288
56064W        W21225  34.319  28.385  14.402
56065W        W21226   1.320  25.630  14.189
56066W        W21227  21.532  43.731   4.105
56067W        W21228  14.584   0.963   3.185
56068W        W21229  17.975   3.628  11.510
56069W        W21230  20.933  11.740   5.162
56070W        W21231  27.628   1.390   0.262
56071W        W21232  16.243   9.370   1.469
56072W        W21233  37.077  22.702  11.536
56073W        W21234  13.268  37.858   1.475
56074W        W21235   2.774   8.447  10.713
56075W        W21236  13.621  26.201  13.893
56076W        W21237   5.873  39.246  13.479
56077W        W21238  11.318  27.763  11.826
56078W        W21239  17.913  31.400  14.947
56079W        W21240   8.195  35.232  10.757
56080W        W21241   5.806  40.004  14.450
56081W        W21242  43.946  32.012   4.610
56082W        W21243   7.787   1.962   0.783
56083W        W21244  21.327  13.152  12.048
56084W        W21245   9.228  20.640   2.815
56085W        W21246  20.106   3.162   2.264
56086W        W21247   6.132  26.640  11.600
56087W        W21248  44.436  40.428  10.596
56088W        W21249  36.417  36.926  12.919
56089W        W21250  13.253  24.462   3.857
56090W        W21251   6.963  16.221   1.293
56091W        W21252  12.606  17.524  14.315
56092W        W21253   4.755  43.763   1.459
56093W        W21254  44.432  14.738   0.326
56094W        W21255  31.095  38.032  11.160
56095W        W21256  23.494  12.727   3.256
56096W        W21257  33.473  32.956  14.487
56097W        W21258   9.686  24.734   0.435
56098W        W21259  34.593  21.231  14.871
56099W        W21260  44.944   3.888  12.381
56100W        W21261   8.351  18.520  10.965
56101W        W21262  42.387   5.994  10.596
56102W        W21263   2.398  43.395  12.906
56103W        W21264  44.300  33.034  11.525
56104W        W21265   8.183  30.623  10.749
56105W        W21266  20.737  13.553   2.378
56106W        W21267  42.824  28.626   4.648
56107W        W21268  33.743  32.566  14.300
56108W        W21269   0.758  44.804  14.110
56109W        W21270  12.721  16.622   1.498
56110W        W21271  22.960   0.712  10.912
56111W        W21272  22.579  38.648   3.189
56112W        W21273  43.085  25.287  11.198
56113W        W21274  18.648  43.028  13.423
56114W        W21275   8.758  19.506   4.138
56115W        W21276  39.917  18.998   0.273
56116W        W21277  23.108   9.821   1.298
56117W        W21278  44.284  15.344  11.553
56118W        W21279   7.771  39.140   0.473
56119W        W21280  43.470  42.514   4.059
56120W        W21281  43.066  42.393   0.773
56121W        W21282   9.194   6.428   3.122
56122W        W21283   7.447  35.940  10.701
56123W        W21284   0.430  34.576  14.964
56124W        W21285  14.099  10.441   1.136
56125W        W21286   0.042   3.367   3.170
56126W        W21287  31.414  22.646  12.679
56127W        W21288  33.026  15.162   0.082
56128W        W21289   0.273  29.943  10.685
56129W        W21290  19.771  17.093  14.848
56130W        W21291  13.340  16.677  11.184
56131W        W21292  25.205  40.829   4.038
56132W        W21293   4.248   8.392  11.541
56133W        W21294  27.454  24.822   4.979
56134W        W21295   5.913  24.598   0.031
56135W        W21296  37.089  32.806   4.803
56136W        W21297  28.555  30.468  11.904
56137W        W21298  29.608  10.214   1.238
56138W        W21299   5.875  13.792   3.922
56139W        W21300   1.920  14.580  14.903
56140W        W21301  12.656  23.968  10.650
56141W        W21302  24.260  34.381   3.613
56142W        W21303  26.052  19.439   0.507
56143W        W21304  16.224  14.225   2.224
56144W        W21305   5.479  15.269   2.229
56145W        W21306   4.426   8.326   3.054
56146W        W21307  14.928  28.686  14.924
56147W        W21308  26.220  17.381   4.982
56148W        W21309  42.484  21.696  11.429
56149W        W21310  40.241  30.592   0.009
56150W        W21311  21.322  40.569   5.330
56151W        W21312  38.582  26.571   0.760
56152W        W21313   1.960  36.838   9.758
56153W        W21314  38.601  44.785   3.679
56154W        W21315   8.252  37.466  11.039
56155W        W21316  35.589  40.796  12.030
56156W        W21317  40.446  34.320   3.729
56157W        W21318  26.538  35.485   0.804
56158W        W21319   7.971  28.757  12.632
56159W        W21320  28.735   9.710   3.077
56160W        W21321   1.457  35.407   2.875
56161W        W21322  12.256  42.340   3.663
56162W        W21323   9.296  28.077   0.170
56163W        W21324   2.449  12.377   0.765
56164W        W21325  14.308  11.247   0.066
56165W        W21326  22.134   0.308  14.881
56166W        W21327  12.179  22.114  10.679
56167W        W21328  16.724  32.996   3.271
56168W        W21329  31.688  11.334  11.743
56169W        W21330   9.841  25.750  13.960
56170W        W21331  23.733  43.419   1.828
56171W        W21332  42.518  39.887  12.897
56172W        W21333  12.628  42.848  10.511
56173W        W21334  35.064  13.713  12.085
56174W        W21335  41.416  12.036  14.850
56175W        W21336  23.989  36.534   4.338
56176W        W21337  19.321  34.851  12.788
56177W        W21338  14.664  14.873   2.242
56178W        W21339  28.076  29.996  13.451
56179W        W21340  12.845  22.220   2.280
56180W        W21341  12.833  17.118  14.806
56181W        W21342   6.632  37.107   4.249
56182W        W21343   4.416  38.839   2.788
56183W        W21344  35.515  42.511  11.471
56184W        W21345  10.255  34.761   0.420
56185W        W21346  38.385  28.200   3.355
56186W        W21347  11.449  36.097   0.484
56187W        W21348  30.886  23.944  12.779
56188W        W21349  18.006  42.932  10.837
56189W        W21350  16.093  15.416   2.806
56190W        W21351  39.351  29.474   4.318
56191W        W21352   2.458  34.832   4.389
56192W        W21353  36.138   1.305  11.080
56193W        W21354  40.887   1.422  10.906
56194W        W21355  40.819  36.835  11.783
56195W        W21356  30.654   7.317   4.152
56196W        W21357  29.145  27.369  10.736
56197W        W21358  23.870   6.230  14.518
56198W        W21359  27.211  19.711  11.893
56199W        W21360  22.238  11.443   0.663
56200W        W21361  34.984  13.186   0.973
56201W        W21362  17.579  17.229   3.651
56202W        W21363  36.622  21.196  14.598
56203W        W21364  26.844  42.398  12.545
56204W        W21365  24.650  13.333  14.957
56205W        W21366  35.911  22.549  12.979
56206W        W21367   6.236   6.764   0.075
56207W        W21368  15.749  20.925  14.594
56208W        W21369  40.460  44.517  14.988
56209W        W21370  24.308  15.810   0.742
56210W        W21371  26.627  15.860   2.801
56211W        W21372  32.916  17.966   4.039
56212W        W21373  38.072  38.789   0.805
56213W        W21374  12.750   3.970  13.964
56214W        W21375  27.216  25.624  12.006
56215W        W21376  44.818   4.192   0.824
56216W        W21377  40.570  44.720  13.979
56217W        W21378  25.194  37.017   5.129
56218W        W21379  20.561   2.925   0.344
56219W        W21380  43.982  21.535   3.294
56220W        W21381  39.889   0.032  12.816
56221W        W21382  18.196  10.702   4.381
56222W        W21383  26.487  39.381  14.984
56223W        W21384   1.424  42.239   1.165
56224W        W21385  11.683   5.011   4.062
56225W        W21386  22.250  23.009   3.350
56226W        W21387  17.245   7.797  11.298
56227W        W21388  27.000  30.943  14.336
56228W        W21389  10.316  40.024   3.509
56229W        W21390  20.549  23.989  14.742
56230W        W21391  35.799  36.487  13.937
56231W        W21392  36.604  33.985   4.565
56232W        W21393  42.789   8.328   4.033
56233W        W21394  12.829  28.943   1.761
56234W        W21395   1.750  17.745   1.434
56235W        W21396   6.231  11.611  11.548
56236W        W21397  15.785  40.909  14.766
56237W        W21398  14.816  24.933  12.521
56238W        W21399  41.329  11.795   0.342
56239W        W21400  19.143  27.475   3.709
56240W        W21401  27.279  38.545   1.305
56241W        W21402  16.507  28.819   3.620
56242W        W21403   4.240   0.807  11.890
56243W        W21404  12.598  19.605  11.551
56244W        W21405   8.392  11.858  10.591
56245W        W21406  34.586   8.688  10.812
56246W        W21407  41.112  42.360  13.875
56247W        W21408  35.022  20.764  10.621
56248W        W21409  44.704  44.555  11.154
56249W        W21410  19.823  20.727  10.640
56250W        W21411  44.789  19.067   4.448
56251W        W21412  42.725  41.023   0.740
56252W        W21413   7.220  20.601   3.398
56253W        W21414  13.852  40.826  14.772
56254W        W21415  38.087  39.328  11.662
56255W        W21416  30.915   8.789   0.733
56256W        W21417  32.624  10.096   4.873
56257W        W21418  32.553  14.889   3.066
56258W        W21419  21.728   9.148   1.427
56259W        W21420  38.523  32.260  14.841
56260W        W21421  19.039  38.403   2.310
56261W        W21422  19.498  20.129  11.435
56262W        W21423  29.217  13.698   3.726
56263W        W21424   6.966  33.616  13.419
56264W        W21425  15.599  29.688   1.274
56265W        W21426  15.344  31.725  11.237
56266W        W21427  29.963  11.787  11.400
56267W        W21428  30.128  17.083  11.108
56268W        W21429  29.641  17.698   0.365
56269W        W21430  23.198  30.010  12.279
56270W        W21431   7.702   7.873   0.625
56271W        W21432   9.737   4.248  14.871
56272W        W21433  42.463  41.355  12.379
56273W        W21434  32.791  34.829   1.206
56274W        W21435  26.397  43.536  12.556
56275W        W21436  29.032  22.968  14.968
56276W        W21437  44.909  35.973   3.238
56277W        W21438  18.460  10.192  13.311
56278W        W21439   6.825  20.992  14.975
56279W        W21440  35.401  15.747  10.876
56280W        W21441   9.364  44.867  13.776
56281W        W21442  39.543  19.612   0.409
56282W        W21443  12.330   5.657   4.199
56283W        W21444   5.690  14.238   1.596
56284W        W21445  32.511  24.458   4.466
56285W        W21446  32.668  12.812   2.782
56286W        W21447   7.886  16.236   4.584
56287W        W21448  39.536   1.006   0.067
56288W        W21449   8.190  11.348  10.640
56289W        W21450  18.296  21.302  11.497
56290W        W21451   6.812  23.052   4.099
56291W        W21452   3.514  22.865   2.621
56292W        W21453   0.831   6.234  13.818
56293W        W21454   5.115  26.554  14.003
56294W        W21455   0.391  14.560   0.376
56295W        W21456  43.356  11.686   1.667
56296W        W21457  25.745  12.591   1.635
56297W        W21458   4.028  10.925   2.278
56298W        W21459  11.263  37.133  14.363
56299W        W21460   7.690  35.956   1.393
56300W        W21461  18.905  17.447  11.566
56301W        W21462  10.316  23.560  10.618
56302W        W21463  12.610   9.363   3.785
56303W        W21464  35.933   4.729   0.461
56304W        W21465  39.917  33.385  12.647
56305W        W21466  38.302   4.201  12.301
56306W        W21467  44.787   5.944  12.500
56307W        W21468  14.741  13.333   2.115
56308W        W21469   0.831  14.944   2.923
56309W        W21470  22.273   9.727   2.243
56310W        W21471   4.690  36.861  11.450
56311W        W21472   1.944   2.098   3.675
56312W        W21473   4.932  39.324   0.911
56313W        W21474  34.206  12.096   2.240
56314W        W21475   9.752   6.961  13.940
56315W        W21476  11.884   1.377  11.561
56316W        W21477  42.012  25.241  11.370
56317W        W21478   3.824  43.206  13.666
56318W        W21479   9.704   0.945  14.476
56319W        W21480  36.218   9.936   1.200
56320W        W21481  43.919  14.111   1.814
56321W        W21482  18.090  43.708  11.280
56322W        W21483  31.806   6.033   0.806
56323W        W21484  42.083   7.386   2.929
56324W        W21485  14.727  11.388   0.325
56325W        W21486  17.010  15.528  10.735
56326W        W21487  20.580  40.854   3.368
56327W        W21488  43.495   3.014   1.906
56328W        W21489  16.315  16.697  12.547
56329W        W21490  29.165  38.436  11.001
56330W        W21491  40.070  21.210   3.336
56331W        W21492   5.624  24.580   1.344
56332W        W21493   9.268  16.875  14.329
56333W        W21494  30.498  41.036   1.296
56334W        W21495  19.142  41.514   4.119
56335W        W21496  35.348  12.806   1.579
56336W        W21497  38.863  19.156   2.729
56337W        W21498  10.257   4.284  12.903
56338W        W21499  16.842  25.776   4.145
56339W        W21500  42.305   2.222  11.575
56340W        W21501  21.066  19.541  12.935
56341W        W21502  31.766   1.764   4.443
56342W        W21503  28.691  14.111  14.450
56343W        W21504   1.301  31.148   0.020
56344W        W21505  30.098  22.491  13.913
56345W        W21506  23.261  18.333  14.297
56346W        W21507   0.979  43.038  10.773
56347W        W21508  38.922  34.523  14.132
56348W        W21509   6.130  10.756   4.287
56349W        W21510  42.382  11.969   1.805
56350W        W21511  36.913  35.587   3.577
56351W        W21512  10.289  20.371   4.629
56352W        W21513  14.631  31.989  10.503
56353W        W21514  12.390  12.208   1.958
56354W        W21515  20.729   4.342   1.214
56355W        W21516  16.291   4.472  11.943
56356W        W21517   8.824  34.444   2.175
56357W        W21518  26.437  17.335   0.278
56358W        W21519  28.772  18.963  11.112
56359W        W21520  28.651  13.891   2.698
56360W        W21521  36.106  17.962   4.446
56361W        W21522  13.951  26.042   2.546
56362W        W21523  42.382  24.845   3.063
56363W        W21524  35.437  31.176   1.992
56364W        W21525  18.955  38.797   0.898
56365W        W21526  44.759  11.934   0.341
56366W        W21527  37.538   2.580   5.020
56367W        W21528  15.129  10.841  12.749
56368W        W21529  39.009   7.020  10.498
56369W        W21530  37.429   1.189  14.956
56370W        W21531  17.139  23.257  13.626
56371W        W21532  15.625  25.182  10.618
56372W        W21533   1.913   2.376  14.371
56373W        W21534  16.706   9.198  10.462
56374W        W21535  10.606   0.759   4.895
56375W        W21536  33.589   0.278  11.485
56376W        W21537  15.170  33.637  12.822
56377W        W21538  25.647  23.134   4.579
56378W        W21539   3.593  36.484  14.252
56379W        W21540   8.406  19.025   1.733
56380W        W21541   3.923  25.524   5.050
56381W        W21542  34.456  17.301  14.494
56382W        W21543  38.903  28.663  12.346
56383W        W21544   3.367   2.249   2.153
56384W        W21545  26.956   5.945  13.825
56385W        W21546   3.273   4.047  12.035
56386W        W21547  18.937  26.574  13.810
56387W        W21548  12.293   1.810   0.922
56388W        W21549   9.231   3.982   3.691
56389W        W21550  20.807   8.265  11.980
56390W        W21551  32.646  36.755  12.436
56391W        W21552  30.921  14.207  13.188
56392W        W21553  28.056  28.069  12.912
56393W        W21554  38.316  32.033   2.904
56394W        W21555   4.077  19.688  13.432
56395W        W21556  37.390  12.314   3.782
56396W        W21557  20.644  43.683   0.212
56397W        W21558  38.286  20.104   4.365
56398W        W21559  28.116  42.376   0.381
56399W        W21560  32.489  35.198  11.859
56400W        W21561  43.394  43.363   0.909
56401W        W21562   3.498  11.338   1.320
56402W        W21563  26.100  34.116   4.332
56403W        W21564  18.859  44.039  11.807
56404W        W21565  25.989  44.935  10.927
56405W        W21566   9.141  21.172  10.554
56406W        W21567  24.132   4.468   0.699
56407W        W21568   6.290  24.357  14.758
56408W        W21569  12.318  15.237  13.949
56409W        W21570  41.460  16.583  11.270
56410W        W21571  42.420  42.895  12.577
56411W        W21572  42.876   7.526  14.874
56412W        W21573  25.443  42.267   0.687
56413W        W21574   1.331   3.018  10.676
56414W        W21575  10.697   5.117   4.601
56415W        W21576  39.960  28.298  13.883
56416W        W21577   0.276  10.658   5.337
56417W        W21578  13.164  32.539  12.429
56418W        W21579   2.846  34.562  11.735
56419W        W21580  17.304  34.113  13.847
56420W        W21581  22.189  17.326   2.657
56421W        W21582   1.778  38.603  13.467
56422W        W21583  35.873  37.047   0.406
56423W        W21584  11.549   2.340  14.961
56424W        W21585  17.697  43.372   4.944
56425W        W21586  36.660  21.562  11.003
56426W        W21587  26.550  17.801  12.004
56427W        W21588  28.928   6.240  13.843
56428W        W21589  40.890  33.899   1.425
56429W        W21590   3.437  30.025  13.553
56430W        W21591  12.812  11.364   1.703
56431W        W21592  24.206  30.985  11.975
56432W        W21593  20.119  33.374  13.007
56433W        W21594  10.882  15.383   4.343
56434W        W21595  10.071  10.947   1.138
56435W        W21596   2.316  42.711   2.728
56436W        W21597  15.270   2.337   4.744
56437W        W21598  24.040  13.071   1.196
56438W        W21599  18.195  33.487   3.131
56439W        W21600  13.731  21.007   1.850
56440W        W21601  42.495  28.423   2.802
56441W        W21602   7.207  32.799  11.169
56442W        W21603  31.826  35.555  13.041
56443W        W21604   7.936  20.483   2.411
56444W        W21605  19.888  12.088  11.597
56445W        W21606  44.300   4.841   0.936
56446W        W21607   9.156  40.546   3.342
56447W        W21608  11.155  41.600  12.727
56448W        W21609  13.486  32.282  14.896
56449W        W21610  35.152  31.889   0.328
56450W        W21611  21.065  31.605  13.381
56451W        W21612  13.705  16.733   1.310
56452W        W21613  38.623  15.726  11.085
56453W        W21614  34.635  31.814  13.034
56454W        W21615  16.607  35.133  14.747
56455W        W21616   1.072  10.924   1.827
56456W        W21617  18.043  23.101   2.748
56457W        W21618  18.258  21.539   2.771
56458W        W21619  32.024  18.340  13.610
56459W        W21620  33.467   3.697   4.584
56460W        W21621   3.163  16.581   5.684
56461W        W21622  10.729  41.029  12.935
56462W        W21623   2.689  10.118  14.583
56463W        W21624  17.653  11.653  11.386
56464W        W21625   3.352  21.243   0.181
56465W        W21626   8.382  27.158   0.397
56466W        W21627  40.804  17.570  12.722
56467W        W21628  37.963  16.845   3.277
56468W        W21629   9.585   8.685  14.843
56469W        W21630   3.490  31.000   2.225
56470W        W21631  35.271  41.324  11.222
56471W        W21632  32.285  19.024   1.823
56472W        W21633  44.415   4.123   5.097
56473W        W21634  14.697  29.370  13.823
56474W        W21635  26.199   6.893   1.632
56475W        W21636   2.689  32.484  12.873
56476W        W21637  35.911  15.293   1.678
56477W        W21638  22.552   4.270  11.792
56478W        W21639  21.247   0.298   4.583
56479W        W21640  33.226  25.487  13.224
56480W        W21641  12.242   2.245   2.377
56481W        W21642  42.925  22.233  12.057
56482W        W21643  44.333  34.620  10.814
56483W        W21644  41.425  20.034   3.228
56484W        W21645   4.820  18.840  10.692
56485W        W21646  19.340  17.591  10.275
56486W        W21647  17.346  14.688  12.778
56487W        W21648   4.499  16.313  10.878
56488W        W21649  18.569  37.563   2.621
56489W        W21650  10.186  44.280  13.398
56490W        W21651  26.683  11.065   1.043
56491W        W21652  42.806  15.513  11.036
56492W        W21653  42.103  38.224   1.788
56493W        W21654  26.530  15.785  11.972
56494W        W21655  10.874  42.382  10.691
56495W        W21656  10.217  32.106   2.924
56496W        W21657   0.786  15.812   3.231
56497W        W21658  14.870  31.188   4.078
56498W        W21659  25.102  39.407   2.382
56499W        W21660   5.977   0.173   2.028
56500W        W21661  27.903  40.823  13.592
56501W        W21662  37.622  22.527   1.906
56502W        W21663   2.077  42.583  11.587
56503W        W21664  39.100  16.852   4.486
56504W        W21665  32.893  32.396  12.315
56505W        W21666   4.989  16.800  12.678
56506W        W21667   5.402   3.944   4.878
56507W        W21668   7.738  29.501  14.315
56508W        W21669  19.617  23.921   2.330
56509W        W21670  36.439   6.291  13.443
56510W        W21671  12.024  10.138   4.977
56511W        W21672  42.937  20.681  14.997
56512W        W21673  17.521  38.816  13.784
56513W        W21674  15.125   2.526  14.290
56514W        W21675  24.696  14.367  12.916
56515W        W21676   8.856   8.314  14.430
56516W        W21677  27.079  44.099   0.888
56517W        W21678  15.233   8.348   3.176
56518W        W21679  12.248  22.793   3.517
56519W        W21680  24.248  44.168  13.998
56520W        W21681  34.700  24.578  10.233
56521W        W21682   4.695  24.173   4.097
56522W        W21683  11.852  39.454  12.078
56523W        W21684  35.000   1.452  12.616
56524W        W21685  18.846   1.847   0.480
56525W        W21686  23.988  25.483   4.094
56526W        W21687  13.172  12.464  10.190
56527W        W21688  34.154  14.649   4.805
56528W        W21689   8.643  13.636   0.388
56529W        W21690   4.135  38.088   0.433
56530W        W21691  30.469  13.306  14.303
56531W        W21692  14.091  25.067  13.007
56532W        W21693  20.494  24.123  13.316
56533W        W21694   2.201  18.823  12.218
56534W        W21695  41.286  17.585  14.708
56535W        W21696  37.022  22.602  14.769
56536W        W21697   0.007   4.756  13.392
56537W        W21698  22.616   7.637  11.411
56538W        W21699  35.610  42.940   4.208
56539W        W21700   9.476   9.769  12.947
56540W        W21701  27.061  30.536   3.722
56541W        W21702   6.382   8.812   1.878
56542W        W21703  39.487   3.578  13.738
56543W        W21704  18.415   5.592  14.531
56544W        W21705  43.827  31.344  13.518
56545W        W21706  20.441   4.130  12.945
56546W        W21707  35.343   8.521  11.211
56547W        W21708  31.465   5.694   0.488
56548W        W21709  26.559  34.046  12.203
56549W        W21710  42.610   4.499  11.656
56550W        W21711  29.467  14.175   3.663
56551W        W21712   6.286  35.213  14.687
56552W        W21713  32.186   2.718  12.824
56553W        W21714   4.901  30.287  12.397
56554W        W21715   2.689  34.315  12.155
56555W        W21716   2.422  34.598  13.112
56556W        W21717  23.970  42.464   3.191
56557W        W21718  14.624  16.272   2.375
56558W        W21719  21.539  31.390  14.083
56559W        W21720   7.185  31.855   1.253
56560W        W21721  13.750  18.719  13.623
56561W        W21722  43.488   6.374   0.321
56562W        W21723   5.668  40.909  14.706
56563W        W21724   5.047  27.803  13.375
56564W        W21725  25.143   0.918   4.843
56565W        W21726   2.783  43.075  12.011
56566W        W21727  29.933  16.324   3.660
56567W        W21728  35.909  21.602  14.946
56568W        W21729  37.525   2.385   1.608
56569W        W21730  32.604  27.875  12.413
56570W        W21731  33.574  21.592   0.364
56571W        W21732   9.343  41.768   0.441
56572W        W21733  33.379  25.214   3.253
56573W        W21734  34.950  42.492   1.380
56574W        W21735  44.395  20.797   1.397
56575W        W21736  10.116  25.166   4.620
56576W        W21737  25.543  10.859   0.017
56577W        W21738  33.631  36.526   2.095
56578W        W21739  18.049  42.985   1.496
56579W        W21740  28.065  37.981  10.655
56580W        W21741  19.700  21.712   1.025
56581W        W21742   0.818  43.435   0.866
56582W        W21743   9.766  41.347  10.660
56583W        W21744  42.893  11.762   1.465
56584W        W21745  33.926  30.419  13.057
56585W        W21746  38.293   1.385  13.262
56586W        W21747   1.449  22.141  11.085
56587W        W21748  11.174  13.323  11.118
56588W        W21749  29.850   4.162   3.247
56589W        W21750  41.234   3.136  12.544
56590W        W21751  19.585  33.120  14.879
56591W        W21752  32.208  29.657   4.919
56592W        W21753   5.249  31.152   1.950
56593W        W21754  25.487  34.513  11.679
56594W        W21755  30.160  35.650  11.634
56595W        W21756   9.292  24.006   3.235
56596W        W21757   4.894  21.768  10.682
56597W        W21758  19.826   7.470   4.670
56598W        W21759  15.947  24.358  14.981
56599W        W21760   5.521  27.100   0.785
56600W        W21761   7.159  40.017  14.362
56601W        W21762  43.136  39.877   4.515
56602W        W21763  30.343   1.730  12.614
56603W        W21764  24.546   0.227   0.325
56604W        W21765  14.334  12.165   0.857
56605W        W21766  13.799   1.911   2.351
56606W        W21767  38.897  37.860   2.798
56607W        W21768  39.330  21.456   4.039
56608W        W21769   7.383   6.882  11.197
56609W        W21770   1.631  41.562  12.856
56610W        W21771  42.489  41.460  11.886
56611W        W21772   0.288   1.221  10.528
56612W        W21773  35.039  21.750  10.520
56613W        W21774  37.658   0.534   3.026
56614W        W21775  43.001  17.813   3.454
56615W        W21776   0.681  33.964   2.776
56616W        W21777   9.180  38.200  11.556
56617W        W21778  15.776  18.284  14.765
56618W        W21779  13.322  37.573   0.745
56619W        W21780  26.595  39.536  10.766
56620W        W21781  20.032  40.457  13.811
56621W        W21782   8.920  40.075  11.076
56622W        W21783   6.362  42.525   2.758
56623W        W21784  36.005  15.770  14.902
56624W        W21785  42.294  38.816   4.081
56625W        W21786   8.778  25.612  10.463
56626W        W21787  12.193  23.697   1.849
56627W        W21788   2.065   4.963  12.026
56628W        W21789  13.238  24.174   2.013
56629W        W21790  13.885   7.738  14.400
56630W        W21791  37.315  35.606   1.110
56631W        W21792  39.243   3.884   0.984
56632W        W21793  11.387  10.667   1.951
56633W        W21794  26.505  22.345   4.151
56634W        W21795  35.994  35.901  11.413
56635W        W21796   8.270  24.650  14.633
56636W        W21797  18.108  44.607  12.331
56637W        W21798  32.092  20.510   1.768
56638W        W21799  17.063  14.256   3.775
56639W        W21800  30.642  19.768   4.279
56640W        W21801  31.182  18.374   0.163
56641W        W21802  27.261  13.945   2.405
56642W        W21803  37.643  42.709   3.908
56643W        W21804  26.700  16.775   2.426
56644W        W21805  35.819   7.418   1.460
56645W        W21806  15.582  25.087   2.889
56646W        W21807  29.472  38.082  11.947
56647W        W21808   2.619  25.329  10.049
56648W        W21809  44.922   1.746   0.483
56649W        W21810   3.830  32.351  12.825
56650W        W21811  15.254  21.015   2.082
56651W        W21812  21.271  13.385   0.291
56652W        W21813  18.799  35.410  13.802
56653W        W21814   5.812  26.400   1.695
56654W        W21815  39.737  15.671  13.395
56655W        W21816  32.092  42.779   0.900
56656W        W21817  26.024  11.905   2.148
56657W        W21818  22.525  39.578   3.278
56658W        W21819   4.155   1.375  14.607
56659W        W21820   2.849  21.747   1.835
56660W        W21821  35.841  18.339   2.798
56661W        W21822  20.690  43.782   2.821
56662W        W21823  43.027  19.244  12.544
56663W        W21824  43.894  44.933   1.781
56664W        W21825  43.521  27.083   2.255
56665W        W21826  39.118  39.523  14.914
56666W        W21827  34.005  27.928  12.922
56667W        W21828  38.127  26.835   4.019
56668W        W21829  18.562  43.825  10.908
56669W        W21830   3.507  27.963  11.641
56670W        W21831  23.154   5.299  13.406
56671W        W21832  11.621  30.661  13.920
56672W        W21833   7.130   2.740  13.360
56673W        W21834  24.413  23.179   2.738
56674W        W21835  25.629  37.031  12.892
56675W        W21836   5.610   8.366   1.301
56676W        W21837  13.333  22.408   2.163
56677W        W21838  33.658  41.296  14.082
56678W        W21839  37.160  31.901   4.651
56679W        W21840   9.350  11.120   4.232
56680W        W21841  39.048  42.755  14.395
56681W        W21842   7.464  40.368  11.460
56682W        W21843  33.434  11.256   4.391
56683W        W21844   4.759  36.132  13.633
56684W        W21845  10.331   1.955  11.620
56685W        W21846  12.417  36.467   2.153
56686W        W21847  41.394  12.865  13.753
56687W        W21848  41.522   8.204  13.597
56688W        W21849  40.537  19.490  14.050
56689W        W21850   5.514  19.659  13.833
56690W        W21851  17.087  43.395  10.961
56691W        W21852   9.931  34.908  13.510
56692W        W21853  14.618  41.801   2.802
56693W        W21854  23.980  37.472  13.289
56694W        W21855   6.238  14.320   1.156
56695W        W21856  25.993  12.720   2.758
56696W        W21857  44.428   1.162  12.329
56697W        W21858  33.632  23.769  14.448
56698W        W21859  18.646  36.382  13.411
56699W        W21860  15.438  36.901   2.808
56700W        W21861  37.306   1.395  13.554
56701W        W21862  10.415  22.497  14.485
56702W        W21863   4.849  13.014   0.575
56703W        W21864  26.128   7.404   2.604
56704W        W21865   3.530  12.098   0.459
56705W        W21866  13.005  13.659   0.813
56706W        W21867  37.801   0.818  11.859
56707W        W21868  15.806   2.013   1.252
56708W        W21869  24.488  20.435   4.037
56709W        W21870   8.881  14.031   1.232
56710W        W21871  19.504  11.443   1.197
56711W        W21872  19.017   5.825  11.611
56712W        W21873  24.160   4.024  14.873
56713W        W21874   5.164  44.025   2.669
56714W        W21875   6.471  25.300  13.798
56715W        W21876  24.542  21.717   0.776
56716W        W21877  31.489  18.612   3.737
56717W        W21878  16.651   4.890  12.648
56718W        W21879  40.360  10.247  13.604
56719W        W21880  40.501   4.334   3.294
56720W        W21881   6.926  39.053  11.708
56721W        W21882  40.198  23.753  12.124
56722W        W21883  41.650  21.808   3.710
56723W        W21884   6.812   4.324  12.617
56724W        W21885  27.209   3.441   1.895
56725W        W21886  20.059  37.744   3.646
56726W        W21887  31.505  31.836   4.711
56727W        W21888  42.898  15.337   2.225
56728W        W21889  16.754   7.471   2.308
56729W        W21890  13.493  41.871  14.002
56730W        W21891  19.343  19.678  14.274
56731W        W21892  14.862  30.706  11.686
56732W        W21893  21.112  14.826  14.387
56733W        W21894  22.752  34.436   2.379
56734W        W21895  32.410  12.515  11.675
56735W        W21896   7.851  26.563  11.954
56736W        W21897  18.756  43.117   1.317
56737W        W21898   7.294  42.862   0.977
56738W        W21899   8.799  12.823  12.993
56739W        W21900  36.068  35.611  13.863
56740W        W21901  36.510  29.476   1.733
56741W        W21902  34.480   5.776   0.173
56742W        W21903  31.976   7.094   1.351
56743W        W21904  42.518  30.893   2.194
56744W        W21905  41.249  28.439  14.860
56745W        W21906  34.650  27.257   3.386
56746W        W21907  37.078  32.119   0.238
56747W        W21908  40.612  28.449  11.980
56748W        W21909  24.537  17.703   4.158
56749W        W21910  44.528  43.036   5.142
56750W        W21911  34.990  13.667  11.557
56751W        W21912  32.055  41.571   3.965
56752W        W21913   7.117  27.439  13.789
56753W        W21914  14.806  35.711  12.139
56754W        W21915  20.332  16.571  13.987
56755W        W21916   1.510  43.194  14.389
56756W        W21917  26.953  17.804  11.603
56757W        W21918  31.658  39.121  12.843
56758W        W21919   5.856  15.302  11.193
56759W        W21920  21.200  30.583   2.136
56760W        W21921  30.759  30.578  12.991
56761W        W21922  27.727  26.712   0.221
56762W        W21923   1.217  42.983   2.627
56763W        W21924  31.699   0.212   2.888
56764W        W21925  38.608   6.700   0.399
56765W        W21926   9.893  30.523  12.626
56766W        W21927  31.851   8.683  11.224
56767W        W21928  39.250  27.111   0.501
56768W        W21929   5.739  14.314   2.115
56769W        W21930  11.800  25.556  13.532
56770W        W21931  13.702  36.457  13.478
56771W        W21932   0.983  24.068  10.614
56772W        W21933  43.531  14.196  13.156
56773W        W21934  16.777  19.688  13.882
56774W        W21935  22.530  14.612   3.159
56775W        W21936   4.237  32.603  12.006
56776W        W21937  12.119  14.688   3.587
56777W        W21938  22.482   3.106   2.740
56778W        W21939  29.132  40.060   4.116
56779W        W21940  14.816  28.720   3.209
56780W        W21941   7.902  42.369   4.632
56781W        W21942  21.911   2.292   3.180
56782W        W21943   8.175   7.606  14.204
56783W        W21944  32.232   0.553   4.183
56784W        W21945  26.982  44.283   4.309
56785W        W21946  12.921   9.774  14.241
56786W        W21947   0.750  10.727   2.161
56787W        W21948  35.685  31.423   3.607
56788W        W21949  12.256  12.358  13.955
56789W        W21950  21.681  18.836   3.321
56790W        W21951  18.762  33.454  14.057
56791W        W21952  29.439   6.127   2.482
56792W        W21953  27.448  41.310  14.266
56793W        W21954   1.341  35.091   2.466
56794W        W21955  10.624  18.369   0.264
56795W        W21956  28.214  15.573   2.419
56796W        W21957   2.418  27.672  10.329
56797W        W21958  30.656  20.271  13.893
56798W        W21959  12.046   1.744   2.317
56799W        W21960  17.664   9.412  12.906
56800W        W21961  26.933  12.577  13.368
56801W        W21962  35.007  10.384  12.659
56802W        W21963  15.654  30.004  11.593
56803W        W21964  31.273  33.294  11.173
56804W        W21965  39.452  33.938   4.567
56805W        W21966  26.743   8.321   2.182
56806W        W21967  33.878  36.204  11.214
56807W        W21968  36.564  30.173  12.509
56808W        W21969  17.719  41.760   3.231
56809W        W21970  38.029  10.139  12.474
56810W        W21971   2.317  12.936  14.072
56811W        W21972  21.712  29.617   4.117
56812W        W21973  22.559   8.720   1.479
56813W        W21974  17.535  33.842   4.552
56814W        W21975  36.107  34.563  10.775
56815W        W21976  34.592  10.732  10.940
56816W        W21977  16.535  40.250  12.085
56817W        W21978  28.232   2.326  11.206
56818W        W21979  30.680  32.365   4.224
56819W        W21980  21.806  39.060  14.446
56820W        W21981  29.617   1.555  10.686
56821W        W21982   1.343  39.390  12.928
56822W        W21983  18.416  18.625   0.922
56823W        W21984  25.225  20.983   3.553
56824W        W21985   3.492  25.954   2.407
56825W        W21986  22.461  41.459  10.118
56826W        W21987  35.602  37.487  12.529
56827W        W21988  39.957  23.045   2.855
56828W        W21989  40.994  30.191  12.294
56829W        W21990  14.281  26.547   1.603
56830W        W21991  35.961  16.145   1.920
56831W        W21992  43.217  12.746  14.970
56832W        W21993  23.287  28.427   1.318
56833W        W21994  12.204  17.744  13.557
56834W        W21995  20.462  29.142  10.420
56835W        W21996   3.163  24.179   0.406
56836W        W21997  30.153  26.549  11.067
56837W        W21998  38.362   5.800   3.773
56838W        W21999  39.889  13.747   1.501
56839W        W22000  43.897  13.855   3.752
56840W        W22001   6.796  17.306  14.349
56841W        W22002  12.928  15.050   0.484
56842W        W22003  39.683   0.891   2.236
56843W        W22004  19.285  36.543   0.222
56844W        W22005  19.805  24.696  12.457
56845W        W22006   2.641  25.027   0.644
56846W        W22007  30.410  24.130   2.347
56847W        W22008   9.968  20.910  10.583
56848W        W22009  43.892   6.341   3.140
56849W        W22010  25.462  35.115  13.911
56850W        W22011   9.262  37.670  10.781
56851W        W22012  35.432  25.611   1.298
56852W        W22013  44.364  30.855   4.729
56853W        W22014  42.176  25.469  10.559
56854W        W22015  29.632  40.565  11.558
56855W        W22016  40.946   8.645   2.948
56856W        W22017  32.945  28.411  12.103
56857W        W22018   0.946  42.150  12.449
56858W        W22019  27.670   0.246   2.228
56859W        W22020  15.266  44.516   3.801
56860W        W22021  44.911   9.447   2.395
56861W        W22022  26.214  20.677  14.788
56862W        W22023  41.570  32.559  13.033
56863W        W22024  19.992  13.233  14.887
56864W        W22025  36.303   8.395  11.117
56865W        W22026  30.042  20.214   0.051
56866W        W22027  28.260  33.927  14.009
56867W        W22028  32.331   3.248   2.969
56868W        W22029   8.350   5.225  13.955
56869W        W22030  25.752   9.467  13.357
56870W        W22031  20.470  22.004   1.096
56871W        W22032  10.315   9.665   2.848
56872W        W22033  21.245  14.379   4.630
56873W        W22034  33.869  20.309  14.585
56874W        W22035  19.154  34.596   3.248
56875W        W22036  25.674  16.886   2.565
56876W        W22037   3.254  15.864   3.668
56877W        W22038  16.014  42.622  11.121
56878W        W22039  18.227   4.481   2.571
56879W        W22040  11.367   5.906   1.548
56880W        W22041  44.865   8.895  14.581
56881W        W22042  17.350   4.886  10.690
56882W        W22043  11.750  10.698   0.307
56883W        W22044  39.121  40.561  13.552
56884W        W22045  43.919  17.522  14.181
56885W        W22046  33.259  29.593  14.100
56886W        W22047  23.533  19.699   3.583
56887W        W22048  40.851   7.358   0.705
56888W        W22049  29.114  40.416   5.025
56889W        W22050  21.563  12.107  11.484
56890W        W22051  35.476  40.307   1.247
56891W        W22052  17.167  13.204   0.280
56892W        W22053  39.169  33.475   3.651
56893W        W22054  40.017  13.112   0.449
56894W        W22055  42.308  25.710   1.085
56895W        W22056  21.003  32.713  13.142
56896W        W22057  24.202   3.787  11.570
56897W        W22058  14.624  40.656  12.066
56898W        W22059  15.590  16.267   5.497
56899W        W22060   2.247  39.882   4.126
56900W        W22061  30.635  26.001   3.749
56901W        W22062   5.333   3.945  14.788
56902W        W22063  37.944  10.599  10.935
56903W        W22064  33.562  32.974  12.050
56904W        W22065  18.233  26.966   4.673
56905W        W22066  15.605  25.684  14.840
56906W        W22067  44.390  43.033  13.066
56907W        W22068  28.504  23.885  12.910
56908W        W22069   1.845  37.882  14.154
56909W        W22070   9.209  23.765   2.765
56910W        W22071  38.565  16.937  12.899
56911W        W22072  25.292  43.246   0.043
56912W        W22073  12.841  33.527   3.198
56913W        W22074  29.183  44.887   0.764
56914W        W22075   2.454  27.745   4.583
56915W        W22076  23.588  25.777   3.830
56916W        W22077  22.561   8.720  10.504
56917W        W22078  38.929   5.640   0.973
56918W        W22079  22.987  43.683   3.891
56919W        W22080   5.706  38.191  14.855
56920W        W22081   7.721  36.625   3.117
56921W        W22082  41.864   9.565  12.640
56922W        W22083   7.651  20.163   0.603
56923W        W22084  11.806  12.695   4.614
56924W        W22085  23.484  17.241  12.925
56925W        W22086  43.973  26.592   1.832
56926W        W22087  31.856  20.725  14.728
56927W        W22088   7.482  30.119  12.597
56928W        W22089  12.482  15.665  11.968
56929W        W22090  12.545  11.717   1.950
56930W        W22091  34.433  42.063  14.977
56931W        W22092  26.634  12.071   0.499
56932W        W22093   3.462  12.695  11.262
56933W        W22094   5.736  35.056  10.646
56934W        W22095   0.420   6.466   0.065
56935W        W22096  30.933  26.398  13.000
56936W        W22097   6.370   0.301  11.595
56937W        W22098   3.453  13.911   0.030
56938W        W22099  17.688  23.891   2.263
56939W        W22100  14.646  37.879   3.103
56940W        W22101  10.111  43.095  12.792
56941W        W22102  30.831  37.956   2.988
56942W        W22103  14.306  35.944   3.684
56943W        W22104  41.772  24.092   3.283
56944W        W22105  15.666   5.985   2.264
56945W        W22106   5.159  11.623  13.277
56946W        W22107  37.374  25.477  14.318
56947W        W22108  20.332  20.648   3.879
56948W        W22109  31.003  30.718  10.430
56949W        W22110  38.801  20.203   1.793
56950W        W22111  29.110  40.080   2.748
56951W        W22112   8.715  37.157  12.951
56952W        W22113   0.370   4.680   2.627
56953W        W22114  15.705  41.332  10.828
56954W        W22115  30.353  27.143   2.596
56955W        W22116  25.211  25.767  12.957
56956W        W22117   7.841  30.371  11.742
56957W        W22118  35.915  31.096   1.683
56958W        W22119  31.161  26.308  11.182
56959W        W22120  29.668  30.679   1.430
56960W        W22121   2.783  15.400   0.470
56961W        W22122  15.185  35.108  10.956
56962W        W22123  44.495  24.079  13.888
56963W        W22124   7.126  14.609  13.116
56964W        W22125  20.806  38.917  10.598
56965W        W22126  21.314  23.237  13.151
56966W        W22127   4.995  37.097  11.852
56967W        W22128  31.201  13.156   0.955
56968W        W22129  33.510  37.003  13.260
56969W        W22130   9.745  33.426   2.163
56970W        W22131   7.902  33.176   0.773
56971W        W22132  26.758  10.658   3.294
56972W        W22133  31.605  12.063   4.041
56973W        W22134   5.309   5.736  12.931
56974W        W22135  26.716  35.434  13.012
56975W        W22136  31.234  11.988   3.682
56976W        W22137  15.486  14.891   1.254
56977W        W22138  26.992  14.309   0.031
56978W        W22139  20.147  34.423  13.062
56979W        W22140  18.024  40.481   1.438
56980W        W22141   0.416  35.850  13.864
56981W        W22142  18.508   1.814  13.044
56982W        W22143  10.135  40.469   3.376
56983W        W22144  15.580   8.346   2.802
56984W        W22145  24.122   3.214  12.906
56985W        W22146   6.065  37.388   1.756
56986W        W22147  19.360  14.378   1.949
56987W        W22148  20.532  18.683   3.364
56988W        W22149  13.719  43.495   0.707
56989W        W22150  11.364  40.918   4.531
56990W        W22151  22.124   6.283  11.136
56991W        W22152   0.025   2.726   0.721
56992W        W22153  14.504  15.668   4.313
56993W        W22154  15.592  43.502   1.896
56994W        W22155  31.207   8.281   3.529
56995W        W22156  35.265  27.554  11.590
56996W        W22157   2.220  11.051   2.649
56997W        W22158  32.384  41.023  11.108
56998W        W22159   0.921  40.619   2.608
56999W        W22160   7.939  10.821  10.512
57000W        W22161  13.209   2.290  12.561
57001W        W22162  21.132  31.568   2.738
57002W        W22163   9.767   6.180  11.470
57003W        W22164  39.953  34.629   3.887
57004W        W22165  44.174  28.273  11.581
57005W        W22166   2.779  17.789  12.511
57006W        W22167   3.415   5.872   2.881
57007W        W22168   9.173   4.024   4.527
57008W        W22169   8.594  12.737   2.317
57009W        W22170   6.680   0.432  11.205
57010W        W22171  28.397   4.215  11.279
57011W        W22172  35.658  40.662  11.206
57012W        W22173  11.479  25.050   3.586
57013W        W22174  12.371  19.667  14.884
57014W        W22175  44.873  39.078  11.647
57015W        W22176  26.141  21.751  10.006
57016W        W22177   3.420  15.761  13.649
57017W        W22178   2.975  34.360  12.586
57018W        W22179   2.146  25.414   3.450
57019W        W22180   9.830  16.267  14.879
57020W        W22181  13.536  39.056  12.402
57021W        W22182  17.814  20.198   1.602
57022W        W22183  35.874  29.601   4.156
57023W        W22184  36.882   2.218   3.978
57024W        W22185  34.255  18.807   4.772
57025W        W22186  36.624  16.658  14.447
57026W        W22187  42.043   4.882   0.428
57027W        W22188   9.280  22.301  12.273
57028W        W22189  30.099  19.739  10.614
57029W        W22190  14.174   0.327   4.661
57030W        W22191   4.272   7.301   1.308
57031W        W22192  38.868   2.452   4.161
57032W        W22193  44.413  32.437  14.569
57033W        W22194  36.163   2.950  12.983
57034W        W22195  27.965  42.710  11.640
57035W        W22196  24.375  12.571   4.888
57036W        W22197  10.090  31.141   2.783
57037W        W22198  22.568  30.215   1.743
57038W        W22199  22.204  30.554   0.136
57039W        W22200  42.024  38.740  11.045
57040W        W22201  26.468   2.885  11.377
57041W        W22202   8.835  35.952  10.604
57042W        W22203  43.924  39.438  14.834
57043W        W22204   4.810   3.928   1.634
57044W        W22205  14.149  27.877   4.168
57045W        W22206   9.060  21.237   3.358
57046W        W22207  39.152  40.205   5.136
57047W        W22208  41.266  11.616   1.732
57048W        W22209   2.478  34.222  10.064
57049W        W22210  41.727  23.560  13.424
57050W        W22211  16.531  39.459   1.408
57051W        W22212  22.598  39.973   5.036
57052W        W22213  24.045  28.185  14.467
57053W        W22214  34.786  32.696  14.831
57054W        W22215  38.448  18.504   4.417
57055W        W22216  17.592  28.591  10.629
57056W        W22217  24.636   1.863  12.383
57057W        W22218  14.329  22.902  11.658
57058W        W22219   1.684  29.174  10.988
57059W        W22220  14.632  22.130   0.665
57060W        W22221  25.620  38.436   3.036
57061W        W22222  35.424  21.565   1.845
57062W        W22223  41.683  41.851   3.883
57063W        W22224  21.643  32.152  10.329
57064W        W22225  40.559  27.754   1.734
57065W        W22226  12.837  25.048  12.595
57066W        W22227  26.632   0.173  10.716
57067W        W22228  12.627  16.711   2.355
57068W        W22229  23.047  27.460  14.715
57069W        W22230  43.807   4.894  12.427
57070W        W22231  23.018  23.147   5.072
57071W        W22232  11.504  17.061  13.388
57072W        W22233  16.620  35.941   1.890
57073W        W22234  35.393  24.135   1.416
57074W        W22235  23.682  34.700  13.873
57075W        W22236   3.965  40.281   1.686
57076W        W22237  27.620  30.194  14.747
57077W        W22238   4.946  17.068  14.501
57078W        W22239  21.590  38.340   5.372
57079W        W22240  23.491  14.681  14.913
57080W        W22241  16.688  15.732   1.686
57081W        W22242  21.148  29.086  13.895
57082W        W22243  11.024  18.705  11.105
57083W        W22244  36.461  38.885  13.302
57084W        W22245  25.996  44.713  14.423
57085W        W22246   5.646  42.388   3.374
57086W        W22247  12.377  31.208   4.339
57087W        W22248  25.811  31.624   1.973
57088W        W22249  22.058  20.349   2.789
57089W        W22250   3.786  12.482   2.804
57090W        W22251  20.078  26.519   4.170
57091W        W22252  14.561  35.922  12.586
57092W        W22253   8.319  21.102   0.375
57093W        W22254  20.157   2.029   4.241
57094W        W22255  20.301  32.872  10.780
57095W        W22256   7.759  25.255   0.111
57096W        W22257   3.237  32.577  14.019
57097W        W22258   7.252  11.214  12.246
57098W        W22259  12.664  20.720   4.133
57099W        W22260  39.406  23.705  10.958
57100W        W22261   2.916  15.848  14.429
57101W        W22262   2.681  15.790   9.801
57102W        W22263   4.525  37.996   4.920
57103W        W22264  11.390  31.211  12.452
57104W        W22265  16.001  32.103   4.524
57105W        W22266  12.530  19.632  14.368
57106W        W22267  22.699  43.814  11.280
57107W        W22268  13.354  27.175  13.505
57108W        W22269  24.257  14.691   0.435
57109W        W22270  15.079  22.002  14.953
57110W        W22271   8.908  37.003   1.844
57111W        W22272   3.969   7.963  14.127
57112W        W22273  18.563  31.859   3.746
57113W        W22274   8.190  34.381  11.146
57114W        W22275   0.995  36.900   1.717
57115W        W22276  34.903  25.087  14.015
57116W        W22277  36.428  30.358  13.970
57117W        W22278  21.406   3.196  14.047
57118W        W22279  26.034  38.365  13.327
57119W        W22280   1.170  21.335  11.467
57120W        W22281  26.186  33.382   4.059
57121W        W22282  31.635   9.146   3.857
57122W        W22283   5.185  24.071  10.977
57123W        W22284  37.918  30.463  12.075
57124W        W22285  23.620  13.730   4.870
57125W        W22286  20.981   5.244  10.801
57126W        W22287  23.031  38.844  14.988
57127W        W22288  37.667  22.946  14.294
57128W        W22289  25.880   4.478   2.700
57129W        W22290  17.626  35.876  12.808
57130W        W22291   7.230  21.145  13.407
57131W        W22292  41.052  13.971  11.403
57132W        W22293   0.864  33.068   2.928
57133W        W22294  41.635  23.089  13.261
57134W        W22295   0.390  20.444  13.416
57135W        W22296   0.797   2.378  10.534
57136W        W22297  17.136  29.433   0.456
57137W        W22298  22.489  35.087   1.095
57138W        W22299  40.917  21.598  11.402
57139W        W22300   6.147  18.433   0.908
57140W        W22301   5.008   0.465   5.052
57141W        W22302   0.286   5.159   1.969
57142W        W22303   2.147  29.034  11.145
57143W        W22304  44.928  42.323  13.570
57144W        W22305  32.137  40.900   2.257
57145W        W22306   2.918  38.907  12.365
57146W        W22307  39.527  18.633  10.031
57147W        W22308  33.400  21.813  13.096
57148W        W22309  12.071  35.578  13.894
57149W        W22310  41.158  28.274   4.348
57150W        W22311   4.184   6.257   0.686
57151W        W22312  19.474  38.338   1.461
57152W        W22313   0.881   3.940  14.267
57153W        W22314   7.932   6.051   4.888
57154W        W22315   1.123  15.147   3.839
57155W        W22316  42.838  18.990  10.551
57156W        W22317  42.417  25.956  13.832
57157W        W22318  39.491  13.417   4.736
57158W        W22319  24.037   6.677  14.712
57159W        W22320   8.345  39.077  13.358
57160W        W22321  36.427  14.243   5.274
57161W        W22322   8.826  21.058  14.004
57162W        W22323  26.655   5.661  11.014
57163W        W22324   9.390   3.666  13.469
57164W        W22325  34.470  14.227   2.144
57165W        W22326  24.468  42.407   2.200
57166W        W22327   0.458  32.714   1.776
57167W        W22328  41.429  30.868  14.868
57168W        W22329   0.744  38.859  13.972
57169W        W22330  16.690  43.199   1.779
57170W        W22331  38.446  40.088   3.755
57171W        W22332   0.742  22.616  10.589
57172W        W22333  31.580  22.424   2.236
57173W        W22334  35.305  36.924  10.593
57174W        W22335  20.919  11.572  14.997
57175W        W22336  22.950  31.828  11.141
57176W        W22337  10.821  36.509  12.139
57177W        W22338   5.978  32.084   5.096
57178W        W22339  13.293  42.246   9.992
57179W        W22340   6.898  28.001   0.829
57180W        W22341  35.885  11.243  11.618
57181W        W22342  12.060  31.927  13.006
57182W        W22343  26.273  19.434   1.776
57183W        W22344  29.213   7.434  13.360
57184W        W22345  18.276  44.855  14.708
57185W        W22346  35.844  25.995  10.958
57186W        W22347  20.320  32.995  13.930
57187W        W22348   2.943  17.160  14.282
57188W        W22349  19.460  22.144  14.822
57189W        W22350  23.169  10.883   1.263
57190W        W22351  35.503   7.164   2.373
57191W        W22352  25.591  34.093   3.166
57192W        W22353  20.988  28.534   4.676
57193W        W22354  32.179  41.657   9.551
57194W        W22355  41.433  16.683  12.643
57195W        W22356  28.855  33.443   4.551
57196W        W22357  44.861  38.903  10.760
57197W        W22358  23.782  13.425  14.452
57198W        W22359  24.089  19.138  11.407
57199W        W22360  15.689  22.963  12.796
57200W        W22361   7.347  13.114   1.781
57201W        W22362  14.037   6.938   3.186
57202W        W22363  36.916   2.405   2.431
57203W        W22364  42.186  41.767  12.496
57204W        W22365   2.073  38.478  10.745
57205W        W22366  19.578   7.843  11.557
57206W        W22367  21.148  41.179   0.731
57207W        W22368  26.507   5.376   4.442
57208W        W22369  14.128  43.179   3.721
57209W        W22370  32.023  34.057   2.016
57210W        W22371   6.031  23.458   2.317
57211W        W22372  44.659  41.229   3.242
57212W        W22373   9.618  22.207   0.956
57213W        W22374  18.774  10.342   0.839
57214W        W22375  37.914  36.289  13.539
57215W        W22376   2.388  30.668  14.240
57216W        W22377  32.544  43.426  12.094
57217W        W22378  23.708  22.654   2.757
57218W        W22379  28.755  43.438   4.685
57219W        W22380  36.160  31.639  12.853
57220W        W22381  22.891  19.620   1.389
57221W        W22382  39.382  39.618  12.444
57222W        W22383   8.638  31.382   3.311
57223W        W22384  19.186  38.845   1.381
57224W        W22385  11.646  23.573  12.582
57225W        W22386  35.222   6.695  13.985
57226W        W22387  44.976  17.180   0.784
57227W        W22388  43.952  20.189  11.675
57228W        W22389  14.593  18.180   1.994
57229W        W22390  11.096  39.270  12.526
57230W        W22391  19.778   6.460   4.522
57231W        W22392  26.440  40.986   3.638
57232W        W22393  30.163  36.402   1.474
57233W        W22394   3.737  22.584  12.881
57234W        W22395  42.087  34.363  11.192
57235W        W22396   0.541  33.984  13.609
57236W        W22397  18.608  13.382  13.188
57237W        W22398  40.574  28.856  14.380
57238W        W22399  28.716  41.545   0.373
57239W        W22400  20.851  14.047  12.023
57240W        W22401  33.878  24.996  13.909
57241W        W22402  19.674  21.624   4.534
57242W        W22403   6.913  39.874   2.397
57243W        W22404  41.418  36.564   1.486
57244W        W22405  17.530  14.757  13.256
57245W        W22406  30.312  29.093  11.036
57246W        W22407  12.768  33.000   0.869
57247W        W22408   8.228   0.744   4.096
57248W        W22409   6.220  27.026  10.811
57249W        W22410  14.985  15.217  14.956
57250W        W22411  43.633   1.388  11.024
57251W        W22412   7.229  10.484  12.291
57252W        W22413  29.625  17.071   0.744
57253W        W22414   7.965  43.412  12.935
57254W        W22415   7.775  42.236  13.466
57255W        W22416  17.727  23.538   0.699
57256W        W22417  35.626  35.501  14.755
57257W        W22418  16.183  25.728   3.355
57258W        W22419  16.608  27.367   3.718
57259W        W22420  39.006  20.499  12.865
57260W        W22421  38.753  18.248   2.841
57261W        W22422  39.858   3.249  13.554
57262W        W22423   0.267  33.492   0.713
57263W        W22424  32.208  25.299  10.895
57264W        W22425  32.416  36.040  11.968
57265W        W22426  41.984  24.510  13.379
57266W        W22427   4.620  44.991   2.677
57267W        W22428  41.564   6.894  11.642
57268W        W22429   1.946  39.025   3.358
57269W        W22430  19.700  18.559   3.829
57270W        W22431  21.875  12.702   1.451
57271W        W22432   0.014  27.154  12.136
57272W        W22433  24.967  31.524   3.588
57273W        W22434   1.557  36.005   2.160
57274W        W22435  32.825  23.170   0.860
57275W        W22436  16.762  36.087   4.119
57276W        W22437  23.501  10.839  11.898
57277W        W22438  38.816   2.714  12.976
57278W        W22439  27.653  19.574  14.754
57279W        W22440  38.516  35.272   1.736
57280W        W22441  17.234   1.786  12.528
57281W        W22442  36.353   0.344   4.380
57282W        W22443  26.258  12.209   3.621
57283W        W22444   1.996  32.459  10.668
57284W        W22445  19.114  23.787   1.004
57285W        W22446  35.710  22.690   2.730
57286W        W22447   8.469  35.968  11.772
57287W        W22448  29.617  17.866  10.272
57288W        W22449   6.360  31.224  10.695
57289W        W22450  13.697  15.744   0.399
57290W        W22451  16.316  34.186  14.903
57291W        W22452  40.794  30.167  13.295
57292W        W22453  39.357  37.433   1.292
57293W        W22454  23.124   6.138   0.058
57294W        W22455  28.131   6.117   4.080
57295W        W22456  12.750  43.282   0.896
57296W        W22457  17.985   9.624   2.473
57297W        W22458  26.793  40.983  11.151
57298W        W22459  38.433  16.779  12.425
57299W        W22460  20.952  16.836   0.009
57300W        W22461  32.683  26.239   1.457
57301W        W22462   5.029  13.574   0.689
57302W        W22463  21.561   8.568   3.723
57303W        W22464  23.539  39.544   2.769
57304W        W22465  30.821  19.791  13.100
57305W        W22466  42.413  24.476  13.062
57306W        W22467  34.641  31.107   4.638
57307W        W22468  10.916  28.476  13.393
57308W        W22469  27.483  28.509  11.170
57309W        W22470   2.843   2.363  12.116
57310W        W22471  41.499  23.204   1.733
57311W        W22472  29.273  19.063  11.157
57312W        W22473  18.113  10.682  10.569
57313W        W22474  41.623  10.110  14.308
57314W        W22475  14.716   7.133  13.676
57315W        W22476  19.613  16.777   4.004
57316W        W22477  31.853  32.389  12.048
57317W        W22478  18.558  44.909  12.825
57318W        W22479   0.483  10.903  13.138
57319W        W22480  22.635   8.756   2.485
57320W        W22481  21.555  35.607  11.667
57321W        W22482  22.808  37.932  14.464
57322W        W22483  19.816  42.062  12.425
57323W        W22484  16.600  27.457  11.615
57324W        W22485  38.033  40.622   4.102
57325W        W22486  16.969   5.551   0.976
57326W        W22487  32.890  33.319   3.762
57327W        W22488   3.046  16.762   0.512
57328W        W22489  12.390  35.858  11.701
57329W        W22490  12.209   6.431   1.301
57330W        W22491  20.704  12.621  12.939
57331W        W22492  44.997   4.999  11.729
57332W        W22493  30.753  27.475   3.265
57333W        W22494  15.769   9.091   3.279
57334W        W22495   5.167   5.266   0.286
57335W        W22496   5.989   0.467  12.883
57336W        W22497   5.362  13.801  13.479
57337W        W22498   8.740  39.201   4.124
57338W        W22499  37.850   3.272   2.375
57339W        W22500  39.886  44.611  11.494
57340W        W22501  16.584  14.082   3.656
57341W        W22502  35.304  26.491   3.112
57342W        W22503  27.397  14.280   1.319
57343W        W22504   3.050  24.378   1.778
57344W        W22505  20.661   2.909   1.305
57345W        W22506   8.308  44.500  13.115
57346W        W22507   3.576  37.148   0.449
57347W        W22508  18.534  35.866   4.700
57348W        W22509  40.072  44.032   4.732
57349W        W22510  34.844  35.262   3.681
57350W        W22511  38.967   2.718  14.877
57351W        W22512  33.975  32.639   3.656
57352W        W22513  17.730  15.006   3.600
57353W        W22514   7.187  26.089   2.102
57354W        W22515  31.915  41.806  12.744
57355W        W22516  18.664  39.858  14.021
57356W        W22517  42.729  37.204   2.143
57357W        W22518  25.450  10.306  12.938
57358W        W22519  31.376  31.037  10.658
57359W        W22520  17.424  20.296  14.923
57360W        W22521  19.618   5.727  12.858
57361W        W22522   5.269  13.480  13.047
57362W        W22523  32.601  27.094  13.121
57363W        W22524   5.229  19.035   2.513
57364W        W22525  33.055   8.669   2.327
57365W        W22526   6.405   5.666   3.515
57366W        W22527  23.038  31.406  14.863
57367W        W22528  27.538  21.590   0.335
57368W        W22529  34.794  30.170   0.714
57369W        W22530  28.555  20.530  11.171
57370W        W22531   8.968  35.812   1.311
57371W        W22532   6.949  18.641  12.404
57372W        W22533  20.586  31.654   1.281
57373W        W22534  24.674  13.646  14.531
57374W        W22535  21.559  40.819   3.616
57375W        W22536   9.340  28.610  14.441
57376W        W22537   1.129   1.468  12.909
57377W        W22538  19.422  31.536   4.273
57378W        W22539  19.698  15.754  11.389
57379W        W22540   4.953  12.380  14.424
57380W        W22541   5.308  36.788   0.595
57381W        W22542  15.532  44.416   0.309
57382W        W22543  38.144   5.938   0.019
57383W        W22544  26.567   4.756  13.873
57384W        W22545   6.635  28.938  12.810
57385W        W22546  30.150   7.707  13.566
57386W        W22547  23.529  30.039   1.978
57387W        W22548  39.004  26.536  11.624
57388W        W22549  21.227  39.007  14.480
57389W        W22550  24.517  40.357   3.183
57390W        W22551  37.627  22.015   2.867
57391W        W22552  32.817   7.849   2.746
57392W        W22553  12.362  28.652   1.360
57393W        W22554  12.241   3.924   1.904
57394W        W22555  28.071  20.974  11.594
57395W        W22556  21.033   9.506  12.313
57396W        W22557  27.880  11.837   0.377
57397W        W22558   4.874  31.740   1.234
57398W        W22559  34.160  38.590  12.551
57399W        W22560   6.734  41.781   2.163
57400W        W22561  38.068   4.021   1.299
57401W        W22562  25.836  29.034  13.993
57402W        W22563  33.880   2.758  11.202
57403W        W22564  31.512  34.616   4.069
57404W        W22565  12.293  37.997   4.821
57405W        W22566  44.723   4.619  10.801
57406W        W22567  10.041  17.133   2.639
57407W        W22568  37.423   3.107  10.704
57408W        W22569  30.406  29.488  14.958
57409W        W22570  39.425  27.158   4.389
57410W        W22571  23.060  42.375  11.478
57411W        W22572  13.199   1.292   0.811
57412W        W22573  34.903  23.066  11.283
57413W        W22574  33.990  29.382  11.300
57414W        W22575  27.836  31.937   1.857
57415W        W22576  35.633  33.477   4.052
57416W        W22577  24.039   8.355   3.623
57417W        W22578  18.023  34.425  14.325
57418W        W22579   9.599  35.000  14.527
57419W        W22580  40.841  21.710  12.586
57420W        W22581  32.690  25.215  11.125
57421W        W22582  35.859   8.243   1.350
57422W        W22583  13.355  16.326  12.044
57423W        W22584   7.695  26.755   2.228
57424W        W22585  39.322  10.745   3.094
57425W        W22586  26.900  14.629   5.541
57426W        W22587  32.412   9.793  10.621
57427W        W22588  43.822   3.789   3.532
57428W        W22589  36.064  20.796  11.259
57429W        W22590  44.506  41.967   1.407
57430W        W22591  34.941   7.142  13.285
57431W        W22592  23.269  29.277   2.446
57432W        W22593  23.747  33.609  12.327
57433W        W22594  21.203  22.792  14.368
57434W        W22595  26.669   0.025   1.342
57435W        W22596   7.198  38.886   3.365
57436W        W22597   6.334  38.946  10.534
57437W        W22598   8.069  37.052  11.323
57438W        W22599  15.375  33.726  14.725
57439W        W22600  29.997  32.744  10.424
57440W        W22601   1.971  23.001  11.157
57441W        W22602  38.064  14.004   1.712
57442W        W22603  16.788  42.609   3.151
57443W        W22604  25.585  18.345  12.005
57444W        W22605  29.597  23.041  12.505
57445W        W22606   3.902  39.590   1.036
57446W        W22607  11.122  10.176  14.354
57447W        W22608  18.856  23.276   2.810
57448W        W22609  27.622   6.549   3.019
57449W        W22610  43.317  43.437   4.144
57450W        W22611  29.275  25.713  13.312
57451W        W22612   9.326   9.883  10.454
57452W        W22613  22.680  16.553   3.219
57453W        W22614  20.010  13.335  13.084
57454W        W22615   5.829   9.554   3.541
57455W        W22616  41.344   8.683  12.034
57456W        W22617  40.534   6.237   0.387
57457W        W22618   3.642   4.528  12.576
57458W        W22619  42.392  13.375   1.808
57459W        W22620  36.448   4.664  10.715
57460W        W22621   2.733  28.976   3.675
57461W        W22622  11.924  15.841  12.083
57462W        W22623  11.596  44.992  14.894
57463W        W22624  30.631  30.855   2.098
57464W        W22625  28.473   3.441  12.627
57465W        W22626  17.767  24.639  13.519
57466W        W22627  37.135  36.986   0.367
57467W        W22628  15.551  18.143   0.570
57468W        W22629   3.222  38.257   4.187
57469W        W22630  36.547  15.289   3.319
57470W        W22631  12.600   3.282   4.013
57471W        W22632   1.379   1.049  13.808
57472W        W22633  21.043  17.707   1.013
57473W        W22634  32.464   5.086  14.708
57474W        W22635   4.781  25.545  14.518
57475W        W22636   9.669   6.105   1.882
57476W        W22637   6.844   9.227   2.163
57477W        W22638  10.771  43.505  12.014
57478W        W22639  43.086  40.030   1.207
57479W        W22640  30.669  24.153   1.888
57480W        W22641  31.940  23.037   1.274
57481W        W22642  28.449  20.005   0.411
57482W        W22643   1.334  25.639   2.386
57483W        W22644   1.256  37.603   0.800
57484W        W22645   7.270  12.780   3.476
57485W        W22646  28.459  15.820   4.153
57486W        W22647  38.833   5.836   3.577
57487W        W22648   6.204  19.685  11.599
57488W        W22649   7.613  24.949   3.054
57489W        W22650   4.652  31.116  14.824
57490W        W22651   6.323  37.929   2.611
57491W        W22652   8.928  22.051  11.894
57492W        W22653  23.072  25.135  14.923
57493W        W22654  20.093   2.888  13.734
57494W        W22655  10.736  38.089   2.897
57495W        W22656  11.654  39.304  13.795
57496W        W22657  42.905  24.959  11.558
57497W        W22658  33.837   0.735   2.951
57498W        W22659  28.518   2.252  13.963
57499W        W22660   3.438  20.588   0.017
57500W        W22661  19.695  10.158   3.661
57501W        W22662  40.318  17.680   3.694
57502W        W22663  24.130   5.454  14.362
57503W        W22664  42.131  26.182   4.707
57504W        W22665  33.099  22.732  14.082
57505W        W22666   9.100  13.257  11.606
57506W        W22667  29.845  12.867   0.401
57507W        W22668  18.800  41.714  13.896
57508W        W22669  38.284  27.941  12.193
57509W        W22670  36.213  21.164  14.974
57510W        W22671  26.987  28.086   3.202
57511W        W22672   7.847  35.471   3.367
57512W        W22673  30.433   4.396   0.285
57513W        W22674  33.429  32.789   0.790
57514W        W22675  32.873  29.667  11.712
57515W        W22676  12.064  32.458   2.005
57516W        W22677  16.221   3.390  14.309
57517W        W22678  18.648   5.030  13.465
57518W        W22679  21.506   8.197  14.865
57519W        W22680  42.510  40.716   0.355
57520W        W22681  31.063  22.733  11.979
57521W        W22682  16.590  29.411   4.546
57522W        W22683   4.806  10.569  13.910
57523W        W22684  12.583  31.119   0.678
57524W        W22685  15.208  18.550   4.144
57525W        W22686  24.275   7.641   0.413
57526W        W22687  24.433  34.017   3.257
57527W        W22688  32.970  31.363   2.193
57528W        W22689  30.885  32.701   0.177
57529W        W22690  16.827  21.126   4.547
57530W        W22691   6.509   5.764  12.949
57531W        W22692  40.006  38.074   4.951
57532W        W22693  26.673   3.386  12.992
57533W        W22694   6.552  33.911  11.119
57534W        W22695  24.620  28.823  12.358
57535W        W22696  12.255  44.797   1.166
57536W        W22697  44.481   5.302   0.766
57537W        W22698  41.527   9.939   0.154
57538W        W22699  10.547  42.971  11.112
57539W        W22700  37.403  10.111   0.219
57540W        W22701  31.112  36.364  14.645
57541W        W22702  27.188  41.857  11.392
57542W        W22703   0.251  40.381   0.983
57543W        W22704   0.829   6.384  13.321
57544W        W22705  37.757  29.629  12.468
57545W        W22706  29.038  25.261  13.407
57546W        W22707  16.598   7.989  12.078
57547W        W22708  29.539  31.099   0.445
57548W        W22709  36.590  34.080   3.711
57549W        W22710  34.854  12.290   4.279
57550W        W22711   0.797  22.660  11.560
57551W        W22712  30.000  16.232  13.865
57552W        W22713  36.505  31.930  13.993
57553W        W22714  32.342   8.960   3.671
57554W        W22715  13.257   2.590   3.189
57555W        W22716  21.184  43.875  12.226
57556W        W22717  40.010   9.344  14.523
57557W        W22718  34.494  13.530  13.312
57558W        W22719  33.375  31.717   4.326
57559W        W22720  33.588  20.589  13.887
57560W        W22721  23.246  27.975  14.702
57561W        W22722   9.058  15.196  12.057
57562W        W22723  15.714  10.739  10.364
57563W        W22724   1.013   6.898  13.326
57564W        W22725  25.991  15.621  10.457
57565W        W22726  14.890  41.579  12.365
57566W        W22727  28.128  32.421   2.949
57567W        W22728   4.706  42.292  13.556
57568W        W22729  29.373  35.441   2.537
57569W        W22730  38.272  35.066   4.509
57570W        W22731  16.127  16.502   1.934
57571W        W22732  27.627  23.153  14.762
57572W        W22733  22.058   0.401   1.761
57573W        W22734  32.439  21.514   3.442
57574W        W22735  41.015  34.069   3.653
57575W        W22736   6.353  15.152   3.431
57576W        W22737  30.212  29.258   2.369
57577W        W22738  38.407  16.598   3.170
57578W        W22739   9.111  35.791  12.886
57579W        W22740  23.431  28.991  11.622
57580W        W22741  29.549  42.745   5.042
57581W        W22742  27.003  22.349   3.412
57582W        W22743  29.837   1.258  10.308
57583W        W22744  21.152  26.979  10.347
57584W        W22745   2.483  24.595  14.776
57585W        W22746   5.134  20.282   1.927
57586W        W22747  40.786  14.702   2.471
57587W        W22748  34.633   5.105  10.054
57588W        W22749  38.880   3.171  11.135
57589W        W22750   2.814  21.189  13.013
57590W        W22751   8.362  34.911   3.141
57591W        W22752  43.547   2.812  13.743
57592W        W22753  18.658  16.451  13.092
57593W        W22754  43.409  29.182   4.672
57594W        W22755  34.596  44.054  14.328
57595W        W22756   5.383   2.324   2.339
57596W        W22757   3.445  17.141  14.360
57597W        W22758  15.653  43.912  13.882
57598W        W22759  27.003   1.933  14.603
57599W        W22760  20.128  15.226  13.034
57600W        W22761  21.345   4.314   2.905
57601W        W22762  36.129  17.004   1.917
57602W        W22763  43.313  39.934   2.590
57603W        W22764  36.634  15.214   0.340
57604W        W22765   9.347  31.616  14.436
57605W        W22766   6.215  11.145   2.799
57606W        W22767   5.905  21.001  12.055
57607W        W22768  44.533   8.440   4.684
57608W        W22769  29.526  41.518  14.122
57609W        W22770  31.893  36.666   4.591
57610W        W22771   8.817  20.041   3.313
57611W        W22772  35.378   6.928  14.420
57612W        W22773   0.686   5.956   2.785
57613W        W22774  42.004   4.230   3.658
57614W        W22775   6.234  13.260  13.312
57615W        W22776  34.173  16.949   1.294
57616W        W22777  34.121  24.219  12.532
57617W        W22778   7.472  20.684   3.904
57618W        W22779   4.371  27.137  14.399
57619W        W22780  40.568  15.320   2.898
57620W        W22781  20.249  26.935  13.345
57621W        W22782  29.073  38.349   1.670
57622W        W22783  32.862   4.735  11.424
57623W        W22784   4.100   6.977   3.248
57624W        W22785   8.303  16.862   1.159
57625W        W22786  44.259  37.626  11.396
57626W        W22787   3.834  44.205   3.722
57627W        W22788  22.660   2.751   3.294
57628W        W22789  41.258   6.429   4.600
57629W        W22790  19.487   0.401   0.782
57630W        W22791  35.891  27.979  14.964
57631W        W22792  25.604  18.291   2.780
57632W        W22793  31.559   9.976   1.224
57633W        W22794  34.067  12.273   0.315
57634W        W22795   6.724  29.715   0.161
57635W        W22796  38.714   8.849   0.709
57636W        W22797  40.788   8.089   0.946
57637W        W22798  15.117  21.391  12.098
57638W        W22799  19.029  43.752  13.538
57639W        W22800  34.846   3.718   3.088
57640W        W22801  38.396  13.963   3.148
57641W        W22802  20.660  31.663  10.921
57642W        W22803   0.049   7.948   1.489
57643W        W22804   1.776  35.789   0.095
57644W        W22805   1.649  41.470  13.374
57645W        W22806  34.580  23.162  11.864
57646W        W22807  14.621  13.115  14.321
57647W        W22808   5.880  38.466  12.807
57648W        W22809   7.423   4.273   2.268
57649W        W22810   7.926   1.785  12.226
57650W        W22811   8.713  38.692   5.052
57651W        W22812  15.360  29.045   0.685
57652W        W22813   7.289  33.938  11.812
57653W        W22814  37.859  37.476   4.430
57654W        W22815   7.796   4.216  10.618
57655W        W22816   4.506   1.846   0.913
57656W        W22817  43.452  16.550  14.971
57657W        W22818  21.699  14.237  14.009
57658W        W22819  40.319  13.830   4.177
57659W        W22820  34.154  33.096   0.407
57660W        W22821  40.888  31.052   3.246
57661W        W22822  29.841  37.153  13.304
57662W        W22823  23.201  18.677   3.580
57663W        W22824  11.642  38.994   4.547
57664W        W22825  34.430  14.764  14.533
57665W        W22826   8.457  19.209  12.234
57666W        W22827  39.324  11.186   0.814
57667W        W22828   0.847  18.867  13.251
57668W        W22829  25.406  21.546  13.431
57669W        W22830  34.429  34.181  10.725
57670W        W22831  25.037  17.601  11.204
57671W        W22832  31.539  37.111  12.088
57672W        W22833  14.032  12.545  13.995
57673W        W22834  30.160  43.349   1.138
57674W        W22835  12.019  11.738   2.750
57675W        W22836  33.766   3.294  11.232
57676W        W22837   0.871  12.965   2.593
57677W        W22838  28.210  12.978   4.050
57678W        W22839  35.539  42.493  12.845
57679W        W22840  17.784   3.893   3.661
57680W        W22841  43.973  16.019   4.260
57681W        W22842  40.588  37.042  13.579
57682W        W22843  26.954  32.938  10.967
57683W        W22844   7.294  44.421   1.452
57684W        W22845  12.332  16.732  13.529
57685W        W22846   1.124  32.391   3.317
57686W        W22847   9.683  28.057  14.810
57687W        W22848  12.604  34.055  12.804
57688W        W22849  15.931  10.725  11.378
57689W        W22850  34.343  23.450   4.754
57690W        W22851  32.749   3.393  11.139
57691W        W22852  13.676  23.868  13.424
57692W        W22853  29.015   3.111  14.983
57693W        W22854  43.332  32.491   3.686
57694W        W22855  29.838   6.708  11.668
57695W        W22856  12.765  11.632   0.551
57696W        W22857  11.162   5.902  11.029
57697W        W22858  35.778  27.379   0.330
57698W        W22859  23.079  19.016  10.663
57699W        W22860  32.607   5.424   0.536
57700W        W22861   3.892   6.659  14.338
57701W        W22862  23.175  10.923   1.771
57702W        W22863  18.778  12.104   0.273
57703W        W22864  36.143  28.154   1.303
57704W        W22865  14.227   6.045  12.015
57705W        W22866  30.085  37.076   4.874
57706W        W22867  26.457  14.207   2.705
57707W        W22868  23.644  15.248   4.749
57708W        W22869  31.197   4.387   2.730
57709W        W22870  19.675   6.455  13.986
57710W        W22871   8.886   4.651  14.694
57711W        W22872  15.236  11.153   0.305
57712W        W22873  37.178  39.810   3.637
57713W        W22874  14.149  24.107  10.555
57714W        W22875  15.547  27.737  10.266
57715W        W22876  30.517   0.700   3.092
57716W        W22877   0.520  43.636   1.256
57717W        W22878   7.353   7.667   3.618
57718W        W22879   9.161  41.000   1.325
57719W        W22880   7.755  32.276  10.071
57720W        W22881  43.185  21.237  10.848
57721W        W22882   6.159  26.467  14.330
57722W        W22883   3.350  14.184   3.272
57723W        W22884  43.470  24.182   4.392
57724W        W22885  19.089  30.781  11.178
57725W        W22886   2.486  20.124   0.708
57726W        W22887  22.256   1.881  13.535
57727W        W22888   1.429  26.204   4.610
57728W        W22889   5.162   8.886  10.783
57729W        W22890   1.953  38.840   0.918
57730W        W22891  30.654  28.084   5.114
57731W        W22892   6.423   1.212   0.827
57732W        W22893  31.594  40.872  12.202
57733W        W22894  15.387  41.819   0.013
57734W        W22895  36.426  31.023  12.162
57735W        W22896  15.114  32.856   2.811
57736W        W22897   4.181   3.898   3.848
57737W        W22898  29.902  23.011  14.615
57738W        W22899  40.864  21.329   0.215
57739W        W22900  44.538   5.774  10.787
57740W        W22901  22.019  27.974  13.357
57741W        W22902  28.773  27.409   1.728
57742W        W22903  21.987  35.595  13.532
57743W        W22904  16.784  40.941   1.401
57744W        W22905  41.816   9.204  14.533
57745W        W22906  29.533   2.439   4.739
57746W        W22907  16.568  21.004  12.083
57747W        W22908  11.769  18.399   2.439
57748W        W22909  13.050  12.994   4.111
57749W        W22910  23.160  33.208  11.553
57750W        W22911  32.638   9.884  12.742
57751W        W22912  27.915  32.811  12.537
57752W        W22913  36.980  26.400  11.998
57753W        W22914  40.025  18.582  11.434
57754W        W22915  35.827  41.307  12.502
57755W        W22916  39.317  22.835  11.047
57756W        W22917  13.839  33.703  11.042
57757W        W22918   6.733  26.154  12.616
57758W        W22919  26.469  16.052   1.904
57759W        W22920   9.996  20.557   5.026
57760W        W22921  21.460  19.228  11.120
57761W        W22922  33.115  12.726  13.887
57762W        W22923  21.459   6.421   1.777
57763W        W22924  42.792  18.391  14.434
57764W        W22925  41.638  22.221  13.500
57765W        W22926   7.236  15.056  13.440
57766W        W22927  26.473   7.277  13.357
57767W        W22928  42.374  20.190   2.288
57768W        W22929  10.880  43.886   3.841
57769W        W22930  10.779  12.169   4.031
57770W        W22931  42.404  17.453  12.899
57771W        W22932  39.903   6.871  14.932
57772W        W22933   1.535  26.179  12.160
57773W        W22934   6.055  17.597   4.672
57774W        W22935  20.058  24.951  13.616
57775W        W22936  14.527  42.997   0.463
57776W        W22937  33.757  16.502   2.655
57777W        W22938   0.438   2.952  12.040
57778W        W22939  37.450  29.459   1.859
57779W        W22940   0.959  35.142   0.030
57780W        W22941   8.062  28.444  12.016
57781W        W22942  26.202  20.121   1.425
57782W        W22943  42.736   1.264   0.939
57783W        W22944  32.058  25.276  11.926
57784W        W22945  21.858  13.978   0.400
57785W        W22946  19.234  33.282   1.777
57786W        W22947  43.090  30.495  11.117
57787W        W22948  19.688  38.117  12.957
57788W        W22949  25.571  31.900  14.893
57789W        W22950   8.248  19.047   4.692
57790W        W22951  40.193  44.904  13.632
57791W        W22952  29.508  12.139   4.130
57792W        W22953  36.852  19.731   3.355
57793W        W22954  27.434  13.758   4.087
57794W        W22955  13.265  14.747   0.743
57795W        W22956  13.799  10.511   3.221
57796W        W22957  37.886  43.132  11.598
57797W        W22958  12.690  44.539   0.101
57798W        W22959   1.915  23.378   3.255
57799W        W22960  12.225  11.835   3.238
57800W        W22961  44.560  35.341   4.546
57801W        W22962   1.221   8.507   4.586
57802W        W22963  29.649  17.145  14.000
57803W        W22964  29.090  36.166  14.478
57804W        W22965  40.614   1.302   4.899
57805W        W22966  26.594  21.488   5.446
57806W        W22967   0.563  16.296   4.954
57807W        W22968   7.943  40.308  13.971
57808W        W22969  22.320  33.546  12.964
57809W        W22970  20.307  20.355  13.560
57810W        W22971  14.059  24.174  14.964
57811W        W22972  18.663  39.385  14.229
57812W        W22973  43.562  40.804  12.937
57813W        W22974  34.617  43.134   5.061
57814W        W22975  43.144  29.049   3.049
57815W        W22976   4.422   6.880  13.117
57816W        W22977   4.237   7.289  10.973
57817W        W22978  15.437  35.487   4.126
57818W        W22979   5.315  43.831  13.313
57819W        W22980  20.362  25.716   5.070
57820W        W22981  22.747  36.003   4.084
57821W        W22982  12.718  34.491   4.386
57822W        W22983  22.536  12.062   1.780
57823W        W22984  28.200  31.808  12.526
57824W        W22985  29.453  44.947  12.517
57825W        W22986   7.493  29.514   3.817
57826W        W22987  37.389  35.887  12.757
57827W        W22988   7.884  13.376   0.882
57828W        W22989  27.723  12.935  12.543
57829W        W22990  22.928  44.753   1.672
57830W        W22991  34.130   3.234   4.102
57831W        W22992   1.024  43.400  14.420
57832W        W22993  10.189  11.835   5.097
57833W        W22994  33.418   4.262  14.368
57834W        W22995  43.738  38.100  14.963
57835W        W22996  14.384   2.447   5.029
57836W        W22997  28.491  29.551   0.759
57837W        W22998   8.410  43.217  13.992
57838W        W22999  11.358  33.822   2.791
57839W        W23000  25.614  40.965  11.155
57840W        W23001  30.500  39.276  10.124
57841W        W23002  41.296  44.044  12.517
57842W        W23003  25.680   1.360  12.769
57843W        W23004  10.821  28.280   3.609
57844W        W23005  30.508  21.130  12.033
57845W        W23006  31.740  31.383   0.864
57846W        W23007   0.272  10.549   4.204
57847W        W23008  13.721  30.813   1.384
57848W        W23009  40.043  29.805  14.594
57849W        W23010  30.040  22.985  14.110
57850W        W23011  33.458   9.691  12.512
57851W        W23012  21.631  13.351   2.227
57852W        W23013   3.683  17.292   3.572
57853W        W23014  23.135  13.651  11.115
57854W        W23015  26.211  10.771  12.546
57855W        W23016  15.359  44.558   5.195
57856W        W23017   9.406  16.668   0.998
57857W        W23018  15.587  20.614   2.819
57858W        W23019  25.106   1.326   2.648
57859W        W23020  24.624  44.017  12.940
57860W        W23021  27.579  44.634  11.481
57861W        W23022   4.707  39.382   4.624
57862W        W23023  31.490  12.575  12.122
57863W        W23024  33.140  32.586  14.631
57864W        W23025  42.817  18.053   1.587
57865W        W23026  31.919   0.118   4.178
57866W        W23027   4.950   0.722   1.895
57867W        W23028   2.272   9.656   1.197
57868W        W23029  24.037   8.086  13.297
57869W        W23030  30.116   6.860   1.329
57870W        W23031  16.030  32.442   1.144
57871W        W23032  42.944  10.135  13.921
57872W        W23033  17.696  24.684   1.911
57873W        W23034   5.301   0.459   0.762
57874W        W23035  18.990  24.237   4.214
57875W        W23036  36.599  34.475   4.787
57876W        W23037  13.841  22.986  11.481
57877W        W23038   6.731  43.155  12.722
57878W        W23039  23.503  24.050  12.606
57879W        W23040  20.977  34.983  12.950
57880W        W23041  23.649  29.831  12.466
57881W        W23042  11.892  20.241   4.074
57882W        W23043  29.570  17.142   2.090
57883W        W23044  29.418  43.413   3.223
57884W        W23045   9.733  40.568   3.725
57885W        W23046  34.008  32.614   2.735
57886W        W23047  29.433  32.607   1.802
57887W        W23048  42.490   1.248  14.310
57888W        W23049  18.821  41.385  11.215
57889W        W23050  20.148   2.156   0.522
57890W        W23051  16.066   0.430  14.324
57891W        W23052  33.644  11.347  14.203
57892W        W23053  20.278  43.105   4.598
57893W        W23054   1.358  35.367  11.149
57894W        W23055   4.183  14.136   3.680
57895W        W23056  41.238  22.755   1.726
57896W        W23057  12.720   9.858  14.882
57897W        W23058  13.243   5.263   4.350
57898W        W23059   2.375  33.944   3.331
57899W        W23060   2.526  10.608   3.664
57900W        W23061   9.595   9.315  14.032
57901W        W23062  36.992  13.296   0.223
57902W        W23063   4.120   4.949  13.030
57903W        W23064  41.404  18.265   1.458
57904W        W23065   1.295   8.368  11.915
57905W        W23066  29.625  19.839  12.175
57906W        W23067  10.189   3.735  14.058
57907W        W23068  30.470  10.189   4.638
57908W        W23069   3.176  18.697  11.357
57909W        W23070  41.428  37.707   2.251
57910W        W23071   9.163  41.981   2.303
57911W        W23072  20.008  21.820   5.512
57912W        W23073  30.961  14.204   2.075
57913W        W23074  34.463  39.062   1.458
57914W        W23075   3.536  29.930   0.438
57915W        W23076  19.314  17.244  12.980
57916W        W23077  32.880  43.278   3.297
57917W        W23078   6.316  13.903   1.483
57918W        W23079  42.351  44.454  14.531
57919W        W23080  23.050  39.803   4.901
57920W        W23081  11.155  40.646  12.370
57921W        W23082   5.178  19.301   4.679
57922W        W23083   9.152   3.570   1.473
57923W        W23084  21.776  37.771  10.218
57924W        W23085  41.624  22.744  14.019
57925W        W23086  17.747  39.724   3.294
57926W        W23087  33.975  43.463   4.357
57927W        W23088  11.792  26.919  10.870
57928W        W23089  24.630  31.404   4.407
57929W        W23090   7.632  28.601  12.232
57930W        W23091  26.956  35.245  12.047
57931W        W23092  26.245  31.506   4.920
57932W        W23093  16.787  28.777  14.971
57933W        W23094   7.370  40.005   4.825
57934W        W23095  10.879  21.399   2.253
57935W        W23096  15.810   9.904  12.164
57936W        W23097   7.356  16.396   0.831
57937W        W23098  38.252   5.446  10.982
57938W        W23099   9.148   0.588   4.354
57939W        W23100  30.712  36.383   3.705
57940W        W23101   2.384  18.169  12.456
57941W        W23102  32.974   3.908   2.458
57942W        W23103  32.993  18.557   0.801
57943W        W23104  26.028  38.401   2.694
57944W        W23105  22.021  15.679   3.863
57945W        W23106  16.794   7.371  12.982
57946W        W23107  34.340   1.854   3.064
57947W        W23108  17.338   2.894   1.335
57948W        W23109  24.536  14.865   0.008
57949W        W23110  13.220  24.100  13.622
57950W        W23111  31.016  15.599  13.421
57951W        W23112  39.104  12.706  12.356
57952W        W23113  21.047  10.765  11.990
57953W        W23114  40.006  34.091   3.843
57954W        W23115  23.629  18.114  13.499
57955W        W23116   3.458  36.495   3.733
57956W        W23117  34.003  24.062  13.866
57957W        W23118  44.957  37.299   1.339
57958W        W23119  29.142   2.740   4.894
57959W        W23120  38.566   5.457   2.830
57960W        W23121  37.454   1.856   3.288
57961W        W23122  42.282  20.545   3.116
57962W        W23123  35.450  12.931   3.241
57963W        W23124   2.874  13.397   0.510
57964W        W23125   7.689  27.405   2.765
57965W        W23126  37.635  28.931   1.123
57966W        W23127  27.285  43.526   0.834
57967W        W23128  40.487  21.432  13.463
57968W        W23129  19.970  26.128  11.215
57969W        W23130   6.921  19.664  10.428
57970W        W23131  36.453  42.457   3.221
57971W        W23132  10.339  27.475  14.837
57972W        W23133   2.661  33.608   5.056
57973W        W23134   3.307  32.333  14.469
57974W        W23135  25.536  13.744   3.985
57975W        W23136  21.035  26.953  11.336
57976W        W23137  26.129  18.390  12.424
57977W        W23138  33.206  13.227  13.012
57978W        W23139  37.530  38.513   2.415
57979W        W23140   1.585  10.880  12.488
57980W        W23141   2.323  25.202  11.171
57981W        W23142  11.270  26.262  12.035
57982W        W23143  27.407   0.042  14.662
57983W        W23144  17.233  39.101  13.458
57984W        W23145  25.265  35.975  14.949
57985W        W23146  22.772   1.664   4.643
57986W        W23147  14.185  42.829  10.700
57987W        W23148  23.165  35.441  13.300
57988W        W23149  38.256   4.774   2.400
57989W        W23150  30.214  34.959  13.120
57990W        W23151  39.388   2.634   1.250
57991W        W23152   3.793   0.138  12.051
57992W        W23153  35.615  17.635   1.263
57993W        W23154  28.018  31.134   4.530
57994W        W23155  13.211  41.474   2.760
57995W        W23156  17.791  35.983  14.964
57996W        W23157   2.415  18.205  14.868
57997W        W23158   0.130  22.544  14.281
57998W        W23159  35.233  24.512   3.325
57999W        W23160  24.479  17.014   4.734
58000W        W23161  25.019  18.777  13.250
58001W        W23162  24.705   7.212  10.551
58002W        W23163  40.701  21.697  10.549
58003W        W23164  44.960  39.986   0.444
58004W        W23165  11.717   6.858  13.131
58005W        W23166   8.806  29.795  12.049
58006W        W23167  36.694  15.600   1.661
58007W        W23168  31.953  28.990   4.447
58008W        W23169  10.179  38.876   1.471
58009W        W23170  25.973  25.526  12.554
58010W        W23171  24.957  44.234   0.659
58011W        W23172  27.544  36.303   1.877
58012W        W23173   8.375  15.848   1.224
58013W        W23174  25.402  34.891   0.248
58014W        W23175   0.486   6.566   1.812
58015W        W23176  14.152  14.618   1.193
58016W        W23177  24.484  32.068   2.170
58017W        W23178  39.246  10.240  10.550
58018W        W23179   7.876  13.948  14.950
58019W        W23180   2.794  12.218  13.960
58020W        W23181  22.098  34.348   3.298
58021W        W23182  28.474  29.966   4.096
58022W        W23183  30.680   6.405  12.432
58023W        W23184  16.857   0.425   0.001
58024W        W23185  30.917  36.652  12.886
58025W        W23186  26.977  33.030   0.834
58026W        W23187   9.441  38.033   1.712
58027W        W23188   4.301  40.334   3.661
58028W        W23189  22.089  15.257  13.361
58029W        W23190  32.058  43.514   0.563
58030W        W23191  35.131  26.619  11.107
58031W        W23192  40.555  12.600   1.860
58032W        W23193   0.358   9.259  10.429
58033W        W23194  12.074  33.503   0.489
58034W        W23195  44.127  26.727   2.326
58035W        W23196   6.129   7.767  14.622
58036W        W23197  13.311  15.362  11.782
58037W        W23198  36.104   3.147   5.003
58038W        W23199  22.336   6.896  13.917
58039W        W23200  35.034  18.806  12.983
58040W        W23201  27.213  17.545   1.419
58041W        W23202  26.328  41.098   3.138
58042W        W23203  37.461  13.793   2.858
58043W        W23204  33.031  29.081   3.315
58044W        W23205  39.458  40.409  11.935
58045W        W23206  43.235   6.919  13.801
58046W        W23207  38.517  38.291  14.418
58047W        W23208  17.646  26.581   3.275
58048W        W23209  15.782   4.985  10.538
58049W        W23210   3.349  21.155   4.043
58050W        W23211   5.409  21.746   2.445
58051W        W23212   5.769  13.106   4.146
58052W        W23213  44.521   4.236   2.895
58053W        W23214  35.324  39.444  14.667
58054W        W23215  34.067  15.264  10.568
58055W        W23216  19.620   8.788   1.309
58056W        W23217  35.974  42.896   1.957
58057W        W23218  44.330  37.630   0.047
58058W        W23219  18.974  10.606   2.649
58059W        W23220  29.681  18.096  13.571
58060W        W23221  42.079   8.124  12.463
58061W        W23222   7.168  11.706   4.480
58062W        W23223   9.228  32.914  11.926
58063W        W23224  16.181   8.841   1.467
58064W        W23225  15.048  22.103   1.478
58065W        W23226  35.911  20.250  14.558
58066W        W23227  32.910  13.973   0.234
58067W        W23228  35.575  38.133   0.391
58068W        W23229   7.278  26.861  12.584
58069W        W23230  23.007  20.621   4.304
58070W        W23231  39.463  21.418   1.530
58071W        W23232  10.499  39.898  10.794
58072W        W23233  11.901  37.251   3.617
58073W        W23234  29.418  40.435  12.976
58074W        W23235  14.820   1.985  14.034
58075W        W23236   2.962  37.446   5.045
58076W        W23237   7.328   0.337  11.508
58077W        W23238  14.105  22.242  14.934
58078W        W23239  12.957   0.678   2.452
58079W        W23240   1.226  15.616   2.983
58080W        W23241  10.678  31.603   3.229
58081W        W23242  24.847  32.004   2.568
58082W        W23243  37.420   8.379  14.284
58083W        W23244  24.260  21.398  11.308
58084W        W23245  29.213  15.492  12.106
58085W        W23246  34.651  14.011  13.381
58086W        W23247  30.851  10.917   4.286
58087W        W23248  17.806  15.111   2.254
58088W        W23249  40.058  14.223  11.362
58089W        W23250  28.477  31.071   3.264
58090W        W23251  40.722  43.748  11.704
58091W        W23252   8.016  27.097   5.252
58092W        W23253  36.011   4.859   4.128
58093W        W23254  24.548  33.928   1.530
58094W        W23255  31.451  30.914  11.157
58095W        W23256   3.765  42.744   2.767
58096W        W23257  27.292   2.212  13.394
58097W        W23258  22.589  12.609  14.845
58098W        W23259  25.015  12.826   1.850
58099W        W23260  15.706  11.865   2.737
58100W        W23261  20.139   8.970   2.881
58101W        W23262  34.621  34.194   1.596
58102W        W23263  17.156  12.320   0.555
58103W        W23264  20.973   3.323  14.974
58104W        W23265  27.421  44.771   3.782
58105W        W23266   4.733   7.926   3.766
58106W        W23267  43.429  24.001   0.485
58107W        W23268  11.621  30.564   1.464
58108W        W23269   2.706  35.060  10.388
58109W        W23270  19.665  25.455  11.038
58110W        W23271   8.962  35.655  14.272
58111W        W23272  33.055  24.675  14.435
58112W        W23273  20.767  13.695  14.789
58113W        W23274  26.436   6.500   3.773
58114W        W23275  12.682  42.283  11.125
58115W        W23276  25.505  14.745   3.615
58116W        W23277   9.640  17.775  12.474
58117W        W23278  17.406  39.329  13.056
58118W        W23279  43.431  14.672  11.394
58119W        W23280  19.754  16.622   0.440
58120W        W23281   3.917  26.086  14.833
58121W        W23282   1.469  36.290   0.353
58122W        W23283  31.447  29.539  14.267
58123W        W23284  31.991  36.028   3.021
58124W        W23285  31.009  44.812   2.037
58125W        W23286  18.311  44.718  10.697
58126W        W23287   6.919   0.033   4.022
58127W        W23288  10.728   6.428   4.568
58128W        W23289  28.520  43.847   3.873
58129W        W23290  37.422  39.162  12.939
58130W        W23291   8.622  42.112   3.691
58131W        W23292  14.034  17.922   0.378
58132W        W23293  26.555   3.226   2.565
58133W        W23294  18.305   3.235  12.852
58134W        W23295  30.379  22.748  14.859
58135W        W23296  38.085   9.841   2.578
58136W        W23297  23.922  20.291  14.825
58137W        W23298  22.478  21.991  14.417
58138W        W23299   7.967  27.172  10.293
58139W        W23300  12.729   0.540   0.020
58140W        W23301  21.985  24.488   2.704
58141W        W23302  20.142   3.900   4.274
58142W        W23303   8.827   3.243   3.012
58143W        W23304  15.940   6.224  13.302
58144W        W23305  23.769  32.613  11.146
58145W        W23306  10.132  26.943  11.456
58146W        W23307  38.799  19.334  14.263
58147W        W23308   1.804  35.523   2.255
58148W        W23309  15.001  19.378  11.614
58149W        W23310   0.735  27.650   1.821
58150W        W23311  10.444  10.890   4.113
58151W        W23312  38.636  32.917  13.229
58152W        W23313  37.705  20.251   2.275
58153W        W23314   1.901  19.166  10.682
58154W        W23315  18.435  29.297   0.352
58155W        W23316  16.194  16.217  14.502
58156W        W23317  13.512  28.529  11.574
58157W        W23318  31.401  32.961  12.932
58158W        W23319  13.915   2.335  13.353
58159W        W23320  39.929  21.880  11.192
58160W        W23321   3.873  38.022  10.448
58161W        W23322  27.393   5.902   0.383
58162W        W23323  34.320   1.785  14.406
58163W        W23324  35.125  20.104  14.112
58164W        W23325   2.786   6.157   3.780
58165W        W23326  15.285  32.619   3.246
58166W        W23327  15.085  31.624   0.275
58167W        W23328  27.201  28.159  13.401
58168W        W23329  23.144  36.973   2.871
58169W        W23330   3.035  35.523  13.469
58170W        W23331   9.123  43.904  14.164
58171W        W23332  23.548   7.597   3.740
58172W        W23333  33.131  36.556   1.234
58173W        W23334   3.437  30.444  14.358
58174W        W23335  31.389  44.436   0.356
58175W        W23336  41.768  36.092  11.248
58176W        W23337   6.301   5.195  11.783
58177W        W23338   4.966   5.917   2.833
58178W        W23339  31.805   1.829  12.441
58179W        W23340  35.876  28.728   4.157
58180W        W23341  11.098  42.997  12.900
58181W        W23342  11.014  24.460  11.667
58182W        W23343  27.380  42.431  13.403
58183W        W23344  29.594  44.244  11.934
58184W        W23345  17.644  27.676   1.714
58185W        W23346  36.071  32.537  13.349
58186W        W23347  41.210  36.067  11.963
58187W        W23348  30.489  18.686   2.778
58188W        W23349  10.773  30.936  13.571
58189W        W23350   1.722  31.120  11.628
58190W        W23351  36.590  25.658   3.848
58191W        W23352  44.953  31.370  13.508
58192W        W23353  16.345  15.196  11.916
58193W        W23354  43.853  41.314  14.339
58194W        W23355   0.753   6.474   3.245
58195W        W23356   8.014  26.568   3.025
58196W        W23357  27.873  19.064   0.313
58197W        W23358  23.041  18.126  12.187
58198W        W23359  24.948  29.270  13.025
58199W        W23360  34.171  20.614  14.941
58200W        W23361  23.704  44.774   2.618
58201W        W23362   2.477   3.843  12.407
58202W        W23363  33.936  19.060  13.257
58203W        W23364   1.663  37.397   4.622
58204W        W23365  42.311   1.278   2.861
58205W        W23366  11.754  10.430  10.675
58206W        W23367   3.115  32.547   2.300
58207W        W23368  13.035  23.620   3.422
58208W        W23369  10.358  23.271   4.973
58209W        W23370  34.456  38.013  12.069
58210W        W23371  25.257  31.245  12.971
58211W        W23372   3.989  30.983  12.077
58212W        W23373   2.852  25.986   3.284
58213W        W23374   9.695  16.611  14.151
58214W        W23375  22.943  33.931   2.221
58215W        W23376  11.596  16.065  11.639
58216W        W23377   5.006   9.629  14.862
58217W        W23378  20.256  36.987  14.458
58218W        W23379  18.024  26.268  12.446
58219W        W23380  27.664  10.219   0.189
58220W        W23381   0.332   0.297  11.482
58221W        W23382  10.223  25.243   0.754
58222W        W23383  35.511  24.923   2.687
58223W        W23384  16.268  20.323   0.881
58224W        W23385  27.444  17.701  11.520
58225W        W23386  44.321  39.729   3.876
58226W        W23387   0.992  11.396   2.740
58227W        W23388   8.814  16.645   1.884
58228W        W23389  15.378   9.300   1.528
58229W        W23390   4.862  29.743   1.891
58230W        W23391  38.839   5.688  12.124
58231W        W23392  33.385   3.701  10.884
58232W        W23393  19.010   5.596  10.393
58233W        W23394  43.789  35.404   4.214
58234W        W23395   9.160  25.341  13.593
58235W        W23396   8.282   6.680  14.299
58236W        W23397  26.923  44.050  11.926
58237W        W23398  27.901  25.148   2.398
58238W        W23399  22.428  11.285   1.135
58239W        W23400  29.867   9.364  14.069
58240W        W23401  40.240  33.185   5.028
58241W        W23402   1.924   1.045   0.503
58242W        W23403   9.149   3.357   1.003
58243W        W23404  44.537  11.606  11.557
58244W        W23405   7.760  39.562   1.818
58245W        W23406  31.971  19.512   1.171
58246W        W23407  30.748  21.657  14.253
58247W        W23408  34.409  28.288  10.696
58248W        W23409  30.394  26.979  12.422
58249W        W23410  37.862  43.492  14.928
58250W        W23411  43.861   5.340   4.188
58251W        W23412  42.541  23.601  12.972
58252W        W23413  26.397   8.319   3.652
58253W        W23414  39.120  37.335  12.932
58254W        W23415  34.141  23.926   5.786
58255W        W23416  16.821  31.149   3.148
58256W        W23417  33.996   3.572  11.626
58257W        W23418  14.943  19.482  11.096
58258W        W23419  19.006  12.983  10.474
58259W        W23420  10.837  27.150  13.897
58260W        W23421  28.631   9.234  12.377
58261W        W23422  39.562  19.089   1.067
58262W        W23423  24.779  11.622   3.224
58263W        W23424  28.371  36.844   2.799
58264W        W23425   9.950  29.451  11.086
58265W        W23426  41.739   9.664   0.712
58266W        W23427  15.692  30.669   1.502
58267W        W23428   0.427  43.972   0.437
58268W        W23429   4.395  21.245   2.223
58269W        W23430  43.027  38.072   4.140
58270W        W23431  11.600  17.338   2.719
58271W        W23432  11.693  24.066  14.936
58272W        W23433   2.454  35.834   2.652
58273W        W23434   8.831   8.071  13.064
58274W        W23435   3.384   5.929   2.371
58275W        W23436   1.096  34.667  13.375
58276W        W23437  26.114  30.432  11.365
58277W        W23438   4.830  37.587  10.249
58278W        W23439  12.657  37.466  13.908
58279W        W23440  18.080  36.367   4.478
58280W        W23441  16.195  22.098   2.117
58281W        W23442  38.360  32.649  13.903
58282W        W23443   8.338   0.916   2.728
58283W        W23444   9.200  20.137  11.598
58284W        W23445  27.684   9.888   4.229
58285W        W23446  10.180  41.481  12.533
58286W        W23447   9.260  10.165   1.418
58287W        W23448  37.347  39.582   2.308
58288W        W23449  21.769  26.137   0.207
58289W        W23450   7.365  31.362   1.221
58290W        W23451  10.319  18.140  14.017
58291W        W23452   4.874  40.269  12.575
58292W        W23453  35.943  12.686  12.911
58293W        W23454   8.272  25.102  14.418
58294W        W23455  23.661   8.910   2.280
58295W        W23456  39.758  35.125  14.307
58296W        W23457  22.043  24.083   1.611
58297W        W23458  30.666  17.519   1.922
58298W        W23459  17.329  23.673   0.992
58299W        W23460  22.767  28.967   4.433
58300W        W23461   7.173  30.799  11.622
58301W        W23462  16.644  18.771   0.451
58302W        W23463  34.687   4.444   0.476
58303W        W23464   4.929  19.109   0.564
58304W        W23465  44.380  35.389   3.705
58305W        W23466  11.182  15.097   1.543
58306W        W23467  23.471   6.107  12.974
58307W        W23468   5.941  40.482   3.695
58308W        W23469  12.545  15.871   2.043
58309W        W23470   6.274  20.837   3.082
58310W        W23471  14.683  38.952   4.970
58311W        W23472  22.559  25.199  14.802
58312W        W23473  25.146   5.965   3.764
58313W        W23474  26.066  44.446  14.936
58314W        W23475  11.537  40.766   2.735
58315W        W23476  31.117  28.646   3.066
58316W        W23477  24.271  23.637  13.387
58317W        W23478   9.164  20.677  13.983
58318W        W23479  38.998  36.148   0.639
58319W        W23480   5.233  20.778  14.289
58320W        W23481  24.750   4.710  12.890
58321W        W23482   3.682   3.265   4.083
58322W        W23483  24.422  21.032  13.027
58323W        W23484   1.937  22.097  11.494
58324W        W23485  14.100  23.585  12.418
58325W        W23486  17.267  11.815   1.815
58326W        W23487  24.919   9.808  12.829
58327W        W23488  35.245  16.188  12.072
58328W        W23489   9.304  26.755  14.801
58329W        W23490  29.322  20.280   2.098
58330W        W23491  16.187  16.141   5.576
58331W        W23492  23.829  14.066   1.814
58332W        W23493   6.430  44.312  14.985
58333W        W23494  17.329  28.981   2.325
58334W        W23495  12.135  39.342   3.346
58335W        W23496  24.592  26.938  12.270
58336W        W23497  43.227  18.656   0.238
58337W        W23498   7.683  28.859   3.119
58338W        W23499  29.515  22.009  12.421
58339W        W23500  38.459  40.840   2.048
58340W        W23501   9.911  42.596  10.759
58341W        W23502  16.438   2.741  14.304
58342W        W23503  20.579  26.171   2.224
58343W        W23504   6.331  39.507  10.515
58344W        W23505  24.389  12.829  10.418
58345W        W23506  32.245  43.500   1.506
58346W        W23507  30.133  11.198  14.879
58347W        W23508  21.367  30.393  13.061
58348W        W23509  29.344  43.395  14.062
58349W        W23510  42.008  35.103  10.711
58350W        W23511   3.847  18.537   2.385
58351W        W23512  15.744   4.350  11.252
58352W        W23513   6.600  36.481  12.058
58353W        W23514   6.483  21.186   1.388
58354W        W23515  38.287   2.852  10.586
58355W        W23516  31.591  17.059   4.812
58356W        W23517  19.415  13.765   3.700
58357W        W23518  39.807  30.103  13.370
58358W        W23519  20.556  19.542   1.710
58359W        W23520  35.487   1.967  12.593
58360W        W23521  15.523  36.821   0.822
58361W        W23522  10.767  12.105  11.042
58362W        W23523  43.276   7.762   0.099
58363W        W23524  33.344  38.532  14.317
58364W        W23525  29.071  35.795   0.954
58365W        W23526  10.251  10.581   1.473
58366W        W23527  21.811  17.226  11.416
58367W        W23528  10.094  20.252  11.583
58368W        W23529  32.732  22.553   5.477
58369W        W23530  10.771  35.113  11.086
58370W        W23531  31.933   7.832   4.154
58371W        W23532   0.363  19.698  12.930
58372W        W23533  22.114  16.199  12.091
58373W        W23534  20.659  18.330   1.223
58374W        W23535  14.924  18.576   4.668
58375W        W23536  28.761  26.513   1.573
58376W        W23537  42.299  44.828  14.926
58377W        W23538   0.356  27.902  12.050
58378W        W23539  15.116  21.154   0.726
58379W        W23540  43.416  19.482  12.782
58380W        W23541  15.536   6.076  14.304
58381W        W23542   1.448   2.946  11.188
58382W        W23543  31.503  38.205  12.464
58383W        W23544  26.402  27.362   1.925
58384W        W23545  43.457  36.996   2.876
58385W        W23546  27.236  20.749   3.757
58386W        W23547   2.933  30.315   0.930
58387W        W23548  21.420   9.183  13.833
58388W        W23549  33.077   3.431   1.408
58389W        W23550  29.462  37.310   3.727
58390W        W23551  20.102  33.028   1.397
58391W        W23552  14.262  39.418  14.154
58392W        W23553  12.880  16.133   1.449
58393W        W23554  33.649  38.081  13.197
58394W        W23555  32.518   1.014   1.239
58395W        W23556  12.747  38.335  10.804
58396W        W23557  23.015  30.766  11.547
58397W        W23558  18.055   7.356   0.737
58398W        W23559  20.130  17.217   1.513
58399W        W23560  28.685  26.302  13.966
58400W        W23561   3.970  35.316  14.847
58401W        W23562  15.755  25.865  14.063
58402W        W23563  36.940  14.441   0.581
58403W        W23564  22.415   8.697   3.948
58404W        W23565  15.202  26.234  11.888
58405W        W23566  29.460  27.109  14.699
58406W        W23567  41.670   0.972  12.491
58407W        W23568  25.713  20.997   3.389
58408W        W23569   0.890  12.310   1.788
58409W        W23570   3.888  41.023  10.480
58410W        W23571   5.336  42.813  11.549
58411W        W23572  19.057  18.371  10.678
58412W        W23573  14.343  35.631  14.357
58413W        W23574  27.948   3.547  14.400
58414W        W23575   6.335  10.190  14.406
58415W        W23576  14.025  26.558  13.889
58416W        W23577   3.350   5.118   0.326
58417W        W23578   0.238  37.081   2.707
58418W        W23579  33.221   7.454  11.038
58419W        W23580  31.543   7.979   2.248
58420W        W23581  39.497   4.329   0.892
58421W        W23582  14.926   4.618  10.880
58422W        W23583   5.270   1.857  14.714
58423W        W23584  15.725  34.294   4.629
58424W        W23585  30.982  25.946   9.870
58425W        W23586  15.131  19.980  10.747
58426W        W23587  43.875  24.965   4.260
58427W        W23588  39.382  28.884  10.669
58428W        W23589  35.586  20.942  11.446
58429W        W23590  35.020  17.006  12.419
58430W        W23591  35.307  22.429  12.476
58431W        W23592  12.827  25.189   3.251
58432W        W23593  34.043  10.209  11.511
58433W        W23594  42.501  40.757   3.637
58434W        W23595  22.765  17.545   3.599
58435W        W23596  41.459  13.817  11.096
58436W        W23597   5.872  10.359   2.401
58437W        W23598   9.868   8.520  10.027
58438W        W23599   0.008  12.462   3.951
58439W        W23600  29.224  10.884  11.862
58440W        W23601  16.790  12.802  14.785
58441W        W23602  12.272  10.825  14.485
58442W        W23603  24.875  14.327   1.265
58443W        W23604   4.462  13.922   4.077
58444W        W23605  20.830  17.806  12.534
58445W        W23606   2.049  31.594   4.224
58446W        W23607  13.025  30.357  12.860
58447W        W23608   9.077  21.966   4.482
58448W        W23609   2.822  33.773  12.129
58449W        W23610   5.228   5.806  12.041
58450W        W23611   3.748   3.198   2.128
58451W        W23612  14.218  31.645   0.837
58452W        W23613  22.725  32.491   1.288
58453W        W23614   3.396  40.069  14.528
58454W        W23615  16.069  28.867   2.786
58455W        W23616  22.444   7.303   1.427
58456W        W23617  39.867  28.429   0.811
58457W        W23618   4.133  18.790   3.575
58458W        W23619  23.768  36.615   0.886
58459W        W23620   8.863  32.442   4.343
58460W        W23621  38.846  36.879  10.717
58461W        W23622   8.446  14.081   4.075
58462W        W23623  34.646  28.673  14.888
58463W        W23624   1.725  11.852   4.090
58464W        W23625  34.945  30.593   4.520
58465W        W23626   6.712  22.631   1.689
58466W        W23627  35.499   3.862   3.719
58467W        W23628  30.118  40.154   2.399
58468W        W23629  11.040  25.722  13.867
58469W        W23630  40.875   3.940   1.360
58470W        W23631  15.246  15.102   2.795
58471W        W23632  37.980  22.326   3.130
58472W        W23633   8.130  36.396  11.739
58473W        W23634  35.465  27.176  13.509
58474W        W23635  21.107  28.016   4.983
58475W        W23636  26.552  34.571  12.146
58476W        W23637  30.760  43.759  11.633
58477W        W23638  36.349   2.991  14.665
58478W        W23639  14.580  37.275   1.356
58479W        W23640   5.452  41.490  13.999
58480W        W23641   1.526  24.024   3.707
58481W        W23642  43.304  18.210  10.637
58482W        W23643   5.770   0.291   1.545
58483W        W23644  13.228  28.591   2.379
58484W        W23645  25.095  18.154  14.824
58485W        W23646   7.666   8.432   2.668
58486W        W23647  26.827  10.275   0.780
58487W        W23648  28.256  20.187  10.266
58488W        W23649  41.474  40.878   0.311
58489W        W23650  22.065  10.144   0.144
58490W        W23651  20.053  41.107   3.654
58491W        W23652  30.233  10.752   1.626
58492W        W23653  20.535  36.504   0.050
58493W        W23654   9.897   9.960   2.006
58494W        W23655  22.818   5.716  13.490
58495W        W23656  12.341  26.953  12.512
58496W        W23657  40.455  39.354  12.066
58497W        W23658  32.700  43.336   4.978
58498W        W23659   0.962  18.601   1.434
58499W        W23660  44.982   8.624  13.525
58500W        W23661  39.043  22.150  12.482
58501W        W23662  37.379  19.771  12.064
58502W        W23663  12.816   6.694   3.652
58503W        W23664  26.423   8.782  11.456
58504W        W23665  17.013  14.661   2.322
58505W        W23666   7.714  32.667  11.078
58506W        W23667  12.654  13.027   2.052
58507W        W23668  24.773  41.812   3.238
58508W        W23669  18.132   8.305  10.949
58509W        W23670  24.178  15.641  12.525
58510W        W23671  26.013  25.474   3.326
58511W        W23672  21.650  44.259  13.025
58512W        W23673  33.979  32.631  12.544
58513W        W23674  22.873  13.572  14.029
58514W        W23675   1.835  36.347   0.884
58515W        W23676  16.710  41.043  10.752
58516W        W23677  32.082  24.177   1.794
58517W        W23678  36.006   2.864   1.419
58518W        W23679   3.264  15.343   3.723
58519W        W23680  43.479  26.410   3.974
58520W        W23681  41.440  11.812  12.846
58521W        W23682   1.305  34.845  12.060
58522W        W23683   6.081  21.095  14.410
58523W        W23684  14.235  44.798  12.393
58524W        W23685  23.693  39.832   0.297
58525W        W23686  28.018  14.532   4.285
58526W        W23687  41.046   0.522   2.355
58527W        W23688  27.326   4.451   3.892
58528W        W23689  39.247   7.209   1.732
58529W        W23690   0.798  28.546   2.129
58530W        W23691  32.882  33.805   0.316
58531W        W23692  40.065  21.081  14.905
58532W        W23693   7.505  30.461   4.081
58533W        W23694   2.353   5.680  12.389
58534W        W23695   6.238  27.178  14.492
58535W        W23696  28.408  22.782  11.509
58536W        W23697  37.324  32.090  14.400
58537W        W23698   1.338  19.943  10.429
58538W        W23699  21.153  19.111   1.229
58539W        W23700  11.299  13.047   0.005
58540W        W23701   5.268  11.416  10.555
58541W        W23702   9.113   2.183  12.223
58542W        W23703  29.914  41.279   3.246
58543W        W23704  23.329   3.229   3.883
58544W        W23705  11.868   9.592   1.926
58545W        W23706  38.583  11.770  13.130
58546W        W23707  26.116  28.203  14.982
58547W        W23708  26.617  30.492   0.862
58548W        W23709   8.671  16.008   0.715
58549W        W23710   6.448  39.957  11.950
58550W        W23711  15.618  26.695  13.860
58551W        W23712  12.736  31.088   3.593
58552W        W23713   0.945  21.892   2.853
58553W        W23714   9.856  25.054   4.199
58554W        W23715  22.925  22.247  11.147
58555W        W23716  34.484  41.895  12.710
58556W        W23717  22.455  43.683  11.686
58557W        W23718  14.179  41.227   5.054
58558W        W23719  31.631  30.515  13.943
58559W        W23720  34.203   1.059  10.693
58560W        W23721  17.015  20.916  11.239
58561W        W23722  23.316  24.034  12.124
58562W        W23723  38.819  27.389  11.133
58563W        W23724  36.388   0.952  10.602
58564W        W23725  11.703  26.563   0.007
58565W        W23726  25.614  33.191   0.969
58566W        W23727  14.666  20.370  10.696
58567W        W23728  20.642  33.441  13.971
58568W        W23729   0.815  18.046  11.509
58569W        W23730  10.057  21.505  14.339
58570W        W23731  10.265   4.785  13.089
58571W        W23732   9.197  43.776  14.653
58572W        W23733   4.904  28.836   1.824
58573W        W23734  14.293  17.324   3.686
58574W        W23735  17.843  12.166  12.876
58575W        W23736  39.389  16.010  10.721
58576W        W23737  16.832   3.712   1.222
58577W        W23738   4.641  19.395   3.332
58578W        W23739  18.538  15.636  13.624
58579W        W23740   6.780  30.429   4.679
58580W        W23741  38.095  14.172   2.763
58581W        W23742  30.093  23.710   0.253
58582W        W23743  19.357  22.734   4.115
58583W        W23744  16.209  18.602  10.495
58584W        W23745   6.152  20.612  13.924
58585W        W23746  27.771  38.492   1.375
58586W        W23747   9.356  33.952  11.540
58587W        W23748  42.509   9.857  13.467
58588W        W23749  40.671  32.935  11.194
58589W        W23750  34.671  28.930  10.831
58590W        W23751  42.047  41.281   4.679
58591W        W23752   6.954   0.438  11.834
58592W        W23753  41.630  44.498   1.797
58593W        W23754  11.320  31.229  14.587
58594W        W23755   5.711  37.534  12.711
58595W        W23756  40.320  17.888  10.249
58596W        W23757   7.683  11.128   1.854
58597W        W23758  15.191  25.685  14.053
58598W        W23759   0.374  35.097   0.200
58599W        W23760  38.755   6.014  10.903
58600W        W23761  16.233  12.565  11.382
58601W        W23762  38.639  17.961  11.683
58602W        W23763  34.125  24.807  14.887
58603W        W23764  42.517  25.088   4.495
58604W        W23765  38.059  44.560  10.731
58605W        W23766  20.787  18.090  13.477
58606W        W23767   1.871  26.432  13.991
58607W        W23768  10.811   0.015  14.475
58608W        W23769  27.398  14.870   3.173
58609W        W23770  42.144  35.251  11.543
58610W        W23771  37.811  44.457  14.752
58611W        W23772   6.836  24.730   2.689
58612W        W23773  15.699  35.076   0.357
58613W        W23774  17.122   7.451  13.883
58614W        W23775  35.989  31.915   0.072
58615W        W23776  15.750  44.437  13.873
58616W        W23777  11.435  33.535  10.904
58617W        W23778  19.189   2.946   4.639
58618W        W23779  23.652  12.390   0.899
58619W        W23780  28.865  31.582  13.858
58620W        W23781  33.495  28.326  13.530
58621W        W23782   0.770  25.029  14.165
58622W        W23783  22.726   6.463   5.140
58623W        W23784   5.482  25.027   2.059
58624W        W23785  33.525  33.877  13.040
58625W        W23786  17.184  37.369  10.641
58626W        W23787  32.741  35.913  10.634
58627W        W23788  19.625  24.831   4.310
58628W        W23789  24.851  17.900  11.581
58629W        W23790  37.885  36.983  11.593
58630W        W23791  28.064  24.876   1.355
58631W        W23792  25.687  36.522   3.781
58632W        W23793  15.695  36.028  14.457
58633W        W23794  35.511  13.232  13.083
58634W        W23795   3.257  35.258   3.318
58635W        W23796   3.648  43.751  14.957
58636W        W23797  26.257  18.824   4.433
58637W        W23798  39.536  16.592   1.902
58638W        W23799  44.781  36.174   1.930
58639W        W23800  40.542  41.483  13.993
58640W        W23801  26.021  16.191  11.159
58641W        W23802  25.496  29.163  13.309
58642W        W23803  11.115  31.975   4.096
58643W        W23804  30.828  26.686  12.446
58644W        W23805  40.440  30.090   3.077
58645W        W23806  44.473  21.700   3.292
58646W        W23807  41.861   0.646  13.804
58647W        W23808  38.998  16.335   3.813
58648W        W23809  10.789  27.878  11.172
58649W        W23810  30.471  12.381  12.601
58650W        W23811  21.179  36.101   1.944
58651W        W23812   7.902  33.041   1.314
58652W        W23813  43.970  10.738   2.441
58653W        W23814  24.619   8.115  11.112
58654W        W23815  11.621   3.557   5.260
58655W        W23816  32.791  30.643   1.100
58656W        W23817   5.319  42.298  11.512
58657W        W23818  20.348   9.296   1.219
58658W        W23819  22.732   2.154   4.917
58659W        W23820   2.544   7.017  12.389
58660W        W23821  39.063   6.425   3.289
58661W        W23822  39.550  18.702  11.249
58662W        W23823  31.420  33.340  13.820
58663W        W23824  41.955  30.168   4.958
58664W        W23825   2.778  41.646   2.253
58665W        W23826  31.399  19.518  14.026
58666W        W23827  36.563  34.912  12.529
58667W        W23828   4.963  14.202   0.770
58668W        W23829  21.357   6.894   1.953
58669W        W23830  40.614   0.806  13.397
58670W        W23831  13.856   3.773  13.575
58671W        W23832  11.710  41.256  13.774
58672W        W23833  37.574   0.279   3.876
58673W        W23834   5.235  17.430  14.716
58674W        W23835   5.275   7.567   4.699
58675W        W23836  28.094  11.428  14.641
58676W        W23837  27.437   8.242  11.652
58677W        W23838   1.535   9.675  10.700
58678W        W23839   5.395  28.446   0.066
58679W        W23840   6.469   2.401   0.783
58680W        W23841  37.164   0.914   3.260
58681W        W23842  20.139  15.789  12.308
58682W        W23843  42.880  17.922   4.506
58683W        W23844  37.776   9.280  14.921
58684W        W23845  21.117  10.170   2.698
58685W        W23846  14.158  33.187   2.346
58686W        W23847  34.311  10.377   1.234
58687W        W23848  10.868  36.536  14.736
58688W        W23849  26.409   7.843   4.568
58689W        W23850  11.075  30.618  11.821
58690W        W23851  12.593  15.690  13.843
58691W        W23852  10.750   3.304   0.729
58692W        W23853  20.714  27.383   2.163
58693W        W23854  36.785  13.142  10.732
58694W        W23855  11.851  16.197   1.379
58695W        W23856  37.298  29.010  14.659
58696W        W23857   5.908  28.269   1.425
58697W        W23858   2.062  36.558   3.688
58698W        W23859  15.624  17.359  11.198
58699W        W23860  38.297  13.787  13.956
58700W        W23861   7.760  23.215   3.336
58701W        W23862  33.505  44.495   2.218
58702W        W23863  18.385   4.841  13.057
58703W        W23864   6.396  28.474  12.705
58704W        W23865  23.473   4.637  14.912
58705W        W23866  16.892   9.774  12.090
58706W        W23867   1.684  44.081  11.101
58707W        W23868  31.646   2.974   1.468
58708W        W23869   9.579  24.234   3.666
58709W        W23870  32.634  16.130  14.890
58710W        W23871  21.146  11.203   1.748
58711W        W23872   8.388   6.892   2.822
58712W        W23873  25.545  43.957  10.449
58713W        W23874   3.393  43.939   0.393
58714W        W23875  28.042  21.525   1.733
58715W        W23876  33.114  36.964   1.815
58716W        W23877  40.498  17.725   0.321
58717W        W23878   3.984  17.174   3.142
58718W        W23879  24.926  33.420   3.853
58719W        W23880  31.115  10.183  10.985
58720W        W23881   0.497  28.136  13.364
58721W        W23882   0.759   8.889   5.074
58722W        W23883  26.212  24.459  13.396
58723W        W23884  40.625   8.139   1.885
58724W        W23885  13.635  14.285  12.446
58725W        W23886   4.078  36.668   4.240
58726W        W23887  25.617   8.165  14.072
58727W        W23888   1.746   0.229   1.374
58728W        W23889  37.283  25.645  12.274
58729W        W23890  13.900  41.099  14.351
58730W        W23891   6.225  33.920   3.683
58731W        W23892  11.580  30.543  10.901
58732W        W23893  17.626  30.745  12.492
58733W        W23894  36.627  32.352  10.700
58734W        W23895  23.823   9.455  11.088
58735W        W23896  40.836  34.676   1.828
58736W        W23897  10.789   6.731  14.378
58737W        W23898   2.460  27.717  12.869
58738W        W23899  42.833  32.408  13.373
58739W        W23900  41.874  33.535   3.651
58740W        W23901  33.025  39.648  12.894
58741W        W23902  44.428  32.715   4.401
58742W        W23903   9.316  14.508   3.744
58743W        W23904  11.742  36.358  13.516
58744W        W23905  35.421   6.621   1.689
58745W        W23906  32.905   6.806  11.999
58746W        W23907  26.630  24.708   5.206
58747W        W23908  36.959  17.184   4.842
58748W        W23909  38.748   3.354  13.934
58749W        W23910  38.568   0.019   2.745
58750W        W23911  15.307  31.823  14.369
58751W        W23912  15.529   1.264  14.322
58752W        W23913   5.733  39.608   2.798
58753W        W23914  16.772   0.038   4.788
58754W        W23915  21.974   4.158  11.063
58755W        W23916   1.286  36.443   2.294
58756W        W23917  39.131   6.553  14.465
58757W        W23918  38.897  10.047  13.297
58758W        W23919  36.259  34.567  13.939
58759W        W23920  43.813  23.615   0.710
58760W        W23921  25.218   0.388  11.370
58761W        W23922  31.854  12.582  10.173
58762W        W23923   9.465  35.359   2.856
58763W        W23924  41.689   0.878   3.691
58764W        W23925  40.778  36.338   5.193
58765W        W23926  25.117  31.634  14.883
58766W        W23927   4.330   3.696   2.895
58767W        W23928  11.720  24.118  12.680
58768W        W23929  19.062   5.480   4.535
58769W        W23930   2.824  18.706   4.035
58770W        W23931  11.314  36.098   1.433
58771W        W23932   4.392   5.446   5.027
58772W        W23933  18.838  35.972  12.093
58773W        W23934   7.871   5.507  14.014
58774W        W23935  19.283  38.394  14.091
58775W        W23936  36.339  37.416  14.499
58776W        W23937  28.436  32.569  14.925
58777W        W23938   6.238  39.724   2.819
58778W        W23939  15.765   9.344  13.406
58779W        W23940  25.122  40.952  11.050
58780W        W23941  18.948  39.417   1.185
58781W        W23942  31.762  11.400   2.316
58782W        W23943  44.762  43.293   1.331
58783W        W23944   6.747  37.524   0.320
58784W        W23945   3.044  25.169   1.000
58785W        W23946  19.748  43.301  13.606
58786W        W23947  14.827  31.176  14.008
58787W        W23948  31.477   9.432   1.333
58788W        W23949  41.360  18.800  10.782
58789W        W23950  16.693  36.865  13.333
58790W        W23951   7.293   4.364  12.938
58791W        W23952  33.636   8.026   5.057
58792W        W23953  44.254   1.843  13.081
58793W        W23954  11.694  25.658  12.418
58794W        W23955  30.146  41.076  10.239
58795W        W23956   6.470  12.783   2.403
58796W        W23957  37.005  23.033   0.579
58797W        W23958   2.715  22.602  12.545
58798W        W23959   7.760  36.365   4.957
58799W        W23960   4.857  33.625  14.369
58800W        W23961  39.022   0.399  11.155
58801W        W23962  40.895  36.787  12.817
58802W        W23963  21.092  27.709  13.070
58803W        W23964  26.641   4.380  12.541
58804W        W23965  26.933  13.278   4.667
58805W        W23966  34.026  44.021   2.090
58806W        W23967  17.270  12.676   3.366
58807W        W23968  12.773  29.701   1.433
58808W        W23969  30.865  13.712  13.343
58809W        W23970   7.702  14.620   1.403
58810W        W23971  24.563  13.517  12.071
58811W        W23972   5.736  11.281   0.328
58812W        W23973  36.499  17.350  14.767
58813W        W23974   9.708  35.019   2.519
58814W        W23975  19.772  40.132  11.446
58815W        W23976  21.585   3.731   0.248
58816W        W23977  37.560   3.299  12.481
58817W        W23978  22.965  26.239  13.134
58818W        W23979  17.592  37.886  14.288
58819W        W23980  26.521  23.741   4.081
58820W        W23981   9.208  27.142  10.714
58821W        W23982   2.034  34.541  11.075
58822W        W23983  29.420  14.299  11.140
58823W        W23984  26.926  34.038  12.972
58824W        W23985  33.908   6.741   0.179
58825W        W23986  26.616  38.133  12.735
58826W        W23987  35.907  34.431   0.915
58827W        W23988  39.776  43.780  11.143
58828W        W23989  42.842  32.846   2.977
58829W        W23990  25.858  26.518  12.338
58830W        W23991  31.770  30.433  13.277
58831W        W23992   7.163  30.485  10.956
58832W        W23993  16.708   1.419   1.460
58833W        W23994   3.299  31.008   3.587
58834W        W23995  12.097   8.689  11.666
58835W        W23996  22.574  14.711  12.289
58836W        W23997  31.824  44.926   1.615
58837W        W23998  33.014  36.558   0.431
58838W        W23999   9.855  24.231  11.122
58839W        W24000  44.504   7.258  11.496
58840W        W24001  18.109  36.007  11.085
58841W        W24002  42.817  44.355  14.260
58842W        W24003  16.856   0.051  11.627
58843W        W24004  11.146  14.280  10.797
58844W        W24005  32.147  24.441  14.048
58845W        W24006   9.379   7.059  10.987
58846W        W24007  29.438  12.351  11.140
58847W        W24008   6.922  26.633  14.810
58848W        W24009  11.245  10.193   2.514
58849W        W24010  32.061   3.815   0.518
58850W        W24011  31.005  40.273   1.271
58851W        W24012  27.908  21.049   4.081
58852W        W24013   6.497  16.242  11.987
58853W        W24014  22.079  44.513   4.131
58854W        W24015   0.773   8.775   4.573
58855W        W24016   6.751  42.739  12.432
58856W        W24017  34.005  20.319  14.023
58857W        W24018  30.687  24.146  14.876
58858W        W24019  42.453  34.526  10.840
58859W        W24020   9.275  34.956   3.112
58860W        W24021  18.788  32.954  13.916
58861W        W24022  16.369  23.918  12.941
58862W        W24023  20.161  35.825   0.851
58863W        W24024  27.420  22.984   1.219
58864W        W24025  39.079  28.055  14.296
58865W        W24026  31.134  25.062  11.724
58866W        W24027  21.176   0.483  14.439
58867W        W24028  33.882   3.993  12.443
58868W        W24029   7.301   0.840   4.105
58869W        W24030  28.121   7.924   0.157
58870W        W24031  17.163  38.688  12.488
58871W        W24032  19.117   8.901   1.210
58872W        W24033  11.947   1.103  12.204
58873W        W24034  17.295  37.632   0.742
58874W        W24035  17.024  41.913   4.973
58875W        W24036  21.968  20.683  14.117
58876W        W24037  27.274  44.255  13.490
58877W        W24038  29.091  28.939  10.652
58878W        W24039  16.608  17.322   3.735
58879W        W24040  27.295  12.365   0.012
58880W        W24041  11.264  29.243   0.867
58881W        W24042  34.847  26.515  12.483
58882W        W24043  16.790  44.338  13.851
58883W        W24044  42.306  29.253  12.522
58884W        W24045  42.501  17.828  10.659
58885W        W24046  35.374  37.212  14.290
58886W        W24047   6.588  40.896  13.355
58887W        W24048  29.697  35.778   2.338
58888W        W24049  11.674   2.375  12.971
58889W        W24050  44.297  19.107   3.233
58890W        W24051  26.422  26.505   2.142
58891W        W24052  22.137  15.882   4.839
58892W        W24053  38.747   1.564  11.592
58893W        W24054  29.092   2.702   0.947
58894W        W24055   7.115  22.710   3.709
58895W        W24056  30.133  44.821  14.554
58896W        W24057  16.131   2.342  11.988
58897W        W24058   7.644   9.738  11.595
58898W        W24059  13.649  13.914   2.381
58899W        W24060  33.466   3.219  12.936
58900W        W24061  24.119   2.625   3.807
58901W        W24062  26.548   2.993   3.374
58902W        W24063  19.146   7.442  12.143
58903W        W24064  26.709   8.819   0.889
58904W        W24065  29.630  32.366  11.911
58905W        W24066   5.307   5.002   4.890
58906W        W24067   9.108  36.798   1.412
58907W        W24068  14.639  37.580   3.731
58908W        W24069  23.921  20.808  12.948
58909W        W24070  39.463  44.956   2.842
58910W        W24071   9.164  43.156   4.714
58911W        W24072  22.027  43.290   0.258
58912W        W24073  10.374  19.982  10.745
58913W        W24074  28.556  35.155  14.991
58914W        W24075   1.001   0.763  13.491
58915W        W24076  36.582  23.934   5.025
58916W        W24077   1.028  26.691   0.839
58917W        W24078  25.214  39.878   1.275
58918W        W24079  39.034  24.474   0.495
58919W        W24080   4.747  40.168  14.784
58920W        W24081  13.856  14.152   0.121
58921W        W24082  23.638   3.903   1.398
58922W        W24083  42.616  42.294   2.102
58923W        W24084  29.212  31.557   4.865
58924W        W24085  22.683  43.009   3.223
58925W        W24086   1.861  11.781   0.465
58926W        W24087  13.681  15.313  14.344
58927W        W24088   4.657  37.999  12.398
58928W        W24089   4.930  30.952   5.181
58929W        W24090  10.806  21.835   3.110
58930W        W24091  35.884  40.258  14.021
58931W        W24092  44.871  43.809   2.220
58932W        W24093  15.464  11.196  14.269
58933W        W24094  16.790  13.499   1.451
58934W        W24095  36.796  22.124  12.235
58935W        W24096  43.532  21.251   1.304
58936W        W24097   3.782   3.822  13.254
58937W        W24098  27.587  22.666  13.614
58938W        W24099  34.184  40.108   5.065
58939W        W24100  38.521   5.242   2.361
58940W        W24101  30.754  42.451   1.461
58941W        W24102   1.447  44.886   4.619
58942W        W24103  15.367  37.428   4.013
58943W        W24104  19.811  38.343  14.048
58944W        W24105  19.664  37.834  13.392
58945W        W24106  37.388   0.898  12.150
58946W        W24107  16.365   4.502  12.494
58947W        W24108   1.350  16.737   3.841
58948W        W24109  21.457  29.142  14.859
58949W        W24110   1.275   5.460   0.803
58950W        W24111  27.549  14.592   4.489
58951W        W24112  35.589  33.904   4.635
58952W        W24113  15.126  42.196   1.968
58953W        W24114   6.918  41.789   4.268
58954W        W24115   3.712  37.432   0.017
58955W        W24116   1.301  11.893  14.363
58956W        W24117  34.342  22.482  13.666
58957W        W24118  24.494   3.179   3.838
58958W        W24119  40.481  14.137   3.732
58959W        W24120  39.517  44.494   3.676
58960W        W24121  29.716   1.902   0.337
58961W        W24122   2.428  19.493  14.219
58962W        W24123   9.673  33.719   9.882
58963W        W24124   8.244  39.998   1.168
58964W        W24125  10.984  38.090   1.324
58965W        W24126  19.231  15.592  11.633
58966W        W24127   8.919  27.717   9.764
58967W        W24128  18.021  31.471   4.437
58968W        W24129  36.347  13.724   3.990
58969W        W24130  23.687  22.657  12.136
58970W        W24131  23.549  16.310   1.145
58971W        W24132  43.344  41.611   1.259
58972W        W24133  16.180  43.606  11.092
58973W        W24134  38.038  12.398   2.607
58974W        W24135  37.535   3.333   1.317
58975W        W24136  18.469  14.844  14.322
58976W        W24137  26.088  36.296   1.643
58977W        W24138   1.979  44.672  12.936
58978W        W24139  34.146  35.825  10.582
58979W        W24140   7.028  38.517  11.207
58980W        W24141  29.507   1.681  12.001
58981W        W24142  30.762  12.376  13.556
58982W        W24143   8.592  16.815   4.413
58983W        W24144  42.937   4.119  10.719
58984W        W24145  34.859   0.003  11.428
58985W        W24146  42.411  21.459  13.537
58986W        W24147  30.447  16.246   1.743
58987W        W24148  42.026  30.924   2.387
58988W        W24149  22.999   4.926  13.739
58989W        W24150  28.704   0.711   0.982
58990W        W24151  17.296  39.449  11.822
58991W        W24152   8.759  17.670  13.480
58992W        W24153  25.257  28.136  12.164
58993W        W24154  26.500  25.694   3.345
58994W        W24155  28.270  38.917  11.673
58995W        W24156  39.902  38.663   1.646
58996W        W24157   8.276  33.213   4.808
58997W        W24158  23.942  31.844   4.593
58998W        W24159   4.913  19.252   2.897
58999W        W24160  44.479  21.275   1.232
59000W        W24161  33.082   9.399   0.831
59001W        W24162  29.974  34.614   2.740
59002W        W24163  34.110  39.000  12.850
59003W        W24164  36.025   0.775  12.350
59004W        W24165  26.885  20.631  12.067
59005W        W24166   0.914  41.056  12.544
59006W        W24167  43.388   7.735   0.605
59007W        W24168  41.439  20.167  14.810
59008W        W24169  24.471  41.495  14.295
59009W        W24170  35.628  42.999  11.181
59010W        W24171  32.171  33.587  14.462
59011W        W24172  29.457  36.117  10.131
59012W        W24173  41.963  17.315   0.922
59013W        W24174  10.378  20.286   1.769
59014W        W24175  33.138  43.611   2.038
59015W        W24176   7.272  36.976   0.716
59016W        W24177  17.126  17.617   0.220
59017W        W24178   7.934  25.507  11.035
59018W        W24179  32.108  32.415  10.721
59019W        W24180  39.043   2.700   2.578
59020W        W24181  28.661  37.459   2.712
59021W        W24182  13.687   6.884   1.980
59022W        W24183  44.098  34.968   1.692
59023W        W24184   5.640  22.702  12.469
59024W        W24185   2.016   5.882  12.052
59025W        W24186  27.726  40.110  12.720
59026W        W24187  39.356  37.786   1.658
59027W        W24188  39.469  36.313   2.675
59028W        W24189  43.792  22.937  11.500
59029W        W24190   3.325  24.418   3.490
59030W        W24191  34.418  11.813  12.063
59031W        W24192  44.000  26.584   4.852
59032W        W24193  32.413   9.355  10.921
59033W        W24194  22.941   2.510   0.485
59034W        W24195  39.549  28.085  11.301
59035W        W24196   0.272   2.384  13.454
59036W        W24197  37.493   4.653   0.808
59037W        W24198  24.109  42.242   1.832
59038W        W24199  29.520  12.836  13.483
59039W        W24200  12.316   7.947  11.163
59040W        W24201  28.023  18.072  10.929
59041W        W24202  15.832  33.645   1.833
59042W        W24203   4.047  10.910   0.886
59043W        W24204  38.358  14.090  14.800
59044W        W24205  39.781  17.545  12.423
59045W        W24206  33.607  16.319   3.176
59046W        W24207  41.794  12.398   0.761
59047W        W24208  38.017  38.377  14.491
59048W        W24209   0.381  16.509  12.787
59049W        W24210  18.095  31.575  13.618
59050W        W24211  43.870  13.498   0.660
59051W        W24212  16.591   0.811   0.173
59052W        W24213   8.692   2.877   0.355
59053W        W24214   6.192  36.946   3.992
59054W        W24215  39.844  39.011  12.907
59055W        W24216  11.761   0.800  11.200
59056W        W24217   1.678  22.040   2.177
59057W        W24218  15.335  22.309   2.355
59058W        W24219   1.220   7.848   3.852
59059W        W24220  25.104  14.480   4.968
59060W        W24221  26.136  26.579  11.868
59061W        W24222   8.356  16.486   0.723
59062W        W24223   4.325  25.465   0.700
59063W        W24224  44.196  14.777   0.816
59064W        W24225  11.265  28.517   0.328
59065W        W24226  38.582  44.294  11.404
59066W        W24227  11.189  43.272  14.921
59067W        W24228   2.215  27.594  10.808
59068W        W24229  30.918  13.315  10.715
59069W        W24230  23.030  33.588   4.207
59070W        W24231  40.300  30.578   3.171
59071W        W24232  16.152  35.983   0.755
59072W        W24233  29.187  42.705   4.656
59073W        W24234  34.450   0.895  12.476
59074W        W24235  28.619  30.390   4.367
59075W        W24236  32.365  17.285  12.843
59076W        W24237  26.736  13.124   0.968
59077W        W24238  23.225  34.242   3.727
59078W        W24239  10.307   9.233   3.182
59079W        W24240  43.485  21.656  10.646
59080W        W24241  38.868  11.535  10.725
59081W        W24242  20.154  15.049   4.563
59082W        W24243  34.378  37.789   5.190
59083W        W24244  12.197  39.778  10.397
59084W        W24245  17.591   5.784   0.394
59085W        W24246   1.955   2.737  12.882
59086W        W24247  13.593  28.986   3.769
59087W        W24248  29.056  18.379   0.930
59088W        W24249  24.569  39.434   2.117
59089W        W24250   3.873  17.562  11.231
59090W        W24251  40.914   0.969  10.652
59091W        W24252   4.178  38.385   2.656
59092W        W24253  20.116   6.259  13.762
59093W        W24254  25.258  41.815   4.947
59094W        W24255  36.355  26.014  12.959
59095W        W24256  27.444  44.617  13.160
59096W        W24257  30.251  14.082   0.770
59097W        W24258  39.896  30.490  11.186
59098W        W24259  41.757  44.753   5.011
59099W        W24260  17.809  43.417   1.797
59100W        W24261   7.505  25.455  10.669
59101W        W24262  40.532  11.363   1.271
59102W        W24263   7.212  26.998  14.067
59103W        W24264  25.444  22.476  12.241
59104W        W24265   2.801  24.292  12.888
59105W        W24266  10.900  42.914  14.270
59106W        W24267  38.684  34.593  12.817
59107W        W24268   0.204  14.309   3.256
59108W        W24269   8.251  27.178   1.713
59109W        W24270  36.009   9.609  10.993
59110W        W24271   6.279  24.542   3.397
59111W        W24272  25.545   3.450   0.422
59112W        W24273  33.120  40.470   2.097
59113W        W24274  20.318  42.053  12.525
59114W        W24275  22.758  19.272   4.182
59115W        W24276  41.476  21.789  13.238
59116W        W24277  14.396  16.234   4.263
59117W        W24278   0.617  11.869   1.857
59118W        W24279  40.920  12.793  12.025
59119W        W24280  14.308  10.685   3.820
59120W        W24281  10.691  34.939  14.326
59121W        W24282  42.362  31.346   2.372
59122W        W24283  43.941  27.011  11.446
59123W        W24284  22.767  25.616   1.205
59124W        W24285  42.420   6.709   4.647
59125W        W24286  33.443  38.052  11.090
59126W        W24287   0.675  22.731  12.560
59127W        W24288  24.679  38.498   3.205
59128W        W24289  43.992  33.466   1.696
59129W        W24290   4.536   0.581   4.776
59130W        W24291   1.318  44.660   1.739
59131W        W24292  33.617  34.363   3.621
59132W        W24293  29.208  38.983   4.795
59133W        W24294  16.059  32.969  14.385
59134W        W24295  31.035  13.230   0.483
59135W        W24296  18.046  27.589  13.460
59136W        W24297  40.901  14.893  14.009
59137W        W24298  22.710  37.725  12.581
59138W        W24299  36.532  23.263  12.066
59139W        W24300   3.247  18.596   0.897
59140W        W24301  20.136   9.929   3.574
59141W        W24302  13.599  28.063  13.783
59142W        W24303  36.979  34.990  13.634
59143W        W24304  37.768  33.808   4.099
59144W        W24305   4.396  33.456   3.834
59145W        W24306   1.343  31.858   0.695
59146W        W24307  42.300  23.534  13.996
59147W        W24308  23.194  17.332   0.766
59148W        W24309   9.076  14.731  12.355
59149W        W24310   0.486  32.427  11.489
59150W        W24311  28.890  38.861   0.472
59151W        W24312  24.519  10.127  12.964
59152W        W24313  36.590  22.957  11.175
59153W        W24314   0.776   4.554   3.385
59154W        W24315   4.238  19.766  12.192
59155W        W24316   0.596  27.585  11.712
59156W        W24317  38.548  14.796  13.370
59157W        W24318  38.528   6.769  12.098
59158W        W24319  44.677   0.771   0.145
59159W        W24320  42.982  37.662   2.877
59160W        W24321  18.562   4.148  12.508
59161W        W24322  17.835  30.568  13.415
59162W        W24323   4.440  42.890  14.332
59163W        W24324  44.701   7.371  12.987
59164W        W24325  27.096  29.973  13.575
59165W        W24326  14.699   9.817  10.733
59166W        W24327  44.543   5.367   0.258
59167W        W24328  38.621  40.916  12.869
59168W        W24329   9.318  15.175  12.501
59169W        W24330  14.131  35.826  12.872
59170W        W24331  18.565  12.368  13.401
59171W        W24332   6.249  16.536   4.753
59172W        W24333  10.902  27.606  12.086
59173W        W24334  34.444  40.500   5.322
59174W        W24335  12.932   9.841   0.724
59175W        W24336  25.651  19.808  14.415
59176W        W24337  16.705   3.450  14.503
59177W        W24338  20.985  19.581   2.371
59178W        W24339  28.662   3.700   2.905
59179W        W24340  18.939  35.065   3.837
59180W        W24341  35.073  34.880  12.025
59181W        W24342   7.267  24.633   0.447
59182W        W24343   0.804  39.394   0.896
59183W        W24344   5.769   3.792   3.561
59184W        W24345  11.662  27.440   2.873
59185W        W24346   2.467  17.033   3.198
59186W        W24347  40.328  12.608  12.913
59187W        W24348  27.361  15.761  13.405
59188W        W24349  25.324  19.100  14.491
59189W        W24350  44.664  36.330  13.168
59190W        W24351  33.064  24.184   4.470
59191W        W24352   5.564  42.284  12.054
59192W        W24353   9.332  22.050   2.092
59193W        W24354  24.763   1.241   5.030
59194W        W24355  23.801  30.520  13.766
59195W        W24356  37.905  15.808  13.371
59196W        W24357  44.799  21.914  11.580
59197W        W24358  21.547  36.000   4.604
59198W        W24359  23.967  26.075   4.761
59199W        W24360   6.743  40.994   4.578
59200W        W24361  32.487  44.484  11.486
59201W        W24362  18.848   8.851  13.751
59202W        W24363  44.813   4.406  12.487
59203W        W24364  42.263  27.462   1.393
59204W        W24365  39.902  27.035  13.418
59205W        W24366  26.020  14.638   4.669
59206W        W24367   3.708  18.137  10.659
59207W        W24368  30.572   1.162  14.396
59208W        W24369  39.655   6.301   2.860
59209W        W24370   0.299  42.848  11.310
59210W        W24371   3.657  38.794   9.902
59211W        W24372  11.361  30.429   5.024
59212W        W24373  20.597  43.504  12.546
59213W        W24374   3.394   2.752  10.692
59214W        W24375   5.885  23.081   1.302
59215W        W24376  44.544   1.292   0.221
59216W        W24377  32.019  16.482   4.836
59217W        W24378  44.747  37.552  13.333
59218W        W24379   8.195   9.427  12.525
59219W        W24380   1.399  29.570   3.699
59220W        W24381  32.682  24.189   4.867
59221W        W24382  30.294  41.834  12.987
59222W        W24383  23.524  17.128   3.382
59223W        W24384  31.031  32.030   4.520
59224W        W24385  39.859  29.669  12.527
59225W        W24386  13.773  33.188  11.113
59226W        W24387   8.948  28.641   4.716
59227W        W24388  32.029  15.563   0.838
59228W        W24389  17.123  34.569   3.783
59229W        W24390  26.097  14.368  11.106
59230W        W24391  43.879  30.656  10.662
59231W        W24392   1.515  36.859   1.777
59232W        W24393  41.224  25.703  13.451
59233W        W24394  19.046  13.776  12.058
59234W        W24395  32.727  10.006  14.957
59235W        W24396  21.556  32.375  12.919
59236W        W24397  10.827  25.202   1.267
59237W        W24398  27.899  18.593   3.697
59238W        W24399   8.130   2.341   0.827
59239W        W24400  36.668   7.165  14.939
59240W        W24401   2.466  34.358  13.562
59241W        W24402  25.472  38.336   2.523
59242W        W24403  40.549  38.510   2.765
59243W        W24404   5.885  31.335  14.897
59244W        W24405  23.126  15.124   3.623
59245W        W24406  11.457   9.284   2.408
59246W        W24407   6.294  36.915  11.867
59247W        W24408  12.125  30.685  14.837
59248W        W24409  24.561  13.840   0.005
59249W        W24410  19.486   3.928  14.451
59250W        W24411  31.637   5.511  14.471
59251W        W24412  27.416  25.521  13.907
59252W        W24413  15.685  34.560  12.908
59253W        W24414  43.761   7.724   1.641
59254W        W24415   1.663   7.321  12.030
59255W        W24416   7.639  35.586  14.901
59256W        W24417  27.115  28.878   1.218
59257W        W24418  26.292  37.539   1.406
59258W        W24419   8.223  40.280   2.430
59259W        W24420  38.928  18.530   4.147
59260W        W24421  37.613  38.070   1.641
59261W        W24422  20.177  39.316  10.157
59262W        W24423  20.167  40.096   1.542
59263W        W24424  13.645   6.239  12.026
59264W        W24425  20.602   2.303  13.684
59265W        W24426  21.635  36.839  13.038
59266W        W24427   9.436  33.023   2.087
59267W        W24428  25.867  14.420   3.415
59268W        W24429  18.899  39.017  10.477
59269W        W24430  14.251  13.297   1.194
59270W        W24431  21.140  40.301   1.181
59271W        W24432  20.524   8.538  12.320
59272W        W24433  28.135  39.143  13.000
59273W        W24434  27.835  44.441  12.882
59274W        W24435  13.245  30.633  10.414
59275W        W24436  35.386  40.820  14.282
59276W        W24437   3.684  31.193  14.379
59277W        W24438  21.533   1.368   4.207
59278W        W24439  19.757  40.927  13.881
59279W        W24440  26.958  17.732   4.053
59280W        W24441   9.349   2.816  14.112
59281W        W24442   9.820  15.211  14.350
59282W        W24443  22.223  16.820   3.266
59283W        W24444  23.182  37.879   2.234
59284W        W24445  10.721  28.446   4.587
59285W        W24446   3.860  23.274   2.593
59286W        W24447  29.482   7.269  11.347
59287W        W24448  36.954  41.428  11.729
59288W        W24449  40.818  16.065   3.282
59289W        W24450  26.231  44.474  12.570
59290W        W24451   1.964   9.070   5.080
59291W        W24452  30.680  41.905   1.840
59292W        W24453   0.949  39.926  12.005
59293W        W24454  11.745  29.527   1.054
59294W        W24455  30.807   3.402   0.410
59295W        W24456   0.476  24.185  13.875
59296W        W24457   3.854   5.908  12.407
59297W        W24458   9.673   1.948   4.928
59298W        W24459  19.520   1.968  14.498
59299W        W24460  23.783  36.811   3.503
59300W        W24461   3.793   9.248   0.537
59301W        W24462  12.288  32.857   0.644
59302W        W24463  30.129  41.937  11.480
59303W        W24464  18.010  32.133  12.453
59304W        W24465  19.745  10.107   2.533
59305W        W24466  40.825  29.890   2.161
59306W        W24467  14.319  32.822  14.428
59307W        W24468   9.195  33.482  14.259
59308W        W24469  16.307  37.131  10.954
59309W        W24470  35.047  30.487  10.729
59310W        W24471  37.601  24.186   0.837
59311W        W24472   2.279  21.065  14.839
59312W        W24473  27.174  44.603   0.864
59313W        W24474  40.595  11.896  14.816
59314W        W24475  19.739  44.263  14.826
59315W        W24476  44.429  13.558  13.435
59316W        W24477  42.116  38.682   0.930
59317W        W24478  43.330  19.437  11.974
59318W        W24479  42.980   2.253  14.929
59319W        W24480  15.625  23.701  14.187
59320W        W24481  12.675  35.116   0.064
59321W        W24482  38.486  24.486   3.516
59322W        W24483  14.000  29.654  11.102
59323W        W24484   5.984   2.257  10.385
59324W        W24485  26.087   2.855  12.631
59325W        W24486  13.600   5.266   4.738
59326W        W24487  38.328  38.537   1.319
59327W        W24488   2.767  19.138   3.767
59328W        W24489  17.129  43.165  13.967
59329W        W24490   0.545  30.150  13.353
59330W        W24491  40.834  22.674   1.419
59331W        W24492  33.587  30.540   4.604
59332W        W24493  29.650  44.238   0.025
59333W        W24494  23.817  33.146  13.956
59334W        W24495  10.347   1.694  12.055
59335W        W24496  23.108   2.809  11.179
59336W        W24497  11.644  37.011  12.387
59337W        W24498   1.804   0.523  14.484
59338W        W24499  40.519  28.873  12.735
59339W        W24500  39.009  22.307   1.377
59340W        W24501   8.867  32.974  10.735
59341W        W24502  33.529  24.661  13.507
59342W        W24503  16.520  43.854   2.832
59343W        W24504   5.383  44.581   4.004
59344W        W24505  39.069  31.437  14.391
59345W        W24506  17.311   7.926  13.978
59346W        W24507  13.081  25.480  11.208
59347W        W24508  44.886  19.367  14.335
59348W        W24509  14.819   7.254  14.173
59349W        W24510   2.323  22.448  12.900
59350W        W24511  43.042  23.489  12.353
59351W        W24512   2.320  11.833  12.022
59352W        W24513  27.670  22.973  10.616
59353W        W24514  22.110  21.114   1.248
59354W        W24515   7.376   0.723   0.978
59355W        W24516  14.422  12.966  10.250
59356W        W24517  28.693  38.601   3.996
59357W        W24518  44.724  25.044  14.435
59358W        W24519  34.330  24.556  11.571
59359W        W24520  12.131  14.810  13.117
59360W        W24521  18.209   1.050  11.982
59361W        W24522  44.906  41.977  11.989
59362W        W24523  21.054  25.600   1.842
59363W        W24524  19.201  14.440  12.513
59364W        W24525  12.775  14.139  11.549
59365W        W24526  30.662  14.741  13.373
59366W        W24527  40.367  41.919  13.781
59367W        W24528   1.764  36.279   1.747
59368W        W24529  31.426   4.979  12.134
59369W        W24530  27.126  23.439   2.397
59370W        W24531  27.489  21.498  11.673
59371W        W24532   9.535  43.397  13.405
59372W        W24533  12.229  11.927  12.976
59373W        W24534  27.513  14.406  12.468
59374W        W24535  34.499  41.470  14.304
59375W        W24536  43.399  10.621  11.175
59376W        W24537  20.522  17.280  11.101
59377W        W24538  20.013  23.033  10.676
59378W        W24539   5.417  38.760   1.670
59379W        W24540  36.434  31.650  14.439
59380W        W24541  22.004  28.582   1.713
59381W        W24542  37.211  31.151   5.279
59382W        W24543  23.229  24.651   9.854
59383W        W24544  36.791  13.824  11.502
59384W        W24545   1.472  12.180  11.960
59385W        W24546  27.622  10.394   4.153
59386W        W24547   6.316  38.301  10.717
59387W        W24548  33.585  25.048   2.815
59388W        W24549  42.352  25.371   3.066
59389W        W24550  25.554  16.546   0.716
59390W        W24551  25.247   9.504   1.733
59391W        W24552  20.751   6.804  12.703
59392W        W24553   5.749  25.025  13.372
59393W        W24554  10.351  35.812   1.224
59394W        W24555  21.590  42.856  14.790
59395W        W24556   3.422  30.194   4.224
59396W        W24557   4.216  24.643  11.523
59397W        W24558  42.302  38.020  10.934
59398W        W24559   1.388  35.327  13.403
59399W        W24560  26.439  21.813   4.091
59400W        W24561  33.338  40.961   4.687
59401W        W24562  19.485  35.899   2.867
59402W        W24563  31.445  12.134  12.352
59403W        W24564   8.787   4.304   2.840
59404W        W24565   7.161  24.900   3.316
59405W        W24566   1.159  28.537  11.609
59406W        W24567  15.950  22.180  12.570
59407W        W24568   3.172   1.242  14.346
59408W        W24569   0.474  13.727  12.557
59409W        W24570   7.237   1.303   3.437
59410W        W24571  29.517  21.980   4.196
59411W        W24572  37.814  22.887  12.470
59412W        W24573  19.158  43.437   4.018
59413W        W24574  10.043  39.918  14.552
59414W        W24575  14.144  39.994  11.817
59415W        W24576  41.255  19.305  13.397
59416W        W24577  26.748   6.164  11.066
59417W        W24578   1.108  10.768  12.555
59418W        W24579  29.511  38.382   2.231
59419W        W24580  25.817  18.276  14.178
59420W        W24581  42.666  44.403   4.730
59421W        W24582  37.134  15.902   1.689
59422W        W24583  12.857   4.200   0.254
59423W        W24584   5.388   0.831   4.942
59424W        W24585   9.881  40.475  13.335
59425W        W24586  34.625  30.522  11.186
59426W        W24587  20.375   0.470  11.030
59427W        W24588  43.810  36.071  12.417
59428W        W24589  21.039  43.198   3.394
59429W        W24590  31.703  35.469  11.747
59430W        W24591  25.212   8.245  10.442
59431W        W24592  33.839  11.388  10.535
59432W        W24593  20.701  37.395  13.425
59433W        W24594  38.015  22.937  11.969
59434W        W24595   7.123  32.652   0.855
59435W        W24596  17.699  43.088  13.439
59436W        W24597   6.447   7.158   2.122
59437W        W24598  21.264   9.157  12.624
59438W        W24599  15.557  29.923   0.790
59439W        W24600  36.292  29.064  13.040
59440W        W24601  19.159  22.455  12.369
59441W        W24602  36.987   8.253  10.733
59442W        W24603  42.036  20.511   4.573
59443W        W24604  24.646  24.177  12.041
59444W        W24605  19.356  27.067  13.305
59445W        W24606  14.382  31.420   4.468
59446W        W24607   4.866  30.239  10.278
59447W        W24608  14.901  23.396   1.885
59448W        W24609  26.538  34.320  14.142
59449W        W24610  42.987   2.574   2.457
59450W        W24611  20.115   5.250  13.883
59451W        W24612  29.015   2.276   0.031
59452W        W24613  22.078  41.414   3.215
59453W        W24614   5.693  35.358   0.008
59454W        W24615   3.662   9.783   0.017
59455W        W24616  21.109   3.363   0.918
59456W        W24617  17.084   1.026  11.459
59457W        W24618  20.230  44.534  11.940
59458W        W24619  16.992  42.469   4.498
59459W        W24620  24.308   6.442  14.314
59460W        W24621  35.413  30.604  11.119
59461W        W24622   7.544  24.069  14.190
59462W        W24623  44.326  35.921   3.743
59463W        W24624  23.511  19.241  12.581
59464W        W24625  40.900  20.271   1.400
59465W        W24626  39.074  36.041  12.583
59466W        W24627   4.413  30.007   2.164
59467W        W24628  13.181  10.905   2.759
59468W        W24629  34.566  33.471   1.891
59469W        W24630   5.148   6.639   2.378
59470W        W24631  17.588  22.995   1.339
59471W        W24632   2.524   8.932   3.562
59472W        W24633   9.386  27.889  12.872
59473W        W24634  16.988  38.636   2.034
59474W        W24635  15.661  13.929   1.758
59475W        W24636   0.037  33.813   9.589
59476W        W24637  19.155  18.612   5.043
59477W        W24638  17.728  28.536   4.157
59478W        W24639   9.436   9.820   1.778
59479W        W24640  26.892  25.134  13.429
59480W        W24641  32.512  38.504  13.155
59481W        W24642  31.991  38.428  13.136
59482W        W24643   2.254  16.488  11.317
59483W        W24644  27.463  40.003  11.773
59484W        W24645  14.647  19.606   1.871
59485W        W24646   9.411  13.414  12.024
59486W        W24647  11.631  41.806  10.662
59487W        W24648  40.871  34.594   3.793
59488W        W24649  33.049  24.030   0.229
59489W        W24650  32.131   6.910   2.192
59490W        W24651  11.762  20.616  11.863
59491W        W24652  14.687  28.561  13.332
59492W        W24653  43.032  40.588  14.317
59493W        W24654  41.744  33.915  13.344
59494W        W24655  28.083   0.827  10.736
59495W        W24656  44.820   0.508  13.321
59496W        W24657  21.190   8.210  11.627
59497W        W24658  32.169  13.444  10.788
59498W        W24659  43.354  16.561   3.642
59499W        W24660  19.273  13.559   4.146
59500W        W24661   0.825   9.680  14.024
59501W        W24662  36.421  38.333   4.146
59502W        W24663  21.512  31.127   1.046
59503W        W24664  20.089  23.711   3.204
59504W        W24665  39.930  44.740  12.396
59505W        W24666  11.848  16.782  12.041
59506W        W24667  40.374   3.813  11.245
59507W        W24668  15.299  32.055  13.114
59508W        W24669  18.873  18.034  11.993
59509W        W24670  23.208   0.714   0.811
59510W        W24671  27.474  36.020   1.435
59511W        W24672  20.593   7.388   1.172
59512W        W24673  41.328  41.340   2.177
59513W        W24674  30.834  32.112  10.521
59514W        W24675  41.083  25.748   1.182
59515W        W24676  21.731   7.420  11.524
59516W        W24677  44.350  38.887   4.972
59517W        W24678  16.114  26.021   1.272
59518W        W24679   9.619  13.061   3.114
59519W        W24680  16.364   0.969  12.019
59520W        W24681  16.544  22.427   2.308
59521W        W24682  42.577   2.919   1.768
59522W        W24683   3.084   0.169  13.816
59523W        W24684   9.587  24.663  12.335
59524W        W24685  42.660  29.647  14.477
59525W        W24686  31.024   0.688   0.899
59526W        W24687   7.199  40.006   2.897
59527W        W24688  11.619  12.725   1.312
59528W        W24689   2.375  26.049  10.072
59529W        W24690  39.414  29.058   1.161
59530W        W24691  25.693  44.254   3.974
59531W        W24692   0.448  15.066   0.336
59532W        W24693  15.278  12.617  10.842
59533W        W24694  30.499  25.945   0.239
59534W        W24695  17.860  15.327   3.199
59535W        W24696  34.559   8.877   4.171
59536W        W24697  13.169  20.138   4.633
59537W        W24698  19.015  36.993  13.841
59538W        W24699  38.847  33.804  13.368
59539W        W24700   1.534   3.866   3.349
59540W        W24701  44.462  42.259  12.396
59541W        W24702  35.323  43.295   1.407
59542W        W24703  11.760  33.105   0.327
59543W        W24704  24.534  16.841   0.802
59544W        W24705  41.335   0.243   0.447
59545W        W24706  15.542  38.886  11.956
59546W        W24707  41.379  27.072  12.323
59547W        W24708  35.553   3.309  12.472
59548W        W24709  31.441  29.137   2.526
59549W        W24710  24.040  35.453  11.632
59550W        W24711  21.665  26.167   9.881
59551W        W24712  35.501   1.499  12.808
59552W        W24713   0.560   3.040  11.171
59553W        W24714  39.023  32.263  11.639
59554W        W24715  36.034  10.832   1.646
59555W        W24716   9.461  42.346  10.654
59556W        W24717  43.974  14.748  13.907
59557W        W24718  32.259  27.615   3.157
59558W        W24719   1.887  34.387   1.275
59559W        W24720  15.242  38.146  14.808
59560W        W24721  16.844   4.696  13.804
59561W        W24722  29.986  31.100  12.684
59562W        W24723   2.369   5.001  11.184
59563W        W24724  43.552   2.929   3.270
59564W        W24725  10.852  40.791   3.156
59565W        W24726  15.573  23.524   1.481
59566W        W24727   5.857  24.608  14.496
59567W        W24728  16.900  44.048  13.424
59568W        W24729  28.167  12.834  11.191
59569W        W24730  22.030   9.150   4.616
59570W        W24731   5.359  11.751   1.752
59571W        W24732  16.564  15.265   2.632
59572W        W24733  27.941   6.117  13.930
59573W        W24734   0.718  18.845  14.253
59574W        W24735  43.444  16.614   2.814
59575W        W24736  35.011   2.292  14.124
59576W        W24737  30.222  41.741   2.815
59577W        W24738  12.755  23.082   4.145
59578W        W24739  42.677  17.558  11.174
59579W        W24740  34.337  19.980  12.972
59580W        W24741  16.585  34.592  13.471
59581W        W24742  16.793   5.327  14.352
59582W        W24743  21.830  12.618   3.765
59583W        W24744  36.199   6.811   3.228
59584W        W24745  38.441  33.861  14.940
59585W        W24746  36.189   5.169  14.331
59586W        W24747  32.737  17.634   0.362
59587W        W24748  35.344  44.250   4.562
59588W        W24749  31.702  41.533   0.365
59589W        W24750  17.317  16.823   0.777
59590W        W24751  10.293  16.103  13.564
59591W        W24752  28.355  21.584  12.076
59592W        W24753   7.910  19.130  11.534
59593W        W24754   0.220  21.272  10.633
59594W        W24755  19.530  35.978  13.901
59595W        W24756   7.696  14.004  13.577
59596W        W24757  40.984  44.396   0.949
59597W        W24758  34.215  32.921   4.005
59598W        W24759  38.629  37.681  11.313
59599W        W24760   4.256  22.315   0.152
59600W        W24761   5.699  23.504   4.594
59601W        W24762  12.437  33.290  12.881
59602W        W24763   5.492  17.174  10.743
59603W        W24764   3.375  39.271  11.864
59604W        W24765  14.429  18.335   4.653
59605W        W24766  19.769  20.678   1.478
59606W        W24767  18.078  34.582  11.113
59607W        W24768  30.056   0.306  13.228
59608W        W24769  23.242   8.709   3.180
59609W        W24770  19.178   9.846  11.682
59610W        W24771   8.293   5.463  10.728
59611W        W24772   4.356   5.462  13.912
59612W        W24773  15.658  43.498  12.610
59613W        W24774  18.641  30.416   3.856
59614W        W24775  37.130  37.963   1.265
59615W        W24776  38.613  26.471  11.949
59616W        W24777  12.615   7.896   3.195
59617W        W24778  27.164  21.800  14.346
59618W        W24779  33.916  21.715   1.341
59619W        W24780   6.730  32.557   4.127
59620W        W24781  14.315  44.978   0.007
59621W        W24782   8.840  33.408  10.444
59622W        W24783  32.331  43.558   2.154
59623W        W24784  13.871  11.511  13.531
59624W        W24785  14.053  28.963   0.205
59625W        W24786  37.897   1.295   1.266
59626W        W24787   0.477  27.906   3.436
59627W        W24788  26.100   2.231   2.444
59628W        W24789  15.895  30.411  14.422
59629W        W24790  29.601   5.151  12.108
59630W        W24791  35.771   1.379   2.080
59631W        W24792   3.718   0.447  11.231
59632W        W24793  30.135  44.780   2.204
59633W        W24794  31.511   7.283   1.482
59634W        W24795  38.074  23.846   2.881
59635W        W24796  35.037  27.591   3.356
59636W        W24797  23.986   1.002   4.200
59637W        W24798   8.651  18.997   2.601
59638W        W24799  30.622  40.843  10.222
59639W        W24800   8.682  31.583   2.211
59640W        W24801  11.045  18.581  14.866
59641W        W24802  39.010  15.698   0.854
59642W        W24803  27.569  33.912   4.372
59643W        W24804  37.853  44.075  13.082
59644W        W24805   6.340  32.529  11.186
59645W        W24806   5.870  24.600  10.673
59646W        W24807  42.549  18.078  13.019
59647W        W24808  38.019  30.461   3.187
59648W        W24809   9.769  28.110   2.901
59649W        W24810  17.861  35.698  13.297
59650W        W24811   8.414  36.424  12.504
59651W        W24812  43.854  34.587  11.026
59652W        W24813  12.249  14.727  10.762
59653W        W24814  35.424  14.850  14.153
59654W        W24815   4.792  17.573   1.924
59655W        W24816   8.515  44.296   4.179
59656W        W24817  24.189  23.896  12.114
59657W        W24818  33.557   9.868   1.293
59658W        W24819  11.431  25.454  11.624
59659W        W24820  42.308  35.970  10.485
59660W        W24821  10.894  10.580  12.067
59661W        W24822  44.992   9.904  11.475
59662W        W24823  18.576  14.796   0.448
59663W        W24824   9.682  25.272   0.512
59664W        W24825  36.801  41.576   4.009
59665W        W24826   3.377  37.041  10.494
59666W        W24827  26.408  21.618   1.395
59667W        W24828  30.032  44.689   4.588
59668W        W24829  15.272  42.564   0.277
59669W        W24830  24.541   3.366  13.165
59670W        W24831  27.557  26.074  10.716
59671W        W24832   7.269  29.630  10.885
59672W        W24833  13.589  37.769  12.178
59673W        W24834  37.925  22.730  11.493
59674W        W24835  20.043   6.123  12.395
59675W        W24836   2.349   1.592  14.882
59676W        W24837  10.887  23.001  13.492
59677W        W24838  32.128   8.170  11.715
59678W        W24839  25.065   8.737  11.620
59679W        W24840  19.946  41.411  13.912
59680W        W24841  42.876  25.963  12.471
59681W        W24842  40.012  17.049  11.661
59682W        W24843  15.886   5.325   4.491
59683W        W24844   3.452  44.803   4.159
59684W        W24845   7.774  12.788   3.312
59685W        W24846  41.960  24.432  12.570
59686W        W24847  15.880  37.694   5.041
59687W        W24848   3.402  12.344   0.936
59688W        W24849  15.806  24.612   4.276
59689W        W24850   9.414   3.816  14.358
59690W        W24851  38.412  42.829  11.543
59691W        W24852   9.725  20.392   3.967
59692W        W24853  42.496   8.744  11.397
59693W        W24854  21.293  25.001  12.981
59694W        W24855  13.879  13.518  10.679
59695W        W24856  12.610  26.585  10.790
59696W        W24857  36.399  14.761   2.484
59697W        W24858  11.321   5.408   3.932
59698W        W24859   4.919  27.496   2.143
59699W        W24860   9.837   6.861   1.761
59700W        W24861  13.276  37.236   2.866
59701W        W24862  24.530   3.331  14.503
59702W        W24863  14.352  37.024  14.038
59703W        W24864  25.511  41.765  10.673
59704W        W24865  12.282  44.753   1.675
59705W        W24866  23.480  25.756  11.483
59706W        W24867  40.685  41.866   1.040
59707W        W24868   4.188  10.878   1.801
59708W        W24869  36.522  28.176  13.186
59709W        W24870  28.232  22.254   4.474
59710W        W24871  34.595  26.058  12.428
59711W        W24872  30.730  44.176   4.207
59712W        W24873  36.203  16.002  10.314
59713W        W24874  29.026  38.191  13.872
59714W        W24875  11.793   6.700   1.544
59715W        W24876   3.849  26.093   3.358
59716W        W24877  22.251  16.644   4.158
59717W        W24878   8.823  24.772   0.238
59718W        W24879  19.601  25.107  13.348
59719W        W24880  40.493  23.185   4.557
59720W        W24881  29.113  13.098  13.696
59721W        W24882  12.913  39.373  12.881
59722W        W24883  38.515  33.795  12.178
59723W        W24884  31.032   2.395  13.965
59724W        W24885  30.438  36.527  10.807
59725W        W24886   7.975  39.047   9.941
59726W        W24887  35.249  20.355   4.071
59727W        W24888  43.281  40.344   3.326
59728W        W24889   1.887  40.301  12.627
59729W        W24890  15.799  37.986  11.138
59730W        W24891   7.158  23.072  13.084
59731W        W24892  23.581   8.619   0.877
59732W        W24893  26.127  44.973  13.425
59733W        W24894  27.986  20.263   0.339
59734W        W24895  21.556  14.560  12.111
59735W        W24896   4.698  19.146   1.533
59736W        W24897  24.976   6.686   4.144
59737W        W24898  38.491  35.324   3.684
59738W        W24899   2.273  13.860  12.821
59739W        W24900  19.036  15.689  14.492
59740W        W24901   6.735  40.896  10.709
59741W        W24902  19.496  34.030   1.873
59742W        W24903  10.787  23.643  14.075
59743W        W24904   7.350  31.416   3.713
59744W        W24905  20.197  26.991   0.656
59745W        W24906  20.773   4.885  11.465
59746W        W24907  12.388  40.217  10.616
59747W        W24908  12.163  18.326   1.790
59748W        W24909   0.882   2.389   2.775
59749W        W24910  30.256  25.132   2.743
59750W        W24911  19.070   6.539   1.397
59751W        W24912  12.125  30.160   3.601
59752W        W24913  43.265   6.832   0.132
59753W        W24914   2.238  11.838  10.719
59754W        W24915  19.500  37.142  12.933
59755W        W24916  25.148  43.032  11.157
59756W        W24917  12.558  32.936  11.977
59757W        W24918  32.540   0.015   0.880
59758W        W24919  41.397  13.421   1.705
59759W        W24920  22.172   7.330  14.751
59760W        W24921  12.890  31.798   4.970
59761W        W24922  24.128  25.166  11.281
59762W        W24923  43.291  32.385  12.303
59763W        W24924  40.625  34.064  12.545
59764W        W24925  18.603  34.612   4.144
59765W        W24926  24.728  36.903   0.025
59766W        W24927   2.132   5.357   2.428
59767W        W24928  28.018   4.986   3.704
59768W        W24929  13.375  38.182   1.844
59769W        W24930  17.624  19.190  12.318
59770W        W24931  34.600  33.529  12.592
59771W        W24932  21.944  16.729  11.390
59772W        W24933  30.905  16.118  13.430
59773W        W24934  35.932  30.914  13.387
59774W        W24935   3.315  31.631  14.946
59775W        W24936  37.385  38.651   4.978
59776W        W24937  41.959  26.759   3.151
59777W        W24938  30.509  44.994  12.798
59778W        W24939   1.937  28.116   3.223
59779W        W24940  23.642   1.916   4.898
59780W        W24941  41.976  21.027  12.543
59781W        W24942  29.342  43.126  11.048
59782W        W24943   7.381   0.821  14.974
59783W        W24944  12.737  10.556   1.861
59784W        W24945  13.242  24.076  14.124
59785W        W24946  34.699  23.294   3.696
59786W        W24947   3.377  16.125  12.333
59787W        W24948   2.435  21.243   3.054
59788W        W24949  17.669  26.462   1.161
59789W        W24950  10.571  12.144   1.764
59790W        W24951  36.042  35.073  12.011
59791W        W24952  37.140   8.306  11.476
59792W        W24953  25.731  41.718  14.584
59793W        W24954  19.674  40.913   0.803
59794W        W24955  34.404  36.280  13.097
59795W        W24956  41.098   6.020  12.484
59796W        W24957  23.653  34.843   0.951
59797W        W24958  44.404  40.038   1.437
59798W        W24959   0.042  43.769  13.983
59799W        W24960  41.960  13.511  11.111
59800W        W24961  34.634  21.768  12.082
59801W        W24962   2.522  41.736  14.354
59802W        W24963  32.441   9.821   4.012
59803W        W24964  15.603   4.696   0.485
59804W        W24965  18.555  28.055   4.095
59805W        W24966  14.570  22.964   0.994
59806W        W24967  24.428   1.255  13.018
59807W        W24968   5.545   4.408   2.018
59808W        W24969   4.737  37.893  11.042
59809W        W24970   8.685  38.504  10.860
59810W        W24971   7.856  11.827   1.440
59811W        W24972   6.411  15.919  10.618
59812W        W24973  15.332  33.888   3.636
59813W        W24974  30.439  16.310  13.565
59814W        W24975   4.494  12.262   4.881
59815W        W24976   8.684  24.575  10.322
59816W        W24977  32.873   2.911  13.386
59817W        W24978  35.173  21.808  11.034
59818W        W24979  44.320  31.664   2.472
59819W        W24980  35.718  43.503   1.717
59820W        W24981  40.882   4.283  13.616
59821W        W24982  21.037  30.055  14.985
59822W        W24983  18.873  37.087   3.654
59823W        W24984  32.047   5.611  13.435
59824W        W24985  33.472  26.619   1.396
59825W        W24986   3.248  43.985  11.584
59826W        W24987   6.984  33.537   4.078
59827W        W24988  16.494   1.370  14.276
59828W        W24989  16.899  40.420   2.744
59829W        W24990  21.732  10.025  10.420
59830W        W24991   4.207  34.186   2.651
59831W        W24992   1.629  37.368  14.897
59832W        W24993  17.267  44.283   4.536
59833W        W24994  38.817   4.438  14.602
59834W        W24995  14.702  14.185   0.523
59835W        W24996  39.245  21.245   5.097
59836W        W24997  31.385   7.737  14.949
59837W        W24998  10.630  37.865  14.374
59838W        W24999   4.902  21.223   2.841
59839W        W25000  25.062   5.695  14.966
59840W        W25001  23.332  27.687  13.409
59841W        W25002  19.938  19.336  10.562
59842W        W25003   0.407   8.775   1.929
59843W        W25004   7.770   3.024   4.108
59844W        W25005  23.537  26.451   0.169
59845W        W25006   9.789  13.341   3.536
59846W        W25007  25.707  39.512   3.191
59847W        W25008  37.169  27.670   4.281
59848W        W25009  13.597  11.021   3.091
59849W        W25010   4.203   5.702   1.841
59850W        W25011  21.362  12.087  11.958
59851W        W25012  42.447  14.849  13.512
59852W        W25013  15.693  17.263   5.278
59853W        W25014   0.720  43.941   0.862
59854W        W25015  11.116  39.609  13.393
59855W        W25016  26.599  29.759  10.607
59856W        W25017  25.969  39.330   0.191
59857W        W25018  26.134  21.675   0.946
59858W        W25019  32.758  40.563  10.407
59859W        W25020  22.617  22.551   2.459
59860W        W25021  15.651  38.725   3.247
59861W        W25022  26.184  15.474   4.455
59862W        W25023  23.249  37.817   3.785
59863W        W25024  19.352  40.711   4.753
59864W        W25025  38.610  21.245   1.819
59865W        W25026  40.897   2.047   3.616
59866W        W25027   4.301  32.913  11.599
59867W        W25028  37.292  42.297  11.116
59868W        W25029   8.346  16.620  13.842
59869W        W25030   6.940  34.030  11.448
59870W        W25031   1.493  11.765   4.541
59871W        W25032  32.004   4.846   2.489
59872W        W25033  34.421  24.522  10.675
59873W        W25034  39.487   5.211   2.668
59874W        W25035  25.207  22.154  11.657
59875W        W25036  33.335   3.250   2.090
59876W        W25037   4.107  19.363  10.284
59877W        W25038   7.333  14.994   1.496
59878W        W25039  24.755  26.676  11.530
59879W        W25040  29.535  21.742  13.808
59880W        W25041  36.986  12.758  12.508
59881W        W25042  30.889  43.865   3.667
59882W        W25043  14.021  12.912   1.441
59883W        W25044  11.350  35.908   3.660
59884W        W25045  11.272   7.193  10.746
59885W        W25046  11.204  25.107   4.543
59886W        W25047  31.565  12.082   2.806
59887W        W25048  29.979   2.958   3.774
59888W        W25049  31.581   6.925   3.314
59889W        W25050  16.529  17.121  12.058
59890W        W25051  26.022  44.968   1.737
59891W        W25052  43.463  42.656   2.245
59892W        W25053  37.965   9.499   3.040
59893W        W25054  11.280  33.034   0.180
59894W        W25055  30.559  30.960   4.464
59895W        W25056  21.570  40.014   3.204
59896W        W25057  29.310  29.150  11.085
59897W        W25058  22.317  42.341   4.135
59898W        W25059  15.573  44.880  12.868
59899W        W25060  36.558  27.651   0.104
59900W        W25061  34.954   9.582   0.454
59901W        W25062  31.921  39.063  13.741
59902W        W25063   3.961  23.470  10.495
59903W        W25064   9.872  28.925  13.783
59904W        W25065  20.687  43.947   3.737
59905W        W25066  34.137  26.696   1.749
59906W        W25067  27.094  28.044   0.222
59907W        W25068   0.220   3.861  13.517
59908W        W25069  22.208  32.358   0.127
59909W        W25070  18.742  41.203  14.897
59910W        W25071   1.594  11.591   1.906
59911W        W25072  19.063  40.517   3.837
59912W        W25073   1.979  20.375   3.208
59913W        W25074  24.515  31.977   1.640
59914W        W25075  13.627  10.481   0.925
59915W        W25076  44.729  32.802   2.232
59916W        W25077  40.415  42.967   1.968
59917W        W25078  14.210  10.667   4.332
59918W        W25079  28.882  24.161  12.638
59919W        W25080  39.269   9.504   0.170
59920W        W25081  31.389  42.960  12.891
59921W        W25082  13.786   7.909   0.944
59922W        W25083  20.539  23.794  12.368
59923W        W25084  19.064  31.386  12.216
59924W        W25085  38.558  41.341   2.221
59925W        W25086  13.321  33.716   4.187
59926W        W25087  20.974   5.403   4.954
59927W        W25088   1.191   4.183   0.484
59928W        W25089  33.922  31.570   0.057
59929W        W25090  36.876  32.660  11.566
59930W        W25091  37.359  28.182  11.091
59931W        W25092  14.151   3.312  14.282
59932W        W25093  37.604  12.748  11.941
59933W        W25094  42.529  19.324   2.703
59934W        W25095  37.363  28.440   3.384
59935W        W25096   5.771  16.089  14.023
59936W        W25097  35.804  31.476  12.507
59937W        W25098  34.006   7.885  10.642
59938W        W25099  36.280  25.230   5.213
59939W        W25100   4.306   3.187  14.470
59940W        W25101  11.781  31.730   1.254
59941W        W25102  24.920  38.087  12.865
59942W        W25103  12.726  20.614  14.979
59943W        W25104  43.716  16.069   2.389
59944W        W25105   1.159  33.794  10.369
59945W        W25106   5.005   5.303  13.285
59946W        W25107   7.726  28.750   2.296
59947W        W25108   5.732  29.544   4.136
59948W        W25109  13.452   6.575   0.777
59949W        W25110  41.707  33.832   2.817
59950W        W25111  37.521  11.116   2.895
59951W        W25112  26.879  10.590   2.800
59952W        W25113   1.857  21.700  10.706
59953W        W25114  28.257   8.291   1.180
59954W        W25115  38.934  15.337  11.096
59955W        W25116  11.673  30.692   3.219
59956W        W25117  23.093  19.284   4.582
59957W        W25118  10.204   2.273  10.730
59958W        W25119  26.165  12.366   1.903
59959W        W25120  15.244   2.841   4.940
59960W        W25121  16.090  17.475  11.430
59961W        W25122  38.452  32.870   3.700
59962W        W25123  35.619  15.292  14.375
59963W        W25124  16.274  38.533   5.185
59964W        W25125  16.368  26.907   0.394
59965W        W25126  40.260  14.724   2.474
59966W        W25127  23.456  26.623   2.317
59967W        W25128  39.276  43.709   4.054
59968W        W25129   3.366  21.145  12.074
59969W        W25130  27.644  23.250  11.050
59970W        W25131   8.680   5.959   4.186
59971W        W25132   0.732  12.038  12.976
59972W        W25133  25.075  44.891   3.744
59973W        W25134  22.520  12.097  10.935
59974W        W25135  10.197  43.195   3.904
59975W        W25136  13.250   2.917   1.809
59976W        W25137  11.237   7.033  11.749
59977W        W25138  29.467  41.970   0.516
59978W        W25139  25.560  30.262   1.956
59979W        W25140  35.803  41.429   2.911
59980W        W25141   5.877  14.295  11.656
59981W        W25142   8.999   4.459  11.601
59982W        W25143  36.335   3.765  12.428
59983W        W25144  15.499   1.189   1.634
59984W        W25145  32.141  36.970   2.908
59985W        W25146  31.546   1.998   0.925
59986W        W25147   9.490  30.045  12.657
59987W        W25148  15.712  38.494   1.492
59988W        W25149  25.715  12.721  13.022
59989W        W25150  11.691  29.416  14.554
59990W        W25151  17.229   3.185   3.715
59991W        W25152   2.392  29.148   2.706
59992W        W25153  13.340   3.831   1.331
59993W        W25154  28.526  37.472  14.800
59994W        W25155  11.119  29.156  11.612
59995W        W25156  33.209  11.511  13.353
59996W        W25157  27.812  26.246   4.590
59997W        W25158   0.497  34.173   0.357
59998W        W25159  34.577  14.616  12.016
59999W        W25160  43.469  21.207  10.318
60000W        W25161  16.855   6.605   4.502
60001W        W25162  14.932   3.004  14.062
60002W        W25163  11.861  42.447   0.808
60003W        W25164  20.185  38.771   4.573
60004W        W25165  24.778   3.030   3.332
60005W        W25166   2.621  36.564  13.071
60006W        W25167  12.348  35.341  14.713
60007W        W25168  41.965   3.049  10.656
60008W        W25169  44.591   9.304   4.093
60009W        W25170   7.974   8.560   1.276
60010W        W25171  38.926   5.571  14.031
60011W        W25172  28.600  15.267   4.252
60012W        W25173  12.847  25.700   4.163
60013W        W25174  31.994  29.283  10.270
60014W        W25175  20.038  37.542   0.551
60015W        W25176   7.633  27.915   2.833
60016W        W25177  40.853  40.253   1.694
60017W        W25178  11.190  22.018   1.346
60018W        W25179  42.432  14.088   3.168
60019W        W25180  29.107  38.329  12.457
60020W        W25181  39.818  37.560   1.778
60021W        W25182  25.134  33.656   4.299
60022W        W25183  44.461  15.266   3.233
60023W        W25184  40.833  43.917   1.850
60024W        W25185  34.468  24.164   1.883
60025W        W25186   6.582  16.625  12.347
60026W        W25187   3.817   4.993   1.342
60027W        W25188  38.597   1.891   3.613
60028W        W25189  40.440  15.621   0.812
60029W        W25190  15.810  24.090  14.528
60030W        W25191  36.118   1.541   2.683
60031W        W25192   8.276  33.894  14.411
60032W        W25193  16.028  14.748   0.488
60033W        W25194   6.721  32.596   0.492
60034W        W25195  41.005  16.711   4.116
60035W        W25196   3.931   3.890   0.198
60036W        W25197  38.859  40.073  10.206
60037W        W25198  41.889  28.246   4.223
60038W        W25199  18.190  28.995   3.227
60039W        W25200  12.566  41.851  14.181
60040W        W25201  15.492  29.134  11.271
60041W        W25202  31.046  30.086  11.102
60042W        W25203   9.955   2.219   2.299
60043W        W25204  18.788  30.071   0.057
60044W        W25205  23.831  12.297   1.381
60045W        W25206  10.241  11.273  14.280
60046W        W25207  11.764   5.840   2.782
60047W        W25208   7.679  44.968  14.419
60048W        W25209  15.328  24.486   1.259
60049W        W25210  36.925  22.479   3.995
60050W        W25211   5.875  17.266   3.135
60051W        W25212  36.020   7.254   4.153
60052W        W25213   7.821  31.583   2.878
60053W        W25214  26.286  13.296   0.832
60054W        W25215  14.874  21.248  10.212
60055W        W25216  11.241  21.510   2.939
60056W        W25217  40.492  34.828  13.051
60057W        W25218  11.581  42.138  13.474
60058W        W25219  37.412  22.536   3.306
60059W        W25220  41.982  10.602  12.537
60060W        W25221  29.158  39.284  11.513
60061W        W25222  27.596  36.838  11.094
60062W        W25223  29.182  41.772   1.692
60063W        W25224  27.922  36.364   1.196
60064W        W25225  43.646  41.279   5.067
60065W        W25226  26.179  27.006  13.529
60066W        W25227   5.661  10.643  12.781
60067W        W25228   4.373  26.774   2.667
60068W        W25229  19.055   7.152  13.649
60069W        W25230  21.035  18.100  14.352
60070W        W25231  41.933   0.417  13.322
60071W        W25232  27.883   8.467  11.527
60072W        W25233  23.728  43.017  11.986
60073W        W25234   0.465  10.039  14.312
60074W        W25235  11.782  25.798   4.593
60075W        W25236  28.623  10.582  11.188
60076W        W25237  32.109   4.355   2.405
60077W        W25238  39.823  14.493   3.692
60078W        W25239  17.122   2.009   0.284
60079W        W25240  25.552  21.947   0.776
60080W        W25241  18.658  11.702   4.534
60081W        W25242  26.915  40.729   3.714
60082W        W25243   9.273  34.066   3.168
60083W        W25244   5.314   6.917  12.674
60084W        W25245  37.231  35.324  11.109
60085W        W25246  21.684   6.458  12.991
60086W        W25247  43.724  37.509  13.675
60087W        W25248  36.524  30.002   1.872
60088W        W25249  37.036  18.760   2.495
60089W        W25250  29.396  16.952   2.842
60090W        W25251  16.682   3.926  12.058
60091W        W25252   1.764  28.397  13.928
60092W        W25253  39.713   5.302   4.079
60093W        W25254  44.012   6.322   0.398
60094W        W25255  23.708  11.352   2.672
60095W        W25256  19.871   8.428   5.065
60096W        W25257   0.006  11.689  12.913
60097W        W25258  23.353  33.379   3.866
60098W        W25259  14.224   9.262  13.303
60099W        W25260  26.475  43.113  14.047
60100W        W25261  10.301   4.261  14.403
60101W        W25262  23.244  17.550  14.757
60102W        W25263  32.612  36.424   2.157
60103W        W25264  21.799  14.828  11.760
60104W        W25265  23.138  25.520   3.333
60105W        W25266  39.349  34.781  14.753
60106W        W25267  43.937  34.207  12.579
60107W        W25268  43.787  29.878  14.325
60108W        W25269  42.400  35.793  12.797
60109W        W25270  15.777  20.211   0.951
60110W        W25271  29.694  37.415   0.925
60111W        W25272   3.816  21.619  12.531
60112W        W25273  13.233  39.825  10.008
60113W        W25274  31.952  12.030   0.581
60114W        W25275  13.688   0.818   1.482
60115W        W25276  41.964  32.545  14.416
60116W        W25277   4.703   1.708   4.627
60117W        W25278  28.231   0.499  12.018
60118W        W25279  13.644  34.627   0.554
60119W        W25280  26.776  16.188   3.738
60120W        W25281   8.229  19.989   1.777
60121W        W25282  26.890  39.088  14.802
60122W        W25283  14.718  39.041  14.802
60123W        W25284  38.535  44.021   0.290
60124W        W25285  19.017  38.205  12.369
60125W        W25286  39.281  31.925   1.903
60126W        W25287  24.965  41.031   2.728
60127W        W25288  16.699  10.168  11.575
60128W        W25289  24.202  12.994  12.871
60129W        W25290  12.685  44.527   0.628
60130W        W25291  38.509  30.136  14.505
60131W        W25292  10.365  17.969   0.044
60132W        W25293  43.446  15.528   0.834
60133W        W25294  13.468  29.686   0.390
60134W        W25295   9.426  41.816  14.402
60135W        W25296   2.918  26.174  13.817
60136W        W25297   0.791  39.624   2.427
60137W        W25298  21.865  38.558   1.070
60138W        W25299  43.692   6.770   2.384
60139W        W25300  19.207  27.210  12.039
60140W        W25301  28.653  10.626   1.417
60141W        W25302  39.946  10.135  13.294
60142W        W25303  42.540  34.885   0.845
60143W        W25304   2.240  41.778  11.126
60144W        W25305  37.804  13.294   1.681
60145W        W25306   3.321  30.632  14.831
60146W        W25307  33.534  42.444   4.561
60147W        W25308  18.893  41.946  11.521
60148W        W25309  37.433  44.779  13.004
60149W        W25310  35.589  14.237   2.795
60150W        W25311   3.049  15.130  11.396
60151W        W25312   5.158  22.123  13.482
60152W        W25313  37.279  14.596  13.971
60153W        W25314  21.580  30.460   0.412
60154W        W25315  23.912  25.475  12.568
60155W        W25316  34.740  44.552  14.392
60156W        W25317  36.088   3.447   0.814
60157W        W25318  22.061   3.265  13.447
60158W        W25319  25.731  14.148  12.997
60159W        W25320  42.130  14.295  13.775
60160W        W25321   6.680  19.211  11.983
60161W        W25322   7.248  29.168   3.116
60162W        W25323  28.158  33.063   4.153
60163W        W25324  34.483  19.987   0.486
60164W        W25325   9.954   1.658  13.818
60165W        W25326  31.688   5.384   4.064
60166W        W25327  20.076  44.080  13.321
60167W        W25328  13.827  24.986  12.568
60168W        W25329  38.391   5.388  14.018
60169W        W25330  27.481   0.697  12.427
60170W        W25331  43.978   3.335  11.196
60171W        W25332  30.267  18.253  12.403
60172W        W25333  39.904  30.451  13.784
60173W        W25334  35.735  12.145   2.332
60174W        W25335  14.166  37.362   5.142
60175W        W25336  21.121  35.415   4.030
60176W        W25337  18.643   2.436   2.226
60177W        W25338  32.036  42.783  12.434
60178W        W25339  29.950  15.657  14.750
60179W        W25340  16.605  14.587  12.026
60180W        W25341  25.958  44.449  13.024
60181W        W25342  25.563  26.774  11.997
60182W        W25343  30.169  36.391   0.900
60183W        W25344  16.076  27.596   3.114
60184W        W25345   7.411  19.762   2.652
60185W        W25346  39.003  35.574   3.527
60186W        W25347  33.328  19.706   3.138
60187W        W25348   3.748  43.088   0.754
60188W        W25349  26.697  42.308  14.369
60189W        W25350  26.791  30.143   4.584
60190W        W25351  41.962   7.287  10.128
60191W        W25352   6.344  20.258  14.500
60192W        W25353  16.323  31.029   3.192
60193W        W25354  10.541  24.379   2.781
60194W        W25355   7.573  20.740  13.392
60195W        W25356   3.459  44.276  12.460
60196W        W25357  24.551  38.264  12.555
60197W        W25358  43.927   2.465  13.793
60198W        W25359  26.579  11.928  14.993
60199W        W25360  24.865  26.222   4.156
60200W        W25361   8.003  39.001  12.179
60201W        W25362   5.370  29.711   1.891
60202W        W25363  10.197  38.296  12.920
60203W        W25364  17.604  10.492   1.832
60204W        W25365  44.529   9.290  11.900
60205W        W25366   0.919  19.657   4.959
60206W        W25367   1.403   0.271  14.271
60207W        W25368  31.208  21.456  12.585
60208W        W25369   8.868  40.720   0.978
60209W        W25370  15.243  29.461  13.983
60210W        W25371  39.302   6.415  11.581
60211W        W25372   5.818  42.982  14.125
60212W        W25373  17.662  20.348   4.218
60213W        W25374  14.925  21.624  10.567
60214W        W25375  12.060  10.333   3.959
60215W        W25376  21.391   4.417  12.842
60216W        W25377   8.711   3.881  13.316
60217W        W25378  30.358  38.958   9.722
60218W        W25379  11.284  15.667  13.404
60219W        W25380  42.145  12.436  13.957
60220W        W25381  12.469   6.265   3.665
60221W        W25382  43.977  36.874   3.096
60222W        W25383   6.722   7.064   3.889
60223W        W25384   2.509  40.498   3.899
60224W        W25385   8.634  29.976  11.575
60225W        W25386   0.943   1.058   4.168
60226W        W25387  16.770   9.650  14.388
60227W        W25388  24.375   8.881   0.010
60228W        W25389  10.774   1.977  14.355
60229W        W25390  44.277   3.543  11.587
60230W        W25391  24.789  31.249   4.874
60231W        W25392  26.393  22.045  13.041
60232W        W25393  18.611  40.694  14.974
60233W        W25394  13.528  35.097  11.175
60234W        W25395  42.789   3.735  11.671
60235W        W25396  24.432  11.588   1.282
60236W        W25397  34.441  23.950   1.421
60237W        W25398  14.130   4.877  12.053
60238W        W25399  40.344  11.620  11.540
60239W        W25400  33.050  22.695  11.740
60240W        W25401   2.514  27.199   0.300
60241W        W25402  35.181  32.156  11.138
60242W        W25403  10.900  25.166   4.120
60243W        W25404   9.892  10.189  12.120
60244W        W25405  35.553  11.172   3.124
60245W        W25406  21.305   2.947  12.950
60246W        W25407  28.100  31.694  13.346
60247W        W25408   8.729  23.436   4.110
60248W        W25409  38.135   2.729  11.200
60249W        W25410  35.032  22.532  13.967
60250W        W25411  33.246  29.142   1.232
60251W        W25412  30.746  29.001  12.556
60252W        W25413  13.759  19.028  11.857
60253W        W25414   7.902  30.146   1.407
60254W        W25415  24.192  22.740   2.900
60255W        W25416  19.560  42.506   3.044
60256W        W25417  39.001  39.375  11.305
60257W        W25418  23.454  21.116  11.109
60258W        W25419   5.669  40.112  13.944
60259W        W25420   6.963  35.902   0.847
60260W        W25421   8.754  30.011   1.692
60261W        W25422   9.910   5.604   1.152
60262W        W25423   3.976  42.936  12.844
60263W        W25424   8.077   5.452   2.712
60264W        W25425  34.030   7.795  14.759
60265W        W25426  34.662  34.502   2.776
60266W        W25427   3.980   1.360   4.235
60267W        W25428  44.126  12.705   0.315
60268W        W25429  19.625   3.801   4.380
60269W        W25430   3.306  35.989  13.456
60270W        W25431  41.922  23.408  14.520
60271W        W25432  22.389  28.146  14.848
60272W        W25433  20.532  34.162   3.871
60273W        W25434  37.338  21.760  14.486
60274W        W25435  30.965  23.623   3.468
60275W        W25436  33.508  43.541   3.920
60276W        W25437  44.662  20.221   0.545
60277W        W25438  15.324  28.495   3.410
60278W        W25439  29.290  14.816  11.086
60279W        W25440  31.056  34.210   4.254
60280W        W25441  21.584   0.950   1.272
60281W        W25442  29.853  28.493   3.639
60282W        W25443  19.601  39.318  13.854
60283W        W25444  25.752   4.313  13.059
60284W        W25445  43.422  36.615  14.076
60285W        W25446  34.648   1.964   4.209
60286W        W25447   9.817  14.576   3.607
60287W        W25448   6.105  18.406  12.284
60288W        W25449  32.993  28.218  11.225
60289W        W25450  35.989  40.494   5.016
60290W        W25451  36.258  41.700   3.794
60291W        W25452  40.803   7.956   2.357
60292W        W25453  12.944   5.463  11.982
60293W        W25454  33.117   0.464  13.370
60294W        W25455  32.117  33.609   2.262
60295W        W25456   8.676  20.757   0.419
60296W        W25457  37.355  41.424  12.078
60297W        W25458  24.044  22.928  12.744
60298W        W25459   4.559  25.130  14.005
60299W        W25460  16.343  44.307   1.197
60300W        W25461   6.658  39.588   1.092
60301W        W25462  24.302   2.585   0.268
60302W        W25463   3.350  42.710   3.120
60303W        W25464  37.814  22.482  12.123
60304W        W25465   8.865   6.139  13.116
60305W        W25466  29.838  13.876  14.328
60306W        W25467  43.848   8.365  14.438
60307W        W25468  20.036   4.213   2.289
60308W        W25469  20.549  27.757  13.104
60309W        W25470  43.791   4.666  10.425
60310W        W25471   7.791  18.409  12.019
60311W        W25472  33.480   3.574   3.669
60312W        W25473  28.519   2.970  12.873
60313W        W25474   3.915   0.351   1.999
60314W        W25475  26.576  15.020  11.584
60315W        W25476  43.229  42.124   2.120
60316W        W25477   3.945  28.153  11.527
60317W        W25478   3.882  40.365  14.447
60318W        W25479   8.682  32.295  13.892
60319W        W25480   2.054   3.911   1.373
60320W        W25481  38.421  35.426  14.449
60321W        W25482  36.343  39.303  13.554
60322W        W25483  35.661   1.352  10.891
60323W        W25484  34.114  44.317   0.172
60324W        W25485   3.872  29.515  11.007
60325W        W25486  11.299  30.693  12.287
60326W        W25487  31.549  18.793  12.568
60327W        W25488  32.973   5.203  11.561
60328W        W25489  24.098   1.661   4.951
60329W        W25490   5.719  28.621  12.450
60330W        W25491  41.386  24.014  10.756
60331W        W25492  16.514  42.409   2.734
60332W        W25493   7.370  26.926   2.667
60333W        W25494   3.741  41.475  10.715
60334W        W25495   8.128  43.787  11.744
60335W        W25496  43.270  17.206   1.790
60336W        W25497  42.280  34.401   4.076
60337W        W25498  42.006  24.578   0.210
60338W        W25499  22.013  11.220   3.752
60339W        W25500  41.401  38.993   0.768
60340W        W25501  39.905  20.027  10.742
60341W        W25502  12.426   9.793  14.115
60342W        W25503  12.235  17.777  14.059
60343W        W25504  27.147  16.543   1.669
60344W        W25505  19.102   2.630   2.431
60345W        W25506   5.255   0.574  12.395
60346W        W25507  24.634  33.768  13.728
60347W        W25508  12.252   7.341   0.535
60348W        W25509  29.473   6.891  13.911
60349W        W25510  31.380   8.487  12.666
60350W        W25511  39.132  40.832  12.751
60351W        W25512  30.253   0.135   0.984
60352W        W25513  44.947  22.272  12.197
60353W        W25514  41.058   6.940   4.869
60354W        W25515   6.696  41.416  13.377
60355W        W25516  44.829  38.995  13.641
60356W        W25517  25.389  19.775  12.315
60357W        W25518  35.836  34.842   4.783
60358W        W25519  37.391  16.028   1.195
60359W        W25520  30.903  40.871  11.470
60360W        W25521  14.093   7.225   2.704
60361W        W25522  30.961  44.794   0.334
60362W        W25523  40.561  21.214   3.539
60363W        W25524   1.881   9.407  11.091
60364W        W25525  36.450  14.024  13.920
60365W        W25526  41.546  26.769  14.381
60366W        W25527  40.581  19.946   1.150
60367W        W25528  16.974  41.475  13.890
60368W        W25529  13.759  35.973  13.670
60369W        W25530   9.355  39.556   2.401
60370W        W25531   8.625   4.740   4.528
60371W        W25532  24.706  21.121  12.004
60372W        W25533  34.065   7.811  11.138
60373W        W25534  43.394  26.579   2.952
60374W        W25535  17.230  10.617  12.665
60375W        W25536  28.371  11.771  11.543
60376W        W25537  36.022  22.238   1.942
60377W        W25538  35.847  43.415  12.925
60378W        W25539   0.466  39.854  12.379
60379W        W25540  17.015  17.342   3.063
60380W        W25541  11.876  42.477   1.694
60381W        W25542  23.353  21.552   4.024
60382W        W25543  14.808  14.125   3.714
60383W        W25544  10.271   8.666  12.580
60384W        W25545  38.841  28.693  13.277
60385W        W25546  26.161  11.854   4.068
60386W        W25547  28.473  15.232  12.064
60387W        W25548  15.813  36.569   4.239
60388W        W25549  31.917   9.811  14.355
60389W        W25550  18.983  14.288  12.965
60390W        W25551  22.717  24.714  14.819
60391W        W25552  13.154  21.252  11.877
60392W        W25553  34.441  19.268   4.548
60393W        W25554  10.523  12.247   9.998
60394W        W25555  13.772   1.859  11.199
60395W        W25556  42.599  34.550   0.432
60396W        W25557  21.556  27.587  11.899
60397W        W25558  32.013   5.113  13.523
60398W        W25559  17.005   3.308   4.975
60399W        W25560  13.549   6.902  14.307
60400W        W25561  26.455  20.995  10.714
60401W        W25562  11.312   9.173  10.508
60402W        W25563  44.250   8.635  13.108
60403W        W25564   2.079  21.158   2.670
60404W        W25565   6.791  30.651  13.016
60405W        W25566   8.227  27.899   1.015
60406W        W25567  42.667  33.653   2.567
60407W        W25568  14.207  30.970   1.289
60408W        W25569  21.987  26.674   0.370
60409W        W25570  41.770  16.808  11.621
60410W        W25571  27.160  16.823   2.126
60411W        W25572   4.700  12.585   2.686
60412W        W25573  21.935  25.881   0.982
60413W        W25574   9.927  43.493   1.278
60414W        W25575   2.760  30.273   2.147
60415W        W25576  43.040   8.700  12.636
60416W        W25577  42.781  43.025   1.831
60417W        W25578  26.504   9.147  13.756
60418W        W25579  27.896  19.625   5.099
60419W        W25580  20.624   1.226   3.618
60420W        W25581  13.901  13.356   3.832
60421W        W25582  44.208  29.693  12.404
60422W        W25583   7.683   7.917   2.732
60423W        W25584  11.258  36.363  12.423
60424W        W25585  41.994  14.092  12.361
60425W        W25586   1.340  25.650  12.001
60426W        W25587   3.906  41.686   2.821
60427W        W25588  10.664  34.137   2.405
60428W        W25589  14.164  13.615   2.654
60429W        W25590  17.331  33.380   4.571
60430W        W25591  12.720   5.783   3.809
60431W        W25592  23.036  14.568  13.004
60432W        W25593   6.184  16.348   4.169
60433W        W25594  17.181  37.363   2.409
60434W        W25595  29.307  32.779   3.215
60435W        W25596   3.520   1.367  12.401
60436W        W25597   1.069  38.952   0.999
60437W        W25598   3.762  18.140  12.450
60438W        W25599  13.067  29.305  13.935
60439W        W25600  37.939  16.325   3.288
60440W        W25601  25.133  25.794  14.103
60441W        W25602  27.498   4.064   0.139
60442W        W25603   0.441  19.343  12.560
60443W        W25604  44.496  19.545   0.907
60444W        W25605   2.024  36.720   1.809
60445W        W25606   1.287  11.393  14.316
60446W        W25607  36.614  28.479  14.032
60447W        W25608  36.575  34.936  14.959
60448W        W25609  26.921  36.455  11.615
60449W        W25610  39.863  35.553   3.850
60450W        W25611   4.873   8.402   5.109
60451W        W25612  10.623  38.071  10.677
60452W        W25613  36.203  24.144  10.623
60453W        W25614  18.148  41.893   0.331
60454W        W25615  30.715   6.864  14.559
60455W        W25616   8.598   0.817   1.413
60456W        W25617  27.592  36.655   3.662
60457W        W25618  40.794  34.958   1.403
60458W        W25619  38.092  23.062   3.589
60459W        W25620  42.530  20.948   4.159
60460W        W25621  11.909  27.680  13.405
60461W        W25622  34.805   3.683  12.078
60462W        W25623  25.474  12.682   2.060
60463W        W25624  16.126  41.616   4.206
60464W        W25625   4.768  11.610   0.871
60465W        W25626  15.100  38.441   0.215
60466W        W25627  35.574   2.516   1.709
60467W        W25628  29.557  16.537  14.048
60468W        W25629  29.153   2.806   3.136
60469W        W25630  13.296   9.606  12.478
60470W        W25631  44.843  32.561  14.815
60471W        W25632  22.523  15.521   3.190
60472W        W25633   5.863   8.810   0.461
60473W        W25634  32.405  25.039   0.819
60474W        W25635   4.966  28.562   1.367
60475W        W25636  44.858   8.970   1.348
60476W        W25637  31.869  41.636   3.313
60477W        W25638  32.038  37.775  14.741
60478W        W25639  37.425  30.555  10.740
60479W        W25640   0.822  19.694   1.137
60480W        W25641  38.643  43.795  10.612
60481W        W25642  22.554   9.268   2.385
60482W        W25643  36.713  39.017  10.207
60483W        W25644  23.207   2.212   2.657
60484W        W25645  36.099  19.802  14.346
60485W        W25646  35.363   5.338  13.321
60486W        W25647  41.482  44.270   0.367
60487W        W25648  24.515  27.538   1.357
60488W        W25649  14.048  33.384   1.737
60489W        W25650  10.915  24.196  11.183
60490W        W25651  40.289  34.967  10.660
60491W        W25652   0.935   7.457   4.064
60492W        W25653  22.146  17.587  11.188
60493W        W25654  33.468   1.968   3.576
60494W        W25655  31.955  24.957  14.952
60495W        W25656  40.519  20.478   0.276
60496W        W25657  15.166   8.346   0.330
60497W        W25658  17.838   8.178  12.516
60498W        W25659   1.729  19.851   1.788
60499W        W25660  13.071  18.242  11.183
60500W        W25661  39.785  24.747  13.004
60501W        W25662  12.524  37.723   1.858
60502W        W25663  32.957   4.029  11.920
60503W        W25664  15.256  42.833  14.795
60504W        W25665  42.810  40.082  12.424
60505W        W25666  22.651  24.881  11.609
60506W        W25667  24.729  21.488  12.818
60507W        W25668  26.995  34.139  14.332
60508W        W25669  38.866   7.908  11.693
60509W        W25670  43.252   0.791  14.885
60510W        W25671   5.863  15.539  12.111
60511W        W25672  41.982  44.002  12.956
60512W        W25673  30.649  37.591   1.291
60513W        W25674   4.407  39.562   0.457
60514W        W25675  22.247  38.952  12.370
60515W        W25676  10.006   3.564   5.247
60516W        W25677   1.497  20.707   2.105
60517W        W25678  24.758  24.550  13.550
60518W        W25679   7.565  37.226   4.315
60519W        W25680   2.240  29.164  14.472
60520W        W25681  44.741  38.145   2.039
60521W        W25682  20.480  35.048   2.287
60522W        W25683   4.657   7.289  13.340
60523W        W25684  15.164  31.120  11.920
60524W        W25685  42.036  39.849   2.660
60525W        W25686  27.651   5.786  12.501
60526W        W25687   8.288  30.444   3.702
60527W        W25688   3.208   8.426   2.623
60528W        W25689  19.526  38.137  14.449
60529W        W25690  35.885  13.791   4.770
60530W        W25691  12.717  25.506   2.809
60531W        W25692  34.388  40.142  11.132
60532W        W25693   5.328   0.049  12.384
60533W        W25694   2.252   4.226  14.142
60534W        W25695  29.900   1.226   2.782
60535W        W25696  36.285  33.075   2.688
60536W        W25697  10.381   8.089   3.814
60537W        W25698  33.020  19.996   3.795
60538W        W25699  20.750  14.265  14.478
60539W        W25700   7.689   2.078  14.887
60540W        W25701  44.455  32.927  14.379
60541W        W25702   2.967  28.903  14.911
60542W        W25703  33.587  25.178   4.097
60543W        W25704  15.991   6.380   1.324
60544W        W25705  29.940  39.796   3.786
60545W        W25706  39.990   4.367  11.992
60546W        W25707  37.175  10.251  13.768
60547W        W25708  24.308  20.243  11.003
60548W        W25709  31.089  26.413   3.227
60549W        W25710  38.810   9.259  14.944
60550W        W25711  14.693  18.586  14.519
60551W        W25712  22.739  42.435  10.210
60552W        W25713  41.925  10.429   0.979
60553W        W25714  28.722   3.477   2.452
60554W        W25715  24.186  24.426   5.052
60555W        W25716  32.598  11.207  10.840
60556W        W25717  12.186  43.824   1.579
60557W        W25718  31.927  26.738  10.765
60558W        W25719  29.987  27.553   1.711
60559W        W25720   2.430  17.811  10.743
60560W        W25721  19.527  17.103   3.583
60561W        W25722  20.210  38.619  12.247
60562W        W25723   3.522  15.723  14.549
60563W        W25724  41.410  28.302   1.639
60564W        W25725  25.241   7.310  12.096
60565W        W25726  39.625   9.052  10.699
60566W        W25727  37.809  15.068   2.500
60567W        W25728  18.649  12.607  13.851
60568W        W25729  41.518  22.278  11.022
60569W        W25730  30.255  33.207   1.005
60570W        W25731  32.192  22.028   2.680
60571W        W25732  31.070  13.428   4.402
60572W        W25733  40.467  22.288   2.730
60573W        W25734  23.579  10.374   0.509
60574W        W25735  41.589  17.094  13.492
60575W        W25736  17.370  15.197  12.965
60576W        W25737   9.612   0.380   4.087
60577W        W25738   3.672  22.126  13.107
60578W        W25739  26.473  12.775  13.425
60579W        W25740   8.088  13.201  11.569
60580W        W25741  15.552   7.132   4.148
60581W        W25742  32.203  30.072   0.458
60582W        W25743  41.906  37.750   1.149
60583W        W25744  40.873   8.886   0.582
60584W        W25745   0.176  36.817  12.970
60585W        W25746  13.430  22.617   2.628
60586W        W25747  34.248  38.165   2.378
60587W        W25748   4.245  23.840  13.136
60588W        W25749  43.033  24.585   1.357
60589W        W25750  24.141  13.038  13.849
60590W        W25751  26.130  35.371  13.505
60591W        W25752  20.042   9.808  10.540
60592W        W25753   4.833   0.217  14.307
60593W        W25754  22.196  18.854  14.523
60594W        W25755  19.827  22.162  12.510
60595W        W25756  43.907  30.346   0.070
60596W        W25757  42.092   7.096   0.239
60597W        W25758  44.282  40.088   2.941
60598W        W25759  41.166   2.742  13.793
60599W        W25760  35.145  26.650  14.389
60600W        W25761  42.427  18.105   3.902
60601W        W25762  34.942  21.116  13.263
60602W        W25763  17.295  14.718   3.636
60603W        W25764  39.122   4.708  13.761
60604W        W25765  23.464  39.938   4.103
60605W        W25766   5.247  32.013   2.821
60606W        W25767  20.652  25.230  10.322
60607W        W25768  36.301  44.004   2.446
60608W        W25769  35.505  10.189  13.844
60609W        W25770  34.440  22.454   4.993
60610W        W25771  25.644  40.783  13.682
60611W        W25772  42.482  31.568  13.845
60612W        W25773  31.963  27.051  11.215
60613W        W25774   6.146  39.304  13.037
60614W        W25775  10.681  34.609  10.990
60615W        W25776  39.345  23.991  12.408
60616W        W25777  37.627  11.491  12.364
60617W        W25778  35.834  14.623   4.143
60618W        W25779  39.895  37.289   3.698
60619W        W25780  10.034  27.913   3.354
60620W        W25781  18.239   5.383  12.376
60621W        W25782   8.821   8.873   2.203
60622W        W25783  16.392   7.608  12.333
60623W        W25784   0.381  31.833  12.810
60624W        W25785  25.749  27.045  14.539
60625W        W25786   5.623  31.053   0.994
60626W        W25787  33.370  39.405   2.154
60627W        W25788   0.385  36.454  14.792
60628W        W25789   7.231  35.820   2.912
60629W        W25790   5.121  41.422  14.412
60630W        W25791   5.787  15.579   0.844
60631W        W25792   2.924  22.773  11.657
60632W        W25793  22.474  31.745  11.968
60633W        W25794  11.572   9.815  11.934
60634W        W25795  14.332  19.004  12.585
60635W        W25796  16.730  40.574  13.317
60636W        W25797  44.142  12.896  11.030
60637W        W25798   1.618  14.803   5.127
60638W        W25799  36.638  34.417  12.919
60639W        W25800  18.084   1.279   0.889
60640W        W25801  14.256  42.543   2.512
60641W        W25802  36.303  32.303   1.391
60642W        W25803  23.532   2.867  10.916
60643W        W25804  15.712   8.914  11.465
60644W        W25805  10.112   0.332   3.160
60645W        W25806  31.370   0.933  13.595
60646W        W25807  24.518   5.447   3.704
60647W        W25808   0.242  43.330  14.666
60648W        W25809  13.163  21.604  10.710
60649W        W25810  28.383   1.106   0.980
60650W        W25811  44.453  40.532  11.481
60651W        W25812  29.424  26.535  11.556
60652W        W25813  22.123  21.814   2.464
60653W        W25814   2.734  27.750   3.343
60654W        W25815  32.253  44.048   5.180
60655W        W25816  12.735   6.826  11.510
60656W        W25817  21.219  27.553  14.835
60657W        W25818  10.675  25.489  13.003
60658W        W25819  16.280  41.142  12.038
60659W        W25820  38.424  39.747  14.316
60660W        W25821  24.741  43.409   0.899
60661W        W25822  20.016   1.249   0.700
60662W        W25823  11.079  12.129   1.879
60663W        W25824   3.793  22.583  12.384
60664W        W25825  44.401   7.765  11.443
60665W        W25826  41.301  37.976   5.291
60666W        W25827   3.904  44.478   3.247
60667W        W25828  41.066  30.673  12.610
60668W        W25829  35.463  43.060   1.850
60669W        W25830  33.367  43.954   9.991
60670W        W25831  30.698  43.110  13.607
60671W        W25832  13.246   6.827  14.735
60672W        W25833  24.010   5.214   1.611
60673W        W25834  31.304  18.148   5.088
60674W        W25835   3.142  22.090   2.262
60675W        W25836  41.076  31.624   0.252
60676W        W25837  36.596   5.320  13.917
60677W        W25838  43.259  34.697  12.971
60678W        W25839  13.682  33.659   1.441
60679W        W25840  14.167  21.441  14.512
60680W        W25841  25.650  23.536   1.789
60681W        W25842  22.158  33.427   2.189
60682W        W25843  24.476  41.090   2.606
60683W        W25844  10.441  44.222   4.072
60684W        W25845  29.208  33.012   0.999
60685W        W25846  15.505  10.688  11.758
60686W        W25847   2.209  40.363   4.308
60687W        W25848  30.966  40.783   1.161
60688W        W25849  13.279   7.319   0.394
60689W        W25850   0.424  37.402  11.990
60690W        W25851  14.063  39.302   4.627
60691W        W25852  35.465  44.574   1.890
60692W        W25853  44.912  15.624   2.801
60693W        W25854   3.273  38.576  14.381
60694W        W25855  34.721  14.110   3.798
60695W        W25856  26.124  41.290   4.266
60696W        W25857   2.198   9.276  14.295
60697W        W25858  35.750   9.947  11.294
60698W        W25859  12.790  42.479   3.590
60699W        W25860  43.955  23.808  12.514
60700W        W25861  15.781  37.255  13.711
60701W        W25862  33.433  18.260   3.307
60702W        W25863  16.732  19.558  13.058
60703W        W25864   7.852  16.115  12.387
60704W        W25865  23.493   9.716  11.401
60705W        W25866  10.740  36.322   3.854
60706W        W25867  18.175  21.603   4.695
60707W        W25868  12.591   7.274  14.809
60708W        W25869   4.970   8.188  13.976
60709W        W25870  20.562  19.113   2.646
60710W        W25871  25.444  29.306  14.210
60711W        W25872   9.320  16.833   1.849
60712W        W25873   1.155   3.663   0.478
60713W        W25874  16.030   8.716   3.625
60714W        W25875  16.767  19.646   0.882
60715W        W25876   9.754  25.603  14.468
60716W        W25877  15.670   9.810  14.094
60717W        W25878  17.148  38.578   0.880
60718W        W25879  39.386  17.849  12.567
60719W        W25880  18.033  12.642  12.874
60720W        W25881  23.522  31.645  14.886
60721W        W25882  33.453  16.106   0.927
60722W        W25883  24.667  39.811  12.452
60723W        W25884   7.936  37.466   4.632
60724W        W25885   5.305   6.135   2.383
60725W        W25886  13.108  40.855   4.067
60726W        W25887  21.415  32.176   1.938
60727W        W25888  30.627  43.461   1.329
60728W        W25889  26.128  35.602  10.708
60729W        W25890  40.566  39.660  11.639
60730W        W25891  17.272  17.451   1.590
60731W        W25892   3.389  34.545   0.143
60732W        W25893  29.590  40.287  14.274
60733W        W25894  40.277  43.865  13.737
60734W        W25895  17.020  26.691  11.063
60735W        W25896   6.470  35.402   2.179
60736W        W25897  37.513  25.660  10.781
60737W        W25898   9.471   7.746   2.912
60738W        W25899  38.754  25.211   1.191
60739W        W25900  27.507  12.303  10.337
60740W        W25901  13.079   9.111   0.391
60741W        W25902  17.225  21.181  12.827
60742W        W25903  27.563  32.357  14.495
60743W        W25904   1.875  43.978   2.157
60744W        W25905  35.476  11.197   4.189
60745W        W25906  16.473  38.636   4.038
60746W        W25907  27.641   7.892   4.800
60747W        W25908   7.277   4.289  10.632
60748W        W25909  39.880   7.605   2.364
60749W        W25910  28.968   9.113   4.803
60750W        W25911   9.224  18.332  14.791
60751W        W25912   7.183  30.023  11.199
60752W        W25913  43.774  27.474  10.649
60753W        W25914  35.105  42.334  13.643
60754W        W25915  34.234  41.054   4.587
60755W        W25916  26.117  37.322  14.607
60756W        W25917  21.252   3.001   2.193
60757W        W25918   8.239  39.112   0.686
60758W        W25919  40.795  19.234  12.912
60759W        W25920  39.911  23.725  14.421
60760W        W25921   2.870  38.798  10.988
60761W        W25922  16.033   0.872   3.834
60762W        W25923  32.529  20.487   2.658
60763W        W25924  44.829  14.798  12.379
60764W        W25925  30.692   4.455   2.757
60765W        W25926  25.903  15.199   1.803
60766W        W25927  40.369   2.146  14.383
60767W        W25928  12.172  22.102   2.716
60768W        W25929  44.926  30.032  11.041
60769W        W25930  26.954  26.610   2.411
60770W        W25931  39.904   5.808  13.793
60771W        W25932   4.776   2.867  11.318
60772W        W25933   8.688   9.666  12.492
60773W        W25934  31.403  18.505  10.689
60774W        W25935  30.542  24.434  12.040
60775W        W25936  12.817  26.746   4.072
60776W        W25937  16.569  25.258  11.242
60777W        W25938  33.562  13.750  12.114
60778W        W25939  44.041  29.655   4.131
60779W        W25940   0.655   0.833  11.384
60780W        W25941  31.449  27.167  10.338
60781W        W25942  18.261  29.560  14.128
60782W        W25943  44.784  38.970  13.135
60783W        W25944  37.070  21.033  14.394
60784W        W25945   7.503  43.496   1.849
60785W        W25946  27.536  34.956   3.782
60786W        W25947  39.156  41.509   4.447
60787W        W25948  39.565  21.778   2.754
60788W        W25949  38.911  26.993   4.476
60789W        W25950  22.274  19.498   4.157
60790W        W25951  21.509   3.340  10.698
60791W        W25952  24.349  22.181  13.815
60792W        W25953  44.064  40.332  13.444
60793W        W25954  15.326  43.696   5.058
60794W        W25955  28.666  17.558   4.626
60795W        W25956  32.339  42.342  13.798
60796W        W25957  43.522  13.233  11.631
60797W        W25958  41.411   1.414   2.916
60798W        W25959  23.666  14.860  14.266
60799W        W25960  41.587  22.175  12.432
60800W        W25961  25.183  22.652   3.779
60801W        W25962   6.796  16.712   1.414
60802W        W25963  26.703  15.225  11.141
60803W        W25964  16.809  18.230   1.843
60804W        W25965  19.146  27.915   4.218
60805W        W25966   7.768  36.643  14.861
60806W        W25967  11.369  31.933   1.561
60807W        W25968  15.405  13.829   0.333
60808W        W25969  27.445  34.736   2.026
60809W        W25970  21.001   5.674  14.884
60810W        W25971   1.273   0.434   0.406
60811W        W25972  27.883  35.819  12.053
60812W        W25973  19.580  29.454  10.398
60813W        W25974  11.556  22.342   1.499
60814W        W25975   8.723   3.354   4.539
60815W        W25976  20.228  38.397  13.728
60816W        W25977  19.353  40.358   0.468
60817W        W25978  23.632  41.852   0.435
60818W        W25979   4.685  20.954  12.958
60819W        W25980  25.901  42.233  12.617
60820W        W25981  27.438  20.586   3.308
60821W        W25982  12.350  32.449   4.520
60822W        W25983  44.365   7.953   4.581
60823W        W25984  41.406  11.391  12.538
60824W        W25985  10.638   5.918  13.353
60825W        W25986   4.127  20.598  14.320
60826W        W25987   5.270  27.591  14.506
60827W        W25988  33.754  43.891   3.641
60828W        W25989  21.597  26.895  13.036
60829W        W25990  23.452   5.785   2.181
60830W        W25991  39.145   1.102  14.243
60831W        W25992  27.596  28.686  14.783
60832W        W25993  23.594  37.145  13.954
60833W        W25994   1.044  42.973   0.783
60834W        W25995  42.793   6.546  14.924
60835W        W25996  37.929  27.131   1.851
60836W        W25997  37.566  18.802   1.692
60837W        W25998   7.404  19.294  13.521
60838W        W25999  14.688  44.099  14.022
60839W        W26000  44.097  15.320  14.402
60840W        W26001  44.361  17.607   1.201
60841W        W26002  35.886  34.995  13.003
60842W        W26003   0.948  44.025  11.683
60843W        W26004  16.574   9.376  12.098
60844W        W26005  14.693  12.953   3.600
60845W        W26006   3.186   9.667   0.198
60846W        W26007  33.536  41.435  12.568
60847W        W26008  12.157  20.145  10.787
60848W        W26009  23.089   9.895   1.811
60849W        W26010  33.225  40.443  11.515
60850W        W26011   3.199   9.913   2.944
60851W        W26012  36.111  32.631   3.234
60852W        W26013  28.550   5.635  12.888
60853W        W26014   5.039  43.426  12.204
60854W        W26015   9.006  34.749   4.918
60855W        W26016   7.495   1.087  11.979
60856W        W26017  29.988   1.894  10.936
60857W        W26018   8.796   7.857  14.095
60858W        W26019  18.856  31.066  13.851
60859W        W26020  20.146  12.127  13.534
60860W        W26021  17.379   5.243   0.826
60861W        W26022  24.993  13.252  12.990
60862W        W26023  43.415   3.874   3.218
60863W        W26024  11.355  38.476  12.896
60864W        W26025  15.562  34.833  10.736
60865W        W26026   1.516  30.152   2.778
60866W        W26027   2.890  44.918   3.362
60867W        W26028   6.943  40.948  14.317
60868W        W26029  21.051  19.108  12.341
60869W        W26030   5.230  23.646   0.225
60870W        W26031  17.795  29.454   3.883
60871W        W26032  32.351  37.909  11.553
60872W        W26033   3.399  19.726   4.655
60873W        W26034  32.993  23.583   3.754
60874W        W26035   9.297  27.828   4.626
60875W        W26036  16.252  44.119  11.122
60876W        W26037  15.716  30.723  13.656
60877W        W26038  17.856  10.411  14.435
60878W        W26039   8.317  44.241  12.637
60879W        W26040  31.464  30.148  12.798
60880W        W26041  33.092   8.199  14.799
60881W        W26042   7.099  31.262   1.793
60882W        W26043  19.748  42.279   4.514
60883W        W26044  12.150  28.585   4.523
60884W        W26045   8.584   8.098  11.130
60885W        W26046  25.221  23.323   2.394
60886W        W26047  30.596  16.798   4.744
60887W        W26048   8.863  15.019   2.840
60888W        W26049  24.111  11.658  14.846
60889W        W26050  36.813  43.365   4.933
60890W        W26051  24.615  35.617  13.289
60891W        W26052  44.791  34.113  10.103
60892W        W26053  44.121   3.285  10.706
60893W        W26054  16.708  36.923   1.763
60894W        W26055  32.077   9.289  14.746
60895W        W26056  17.223   2.678  14.531
60896W        W26057   2.964   5.837  12.844
60897W        W26058   9.203   6.218   0.410
60898W        W26059  31.655  20.222  11.064
60899W        W26060  15.255   4.221  11.080
60900W        W26061  32.879  30.820   0.025
60901W        W26062   4.711  27.399  12.228
60902W        W26063   9.647  38.304   3.668
60903W        W26064  27.942  39.147   1.703
60904W        W26065  12.199  40.026   4.553
60905W        W26066  27.556  24.105   3.342
60906W        W26067  41.518  30.923   4.458
60907W        W26068  37.887  26.630   5.003
60908W        W26069  42.387  39.618   1.823
60909W        W26070  29.557  10.323  14.078
60910W        W26071   2.851  35.653  14.355
60911W        W26072  36.771  41.764  12.086
60912W        W26073   0.393   6.504  12.048
60913W        W26074   8.087   7.117   4.051
60914W        W26075   9.381  12.603  13.399
60915W        W26076  44.334  35.829   1.690
60916W        W26077   1.817   5.433   1.510
60917W        W26078  29.197  24.245  12.243
60918W        W26079   3.481  20.738  12.400
60919W        W26080  25.144  12.400  14.269
60920W        W26081  31.158  26.511   4.182
60921W        W26082  24.977  27.090   0.278
60922W        W26083   7.470  19.716  11.097
60923W        W26084   3.292  27.732  13.513
60924W        W26085   4.276  28.858  11.307
60925W        W26086  30.780  18.961   1.680
60926W        W26087   7.087   8.396  13.326
60927W        W26088   2.860  18.302  12.624
60928W        W26089  19.809  22.561  10.556
60929W        W26090  14.519   0.987   0.872
60930W        W26091  25.102  20.533   2.864
60931W        W26092   1.995   5.321   0.130
60932W        W26093  42.302  37.497   4.007
60933W        W26094  38.535   0.337  12.153
60934W        W26095   7.263  21.812  10.578
60935W        W26096  41.001   9.181   0.024
60936W        W26097   0.006   1.437  13.978
60937W        W26098  40.425  25.813  13.395
60938W        W26099  35.872  12.344   0.262
60939W        W26100  20.183  19.124   3.673
60940W        W26101  16.202  37.843   4.012
60941W        W26102  17.636  38.558   0.472
60942W        W26103  16.617  12.322   2.213
60943W        W26104  38.136  21.113   1.396
60944W        W26105  33.733  12.097   1.275
60945W        W26106  37.653  30.234  10.401
60946W        W26107   8.174  40.521   4.398
60947W        W26108  36.406   0.809   4.601
60948W        W26109  36.253  24.666   3.105
60949W        W26110  36.826   0.911  10.313
60950W        W26111  29.118  26.566   3.094
60951W        W26112  13.160  30.881  11.236
60952W        W26113   3.634  23.101   2.178
60953W        W26114  10.832  14.559  10.471
60954W        W26115   3.211  31.171   3.085
60955W        W26116  12.162   0.802  13.543
60956W        W26117  41.887   7.395   0.996
60957W        W26118  39.322   2.937   3.348
60958W        W26119   1.393   1.831   0.222
60959W        W26120  31.474  18.778   0.016
60960W        W26121  43.056  12.757  10.315
60961W        W26122  10.732  13.750   0.180
60962W        W26123   9.406  44.002   0.995
60963W        W26124   3.708  15.712   1.245
60964W        W26125  17.637  38.975  12.494
60965W        W26126  34.437  42.882  10.624
60966W        W26127  19.277  11.797   4.447
60967W        W26128  19.297  21.809   4.875
60968W        W26129  43.851  14.549   3.253
60969W        W26130  25.260   8.171  14.467
60970W        W26131  31.449   4.247   1.279
60971W        W26132   9.064  25.706  13.973
60972W        W26133  42.038  21.134   4.124
60973W        W26134  42.625  10.355  13.319
60974W        W26135  28.091  11.403   0.168
60975W        W26136   0.666  38.856   2.832
60976W        W26137  21.235  37.927  11.945
60977W        W26138   8.752  10.509   0.831
60978W        W26139   9.925   5.258   4.178
60979W        W26140  12.673  42.984   1.305
60980W        W26141  34.727   6.816   0.369
60981W        W26142  24.400  13.901  12.925
60982W        W26143  39.485  14.256  11.441
60983W        W26144   6.409  22.759   1.251
60984W        W26145  26.945  11.078   3.023
60985W        W26146  27.484  20.208   4.233
60986W        W26147  28.937   2.466   1.409
60987W        W26148  28.133  29.143   2.089
60988W        W26149  23.725  37.279  11.173
60989W        W26150  31.501  39.477  11.873
60990W        W26151  16.985  43.818   4.501
60991W        W26152   2.285  23.739   1.379
60992W        W26153  25.991  39.990   3.912
60993W        W26154  34.645   9.719   3.347
60994W        W26155  28.728  21.792  12.909
60995W        W26156   0.870  15.696   0.202
60996W        W26157  34.904  15.469  12.522
60997W        W26158  37.394  37.156  11.572
60998W        W26159  40.914  11.229   4.254
60999W        W26160  44.289  14.123  14.896
61000W        W26161  41.515  30.041  14.115
61001W        W26162  29.853   0.483   4.871
61002W        W26163  43.775   7.699   0.235
61003W        W26164  36.390   0.847  11.099
61004W        W26165   5.725   5.646  12.498
61005W        W26166   9.333  36.983  14.262
61006W        W26167  22.613  27.111   1.371
61007W        W26168   6.431   5.147   3.397
61008W        W26169  39.940  17.441  11.957
61009W        W26170  21.096  14.315  12.392
61010W        W26171  20.639  25.373   0.336
61011W        W26172  19.056   3.233   4.198
61012W        W26173   4.287   9.124  12.040
61013W        W26174  19.432  41.212   4.556
61014W        W26175  21.264   4.868   1.726
61015W        W26176  14.720  31.895   4.896
61016W        W26177   9.851  23.918   2.426
61017W        W26178   2.485  35.965   2.101
61018W        W26179  33.586   1.191  10.744
61019W        W26180  14.538  12.858   1.381
61020W        W26181  11.348  16.900  12.517
61021W        W26182  21.071   5.738  13.010
61022W        W26183  19.473   0.932  10.357
61023W        W26184   1.267   7.834  11.141
61024W        W26185  43.898  11.882   0.530
61025W        W26186   1.044  34.464  11.320
61026W        W26187  38.091  44.805   3.583
61027W        W26188  43.252  24.514  13.131
61028W        W26189  11.114  21.299   0.245
61029W        W26190  35.907  30.107  14.850
61030W        W26191  16.017   1.308  14.455
61031W        W26192  37.116  37.987   0.295
61032W        W26193  23.727  18.197  12.569
61033W        W26194   2.732   6.406   1.279
61034W        W26195  19.664   7.507  12.041
61035W        W26196  44.580   1.451  11.942
61036W        W26197  26.558  28.654  12.422
61037W        W26198  43.712  15.799  12.768
61038W        W26199   9.391  14.080   1.318
61039W        W26200  31.736  43.782   4.030
61040W        W26201  28.574  26.496  14.839
61041W        W26202  12.739  42.014   4.759
61042W        W26203  39.968  29.955  11.215
61043W        W26204   8.079  20.110  14.477
61044W        W26205  36.637   8.355   0.832
61045W        W26206  36.547   6.382   2.816
61046W        W26207  18.317  41.984   1.549
61047W        W26208  29.941  26.175   3.251
61048W        W26209  33.362  13.839   0.813
61049W        W26210  16.200   4.915   3.714
61050W        W26211  39.732  20.097  13.559
61051W        W26212   0.672  17.169   3.828
61052W        W26213   9.246  43.244  12.492
61053W        W26214  34.040  43.276  14.424
61054W        W26215  18.944  40.073  12.407
61055W        W26216  29.185   0.645   1.767
61056W        W26217  32.967  11.588   1.257
61057W        W26218  23.093  25.507   4.207
61058W        W26219  27.594  23.891   1.914
61059W        W26220  36.744  16.959  13.976
61060W        W26221  27.036   9.660  13.343
61061W        W26222  40.488  39.027   1.358
61062W        W26223  27.957  40.819   2.295
61063W        W26224  40.262   0.430   0.986
61064W        W26225  16.515  30.602   4.586
61065W        W26226  13.379   5.038  14.499
61066W        W26227  13.283  22.776   0.759
61067W        W26228   2.392  15.337   2.835
61068W        W26229  20.056  43.231   0.918
61069W        W26230  34.818  43.858  10.585
61070W        W26231  15.727  31.331  10.864
61071W        W26232   2.180  19.642  10.707
61072W        W26233   0.788  19.169   1.211
61073W        W26234  41.079  40.406  12.130
61074W        W26235   8.050  23.408  14.190
61075W        W26236  29.472   6.981  12.590
61076W        W26237  38.003  37.458   0.365
61077W        W26238  43.879  14.861  14.459
61078W        W26239  41.419  36.414   4.916
61079W        W26240  25.803  32.119  14.390
61080W        W26241  18.237  20.618  11.449
61081W        W26242  28.054  31.588   2.739
61082W        W26243  28.141  42.686  13.031
61083W        W26244  31.428  19.085  14.383
61084W        W26245   5.176   1.993  11.492
61085W        W26246  42.993  16.588  10.741
61086W        W26247   4.982  11.595   4.239
61087W        W26248  38.483   3.657   1.176
61088W        W26249  11.303  18.185   2.516
61089W        W26250  33.879   7.820   4.176
61090W        W26251  28.664  40.473   9.751
61091W        W26252  24.747  39.721   2.575
61092W        W26253  29.629  41.852   1.928
61093W        W26254   5.975   5.343   3.317
61094W        W26255  42.371  15.244  13.055
61095W        W26256  42.366  18.139   2.319
61096W        W26257  10.381  34.866   0.937
61097W        W26258  10.256  13.756  14.938
61098W        W26259  21.994  23.863  10.810
61099W        W26260  23.441  11.300  14.062
61100W        W26261   2.676  26.406   0.251
61101W        W26262   1.011  21.351  10.142
61102W        W26263  11.682  39.956  12.653
61103W        W26264  40.804  44.430  10.595
61104W        W26265  31.461  31.379   3.251
61105W        W26266  21.770  11.837   3.349
61106W        W26267   9.832  24.130  13.798
61107W        W26268  36.362  18.426  11.218
61108W        W26269   0.947  21.498   0.794
61109W        W26270   1.215  38.270   2.491
61110W        W26271   6.375  36.569  11.508
61111W        W26272  33.817  42.753  13.431
61112W        W26273  38.501  40.493  11.475
61113W        W26274   9.901  19.605   2.761
61114W        W26275  15.305  15.036  13.019
61115W        W26276  43.942  26.499   4.324
61116W        W26277   9.648  42.969   3.646
61117W        W26278  41.302  28.965  12.486
61118W        W26279  44.573  38.851   3.967
61119W        W26280  26.087  33.667   3.639
61120W        W26281  33.073  14.114   1.502
61121W        W26282  25.866  31.682   3.327
61122W        W26283  40.536  40.229   2.117
61123W        W26284   6.247  19.161  10.722
61124W        W26285   9.341  21.181  14.045
61125W        W26286  38.667   0.754   1.292
61126W        W26287  41.050  32.662  11.915
61127W        W26288  44.348  18.144  13.914
61128W        W26289  27.177  27.161  13.334
61129W        W26290  42.947   5.902  11.875
61130W        W26291  32.948  22.427   0.441
61131W        W26292  40.185  20.773   4.163
61132W        W26293  17.676  43.942   0.202
61133W        W26294  15.871  35.542  14.490
61134W        W26295  29.529  20.527   0.771
61135W        W26296  27.984   0.656  14.939
61136W        W26297  14.682   1.448  14.531
61137W        W26298  44.033  33.670  12.506
61138W        W26299  36.541  31.918  12.629
61139W        W26300  36.832  30.353   4.997
61140W        W26301  41.515  23.295   0.716
61141W        W26302  39.979  31.535   0.205
61142W        W26303  42.129  27.477  14.766
61143W        W26304   9.112  35.017  14.329
61144W        W26305  10.974  20.195  11.205
61145W        W26306   7.912  21.822   0.853
61146W        W26307  41.769  33.382  12.078
61147W        W26308   1.633  26.301  10.790
61148W        W26309  10.948  15.510  14.851
61149W        W26310   4.860  37.994  13.792
61150W        W26311  24.258  43.427  14.943
61151W        W26312   7.506  24.042   1.407
61152W        W26313  20.222  13.345  10.354
61153W        W26314   8.221  19.330   0.812
61154W        W26315  36.094  36.068   4.154
61155W        W26316  44.456  21.019   0.365
61156W        W26317   4.200  24.482   2.433
61157W        W26318  17.829  19.090  14.438
61158W        W26319  35.705  39.498  12.807
61159W        W26320  32.128  16.071  14.910
61160W        W26321   9.493  38.870  11.945
61161W        W26322   4.469  21.497  10.729
61162W        W26323  14.912  10.926   2.431
61163W        W26324  38.338  42.729  14.848
61164W        W26325  14.407  17.001   1.545
61165W        W26326  28.940  42.852  13.036
61166W        W26327  28.540  25.646   0.250
61167W        W26328  42.533   0.774   1.075
61168W        W26329  14.367   3.313  11.525
61169W        W26330  15.342  28.059   1.823
61170W        W26331  20.123  20.650  13.960
61171W        W26332  36.217  33.413   3.761
61172W        W26333   1.778  15.583  14.951
61173W        W26334  36.478  25.780  10.399
61174W        W26335  16.639  19.872  11.188
61175W        W26336  19.297   3.191  13.106
61176W        W26337  27.144   0.245   4.848
61177W        W26338  27.029  30.220   4.145
61178W        W26339  25.902  15.797  14.381
61179W        W26340  15.167  33.143   2.189
61180W        W26341  32.323   9.574  12.451
61181W        W26342  36.550  37.040   3.558
61182W        W26343  24.906  15.702  10.577
61183W        W26344  42.741  25.628   0.043
61184W        W26345  27.540  37.844  10.758
61185W        W26346  12.150  31.643  13.455
61186W        W26347  13.122  25.160  12.156
61187W        W26348  29.798  13.182  14.865
61188W        W26349  29.007  19.095  14.327
61189W        W26350  39.796  34.446  12.577
61190W        W26351  30.237  44.362   3.048
61191W        W26352  38.450  13.417  14.324
61192W        W26353   1.029   4.228   2.043
61193W        W26354  40.785  40.466   0.823
61194W        W26355   7.987  14.102  10.195
61195W        W26356  41.502  30.506   2.280
61196W        W26357   8.647   4.981  11.991
61197W        W26358  11.312   1.302   4.531
61198W        W26359  31.016  10.926   0.343
61199W        W26360  13.891  18.240  14.495
61200W        W26361  29.181  19.857  11.057
61201W        W26362  40.807  25.034   0.472
61202W        W26363  32.843   9.635  10.861
61203W        W26364  27.677  18.664  13.767
61204W        W26365  41.962  44.421  11.947
61205W        W26366   5.400   5.425  10.731
61206W        W26367   8.361  16.249  13.475
61207W        W26368  35.529  10.743  11.977
61208W        W26369  15.906   6.739  11.680
61209W        W26370  11.126  18.802   1.212
61210W        W26371  32.519  36.584   0.702
61211W        W26372  13.032  34.021  13.087
61212W        W26373  37.575  27.117   2.838
61213W        W26374  44.872  10.419   2.179
61214W        W26375  39.508  39.410  14.496
61215W        W26376  42.277  34.959   0.403
61216W        W26377   1.773  10.177  10.661
61217W        W26378  27.388  23.360   2.825
61218W        W26379   9.804   5.757  13.315
61219W        W26380  42.422   0.720   4.151
61220W        W26381  29.458  37.008  12.569
61221W        W26382  25.515   9.169  12.477
61222W        W26383  25.112  15.245  10.522
61223W        W26384  33.814  17.420   4.466
61224W        W26385   2.374  42.242   0.204
61225W        W26386  10.342  21.795  14.915
61226W        W26387   0.044  16.675  13.952
61227W        W26388   8.371   1.448  14.336
61228W        W26389   0.621  42.564  14.985
61229W        W26390  35.058  10.669   1.943
61230W        W26391  17.691  15.274   1.058
61231W        W26392  32.052  27.632   2.339
61232W        W26393  30.993   7.127  13.433
61233W        W26394  31.446   7.362  13.488
61234W        W26395  29.708  17.747  13.133
61235W        W26396  44.788   5.334  12.975
61236W        W26397  12.140  11.467   2.226
61237W        W26398  31.441  41.747   4.528
61238W        W26399  20.514  29.465   4.878
61239W        W26400  23.039  17.010  12.874
61240W        W26401  26.914  42.517  11.317
61241W        W26402  44.273   0.360   2.767
61242W        W26403   4.309  27.934   0.474
61243W        W26404  38.792  43.908  12.019
61244W        W26405  15.533  10.404   1.351
61245W        W26406  39.145  38.849   2.790
61246W        W26407  42.497  44.645  12.064
61247W        W26408  15.865  18.487  14.285
61248W        W26409  29.712  31.018   3.707
61249W        W26410  43.452  27.651   4.408
61250W        W26411  37.115   0.354  11.816
61251W        W26412  44.472  19.078  11.963
61252W        W26413  25.168  16.583   4.252
61253W        W26414   9.690  15.508   3.751
61254W        W26415   9.187  40.670  11.488
61255W        W26416  42.759  12.594   2.334
61256W        W26417  12.202  32.417  13.023
61257W        W26418  40.541  24.464  13.430
61258W        W26419  39.307  10.188   0.721
61259W        W26420  44.275   6.597  14.048
61260W        W26421  11.376  21.161   4.188
61261W        W26422  11.740  14.573   0.249
61262W        W26423  39.291  27.556   1.322
61263W        W26424   1.524   7.217   0.386
61264W        W26425  16.115  32.114  14.804
61265W        W26426  35.019  36.083  11.497
61266W        W26427  18.488  14.531  11.272
61267W        W26428   2.091  15.834  13.106
61268W        W26429  20.855  29.575  14.806
61269W        W26430  43.050  10.670  14.761
61270W        W26431   1.581  25.643  13.769
61271W        W26432  34.003   3.263  14.878
61272W        W26433  19.339  11.110  11.081
61273W        W26434  30.670   2.536   0.919
61274W        W26435  44.572  42.200   0.899
61275W        W26436   3.361  10.159   3.722
61276W        W26437  31.573  11.156  13.017
61277W        W26438  41.783  32.648   0.834
61278W        W26439  35.173  43.833   3.793
61279W        W26440  41.461  44.646   4.567
61280W        W26441  27.099  18.047   1.305
61281W        W26442  41.673  23.818   1.991
61282W        W26443  16.051  12.258   3.585
61283W        W26444  42.394  28.455   1.229
61284W        W26445  24.158  24.686   3.754
61285W        W26446   0.007  25.612  12.590
61286W        W26447   5.882   8.213   2.736
61287W        W26448  35.341  33.587  10.177
61288W        W26449  39.560   1.738   1.242
61289W        W26450  28.762  23.981  12.127
61290W        W26451  41.354  25.513  11.493
61291W        W26452  44.834  43.312  13.087
61292W        W26453   0.390  36.841   2.261
61293W        W26454  32.826  27.072   4.549
61294W        W26455  26.153   5.102  14.486
61295W        W26456  40.280  21.831  10.833
61296W        W26457  30.762  17.730   3.238
61297W        W26458  23.050   3.985   4.168
61298W        W26459  19.513   8.251  14.655
61299W        W26460  40.775  22.519  12.763
61300W        W26461  23.058  41.998   4.609
61301W        W26462   0.777   9.534  13.500
61302W        W26463  32.426  16.635  12.917
61303W        W26464  27.460  21.529   1.420
61304W        W26465  13.672  28.724  14.256
61305W        W26466   7.789  41.287  10.516
61306W        W26467  39.259  27.460   2.251
61307W        W26468  13.498  13.727  13.635
61308W        W26469  38.901  18.791  12.043
61309W        W26470  15.894  37.634  13.330
61310W        W26471   0.020  34.653   1.843
61311W        W26472  30.881  10.368  13.895
61312W        W26473   5.697  39.569  13.951
61313W        W26474  40.526  26.091   0.685
61314W        W26475  10.699  33.427  11.647
61315W        W26476  16.444  40.860  14.933
61316W        W26477  34.491   7.716   3.472
61317W        W26478  33.022   9.954  13.388
61318W        W26479  12.609  25.605  14.801
61319W        W26480   0.367   4.154  13.104
61320W        W26481  38.737   3.430  10.719
61321W        W26482  39.398  13.733  12.855
61322W        W26483  43.552  19.724  12.342
61323W        W26484  39.560   0.790   1.502
61324W        W26485  44.721   5.738  12.054
61325W        W26486  12.710  38.862  12.896
61326W        W26487  18.952   2.531  14.754
61327W        W26488   3.142  15.821  14.911
61328W        W26489  16.712  44.594   5.045
61329W        W26490  37.097  29.182  13.704
61330W        W26491  11.254  40.378  13.246
61331W        W26492  11.098  14.739   3.777
61332W        W26493  40.795   7.513  12.418
61333W        W26494  36.099  43.893  14.145
61334W        W26495  14.394  33.083   0.863
61335W        W26496  28.853   8.133  13.854
61336W        W26497  10.413  21.195  11.572
61337W        W26498   6.303  19.645  12.908
61338W        W26499  27.797  19.915   2.937
61339W        W26500  35.841   5.349  12.091
61340W        W26501  36.847  33.987  13.138
61341W        W26502   7.185  25.127   0.947
61342W        W26503  38.035  21.587  13.360
61343W        W26504  13.656  40.562   3.002
61344W        W26505  23.275   1.407  11.363
61345W        W26506  39.811  24.958  11.993
61346W        W26507  17.797  24.115  13.806
61347W        W26508   6.455  31.183  14.516
61348W        W26509   4.854  13.164  13.090
61349W        W26510  30.811  24.740   4.052
61350W        W26511  41.360  32.378  13.474
61351W        W26512  40.947  16.252   0.273
61352W        W26513  39.831  12.334   2.719
61353W        W26514  22.181  12.328   4.629
61354W        W26515  33.680  38.635   1.192
61355W        W26516  24.758  41.370  11.611
61356W        W26517  40.478  18.227   0.804
61357W        W26518  25.550  34.574  11.180
61358W        W26519  29.790  29.579  13.833
61359W        W26520  15.642   3.036  10.459
61360W        W26521   1.803  25.923   0.362
61361W        W26522  33.123  37.576  13.981
61362W        W26523  11.701  33.600  10.020
61363W        W26524  38.985  43.670   1.477
61364W        W26525  25.915  35.668  10.236
61365W        W26526   6.614  26.791  11.524
61366W        W26527  42.442  13.653  11.147
61367W        W26528  26.745  35.054  13.365
61368W        W26529  23.969  39.814   2.848
61369W        W26530   6.884  15.146   2.215
61370W        W26531  41.776  13.615   1.335
61371W        W26532   9.330  23.694   1.247
61372W        W26533  18.432   2.445  14.841
61373W        W26534  21.997  14.720   2.258
61374W        W26535  40.533  31.018  10.698
61375W        W26536  23.470  27.644   2.859
61376W        W26537  35.343  33.896   4.137
61377W        W26538  27.795  33.842  12.666
61378W        W26539  29.105  12.528   3.831
61379W        W26540  18.110  36.159  14.204
61380W        W26541   0.413  33.389  11.481
61381W        W26542  42.308   2.625   1.393
61382W        W26543  17.962  14.541  11.925
61383W        W26544   6.786  30.493   3.701
61384W        W26545  18.206  18.022   4.750
61385W        W26546   4.901   1.025  11.051
61386W        W26547  16.547  37.576  11.083
61387W        W26548  30.047   3.923   0.986
61388W        W26549  16.081   5.847   4.107
61389W        W26550  28.476   2.730  12.029
61390W        W26551  20.258  19.104   1.789
61391W        W26552   6.994  24.182   0.478
61392W        W26553  39.942  16.874  13.988
61393W        W26554  40.244  27.537  12.907
61394W        W26555  16.619  41.723   1.962
61395W        W26556  40.484  14.560   3.358
61396W        W26557  30.600  39.001  13.767
61397W        W26558  10.286   9.948  11.920
61398W        W26559  42.450  30.535   4.662
61399W        W26560  29.178   0.099   3.119
61400W        W26561   7.830  43.027   3.826
61401W        W26562  32.984  22.748  14.569
61402W        W26563  25.281  43.889   3.126
61403W        W26564  15.025  22.699   3.764
61404W        W26565  34.326  21.942  14.380
61405W        W26566  42.464  23.234  11.594
61406W        W26567  40.539  30.189  11.594
61407W        W26568  32.185  12.119  13.434
61408W        W26569  25.109  30.457  14.231
61409W        W26570  18.097  18.320   4.051
61410W        W26571  25.214  20.969   1.614
61411W        W26572  13.755  19.089   0.933
61412W        W26573  25.221  27.454   4.957
61413W        W26574   4.358  32.560   0.243
61414W        W26575   5.920  40.570  13.867
61415W        W26576  35.470  26.776  13.999
61416W        W26577   0.153  41.456   1.820
61417W        W26578  13.283   6.337  10.551
61418W        W26579  24.157  34.243   0.256
61419W        W26580  22.133  41.113  13.392
61420W        W26581  35.093  37.627  12.860
61421W        W26582  16.532  20.027  12.943
61422W        W26583   0.180   1.508   4.450
61423W        W26584   5.363   0.352  10.670
61424W        W26585  20.612   6.382   1.540
61425W        W26586  40.114  35.889   0.028
61426W        W26587  33.377  38.502   0.767
61427W        W26588  24.259  30.534  12.619
61428W        W26589  25.425  27.649   2.721
61429W        W26590  34.104  42.995  11.277
61430W        W26591   4.442  33.581   4.319
61431W        W26592  13.217  29.174   2.729
61432W        W26593  16.543  20.316  13.451
61433W        W26594   4.934  43.398   1.850
61434W        W26595  35.536  37.621  13.348
61435W        W26596  15.908  33.028  11.752
61436W        W26597   1.342  34.611  12.525
61437W        W26598  43.085  43.934   3.571
61438W        W26599  33.831  30.738   1.451
61439W        W26600  10.267  34.510   3.131
61440W        W26601   1.899  44.228   3.830
61441W        W26602  30.434   6.383   2.306
61442W        W26603  12.795  40.837   1.300
61443W        W26604  15.634  13.768  13.910
61444W        W26605   0.348  43.897   4.435
61445W        W26606  40.866   7.902   1.468
61446W        W26607   2.946  39.479  12.118
61447W        W26608  34.023  19.877  14.302
61448W        W26609  23.513  12.197   3.420
61449W        W26610   4.017  11.227   1.394
61450W        W26611  37.908   3.252   1.860
61451W        W26612   8.203   3.337  13.069
61452W        W26613  22.157  18.761   4.616
61453W        W26614  26.505   6.378  10.665
61454W        W26615  10.372  12.695  10.572
61455W        W26616  19.567   0.916   1.968
61456W        W26617  30.000  30.180  12.344
61457W        W26618   6.478   8.843  12.134
61458W        W26619  34.022   9.207   3.643
61459W        W26620  38.518  10.664   3.860
61460W        W26621  42.001  34.329  12.545
61461W        W26622  17.362  12.804   0.520
61462W        W26623  17.243  17.940   1.751
61463W        W26624  24.946  32.047  12.356
61464W        W26625  21.109  27.482  13.941
61465W        W26626  41.487   9.609  11.136
61466W        W26627  18.271   2.206  13.991
61467W        W26628  13.106  37.516  12.001
61468W        W26629  28.133  16.303  10.408
61469W        W26630  18.136  31.520   3.151
61470W        W26631   3.362  20.843  14.204
61471W        W26632  14.390   5.745  10.713
61472W        W26633  31.987  33.628  10.736
61473W        W26634  12.662   3.376  13.850
61474W        W26635  33.996  15.425   1.289
61475W        W26636  34.368   9.429   1.372
61476W        W26637   8.061   5.013  10.862
61477W        W26638  44.289  25.697   0.768
61478W        W26639  21.314  10.113  10.756
61479W        W26640  17.105  44.681   0.430
61480W        W26641  22.141   3.746   1.315
61481W        W26642  24.717  16.690  10.893
61482W        W26643  43.026  18.579  13.020
61483W        W26644  40.422  29.042  10.747
61484W        W26645  20.741  19.980  11.895
61485W        W26646   3.221   0.842   0.541
61486W        W26647  24.699  16.991   3.408
61487W        W26648   0.350  40.040  10.407
61488W        W26649  20.069  20.216   3.728
61489W        W26650  11.135  41.968   4.140
61490W        W26651  11.177  10.180  13.834
61491W        W26652  36.860  10.155  12.573
61492W        W26653  37.116  36.513   3.506
61493W        W26654  10.800   3.883   1.243
61494W        W26655  20.621  37.766   1.918
61495W        W26656  36.470   5.247   0.372
61496W        W26657  38.029  34.508   0.221
61497W        W26658  20.259  27.218   4.825
61498W        W26659   9.226  10.613  11.502
61499W        W26660  13.397  22.886  11.137
61500W        W26661  10.422  18.997   0.908
61501W        W26662  25.435  44.239   0.880
61502W        W26663  22.126   0.568   4.017
61503W        W26664  43.753  28.948   1.814
61504W        W26665  29.206  27.885   1.328
61505W        W26666  26.071  37.250  13.064
61506W        W26667  38.997  35.908  11.719
61507W        W26668  43.027   2.207  12.606
61508W        W26669  34.953  13.810   0.493
61509W        W26670  44.980  19.964   3.196
61510W        W26671   5.288  13.213   0.368
61511W        W26672   7.738  33.004   2.734
61512W        W26673  11.713  31.016  12.981
61513W        W26674  33.192  26.719   0.624
61514W        W26675  43.334   2.815  12.003
61515W        W26676  39.563  34.977  13.817
61516W        W26677  23.708   4.393  13.447
61517W        W26678  22.543  30.988   0.280
61518W        W26679  25.564  42.327  14.818
61519W        W26680  29.424  24.775   1.391
61520W        W26681   8.388  43.493  14.440
61521W        W26682   7.540  24.151  12.085
61522W        W26683  14.738  12.106  14.263
61523W        W26684  39.285  44.010  12.041
61524W        W26685   4.359   1.062  11.065
61525W        W26686   9.957  19.038  12.099
61526W        W26687  13.529  17.713   0.305
61527W        W26688   2.646   3.748   0.737
61528W        W26689  19.047  32.747   2.296
61529W        W26690  37.166  19.498  14.097
61530W        W26691  34.265   0.994   3.196
61531W        W26692   5.224  13.704  12.565
61532W        W26693  12.159  33.386   2.742
61533W        W26694  11.734  22.447   4.181
61534W        W26695  20.417  31.801   1.961
61535W        W26696  19.164  21.351   5.075
61536W        W26697   5.371   7.596   0.477
61537W        W26698  13.879  33.003  11.588
61538W        W26699  16.580  15.183  11.019
61539W        W26700  36.999  11.410   4.564
61540W        W26701  22.721  29.906  11.609
61541W        W26702  41.459   2.273  13.108
61542W        W26703  11.307  40.830  14.410
61543W        W26704   7.653   2.429   2.661
61544W        W26705  35.091  22.014  14.797
61545W        W26706  19.306  22.651  14.969
61546W        W26707  37.104  24.906   1.911
61547W        W26708  17.346  19.592   1.967
61548W        W26709  24.077  27.132   4.853
61549W        W26710  39.539  21.207  12.415
61550W        W26711  39.639  21.992   0.768
61551W        W26712  28.923  24.959   1.349
61552W        W26713  27.601   0.595  10.773
61553W        W26714  16.161  28.266   3.740
61554W        W26715  25.776  11.576   3.115
61555W        W26716   6.535  43.432   4.159
61556W        W26717  38.555  21.433  12.108
61557W        W26718   2.390  10.844   1.805
61558W        W26719  37.450  12.607  13.123
61559W        W26720  37.986  24.672  11.847
61560W        W26721  36.898  38.546   4.138
61561W        W26722  43.023   2.821  11.601
61562W        W26723  41.478  22.058   2.964
61563W        W26724  30.669  12.694   4.549
61564W        W26725   1.462  20.521   4.702
61565W        W26726  14.396  23.228   3.269
61566W        W26727   2.506   8.375  12.695
61567W        W26728  18.153   4.319   3.562
61568W        W26729  18.593  34.983   2.095
61569W        W26730  38.569   9.744   0.858
61570W        W26731  35.524   0.489   4.688
61571W        W26732   7.528  38.705  11.240
61572W        W26733  20.161  21.711  12.402
61573W        W26734  14.241  39.204  13.126
61574W        W26735   7.630   7.564   4.040
61575W        W26736  26.011  20.160   2.295
61576W        W26737  37.118  31.345  12.030
61577W        W26738  18.519  11.761   2.157
61578W        W26739  18.553  43.274  13.884
61579W        W26740  12.241  19.219  14.514
61580W        W26741  29.880  40.047   0.399
61581W        W26742   7.464  32.848   4.272
61582W        W26743  44.260   4.919  12.158
61583W        W26744  27.397   1.959   4.036
61584W        W26745   6.775  30.577  10.156
61585W        W26746  25.276  31.111   0.381
61586W        W26747  40.001   3.450  14.030
61587W        W26748  42.319  25.920   0.206
61588W        W26749   3.205  15.669   3.198
61589W        W26750  15.692  23.320  10.662
61590W        W26751   9.155   3.102   0.521
61591W        W26752  34.687  20.992  12.523
61592W        W26753  18.486  35.591   0.761
61593W        W26754  18.680  27.237   4.588
61594W        W26755  26.011  42.780  12.107
61595W        W26756  42.657   5.800  11.464
61596W        W26757  35.597  31.621   2.275
61597W        W26758   9.187   6.292   1.303
61598W        W26759  30.863  37.530   1.792
61599W        W26760   3.626  40.599  10.231
61600W        W26761  19.547   2.689   1.752
61601W        W26762  29.822  12.261   2.305
61602W        W26763  35.122  33.918  11.111
61603W        W26764   4.666  43.983   2.555
61604W        W26765  29.669  34.884   4.369
61605W        W26766  42.472  22.718  11.621
61606W        W26767  25.597  25.789  13.851
61607W        W26768  43.403  17.265   1.249
61608W        W26769   5.998  25.203   1.995
61609W        W26770  12.821  31.687  11.238
61610W        W26771  23.631  36.056   2.385
61611W        W26772  27.979  28.541  13.437
61612W        W26773  41.258  14.136  14.882
61613W        W26774  10.326   7.340   1.893
61614W        W26775   6.705  32.628   2.334
61615W        W26776  16.695   5.204   1.383
61616W        W26777   9.665  41.067   3.797
61617W        W26778  21.748  12.618   2.885
61618W        W26779  19.067  42.214   2.933
61619W        W26780  36.546  12.511   4.458
61620W        W26781  26.916  23.261   1.182
61621W        W26782  25.662  22.942  11.086
61622W        W26783  40.748  25.744   2.170
61623W        W26784  29.480   1.455  12.961
61624W        W26785  14.870  10.717  14.497
61625W        W26786  26.174  14.700  12.293
61626W        W26787  20.346  40.131   3.720
61627W        W26788   6.805  36.791   0.973
61628W        W26789  11.727  31.163  13.911
61629W        W26790  31.837  15.752   1.660
61630W        W26791  28.051  10.233   3.286
61631W        W26792  11.109  24.764  14.971
61632W        W26793  36.326  16.763  12.187
61633W        W26794  40.374   9.228   3.395
61634W        W26795  26.129   2.820   1.716
61635W        W26796  37.061  21.035   1.247
61636W        W26797  40.410  29.949   0.851
61637W        W26798  17.781  12.840  13.282
61638W        W26799  11.586  26.966   0.307
61639W        W26800  34.549  13.184   2.665
61640W        W26801  28.535  32.349  10.725
61641W        W26802   0.062  14.861  11.925
61642W        W26803  41.356  35.744  10.383
61643W        W26804  39.286   2.282  13.561
61644W        W26805  12.632   1.734  11.835
61645W        W26806  10.932  20.240  13.221
61646W        W26807  29.042   4.474  13.338
61647W        W26808  43.167  15.758  10.755
61648W        W26809  31.269  10.721   4.527
61649W        W26810  15.818  37.439   1.623
61650W        W26811  44.182  30.162  11.513
61651W        W26812  32.551  22.365   3.807
61652W        W26813  42.439   0.319  12.598
61653W        W26814  33.908   8.273  14.548
61654W        W26815  15.637  42.065  11.892
61655W        W26816  16.299   3.229   2.721
61656W        W26817   5.744  41.477   3.890
61657W        W26818  13.824   1.480   4.025
61658W        W26819  42.988  24.465  11.519
61659W        W26820  18.218  32.856  10.773
61660W        W26821  16.259   4.123   3.384
61661W        W26822  18.988  27.820   2.361
61662W        W26823  17.480  20.815  14.969
61663W        W26824  29.201   1.303  13.384
61664W        W26825   8.373  29.074  14.257
61665W        W26826  28.237   1.372  10.939
61666W        W26827  12.582   7.862  14.384
61667W        W26828   1.811  20.120  14.235
61668W        W26829  18.132  32.385  11.973
61669W        W26830  11.044  21.719  12.334
61670W        W26831  24.117   5.272  12.513
61671W        W26832  44.849  44.946  10.865
61672W        W26833  32.083  34.534  10.279
61673W        W26834  15.808  41.658   4.631
61674W        W26835   8.948   6.170   0.857
61675W        W26836  31.340   6.553  10.727
61676W        W26837  18.111   6.917   2.743
61677W        W26838  25.885  41.479  12.945
61678W        W26839  16.139  10.848   0.212
61679W        W26840  34.614   6.157  12.990
61680W        W26841  15.873  31.599  12.033
61681W        W26842  15.477  19.016  10.799
61682W        W26843  38.638  11.509   1.480
61683W        W26844  11.160  18.270   2.005
61684W        W26845  25.160  35.066  14.789
61685W        W26846  27.730  17.706  10.586
61686W        W26847  16.033  36.838   0.841
61687W        W26848   8.367  28.545  12.409
61688W        W26849  31.878  14.830   3.918
61689W        W26850  44.413  30.677  12.274
61690W        W26851  18.814   5.906  14.389
61691W        W26852  17.109  37.847  11.505
61692W        W26853   8.253  26.682   3.826
61693W        W26854   8.889  44.246  11.616
61694W        W26855   6.900  37.990  11.088
61695W        W26856   8.378   0.504   3.658
61696W        W26857  42.406  40.789   2.367
61697W        W26858  12.779   3.376  11.695
61698W        W26859  38.411  35.668   0.317
61699W        W26860   8.351  16.622   1.641
61700W        W26861  36.428  10.421   3.183
61701W        W26862  29.592  20.321  12.327
61702W        W26863  11.652  10.012   4.658
61703W        W26864   6.066  42.274  12.041
61704W        W26865  43.786  40.322  13.000
61705W        W26866  29.953  41.039   9.758
61706W        W26867  34.026  20.515   2.826
61707W        W26868  26.296  22.201   1.683
61708W        W26869   3.864  21.923  13.963
61709W        W26870  13.619  42.691  13.932
61710W        W26871  26.168  42.722   1.215
61711W        W26872  14.766  25.717  14.376
61712W        W26873  40.342  12.112  13.127
61713W        W26874   2.460   0.522  12.363
61714W        W26875   0.264  33.611   3.326
61715W        W26876  15.575   9.879  14.976
61716W        W26877  23.221  18.744   2.716
61717W        W26878  23.964  18.007  13.023
61718W        W26879  39.911  14.265   1.185
61719W        W26880  22.838  39.554   1.594
61720W        W26881  20.015  31.142  11.892
61721W        W26882  16.691  36.539  14.436
61722W        W26883  13.638  25.107   2.773
61723W        W26884  36.842  38.911  14.100
61724W        W26885  34.538  41.473   4.544
61725W        W26886  44.512  25.016   3.768
61726W        W26887  31.384  41.415  11.540
61727W        W26888  23.511  11.777  12.263
61728W        W26889   2.080  17.359   2.349
61729W        W26890  44.801  17.502   4.000
61730W        W26891  40.522   5.353  12.169
61731W        W26892  30.332  22.646   4.961
61732W        W26893  37.839  10.240  13.001
61733W        W26894  29.144  17.126   2.398
61734W        W26895   9.810  16.135  13.358
61735W        W26896  31.373   1.199  13.099
61736W        W26897  39.013   9.833   4.887
61737W        W26898  22.299  16.119  10.700
61738W        W26899  19.913  40.597   2.267
61739W        W26900  42.292  15.694  12.784
61740W        W26901  41.773  24.950  14.272
61741W        W26902  40.754  43.983  13.534
61742W        W26903  10.284  18.197  11.438
61743W        W26904  10.404   0.928   2.114
61744W        W26905  19.793  40.498  12.158
61745W        W26906  19.528  43.919  13.530
61746W        W26907  32.570  36.416  11.180
61747W        W26908  43.993  10.426   4.641
61748W        W26909  32.476   4.898  13.397
61749W        W26910   1.505  19.405  13.457
61750W        W26911   9.644  40.469   3.221
61751W        W26912  27.418  30.050   3.846
61752W        W26913  43.961  23.661   2.867
61753W        W26914   2.935   8.898  13.914
61754W        W26915  16.936  20.248  14.748
61755W        W26916  43.422  39.370  14.749
61756W        W26917   0.944   2.245  10.999
61757W        W26918  36.452   0.787  11.596
61758W        W26919  24.164  11.348   2.953
61759W        W26920  21.891  13.353  10.668
61760W        W26921  17.338   3.588   1.241
61761W        W26922   6.313  42.790  13.390
61762W        W26923  31.176  35.044  14.340
61763W        W26924  27.998  20.000  10.682
61764W        W26925  17.433  12.080   0.984
61765W        W26926  16.790  43.866   0.679
61766W        W26927  33.991  27.061  11.668
61767W        W26928  23.053   6.949   2.384
61768W        W26929   7.788  14.895  11.812
61769W        W26930  23.159  26.739  11.616
61770W        W26931  16.562  34.520   1.765
61771W        W26932  19.275  21.203  10.725
61772W        W26933   1.437  29.562  12.858
61773W        W26934  42.622   0.791  14.904
61774W        W26935  42.748  21.413  10.539
61775W        W26936  14.249  26.042   1.413
61776W        W26937  16.307   6.929  12.839
61777W        W26938   6.376  11.815   1.731
61778W        W26939  14.573  13.517  14.670
61779W        W26940   2.859  41.051   4.997
61780W        W26941  41.297  20.634  10.782
61781W        W26942  29.364  11.864  10.316
61782W        W26943  17.957  37.753  12.692
61783W        W26944  24.910   7.170   3.257
61784W        W26945  16.167  34.448   1.384
61785W        W26946  31.320  11.768  14.483
61786W        W26947   1.900  31.418  14.369
61787W        W26948  29.950  10.752  12.542
61788W        W26949  43.287  16.859   3.231
61789W        W26950  20.303   8.007   3.208
61790W        W26951  32.087  24.765  12.017
61791W        W26952  17.971   1.256  12.367
61792W        W26953  35.970  36.410  14.558
61793W        W26954  41.896   6.318  12.738
61794W        W26955  21.040   0.440  13.944
61795W        W26956  19.614  24.083   5.019
61796W        W26957  29.195  20.135   0.791
61797W        W26958  21.724   7.286  10.491
61798W        W26959  14.285  22.547   2.606
61799W        W26960  43.094  43.306  13.627
61800W        W26961  25.045  36.784  11.886
61801W        W26962  14.660   9.094   2.555
61802W        W26963  10.145  16.518  13.873
61803W        W26964  30.242  19.117  12.851
61804W        W26965  12.043  38.480   3.335
61805W        W26966  23.114   4.714  12.445
61806W        W26967  19.336  15.287  12.690
61807W        W26968  34.620   4.514  12.576
61808W        W26969  39.681  21.456   3.637
61809W        W26970  41.347  41.597   4.271
61810W        W26971   1.412  19.032  13.025
61811W        W26972  41.781   8.940  12.893
61812W        W26973  29.706   1.843  11.532
61813W        W26974  27.382   2.515   0.330
61814W        W26975  27.961  10.678   9.864
61815W        W26976  24.488  13.316   1.189
61816W        W26977   0.036   5.501   0.124
61817W        W26978  31.051  19.185   3.263
61818W        W26979  43.220  41.979  13.515
61819W        W26980   1.354   6.622   4.293
61820W        W26981  41.700  14.455   0.895
61821W        W26982  28.555  43.918   0.817
61822W        W26983  12.331  36.108   4.231
61823W        W26984  29.497  13.310   0.377
61824W        W26985   5.380  31.779  12.470
61825W        W26986  30.563   3.732   3.151
61826W        W26987   1.205  13.745  13.902
61827W        W26988  29.982  30.913  10.781
61828W        W26989  26.733  17.263  13.809
61829W        W26990  17.531  20.021   0.378
61830W        W26991   4.376   3.717  10.601
61831W        W26992  44.513  16.209  12.937
61832W        W26993   3.472  35.053   2.683
61833W        W26994  32.109   2.252   3.059
61834W        W26995  20.873  41.465   3.900
61835W        W26996  11.056  30.987   0.516
61836W        W26997  18.889  38.710  12.191
61837W        W26998  26.991  28.517  12.029
61838W        W26999   9.635   0.415   0.344
61839W        W27000  10.502  40.151  10.221
61840W        W27001  19.314  33.411  12.014
61841W        W27002  32.210  29.391   2.826
61842W        W27003  36.105   5.745   4.164
61843W        W27004  41.928  31.723  14.873
61844W        W27005  21.054  25.463  12.977
61845W        W27006  37.385  31.585  14.311
61846W        W27007  28.490  34.349   3.693
61847W        W27008  24.070  32.565  13.379
61848W        W27009  39.743  38.510  11.120
61849W        W27010   3.265  28.971   3.750
61850W        W27011  38.878  16.823   0.530
61851W        W27012  42.258   7.187  13.982
61852W        W27013  13.003  18.341   4.809
61853W        W27014  22.535  39.934   1.402
61854W        W27015  30.249  30.235   2.258
61855W        W27016  26.877  19.666  12.299
61856W        W27017  23.325  18.519  14.791
61857W        W27018   8.419  24.946   2.668
61858W        W27019   3.465   0.684  12.965
61859W        W27020  20.436  38.073   2.321
61860W        W27021  34.692  19.827  13.350
61861W        W27022  20.823   8.207  10.461
61862W        W27023  43.385   0.808   9.332
61863W        W27024  41.763  34.865   0.454
61864W        W27025  43.806  24.641  12.088
61865W        W27026  43.802   3.472  14.558
61866W        W27027  31.592   7.385   0.991
61867W        W27028   1.943  27.667   4.650
61868W        W27029  22.594   3.756   1.938
61869W        W27030   4.568  23.085  10.740
61870W        W27031  39.879  22.278   0.358
61871W        W27032  24.740  23.609  12.021
61872W        W27033  41.711  42.921   0.890
61873W        W27034  23.024   1.919   3.592
61874W        W27035   3.068  19.986  11.611
61875W        W27036  31.747  19.852   3.149
61876W        W27037   3.178  12.324   4.196
61877W        W27038  37.675   5.126   1.037
61878W        W27039  16.311  16.723  14.469
61879W        W27040  42.867  19.000   1.419
61880W        W27041  31.417   2.195  10.768
61881W        W27042   2.210   5.434  13.366
61882W        W27043   4.670  30.036  11.998
61883W        W27044   5.835  44.750   0.390
61884W        W27045  40.559  40.814   1.290
61885W        W27046  24.327   9.404  11.225
61886W        W27047  36.546  42.734   2.761
61887W        W27048  44.256  18.115   5.069
61888W        W27049   3.869  16.283  12.113
61889W        W27050  41.305  20.689  14.825
61890W        W27051  12.103  11.441  12.941
61891W        W27052  40.762  44.893  12.103
61892W        W27053   9.005  20.525   1.891
61893W        W27054  37.632  40.672  13.874
61894W        W27055  18.656   4.724   2.776
61895W        W27056  43.447  23.050  14.012
61896W        W27057   6.332  14.196   3.786
61897W        W27058  25.605  24.085  14.534
61898W        W27059  23.770  24.853  11.542
61899W        W27060  16.354  14.691  13.110
61900W        W27061   0.298   2.234   2.991
61901W        W27062  28.370  11.778  12.365
61902W        W27063  34.425  15.373   3.706
61903W        W27064  16.026  37.404  12.084
61904W        W27065  40.347  43.715  12.829
61905W        W27066   2.839  29.036   4.611
61906W        W27067   9.679  33.737  12.800
61907W        W27068  31.830  11.877  13.115
61908W        W27069  26.140  18.470  13.835
61909W        W27070  20.691  14.227   4.682
61910W        W27071  36.507  13.535   4.454
61911W        W27072  42.879  32.656  12.169
61912W        W27073  15.121  29.621   4.680
61913W        W27074  10.415  41.062  11.552
61914W        W27075  31.748  38.143  11.990
61915W        W27076  34.940  27.199  10.390
61916W        W27077   1.524  13.101  11.601
61917W        W27078   1.868  21.270   3.148
61918W        W27079  23.397  20.183  11.038
61919W        W27080  10.111  33.160  14.969
61920W        W27081  29.191  30.053   2.317
61921W        W27082  15.215  26.145   1.759
61922W        W27083  24.149  38.276   1.363
61923W        W27084  40.770  13.821   1.463
61924W        W27085   9.154  32.495  13.853
61925W        W27086   7.676  24.032   4.007
61926W        W27087  18.699  30.357  10.305
61927W        W27088  24.457   9.411   1.269
61928W        W27089   8.762  37.906  11.632
61929W        W27090  44.929  15.779  13.243
61930W        W27091   6.871  40.892  12.895
61931W        W27092  28.590  39.347  10.289
61932W        W27093  40.952  36.601   4.213
61933W        W27094   5.852   3.625  13.849
61934W        W27095  17.822  33.985   1.709
61935W        W27096  28.811  44.513   3.776
61936W        W27097  36.862   4.815  13.853
61937W        W27098  33.615  30.403   0.122
61938W        W27099  21.231  42.069   2.682
61939W        W27100  24.910   9.734   1.238
61940W        W27101  16.553  32.051  10.955
61941W        W27102  16.603   3.213  14.973
61942W        W27103  10.733  28.540   3.164
61943W        W27104  28.454   5.447  12.418
61944W        W27105  21.214  44.746   3.663
61945W        W27106  37.924   2.267   0.284
61946W        W27107   4.820  24.778   1.830
61947W        W27108  35.079  23.010  14.937
61948W        W27109   2.941  25.576   4.071
61949W        W27110  25.487  20.091   2.296
61950W        W27111  13.765   9.197   2.258
61951W        W27112  29.467   6.643  14.389
61952W        W27113  27.756  28.118   2.817
61953W        W27114   4.355  28.500  11.678
61954W        W27115  36.825  26.762   0.022
61955W        W27116  14.831  41.067  12.998
61956W        W27117   6.274  13.716   4.699
61957W        W27118  13.612   7.152   3.481
61958W        W27119   2.118  11.357  11.864
61959W        W27120  10.322  36.399  14.446
61960W        W27121   6.726  22.023   0.850
61961W        W27122   8.342   0.868   1.850
61962W        W27123  30.436   6.809  14.089
61963W        W27124  33.563  30.182   4.113
61964W        W27125  41.819   2.328  12.156
61965W        W27126  33.707  33.479  12.713
61966W        W27127  14.826  37.410   0.887
61967W        W27128   4.183  35.956  12.492
61968W        W27129  27.916  35.649  13.842
61969W        W27130  25.981   4.179   2.286
61970W        W27131  16.881  37.848   0.537
61971W        W27132  16.296  24.161  12.454
61972W        W27133  12.309   0.785   0.787
61973W        W27134  15.642   5.925   0.908
61974W        W27135  11.815  23.148  13.570
61975W        W27136  38.910  17.577   1.870
61976W        W27137   1.388  12.335  14.995
61977W        W27138  17.289  24.078  13.824
61978W        W27139  12.980   8.327   1.935
61979W        W27140  20.141  34.051  14.010
61980W        W27141  25.665  25.920  10.667
61981W        W27142   6.922  44.707  12.570
61982W        W27143  33.513  23.154   9.917
61983W        W27144  38.420  38.393   0.816
61984W        W27145   7.938  17.171   3.260
61985W        W27146  31.758   5.245   0.308
61986W        W27147  13.967   7.225  14.367
61987W        W27148  13.177  18.067   3.798
61988W        W27149  13.946   7.668  12.531
61989W        W27150  32.233  41.443  13.868
61990W        W27151  31.384  37.595   1.895
61991W        W27152  16.204  32.500   2.112
61992W        W27153   6.227   0.060   0.508
61993W        W27154  27.942   0.458  12.484
61994W        W27155   3.770   1.414   0.892
61995W        W27156  10.233   1.677   0.414
61996W        W27157   2.883   5.187   1.770
61997W        W27158   0.214  11.969   3.977
61998W        W27159   0.394   6.442   3.633
61999W        W27160  22.164  23.875   0.672
62000W        W27161  25.827  36.344   4.971
62001W        W27162   3.477  32.644  13.108
62002W        W27163  26.939  44.565  11.138
62003W        W27164   4.739  24.738  12.764
62004W        W27165  32.078  15.934   4.994
62005W        W27166  19.402  32.676  10.662
62006W        W27167   4.895   8.215  11.464
62007W        W27168  32.761  22.503  10.713
62008W        W27169  16.283  34.070   1.746
62009W        W27170  29.538  14.919   2.703
62010W        W27171  18.867   3.760  12.356
62011W        W27172   8.871  19.715  14.301
62012W        W27173  25.041  36.483  13.523
62013W        W27174  32.944  32.902  13.409
62014W        W27175  12.087  32.528   1.479
62015W        W27176  17.825   4.747  10.443
62016W        W27177  42.522  41.762  12.964
62017W        W27178  44.610  32.667   1.014
62018W        W27179  28.844  27.981  14.976
62019W        W27180  22.230   9.918  11.709
62020W        W27181  33.091  32.911   0.428
62021W        W27182  13.185  12.053  13.198
62022W        W27183   2.995  27.590  12.079
62023W        W27184  16.793  11.453  12.513
62024W        W27185  18.655  26.133   3.792
62025W        W27186   2.950  22.436  12.075
62026W        W27187  18.671  23.568  11.628
62027W        W27188  29.010  23.659   0.861
62028W        W27189  19.749  34.738  11.478
62029W        W27190  28.603  36.803   1.513
62030W        W27191  25.282  41.587   2.728
62031W        W27192   8.098  14.325   4.998
62032W        W27193  14.717  34.016   0.984
62033W        W27194  24.211   5.408  13.440
62034W        W27195  31.187  28.146   2.234
62035W        W27196  32.003  26.104   0.373
62036W        W27197  33.675  41.397  14.981
62037W        W27198  22.564  22.099  13.486
62038W        W27199  12.541  37.132  14.781
62039W        W27200  33.906   4.424  10.537
62040W        W27201   9.198  13.317  14.469
62041W        W27202  24.813  12.345  14.729
62042W        W27203  39.486  40.611  11.477
62043W        W27204  25.053  30.116  12.383
62044W        W27205  21.065  11.318  11.581
62045W        W27206  14.613  39.259   2.440
62046W        W27207   2.957  12.124   1.956
62047W        W27208  14.327  19.186   3.755
62048W        W27209  19.783  13.886  11.037
62049W        W27210  20.817  19.525  12.116
62050W        W27211  30.335   4.600   1.989
62051W        W27212   0.830  33.387   0.206
62052W        W27213  37.120  18.185   0.582
62053W        W27214  20.088  33.930  12.933
62054W        W27215  32.577  23.263   0.308
62055W        W27216  40.069   7.275  13.621
62056W        W27217  15.824  26.156   0.837
62057W        W27218  40.926  20.507  12.050
62058W        W27219  25.906   8.154   3.190
62059W        W27220  21.145  37.286  13.671
62060W        W27221  15.799  36.780  11.040
62061W        W27222  32.595  25.771   1.245
62062W        W27223  11.806  33.843  13.490
62063W        W27224  29.212  12.159   0.415
62064W        W27225  12.140  28.778   0.837
62065W        W27226   8.913  16.418   4.308
62066W        W27227  32.441  42.314   0.833
62067W        W27228  24.254   8.753   2.860
62068W        W27229  22.037  11.617   0.216
62069W        W27230   7.708  42.571   0.953
62070W        W27231   6.392  19.847  13.378
62071W        W27232   4.326   2.935  13.028
62072W        W27233  19.286  30.584  11.635
62073W        W27234  17.571  38.803  10.790
62074W        W27235  28.579  17.720   1.991
62075W        W27236   2.315   5.167   3.284
62076W        W27237  31.442   2.924   2.906
62077W        W27238  43.983   5.326  13.876
62078W        W27239  36.912  30.890  12.108
62079W        W27240  12.718  10.868   0.402
62080W        W27241  19.139  23.604   5.083
62081W        W27242  21.067  12.545  13.913
62082W        W27243   7.744   9.212  12.685
62083W        W27244  12.257   1.227  14.839
62084W        W27245  35.006  21.365   1.521
62085W        W27246  14.161  24.248   1.525
62086W        W27247  34.103  11.406   0.785
62087W        W27248  23.042  18.829  13.388
62088W        W27249   9.141  12.937   3.250
62089W        W27250  11.505   5.430   4.396
62090W        W27251  38.010  28.664  13.480
62091W        W27252  11.204   2.016  11.591
62092W        W27253  10.000  38.067  11.987
62093W        W27254  25.350  14.427  13.446
62094W        W27255  11.652  39.449   1.911
62095W        W27256  42.360  41.182   3.895
62096W        W27257  43.062  36.161   2.954
62097W        W27258  13.063  30.448   1.842
62098W        W27259  31.184  22.747  13.122
62099W        W27260  16.619   2.374  12.473
62100W        W27261   0.238  24.570  10.699
62101W        W27262  14.055  30.498  13.003
62102W        W27263  23.582   5.967  14.865
62103W        W27264   0.992  25.530   4.144
62104W        W27265  18.312  44.857   2.342
62105W        W27266  31.257  11.371   2.202
62106W        W27267  41.609  16.691  14.682
62107W        W27268  20.783   8.232   1.018
62108W        W27269  12.804   5.817   4.788
62109W        W27270  16.882  21.658   4.734
62110W        W27271   9.778  36.626   4.159
62111W        W27272  28.725  11.625  14.372
62112W        W27273  22.648   1.463  14.945
62113W        W27274  11.330  12.543  14.780
62114W        W27275  18.016  39.404   2.234
62115W        W27276  28.460  40.838  12.954
62116W        W27277  26.469  17.557   4.066
62117W        W27278  16.856   0.071  13.231
62118W        W27279  21.388  13.836  14.019
62119W        W27280  27.595   6.928   2.162
62120W        W27281   9.298  20.734   3.352
62121W        W27282  43.265  15.826   2.164
62122W        W27283  36.778   9.476  14.957
62123W        W27284  39.362  26.597  13.860
62124W        W27285   8.952  28.852  13.028
62125W        W27286  28.826  12.071  12.400
62126W        W27287  44.469  31.412  12.988
62127W        W27288  41.789   5.589  14.290
62128W        W27289  36.944  39.197   2.269
62129W        W27290   9.528  24.157   2.800
62130W        W27291   7.751  40.207   1.271
62131W        W27292  17.361  19.103   3.628
62132W        W27293  22.799  22.616  12.092
62133W        W27294  32.340  30.720   4.297
62134W        W27295  11.095  34.540   4.669
62135W        W27296   5.265  35.471   1.134
62136W        W27297  40.524  43.542  14.722
62137W        W27298  35.864  18.976  13.276
62138W        W27299  23.979  27.664   3.639
62139W        W27300  23.615  10.364   3.756
62140W        W27301  14.314  17.113   4.572
62141W        W27302  12.305  35.463  12.946
62142W        W27303   0.992  22.185  11.462
62143W        W27304  43.303  10.323   4.086
62144W        W27305   7.695  38.966  10.838
62145W        W27306  32.200   8.564   3.348
62146W        W27307   6.238  36.392  10.473
62147W        W27308   0.826   8.899  13.548
62148W        W27309  20.579  41.757  11.191
62149W        W27310  33.113   4.972  12.013
62150W        W27311  32.586  13.992  11.523
62151W        W27312  30.860   8.666  10.806
62152W        W27313  29.922  19.661  14.031
62153W        W27314  26.792  43.413   4.618
62154W        W27315  24.296  27.745  10.678
62155W        W27316  25.676  41.467   1.413
62156W        W27317   2.976  29.434   3.713
62157W        W27318  38.293  31.356  14.717
62158W        W27319  12.733  40.931   2.190
62159W        W27320  16.564  29.349   3.666
62160W        W27321  35.804  16.853   2.853
62161W        W27322  40.011  13.808   0.996
62162W        W27323  21.315  40.081   1.708
62163W        W27324   7.177  35.794   1.315
62164W        W27325   2.052  34.638  12.340
62165W        W27326  34.982   8.625  11.564
62166W        W27327  22.553  25.083  10.161
62167W        W27328  11.428  12.230   1.406
62168W        W27329  27.690  36.124   4.705
62169W        W27330   2.565  40.705  12.827
62170W        W27331  17.934   0.320   1.002
62171W        W27332   0.053  42.280  11.574
62172W        W27333   7.742  22.364   5.120
62173W        W27334  42.364  40.013  11.082
62174W        W27335  35.713  30.502   0.893
62175W        W27336  17.052  29.840  14.515
62176W        W27337  22.439  40.924   3.682
62177W        W27338  38.873  43.770  13.912
62178W        W27339  20.031  18.858  10.688
62179W        W27340   1.968   3.879  12.420
62180W        W27341  37.875  33.405   2.107
62181W        W27342  43.438  21.700  14.243
62182W        W27343  26.179  16.319  13.590
62183W        W27344  42.913  21.547  12.844
62184W        W27345  12.699  31.499   1.913
62185W        W27346  20.085  20.667  12.058
62186W        W27347  38.938  21.266  12.432
62187W        W27348   0.972  18.541  10.724
62188W        W27349   2.694   7.470  12.169
62189W        W27350  30.710  43.785   0.412
62190W        W27351  40.355   7.090  10.722
62191W        W27352  41.058  44.823  13.846
62192W        W27353  19.120  43.724   3.182
62193W        W27354  20.009  34.170   3.758
62194W        W27355  32.830   3.384   2.898
62195W        W27356  16.615  10.690   0.395
62196W        W27357  39.474  40.916  13.675
62197W        W27358  23.274  35.962  12.175
62198W        W27359   4.308  32.191  13.457
62199W        W27360  39.454  41.571   2.311
62200W        W27361  13.788  29.975   2.846
62201W        W27362   9.631   6.125   3.222
62202W        W27363  42.860   6.238   1.013
62203W        W27364   0.396   0.737  11.802
62204W        W27365  12.330  14.435   0.928
62205W        W27366  21.837  24.024  14.329
62206W        W27367  41.285  22.484   2.159
62207W        W27368   7.168  24.457  14.314
62208W        W27369   2.299  36.793   4.263
62209W        W27370  21.102  19.015  13.766
62210W        W27371  44.856   5.116  10.875
62211W        W27372   5.122  15.624   2.079
62212W        W27373  41.219   3.386   1.833
62213W        W27374  31.728  29.349  11.953
62214W        W27375  25.733   5.416   2.346
62215W        W27376   6.953  33.110   2.273
62216W        W27377  39.377   4.935  11.131
62217W        W27378  26.526  27.480   4.910
62218W        W27379   8.894  35.460  12.059
62219W        W27380  24.592  22.661  12.031
62220W        W27381  14.168   7.653   1.815
62221W        W27382  34.417  16.763   3.356
62222W        W27383  31.890   2.803  12.422
62223W        W27384  36.581  18.303   3.295
62224W        W27385  39.688  16.681  14.445
62225W        W27386  10.382   2.330   2.592
62226W        W27387   0.387  13.274  13.863
62227W        W27388  12.094  21.583   4.004
62228W        W27389  24.752  14.589   2.866
62229W        W27390  18.636  14.322   4.962
62230W        W27391  40.517  19.956   2.184
62231W        W27392   6.411  22.427   3.356
62232W        W27393   5.329  26.913  11.796
62233W        W27394  19.365  39.010   1.858
62234W        W27395  19.810   4.747   1.709
62235W        W27396   1.879  17.092  14.964
62236W        W27397  28.484   0.482  10.706
62237W        W27398  33.583  38.931  11.225
62238W        W27399   9.608  17.614  10.616
62239W        W27400  30.510  25.115  14.402
62240W        W27401  10.636  16.553   2.709
62241W        W27402   9.674   7.882   1.907
62242W        W27403   2.046  20.586  13.557
62243W        W27404  27.006  22.810  14.401
62244W        W27405  23.525   1.837   0.416
62245W        W27406  19.484  13.453  13.970
62246W        W27407  22.610   9.632   1.300
62247W        W27408   9.136  41.994   1.291
62248W        W27409   0.354  26.429  14.268
62249W        W27410  24.448  27.180  13.128
62250W        W27411  25.113  41.959  13.988
62251W        W27412   9.169  42.656  13.316
62252W        W27413  13.545  24.862  12.133
62253W        W27414  19.206  39.364  13.497
62254W        W27415  26.637   7.389   3.405
62255W        W27416  39.593  16.723  10.498
62256W        W27417  24.787  31.519   1.808
62257W        W27418   3.258  45.000  11.147
62258W        W27419  20.660   7.277  14.244
62259W        W27420   2.362  14.161  14.331
62260W        W27421  20.773  28.399  12.577
62261W        W27422  34.570  16.803  14.576
62262W        W27423  25.782  16.647  13.671
62263W        W27424  28.612  30.414   3.840
62264W        W27425   7.848  11.143  14.948
62265W        W27426  22.490  13.609  11.805
62266W        W27427  37.081   1.329   2.952
62267W        W27428  22.591  38.939   5.056
62268W        W27429   1.783  15.206  14.599
62269W        W27430  20.013  14.381  12.951
62270W        W27431   1.555  44.365  12.848
62271W        W27432  34.591   4.751  10.467
62272W        W27433  23.601  35.598   2.682
62273W        W27434  31.358  41.415   2.239
62274W        W27435  17.290  25.010   1.880
62275W        W27436  16.686   9.222   4.785
62276W        W27437  34.382   8.151  12.209
62277W        W27438  43.186  35.080   1.723
62278W        W27439  15.286  38.354  11.700
62279W        W27440  29.364   6.750  13.080
62280W        W27441   9.649  39.658   3.283
62281W        W27442  22.202  21.699   3.350
62282W        W27443   8.208  25.159  13.888
62283W        W27444  11.249  41.091   0.273
62284W        W27445  34.921  11.384   0.787
62285W        W27446  12.845  18.699   0.535
62286W        W27447  44.986  14.865  11.099
62287W        W27448  25.262   7.398   2.452
62288W        W27449  32.291  30.738  12.058
62289W        W27450  41.966   2.154   3.269
62290W        W27451  29.926   2.797  11.029
62291W        W27452  27.758  31.081   1.212
62292W        W27453  40.002   5.269  14.429
62293W        W27454  31.927  27.924   4.084
62294W        W27455  10.043  30.616  14.874
62295W        W27456  36.305  14.718   1.074
62296W        W27457  14.908  13.525   3.035
62297W        W27458  25.034   2.321   4.487
62298W        W27459   5.188  18.728   3.681
62299W        W27460  15.119   6.359  13.513
62300W        W27461  31.250  23.464  14.460
62301W        W27462  26.145  20.462  11.488
62302W        W27463   9.702  42.628  11.996
62303W        W27464   4.805  15.451  13.876
62304W        W27465   5.403  42.571   1.122
62305W        W27466  28.107  16.616  13.081
62306W        W27467   5.223  39.311  13.985
62307W        W27468  18.720  26.394   4.857
62308W        W27469  20.795  28.191  13.094
62309W        W27470  31.853  20.785   1.075
62310W        W27471   5.163  29.240  13.930
62311W        W27472   7.948   5.151  13.001
62312W        W27473  35.028   0.746  10.723
62313W        W27474  41.460   4.198   1.435
62314W        W27475  22.015  31.836   0.342
62315W        W27476  10.576  37.830   2.410
62316W        W27477   6.404  31.973  14.236
62317W        W27478  21.733   8.122   3.561
62318W        W27479  32.932  23.201  14.279
62319W        W27480   9.658  16.725   1.455
62320W        W27481  20.688  33.733   4.182
62321W        W27482   6.971  40.394   0.552
62322W        W27483  21.320  20.905  12.709
62323W        W27484  35.643  24.118   4.177
62324W        W27485   2.452  20.561  10.670
62325W        W27486  15.081  32.417   0.735
62326W        W27487  16.430  19.637   0.496
62327W        W27488  32.887  28.019   1.382
62328W        W27489   6.516  13.136  12.474
62329W        W27490  27.195  39.275   0.167
62330W        W27491  30.377  22.140   5.072
62331W        W27492   2.629  33.988  12.538
62332W        W27493  34.832  33.576  11.639
62333W        W27494   5.168   4.617   0.309
62334W        W27495  41.814  14.117   4.700
62335W        W27496  21.246  26.170  14.023
62336W        W27497  27.725   6.932   3.419
62337W        W27498   7.992  41.747  14.351
62338W        W27499  26.442  35.482  11.597
62339W        W27500  27.615  13.728   2.793
62340W        W27501  29.957  27.024  11.106
62341W        W27502  44.284  32.416  12.102
62342W        W27503   6.140   8.143   3.655
62343W        W27504  39.775  29.623   2.345
62344W        W27505   3.464  38.887   1.736
62345W        W27506  25.015  41.984   1.894
62346W        W27507  15.382  27.053  10.532
62347W        W27508  39.642   2.019   3.673
62348W        W27509  21.296   1.306   3.015
62349W        W27510  26.037   0.921   4.708
62350W        W27511  44.559  44.251  11.524
62351W        W27512  14.613  38.799  13.468
62352W        W27513   4.237  37.862   2.432
62353W        W27514  34.186  17.761   0.328
62354W        W27515  40.746  10.854  11.576
62355W        W27516  31.144  30.270   4.693
62356W        W27517  20.155  41.886  13.010
62357W        W27518   7.901  16.722  11.596
62358W        W27519  14.131  24.576   3.417
62359W        W27520   6.468  24.775   1.740
62360W        W27521   7.065  35.865  13.739
62361W        W27522  36.806  16.604   3.620
62362W        W27523  25.446   3.354   4.819
62363W        W27524  43.361   8.738   2.638
62364W        W27525  16.832  32.102   0.958
62365W        W27526  18.366  34.059   1.717
62366W        W27527  25.778  24.663  12.015
62367W        W27528  30.322   2.261  14.374
62368W        W27529   0.786  41.998  14.309
62369W        W27530  44.620  15.278  10.723
62370W        W27531   6.671   0.790  11.590
62371W        W27532  25.606  25.063   2.865
62372W        W27533  32.465  34.490   3.938
62373W        W27534  13.608  35.991  11.091
62374W        W27535  37.844  34.478  11.200
62375W        W27536  31.543  30.065  14.157
62376W        W27537  14.147  42.700  13.889
62377W        W27538  28.473  21.321  11.612
62378W        W27539  22.579   4.160  12.760
62379W        W27540  41.450  36.392  14.996
62380W        W27541   9.406  32.468  14.313
62381W        W27542  43.836  28.555   0.749
62382W        W27543  10.810  12.647  11.774
62383W        W27544  40.377  40.456  11.002
62384W        W27545  44.262  24.767  10.417
62385W        W27546  17.067  10.148  12.823
62386W        W27547  16.403  11.603  12.037
62387W        W27548  25.068  38.814  13.541
62388W        W27549  35.023   3.393  11.239
62389W        W27550   8.451  27.908  11.140
62390W        W27551  42.340  21.280   4.524
62391W        W27552  12.139  28.990   2.339
62392W        W27553  38.637  41.492   4.477
62393W        W27554   8.086   3.394  12.563
62394W        W27555   8.227   8.859  14.004
62395W        W27556   6.851  32.619  10.595
62396W        W27557  40.023   9.906   1.847
62397W        W27558   8.927  20.668  11.011
62398W        W27559  28.027  22.418  13.515
62399W        W27560  25.590   6.085  12.156
62400W        W27561   1.248  22.589  11.304
62401W        W27562  15.409   0.333   0.681
62402W        W27563  17.131  38.821   1.346
62403W        W27564   1.810   2.744   3.106
62404W        W27565   0.390  32.059   0.441
62405W        W27566  17.762  37.589  13.853
62406W        W27567  32.032  41.388  10.905
62407W        W27568  40.834  18.111  14.421
62408W        W27569  36.249  26.373   4.175
62409W        W27570  25.473  30.370  12.534
62410W        W27571  24.665   8.049   4.103
62411W        W27572  23.937  19.190   2.524
62412W        W27573  33.321  27.281  12.027
62413W        W27574  22.728  21.805  13.871
62414W        W27575  33.041  24.324  11.125
62415W        W27576  20.268  37.127  10.682
62416W        W27577   0.187  26.214   0.940
62417W        W27578  21.090  29.548   1.883
62418W        W27579  37.265  44.419  11.546
62419W        W27580  18.834  13.092   4.623
62420W        W27581  31.393  14.382  11.492
62421W        W27582  26.322  36.929  11.597
62422W        W27583  10.729  30.968  10.752
62423W        W27584  34.249  35.955   5.087
62424W        W27585  21.447  29.156   4.031
62425W        W27586  42.109   7.709  11.534
62426W        W27587  36.267  31.445  10.656
62427W        W27588  38.946  21.312  14.518
62428W        W27589  39.096   1.325   2.860
62429W        W27590  11.082  28.966   0.158
62430W        W27591  43.061  34.775  14.873
62431W        W27592  13.677  43.499  14.315
62432W        W27593  27.146   4.799   1.405
62433W        W27594  23.585  35.914  10.907
62434W        W27595  25.330  21.223  14.042
62435W        W27596  39.373   2.921  10.842
62436W        W27597  40.516  38.567  14.453
62437W        W27598   6.772  28.225  12.470
62438W        W27599  26.424  43.259  10.256
62439W        W27600   7.215  11.338  14.429
62440W        W27601   5.729   7.301   0.120
62441W        W27602  36.821  10.412   4.522
62442W        W27603  29.537  25.235   2.278
62443W        W27604  24.278  37.561   4.954
62444W        W27605  24.991  42.572  10.241
62445W        W27606  30.225  31.685   2.794
62446W        W27607  33.072   5.484  11.985
62447W        W27608  30.845  21.694   4.006
62448W        W27609  17.671  10.642   4.219
62449W        W27610   9.968  12.049  11.007
62450W        W27611  17.756  20.434   2.398
62451W        W27612  36.241  13.739   1.501
62452W        W27613  44.871   2.424  13.990
62453W        W27614  15.526  21.053   3.142
62454W        W27615  31.391  20.981  12.161
62455W        W27616  12.139  43.019   2.827
62456W        W27617  14.061  43.224   5.073
62457W        W27618   4.500  22.201   3.229
62458W        W27619  11.572  11.505   2.394
62459W        W27620  31.207  35.106   1.832
62460W        W27621  33.603   9.139  12.517
62461W        W27622  37.101   0.239  14.546
62462W        W27623  19.669  14.739   4.363
62463W        W27624   6.494   9.735  12.911
62464W        W27625  26.907  40.787   2.391
62465W        W27626   9.763  40.453  13.854
62466W        W27627   2.484  36.840   2.453
62467W        W27628  24.324  32.734  11.015
62468W        W27629  32.669   2.814   1.096
62469W        W27630  30.182  33.493   1.464
62470W        W27631  43.358  22.545  12.058
62471W        W27632  18.097   2.943  10.450
62472W        W27633  31.196  20.221   4.152
62473W        W27634   1.733  36.908  14.386
62474W        W27635  35.875  44.103   2.749
62475W        W27636  21.904  42.069  14.438
62476W        W27637  28.482  44.762  12.430
62477W        W27638   4.683  23.610  13.380
62478W        W27639  11.280  41.425  10.590
62479W        W27640  38.662   1.290   1.438
62480W        W27641   6.248   9.285  11.989
62481W        W27642  30.557   9.101  12.487
62482W        W27643  36.972  40.881   3.726
62483W        W27644  34.107  15.771   4.144
62484W        W27645  14.322  24.078   0.400
62485W        W27646  44.962  15.774  12.443
62486W        W27647  24.384   5.371  12.006
62487W        W27648   9.585  35.256   3.452
62488W        W27649  17.137  19.144  12.131
62489W        W27650  25.197  29.566   0.032
62490W        W27651  38.505  23.524  10.503
62491W        W27652  20.470  42.964   3.296
62492W        W27653  31.566  43.559  10.761
62493W        W27654  16.987  20.117  13.671
62494W        W27655  12.361  29.608  13.376
62495W        W27656   2.967  27.682  12.895
62496W        W27657  15.534  37.925  11.569
62497W        W27658  27.498  15.891   0.374
62498W        W27659  34.119  41.495   1.704
62499W        W27660  38.844  12.022  14.405
62500W        W27661  23.090  41.034  14.660
62501W        W27662   2.763   8.168   0.886
62502W        W27663  26.144  22.002  12.588
62503W        W27664  15.201  16.006   2.682
62504W        W27665  24.553  30.115  10.702
62505W        W27666  42.511   7.679   0.713
62506W        W27667  39.633  15.098  12.668
62507W        W27668  34.380  28.141   0.749
62508W        W27669  35.859  18.675   0.968
62509W        W27670  12.190   5.193  11.678
62510W        W27671  22.926  41.500   4.615
62511W        W27672  16.671  41.335   2.293
62512W        W27673  33.043  11.775   3.839
62513W        W27674  36.473   0.290  13.436
62514W        W27675  39.028   0.951   3.240
62515W        W27676  34.485  42.727  12.065
62516W        W27677  32.656  14.409   2.341
62517W        W27678  16.502  38.981   4.415
62518W        W27679  43.775  12.710  13.467
62519W        W27680  26.989  23.141   4.979
62520W        W27681  43.133  20.403  11.224
62521W        W27682  29.014  23.943  13.089
62522W        W27683  34.767  32.783  12.994
62523W        W27684  15.787  19.761   2.868
62524W        W27685  40.705  40.981  10.692
62525W        W27686  32.832  13.135   4.493
62526W        W27687   1.025  16.140  10.718
62527W        W27688   4.705  10.878  14.431
62528W        W27689  12.704  12.922   4.524
62529W        W27690  40.557   4.840   0.334
62530W        W27691  11.384   1.746   4.234
62531W        W27692  42.021  22.152   3.892
62532W        W27693  11.814  34.076   2.842
62533W        W27694   4.210   8.865   3.903
62534W        W27695   7.853  25.554  12.970
62535W        W27696  42.487  16.836  10.897
62536W        W27697  28.033  20.741  14.410
62537W        W27698  13.764  16.120   2.506
62538W        W27699  28.953   0.222   4.358
62539W        W27700  38.555   8.683  10.761
62540W        W27701  20.818   5.446  12.231
62541W        W27702  38.776  40.036  14.544
62542W        W27703  21.550  12.335   1.685
62543W        W27704  39.317  18.173  12.161
62544W        W27705  13.909  22.484   4.762
62545W        W27706  40.290   3.842   1.848
62546W        W27707  17.465  32.196  12.496
62547W        W27708  34.608  13.427  14.515
62548W        W27709  29.088  26.920  11.506
62549W        W27710  34.142   8.433   3.326
62550W        W27711  28.146   7.201   4.903
62551W        W27712  11.148   2.351  12.986
62552W        W27713   7.882  17.368   0.863
62553W        W27714  28.223   6.409  11.006
62554W        W27715  31.372  20.810  14.889
62555W        W27716  14.881  12.186   0.677
62556W        W27717  10.517   1.315   9.879
62557W        W27718   8.308  43.512  10.613
62558W        W27719   9.601   3.274   1.302
62559W        W27720  19.722  34.655  10.825
62560W        W27721  24.119   1.280   3.385
62561W        W27722   6.156  22.560   1.670
62562W        W27723  39.907  28.558  14.309
62563W        W27724  43.765  21.291   2.011
62564W        W27725  13.680  30.530  12.402
62565W        W27726  31.969  25.356   0.862
62566W        W27727  33.376  36.038  14.310
62567W        W27728  10.307  37.443  10.706
62568W        W27729   0.199  44.993   0.516
62569W        W27730  16.313   0.883  14.386
62570W        W27731  35.676  19.746   2.659
62571W        W27732   2.060  41.590   1.692
62572W        W27733  39.581   4.458   2.319
62573W        W27734  26.245  18.484  11.139
62574W        W27735   0.893  20.088   1.480
62575W        W27736   6.420  14.822  14.451
62576W        W27737  31.520  44.478   3.265
62577W        W27738   4.861   7.726  14.205
62578W        W27739  31.461  14.755   2.957
62579W        W27740  22.051  43.990   4.189
62580W        W27741  39.182  26.720   1.433
62581W        W27742  37.592  29.673  11.949
62582W        W27743  25.203  21.030   2.680
62583W        W27744  13.575  20.540   1.550
62584W        W27745  24.332  30.526   4.088
62585W        W27746   7.819  43.601  14.710
62586W        W27747  43.879  32.269   4.180
62587W        W27748   2.295   7.662  11.559
62588W        W27749  21.481  26.740  11.610
62589W        W27750  43.983  34.329   0.035
62590W        W27751  33.220  44.928  13.495
62591W        W27752  14.722  44.976   2.729
62592W        W27753  35.337  44.167   2.734
62593W        W27754  32.839   1.276   4.147
62594W        W27755  12.128  17.314   2.767
62595W        W27756  29.765  36.352  14.082
62596W        W27757  19.753   2.738  14.818
62597W        W27758  16.065  40.928  13.822
62598W        W27759   4.793  31.241  13.032
62599W        W27760   4.848   4.780   1.624
62600W        W27761  26.799  39.454   0.765
62601W        W27762  19.321   6.281   2.703
62602W        W27763   6.723  17.273   0.394
62603W        W27764  36.054   5.963   3.625
62604W        W27765  15.850  44.629   4.971
62605W        W27766  35.844   4.669  12.435
62606W        W27767  29.141  14.240  13.346
62607W        W27768  21.567  43.236   1.150
62608W        W27769  42.787  22.745  12.514
62609W        W27770  18.807  33.810   0.443
62610W        W27771   9.280  25.870  13.514
62611W        W27772  27.152  39.487   1.141
62612W        W27773   3.962  18.689   1.345
62613W        W27774  32.987  10.789   4.846
62614W        W27775  24.032  29.890   2.876
62615W        W27776  21.583  38.404  10.638
62616W        W27777  28.309  40.041   4.537
62617W        W27778  43.066   6.967  11.133
62618W        W27779  24.103  29.893   0.913
62619W        W27780  20.042  32.495  11.747
62620W        W27781  17.138  11.782   2.727
62621W        W27782   0.903   6.848   2.692
62622W        W27783   2.537  39.909   0.884
62623W        W27784  39.071  33.368  10.534
62624W        W27785  33.461  38.775  12.577
62625W        W27786  25.492  28.128  11.226
62626W        W27787  29.613   1.710   4.171
62627W        W27788  35.457  28.002  10.394
62628W        W27789  18.608  44.874   0.606
62629W        W27790  26.983  33.509   0.033
62630W        W27791  12.020  17.067   0.841
62631W        W27792  17.125   9.807  14.026
62632W        W27793  36.632   9.496   3.179
62633W        W27794  18.592  24.842  12.027
62634W        W27795  18.776  35.281   1.677
62635W        W27796  30.013   1.066   0.918
62636W        W27797  40.780   5.363  11.576
62637W        W27798  23.700  21.764  12.432
62638W        W27799  27.448  14.432   2.333
62639W        W27800   9.321  16.606   2.315
62640W        W27801  14.591  20.043   3.227
62641W        W27802  12.726   8.911  14.556
62642W        W27803  11.152  12.931   0.713
62643W        W27804  24.360  15.591   3.526
62644W        W27805  18.764  23.163  14.294
62645W        W27806  43.293  25.137   2.731
62646W        W27807   6.445   5.402  14.809
62647W        W27808  37.814  16.638  11.838
62648W        W27809  31.294  35.773  10.973
62649W        W27810  10.014  32.394   1.240
62650W        W27811  44.033   0.921  14.038
62651W        W27812  20.729  30.486   2.424
62652W        W27813   0.251   4.169   0.339
62653W        W27814  41.268  37.395  13.844
62654W        W27815  25.499  16.610   3.395
62655W        W27816  43.239  43.794   3.087
62656W        W27817  14.853  27.943   1.741
62657W        W27818  21.474  32.656   2.128
62658W        W27819  38.092   6.863   0.368
62659W        W27820   7.050  18.064   0.406
62660W        W27821  31.180  12.305   0.398
62661W        W27822  30.081  43.554   3.063
62662W        W27823  43.967  20.679  12.443
62663W        W27824  20.661  16.337   2.732
62664W        W27825  29.129  34.849  10.612
62665W        W27826  13.318  32.069   2.175
62666W        W27827  40.228  15.530  13.457
62667W        W27828   6.698  38.909   3.245
62668W        W27829  31.961   9.898   3.819
62669W        W27830  30.615  43.781  14.451
62670W        W27831  20.352   3.292   3.774
62671W        W27832  10.305  23.945   4.029
62672W        W27833  24.751   3.695   2.446
62673W        W27834   7.246   6.836  14.253
62674W        W27835   4.448  24.142  12.638
62675W        W27836  23.201  15.831  12.521
62676W        W27837   8.700  44.848  14.376
62677W        W27838  31.034  33.234  14.331
62678W        W27839  34.614  41.006  11.973
62679W        W27840  13.576   1.383  12.101
62680W        W27841  43.332  19.078  13.817
62681W        W27842  28.954  39.286   0.868
62682W        W27843   6.925  19.168  14.706
62683W        W27844  32.672   5.193   2.498
62684W        W27845  42.730  25.488   2.068
62685W        W27846  24.517  22.968  12.452
62686W        W27847  20.007   3.383   4.135
62687W        W27848   5.416  21.009   3.896
62688W        W27849   2.213  19.345  12.402
62689W        W27850  36.071   5.438  13.891
62690W        W27851  28.634  34.041  11.673
62691W        W27852   4.040  15.315   3.197
62692W        W27853   2.352  25.204   4.524
62693W        W27854   2.439   3.997  12.905
62694W        W27855  25.325  44.775  13.514
62695W        W27856  28.682  33.995   0.777
62696W        W27857  29.905  10.465   5.185
62697W        W27858  34.505  21.474  12.508
62698W        W27859  33.734  19.624   1.906
62699W        W27860  28.452  34.312  13.144
62700W        W27861   1.481   3.458  10.892
62701W        W27862  31.680  34.088   2.871
62702W        W27863  11.392   9.881  14.868
62703W        W27864  26.141  14.420   4.226
62704W        W27865  19.651  33.404  14.035
62705W        W27866   6.505  18.701  12.098
62706W        W27867  35.562   8.223  14.909
62707W        W27868  30.879  12.191   2.264
62708W        W27869  37.837  32.044  14.417
62709W        W27870   4.282  44.439   3.612
62710W        W27871  35.270  19.898  11.679
62711W        W27872  29.703  21.034   3.307
62712W        W27873  10.229  38.372   4.325
62713W        W27874  26.286   3.754  11.542
62714W        W27875  18.475  29.977   4.105
62715W        W27876  43.779  36.501  14.449
62716W        W27877   9.390  42.399   0.360
62717W        W27878  19.962  35.512   0.463
62718W        W27879  15.266   5.737  12.949
62719W        W27880  23.136  35.448  13.850
62720W        W27881   3.756   8.507   0.908
62721W        W27882  27.772   6.928  13.550
62722W        W27883  11.121  20.916   2.170
62723W        W27884  26.130  25.247   2.859
62724W        W27885  43.197  35.388   1.293
62725W        W27886  13.146  27.495   1.919
62726W        W27887  36.864  39.892  14.808
62727W        W27888  13.284  42.841  11.946
62728W        W27889  33.807   4.483   4.946
62729W        W27890  32.185  28.565  11.553
62730W        W27891   4.614  26.960  12.499
62731W        W27892  32.810   4.083   1.198
62732W        W27893  21.329  15.697   0.043
62733W        W27894   0.418  15.591   0.434
62734W        W27895  37.678   6.507   0.364
62735W        W27896  26.703   0.189   4.518
62736W        W27897  40.227  28.731  10.386
62737W        W27898  40.513  27.895   4.103
62738W        W27899  16.473   9.178  13.870
62739W        W27900  26.098  39.044  10.074
62740W        W27901  21.572   8.714   0.938
62741W        W27902  39.259  27.735   3.686
62742W        W27903  29.066  19.523   0.118
62743W        W27904   7.073  12.669  14.878
62744W        W27905  41.149   6.385  11.491
62745W        W27906  21.216  35.988  13.419
62746W        W27907  44.015  28.952  10.106
62747W        W27908  41.750  26.882   0.850
62748W        W27909  12.575  20.616  13.892
62749W        W27910  33.745  12.895  14.765
62750W        W27911  16.520  43.899   3.702
62751W        W27912  12.336  28.675   2.751
62752W        W27913  18.125   9.704   1.980
62753W        W27914   2.332  23.050   1.968
62754W        W27915   0.924   9.587   5.070
62755W        W27916  27.435   8.167  13.043
62756W        W27917   4.850   1.957  13.974
62757W        W27918   3.840  23.407   4.906
62758W        W27919  23.969  42.815   3.689
62759W        W27920  31.647  11.210  11.240
62760W        W27921   4.274  29.944   4.050
62761W        W27922  40.825   4.791   2.528
62762W        W27923   8.502  40.245  13.995
62763W        W27924   1.210  29.177   4.552
62764W        W27925  44.345  37.194  11.117
62765W        W27926  26.706  35.939  14.850
62766W        W27927  23.713  40.823  12.904
62767W        W27928   6.383  28.196  14.375
62768W        W27929  16.655  33.487   3.520
62769W        W27930  26.316  24.169   2.356
62770W        W27931  15.695   8.140  12.650
62771W        W27932  42.293  32.401  12.540
62772W        W27933   7.850  41.250  14.312
62773W        W27934  33.623  36.284   3.003
62774W        W27935  25.048  44.188  12.444
62775W        W27936   0.018  12.375   0.490
62776W        W27937  41.407  43.103   1.782
62777W        W27938  14.260  27.150  13.431
62778W        W27939   7.281  33.087  14.944
62779W        W27940  41.883  10.660  11.655
62780W        W27941  28.501  22.124  10.224
62781W        W27942  23.931  11.803  11.970
62782W        W27943  27.473  30.407   0.408
62783W        W27944  12.777   6.904  12.479
62784W        W27945  10.729   0.936   4.421
62785W        W27946  24.511  22.412   2.198
62786W        W27947  27.992  37.124   0.641
62787W        W27948  31.505  28.861  11.979
62788W        W27949  12.583  31.618  11.667
62789W        W27950  38.089  36.544   4.303
62790W        W27951  32.119  29.083  11.596
62791W        W27952  38.422  30.241  12.304
62792W        W27953  29.074  39.383  10.497
62793W        W27954  40.869  41.425   3.348
62794W        W27955  43.566   7.356   4.031
62795W        W27956   4.530  39.012  12.547
62796W        W27957  44.691  22.050  11.012
62797W        W27958  20.011  25.347  14.753
62798W        W27959   6.780  42.385   4.103
62799W        W27960  12.825  33.328   5.111
62800W        W27961   9.332   6.177   3.643
62801W        W27962  37.916  17.619  14.794
62802W        W27963   6.787  13.841  11.242
62803W        W27964  35.292   9.426  13.665
62804W        W27965   4.196  29.602  13.824
62805W        W27966  17.786  34.040   2.582
62806W        W27967  41.231  16.319   0.908
62807W        W27968  23.018   0.530  11.602
62808W        W27969   6.154   7.416  13.452
62809W        W27970  15.872   7.707  13.512
62810W        W27971  44.981   3.564  14.550
62811W        W27972   1.819   0.727   1.462
62812W        W27973  20.160  30.218   3.729
62813W        W27974  40.936   5.888   3.586
62814W        W27975  38.526  29.367   2.620
62815W        W27976  25.099  22.084   3.602
62816W        W27977  27.956  15.364  12.410
62817W        W27978   6.310   6.729   0.608
62818W        W27979  18.716  19.009  11.124
62819W        W27980  22.595   4.278   1.920
62820W        W27981   5.168  10.289   1.172
62821W        W27982  22.712  24.604  10.729
62822W        W27983  36.384  26.874   4.280
62823W        W27984   6.902  29.780  11.548
62824W        W27985   1.840  16.251   0.975
62825W        W27986   0.874  35.043   1.469
62826W        W27987   0.761   2.468   1.824
62827W        W27988  34.122  27.245  13.538
62828W        W27989   9.661  42.832   0.443
62829W        W27990   8.384   6.000   0.001
62830W        W27991  31.948  19.559  12.098
62831W        W27992  13.643   1.365  11.214
62832W        W27993   0.319  33.825  10.030
62833W        W27994  34.724  22.576   2.619
62834W        W27995  16.720  12.584   4.734
62835W        W27996   5.894   8.004   4.330
62836W        W27997  20.320  19.102   3.161
62837W        W27998  17.084  43.661  13.819
62838W        W27999  34.068  18.244   4.042
62839W        W28000  44.849  39.515   4.551
62840W        W28001  42.238  17.174   4.939
62841W        W28002  14.048  28.460  11.589
62842W        W28003  15.691  32.599  14.546
62843W        W28004  21.544   6.452  14.383
62844W        W28005   9.167  21.016  11.571
62845W        W28006  26.521  33.262   0.832
62846W        W28007  20.758  14.380   2.006
62847W        W28008  41.481   6.004   2.411
62848W        W28009  44.930  39.937  11.903
62849W        W28010   9.674  13.121   4.449
62850W        W28011   7.479  11.561  11.958
62851W        W28012  42.349  17.239   4.426
62852W        W28013   5.451  25.142  12.925
62853W        W28014  43.129  31.550  12.082
62854W        W28015   7.580  34.808   0.315
62855W        W28016  39.404  18.579   3.153
62856W        W28017  36.345  41.313   4.118
62857W        W28018  14.824   8.145   1.361
62858W        W28019   4.270  20.066  10.753
62859W        W28020  30.645  44.338   1.709
62860W        W28021  28.482  14.470  12.366
62861W        W28022  42.957  20.743   0.945
62862W        W28023  22.657   6.311  10.403
62863W        W28024   1.234  18.679  14.010
62864W        W28025  35.802  22.260  12.540
62865W        W28026  13.114  15.691  13.858
62866W        W28027  29.969  26.617   3.675
62867W        W28028  13.089  42.350   1.142
62868W        W28029  31.347  11.647  11.180
62869W        W28030  43.937   3.173  12.900
62870W        W28031   0.527  33.547   4.656
62871W        W28032  26.985  21.162   2.165
62872W        W28033  32.896   3.233  11.610
62873W        W28034  42.561  34.491  11.342
62874W        W28035  10.632  33.692   0.609
62875W        W28036  39.428  13.197   0.825
62876W        W28037  12.065  21.200  12.820
62877W        W28038  27.478  31.078   4.218
62878W        W28039  21.654  25.296  11.670
62879W        W28040  36.379  29.231  11.128
62880W        W28041  29.042  27.765   2.545
62881W        W28042  26.645  32.778   4.091
62882W        W28043  21.257  42.283  13.430
62883W        W28044  25.158  10.845   0.377
62884W        W28045  42.347   9.892   0.521
62885W        W28046  35.440  12.887   0.243
62886W        W28047  10.564  41.015   2.794
62887W        W28048  26.144  20.589  13.206
62888W        W28049  31.463  24.431  12.386
62889W        W28050  26.027   3.665   2.341
62890W        W28051   0.291   6.700  12.825
62891W        W28052  21.556  38.691  13.016
62892W        W28053  37.835  13.958  11.598
62893W        W28054  18.644  41.414  14.342
62894W        W28055  27.176   3.331   0.022
62895W        W28056  42.048  10.418  11.200
62896W        W28057  43.823  38.549  10.440
62897W        W28058   7.907  36.443  12.564
62898W        W28059  38.556  39.911   1.150
62899W        W28060  11.262  15.848   3.125
62900W        W28061   3.764  44.862  13.560
62901W        W28062  31.960  30.898  13.384
62902W        W28063   6.606   2.467  11.236
62903W        W28064  33.800  30.389   0.695
62904W        W28065  44.482  24.617  11.388
62905W        W28066  10.876  22.613   3.431
62906W        W28067  11.600  43.538   4.753
62907W        W28068  24.487  28.511   0.300
62908W        W28069  17.640  13.260  11.937
62909W        W28070  29.415  16.190   3.398
62910W        W28071  10.300  26.916  10.527
62911W        W28072  25.647  38.929  12.580
62912W        W28073   8.682   7.617   1.753
62913W        W28074  24.488  33.004   1.380
62914W        W28075  18.252  11.620  12.146
62915W        W28076  29.056   0.735  14.283
62916W        W28077  14.176  40.962  10.609
62917W        W28078  41.255  34.562  12.098
62918W        W28079  39.627  38.918   0.252
62919W        W28080  15.459  19.558   2.508
62920W        W28081   5.652   0.796  12.651
62921W        W28082   2.693  29.949  10.801
62922W        W28083  31.092  15.636   3.163
62923W        W28084  34.077  40.427  12.924
62924W        W28085  27.418  33.596   1.314
62925W        W28086   4.726  44.269   0.347
62926W        W28087  16.180  41.466   2.135
62927W        W28088  35.052   6.797   4.945
62928W        W28089  30.752   8.581   2.859
62929W        W28090  34.656  17.750  13.523
62930W        W28091  10.997  13.941   4.042
62931W        W28092   1.472  18.787  10.658
62932W        W28093  14.020  13.726   4.659
62933W        W28094  39.011  15.897   4.535
62934W        W28095  35.148  22.253   5.103
62935W        W28096  39.949  26.690   1.994
62936W        W28097  13.038  12.406  14.618
62937W        W28098  12.847  35.228   4.893
62938W        W28099  14.744  21.613  12.813
62939W        W28100  16.796  22.463  13.756
62940W        W28101  32.223   6.274   1.014
62941W        W28102  44.390  43.757  10.820
62942W        W28103   8.220  43.409   1.140
62943W        W28104  10.618  23.008   0.751
62944W        W28105  32.459  13.637  13.060
62945W        W28106   4.662  26.239  14.424
62946W        W28107   1.434  24.250   0.915
62947W        W28108  15.600   1.745   3.493
62948W        W28109  33.330  37.544   0.341
62949W        W28110  26.004  27.484  13.484
62950W        W28111  34.205  17.390  10.975
62951W        W28112  44.224   2.309  12.053
62952W        W28113   3.705  25.198   1.364
62953W        W28114  19.093  23.812   3.244
62954W        W28115  37.508  36.045   0.423
62955W        W28116   6.504   7.005   1.616
62956W        W28117  12.515  19.801   1.778
62957W        W28118  32.867  19.324   3.940
62958W        W28119  29.484  17.378  10.431
62959W        W28120  22.474   6.291   9.894
62960W        W28121  33.086   8.824  11.840
62961W        W28122  31.454  30.917  12.142
62962W        W28123  16.706  21.623   1.790
62963W        W28124  18.611  41.378  12.579
62964W        W28125  18.651  38.535  13.522
62965W        W28126  36.333  13.729   0.279
62966W        W28127  19.033  32.321   0.911
62967W        W28128  21.309  24.153   0.681
62968W        W28129   7.779  10.093   4.137
62969W        W28130  11.378   0.467  11.095
62970W        W28131  37.968   4.706   1.059
62971W        W28132   9.636  36.157   4.351
62972W        W28133  16.041  17.837  11.835
62973W        W28134  44.618  14.306  12.413
62974W        W28135  19.289  40.294  10.079
62975W        W28136   2.281   6.387   4.622
62976W        W28137   7.119  28.552  12.249
62977W        W28138  40.871   3.958   3.207
62978W        W28139  19.669  31.700   1.387
62979W        W28140  10.364  27.549  11.149
62980W        W28141  39.318  35.828  12.991
62981W        W28142  33.048   3.341   3.881
62982W        W28143  35.627  38.785   3.292
62983W        W28144  36.855  39.564   1.396
62984W        W28145   7.410  37.262  14.367
62985W        W28146   8.523  16.108   4.103
62986W        W28147  16.493  19.025  10.660
62987W        W28148  36.623   5.789  14.870
62988W        W28149  15.617  43.400   0.986
62989W        W28150  33.489  12.112   5.160
62990W        W28151  12.036   0.183   3.564
62991W        W28152   1.874  37.559  11.551
62992W        W28153  26.626  16.491  13.328
62993W        W28154   8.826  10.143   0.430
62994W        W28155  31.365  36.818  14.473
62995W        W28156  16.540  36.939   0.832
62996W        W28157  13.635  41.786   1.605
62997W        W28158   1.997  29.511   4.585
62998W        W28159   6.222  29.224  11.112
62999W        W28160  17.748   2.233  10.579
63000W        W28161   5.616  31.378   9.684
63001W        W28162  33.144  26.111  10.426
63002W        W28163   3.569  14.466  13.013
63003W        W28164  21.731   1.835  13.523
63004W        W28165  12.934  36.018  14.913
63005W        W28166  38.976  40.458   4.006
63006W        W28167  41.922   5.441  12.933
63007W        W28168  43.605  23.656   3.248
63008W        W28169  24.458  27.756   1.846
63009W        W28170  14.065  24.680  14.807
63010W        W28171  24.264   7.797   1.812
63011W        W28172  43.556  16.702   1.950
63012W        W28173  33.610  23.520   1.248
63013W        W28174   6.117  43.313   3.282
63014W        W28175  27.781   3.655   0.933
63015W        W28176   6.382  20.246  12.020
63016W        W28177  10.230   5.831  14.597
63017W        W28178  19.591  33.530   2.064
63018W        W28179  15.485  39.596   1.199
63019W        W28180  32.320  15.904  13.169
63020W        W28181  37.969  27.428  11.136
63021W        W28182   7.161  17.762   4.292
63022W        W28183  29.040  33.487   3.680
63023W        W28184  40.620  17.883   3.298
63024W        W28185  40.826  15.773   4.575
63025W        W28186  15.253   5.432  13.406
63026W        W28187  42.801  32.808   2.464
63027W        W28188  34.563  25.750   9.487
63028W        W28189  37.666  17.229  13.933
63029W        W28190  10.463  23.271   2.946
63030W        W28191  15.050  37.011  10.476
63031W        W28192  23.833  38.873  12.898
63032W        W28193   0.240  27.406   3.281
63033W        W28194  16.255  23.486   3.148
63034W        W28195  34.139   0.966  12.034
63035W        W28196  44.406   7.791   4.070
63036W        W28197  17.181   3.440   4.504
63037W        W28198  24.523   6.640   3.890
63038W        W28199  20.722   1.816  13.810
63039W        W28200   7.605   8.348  12.545
63040W        W28201  34.631  20.651   3.595
63041W        W28202   1.472   0.919   0.259
63042W        W28203  37.025  33.923  10.860
63043W        W28204  31.102  36.487   1.189
63044W        W28205   6.926  29.431   1.904
63045W        W28206   0.924  12.841   0.323
63046W        W28207   9.149  13.901  12.082
63047W        W28208   1.718  33.864  12.449
63048W        W28209  22.210   5.793  13.449
63049W        W28210   7.975  11.196   3.098
63050W        W28211  24.585  25.194  12.007
63051W        W28212  11.550   7.903  10.338
63052W        W28213   9.769  33.421   3.574
63053W        W28214  18.753  13.439  13.701
63054W        W28215  24.029   7.547  14.511
63055W        W28216  44.527  35.062  12.438
63056W        W28217  30.438  10.432   5.109
63057W        W28218  38.685  22.881   2.633
63058W        W28219  28.757   8.744   2.790
63059W        W28220  10.687  43.400  14.985
63060W        W28221  19.819  22.450   4.157
63061W        W28222   7.401  26.547   0.784
63062W        W28223  43.350  13.118  14.244
63063W        W28224  31.940  39.480  12.174
63064W        W28225  31.083   6.745  12.548
63065W        W28226  17.822  33.856  13.019
63066W        W28227  12.282   9.901   2.699
63067W        W28228  33.684  21.700  14.866
63068W        W28229  30.649  33.048  14.016
63069W        W28230  15.784   9.447   1.247
63070W        W28231  14.307  16.338  11.210
63071W        W28232  29.338  27.964  14.143
63072W        W28233   4.478  14.696  14.124
63073W        W28234  37.189   9.994   3.685
63074W        W28235  21.059  15.421  11.933
63075W        W28236  40.063  28.117  11.623
63076W        W28237   3.854  16.863  14.324
63077W        W28238  39.271  25.267   1.120
63078W        W28239   3.095  41.452   0.237
63079W        W28240  37.176   2.173  11.618
63080W        W28241  33.055  34.593   1.657
63081W        W28242  31.052  28.708   2.509
63082W        W28243  12.116  31.960   0.299
63083W        W28244  25.008  22.908  14.209
63084W        W28245  18.767  37.969   2.359
63085W        W28246  10.419  10.843  14.855
63086W        W28247  20.850   1.058  13.506
63087W        W28248  29.058  39.908   5.086
63088W        W28249  20.267  40.423  14.251
63089W        W28250  37.602  16.746  12.676
63090W        W28251   5.156  10.229  14.069
63091W        W28252  27.092  27.612  14.254
63092W        W28253  29.976  14.013  13.318
63093W        W28254  25.049  38.942   2.689
63094W        W28255  38.388  11.985  11.866
63095W        W28256   3.771  37.616   2.381
63096W        W28257  12.815  40.270  11.973
63097W        W28258  18.342  38.379   2.893
63098W        W28259  10.900  34.615   2.473
63099W        W28260  27.629   7.129  14.002
63100W        W28261   3.944  32.112   2.234
63101W        W28262  13.454   0.246  12.516
63102W        W28263  27.197  39.924   1.420
63103W        W28264  44.402  29.173  10.641
63104W        W28265   5.668  37.927  13.404
63105W        W28266   3.836  10.208  10.513
63106W        W28267  24.896  42.908   0.933
63107W        W28268  33.942  12.238   2.656
63108W        W28269  39.945   7.886   0.893
63109W        W28270  19.592   0.261  14.897
63110W        W28271   6.983  44.250   3.228
63111W        W28272  23.319   3.948  12.811
63112W        W28273  40.041  25.992  14.294
63113W        W28274  24.161  18.640  12.393
63114W        W28275  19.024  20.828   2.777
63115W        W28276  44.315  17.133   1.752
63116W        W28277  11.792  28.616   0.067
63117W        W28278  33.175  23.822   0.986
63118W        W28279  32.368  11.650  14.356
63119W        W28280  44.304  22.741   4.325
63120W        W28281   9.337  12.733   0.780
63121W        W28282  36.077  40.001  13.599
63122W        W28283  32.923  20.054  12.972
63123W        W28284  32.484   1.445   4.512
63124W        W28285  43.200  18.646   1.287
63125W        W28286  16.809  29.669  12.041
63126W        W28287  31.322  20.813   1.283
63127W        W28288   4.648  15.222  14.330
63128W        W28289  44.305  28.546  14.464
63129W        W28290   2.776  36.413   1.984
63130W        W28291  42.502  13.574   3.207
63131W        W28292  37.898   4.301  11.915
63132W        W28293  44.057  25.629   4.150
63133W        W28294  14.714  36.746  13.515
63134W        W28295  24.252  29.432   2.790
63135W        W28296   5.119  26.920   0.469
63136W        W28297   8.134  28.412  14.054
63137W        W28298  34.517  26.406  10.687
63138W        W28299  19.124  27.485  11.615
63139W        W28300   1.946  18.641  14.522
63140W        W28301   2.716  25.989  11.528
63141W        W28302  41.579  40.858   2.789
63142W        W28303  27.308  18.394  14.949
63143W        W28304  14.931  36.945  14.410
63144W        W28305   7.757  28.295  12.717
63145W        W28306  20.958  19.695  13.414
63146W        W28307   7.262  37.989   4.549
63147W        W28308  41.839  33.952  10.995
63148W        W28309  11.836  10.544  13.620
63149W        W28310  43.026   6.149  11.422
63150W        W28311  23.440  33.629  11.587
63151W        W28312  30.818  19.673   3.174
63152W        W28313  41.263  29.467  12.440
63153W        W28314  42.527  40.522  13.317
63154W        W28315  37.983  15.308   3.415
63155W        W28316  41.415  11.716   4.841
63156W        W28317   6.275  24.138   4.640
63157W        W28318  17.067   1.462  11.123
63158W        W28319  18.248   5.218   0.905
63159W        W28320  15.809  22.558   0.486
63160W        W28321  13.409  13.420   5.299
63161W        W28322  36.384   5.777   0.433
63162W        W28323  22.214  42.112  13.633
63163W        W28324   9.163  43.540  11.000
63164W        W28325  27.547   5.239  14.244
63165W        W28326   8.147  42.888   2.625
63166W        W28327  35.359  33.598   0.731
63167W        W28328  28.037  41.524   3.248
63168W        W28329  19.721  10.322   5.107
63169W        W28330  42.324   8.829   4.644
63170W        W28331  21.024   3.754   3.178
63171W        W28332  17.112  39.682  13.343
63172W        W28333  33.527  14.104  10.628
63173W        W28334  34.882  43.113  10.446
63174W        W28335   6.883  29.227   1.004
63175W        W28336  14.811   3.886   0.772
63176W        W28337  32.381   4.940   2.140
63177W        W28338  19.788  11.353  11.136
63178W        W28339  39.493  30.203  11.089
63179W        W28340  11.682  29.680   3.260
63180W        W28341  39.452  42.994   4.021
63181W        W28342  36.584  14.223   0.276
63182W        W28343   3.832  41.962   3.275
63183W        W28344  28.043  31.813  11.174
63184W        W28345  20.201  32.783   1.837
63185W        W28346  39.643  34.438   2.896
63186W        W28347  15.145   5.418   0.832
63187W        W28348  23.141  10.929   4.119
63188W        W28349  43.288  21.112  13.950
63189W        W28350   2.062   0.274   2.321
63190W        W28351  28.657  40.337  14.757
63191W        W28352  40.843  32.053  11.006
63192W        W28353   4.866  31.746   4.040
63193W        W28354  37.438   0.824   4.648
63194W        W28355  24.727   6.693  14.107
63195W        W28356   1.329  16.365  11.091
63196W        W28357  40.341  14.591   1.084
63197W        W28358  22.787  14.346  12.607
63198W        W28359  28.683  37.165   1.860
63199W        W28360   1.295  35.944   3.554
63200W        W28361  25.704  23.529  10.383
63201W        W28362  26.636  18.194   0.192
63202W        W28363  10.330  16.089  14.114
63203W        W28364   2.444  13.119   0.457
63204W        W28365  42.318  43.671   3.292
63205W        W28366  32.405  19.047   0.409
63206W        W28367  35.524   5.619  10.824
63207W        W28368  39.527  25.570  10.767
63208W        W28369  27.049  16.054   2.579
63209W        W28370  26.640   6.421   4.534
63210W        W28371  22.602  38.964  13.091
63211W        W28372  27.191   5.236   2.349
63212W        W28373  12.233  19.154   2.922
63213W        W28374  22.478  16.724   4.609
63214W        W28375  18.017  13.600   5.139
63215W        W28376   7.175  44.264   0.973
63216W        W28377  41.993  15.117   5.123
63217W        W28378   4.504  20.506   0.223
63218W        W28379  42.171   2.768   3.077
63219W        W28380  22.486   0.865  13.051
63220W        W28381  27.900  34.833   2.250
63221W        W28382  37.970  28.352  10.297
63222W        W28383  14.310   7.390   1.370
63223W        W28384   9.474  21.382  12.363
63224W        W28385  35.339  13.854   2.313
63225W        W28386   3.559  25.940   5.416
63226W        W28387  36.394  13.832   0.800
63227W        W28388   6.840  42.607   1.324
63228W        W28389  36.995  23.675  10.598
63229W        W28390   5.712  23.599   2.795
63230W        W28391  13.682  16.119   4.458
63231W        W28392  37.274  30.630  12.927
63232W        W28393  10.180  37.380  13.868
63233W        W28394  27.621   1.964   2.347
63234W        W28395  41.486   6.036   4.865
63235W        W28396  40.947   5.979   4.093
63236W        W28397  16.086   0.809  12.900
63237W        W28398  13.016  20.448   2.341
63238W        W28399  41.660   5.193  13.336
63239W        W28400  40.582  38.481  12.475
63240W        W28401  36.418  10.723  10.577
63241W        W28402  30.955  23.512  14.025
63242W        W28403  22.893  39.641  11.442
63243W        W28404  43.055  18.674   2.826
63244W        W28405  22.454  21.063  11.011
63245W        W28406  12.051   3.976  13.071
63246W        W28407  25.095  16.580   1.455
63247W        W28408  42.498  44.208   4.271
63248W        W28409   9.625  21.065   1.226
63249W        W28410  40.228  29.191  13.481
63250W        W28411  33.600  26.251  12.099
63251W        W28412  38.805  11.294  13.110
63252W        W28413  36.891  18.751   0.447
63253W        W28414  26.799  20.786   1.870
63254W        W28415   2.569  43.688   4.223
63255W        W28416  11.801  44.363  12.160
63256W        W28417  39.453  20.028   4.050
63257W        W28418   6.260  17.521   3.845
63258W        W28419  33.420  32.250  10.787
63259W        W28420   9.589  39.880   0.484
63260W        W28421  22.425   5.357  11.106
63261W        W28422   8.313  38.343   0.269
63262W        W28423  31.976  29.142   4.924
63263W        W28424  13.157  36.184   3.200
63264W        W28425  41.970  27.103   2.283
63265W        W28426   3.818  19.250   4.465
63266W        W28427  11.341   4.299  11.865
63267W        W28428  17.064  41.318  11.261
63268W        W28429   3.572  12.417   5.090
63269W        W28430   4.441  33.950  13.443
63270W        W28431  18.491  19.610  12.043
63271W        W28432  19.673  33.851  11.194
63272W        W28433  10.863  39.041  14.360
63273W        W28434  36.067   4.559   3.274
63274W        W28435  44.371  44.792  12.279
63275W        W28436  42.623  25.982   1.398
63276W        W28437  39.364  23.502  13.398
63277W        W28438  27.652   8.917   4.529
63278W        W28439  32.132  32.715   2.120
63279W        W28440  24.962  35.763   4.586
63280W        W28441  19.495  19.478   3.351
63281W        W28442  10.406   9.883  12.913
63282W        W28443   2.942  40.060  14.774
63283W        W28444   9.675  10.871  13.023
63284W        W28445  22.626  32.347   4.129
63285W        W28446  14.803   4.970  10.497
63286W        W28447   3.987  11.768   4.234
63287W        W28448  19.704  35.809  12.641
63288W        W28449  42.223   5.013  13.325
63289W        W28450  12.286  40.417  11.088
63290W        W28451  38.173  33.544   3.931
63291W        W28452  33.812  23.499   0.756
63292W        W28453   2.901   6.024   2.216
63293W        W28454  40.418  14.362   5.043
63294W        W28455  15.228  42.986  13.031
63295W        W28456  34.630   0.393  14.506
63296W        W28457  17.313  23.461   4.413
63297W        W28458  15.971  40.040  13.408
63298W        W28459   8.732  30.189   3.761
63299W        W28460  20.847  42.076  12.441
63300W        W28461   7.882   3.770   3.731
63301W        W28462  28.620  12.030   2.561
63302W        W28463  17.657  42.274  14.945
63303W        W28464  10.120  43.241   1.737
63304W        W28465  26.184  12.875   1.838
63305W        W28466  23.972  38.398   2.279
63306W        W28467  27.145  37.239   1.665
63307W        W28468  39.588  16.779   4.368
63308W        W28469   4.345  36.430   0.427
63309W        W28470  32.397   6.922  10.623
63310W        W28471  41.434  23.825   0.748
63311W        W28472   4.462  25.560  12.414
63312W        W28473  20.035   2.894   3.660
63313W        W28474  13.316  21.736   0.861
63314W        W28475   7.240  41.869  13.860
63315W        W28476   6.777   1.808   3.327
63316W        W28477  17.512  35.897  13.990
63317W        W28478   8.258  26.662   0.495
63318W        W28479   3.220   1.548   3.811
63319W        W28480  13.031   7.908  11.089
63320W        W28481  15.409  23.651   3.713
63321W        W28482  35.067  19.004  10.842
63322W        W28483  20.127  30.258   4.668
63323W        W28484  27.216  33.958  11.552
63324W        W28485  38.032  30.136  14.727
63325W        W28486   4.730  40.442   0.797
63326W        W28487  41.291  23.556  12.572
63327W        W28488  26.598   2.220  14.780
63328W        W28489  24.358  26.806  12.720
63329W        W28490   0.287   2.891   2.037
63330W        W28491  19.578  29.499  10.914
63331W        W28492  40.005  37.104  10.911
63332W        W28493   8.791  11.955  12.614
63333W        W28494  22.736  33.231   0.827
63334W        W28495   8.094  35.628  11.574
63335W        W28496  38.865  23.896   4.279
63336W        W28497  33.624  12.093   4.480
63337W        W28498  19.718  40.826   1.873
63338W        W28499  10.876  32.339  11.347
63339W        W28500   0.751   8.277  11.913
63340W        W28501   9.546   1.458  14.463
63341W        W28502  12.126  37.816  11.928
63342W        W28503  32.070  20.461   4.283
63343W        W28504   7.668  25.349   3.822
63344W        W28505  34.891  15.666   4.575
63345W        W28506  11.857  41.384  14.734
63346W        W28507  19.729  13.448   4.968
63347W        W28508  11.313   7.311   1.606
63348W        W28509  22.076   4.412   4.508
63349W        W28510   3.236  14.432  12.553
63350W        W28511  44.671  13.218   3.320
63351W        W28512  20.191   1.013   1.323
63352W        W28513   0.978   5.984   3.213
63353W        W28514  18.620  19.985  11.203
63354W        W28515  14.182  26.870   4.226
63355W        W28516  24.632  11.133   3.162
63356W        W28517  18.569  31.228  14.260
63357W        W28518  40.082   2.712   0.887
63358W        W28519   3.805   6.373  14.767
63359W        W28520  33.476  22.717  10.179
63360W        W28521  27.886  10.310  11.635
63361W        W28522  21.760  42.440  13.532
63362W        W28523  19.653  37.434  13.840
63363W        W28524  14.543  41.180  14.088
63364W        W28525  30.597  27.503  11.580
63365W        W28526   1.170  39.202  12.409
63366W        W28527  39.723  25.128   1.361
63367W        W28528  22.661  25.901  13.452
63368W        W28529  24.214   1.137  12.547
63369W        W28530  11.434  19.065   0.871
63370W        W28531   0.786   9.387   1.896
63371W        W28532  35.352  29.164   4.758
63372W        W28533  28.944  21.890  11.148
63373W        W28534  15.406  15.353   4.909
63374W        W28535  36.765  14.618   3.731
63375W        W28536   3.540  17.785   2.822
63376W        W28537  39.115   2.482  10.726
63377W        W28538  18.355  44.205   3.824
63378W        W28539  18.124  33.825   1.247
63379W        W28540  25.011  44.009  11.117
63380W        W28541  23.378  27.903  11.444
63381W        W28542  36.089  15.308  14.626
63382W        W28543  22.340   2.384   4.641
63383W        W28544   1.899  43.677   2.587
63384W        W28545  14.303  23.272  13.127
63385W        W28546  42.467  39.304  12.913
63386W        W28547  34.227  27.488   0.218
63387W        W28548  20.541  27.113   0.276
63388W        W28549   4.531  33.755   0.635
63389W        W28550  24.682   8.160  12.985
63390W        W28551  33.117  19.638  14.734
63391W        W28552   9.141  18.651  11.988
63392W        W28553  17.046  38.538  14.710
63393W        W28554  10.102  35.160   1.599
63394W        W28555  28.914  26.084   1.804
63395W        W28556   0.861  15.894  14.248
63396W        W28557   5.306  25.584  11.972
63397W        W28558  30.647  38.303  11.087
63398W        W28559  44.932  39.841  12.560
63399W        W28560  20.008  24.860  12.016
63400W        W28561  17.810  20.680  11.902
63401W        W28562  14.831   6.830   1.822
63402W        W28563  13.919  29.728   1.759
63403W        W28564   3.715  18.090  12.951
63404W        W28565  14.674  32.150  10.021
63405W        W28566  24.016   2.682   2.873
63406W        W28567  16.593  17.174  12.576
63407W        W28568  44.549  34.979  14.909
63408W        W28569  36.993  21.811   4.822
63409W        W28570  23.402  17.870  11.027
63410W        W28571  13.717  41.405   4.912
63411W        W28572   3.476  38.984   2.613
63412W        W28573  14.905   5.908  14.797
63413W        W28574  24.556  38.198  13.807
63414W        W28575  24.633  23.416   4.580
63415W        W28576  21.935  35.445   0.335
63416W        W28577  15.836  13.283  13.985
63417W        W28578   0.548   5.959  12.070
63418W        W28579  14.612  31.907  11.002
63419W        W28580  18.671  29.904   2.240
63420W        W28581  21.561  32.200  12.170
63421W        W28582  24.290  41.957   1.424
63422W        W28583   8.126  38.053  14.394
63423W        W28584  31.998  36.930  11.540
63424W        W28585  10.260   0.808  11.123
63425W        W28586  16.525  16.922   4.995
63426W        W28587  36.062  26.283  11.579
63427W        W28588  19.584  42.629   2.148
63428W        W28589  39.512  43.016  13.516
63429W        W28590   7.445  42.203   4.908
63430W        W28591   9.465  26.203   2.777
63431W        W28592  27.122  34.513   2.386
63432W        W28593  40.761  26.666  11.144
63433W        W28594  10.369   6.376  13.824
63434W        W28595   5.253  29.681  14.877
63435W        W28596  14.091   3.300  13.749
63436W        W28597  22.683  34.722   4.550
63437W        W28598  38.477  21.831  11.724
63438W        W28599   9.762  12.427   2.522
63439W        W28600  38.509   5.474   4.621
63440W        W28601  18.482  10.593  12.071
63441W        W28602   7.779  20.968  12.921
63442W        W28603  42.866  10.205   1.364
63443W        W28604  12.128  39.096  13.802
63444W        W28605   7.576  12.906   2.225
63445W        W28606  24.806  42.024   4.125
63446W        W28607  12.739  28.100   0.788
63447W        W28608  30.580   8.839  12.983
63448W        W28609  28.325  23.735   3.730
63449W        W28610  40.995  21.547   1.828
63450W        W28611  13.450  12.390   1.002
63451W        W28612  40.306  20.735   3.235
63452W        W28613  40.175  27.389  11.132
63453W        W28614  36.451  12.590   1.663
63454W        W28615  35.613   8.941   0.357
63455W        W28616   6.892  13.687  14.844
63456W        W28617   1.788  18.536   1.816
63457W        W28618  27.926   6.468   0.882
63458W        W28619   0.948  25.544  12.914
63459W        W28620  29.874  41.520  13.087
63460W        W28621  27.534  24.985  12.993
63461W        W28622  34.405  10.193  10.718
63462W        W28623  30.335  33.021   3.761
63463W        W28624  30.545  37.110  12.964
63464W        W28625  22.613  17.736   0.231
63465W        W28626  15.091  21.662  13.631
63466W        W28627  30.132  26.149   3.756
63467W        W28628  16.345   0.904   3.415
63468W        W28629   2.868  10.608  12.956
63469W        W28630  31.305  30.059   0.166
63470W        W28631   6.915  10.114   0.849
63471W        W28632  37.810   2.274  13.342
63472W        W28633   3.521  43.294  14.057
63473W        W28634  17.143  36.848  10.719
63474W        W28635  19.067   5.137  11.024
63475W        W28636  16.288  38.418  13.008
63476W        W28637  11.382  32.413   4.192
63477W        W28638  43.349  43.010   3.864
63478W        W28639  33.399  17.990  13.300
63479W        W28640  44.997  38.502  14.965
63480W        W28641  40.729  26.521  12.051
63481W        W28642  11.867  28.904  14.463
63482W        W28643  42.552  37.415   2.594
63483W        W28644  10.905  13.385  13.016
63484W        W28645  10.673   7.850  12.049
63485W        W28646  11.631  31.824   0.298
63486W        W28647   3.761  36.470   4.944
63487W        W28648   4.927  11.469   1.801
63488W        W28649  29.930  15.713   4.370
63489W        W28650  44.277  39.607  14.271
63490W        W28651   2.766  38.256   0.214
63491W        W28652   8.778  40.491   0.076
63492W        W28653   8.253  21.179   1.798
63493W        W28654  16.071   9.833  11.680
63494W        W28655  41.559  12.615   2.057
63495W        W28656   2.203  41.005  12.636
63496W        W28657  12.350  15.791  14.719
63497W        W28658  42.896  39.285  12.149
63498W        W28659   2.055  14.479   2.897
63499W        W28660  14.719  35.450   2.782
63500W        W28661   5.740  27.674   4.463
63501W        W28662   0.966  24.113  12.082
63502W        W28663   1.697  42.796   1.314
63503W        W28664  23.170  17.561   1.888
63504W        W28665  43.271  12.830   3.589
63505W        W28666   8.624  31.055   4.794
63506W        W28667  39.444  44.430  10.790
63507W        W28668  16.050  16.825   4.507
63508W        W28669  41.346   8.942   0.339
63509W        W28670   6.881  16.185  12.343
63510W        W28671  29.189   1.480   1.243
63511W        W28672  14.662   8.947   0.833
63512W        W28673  44.675  10.283   2.654
63513W        W28674  28.025  28.870   1.106
63514W        W28675  34.311  20.540  14.365
63515W        W28676  10.535  20.100   2.252
63516W        W28677  26.088  15.125  10.335
63517W        W28678  36.267  16.290  12.011
63518W        W28679  28.316   8.238   0.669
63519W        W28680  26.367  25.125  13.412
63520W        W28681  27.998  19.616  12.391
63521W        W28682  33.657  22.245  14.890
63522W        W28683  24.518  13.404  13.037
63523W        W28684  23.735   4.388   2.813
63524W        W28685   8.790  36.113   2.289
63525W        W28686   8.560  14.269  11.591
63526W        W28687  34.636   6.858  12.496
63527W        W28688  26.978  26.740  11.318
63528W        W28689  11.551  23.471   0.973
63529W        W28690  31.914  31.452  12.164
63530W        W28691   2.287  42.256   4.499
63531W        W28692  14.215   5.304  13.596
63532W        W28693  24.748  33.025   3.570
63533W        W28694   4.807  40.033   1.370
63534W        W28695  37.952  33.376   2.621
63535W        W28696  33.614  30.031  12.502
63536W        W28697  13.569  12.895  11.933
63537W        W28698   1.033  10.358   0.171
63538W        W28699  10.872   6.278  10.610
63539W        W28700  33.163  34.720   2.889
63540W        W28701  30.200   9.358  14.463
63541W        W28702  25.959  23.224  14.044
63542W        W28703  26.644  30.664  13.996
63543W        W28704  39.689  13.490  13.387
63544W        W28705   2.060  38.284   4.842
63545W        W28706   8.696   9.366  12.050
63546W        W28707  25.005   0.673  13.240
63547W        W28708  32.764   1.768  11.688
63548W        W28709  27.958   3.693   3.120
63549W        W28710  44.409  37.639   3.576
63550W        W28711  35.153  43.120   3.249
63551W        W28712   9.348  18.314   4.074
63552W        W28713  24.595  21.719   1.792
63553W        W28714  12.754  16.589   0.546
63554W        W28715   4.363  32.120  14.406
63555W        W28716   3.142  29.425   1.843
63556W        W28717  33.604   3.415   4.147
63557W        W28718  38.442   5.715   3.267
63558W        W28719  33.185   3.035   2.939
63559W        W28720   6.415  17.160  10.678
63560W        W28721  17.630   2.741  10.575
63561W        W28722  42.408  40.529  11.100
63562W        W28723   2.766  17.157  10.992
63563W        W28724  44.285  13.786  13.926
63564W        W28725  21.067  41.407   2.020
63565W        W28726  35.457  38.286   4.077
63566W        W28727  32.429  20.388  10.719
63567W        W28728  10.734  33.589   1.092
63568W        W28729  11.615  29.554  12.858
63569W        W28730  13.832  22.419   2.379
63570W        W28731  33.738  11.744   0.893
63571W        W28732   0.389  37.658   5.409
63572W        W28733  16.157  29.538  12.523
63573W        W28734  12.265  36.986   3.377
63574W        W28735  29.373  25.226   3.642
63575W        W28736  42.588  28.962  13.034
63576W        W28737  44.036   7.387  12.549
63577W        W28738  38.594  41.594   3.610
63578W        W28739  13.597  17.594  11.578
63579W        W28740   1.373  34.857  11.199
63580W        W28741   2.187  22.548   5.021
63581W        W28742  10.284  14.293   3.650
63582W        W28743  33.840  31.682   3.491
63583W        W28744  15.919  22.825   2.732
63584W        W28745  11.312  23.146   0.048
63585W        W28746  19.446  28.846   3.852
63586W        W28747  33.902   6.059   3.595
63587W        W28748   9.641  21.477  12.835
63588W        W28749   0.362  20.631   0.700
63589W        W28750  25.739   7.747   1.851
63590W        W28751  37.542  35.123  11.902
63591W        W28752   5.649  35.159   1.869
63592W        W28753  32.553  40.124  10.579
63593W        W28754  32.491   9.800  11.166
63594W        W28755  12.786  28.677   4.050
63595W        W28756  35.837   1.516   0.949
63596W        W28757  30.565  37.964   1.849
63597W        W28758  32.559  31.133   1.720
63598W        W28759  38.741   4.648   0.171
63599W        W28760  16.780  35.030   3.318
63600W        W28761  38.830  19.736   0.938
63601W        W28762   3.916  18.385  13.329
63602W        W28763   6.214  13.837  14.467
63603W        W28764  34.900   1.750   0.973
63604W        W28765   3.201  38.999   2.171
63605W        W28766  17.137  28.845  12.550
63606W        W28767   0.417  39.237   4.126
63607W        W28768  38.932  31.448   2.327
63608W        W28769  12.943  25.979   2.774
63609W        W28770  34.427   5.822  11.310
63610W        W28771  37.040  39.929  10.497
63611W        W28772  40.297  43.216  12.961
63612W        W28773  18.267  24.633   2.249
63613W        W28774  36.815  14.825  11.600
63614W        W28775  26.937   5.014   4.540
63615W        W28776  43.404   6.944   2.782
63616W        W28777  41.328  29.777   3.317
63617W        W28778  41.943  23.673  10.683
63618W        W28779   5.237   0.710   3.271
63619W        W28780  14.639   4.229  10.652
63620W        W28781  12.705  41.053   3.777
63621W        W28782  12.134  22.210  14.848
63622W        W28783  21.078   8.106   4.618
63623W        W28784  40.882   7.307  12.878
63624W        W28785   2.055  42.927   0.765
63625W        W28786  22.007  35.352  11.705
63626W        W28787   6.835  18.131  13.925
63627W        W28788   3.317  31.912   0.433
63628W        W28789   6.232  23.833  14.791
63629W        W28790  10.744  37.936  13.425
63630W        W28791  34.912   2.748  13.904
63631W        W28792  30.117  40.636   1.542
63632W        W28793  24.428  31.941   4.380
63633W        W28794   7.421  40.440  14.133
63634W        W28795   7.625  41.059   3.561
63635W        W28796  43.194  38.614   1.461
63636W        W28797  18.662  14.674  12.910
63637W        W28798   4.866   4.597   3.090
63638W        W28799  38.872   4.468  10.599
63639W        W28800  28.192  39.432   2.174
63640W        W28801  14.089   8.780  13.489
63641W        W28802  38.418  44.312  14.454
63642W        W28803   0.733  18.221   0.496
63643W        W28804  43.775  42.984   4.419
63644W        W28805  27.224  39.454   4.945
63645W        W28806  44.783  25.189   3.162
63646W        W28807  35.485   1.010   1.686
63647W        W28808  24.485  18.463   3.007
63648W        W28809   6.294  12.257   1.105
63649W        W28810  32.429  27.779   4.065
63650W        W28811  29.970  37.313   3.476
63651W        W28812  27.020  35.381   0.673
63652W        W28813   2.410  41.284   5.029
63653W        W28814   6.943  13.320   4.521
63654W        W28815  40.059  26.861  14.400
63655W        W28816  24.534  17.340   0.703
63656W        W28817  44.378  32.086   2.177
63657W        W28818  20.057   8.711   0.961
63658W        W28819  38.949  17.381  13.403
63659W        W28820  27.685   7.701   0.328
63660W        W28821   2.747  35.709   1.168
63661W        W28822   1.476  10.087  13.390
63662W        W28823  17.591  25.780  12.967
63663W        W28824   6.296  16.800  11.468
63664W        W28825  35.895  39.024  12.643
63665W        W28826   9.296  24.535   0.157
63666W        W28827   3.290   4.286  11.154
63667W        W28828  31.956  22.446   0.237
63668W        W28829  17.355  32.451  10.438
63669W        W28830   6.460  43.882  14.671
63670W        W28831  23.265   7.875   4.290
63671W        W28832  36.896   7.066   4.447
63672W        W28833   7.562  28.760   0.821
63673W        W28834  17.803  44.040   3.272
63674W        W28835   7.206  30.292  12.991
63675W        W28836  31.843  17.290   3.659
63676W        W28837  41.449   3.676   1.456
63677W        W28838  28.235  43.504  12.794
63678W        W28839  19.566  16.196  12.048
63679W        W28840  28.114   4.775  13.664
63680W        W28841  24.963  26.246  13.079
63681W        W28842  27.665  42.176   2.194
63682W        W28843  20.617   4.287  13.418
63683W        W28844  43.422  35.359   3.830
63684W        W28845  26.453  30.424   1.691
63685W        W28846  30.134  28.748  12.686
63686W        W28847  23.059  11.795  10.782
63687W        W28848  25.928  24.658   1.741
63688W        W28849   0.988  10.308   4.553
63689W        W28850  23.386   7.263  12.532
63690W        W28851  39.035  43.248   2.613
63691W        W28852  38.504  44.664  10.494
63692W        W28853  36.584  11.254   2.645
63693W        W28854  40.873  13.097  11.122
63694W        W28855  33.847  32.426  11.023
63695W        W28856   2.267  36.495   0.137
63696W        W28857  26.119  24.480   4.516
63697W        W28858  18.629   9.864  12.872
63698W        W28859  12.320  24.430   1.392
63699W        W28860  31.627  40.563  11.044
63700W        W28861  15.677   6.255   3.586
63701W        W28862  19.340  11.420  11.929
63702W        W28863  15.806  43.088  10.302
63703W        W28864  16.677   6.423  11.982
63704W        W28865  17.732   0.992  14.652
63705W        W28866  33.439  31.465  11.123
63706W        W28867   4.267  37.947  10.830
63707W        W28868   8.788   0.223   4.304
63708W        W28869  36.144  41.520  11.212
63709W        W28870  34.607  24.208  12.378
63710W        W28871  38.967  33.336   2.887
63711W        W28872  40.193   2.965  13.857
63712W        W28873  18.165   8.218   3.297
63713W        W28874  41.348   6.858  11.192
63714W        W28875  34.713  19.091  11.693
63715W        W28876  14.791   2.241  14.982
63716W        W28877  30.664  22.965   5.184
63717W        W28878  23.010  19.236  14.500
63718W        W28879   9.476  24.067  13.400
63719W        W28880  11.288  37.424   1.797
63720W        W28881  20.624  33.905  14.857
63721W        W28882  30.553  24.631  13.326
63722W        W28883  22.665   8.121  13.446
63723W        W28884  38.867   2.341   3.649
63724W        W28885  17.088  37.429   0.313
63725W        W28886  26.664  42.984   2.354
63726W        W28887   6.659   5.686  13.454
63727W        W28888  32.328   1.900   2.686
63728W        W28889  10.087  24.532  12.384
63729W        W28890   2.334  40.100   1.381
63730W        W28891  13.706  39.508   1.918
63731W        W28892  26.576  26.046  12.935
63732W        W28893  33.550  11.259  13.702
63733W        W28894  43.807  26.183  10.428
63734W        W28895   8.404   9.284   2.207
63735W        W28896   6.973  32.174  11.491
63736W        W28897   0.217  27.517   1.440
63737W        W28898  34.311   8.844   1.851
63738W        W28899  28.942  40.303   4.545
63739W        W28900  31.947  41.374  14.899
63740W        W28901  37.255  28.216   0.737
63741W        W28902  37.209  29.498   0.417
63742W        W28903  34.075  19.136   1.484
63743W        W28904  17.423  40.484  10.290
63744W        W28905   6.130  39.031  14.129
63745W        W28906   1.653  39.678  14.573
63746W        W28907  24.261  13.324  14.286
63747W        W28908   7.278  12.229   4.613
63748W        W28909   8.685  43.400   4.755
63749W        W28910  30.083  36.029   2.094
63750W        W28911  41.857  15.832  12.560
63751W        W28912   1.909  33.351   3.719
63752W        W28913  21.300  15.203   0.170
63753W        W28914  30.301   6.066  11.187
63754W        W28915  27.644  18.309  11.249
63755W        W28916  37.162  26.179  12.437
63756W        W28917  39.556  12.028   1.292
63757W        W28918  13.866  17.165   3.281
63758W        W28919  21.225  27.319   4.182
63759W        W28920  34.573  22.488   0.322
63760W        W28921  38.052  43.800   0.346
63761W        W28922  26.503  38.711   2.734
63762W        W28923  43.483  28.512  12.639
63763W        W28924  20.689  10.608   0.310
63764W        W28925  40.781   5.741   3.124
63765W        W28926   2.952   1.857  10.887
63766W        W28927   0.213   8.671  12.993
63767W        W28928  44.685  10.266   4.072
63768W        W28929   3.525   7.249   2.213
63769W        W28930  17.006  15.317   1.821
63770W        W28931   8.359  25.985  14.840
63771W        W28932   7.998  28.244   4.077
63772W        W28933  27.636  13.432  14.352
63773W        W28934  31.173  10.758   3.466
63774W        W28935  43.333   9.282   1.275
63775W        W28936  19.108  40.333  13.796
63776W        W28937  13.026  33.217  14.815
63777W        W28938  36.882  28.368  12.027
63778W        W28939  17.847  17.498  10.253
63779W        W28940  22.232  41.972   4.941
63780W        W28941  32.717   8.766  11.484
63781W        W28942   6.924  14.672   1.678
63782W        W28943  43.111  19.039  11.001
63783W        W28944  26.568   1.474  11.991
63784W        W28945   3.620  18.756   3.612
63785W        W28946  10.904  40.413   1.297
63786W        W28947  12.501  26.921   1.821
63787W        W28948  44.236   2.006  14.447
63788W        W28949  18.519  19.631   4.460
63789W        W28950   3.226  34.792   3.112
63790W        W28951  23.186  31.881  12.657
63791W        W28952   6.641   9.859  12.433
63792W        W28953  11.002  33.610  11.206
63793W        W28954  11.387  23.276  11.149
63794W        W28955  29.964  38.859  12.022
63795W        W28956  11.551  43.258   0.322
63796W        W28957   7.225  21.148  11.637
63797W        W28958  33.435  32.138   0.027
63798W        W28959   8.044  21.625   2.245
63799W        W28960  15.405  36.455  11.109
63800W        W28961  32.550  35.441   4.802
63801W        W28962  41.927  44.572   0.199
63802W        W28963  18.345   3.980   2.751
63803W        W28964  30.536  20.528   2.598
63804W        W28965  32.036   7.918  10.510
63805W        W28966  44.645  33.818   2.183
63806W        W28967  36.756  38.163  12.003
63807W        W28968  18.331  34.993   1.627
63808W        W28969  37.038  19.507   1.356
63809W        W28970  40.105  38.858   2.771
63810W        W28971   5.187  30.102  10.684
63811W        W28972  24.247  44.833   1.201
63812W        W28973  23.537  26.693   1.350
63813W        W28974  20.154   9.959  12.343
63814W        W28975  34.485  39.308  14.089
63815W        W28976  38.428  27.148   4.659
63816W        W28977   1.925  11.125   1.098
63817W        W28978  14.085  41.990  12.027
63818W        W28979  39.429  29.384   1.591
63819W        W28980  12.767  24.933  14.361
63820W        W28981  43.662  16.351   4.494
63821W        W28982  41.852  44.763  14.672
63822W        W28983   7.177   2.100   3.539
63823W        W28984  23.771  25.587   4.797
63824W        W28985  25.631   4.472   1.392
63825W        W28986  28.826  21.845   2.144
63826W        W28987   0.458  33.594   2.297
63827W        W28988   1.641  10.566  13.366
63828W        W28989  44.714   8.803   4.219
63829W        W28990  14.391   6.481  14.894
63830W        W28991  39.578  32.660   1.392
63831W        W28992  22.014  43.266   4.801
63832W        W28993  29.332  30.460  11.277
63833W        W28994  12.863   6.276   2.636
63834W        W28995  44.147  35.022   2.848
63835W        W28996  12.897  20.642  13.439
63836W        W28997   4.550  36.067  14.646
63837W        W28998   3.887   6.304  13.945
63838W        W28999   3.307  16.514   1.409
63839W        W29000   0.842  18.831   2.804
63840W        W29001  22.120  25.117  12.565
63841W        W29002  38.627  34.798  11.172
63842W        W29003  33.474  27.695   3.599
63843W        W29004  18.508  35.153   2.948
63844W        W29005  13.803  12.388   3.672
63845W        W29006  19.637  34.922  12.372
63846W        W29007  41.224   8.790  14.221
63847W        W29008  25.886  13.798   4.975
63848W        W29009  24.749  24.648   3.269
63849W        W29010  43.638   9.307  12.882
63850W        W29011  17.801  11.236  13.970
63851W        W29012  30.127   9.699  13.787
63852W        W29013  22.904  26.085   2.853
63853W        W29014  17.685   7.085   4.868
63854W        W29015  14.678  43.464  12.648
63855W        W29016  43.048  35.012  13.937
63856W        W29017  22.602  19.993   3.722
63857W        W29018  14.237  37.420  10.805
63858W        W29019   8.818  33.825  13.939
63859W        W29020   3.466  17.060   2.260
63860W        W29021  13.147  26.542   3.432
63861W        W29022  14.899  44.274   4.111
63862W        W29023  36.765  42.129   4.526
63863W        W29024   4.497  32.991   4.921
63864W        W29025  31.053  16.181   0.775
63865W        W29026   8.695  15.504  14.014
63866W        W29027   9.455  35.665  12.496
63867W        W29028  39.121   1.275  12.908
63868W        W29029  41.556  44.458  13.416
63869W        W29030   2.942  16.804   4.684
63870W        W29031   2.361  33.133  12.494
63871W        W29032   5.857  14.915  10.430
63872W        W29033  44.776  13.937  14.731
63873W        W29034  30.414  17.886  11.324
63874W        W29035  34.158  19.812  11.068
63875W        W29036   2.725  31.867   1.796
63876W        W29037  33.317  22.844   3.291
63877W        W29038  16.800  31.545  10.961
63878W        W29039  10.392  20.926   5.077
63879W        W29040  43.335   2.441   3.247
63880W        W29041   5.745   3.677  12.357
63881W        W29042  35.988  38.457   1.632
63882W        W29043  12.390  17.022  10.770
63883W        W29044  25.756  16.080  14.879
63884W        W29045   2.436  11.866  13.966
63885W        W29046   8.611  25.241   0.268
63886W        W29047   1.849  10.817   0.007
63887W        W29048  16.904  33.866  13.003
63888W        W29049  35.835  42.869  10.731
63889W        W29050  40.085  34.248   3.358
63890W        W29051  34.096   5.025   4.138
63891W        W29052  19.243  30.172  13.498
63892W        W29053  36.987  22.265  10.750
63893W        W29054  37.513  43.836   1.805
63894W        W29055  44.871   3.447  11.470
63895W        W29056  16.526  22.062   0.737
63896W        W29057  41.885  27.218   2.817
63897W        W29058  22.603  12.914  11.219
63898W        W29059  27.034  39.809  13.419
63899W        W29060  25.596   5.926  14.874
63900W        W29061   3.302   9.334  11.351
63901W        W29062  35.493  27.972  11.382
63902W        W29063  40.098  12.800   0.897
63903W        W29064  11.534  19.862  14.545
63904W        W29065  17.924  38.860   1.806
63905W        W29066  24.674  29.788  12.312
63906W        W29067  32.360  42.929   4.056
63907W        W29068  32.032  32.402   4.043
63908W        W29069  22.365  10.979   2.348
63909W        W29070  18.082  31.682   0.373
63910W        W29071  11.960  42.292   0.307
63911W        W29072  24.757   0.238   3.212
63912W        W29073  10.838  39.563  14.271
63913W        W29074  11.059  33.066  12.875
63914W        W29075  38.523  21.499   1.354
63915W        W29076   0.238  42.551  10.853
63916W        W29077  20.618  35.195   4.700
63917W        W29078  17.221   6.277  14.696
63918W        W29079  10.215  14.802  14.994
63919W        W29080  25.699  38.243   4.108
63920W        W29081  31.470   2.517   4.254
63921W        W29082   1.322  13.086   2.365
63922W        W29083  31.612  16.215   4.223
63923W        W29084  41.883  26.563   4.978
63924W        W29085   9.107  15.099   1.464
63925W        W29086   6.239  41.771  13.432
63926W        W29087  43.323  31.965  14.488
63927W        W29088  16.614  16.521   2.208
63928W        W29089  21.626   2.967   3.528
63929W        W29090  29.727  28.738   2.770
63930W        W29091  40.919  16.297   4.632
63931W        W29092   7.263  31.041  13.980
63932W        W29093   7.542  32.699  14.391
63933W        W29094  15.153  11.886   2.477
63934W        W29095  26.396  29.874   2.789
63935W        W29096  10.202  19.530   3.599
63936W        W29097   9.380  10.195  13.581
63937W        W29098   3.497   8.325  12.517
63938W        W29099  27.654  43.915   3.814
63939W        W29100  28.901  22.095   3.234
63940W        W29101   8.848  11.704   2.257
63941W        W29102  29.438  31.631  10.907
63942W        W29103  20.756  41.291  13.492
63943W        W29104  30.898   8.394  13.776
63944W        W29105  29.533   6.180   1.478
63945W        W29106   0.215   5.572  12.084
63946W        W29107  10.591   1.965   1.345
63947W        W29108  28.966  15.950   0.922
63948W        W29109   7.211  34.501  13.551
63949W        W29110  39.928  25.930   3.053
63950W        W29111   3.600  18.246   1.110
63951W        W29112   1.746   6.854  14.231
63952W        W29113   8.006   8.851   4.518
63953W        W29114   4.041  16.775  11.429
63954W        W29115  44.283   5.272  14.425
63955W        W29116  11.216  39.977  10.745
63956W        W29117  18.308  15.120   4.467
63957W        W29118  12.255  31.525   2.353
63958W        W29119  41.819  33.666   0.860
63959W        W29120  33.525  42.874  14.974
63960W        W29121  14.273  20.530  11.029
63961W        W29122  32.485   9.243   4.908
63962W        W29123  21.737  29.560  12.448
63963W        W29124  19.381   9.309  10.872
63964W        W29125   9.481  13.447  12.897
63965W        W29126  39.590  40.502   2.191
63966W        W29127   9.504  20.283  10.885
63967W        W29128  17.532  28.816   1.488
63968W        W29129  22.028  36.449   3.884
63969W        W29130  43.021   1.973   1.374
63970W        W29131  12.300  28.114   2.636
63971W        W29132  25.096  27.946   5.119
63972W        W29133  36.221  18.145  12.117
63973W        W29134  18.300  23.962  12.130
63974W        W29135  26.400  27.517   0.008
63975W        W29136  31.973  34.927   2.319
63976W        W29137  39.107  26.464   3.253
63977W        W29138  36.250  30.349  11.686
63978W        W29139  25.640  16.745  14.415
63979W        W29140  32.615  26.796   4.163
63980W        W29141  38.543  30.832  13.313
63981W        W29142  16.850  44.373   1.947
63982W        W29143  40.377  19.693  11.128
63983W        W29144  14.028  33.952  11.916
63984W        W29145  15.675   2.046  10.384
63985W        W29146  19.664   2.924  12.072
63986W        W29147   0.871  43.807   4.285
63987W        W29148  11.557   0.953   1.434
63988W        W29149   9.134  29.974  11.668
63989W        W29150   9.292  34.889   1.322
63990W        W29151  20.681  39.810  14.076
63991W        W29152  10.352  12.394  11.052
63992W        W29153  25.247  36.799  13.155
63993W        W29154  12.170  42.120  11.042
63994W        W29155  28.432  22.466   4.051
63995W        W29156  23.499  43.458   3.202
63996W        W29157   7.076  14.247   4.590
63997W        W29158  26.407  10.141  11.681
63998W        W29159  36.648  29.186  13.403
63999W        W29160  28.558   7.848   0.403
64000W        W29161  13.194  13.756  14.044
64001W        W29162   4.890  17.285  12.543
64002W        W29163  24.549   4.743   2.622
64003W        W29164  11.382  17.160  10.775
64004W        W29165  42.092  37.717   1.642
64005W        W29166  34.557  29.848   5.031
64006W        W29167   6.223  29.862   0.801
64007W        W29168  31.432  15.109   2.294
64008W        W29169  15.646  25.445   2.144
64009W        W29170   3.227  37.484   3.646
64010W        W29171   2.291  10.202  11.536
64011W        W29172   9.992  20.263   0.660
64012W        W29173  22.303  25.179   0.356
64013W        W29174  30.423  29.039   1.899
64014W        W29175  36.048  14.381   1.750
64015W        W29176  30.285  16.349   0.192
64016W        W29177  34.431  44.267  11.657
64017W        W29178  29.016  33.883   1.160
64018W        W29179  20.804  36.085   4.151
64019W        W29180  11.257   8.140   3.744
64020W        W29181  10.663  27.667  12.520
64021W        W29182  43.873  24.197  10.792
64022W        W29183  13.734  43.325   9.671
64023W        W29184  28.409  26.279  12.511
64024W        W29185  15.109  32.874  14.472
64025W        W29186  43.425  12.421   2.353
64026W        W29187  11.173  19.646   3.240
64027W        W29188  36.877  33.051   1.810
64028W        W29189  37.519  20.466   3.138
64029W        W29190   5.768  26.432   3.192
64030W        W29191  26.145  23.671   0.763
64031W        W29192  19.430  21.453   1.932
64032W        W29193   1.304  14.981   4.768
64033W        W29194  25.127  21.420  11.219
64034W        W29195  36.511  19.126  13.517
64035W        W29196  23.484   2.485   0.002
64036W        W29197  36.090  43.959  13.636
64037W        W29198   9.928   0.063  10.690
64038W        W29199  22.379  39.634  14.162
64039W        W29200   6.355   4.361  12.832
64040W        W29201   0.469  39.994   2.240
64041W        W29202  18.993  14.769  14.277
64042W        W29203  27.434  40.774   2.292
64043W        W29204  14.733  11.730   1.594
64044W        W29205  14.722  11.187   4.394
64045W        W29206  35.868  12.772   0.627
64046W        W29207  12.294   0.436  10.708
64047W        W29208   2.084  37.238   1.815
64048W        W29209  10.575  16.821  11.548
64049W        W29210  18.259  27.469   1.254
64050W        W29211   5.022   2.344  12.682
64051W        W29212  21.250  17.987  10.751
64052W        W29213  25.526  32.543   1.114
64053W        W29214  20.210  41.032  12.546
64054W        W29215  30.370  33.479   4.905
64055W        W29216  36.080  18.709  11.538
64056W        W29217  30.678  32.587  13.344
64057W        W29218  27.899  36.316  13.362
64058W        W29219   0.145  39.296   5.167
64059W        W29220  23.513  32.359  10.608
64060W        W29221  22.265   5.435   3.642
64061W        W29222  40.672  43.422  12.562
64062W        W29223  37.424   3.390   1.851
64063W        W29224   8.912  23.760   0.343
64064W        W29225  25.052  22.855   2.310
64065W        W29226  43.312   6.880  12.006
64066W        W29227  43.221  31.303   1.777
64067W        W29228   2.143  27.554   5.116
64068W        W29229  26.194   6.485   1.328
64069W        W29230  36.504  32.625  11.127
64070W        W29231   8.703  34.462  11.206
64071W        W29232  43.278  36.611   3.173
64072W        W29233  23.690  24.165   1.293
64073W        W29234  30.190  17.822  14.037
64074W        W29235  21.190  38.622  10.413
64075W        W29236  24.689  15.909   3.273
64076W        W29237  11.368  27.029  14.787
64077W        W29238  30.302  17.595   2.283
64078W        W29239  43.062  37.096   3.253
64079W        W29240  35.830  28.577   1.284
64080W        W29241  31.398   9.441  12.757
64081W        W29242   5.759  42.133  12.517
64082W        W29243  42.552   5.658  13.210
64083W        W29244  44.189  32.900  12.007
64084W        W29245  29.382  11.156  14.424
64085W        W29246  25.477  32.313  13.514
64086W        W29247  36.574  18.744   1.233
64087W        W29248   3.323  41.466   1.167
64088W        W29249   5.084   4.222   2.230
64089W        W29250   1.984  26.056  11.055
64090W        W29251   1.847  35.904   4.267
64091W        W29252  40.977  33.103  14.193
64092W        W29253   8.331   7.705  12.336
64093W        W29254  10.142  18.464  12.669
64094W        W29255   9.994  25.349  11.610
64095W        W29256  33.324  22.483   1.628
64096W        W29257  10.106  15.520   0.499
64097W        W29258  30.973  26.033  13.912
64098W        W29259  17.847   5.897  12.911
64099W        W29260  20.828   8.189  10.984
64100W        W29261  41.583  18.297  13.964
64101W        W29262   4.640  36.149  14.134
64102W        W29263  15.086  24.881   2.802
64103W        W29264   0.508   5.707  12.935
64104W        W29265  20.445  22.982  12.872
64105W        W29266   3.983  44.993  11.420
64106W        W29267  15.172  10.844   3.365
64107W        W29268  25.663  14.848   1.435
64108W        W29269  13.469  32.080  13.489
64109W        W29270  27.248  39.190   3.606
64110W        W29271  19.597   9.304   5.026
64111W        W29272  18.644  29.212  13.950
64112W        W29273   5.290   8.341   0.859
64113W        W29274  24.020  16.692   0.989
64114W        W29275   3.353  18.898   4.051
64115W        W29276  30.867  33.948   3.484
64116W        W29277   5.747  28.491  14.266
64117W        W29278  33.913   2.435  13.070
64118W        W29279  16.194  13.403  11.953
64119W        W29280  13.815  19.017  14.428
64120W        W29281   5.997  21.263   4.178
64121W        W29282   6.859   5.219  10.666
64122W        W29283  23.583  26.701   4.307
64123W        W29284   5.421  22.580   0.297
64124W        W29285  33.823  29.056   4.593
64125W        W29286   4.483  29.377  12.769
64126W        W29287  16.610   1.846  12.542
64127W        W29288  25.936  30.009  11.632
64128W        W29289  16.121  32.246  10.731
64129W        W29290  42.532  26.470  10.873
64130W        W29291   6.681   6.627   3.147
64131W        W29292   6.768  38.699  12.110
64132W        W29293   9.401  22.585   3.342
64133W        W29294  20.280   7.281   4.514
64134W        W29295   2.195   3.698  11.970
64135W        W29296  40.122   4.434   2.522
64136W        W29297  24.000  41.449   2.286
64137W        W29298   1.301  31.670   0.075
64138W        W29299   3.163  16.347  14.936
64139W        W29300  33.454  17.597  14.276
64140W        W29301  18.185  38.428  11.951
64141W        W29302  12.843  14.168   1.909
64142W        W29303  36.421  23.108  13.293
64143W        W29304  22.991  28.087  13.480
64144W        W29305  10.312   3.649  10.698
64145W        W29306  40.872  28.015   2.909
64146W        W29307  19.476  17.371   2.375
64147W        W29308   9.091  15.261   1.963
64148W        W29309   0.410  23.158   3.256
64149W        W29310   9.836  39.340   2.442
64150W        W29311  29.683  10.410   2.428
64151W        W29312  36.430  36.920  11.600
64152W        W29313  24.580  19.734  10.725
64153W        W29314   2.776  11.084   0.750
64154W        W29315  34.599  19.821   4.489
64155W        W29316  15.641  35.346  10.772
64156W        W29317  32.180  15.008   3.534
64157W        W29318  44.912  26.735   1.495
64158W        W29319  40.334   8.861  14.835
64159W        W29320  14.493  39.729   2.292
64160W        W29321  14.589   2.247  12.700
64161W        W29322   1.979  10.525   1.916
64162W        W29323  11.691  33.169   3.373
64163W        W29324  40.162  34.403  11.551
64164W        W29325  34.361   3.733  12.360
64165W        W29326  32.610   0.849   4.930
64166W        W29327  27.978  33.479   4.396
64167W        W29328  19.002  18.652   3.053
64168W        W29329  25.726  26.722   4.591
64169W        W29330   3.872  12.157   0.929
64170W        W29331  38.415  32.586  12.413
64171W        W29332  29.273  14.239  12.839
64172W        W29333  43.523  10.815  14.903
64173W        W29334  19.386  13.599  12.459
64174W        W29335  27.245   0.349   0.460
64175W        W29336   2.260  22.578  11.150
64176W        W29337   2.127  35.495   3.635
64177W        W29338   0.397  35.437   1.974
64178W        W29339  26.080  40.898  14.462
64179W        W29340  13.095  29.051   2.202
64180W        W29341   0.400  24.174   0.771
64181W        W29342  21.129  33.471   4.127
64182W        W29343   4.826  19.673   4.774
64183W        W29344   0.172  25.648  14.317
64184W        W29345  41.268   1.151   2.466
64185W        W29346   7.074  43.259  14.036
64186W        W29347  37.160  22.999   1.073
64187W        W29348  17.114  23.561  10.807
64188W        W29349  31.689  38.809   1.520
64189W        W29350  43.321  12.606   1.356
64190W        W29351   6.207  36.159   9.980
64191W        W29352   1.737  41.956   2.858
64192W        W29353  30.057  41.427  13.569
64193W        W29354   3.384  20.161   4.976
64194W        W29355   2.623  43.635   0.654
64195W        W29356  44.999   7.134   4.080
64196W        W29357  21.847  11.137  10.292
64197W        W29358   0.347  39.469   1.177
64198W        W29359  20.946  15.506  12.846
64199W        W29360   2.471  26.230   2.403
64200W        W29361  27.513  20.017   0.544
64201W        W29362  30.485  34.849  11.617
64202W        W29363  19.539  14.770  14.282
64203W        W29364   4.735  40.860   3.436
64204W        W29365   6.972  33.332   4.743
64205W        W29366  35.811  31.002   0.491
64206W        W29367  37.755  16.109   4.591
64207W        W29368  40.743  28.934   2.334
64208W        W29369  31.020   1.267  11.053
64209W        W29370  19.625   7.004   0.378
64210W        W29371  38.251  14.902   1.000
64211W        W29372  32.060  14.375   4.077
64212W        W29373  29.616   8.427   3.378
64213W        W29374  42.959  26.698   4.688
64214W        W29375  39.871  35.001  10.953
64215W        W29376  33.474   3.247  10.376
64216W        W29377  26.109  32.047   3.604
64217W        W29378   8.984   0.496   0.689
64218W        W29379  21.778   7.269  11.023
64219W        W29380  13.797  26.397  12.091
64220W        W29381  35.654   6.711  13.572
64221W        W29382  31.716  29.522   2.759
64222W        W29383  17.311  34.286   4.360
64223W        W29384  38.816  17.636   0.957
64224W        W29385   2.749   2.881  12.076
64225W        W29386  10.316  10.185   4.529
64226W        W29387  31.832   3.769  14.204
64227W        W29388   3.259  40.268  11.967
64228W        W29389  41.886  20.229  13.899
64229W        W29390  21.536  15.947  11.738
64230W        W29391  21.872  25.026  12.109
64231W        W29392  26.569  44.928  14.873
64232W        W29393   1.965  32.418  13.512
64233W        W29394  32.873  28.012  14.456
64234W        W29395  25.227  39.412  14.484
64235W        W29396  19.958   6.423  12.799
64236W        W29397   8.585   0.846   0.486
64237W        W29398  24.545  40.262   4.391
64238W        W29399   3.623   7.963  11.131
64239W        W29400  43.076  33.473  13.347
64240W        W29401  12.374  18.687   0.356
64241W        W29402  13.781  37.058   4.641
64242W        W29403   5.073  15.157  10.099
64243W        W29404   3.768  16.741  12.332
64244W        W29405  21.228  29.508  12.605
64245W        W29406   7.131  31.067   2.889
64246W        W29407  26.964  35.538  11.608
64247W        W29408  12.431  36.936   2.379
64248W        W29409   1.371  27.101  11.626
64249W        W29410  29.031  15.300   3.882
64250W        W29411  30.160  19.806   2.117
64251W        W29412   1.074  31.408   4.251
64252W        W29413   2.389   4.620  14.506
64253W        W29414  26.164  17.430   4.479
64254W        W29415  35.434  20.156   4.503
64255W        W29416  42.779  24.756  13.332
64256W        W29417  32.534   0.355   1.945
64257W        W29418  29.311  30.546  13.670
64258W        W29419  20.506  33.878  13.691
64259W        W29420  30.311  42.675  11.952
64260W        W29421   0.532  25.813  13.023
64261W        W29422   4.126   6.644   1.030
64262W        W29423  15.212  44.294   0.725
64263W        W29424  12.202   7.274   2.417
64264W        W29425  29.908  13.541  13.111
64265W        W29426  18.213  14.293   2.848
64266W        W29427   9.070  42.449   1.797
64267W        W29428  39.378  14.621  10.569
64268W        W29429  44.488   5.992  13.551
64269W        W29430   4.113  30.108  10.696
64270W        W29431  19.835   1.576   3.534
64271W        W29432  14.476  24.584  11.956
64272W        W29433  40.018  34.978  11.910
64273W        W29434   4.959  18.079  11.163
64274W        W29435  15.689  23.681  12.000
64275W        W29436  19.683  31.109   1.263
64276W        W29437  41.357  14.304   1.359
64277W        W29438  21.736  32.942  11.686
64278W        W29439  19.761  41.014   4.884
64279W        W29440   2.742  39.587  11.659
64280W        W29441   3.688   4.334  14.485
64281W        W29442  16.571  27.780  14.966
64282W        W29443  39.125  23.281  11.176
64283W        W29444  27.450   5.483  10.613
64284W        W29445  31.164  16.000   2.489
64285W        W29446  16.530   4.711   1.489
64286W        W29447  12.741   8.095  10.668
64287W        W29448  35.210   3.930   4.177
64288W        W29449   2.716   9.835   0.382
64289W        W29450  33.261  44.000   3.737
64290W        W29451   5.431  17.039   3.243
64291W        W29452   1.723   5.514  11.120
64292W        W29453  37.390  44.295   0.840
64293W        W29454  26.097  17.550   3.715
64294W        W29455  12.715  29.899   4.428
64295W        W29456  13.711  44.817  12.375
64296W        W29457  38.939   5.911  13.659
64297W        W29458  11.394  11.204  12.431
64298W        W29459  35.226   7.905   2.672
64299W        W29460  20.754   0.481  14.812
64300W        W29461  12.574  42.956   4.762
64301W        W29462  44.113  31.027   2.166
64302W        W29463  29.572   2.244   4.194
64303W        W29464  31.237  26.996  12.537
64304W        W29465  19.850  33.173   0.863
64305W        W29466  19.473  32.496  13.857
64306W        W29467  38.262  23.532   0.246
64307W        W29468  30.518   6.516   3.793
64308W        W29469  34.638  30.850  13.960
64309W        W29470  32.996   0.668   0.532
64310W        W29471  43.440   1.787  13.856
64311W        W29472  15.235  36.906   0.347
64312W        W29473  43.049  41.396   0.916
64313W        W29474  32.709  37.461  11.450
64314W        W29475   7.215  28.645   3.083
64315W        W29476   0.000  25.150   3.820
64316W        W29477   8.783  23.927   3.276
64317W        W29478   7.454  15.793   2.135
64318W        W29479  19.739  44.599  10.756
64319W        W29480  23.615  22.536   2.259
64320W        W29481  25.267  21.638  14.371
64321W        W29482  22.311   0.285   0.373
64322W        W29483  15.392   5.283  11.918
64323W        W29484  36.096  33.835   4.599
64324W        W29485  44.579  34.506  13.016
64325W        W29486  22.174  33.861   3.104
64326W        W29487  35.404  35.374  11.496
64327W        W29488  20.164   0.299  11.454
64328W        W29489   8.361   2.451  11.593
64329W        W29490   4.821   2.759   3.561
64330W        W29491  26.400   7.737  14.948
64331W        W29492  15.339  29.430  10.839
64332W        W29493  26.669  24.691   1.375
64333W        W29494  17.831  11.326   0.997
64334W        W29495  19.762  43.034  10.425
64335W        W29496  27.038  11.113  12.463
64336W        W29497  32.008   5.159  11.517
64337W        W29498  44.860  26.821  14.921
64338W        W29499  36.828  39.698   2.266
64339W        W29500  18.568   3.879   2.281
64340W        W29501  11.421   9.256   0.324
64341W        W29502  16.220  41.027   1.230
64342W        W29503  41.827  29.601   3.166
64343W        W29504  41.963  22.016   3.357
64344W        W29505   4.810  40.239   4.239
64345W        W29506  36.596  27.873   3.036
64346W        W29507   1.881  32.121  11.910
64347W        W29508  40.966  38.150   4.070
64348W        W29509  10.596  33.223  11.194
64349W        W29510   5.796  15.091  13.489
64350W        W29511  30.347  33.864   3.589
64351W        W29512  10.393  39.873  12.114
64352W        W29513  27.541   7.769  13.777
64353W        W29514   0.305  10.004   1.313
64354W        W29515  21.129  43.527   2.788
64355W        W29516  25.106   2.407  11.905
64356W        W29517   0.966   0.811   0.971
64357W        W29518  37.490   1.942  11.028
64358W        W29519  42.596  43.903  14.246
64359W        W29520  39.892  43.476   0.481
64360W        W29521   4.179  19.615   2.008
64361W        W29522   6.871   7.207   2.414
64362W        W29523  34.390  43.213   2.671
64363W        W29524   5.855  12.589  11.442
64364W        W29525  17.245  26.297   4.116
64365W        W29526  24.487   6.316  13.830
64366W        W29527  12.682  31.641  14.796
64367W        W29528  12.764  40.736   0.296
64368W        W29529  14.410  30.250   0.413
64369W        W29530  21.579   1.501   1.266
64370W        W29531  35.264   2.857   3.826
64371W        W29532  26.358  22.526  14.084
64372W        W29533  31.658  42.869  13.318
64373W        W29534  41.940  35.786   1.521
64374W        W29535  31.361   4.911   1.732
64375W        W29536  16.717   5.720  14.729
64376W        W29537  25.524   8.480  13.215
64377W        W29538  22.948  18.181  11.697
64378W        W29539  22.015  44.032   1.982
64379W        W29540  42.731  41.972  13.418
64380W        W29541  15.328   2.880   1.004
64381W        W29542   6.906  25.016   0.237
64382W        W29543   0.352  42.256  14.643
64383W        W29544  13.884  44.890  14.267
64384W        W29545  37.246   2.239   3.572
64385W        W29546   8.962  37.895   3.239
64386W        W29547  24.550  18.319   4.607
64387W        W29548  34.170  32.051  11.098
64388W        W29549  28.110  34.809  13.428
64389W        W29550   1.289  10.740  14.869
64390W        W29551   6.272  34.219   4.996
64391W        W29552  38.006  35.918   2.820
64392W        W29553  30.959  36.841   0.817
64393W        W29554  43.103  14.819   1.342
64394W        W29555  20.327   1.951  13.400
64395W        W29556  37.343  12.748  14.028
64396W        W29557  44.401   8.862  11.221
64397W        W29558  26.056  42.542  10.492
64398W        W29559   5.422  12.896  11.416
64399W        W29560  18.032  24.998   2.865
64400W        W29561  28.713   0.375   0.590
64401W        W29562   4.945  34.878  14.797
64402W        W29563  22.768  36.942   1.979
64403W        W29564  31.108  41.585  13.350
64404W        W29565  32.873  11.601   0.297
64405W        W29566  31.050  43.547   2.627
64406W        W29567   6.761  16.872  10.997
64407W        W29568  21.727   2.221  11.156
64408W        W29569  11.683  34.341  12.612
64409W        W29570  38.475  30.586  11.172
64410W        W29571   5.858  37.720  11.719
64411W        W29572  33.890   0.709   3.458
64412W        W29573  11.526  25.952  13.311
64413W        W29574  28.197  19.497   0.194
64414W        W29575  17.092  44.510   4.096
64415W        W29576  31.886  14.658  10.527
64416W        W29577   2.711  16.380   4.898
64417W        W29578  38.148  11.290  11.710
64418W        W29579  25.941  35.898   3.615
64419W        W29580  41.009   2.252   4.071
64420W        W29581  44.274  34.376   2.256
64421W        W29582   5.810   5.708  10.587
64422W        W29583   4.134   6.626   4.605
64423W        W29584  14.705  23.126  10.913
64424W        W29585  24.415  11.150  12.263
64425W        W29586   4.848  33.340  14.797
64426W        W29587  31.771  13.933  13.476
64427W        W29588  22.005  33.882  13.819
64428W        W29589  37.318  28.636  12.873
64429W        W29590   4.785  39.806  14.388
64430W        W29591  40.333  37.710   1.510
64431W        W29592   6.678  34.537   2.265
64432W        W29593  38.728  35.342   2.732
64433W        W29594  35.044  26.966   4.194
64434W        W29595   4.553  36.530  13.303
64435W        W29596  16.582  22.020   0.222
64436W        W29597  11.443  36.840   0.919
64437W        W29598   6.464  38.438   3.200
64438W        W29599  44.484   7.833  13.470
64439W        W29600  43.077  41.914  10.505
64440W        W29601  26.948  35.511  14.707
64441W        W29602  29.475  41.475  12.128
64442W        W29603  42.918  42.367   2.865
64443W        W29604  35.135  22.175   0.821
64444W        W29605  18.726  32.276  14.248
64445W        W29606  16.207  44.732  10.282
64446W        W29607  15.816   7.582  11.501
64447W        W29608  33.275  34.125   0.412
64448W        W29609  18.590  21.444   4.999
64449W        W29610  13.542  36.016  12.677
64450W        W29611  17.696   7.317   2.381
64451W        W29612  34.173  24.579  10.225
64452W        W29613   7.298  15.909   2.662
64453W        W29614  43.660   9.790   1.252
64454W        W29615  33.352   4.588  11.381
64455W        W29616  16.519   3.398  12.600
64456W        W29617  21.725  27.571  14.992
64457W        W29618  27.289  29.165  12.519
64458W        W29619  37.440  22.505  10.745
64459W        W29620  17.813  17.125  13.533
64460W        W29621  25.150  41.889  12.897
64461W        W29622   5.273  10.154   1.655
64462W        W29623  34.547  25.664   1.279
64463W        W29624   5.454  18.237  12.032
64464W        W29625  21.735   5.889  10.760
64465W        W29626  10.123  38.649   1.960
64466W        W29627  16.294  23.772   3.583
64467W        W29628  36.400  17.722   4.095
64468W        W29629  29.634  32.865  12.136
64469W        W29630  38.131  16.315  11.539
64470W        W29631   5.647  18.739  13.937
64471W        W29632   5.707   1.260   3.627
64472W        W29633  24.283  28.258  10.634
64473W        W29634  23.249  11.250   2.396
64474W        W29635  41.275  28.938   3.110
64475W        W29636  16.824  44.318   3.678
64476W        W29637  31.084  28.628   4.624
64477W        W29638  34.983   8.894   1.970
64478W        W29639  42.896  20.530  10.769
64479W        W29640  33.692   2.435  13.553
64480W        W29641  41.873  18.504  12.451
64481W        W29642  40.903  16.783   3.594
64482W        W29643  35.002  14.738   0.500
64483W        W29644  14.236   7.634   0.889
64484W        W29645  33.516  42.501  11.334
64485W        W29646   7.287  20.725  14.912
64486W        W29647  23.753   7.885   3.314
64487W        W29648  33.056  37.369   2.153
64488W        W29649  42.345  41.028  14.349
64489W        W29650   8.116   8.628   3.369
64490W        W29651   3.548   2.289  12.377
64491W        W29652  19.152  32.235  14.606
64492W        W29653   5.945  16.842  14.866
64493W        W29654  30.965  36.134   4.532
64494W        W29655   9.424  28.900   4.686
64495W        W29656   7.317  38.854   2.243
64496W        W29657  30.477   8.347  14.566
64497W        W29658  13.656  25.671  13.974
64498W        W29659  34.178  27.674  13.858
64499W        W29660  29.014   1.428   0.464
64500W        W29661  21.783  35.557   2.157
64501W        W29662   9.189  38.115  12.506
64502W        W29663  20.195  31.300  13.155
64503W        W29664  29.132  42.126   2.654
64504W        W29665  16.525  30.511  12.984
64505W        W29666   7.672  43.757   2.801
64506W        W29667  31.414  29.672  14.815
64507W        W29668   6.420   2.423   1.298
64508W        W29669  43.088  44.113  10.679
64509W        W29670  26.614  11.069  12.806
64510W        W29671  27.363  19.613  11.005
64511W        W29672   4.665   5.695  13.381
64512W        W29673  39.938  27.613  11.596
64513W        W29674   6.461  30.136  10.156
64514W        W29675  12.831   9.207  13.151
64515W        W29676   4.042  22.582   1.404
64516W        W29677   3.453  25.548   2.697
64517W        W29678  36.990  24.646  10.611
64518W        W29679  11.238  36.739  14.010
64519W        W29680  40.662  36.782   4.607
64520W        W29681  38.124   1.524  10.312
64521W        W29682  15.025  23.558  12.319
64522W        W29683  34.566  23.260   0.691
64523W        W29684   5.336   5.639   0.942
64524W        W29685  12.163  34.112  12.501
64525W        W29686  20.727  36.038  13.362
64526W        W29687  30.438  26.082  10.599
64527W        W29688   2.276  14.656  14.456
64528W        W29689   4.462   6.703   2.736
64529W        W29690   1.290  42.369   3.719
64530W        W29691  42.737  10.620  12.870
64531W        W29692  20.203  22.119  14.261
64532W        W29693  23.921   6.566   1.583
64533W        W29694  21.148  15.553   2.837
64534W        W29695  24.435  20.894  11.185
64535W        W29696  26.864  29.491   1.652
64536W        W29697  41.053   7.770  14.944
64537W        W29698  25.782   7.001  12.150
64538W        W29699  17.205  17.104  14.857
64539W        W29700  19.701  11.120   4.141
64540W        W29701  31.265  17.496  13.025
64541W        W29702   1.829  15.153   4.655
64542W        W29703   9.274  23.781  10.786
64543W        W29704   3.224   5.904  14.472
64544W        W29705   1.223   7.228   0.897
64545W        W29706  21.654   3.231   1.693
64546W        W29707   7.356  30.799   0.390
64547W        W29708  14.174  31.880   2.203
64548W        W29709  44.291  14.226  10.286
64549W        W29710  39.353  43.051   2.231
64550W        W29711  23.778   4.783  10.618
64551W        W29712  32.187  12.117  14.517
64552W        W29713  38.077  23.660  13.861
64553W        W29714  19.261  10.300  13.000
64554W        W29715  36.818  28.655   0.939
64555W        W29716  43.877  16.904   2.821
64556W        W29717  14.360  17.300  14.974
64557W        W29718   8.389   3.749  14.744
64558W        W29719  29.087  19.673  13.556
64559W        W29720  17.311  38.163   0.627
64560W        W29721  17.794   6.265   1.801
64561W        W29722  39.797  33.918   3.051
64562W        W29723  22.509  20.096   0.356
64563W        W29724  29.357  20.147   1.584
64564W        W29725  25.285   4.801   5.355
64565W        W29726  35.970  33.905  12.118
64566W        W29727  33.378  11.306  11.811
64567W        W29728  12.580  14.875   4.090
64568W        W29729  40.755  16.109   4.163
64569W        W29730  30.073  10.424   1.266
64570W        W29731  35.093   5.600  14.951
64571W        W29732  43.382  28.923  10.594
64572W        W29733  36.955  44.419  13.304
64573W        W29734   3.806  35.127  12.554
64574W        W29735  40.795  25.640   2.680
64575W        W29736  13.305  23.084  12.466
64576W        W29737   9.927  11.758  10.522
64577W        W29738   6.311   0.470  14.291
64578W        W29739  11.366  40.329  11.081
64579W        W29740   6.733  23.752  11.097
64580W        W29741   2.988  43.182   2.260
64581W        W29742  42.937  23.033   4.394
64582W        W29743  38.910   2.935   3.022
64583W        W29744  22.249  24.192   2.071
64584W        W29745  44.024  13.296   1.542
64585W        W29746  23.642  38.483   9.685
64586W        W29747  11.812  22.523   3.391
64587W        W29748  15.530  10.689  13.996
64588W        W29749   9.005  37.517  12.063
64589W        W29750  25.635  38.054  12.902
64590W        W29751  15.247  28.512  12.081
64591W        W29752  39.633  24.156  10.604
64592W        W29753  38.301  24.104  14.023
64593W        W29754   9.153  43.039  11.042
64594W        W29755  32.653  33.583   1.906
64595W        W29756  27.855  12.553   1.326
64596W        W29757  20.016  14.825   1.235
64597W        W29758  15.230   0.546   1.109
64598W        W29759  14.300  31.486  13.879
64599W        W29760  10.334   6.989  12.159
64600W        W29761  14.784  20.159  13.596
64601W        W29762  33.129   5.910  12.429
64602W        W29763  43.915  17.693   0.341
64603W        W29764  36.024   3.866  12.004
64604W        W29765  29.055  39.801   1.856
64605W        W29766  38.830  27.673  13.323
64606W        W29767  38.166  15.583   0.361
64607W        W29768  37.475  20.544   2.634
64608W        W29769  23.233   1.604  12.523
64609W        W29770  36.947  12.780   0.040
64610W        W29771  24.226  22.707  13.766
64611W        W29772  27.068  38.312   1.753
64612W        W29773   1.791  38.059  11.674
64613W        W29774  32.046  21.448   0.472
64614W        W29775   4.675  27.603  14.265
64615W        W29776  14.616  39.218   2.941
64616W        W29777  38.966  10.559  11.087
64617W        W29778  31.038   4.669  13.434
64618W        W29779  41.281  11.797  14.374
64619W        W29780  15.071  17.639   2.732
64620W        W29781  16.515  26.788   2.652
64621W        W29782   1.315  24.771   0.913
64622W        W29783  42.717  30.538  13.865
64623W        W29784  37.605  30.656  13.370
64624W        W29785  43.008  41.538  14.254
64625W        W29786  19.324  43.387   2.667
64626W        W29787  24.132  42.128  10.694
64627W        W29788  35.878  15.617   1.284
64628W        W29789  40.915  11.990  12.350
64629W        W29790  35.918  42.996   4.700
64630W        W29791  17.267  33.461   2.214
64631W        W29792  42.355  41.781   4.721
64632W        W29793  25.659  17.183   3.634
64633W        W29794   6.638  14.312   1.925
64634W        W29795  15.466  13.357   4.102
64635W        W29796   1.445  12.044   4.994
64636W        W29797   8.328  21.292   4.429
64637W        W29798   4.295  42.211   2.186
64638W        W29799  32.067  27.608  10.547
64639W        W29800  31.733  18.382  12.314
64640W        W29801   6.930  13.686  13.955
64641W        W29802  24.538  34.587   0.297
64642W        W29803   9.433  32.685  13.434
64643W        W29804  24.758  36.303   4.999
64644W        W29805  27.143  10.347  14.478
64645W        W29806  30.446   0.888  10.911
64646W        W29807  39.319  25.850  13.347
64647W        W29808  21.595  26.283  11.397
64648W        W29809  16.087   2.210   1.633
64649W        W29810  31.437  18.034  10.460
64650W        W29811  27.647  22.121   0.245
64651W        W29812  13.360  12.109   3.810
64652W        W29813  19.638  10.276  10.185
64653W        W29814  12.761  38.359  11.803
64654W        W29815  11.572   6.667   2.389
64655W        W29816  32.495   5.531   2.856
64656W        W29817  15.964  13.513  12.963
64657W        W29818  43.337  16.547   0.982
64658W        W29819  10.616  13.229   2.900
64659W        W29820  16.625  41.504  13.228
64660W        W29821  20.745  40.490   1.883
64661W        W29822  26.626  44.514  13.949
64662W        W29823  19.230   3.771  10.915
64663W        W29824  37.923  15.811   3.290
64664W        W29825  38.504  38.988   1.568
64665W        W29826  15.654  35.958  12.150
64666W        W29827  32.136  28.063  11.814
64667W        W29828  32.361   4.467  10.285
64668W        W29829   8.290  24.207  11.472
64669W        W29830  40.351   0.451   2.871
64670W        W29831  28.175  24.031  11.146
64671W        W29832  31.308  38.413   4.474
64672W        W29833   4.177  27.222  10.636
64673W        W29834  44.964  39.994   4.662
64674W        W29835  44.249  21.593   2.844
64675W        W29836  10.916   0.289   1.859
64676W        W29837  30.118  28.376  14.388
64677W        W29838  18.632  28.922   3.585
64678W        W29839  44.791  33.502   0.979
64679W        W29840   9.275  41.553  13.960
64680W        W29841  29.918  40.333  13.000
64681W        W29842   0.221  41.222  12.073
64682W        W29843   3.449  15.396  14.976
64683W        W29844   3.335  35.459  14.345
64684W        W29845  23.225  21.614  12.614
64685W        W29846  43.764  30.493   0.946
64686W        W29847  28.658   9.272   2.795
64687W        W29848  30.551  41.022   3.670
64688W        W29849  12.735  12.629  11.148
64689W        W29850  10.147  16.824   3.597
64690W        W29851  35.319  12.073  10.602
64691W        W29852  39.541  44.214   4.133
64692W        W29853  28.231   8.782  14.848
64693W        W29854   2.433  42.174   3.634
64694W        W29855  28.978  31.365  12.886
64695W        W29856  16.187  33.482  14.411
64696W        W29857  35.146  11.281   1.316
64697W        W29858  44.377  30.412  12.744
64698W        W29859   3.394   3.255  14.546
64699W        W29860  25.724  34.148  11.387
64700W        W29861   7.289  42.461   2.213
64701W        W29862  14.036  27.024  12.140
64702W        W29863   6.647  24.262  11.119
64703W        W29864  21.302  27.757  12.517
64704W        W29865  13.222  24.186  14.606
64705W        W29866  16.816   2.199   3.810
64706W        W29867  30.496   2.415  10.742
64707W        W29868  15.316  14.081   0.800
64708W        W29869  10.412   6.860   2.607
64709W        W29870   6.712  36.426  13.019
64710W        W29871  24.470  38.991   1.821
64711W        W29872   2.691  13.637  11.680
64712W        W29873  37.863  12.722   4.212
64713W        W29874  14.263  37.956   3.949
64714W        W29875   6.405  10.581   1.196
64715W        W29876  21.156  12.181   4.572
64716W        W29877  25.036  44.237  14.289
64717W        W29878   3.120  35.718   3.601
64718W        W29879  14.129  14.912  13.346
64719W        W29880  20.239   1.836  12.548
64720W        W29881  17.164   4.353  11.896
64721W        W29882  33.331   8.520  10.348
64722W        W29883  16.560  26.880  11.801
64723W        W29884  34.467  17.778  11.757
64724W        W29885  25.575  25.760   4.778
64725W        W29886  25.532  19.736  12.846
64726W        W29887  27.545  43.489   3.529
64727W        W29888  33.119  37.942  11.995
64728W        W29889   1.930  41.792  12.467
64729W        W29890  43.022  22.618  11.117
64730W        W29891  42.811  31.483  12.508
64731W        W29892  28.045  14.567  10.704
64732W        W29893  42.509  13.487   0.816
64733W        W29894  13.908  23.088  14.756
64734W        W29895  24.253  39.643   2.459
64735W        W29896  22.038  43.785  11.948
64736W        W29897  19.866  24.845   9.661
64737W        W29898  34.497  28.927  13.191
64738W        W29899  20.584   0.162  10.670
64739W        W29900  43.629  34.059  10.285
64740W        W29901  15.585  13.722  13.368
64741W        W29902   9.765  20.953  12.881
64742W        W29903  42.304  20.564   0.552
64743W        W29904  44.701  29.877  12.495
64744W        W29905   7.757  10.628   1.374
64745W        W29906  14.803  36.926   4.463
64746W        W29907  41.573   5.263   2.361
64747W        W29908   5.972   4.356  11.023
64748W        W29909  23.484  14.798  10.693
64749W        W29910  14.373   5.983  14.763
64750W        W29911  11.176  27.094   4.257
64751W        W29912   9.267  14.314  10.885
64752W        W29913  11.198  10.869   1.244
64753W        W29914  23.905  34.179  10.397
64754W        W29915  29.534  37.651  12.233
64755W        W29916  16.091  25.956   0.412
64756W        W29917   0.264   8.674   2.815
64757W        W29918   9.567  31.149   3.909
64758W        W29919  21.430  37.107   3.533
64759W        W29920   0.999  27.263   3.662
64760W        W29921  40.957   4.385  14.529
64761W        W29922  40.358   3.297  11.461
64762W        W29923  33.297  38.541  10.982
64763W        W29924  15.832  22.056   3.170
64764W        W29925  42.492  35.273   3.780
64765W        W29926  21.110  32.414   3.677
64766W        W29927  28.775  33.358  10.685
64767W        W29928  37.807  21.839  13.771
64768W        W29929  39.313   2.196   4.063
64769W        W29930  13.158   4.409   3.406
64770W        W29931   5.965  35.560   2.046
64771W        W29932  26.865  26.544   3.369
64772W        W29933   0.836  25.646   1.056
64773W        W29934   3.244  35.264   3.851
64774W        W29935  11.586  41.373  10.142
64775W        W29936   7.813  41.780   3.159
64776W        W29937  15.646   6.107   0.398
64777W        W29938  29.855   6.028  13.462
64778W        W29939  39.934  24.307   1.586
64779W        W29940  26.142   9.761   0.235
64780W        W29941   4.023  19.684  14.828
64781W        W29942  39.939  27.168   4.226
64782W        W29943   2.165   8.356  12.280
64783W        W29944  39.800  21.696  11.671
64784W        W29945   3.267  32.463   4.585
64785W        W29946   2.481  28.148   3.090
64786W        W29947  22.088  17.474  10.684
64787W        W29948  18.193  30.169  12.974
64788W        W29949  39.589  41.515  14.352
64789W        W29950  13.792  10.396   1.879
64790W        W29951  36.400  23.527   4.081
64791W        W29952  43.311  29.375   2.661
64792W        W29953  35.378  14.795   1.447
64793W        W29954   2.801  44.886  13.445
64794W        W29955  41.798   0.475   2.837
64795W        W29956  19.718  30.543   1.295
64796W        W29957  11.107  14.418   4.222
64797W        W29958  27.649  20.020  14.043
64798W        W29959  22.706  13.793  14.467
64799W        W29960  14.251  23.811  14.381
64800W        W29961  25.028  19.259  14.098
64801W        W29962  32.389  44.595  13.880
64802W        W29963  31.207  27.340   2.364
64803W        W29964  35.105  12.873   2.840
64804W        W29965  34.501  13.828  10.858
64805W        W29966   1.960  20.168   4.133
64806W        W29967  21.022  23.243   4.569
64807W        W29968  37.727  25.264  11.055
64808W        W29969  37.583  21.574  11.926
64809W        W29970   0.412  26.544  13.396
64810W        W29971  25.694   2.766  13.954
64811W        W29972   8.872  40.343   0.562
64812W        W29973  14.806  33.582   9.857
64813W        W29974  15.422  11.095   0.788
64814W        W29975   1.678  42.424  10.714
64815W        W29976   5.460  38.981   2.146
64816W        W29977  39.089  23.404  13.845
64817W        W29978  15.152  14.711   3.634
64818W        W29979  35.858   0.889   4.552
64819W        W29980  19.803  38.604  14.513
64820W        W29981  30.837  43.409  12.087
64821W        W29982  27.977  21.989   2.192
64822W        W29983   9.301  11.230   1.065
64823W        W29984   1.931   1.221   4.086
64824W        W29985  33.998  15.165  14.786
64825W        W29986  38.984  30.868   0.568
64826W        W29987  24.026  31.935   1.817
64827W        W29988  12.740  38.887  10.701
64828W        W29989  20.613  32.891  13.472
64829W        W29990  14.263  18.114   4.210
64830W        W29991  35.270   6.722   4.090
64831W        W29992  42.984  35.506   3.085
64832W        W29993  12.094  34.483  11.403
64833W        W29994   0.863  18.065   3.262
64834W        W29995   0.213  26.699   2.413
64835W        W29996  30.900  23.797  12.271
64836W        W29997  26.119  12.800  11.139
64837W        W29998  37.020  44.746  14.459
64838W        W29999  11.532  14.113   1.473
64839W        W30000  32.044  21.215  13.020
64840W        W30001  32.730  21.625   2.198
64841W        W30002   9.879   8.674  10.613
64842W        W30003  20.175   5.587   2.978
64843W        W30004  27.562  33.388   0.366
64844W        W30005   8.167  19.514   0.319
64845W        W30006  27.422  22.044   4.294
64846W        W30007   2.710  43.383   2.663
64847W        W30008  14.241   4.154  14.304
64848W        W30009  18.102  36.909   3.091
64849W        W30010   4.727   5.795   1.856
64850W        W30011  26.039  21.321  10.683
64851W        W30012   4.322   0.499   0.840
64852W        W30013  37.481  18.079  12.447
64853W        W30014  15.183  29.577   0.943
64854W        W30015  12.334  28.859   1.863
64855W        W30016  31.204   2.791   1.704
64856W        W30017  36.463  11.579   1.667
64857W        W30018   2.957   1.895  11.937
64858W        W30019  10.790   5.503   1.273
64859W        W30020  43.490  24.441   1.184
64860W        W30021  18.079  43.927   2.864
64861W        W30022   5.202  34.580  11.642
64862W        W30023  29.135  42.025   2.155
64863W        W30024  29.036  16.183  10.913
64864W        W30025   7.691  39.919  12.659
64865W        W30026  22.147  28.107   1.769
64866W        W30027  28.692  36.822  14.303
64867W        W30028  39.936  40.702  14.354
64868W        W30029  35.444  39.595   0.660
64869W        W30030  38.086  11.154   3.069
64870W        W30031  27.924  37.572  10.945
64871W        W30032   1.385   3.904   2.811
64872W        W30033   9.167   4.716   3.210
64873W        W30034  15.074   1.290   1.943
64874W        W30035  38.723  22.616   3.064
64875W        W30036  30.592  33.529  14.296
64876W        W30037  20.393  20.046   4.672
64877W        W30038  17.016  10.856  13.779
64878W        W30039   9.192  30.558   2.272
64879W        W30040  44.033   5.623   0.900
64880W        W30041  35.999  19.544  10.742
64881W        W30042  18.626  36.066  12.973
64882W        W30043  17.018  30.644   4.787
64883W        W30044  31.335   7.472   0.415
64884W        W30045  14.723  27.380  13.503
64885W        W30046  18.259  10.772   4.894
64886W        W30047  27.179  37.379  14.413
64887W        W30048   9.664   4.681   3.191
64888W        W30049  19.132   4.248  11.122
64889W        W30050  23.161  10.623  11.568
64890W        W30051  24.501   5.134   4.551
64891W        W30052  44.016  31.531  13.961
64892W        W30053  10.639   2.697  12.459
64893W        W30054   9.290  34.528  11.865
64894W        W30055  15.784  43.297   3.744
64895W        W30056  23.495  35.048  12.474
64896W        W30057  36.835  15.398  12.912
64897W        W30058  16.737  35.753   0.410
64898W        W30059  12.283  27.579   2.801
64899W        W30060   9.822  37.370   4.611
64900W        W30061  18.102   8.895  12.600
64901W        W30062  43.260  34.735   2.684
64902W        W30063  44.383  13.215  14.115
64903W        W30064   7.431  35.640  11.138
64904W        W30065  28.957  14.256   4.587
64905W        W30066  26.489  11.632   1.298
64906W        W30067  37.026  21.865   1.053
64907W        W30068  27.993  11.139   3.328
64908W        W30069  39.353  34.927   1.688
64909W        W30070  27.289  37.412   3.134
64910W        W30071   7.683   2.993  11.725
64911W        W30072  38.644  17.577  10.780
64912W        W30073  14.847  33.485  13.238
64913W        W30074  22.065  38.360   3.635
64914W        W30075  26.976  24.512  13.899
64915W        W30076   3.691   6.673   3.285
64916W        W30077  22.688  12.168   3.366
64917W        W30078  24.080  19.656  11.416
64918W        W30079  39.739  29.123  13.298
64919W        W30080  18.106  19.493  12.402
64920W        W30081   6.597  11.273  11.912
64921W        W30082  29.466  30.095  10.667
64922W        W30083   1.213  37.039  14.939
64923W        W30084  24.881   0.063  11.668
64924W        W30085  23.496   6.246  10.887
64925W        W30086  32.955  41.007  14.065
64926W        W30087  18.008  44.593  14.349
64927W        W30088  27.987   6.667  13.162
64928W        W30089  38.781  19.253   4.409
64929W        W30090  42.535  24.923  12.098
64930W        W30091   6.795  32.373   0.009
64931W        W30092  31.027   8.094   4.547
64932W        W30093  32.440   3.273  14.488
64933W        W30094  31.427  32.481  13.949
64934W        W30095  35.812  23.777   4.539
64935W        W30096  40.765   1.299  12.482
64936W        W30097  44.721  22.771  10.404
64937W        W30098  30.054  10.178  13.981
64938W        W30099  24.267  20.095  11.596
64939W        W30100  11.823  22.442  14.131
64940W        W30101  21.641  34.273   4.086
64941W        W30102  11.704   6.781  14.001
64942W        W30103  28.449  11.197  14.349
64943W        W30104   4.512  13.002  11.576
64944W        W30105   8.444  25.688   9.505
64945W        W30106   9.079   9.434  13.983
64946W        W30107   7.766  21.058  11.366
64947W        W30108  23.810  26.041   2.520
64948W        W30109  10.327  37.199   1.820
64949W        W30110  24.176  14.078  13.844
64950W        W30111  11.989  16.898  11.527
64951W        W30112  37.494   3.845  11.311
64952W        W30113  29.526  28.383   1.007
64953W        W30114  33.915  37.370  14.465
64954W        W30115  17.977  23.024   0.064
64955W        W30116   4.557  14.758   0.801
64956W        W30117   0.904  17.004  14.765
64957W        W30118  17.312  43.114   3.200
64958W        W30119  35.394  12.309  11.467
64959W        W30120  14.457   6.724  14.281
64960W        W30121  37.250   8.121  13.848
64961W        W30122  14.356  20.801  10.610
64962W        W30123  22.722  40.097  14.396
64963W        W30124   5.863  22.847   0.379
64964W        W30125  43.482  14.238  11.669
64965W        W30126  41.922  39.524  10.600
64966W        W30127  39.965  36.506   1.809
64967W        W30128  34.674  10.819  13.028
64968W        W30129  16.992  27.526  14.757
64969W        W30130   4.517   0.937   2.688
64970W        W30131  36.837  33.182  11.516
64971W        W30132  34.515  35.479  10.912
64972W        W30133  40.962  19.068   2.427
64973W        W30134   1.365  34.163   2.313
64974W        W30135  27.950   1.419   3.976
64975W        W30136  42.296   5.377   4.178
64976W        W30137  31.636  31.473  11.472
64977W        W30138   2.886   0.498  14.449
64978W        W30139  14.837  21.899   1.916
64979W        W30140  20.657  35.570  12.604
64980W        W30141  36.897  26.974   1.806
64981W        W30142  14.083  18.308   3.742
64982W        W30143  18.263  11.622   0.876
64983W        W30144  21.392   4.039  12.021
64984W        W30145  32.261  26.285   2.366
64985W        W30146   6.237  14.725  13.414
64986W        W30147  29.529  19.489   3.242
64987W        W30148  30.125  30.180  14.845
64988W        W30149  44.870  25.636  12.083
64989W        W30150  31.112   0.017   2.498
64990W        W30151  18.243   2.889  12.488
64991W        W30152  11.392  27.674  14.831
64992W        W30153  40.973  44.473  14.896
64993W        W30154  14.145  14.116   2.452
64994W        W30155  14.540  23.955  14.927
64995W        W30156  21.104  12.597   1.821
64996W        W30157   9.822  31.047  14.485
64997W        W30158  30.431  39.405   4.644
64998W        W30159  22.675  38.609   1.191
64999W        W30160   8.984   6.999  11.929
65000W        W30161  38.431   6.931  11.184
65001W        W30162  29.451  27.567  14.451
65002W        W30163  31.887  35.946   2.525
65003W        W30164   5.426  26.286   2.314
65004W        W30165  24.938  29.027  13.486
65005W        W30166   4.356  35.411  14.516
65006W        W30167  32.683   2.414  12.472
65007W        W30168  33.549   6.899  11.254
65008W        W30169  34.001  40.638   3.613
65009W        W30170  10.166  38.197  10.182
65010W        W30171  41.964  27.640  10.670
65011W        W30172  37.059  39.245   4.519
65012W        W30173  11.395  17.398   2.256
65013W        W30174   4.198  32.544  11.175
65014W        W30175   3.275  20.334   2.535
65015W        W30176   8.373  31.877  13.451
65016W        W30177  19.033   8.862   4.607
65017W        W30178  23.564  10.301   4.470
65018W        W30179  35.350  44.885   2.296
65019W        W30180  33.661  13.141  12.798
65020W        W30181  28.703  26.793  13.747
65021W        W30182   3.849  13.240   2.354
65022W        W30183  33.620  15.111  14.364
65023W        W30184  16.133  28.602  12.310
65024W        W30185   4.805  16.300   3.101
65025W        W30186  14.582   7.414   0.024
65026W        W30187   2.955  14.102   2.952
65027W        W30188  33.654   3.795  11.305
65028W        W30189   3.197  31.658   3.208
65029W        W30190  16.309  25.386   4.770
65030W        W30191  35.388  34.317   3.307
65031W        W30192  22.132  35.119   2.934
65032W        W30193  22.778   2.779  10.656
65033W        W30194  44.604  34.078  10.602
65034W        W30195   1.690   5.088   2.335
65035W        W30196  15.649   8.739   0.697
65036W        W30197  26.081   0.044  11.918
65037W        W30198   3.926  22.073   1.419
65038W        W30199  29.612  13.649   4.286
65039W        W30200  22.172  35.465  13.069
65040W        W30201   2.942  10.812   3.069
65041W        W30202  20.111  36.846   4.081
65042W        W30203   1.423  27.689   4.574
65043W        W30204  35.417  23.992  12.367
65044W        W30205  27.186   6.455   4.237
65045W        W30206   4.762  13.120   4.021
65046W        W30207  29.802  21.293   4.655
65047W        W30208   2.310  36.068   1.129
65048W        W30209  37.468  25.970  14.933
65049W        W30210  22.754  22.968  11.699
65050W        W30211  12.716   7.710  13.077
65051W        W30212   0.563  21.358  11.861
65052W        W30213  18.389   4.157   0.993
65053W        W30214  37.365  43.770   0.754
65054W        W30215   0.504  15.117   4.120
65055W        W30216  15.485   6.355   1.382
65056W        W30217  43.350  35.744   3.412
65057W        W30218  39.289  42.524  10.853
65058W        W30219  10.239  18.335   1.995
65059W        W30220   8.431  10.264  11.101
65060W        W30221  14.219  14.128  10.726
65061W        W30222  23.145  42.355   1.853
65062W        W30223   8.380  28.599   4.030
65063W        W30224  32.378  18.684  10.671
65064W        W30225  11.475  44.395  14.403
65065W        W30226  34.392  42.775   0.453
65066W        W30227   6.793  36.956  11.973
65067W        W30228  31.048  41.980  14.039
65068W        W30229  17.705  22.022  11.976
65069W        W30230  23.669  30.902   4.127
65070W        W30231  12.413  36.407   0.742
65071W        W30232  37.654  42.508   1.587
65072W        W30233  20.408  35.581   2.161
65073W        W30234  19.524  42.847  11.327
65074W        W30235   4.337   2.407  12.971
65075W        W30236  37.141  17.789  11.656
65076W        W30237  10.003  35.132   0.704
65077W        W30238  43.970  11.754   4.673
65078W        W30239  39.472  23.661  10.446
65079W        W30240   1.204   0.977   3.540
65080W        W30241  27.672  26.877  12.130
65081W        W30242  38.249  43.291   3.300
65082W        W30243  16.583   4.422  10.645
65083W        W30244  37.615  26.471   2.323
65084W        W30245  28.534  31.883  12.108
65085W        W30246  25.776   8.847   1.434
65086W        W30247   4.325  24.445   0.946
65087W        W30248  15.541  17.963  11.914
65088W        W30249  18.099  10.838   2.249
65089W        W30250  37.898   3.129  10.928
65090W        W30251  41.345  20.973  12.051
65091W        W30252   7.102  44.416   4.294
65092W        W30253  25.882  39.490   1.795
65093W        W30254  10.105  22.027  11.449
65094W        W30255  25.558  42.022   2.810
65095W        W30256   6.616  22.069  13.265
65096W        W30257  21.066  21.328  14.275
65097W        W30258  43.771  15.232  14.820
65098W        W30259  43.404  30.169   1.110
65099W        W30260  35.664  17.274   3.162
65100W        W30261   3.724  23.909  12.906
65101W        W30262   4.016  21.143   1.394
65102W        W30263   0.522  21.951   0.370
65103W        W30264  32.730  14.919   0.438
65104W        W30265  30.148  12.039   1.793
65105W        W30266  34.480  41.821  12.190
65106W        W30267   6.237  13.058  11.192
65107W        W30268  36.830  27.619   2.633
65108W        W30269   4.149  13.072  10.974
65109W        W30270  34.384  37.096  12.922
65110W        W30271  21.827  41.544  14.326
65111W        W30272  24.442  13.756   3.228
65112W        W30273  35.929  23.709   3.182
65113W        W30274   2.364  20.733   2.767
65114W        W30275   1.530  30.243  11.440
65115W        W30276  39.269   1.412   0.289
65116W        W30277  12.864  32.066  11.689
65117W        W30278  13.763  18.667   0.327
65118W        W30279   1.831  21.287   0.731
65119W        W30280   8.610  11.665  12.983
65120W        W30281  12.612   1.759  12.326
65121W        W30282  14.408  20.468   1.758
65122W        W30283  13.694  36.203   4.293
65123W        W30284  34.576  18.197  11.463
65124W        W30285  13.096  42.175  13.897
65125W        W30286  35.836  28.324  13.156
65126W        W30287  16.730  29.886   1.765
65127W        W30288  24.789   5.418   1.330
65128W        W30289  18.205  18.212  13.783
65129W        W30290  32.447  36.783   2.534
65130W        W30291   0.850  16.174  12.052
65131W        W30292  42.962  30.162  11.994
65132W        W30293   8.914  42.033   3.287
65133W        W30294  24.445  10.693   1.329
65134W        W30295  16.247  14.107   3.258
65135W        W30296  16.020   0.140   9.986
65136W        W30297  37.844  28.108  14.444
65137W        W30298  42.377  18.224   3.408
65138W        W30299  36.807  12.404  14.411
65139W        W30300   0.518   1.703   3.690
65140W        W30301  27.485  26.662  10.533
65141W        W30302  17.235  21.766  14.539
65142W        W30303  34.551  22.187  12.946
65143W        W30304  29.065  35.084  11.967
65144W        W30305  34.288   2.754   4.183
65145W        W30306   2.349  23.558   2.774
65146W        W30307  18.229  19.585   2.666
65147W        W30308  31.887  10.234  13.086
65148W        W30309  28.595  33.985  10.681
65149W        W30310  24.981  42.473  12.099
65150W        W30311  43.207   9.597   2.004
65151W        W30312  15.673  22.757  12.144
65152W        W30313   2.688  18.543  11.189
65153W        W30314  37.661  28.958  14.293
65154W        W30315  40.757  24.023  14.428
65155W        W30316  41.518  23.076  14.397
65156W        W30317  34.905  21.182   0.437
65157W        W30318   3.524  20.586   1.287
65158W        W30319  16.530  23.285  10.442
65159W        W30320   3.452  13.408  14.789
65160W        W30321  34.004  10.820   2.774
65161W        W30322  27.096  20.131  14.231
65162W        W30323  38.915  38.476   0.615
65163W        W30324  27.651  15.430   0.180
65164W        W30325   3.447  25.376  13.452
65165W        W30326  41.400  42.110   1.712
65166W        W30327  41.950  27.019  14.578
65167W        W30328  26.143  30.036  10.545
65168W        W30329   1.714   7.204  10.786
65169W        W30330  26.610   5.336  14.387
65170W        W30331  25.697   0.993   2.142
65171W        W30332   8.369  42.446  10.663
65172W        W30333  10.767  23.585  12.993
65173W        W30334  34.932  26.167  12.868
65174W        W30335  12.323  11.290  14.687
65175W        W30336  37.561   2.802   2.365
65176W        W30337  17.626  37.501   2.215
65177W        W30338  30.199   7.384  14.867
65178W        W30339  30.003   9.891  11.451
65179W        W30340  18.014   2.210  12.243
65180W        W30341  21.501  43.557  10.672
65181W        W30342  26.024  29.103   3.228
65182W        W30343  33.633  25.173  12.496
65183W        W30344  43.532  41.967   4.112
65184W        W30345  33.508  24.939   1.961
65185W        W30346  37.325  25.916   4.848
65186W        W30347  15.221  25.128   3.260
65187W        W30348  17.067  23.008   4.293
65188W        W30349  10.174  15.147  13.009
65189W        W30350  42.049  28.033  13.907
65190W        W30351  23.628   4.956   2.121
65191W        W30352  11.198  23.673  13.763
65192W        W30353  34.031  31.992  13.691
65193W        W30354  44.813  37.288  10.853
65194W        W30355  26.223  17.126  11.617
65195W        W30356  40.348  38.778  12.844
65196W        W30357  30.358  32.173   1.855
65197W        W30358  36.927  11.790   2.731
65198W        W30359  15.477   0.153   4.588
65199W        W30360  18.316  41.872   1.044
65200W        W30361  22.988  36.350  13.392
65201W        W30362  30.872   6.853   1.794
65202W        W30363  27.681  15.629  12.035
65203W        W30364   0.240  39.081  14.393
65204W        W30365   6.414   8.671  14.374
65205W        W30366  44.680  11.124  11.532
65206W        W30367  19.683  18.292   3.384
65207W        W30368   3.389  43.289  14.997
65208W        W30369   5.993  25.161  12.948
65209W        W30370  20.223  39.686   1.869
65210W        W30371  22.441   7.511   0.159
65211W        W30372  31.758  29.026   3.999
65212W        W30373  14.007   1.836   0.052
65213W        W30374  31.111  43.809  10.802
65214W        W30375  43.316   6.787   1.145
65215W        W30376   1.267   1.389   1.400
65216W        W30377  22.578  36.413  11.195
65217W        W30378   1.530  13.598  10.703
65218W        W30379   7.841  17.802  11.194
65219W        W30380  23.991  42.959   1.892
65220W        W30381  37.034  18.999  14.273
65221W        W30382   2.664  21.257  14.072
65222W        W30383  38.906   2.164  11.055
65223W        W30384  37.494  16.310  10.744
65224W        W30385  35.673  44.261  14.364
65225W        W30386   3.169  26.130  14.465
65226W        W30387  33.411  11.186  12.304
65227W        W30388  23.954   2.173   3.619
65228W        W30389  11.691  12.267   0.456
65229W        W30390  42.294  23.555  13.462
65230W        W30391  37.877  44.921   2.243
65231W        W30392   8.878  36.041   3.671
65232W        W30393  15.626  25.546   2.643
65233W        W30394  30.112  19.944  11.950
65234W        W30395   0.042  14.690  14.794
65235W        W30396  41.471  13.410  14.442
65236W        W30397  36.288  27.267   0.339
65237W        W30398  34.234  16.661   2.830
65238W        W30399   8.339  42.996   4.636
65239W        W30400  15.524  39.803  13.504
65240W        W30401  21.993  38.775   2.348
65241W        W30402  43.496  42.973  11.879
65242W        W30403  10.933  37.335   3.710
65243W        W30404   2.338  15.738   1.408
65244W        W30405  38.423  28.954   2.315
65245W        W30406   7.855  16.218   2.866
65246W        W30407  19.487  20.347   1.205
65247W        W30408   3.651  11.114  12.000
65248W        W30409  39.093  37.549  14.303
65249W        W30410  40.491  31.659  11.125
65250W        W30411  18.485  39.716   0.454
65251W        W30412  15.387  33.616   2.113
65252W        W30413   1.729  16.043  14.717
65253W        W30414  28.620  35.926   2.231
65254W        W30415  15.012  19.942   3.574
65255W        W30416  22.112   3.915  12.854
65256W        W30417   7.355  10.422  14.387
65257W        W30418  31.440  31.458  11.961
65258W        W30419  14.618  41.954  11.055
65259W        W30420   0.305   3.945   0.801
65260W        W30421  13.173  38.767   2.591
65261W        W30422  29.092  16.943   4.534
65262W        W30423   8.765  15.213  13.085
65263W        W30424  24.385   4.916  13.769
65264W        W30425  33.613  14.612  14.985
65265W        W30426  16.278   8.685   4.068
65266W        W30427  13.839   4.956  14.288
65267W        W30428  33.804  15.220  11.099
65268W        W30429   0.575  23.339  14.469
65269W        W30430   1.177  10.195   1.370
65270W        W30431  30.934  11.221  10.583
65271W        W30432   3.788  37.917   3.176
65272W        W30433  30.059   2.208  11.614
65273W        W30434  11.915  11.752   3.696
65274W        W30435  15.900  36.299  11.174
65275W        W30436  21.420  29.530  14.023
65276W        W30437   7.098  26.535  13.338
65277W        W30438  18.731  25.035  14.026
65278W        W30439  38.604  44.770  11.004
65279W        W30440  42.398  38.607  14.398
65280W        W30441  19.724   3.699   0.793
65281W        W30442   7.254  29.918  13.355
65282W        W30443  37.782  41.861  14.591
65283W        W30444   6.980  28.134   3.786
65284W        W30445  40.868  12.074   1.819
65285W        W30446  28.470  30.504   2.351
65286W        W30447   9.095   4.486   3.689
65287W        W30448  28.943  34.781  12.345
65288W        W30449  34.809  37.543   3.257
65289W        W30450  29.472   8.875   3.149
65290W        W30451  16.578  38.947   2.100
65291W        W30452   7.354  18.901  11.542
65292W        W30453  31.265  31.687  12.431
65293W        W30454  12.060  17.688  14.530
65294W        W30455  24.033  22.705   0.941
65295W        W30456  27.423  13.698   1.064
65296W        W30457  40.353   7.922   2.624
65297W        W30458  44.831  17.568   2.958
65298W        W30459  28.903  37.119  14.721
65299W        W30460  10.228  36.700   1.637
65300W        W30461  32.012  43.260  13.358
65301W        W30462  12.743   9.862   3.660
65302W        W30463  41.221  39.317   1.564
65303W        W30464  32.011  31.675   2.382
65304W        W30465   3.315  30.535  12.407
65305W        W30466   8.361  42.885   1.181
65306W        W30467  14.412  30.013  11.105
65307W        W30468  44.786  10.731   4.271
65308W        W30469  25.261  28.163   2.866
65309W        W30470  28.095   2.456   3.687
65310W        W30471  43.147  28.146   3.620
65311W        W30472  19.758  11.251  12.164
65312W        W30473   0.492  31.413   5.045
65313W        W30474  35.590  16.704   1.233
65314W        W30475  38.507  10.786   4.818
65315W        W30476   1.385  23.017   1.486
65316W        W30477  19.585  22.085  10.728
65317W        W30478  14.433  15.401  13.176
65318W        W30479  20.274  39.056  13.082
65319W        W30480  36.757  24.189  10.669
65320W        W30481  13.714  39.871  10.246
65321W        W30482  39.486  34.976   4.638
65322W        W30483  44.470  31.528   2.979
65323W        W30484  40.353  13.326  12.523
65324W        W30485   3.184  25.750   4.617
65325W        W30486  17.695  13.263  12.964
65326W        W30487  15.163  32.505  10.459
65327W        W30488  17.212  38.068  13.343
65328W        W30489  21.405  29.218   2.236
65329W        W30490  28.672  12.355   1.712
65330W        W30491  44.857  15.176  14.865
65331W        W30492  18.710   4.471  14.077
65332W        W30493  39.120  43.769   4.583
65333W        W30494  14.318  34.992  10.490
65334W        W30495  19.677  41.787  10.950
65335W        W30496  32.061  36.551  13.966
65336W        W30497   0.909  27.054   1.687
65337W        W30498   6.365  11.253  13.912
65338W        W30499  24.430  26.742   3.640
65339W        W30500   6.209  29.626   0.327
65340W        W30501   3.244  24.755   3.124
65341W        W30502  11.349  28.762  13.357
65342W        W30503   3.863  28.240   2.308
65343W        W30504  25.342  14.353   2.200
65344W        W30505  40.854  12.848   2.224
65345W        W30506  41.956  13.386   4.629
65346W        W30507  14.773  13.245   1.113
65347W        W30508  20.275  16.110   3.020
65348W        W30509   2.880  10.662  11.053
65349W        W30510  34.794   9.806  14.408
65350W        W30511  24.173  15.900   4.528
65351W        W30512  14.841  19.339   4.130
65352W        W30513  23.213  41.040  12.429
65353W        W30514   7.128  23.549   1.786
65354W        W30515  27.896  33.443   4.906
65355W        W30516  37.287  44.800   0.337
65356W        W30517  14.299  30.073   4.406
65357W        W30518  22.069   0.446   4.512
65358W        W30519  27.054   4.980  14.209
65359W        W30520  27.998  24.430   2.667
65360W        W30521   2.477  36.654   5.586
65361W        W30522   4.779  34.428   0.342
65362W        W30523  21.102  19.087  11.471
65363W        W30524  14.746  13.197  13.336
65364W        W30525   0.139  17.892   3.685
65365W        W30526  40.482   6.896   2.635
65366W        W30527  16.817  27.242   1.303
65367W        W30528  20.637  26.272   0.224
65368W        W30529  26.946  21.186   4.349
65369W        W30530   6.934  11.505   4.073
65370W        W30531  44.592  15.372  14.449
65371W        W30532   0.208  38.340   2.226
65372W        W30533  10.536  22.222   3.354
65373W        W30534  11.636  42.926  14.936
65374W        W30535  42.196   0.789   1.567
65375W        W30536  19.038   6.191   4.078
65376W        W30537  33.288  36.356   4.356
65377W        W30538  19.748  17.226   1.932
65378W        W30539  16.716   4.512   1.031
65379W        W30540  44.196  29.136   0.352
65380W        W30541  38.899   7.123  12.880
65381W        W30542  34.734  32.802   3.121
65382W        W30543  13.405   8.741   1.238
65383W        W30544   7.132   8.927   3.246
65384W        W30545  34.819  22.707   1.412
65385W        W30546  35.683  21.728  11.113
65386W        W30547  16.788  28.893  11.024
65387W        W30548   5.747   2.228  10.830
65388W        W30549   8.810  42.059  14.781
65389W        W30550  33.935  41.973  13.873
65390W        W30551   2.277  31.716  10.826
65391W        W30552  27.750  27.228  13.514
65392W        W30553  11.156   7.858  11.923
65393W        W30554   5.961  33.548  12.882
65394W        W30555  13.843  12.580  14.742
65395W        W30556   0.463  26.637   3.751
65396W        W30557  44.289  34.367   1.195
65397W        W30558  28.090  23.772   4.531
65398W        W30559  29.687  42.737   4.534
65399W        W30560  41.449  22.579  10.625
65400W        W30561  43.239   8.093  14.705
65401W        W30562  20.277  32.620   2.667
65402W        W30563  25.711  39.567  11.903
65403W        W30564  38.439  12.328  10.535
65404W        W30565  14.677  12.572  12.926
65405W        W30566  42.033  39.849   3.740
65406W        W30567   4.465  14.946   2.378
65407W        W30568  28.615   8.024   2.343
65408W        W30569  35.325  36.848  11.375
65409W        W30570  29.430  36.588   1.411
65410W        W30571  14.053  24.119   3.231
65411W        W30572  33.349  17.303   4.252
65412W        W30573   4.924  19.955   2.288
65413W        W30574  37.628  39.105  14.375
65414W        W30575  14.217  29.380   1.430
65415W        W30576   0.265  22.130   2.216
65416W        W30577  14.033  24.300  11.012
65417W        W30578  31.908  29.390   1.741
65418W        W30579  26.177  44.233  11.674
65419W        W30580  10.265  27.425   2.139
65420W        W30581  22.087  12.283   0.308
65421W        W30582  34.115  14.739   0.821
65422W        W30583  15.032  14.822  13.424
65423W        W30584  28.770  14.221  12.890
65424W        W30585  10.157  16.768  10.457
65425W        W30586   6.358  13.413  14.924
65426W        W30587  28.120  34.883  14.852
65427W        W30588  43.012  34.090   4.682
65428W        W30589   2.368  24.269  10.742
65429W        W30590  40.910  44.917  12.598
65430W        W30591  24.126  38.007  13.482
65431W        W30592  34.387  28.879  14.499
65432W        W30593   5.849  23.504   0.988
65433W        W30594   1.853  26.437  11.779
65434W        W30595  42.868  32.133  12.120
65435W        W30596  28.118  15.536   0.003
65436W        W30597  39.279   7.745   0.314
65437W        W30598  18.944  43.032  12.996
65438W        W30599  11.950  42.170   1.269
65439W        W30600   8.301  22.254  11.480
65440W        W30601   0.862   7.861   0.479
65441W        W30602   6.645  39.091   1.257
65442W        W30603  21.741  21.110   4.187
65443W        W30604  22.301  22.740   1.019
65444W        W30605   1.044   6.269   4.552
65445W        W30606  21.041   3.482   4.935
65446W        W30607  23.904  14.781  13.009
65447W        W30608  41.264  22.801  12.072
65448W        W30609  14.073  11.872   4.994
65449W        W30610  43.348  33.100  13.114
65450W        W30611  16.552  21.184   4.090
65451W        W30612  43.506  32.495   0.210
65452W        W30613  14.312  26.996  14.827
65453W        W30614  35.352  41.834   3.084
65454W        W30615  21.590  23.577  11.029
65455W        W30616  39.301  39.094  12.512
65456W        W30617  42.779  39.316   3.706
65457W        W30618  20.451  41.383   0.733
65458W        W30619  19.646  22.877   0.267
65459W        W30620  41.344  20.226   2.182
65460W        W30621  19.648  14.826   1.985
65461W        W30622  36.179   0.868   4.140
65462W        W30623  39.182  13.506  13.261
65463W        W30624  38.518  27.501  10.384
65464W        W30625  34.804  21.261  12.107
65465W        W30626  22.147   3.213  14.405
65466W        W30627   4.429   9.685   4.042
65467W        W30628  28.913  17.746  11.894
65468W        W30629  41.276  44.839   1.629
65469W        W30630  27.508   7.791   3.808
65470W        W30631  12.453  35.025   4.567
65471W        W30632  23.721  42.976   3.244
65472W        W30633  36.061   9.803   3.627
65473W        W30634   8.162   0.682  12.471
65474W        W30635  38.058  40.078   4.116
65475W        W30636  17.281   6.278  13.381
65476W        W30637  31.260   3.707  14.856
65477W        W30638  22.257  43.256  11.904
65478W        W30639  10.831  25.652   4.760
65479W        W30640  37.854  27.673   1.282
65480W        W30641   4.684  14.154   3.638
65481W        W30642  10.965  18.644   4.344
65482W        W30643  44.310  38.036   1.761
65483W        W30644  26.507  17.179   1.172
65484W        W30645  12.633  19.915   1.159
65485W        W30646  43.314   3.172   3.709
65486W        W30647  44.789  12.231   4.825
65487W        W30648  28.984  26.546   2.558
65488W        W30649   9.810   1.002  10.908
65489W        W30650  31.882  40.508   1.489
65490W        W30651  12.237  17.904   4.578
65491W        W30652  18.796  25.167   0.422
65492W        W30653   7.130  29.391   4.157
65493W        W30654  25.256  23.660   3.670
65494W        W30655  23.227  20.738  13.573
65495W        W30656  36.845   3.751   3.651
65496W        W30657  40.861  35.734   4.670
65497W        W30658  24.755  39.873   3.115
65498W        W30659  20.785  25.643  14.429
65499W        W30660   9.675  44.932  11.655
65500W        W30661  34.293  44.703   4.111
65501W        W30662  30.431  44.739   0.422
65502W        W30663  39.389  28.780  12.464
65503W        W30664  30.735  33.938  14.022
65504W        W30665  37.581   2.534  14.472
65505W        W30666  39.092   0.944  13.364
65506W        W30667   9.148  38.405  12.011
65507W        W30668   5.736  16.949  13.384
65508W        W30669   8.875  32.431   3.799
65509W        W30670  43.951  35.315  10.297
65510W        W30671   3.948   6.388  12.659
65511W        W30672  35.880  43.962   0.132
65512W        W30673   0.397  44.434   4.243
65513W        W30674  15.644  32.403   2.404
65514W        W30675  25.064   8.121   1.422
65515W        W30676  22.067  43.457  10.690
65516W        W30677   7.402  33.549  12.565
65517W        W30678  39.278   0.216   4.102
65518W        W30679  19.228  17.064  14.817
65519W        W30680  20.820  22.453  14.881
65520W        W30681  43.010  34.124  11.928
65521W        W30682  26.015  13.001   5.405
65522W        W30683   1.525  26.498  12.570
65523W        W30684  42.762  28.720   0.226
65524W        W30685  39.495  22.512   1.433
65525W        W30686  12.298  25.809  11.388
65526W        W30687  38.362  33.619  10.495
65527W        W30688  11.978   0.341  13.560
65528W        W30689   5.229   5.499  12.470
65529W        W30690  43.729  40.814   1.062
65530W        W30691  18.110  35.116  12.394
65531W        W30692   6.394   6.665   3.640
65532W        W30693  37.898   9.204  14.016
65533W        W30694  36.008   9.384  14.949
65534W        W30695   9.400  30.389  10.959
65535W        W30696  20.716  41.438   1.624
65536W        W30697  27.633  22.605  14.479
65537W        W30698   8.918   0.871  12.098
65538W        W30699  39.816  41.286  11.650
65539W        W30700  31.038  27.566   1.025
65540W        W30701   5.229  12.280   2.464
65541W        W30702  25.426  41.880  14.988
65542W        W30703  24.806  14.654  12.464
65543W        W30704  43.266  12.380   4.659
65544W        W30705  35.331   8.739  14.045
65545W        W30706   1.514   9.823   2.712
65546W        W30707  25.155  37.545   3.118
65547W        W30708  44.424  30.454   5.078
65548W        W30709  27.146  30.852  10.556
65549W        W30710  32.141  15.325  14.540
65550W        W30711  42.343  31.640  11.614
65551W        W30712   1.969  37.087  10.222
65552W        W30713  15.226  10.622   0.425
65553W        W30714  26.868  38.635   3.203
65554W        W30715   1.995   4.607   3.715
65555W        W30716   5.343  41.914  13.334
65556W        W30717  41.525  23.805  12.953
65557W        W30718  29.625  42.371  12.592
65558W        W30719  30.539  17.253   2.639
65559W        W30720  12.049  11.250  11.142
65560W        W30721  25.536  12.805   4.492
65561W        W30722  38.072  30.869   0.637
65562W        W30723  43.880  39.255  11.910
65563W        W30724  30.361  24.808  13.766
65564W        W30725  41.756  24.381   3.719
65565W        W30726  38.603  12.870   0.760
65566W        W30727  20.469   2.708  14.496
65567W        W30728   5.835  25.266   4.724
65568W        W30729  10.442  23.979  10.337
65569W        W30730   0.270  44.420  10.280
65570W        W30731  41.431  28.978   4.620
65571W        W30732  39.934  28.411  11.209
65572W        W30733   1.220  29.039  12.837
65573W        W30734  31.905   2.273  12.841
65574W        W30735   8.421  24.756   4.205
65575W        W30736  29.205  28.650   2.545
65576W        W30737   8.398   6.849   4.848
65577W        W30738  10.603  12.250  11.520
65578W        W30739   7.852   4.487  13.874
65579W        W30740   2.115   1.651  10.312
65580W        W30741  27.692  26.520   5.183
65581W        W30742   8.415  23.028   0.041
65582W        W30743  30.927  25.494   3.651
65583W        W30744   4.798  12.405   4.475
65584W        W30745   8.802  43.856   0.436
65585W        W30746   0.400   9.411   3.665
65586W        W30747  29.389  28.880   4.242
65587W        W30748  12.425   2.594  12.063
65588W        W30749   7.309  11.719  12.461
65589W        W30750  36.396  44.034  11.268
65590W        W30751  37.267  40.284  10.220
65591W        W30752  12.169  32.578  12.497
65592W        W30753  24.921  11.146   0.775
65593W        W30754   8.901  36.844  11.583
65594W        W30755   9.854  26.276  11.961
65595W        W30756   4.188  15.934   4.792
65596W        W30757   0.372  21.933  11.708
65597W        W30758  23.200  30.904   0.815
65598W        W30759   7.618  10.053   2.611
65599W        W30760  29.741   5.966  14.830
65600W        W30761  30.520   2.505  13.066
65601W        W30762  10.086  25.725   2.720
65602W        W30763   8.596  28.078  12.490
65603W        W30764  38.964  36.842  13.076
65604W        W30765  13.792   8.751  14.839
65605W        W30766  30.160  11.188  13.996
65606W        W30767  35.389   9.862  14.768
65607W        W30768  40.132  35.101   4.073
65608W        W30769  10.131  34.507  13.995
65609W        W30770   0.514  14.206  12.379
65610W        W30771   1.943  24.357   3.615
65611W        W30772  32.613  15.292   2.662
65612W        W30773  15.911  10.913  14.264
65613W        W30774  25.220  28.498   0.757
65614W        W30775  32.087  26.189  13.073
65615W        W30776  29.735  10.005   9.901
65616W        W30777  35.383  26.276  13.848
65617W        W30778  35.028  40.547  14.578
65618W        W30779   8.886  20.000  14.752
65619W        W30780  32.138   4.251  11.449
65620W        W30781   1.822  44.824   0.004
65621W        W30782  19.491  42.875  13.845
65622W        W30783  37.988  16.371  10.613
65623W        W30784  31.711  34.447   2.294
65624W        W30785  17.219  42.715  14.963
65625W        W30786  36.279  19.146   2.813
65626W        W30787  14.260   7.489  13.569
65627W        W30788  16.375  23.468   4.001
65628W        W30789  22.016  40.645   3.782
65629W        W30790  39.349   0.525  13.517
65630W        W30791  17.741  14.649  13.868
65631W        W30792  12.942  30.225   1.377
65632W        W30793  31.221  39.402  12.742
65633W        W30794   1.791  41.274  12.472
65634W        W30795  44.330  33.490   2.627
65635W        W30796  26.500  43.267   2.758
65636W        W30797  26.241  44.691   3.076
65637W        W30798   5.083   5.321  11.994
65638W        W30799  12.294  30.637  13.425
65639W        W30800  41.231  24.306   0.768
65640W        W30801  38.314   9.191  12.550
65641W        W30802  10.106   2.284  11.223
65642W        W30803   6.437  29.287  10.034
65643W        W30804   4.184  26.066  14.357
65644W        W30805  42.354  43.887   4.680
65645W        W30806   2.743  21.931   4.339
65646W        W30807  41.948  29.883   3.974
65647W        W30808  43.424  11.217  10.990
65648W        W30809  19.828  24.115   4.504
65649W        W30810   4.083  34.002  12.110
65650W        W30811  25.260   7.705   1.711
65651W        W30812   6.732  27.799   0.379
65652W        W30813  38.189   8.609  10.393
65653W        W30814   2.196   2.341  10.955
65654W        W30815   1.379   1.316  14.447
65655W        W30816   7.330  25.794  11.723
65656W        W30817  37.525   8.776   3.168
65657W        W30818  36.886  15.659   3.529
65658W        W30819  20.524  32.478   0.997
65659W        W30820   9.785  16.290   2.400
65660W        W30821  26.153  22.537  13.342
65661W        W30822  22.098  14.895  14.503
65662W        W30823  34.983  34.628   0.004
65663W        W30824   8.324  20.136   2.280
65664W        W30825  19.113  22.733   0.981
65665W        W30826  20.297  42.678   4.856
65666W        W30827  25.960  30.672  12.287
65667W        W30828   4.932   5.659  10.755
65668W        W30829   5.254   5.767   1.984
65669W        W30830   2.155   8.915  13.463
65670W        W30831  34.046  15.708   0.802
65671W        W30832  17.607  34.062   1.231
65672W        W30833   3.177  37.473   0.191
65673W        W30834  40.879  41.573   2.246
65674W        W30835  32.656   8.802   0.402
65675W        W30836  37.043  36.509  14.812
65676W        W30837  20.599  38.562  11.500
65677W        W30838  24.992  20.110  12.104
65678W        W30839  36.515  31.502  11.115
65679W        W30840  20.726   4.686   0.827
65680W        W30841  21.371  27.682  13.545
65681W        W30842  26.081  43.292  12.070
65682W        W30843   0.457  28.934  10.719
65683W        W30844  20.014  21.981   0.374
65684W        W30845  14.871  13.702   1.349
65685W        W30846   9.046  12.345   0.522
65686W        W30847  13.395  27.252  14.038
65687W        W30848  20.319  15.223   0.378
65688W        W30849  36.416  15.576   1.224
65689W        W30850  16.098   6.322   3.872
65690W        W30851  26.205  40.999   0.847
65691W        W30852  33.905  28.224   1.233
65692W        W30853  17.603   9.584   1.187
65693W        W30854  27.924  18.569  11.625
65694W        W30855  13.515  30.975   3.223
65695W        W30856  34.116   6.673  13.414
65696W        W30857  19.881  10.133   0.692
65697W        W30858  41.926  12.270   1.886
65698W        W30859   5.214  41.681   0.807
65699W        W30860  33.502   9.455  12.972
65700W        W30861   7.795  14.362   3.330
65701W        W30862  40.436   6.568   0.849
65702W        W30863  14.592  41.494   3.240
65703W        W30864  35.983  39.292   3.640
65704W        W30865  29.896  28.074  14.035
65705W        W30866   4.428  27.733   4.969
65706W        W30867  15.656  19.010  13.495
65707W        W30868  13.445  40.550   0.172
65708W        W30869  20.188   1.858  10.185
65709W        W30870   7.081  14.244   2.774
65710W        W30871  27.067  12.615  10.296
65711W        W30872   4.661  17.106  12.985
65712W        W30873  19.665  32.425  12.501
65713W        W30874  26.769  31.408  11.623
65714W        W30875  42.803  25.553   1.044
65715W        W30876   8.188  17.945   4.546
65716W        W30877  17.319   3.646  12.608
65717W        W30878  15.174  16.754   3.093
65718W        W30879  25.824  43.433  14.469
65719W        W30880   6.663  34.229   1.413
65720W        W30881   3.531  35.203  12.981
65721W        W30882  20.582  12.205  13.252
65722W        W30883  44.825  34.556  10.663
65723W        W30884  15.630  19.019  12.126
65724W        W30885   3.398  42.780  14.879
65725W        W30886  14.630  40.451   2.207
65726W        W30887  36.555  14.313   0.892
65727W        W30888   1.430   4.492  14.478
65728W        W30889  17.845  28.644  13.598
65729W        W30890  44.892  15.692  14.755
65730W        W30891  12.535  20.151   0.157
65731W        W30892   9.855   9.963   4.552
65732W        W30893   1.679  29.557   3.250
65733W        W30894  38.036  38.880   5.570
65734W        W30895  40.586  11.302   2.197
65735W        W30896  23.710  40.405   4.011
65736W        W30897  36.626  36.436  11.619
65737W        W30898  12.883  16.528  12.104
65738W        W30899  33.797  36.629  14.994
65739W        W30900  21.268   1.050  14.392
65740W        W30901  27.501  22.509  11.840
65741W        W30902  43.261   4.371   0.226
65742W        W30903  17.547   2.721   2.796
65743W        W30904  18.538  28.428   3.709
65744W        W30905  16.290  34.348  12.394
65745W        W30906  16.830  32.476  11.156
65746W        W30907  11.182  22.539   1.160
65747W        W30908  23.053  44.263   0.756
65748W        W30909  11.256  14.560   1.341
65749W        W30910  32.966  38.803   1.025
65750W        W30911  23.126  32.956   4.817
65751W        W30912   2.740  19.289  12.512
65752W        W30913  40.076   8.435   5.170
65753W        W30914  28.457  24.165   3.413
65754W        W30915  24.484  29.362   4.543
65755W        W30916  12.514   6.653   2.772
65756W        W30917  10.111  17.290   0.732
65757W        W30918  32.294  24.577  12.481
65758W        W30919   5.522  29.480   4.600
65759W        W30920  29.964   4.640   5.179
65760W        W30921  21.258  31.512  11.699
65761W        W30922  21.901  35.396   3.384
65762W        W30923  21.973  20.243   1.472
65763W        W30924  29.078  39.478   4.818
65764W        W30925  39.330   5.289  11.523
65765W        W30926  26.691   3.051  14.884
65766W        W30927  32.789   8.353  11.166
65767W        W30928  40.794  29.828   3.356
65768W        W30929  33.930  44.472   1.375
65769W        W30930   0.444  10.650   2.853
65770W        W30931   6.603  41.417  10.721
65771W        W30932   0.425  15.574  12.498
65772W        W30933  27.569  32.237  10.931
65773W        W30934   0.888  28.419   4.158
65774W        W30935  19.611  37.743   3.128
65775W        W30936  23.714   0.955   1.708
65776W        W30937  27.580   6.197   1.674
65777W        W30938  38.784  16.795  12.024
65778W        W30939   7.448  30.580   0.874
65779W        W30940  20.624  26.247   2.735
65780W        W30941   0.958  40.819  14.416
65781W        W30942  26.053  38.841  14.291
65782W        W30943  11.367   4.678  12.608
65783W        W30944  14.571  31.659   0.271
65784W        W30945  36.854  26.579   1.428
65785W        W30946  15.580  30.392   1.942
65786W        W30947  42.318  36.472  14.421
65787W        W30948  35.378  17.602   2.205
65788W        W30949   4.488  37.442   0.652
65789W        W30950  14.814  43.198   2.851
65790W        W30951  28.164   1.977   2.302
65791W        W30952  20.601   6.179  12.923
65792W        W30953  31.887  40.380  13.821
65793W        W30954  11.247  32.600  13.606
65794W        W30955  35.044  25.533  12.116
65795W        W30956  38.216  16.573  11.040
65796W        W30957  31.928  21.623   3.406
65797W        W30958  42.492  33.523  11.543
65798W        W30959  37.494   0.480   2.243
65799W        W30960  32.318  28.686  14.436
65800W        W30961  11.145  26.763  12.026
65801W        W30962  16.770  19.031   2.549
65802W        W30963  22.756  35.907   0.004
65803W        W30964   5.947  41.834  12.995
65804W        W30965  20.701  17.365  12.818
65805W        W30966  15.194  36.546   4.819
65806W        W30967  18.342  12.133   4.438
65807W        W30968  37.990  33.148   3.638
65808W        W30969  38.772  41.309  10.398
65809W        W30970  25.850  40.358   1.762
65810W        W30971  43.353  41.227   2.350
65811W        W30972   7.827  36.071  11.469
65812W        W30973  14.725   2.302   4.665
65813W        W30974  23.905  39.385   5.057
65814W        W30975  22.163  33.130   4.513
65815W        W30976  44.422  10.256   3.103
65816W        W30977  20.633  41.145   2.952
65817W        W30978  14.080   8.386  12.996
65818W        W30979  18.144  27.165   2.882
65819W        W30980  25.970  12.268   0.977
65820W        W30981  23.774  41.448   3.660
65821W        W30982  22.806  38.127  12.918
65822W        W30983  42.341  27.115   3.774
65823W        W30984   6.300   8.172  14.356
65824W        W30985  29.759  19.113  12.539
65825W        W30986  38.041  17.026   1.976
65826W        W30987  34.473  38.928   3.249
65827W        W30988   4.177  24.490  13.475
65828W        W30989  27.228  42.886  13.614
65829W        W30990  32.589  26.089  14.514
65830W        W30991  36.310  29.503   5.113
65831W        W30992   7.352  26.996   0.510
65832W        W30993   4.288  28.902  12.632
65833W        W30994  40.467  20.153   1.676
65834W        W30995   6.163  44.731  13.322
65835W        W30996  23.655  27.574   1.883
65836W        W30997  33.287   0.466   2.147
65837W        W30998   2.854  15.481  12.422
65838W        W30999  29.710  34.860  11.599
65839W        W31000  43.748  31.876  13.485
65840W        W31001  38.455  24.357  13.040
65841W        W31002  32.899  17.694  12.411
65842W        W31003  35.846  18.096   2.285
65843W        W31004   1.276  29.352  11.551
65844W        W31005  13.279  30.272  13.312
65845W        W31006   0.318  33.629   1.202
65846W        W31007  28.732   0.415  14.578
65847W        W31008  28.576  38.082  13.487
65848W        W31009   3.412  30.069  12.611
65849W        W31010   3.766  28.734  13.336
65850W        W31011  28.585  12.314   2.969
65851W        W31012  15.508   4.313   3.794
65852W        W31013  28.497  37.835  13.021
65853W        W31014  32.867  41.889   1.372
65854W        W31015  26.709  26.200   3.750
65855W        W31016   0.281  35.434  14.778
65856W        W31017   6.888   1.038   2.743
65857W        W31018  25.282  40.633   4.503
65858W        W31019  27.020   5.430   2.797
65859W        W31020  14.111  15.407   4.108
65860W        W31021  20.076  27.696   3.602
65861W        W31022  39.104  27.474   0.859
65862W        W31023   8.266  31.362   0.732
65863W        W31024  27.914  34.418  12.072
65864W        W31025  23.961  15.945   5.088
65865W        W31026  18.384  14.626   4.600
65866W        W31027  39.498   4.945  12.993
65867W        W31028  39.400  36.398   0.458
65868W        W31029  26.127  19.999  14.342
65869W        W31030   9.298  16.119  14.137
65870W        W31031  33.368  36.485  10.510
65871W        W31032   8.882  29.098   1.736
65872W        W31033   1.436   3.723  13.822
65873W        W31034   0.954   0.657   3.859
65874W        W31035  44.992  32.177  12.910
65875W        W31036  14.077  20.296  11.999
65876W        W31037  22.208  23.010  12.866
65877W        W31038  21.922  34.667  13.406
65878W        W31039  24.715  23.627  11.214
65879W        W31040  24.137  42.058   0.524
65880W        W31041   8.626   9.117  12.491
65881W        W31042   0.094  39.893   0.945
65882W        W31043   1.042   6.753   0.909
65883W        W31044  35.984  22.968  14.098
65884W        W31045  40.358  31.178   2.320
65885W        W31046  40.567  41.272  14.474
65886W        W31047  34.695  18.785   3.381
65887W        W31048  11.917  38.737   4.971
65888W        W31049  34.583  10.133   3.691
65889W        W31050  15.118   4.260   1.637
65890W        W31051  10.948   8.022  11.041
65891W        W31052  25.554  27.317   0.345
65892W        W31053  21.454   3.392  12.698
65893W        W31054  24.005   5.170  13.020
65894W        W31055  29.990  17.760   1.292
65895W        W31056  31.639   6.884  13.407
65896W        W31057  15.326   7.937   3.584
65897W        W31058  23.344   6.272   4.240
65898W        W31059  26.954  25.202  11.922
65899W        W31060  27.715  18.186   1.913
65900W        W31061  40.345  36.923  14.042
65901W        W31062  38.419   3.013   4.659
65902W        W31063  33.115  37.162  11.313
65903W        W31064  32.641  31.385  11.620
65904W        W31065  16.161  23.933  11.965
65905W        W31066  23.015   8.316  12.129
65906W        W31067  28.915  11.310  13.009
65907W        W31068  14.700   8.298  12.594
65908W        W31069  37.677   4.873  13.450
65909W        W31070  38.402  37.816   2.596
65910W        W31071   6.519  39.587  14.893
65911W        W31072  24.982  29.182  12.143
65912W        W31073  36.971  14.315   3.195
65913W        W31074  20.551  23.231   3.747
65914W        W31075  22.667  30.549  10.684
65915W        W31076  15.631  38.488   3.728
65916W        W31077  15.899  25.565   4.493
65917W        W31078  31.972  18.766   3.705
65918W        W31079   5.500  15.665  14.308
65919W        W31080  18.772   1.492  14.764
65920W        W31081   3.090  37.659  13.855
65921W        W31082  32.033   2.546   4.192
65922W        W31083  41.294  22.967   4.905
65923W        W31084  28.882  32.097   1.813
65924W        W31085   5.387   1.885   0.202
65925W        W31086  29.550  18.214  12.919
65926W        W31087   4.325  25.789  13.323
65927W        W31088  12.779   2.186   3.269
65928W        W31089  12.633  20.776  10.704
65929W        W31090  41.449  19.248   3.921
65930W        W31091   0.331  21.688  12.175
65931W        W31092  16.817  16.641   1.201
65932W        W31093  43.841  42.018   2.786
65933W        W31094   6.592  16.709  13.590
65934W        W31095  33.239  38.438  13.745
65935W        W31096  41.457  27.890   4.589
65936W        W31097  13.744   9.362   3.255
65937W        W31098  38.752  40.193   4.803
65938W        W31099  31.391  12.808   1.288
65939W        W31100  40.778  41.530  14.901
65940W        W31101   9.004  20.220   4.595
65941W        W31102  43.803  12.369   1.372
65942W        W31103  22.695  11.652  11.133
65943W        W31104  17.169  23.315   1.351
65944W        W31105   8.239  33.125   2.759
65945W        W31106   8.715   3.907  13.825
65946W        W31107  12.519  29.126  13.510
65947W        W31108   2.253  25.618   9.814
65948W        W31109  25.626   2.771  10.391
65949W        W31110  21.603  24.551  11.218
65950W        W31111  10.432  24.134  12.444
65951W        W31112   1.853   8.257   4.004
65952W        W31113  31.512   7.420   3.446
65953W        W31114  12.799  29.994   1.855
65954W        W31115  19.092   4.301  14.449
65955W        W31116   0.371  42.124   0.157
65956W        W31117   7.991  31.037  12.316
65957W        W31118  34.859   5.700  12.872
65958W        W31119  26.518  43.556  12.065
65959W        W31120  15.304   2.980  11.451
65960W        W31121  28.561  29.957  10.871
65961W        W31122  35.805  13.019  10.566
65962W        W31123  12.676   0.365   0.510
65963W        W31124   6.933   7.261   1.456
65964W        W31125  36.089   2.563   2.844
65965W        W31126  31.484  33.508  10.766
65966W        W31127   9.731   7.958   0.434
65967W        W31128  33.891  15.946   1.262
65968W        W31129  23.814  18.335  14.488
65969W        W31130  15.839  15.710  12.407
65970W        W31131  11.281  11.614   0.448
65971W        W31132   1.404  23.220  14.978
65972W        W31133  41.532  21.786   4.233
65973W        W31134  25.311  26.145   1.319
65974W        W31135   1.709   8.174  12.435
65975W        W31136  43.340  37.553  14.842
65976W        W31137  42.303  16.234   1.452
65977W        W31138   3.545  24.514   1.754
65978W        W31139   2.911   9.392  10.624
65979W        W31140   3.829   5.181   0.801
65980W        W31141  39.727   9.500  10.926
65981W        W31142  42.177  15.783   2.179
65982W        W31143  10.739  41.098  11.128
65983W        W31144  23.565   4.929   1.592
65984W        W31145  22.673  11.199  12.264
65985W        W31146   9.683  22.853  10.931
65986W        W31147  42.429  31.009  13.611
65987W        W31148  25.433  14.155   3.583
65988W        W31149  33.094  39.825   3.213
65989W        W31150  40.349   6.688   3.673
65990W        W31151  34.797  28.593  10.480
65991W        W31152  11.897  30.266  13.423
65992W        W31153   9.705  34.006   3.476
65993W        W31154  23.770  24.858  13.040
65994W        W31155   8.407  39.447  12.984
65995W        W31156  19.852  43.549  10.278
65996W        W31157  27.489  36.424   5.080
65997W        W31158  20.522  39.653   0.424
65998W        W31159   3.475   4.972   2.757
65999W        W31160  13.483   3.597  11.504
66000W        W31161  18.366  25.020  11.113
66001W        W31162   5.638   8.757   3.437
66002W        W31163   0.292   7.701   4.135
66003W        W31164  33.681  30.911  13.054
66004W        W31165  35.743  33.352  13.574
66005W        W31166  24.645   9.026  11.506
66006W        W31167  15.372  35.015   4.332
66007W        W31168  28.977  12.794   2.969
66008W        W31169  24.061  36.794   4.781
66009W        W31170  35.498   4.354   2.639
66010W        W31171  43.844  19.217   4.699
66011W        W31172  20.860  11.335   2.263
66012W        W31173   0.324  11.927  10.414
66013W        W31174  40.503  15.380   1.859
66014W        W31175  14.051  26.843  14.330
66015W        W31176  27.733  32.619  11.248
66016W        W31177  31.076  29.138  13.019
66017W        W31178  18.931  11.472  13.431
66018W        W31179   9.842  12.930  14.892
66019W        W31180  42.439  24.624  12.528
66020W        W31181  13.611   4.683   0.774
66021W        W31182  36.378   8.376  14.081
66022W        W31183  39.264   4.266   2.920
66023W        W31184  39.958  22.781   2.394
66024W        W31185  42.095  19.761   2.133
66025W        W31186  42.161  21.757  10.631
66026W        W31187  12.105   6.132  13.521
66027W        W31188  39.239   2.269   3.097
66028W        W31189   2.367   2.423   3.736
66029W        W31190   4.231  39.810   4.693
66030W        W31191  38.431  41.534  11.122
66031W        W31192   4.343  13.212   2.689
66032W        W31193  33.079  38.684  13.297
66033W        W31194  34.563   7.233  11.602
66034W        W31195   3.268  23.809   0.926
66035W        W31196   6.826  30.649   2.309
66036W        W31197   8.872  43.869  12.117
66037W        W31198  15.005  35.613  13.009
66038W        W31199   8.400  23.697  11.301
66039W        W31200  21.335   0.951   2.229
66040W        W31201  35.929  21.361   0.909
66041W        W31202  26.872   6.787   3.704
66042W        W31203  12.463   3.513   3.581
66043W        W31204   8.163  22.599   3.595
66044W        W31205   1.565  20.811  14.942
66045W        W31206  17.497   5.688   4.436
66046W        W31207  39.619  12.131  13.953
66047W        W31208   2.778  36.452  13.944
66048W        W31209  34.441  26.980  13.120
66049W        W31210   5.378  18.356   4.604
66050W        W31211  15.559   6.633   4.345
66051W        W31212   7.080   1.516   0.003
66052W        W31213  10.708   9.291   1.756
66053W        W31214  27.985   6.490   1.829
66054W        W31215  12.267  44.022   2.743
66055W        W31216   1.173  22.548   4.708
66056W        W31217  13.046  26.707   4.839
66057W        W31218  44.454  14.143   1.925
66058W        W31219  17.714  14.226   3.148
66059W        W31220  43.911  11.807   3.295
66060W        W31221  28.674  36.053  12.475
66061W        W31222   8.473  37.683  11.995
66062W        W31223   0.271  23.470   0.190
66063W        W31224  11.647  13.877   0.661
66064W        W31225  23.542  15.333  10.821
66065W        W31226  29.232  30.815  10.937
66066W        W31227  16.720  10.944  12.439
66067W        W31228   3.432  15.005   1.419
66068W        W31229  44.275  42.927   3.693
66069W        W31230  21.198   0.559   4.124
66070W        W31231   0.487  34.553  12.614
66071W        W31232  10.668   4.853   4.151
66072W        W31233  11.111  33.091  13.795
66073W        W31234  35.700  20.893   3.896
66074W        W31235  31.511  34.953   0.537
66075W        W31236   5.437  19.324   1.753
66076W        W31237  19.222   7.081  14.609
66077W        W31238  31.134  13.262   2.339
66078W        W31239  22.710   1.881   1.332
66079W        W31240  25.255  40.018  11.066
66080W        W31241  32.194  14.847   0.432
66081W        W31242   8.881  44.058   1.854
66082W        W31243  22.606  30.040   3.388
66083W        W31244  19.208   6.456  12.091
66084W        W31245  32.959  21.304  14.780
66085W        W31246  40.885   9.895   0.983
66086W        W31247   4.733   3.416  13.336
66087W        W31248  44.295  22.054   3.644
66088W        W31249   9.181  25.764  11.638
66089W        W31250  35.450  19.204  13.044
66090W        W31251   8.210  23.181  12.936
66091W        W31252  13.596  29.370  10.676
66092W        W31253   9.798  31.340   4.478
66093W        W31254  11.828  14.604   2.224
66094W        W31255  38.113  44.800   2.680
66095W        W31256  40.016   0.238  12.356
66096W        W31257  36.932  14.085   3.667
66097W        W31258  23.350  25.099   0.362
66098W        W31259  12.662  33.094   3.420
66099W        W31260  25.747   7.427   2.256
66100W        W31261  23.032   0.423  13.472
66101W        W31262  39.115  23.035  12.104
66102W        W31263  11.426   8.179  12.433
66103W        W31264  15.065  10.801  14.969
66104W        W31265  17.766  26.647  10.448
66105W        W31266   0.200  12.018   1.282
66106W        W31267  31.735  25.945   1.267
66107W        W31268  43.450  23.199   4.435
66108W        W31269  36.394  14.614  14.974
66109W        W31270  43.786  41.492  10.721
66110W        W31271  20.087  43.534   1.340
66111W        W31272  42.939   3.951  13.040
66112W        W31273   9.809  21.196   9.939
66113W        W31274  25.679  34.384  13.106
66114W        W31275  33.019  12.737   2.397
66115W        W31276   3.889  19.616   4.836
66116W        W31277  15.824   8.232   3.655
66117W        W31278  44.796   4.292  11.170
66118W        W31279  43.257  23.505   0.462
66119W        W31280  23.759  32.410  14.296
66120W        W31281  11.704  34.782  11.165
66121W        W31282  36.263  28.164   4.172
66122W        W31283  28.878  43.986  14.907
66123W        W31284  23.370  30.421  11.064
66124W        W31285  41.646  10.132  13.414
66125W        W31286   1.568  43.003  13.394
66126W        W31287  17.679  23.074   4.022
66127W        W31288  30.200  11.226   1.433
66128W        W31289  39.158   3.545  11.605
66129W        W31290   7.146  14.071  14.286
66130W        W31291  33.725  40.547  11.597
66131W        W31292   5.608  42.917   2.827
66132W        W31293  34.750  27.357   0.254
66133W        W31294  33.895  38.075   1.877
66134W        W31295  28.586  11.320   0.330
66135W        W31296  20.213  41.497   1.792
66136W        W31297  16.681  12.093   4.970
66137W        W31298  38.574  38.117   0.371
66138W        W31299  17.659  40.817  14.965
66139W        W31300  16.700  41.869  12.875
66140W        W31301  40.266   1.206  12.537
66141W        W31302  22.112   0.303   2.269
66142W        W31303  28.007  19.831   1.381
66143W        W31304  16.180  15.519  11.040
66144W        W31305   7.606  26.024  13.042
66145W        W31306  31.161  44.545  14.880
66146W        W31307  10.000  19.530  14.282
66147W        W31308   4.616  29.582   2.378
66148W        W31309  41.031  20.753   2.342
66149W        W31310  10.859  44.240  12.590
66150W        W31311  24.465   9.667  12.622
66151W        W31312  34.983  24.978  14.514
66152W        W31313   6.731  35.812  12.232
66153W        W31314  12.975  32.455   4.598
66154W        W31315  10.688  30.462  10.873
66155W        W31316  16.961  27.241   4.148
66156W        W31317   4.794  40.523  14.399
66157W        W31318  12.406  16.200   0.507
66158W        W31319  44.729  21.142  10.685
66159W        W31320  44.567   3.055  12.594
66160W        W31321  28.953  40.929   9.689
66161W        W31322  17.084  15.294  12.534
66162W        W31323  10.730   3.980  14.384
66163W        W31324   9.390  23.762   3.677
66164W        W31325  33.153  25.103   4.390
66165W        W31326  22.216  11.348  10.588
66166W        W31327  23.793  16.689   4.268
66167W        W31328  22.443  15.308  11.102
66168W        W31329  29.072  39.971  14.556
66169W        W31330  32.345  38.144  14.945
66170W        W31331  33.397  36.867   4.204
66171W        W31332   0.864   3.461   2.730
66172W        W31333  34.482   0.350   1.245
66173W        W31334   2.892  42.146   2.319
66174W        W31335  33.378  25.490  11.883
66175W        W31336  15.179  21.918   4.002
66176W        W31337   7.547   4.470  13.466
66177W        W31338  27.723  32.324  10.453
66178W        W31339  34.999  24.322  13.253
66179W        W31340  38.982  33.310   4.462
66180W        W31341  11.286  38.835   0.847
66181W        W31342  10.340  17.284   3.463
66182W        W31343  37.821  39.474  10.531
66183W        W31344  24.187  25.803  12.890
66184W        W31345  34.462   2.957   2.129
66185W        W31346  40.512  17.546  11.467
66186W        W31347  37.064  25.204   3.239
66187W        W31348  16.828  42.302  11.990
66188W        W31349   9.761  33.478   1.121
66189W        W31350  23.138   5.911   1.477
66190W        W31351  24.082  31.984  14.449
66191W        W31352  17.985  14.828  13.448
66192W        W31353  38.142  13.332   2.620
66193W        W31354  20.121  20.167   5.518
66194W        W31355   9.742  15.665   2.216
66195W        W31356  43.284  34.105  14.951
66196W        W31357  10.704  17.540   1.822
66197W        W31358  18.480  14.372  10.240
66198W        W31359   3.235  39.439  13.300
66199W        W31360   7.994  23.376  11.109
66200W        W31361  30.984  29.061   4.347
66201W        W31362  16.279   4.851  10.657
66202W        W31363   3.191  24.951  11.639
66203W        W31364   0.887  26.941  11.556
66204W        W31365  15.069  22.145   2.778
66205W        W31366  10.711  27.067   3.796
66206W        W31367   5.618  44.994   2.820
66207W        W31368  30.931  19.622  12.207
66208W        W31369  37.361  12.767   4.100
66209W        W31370  36.588  38.567   3.709
66210W        W31371  19.646  17.611  13.141
66211W        W31372   1.936  25.209   2.210
66212W        W31373  29.011  41.794  12.072
66213W        W31374  14.395  15.019   3.957
66214W        W31375   2.038   8.966   1.740
66215W        W31376  23.481  14.333   2.133
66216W        W31377   6.069  29.605   1.222
66217W        W31378  42.865   7.426  12.062
66218W        W31379   0.325  17.888   1.320
66219W        W31380  31.839  22.623   1.837
66220W        W31381  11.659  20.339   0.879
66221W        W31382  22.089  42.510  11.590
66222W        W31383  28.133  13.643  12.536
66223W        W31384   0.049  29.167  12.008
66224W        W31385  20.629  26.566   1.530
66225W        W31386  32.565   2.381   2.805
66226W        W31387   8.649  33.430   3.600
66227W        W31388  13.838   6.979   3.902
66228W        W31389  42.641  18.520   1.434
66229W        W31390  28.686   8.138   4.051
66230W        W31391  32.711  39.855  13.902
66231W        W31392  35.217  20.960  12.537
66232W        W31393  18.744  28.936   0.752
66233W        W31394   4.290  41.977   1.673
66234W        W31395  41.368  35.842   2.425
66235W        W31396  18.586  32.485  10.684
66236W        W31397  22.215  19.059  13.811
66237W        W31398  44.826  26.025  14.328
66238W        W31399  41.353  44.383   3.727
66239W        W31400  19.745  22.792   3.790
66240W        W31401  34.886   9.055  12.854
66241W        W31402  29.874  30.032  10.362
66242W        W31403  38.044   0.426   4.197
66243W        W31404  32.669   8.926  14.850
66244W        W31405  11.622  18.968   0.405
66245W        W31406  35.374  27.352   2.084
66246W        W31407  10.785  38.939  14.875
66247W        W31408  37.571  35.290   2.158
66248W        W31409  37.695  20.579   0.223
66249W        W31410  36.017   8.600  12.508
66250W        W31411  33.689  22.956  10.660
66251W        W31412  36.573  16.784  12.628
66252W        W31413  18.154  23.885   0.094
66253W        W31414  14.785  13.340  12.436
66254W        W31415  16.878  13.590   0.447
66255W        W31416   6.853  38.173   1.700
66256W        W31417  33.862   3.942   2.915
66257W        W31418  18.319  34.305  11.719
66258W        W31419   7.299  38.600  13.526
66259W        W31420   7.122  42.954   0.496
66260W        W31421  26.187   0.883   4.210
66261W        W31422   3.899  28.187   3.689
66262W        W31423  20.495   7.684   0.335
66263W        W31424  29.066   9.625   4.543
66264W        W31425  35.938  32.596  11.619
66265W        W31426   9.277  38.996   3.224
66266W        W31427  35.786   9.826  13.019
66267W        W31428  26.642  26.067   0.033
66268W        W31429  34.490  23.060  10.901
66269W        W31430  44.286  29.094   1.445
66270W        W31431   6.163   7.369   1.764
66271W        W31432  34.970  22.500  14.995
66272W        W31433  21.860   0.525  10.579
66273W        W31434  36.392  33.457  11.506
66274W        W31435  16.656  25.984  14.503
66275W        W31436   0.740  25.060   3.199
66276W        W31437  33.134   7.414  13.470
66277W        W31438  28.108  12.340  12.869
66278W        W31439  29.944  11.852   4.090
66279W        W31440  17.276  17.544  10.156
66280W        W31441  24.787   9.456  13.512
66281W        W31442  39.379  11.735   4.062
66282W        W31443  33.380   5.097   3.081
66283W        W31444  27.550  15.876   3.297
66284W        W31445   7.883   0.762  12.046
66285W        W31446  32.841  23.907   2.818
66286W        W31447  20.993  36.945   2.118
66287W        W31448  26.253  44.915  10.485
66288W        W31449  19.264   8.515   4.970
66289W        W31450   4.444   8.582   4.903
66290W        W31451  28.265  38.992   3.306
66291W        W31452   2.914   5.653   0.896
66292W        W31453  39.529   1.917  11.630
66293W        W31454  33.475  12.834  11.779
66294W        W31455  43.057  17.470   0.367
66295W        W31456  32.889  22.603   0.931
66296W        W31457  26.250  23.463   2.571
66297W        W31458  27.542  35.764   1.883
66298W        W31459  32.479  17.536   1.234
66299W        W31460  34.453  20.245  11.195
66300W        W31461  44.912  11.989  11.531
66301W        W31462  25.524  16.265   1.667
66302W        W31463  16.361  24.575  10.563
66303W        W31464  36.003  22.182   3.400
66304W        W31465  14.166  34.313  12.898
66305W        W31466   0.776  30.907   4.117
66306W        W31467  36.465  34.691  11.132
66307W        W31468  43.934  19.275  14.817
66308W        W31469   8.372  37.547  11.520
66309W        W31470  43.586  43.988  14.604
66310W        W31471  22.986  33.782   3.751
66311W        W31472   1.523  25.423  11.008
66312W        W31473  10.071  29.388  13.945
66313W        W31474  30.424  34.555  13.398
66314W        W31475  27.778   9.535  12.880
66315W        W31476  29.131  39.526  13.093
66316W        W31477  22.074  18.972   1.690
66317W        W31478  17.348  18.694  12.393
66318W        W31479  14.402   0.047  11.930
66319W        W31480  31.717  26.708   5.184
66320W        W31481   1.766  19.099  12.082
66321W        W31482  18.494   2.931  11.222
66322W        W31483  17.255  33.164  12.201
66323W        W31484  36.003  19.987   3.651
66324W        W31485  14.684  44.449   2.650
66325W        W31486   0.704  32.514  14.255
66326W        W31487  31.458   9.021  11.057
66327W        W31488   4.914  11.413  10.168
66328W        W31489  13.372   4.968   5.123
66329W        W31490  38.434  18.560   2.220
66330W        W31491  30.923  31.778  10.911
66331W        W31492   9.260   3.210  11.145
66332W        W31493  21.642   9.106   2.359
66333W        W31494  31.976   2.879  14.726
66334W        W31495  20.108   9.259   0.237
66335W        W31496   7.325  36.159  11.651
66336W        W31497  27.140  17.644  14.552
66337W        W31498  37.858  43.056  13.127
66338W        W31499  13.413  20.917  11.080
66339W        W31500   5.638  28.676  11.541
66340W        W31501  10.521  42.795  13.926
66341W        W31502  10.422   7.721   0.312
66342W        W31503  34.795   9.679   1.543
66343W        W31504   4.137  13.153   0.783
66344W        W31505   3.730  24.677  14.211
66345W        W31506  38.817  41.980   0.994
66346W        W31507  18.771  25.881   4.916
66347W        W31508   4.041  42.496  11.676
66348W        W31509   6.001   7.947  11.950
66349W        W31510   7.865   6.940   2.708
66350W        W31511  43.329  34.553   3.177
66351W        W31512  37.634  42.283   1.122
66352W        W31513  14.062  28.666   0.897
66353W        W31514   4.221   2.812   2.815
66354W        W31515  10.871  39.533   0.382
66355W        W31516   5.560   1.608  12.486
66356W        W31517  20.153   4.502   4.828
66357W        W31518  37.495  23.601   2.233
66358W        W31519  40.583  34.276   2.297
66359W        W31520   4.862  32.553  11.040
66360W        W31521  17.307  28.952  14.904
66361W        W31522  18.322  42.994   2.903
66362W        W31523  19.028  44.018  13.038
66363W        W31524   3.057  17.332  10.564
66364W        W31525   6.029  26.153   3.574
66365W        W31526  34.945   9.826   2.004
66366W        W31527  19.229  13.303  14.470
66367W        W31528   0.259  42.846  12.577
66368W        W31529   2.681   4.494  13.535
66369W        W31530   5.952  16.324   1.423
66370W        W31531  20.508  22.397  12.028
66371W        W31532  11.602   8.870   2.952
66372W        W31533  44.428  22.741   5.239
66373W        W31534  23.596   3.147  14.296
66374W        W31535  18.203  30.942   0.023
66375W        W31536  22.420  33.875   2.267
66376W        W31537  15.203   4.745   3.858
66377W        W31538  33.431  36.384   2.546
66378W        W31539   8.585   0.319   3.210
66379W        W31540  40.037  36.919  14.973
66380W        W31541  22.031  28.624   4.084
66381W        W31542   3.497  41.380  14.754
66382W        W31543  37.431  37.895  13.989
66383W        W31544  34.835  14.595   2.280
66384W        W31545  33.445   3.792   0.284
66385W        W31546  14.630  26.166   4.558
66386W        W31547  14.267  10.464   2.084
66387W        W31548  11.256  27.257  12.000
66388W        W31549  32.869  23.750  12.610
66389W        W31550  28.591  29.969   4.665
66390W        W31551  39.027   9.187  12.906
66391W        W31552  30.132  21.267   5.067
66392W        W31553   1.896  19.010   2.065
66393W        W31554   0.104   6.389  12.444
66394W        W31555  16.116  29.745   0.006
66395W        W31556  24.145  13.404   4.177
66396W        W31557  20.054  11.479   4.483
66397W        W31558  14.646  39.532   3.800
66398W        W31559  44.969  32.919  14.473
66399W        W31560  19.416  10.007   0.398
66400W        W31561  21.010  30.662   3.726
66401W        W31562  38.446  18.027  10.988
66402W        W31563   4.872  44.556  14.795
66403W        W31564  25.706   9.823  11.137
66404W        W31565  20.958  28.034   0.296
66405W        W31566  39.267  14.179  10.823
66406W        W31567  10.199  10.885  11.766
66407W        W31568   2.381  25.447  11.632
66408W        W31569  41.873  36.382   2.673
66409W        W31570  11.779   1.011   3.671
66410W        W31571  19.763  18.544   1.274
66411W        W31572   8.145  16.004   0.774
66412W        W31573  44.928  19.749   0.676
66413W        W31574   7.879  23.561  11.578
66414W        W31575   9.611  43.898   2.767
66415W        W31576  41.006  21.021   3.269
66416W        W31577  33.609  34.880   0.016
66417W        W31578   2.833  16.738   0.023
66418W        W31579   4.509  44.481   5.058
66419W        W31580  17.581  25.589  11.205
66420W        W31581  10.777  34.866  13.473
66421W        W31582  18.067  23.995   2.938
66422W        W31583  12.266   2.714   2.090
66423W        W31584  29.523   2.859   0.230
66424W        W31585  10.458  35.070  14.792
66425W        W31586  23.460  19.131  13.381
66426W        W31587  33.100  28.912  13.891
66427W        W31588  23.259   7.733   0.479
66428W        W31589  20.461  26.433  10.891
66429W        W31590  21.318  11.179  10.248
66430W        W31591  40.257  18.111   4.056
66431W        W31592  42.411  27.339  10.630
66432W        W31593  13.571  25.395   0.795
66433W        W31594  40.570  35.834  14.799
66434W        W31595  12.626  20.267   1.553
66435W        W31596  13.205  17.685  14.255
66436W        W31597   1.981  35.000   3.672
66437W        W31598  15.357  25.109   2.415
66438W        W31599  26.087  26.289  14.521
66439W        W31600  13.285   5.935  11.126
66440W        W31601  19.569  42.041  10.273
66441W        W31602  39.588  33.849   4.051
66442W        W31603  43.816  31.450   0.607
66443W        W31604  17.524  41.876   5.054
66444W        W31605  26.622  30.804   0.415
66445W        W31606  18.880  27.106   2.222
66446W        W31607  36.911  42.529  13.911
66447W        W31608  11.249  35.300  14.073
66448W        W31609  13.366  29.466   2.312
66449W        W31610  39.573  37.609  11.192
66450W        W31611   9.120   7.342   4.255
66451W        W31612  17.585   5.157   2.510
66452W        W31613  14.433  26.947   3.228
66453W        W31614  33.887   4.476  14.432
66454W        W31615  32.457  42.490  12.362
66455W        W31616   3.575  42.435   1.430
66456W        W31617   2.635  31.416  13.061
66457W        W31618  26.724  23.151   1.669
66458W        W31619  19.946   8.855   4.349
66459W        W31620  18.815  23.516   0.666
66460W        W31621  10.206  32.999  10.412
66461W        W31622  19.569   9.442   2.319
66462W        W31623  16.766  41.991   0.870
66463W        W31624  33.618  10.221   1.716
66464W        W31625  41.346   7.822  14.512
66465W        W31626  11.239  20.421  12.637
66466W        W31627  15.500  39.639   2.160
66467W        W31628   8.330  22.982  11.086
66468W        W31629  19.575  10.733  12.970
66469W        W31630  14.510   0.278  10.438
66470W        W31631  10.791   0.915  12.111
66471W        W31632  22.802  25.250   3.649
66472W        W31633   3.367  42.255  14.859
66473W        W31634  34.368   4.930   0.409
66474W        W31635  15.384  25.258   0.078
66475W        W31636  38.056  17.052   0.600
66476W        W31637  19.191  42.041  13.867
66477W        W31638  38.873  18.331   0.448
66478W        W31639   9.129  38.943  12.877
66479W        W31640  27.123  10.809  12.877
66480W        W31641  13.165   5.083   2.104
66481W        W31642   1.956  35.800   0.830
66482W        W31643  28.268  30.626  14.776
66483W        W31644   3.978   9.974   1.859
66484W        W31645  24.926  39.498  12.918
66485W        W31646  42.643  21.196   0.936
66486W        W31647   4.881  14.077  12.024
66487W        W31648  31.083  32.084  13.881
66488W        W31649  21.758  32.157  13.539
66489W        W31650  14.135  24.767  11.187
66490W        W31651  35.963   0.921  10.290
66491W        W31652  34.078   8.391  10.674
66492W        W31653  24.031  40.545  12.605
66493W        W31654  38.312  26.362   4.105
66494W        W31655  42.886  31.164   0.903
66495W        W31656  18.162  44.462   1.143
66496W        W31657  33.945  35.337  14.513
66497W        W31658  33.390  15.042   1.871
66498W        W31659  40.455   0.889   1.175
66499W        W31660  12.420  41.403  12.114
66500W        W31661  30.468  33.643  12.817
66501W        W31662  29.270  11.685  14.546
66502W        W31663  26.116  41.201   1.323
66503W        W31664  32.076   1.727  13.270
66504W        W31665  28.001  22.579   1.757
66505W        W31666  35.307  43.810   1.409
66506W        W31667   9.966   7.505   0.423
66507W        W31668  17.753  33.098  12.086
66508W        W31669   9.689  41.429   4.142
66509W        W31670  31.392  27.429   1.745
66510W        W31671  20.384  20.933   1.787
66511W        W31672   9.087  30.067   4.594
66512W        W31673  17.408  26.984  11.353
66513W        W31674  34.830  14.160  12.916
66514W        W31675  41.546  19.741  13.875
66515W        W31676  38.753  22.586   1.037
66516W        W31677   3.892   1.046  13.089
66517W        W31678  22.796  38.871  14.494
66518W        W31679  23.026  14.582   1.426
66519W        W31680   4.860   2.001   1.241
66520W        W31681   3.226  11.066   0.517
66521W        W31682  16.696  22.154   1.856
66522W        W31683  14.606  11.351   2.381
66523W        W31684  41.299  11.798  10.600
66524W        W31685  29.840  28.674  13.925
66525W        W31686  26.977   6.640  11.227
66526W        W31687   8.537  40.612  13.462
66527W        W31688  15.773   7.573  14.390
66528W        W31689  35.052  20.466  14.973
66529W        W31690  18.803  42.407  11.115
66530W        W31691  43.391  10.276   1.422
66531W        W31692   2.805  20.010  11.181
66532W        W31693  31.374  39.454   3.718
66533W        W31694  11.730  21.333   0.779
66534W        W31695   7.010  32.543   2.736
66535W        W31696  43.869   1.364  11.512
66536W        W31697   3.026  15.967   4.968
66537W        W31698   5.144   2.494   4.314
66538W        W31699  35.831  11.774   3.733
66539W        W31700  26.966  41.365  12.846
66540W        W31701  14.121  25.026   3.637
66541W        W31702  32.622  23.196   3.736
66542W        W31703  34.892  44.928  11.957
66543W        W31704   1.983  38.924   3.879
66544W        W31705  43.672  33.960   5.015
66545W        W31706  24.995  29.981   2.698
66546W        W31707  22.433  26.639  11.183
66547W        W31708  37.538   2.265  14.030
66548W        W31709   0.180  31.725   1.813
66549W        W31710   7.460  20.244   2.364
66550W        W31711  27.100  32.132   3.662
66551W        W31712  19.949  40.060  12.433
66552W        W31713   0.920  23.190   3.113
66553W        W31714  38.869  27.751  10.733
66554W        W31715  11.363  15.778   0.735
66555W        W31716  30.768  16.269   3.355
66556W        W31717  23.638  25.690   3.283
66557W        W31718  38.829  25.693   0.034
66558W        W31719   5.620  33.440   2.391
66559W        W31720  31.311  38.084   3.283
66560W        W31721  24.109  36.413  12.506
66561W        W31722  18.003  38.821   4.994
66562W        W31723  27.644  35.979   0.540
66563W        W31724  21.705  22.244  13.698
66564W        W31725  35.532  11.196   3.657
66565W        W31726  16.684  27.956  13.364
66566W        W31727   8.899   8.655  12.405
66567W        W31728  32.192   3.751   1.832
66568W        W31729  10.208  25.675  14.734
66569W        W31730   8.592  29.429   3.403
66570W        W31731   8.314  31.421   1.866
66571W        W31732   4.366   3.981  11.867
66572W        W31733  10.033  15.261  11.166
66573W        W31734  21.582  31.660  12.124
66574W        W31735  27.471  25.310   3.221
66575W        W31736  25.203  11.177   1.225
66576W        W31737   6.200  24.954  11.030
66577W        W31738  41.525  32.017  14.760
66578W        W31739  29.852  35.520   1.910
66579W        W31740  33.303  10.977  13.343
66580W        W31741  13.975  38.398   4.093
66581W        W31742  28.371  32.511   4.686
66582W        W31743  35.338   0.024  12.886
66583W        W31744  22.430  20.085   5.431
66584W        W31745  25.793  37.444   2.252
66585W        W31746   3.225  11.866  13.271
66586W        W31747  44.096  35.488   5.464
66587W        W31748   7.703  37.896  10.789
66588W        W31749  33.369  25.944   3.655
66589W        W31750  19.595   0.362   3.162
66590W        W31751  26.900  28.719   1.735
66591W        W31752  11.344  32.123  12.413
66592W        W31753   5.595  31.492   1.695
66593W        W31754  30.020  22.210  11.639
66594W        W31755   8.140   3.295  11.671
66595W        W31756  13.310   7.722   5.081
66596W        W31757  40.938  10.784  10.694
66597W        W31758  14.128  30.001  10.661
66598W        W31759   4.384   7.478  14.104
66599W        W31760  19.616  29.011   2.519
66600W        W31761   1.486   8.388   0.996
66601W        W31762  31.238  26.644  10.340
66602W        W31763   9.845  25.228  14.063
66603W        W31764  33.510   3.992   0.746
66604W        W31765  16.650  11.093   4.874
66605W        W31766   5.127  17.023  12.020
66606W        W31767  13.347   5.921   1.677
66607W        W31768   8.967   8.373   1.260
66608W        W31769  11.404  19.352  14.516
66609W        W31770  22.799  21.672  13.307
66610W        W31771   9.761   1.227  14.037
66611W        W31772  16.352  20.844  11.570
66612W        W31773  21.461  44.417  10.141
66613W        W31774  16.846  39.493  11.608
66614W        W31775  41.437  33.499   0.533
66615W        W31776  38.834   8.885   2.794
66616W        W31777  21.945  31.588   3.687
66617W        W31778   0.168  32.992  12.099
66618W        W31779  21.700  12.127   4.636
66619W        W31780  38.561  12.857  10.746
66620W        W31781  43.893  35.638   3.765
66621W        W31782  44.759   2.680   0.270
66622W        W31783  30.093  11.731  13.943
66623W        W31784   3.960  42.671  13.844
66624W        W31785  17.626  37.431   1.308
66625W        W31786  37.510   1.629   1.248
66626W        W31787  42.801  29.585  13.388
66627W        W31788  10.631  18.112  12.411
66628W        W31789  13.722  18.554   1.842
66629W        W31790  27.681  31.545   1.489
66630W        W31791   3.776  23.054  10.226
66631W        W31792   0.851  37.638   1.552
66632W        W31793   6.647  33.097  14.184
66633W        W31794  28.940  25.158   3.351
66634W        W31795  28.682   2.018   0.415
66635W        W31796   0.056   6.107  12.012
66636W        W31797  31.599   9.437  10.742
66637W        W31798  15.402  14.430   4.993
66638W        W31799  13.631  29.531   4.655
66639W        W31800  28.511  21.071  11.161
66640W        W31801  22.913  33.090   2.179
66641W        W31802  20.534  25.715  13.979
66642W        W31803  43.347  34.364   3.662
66643W        W31804  32.856  43.012  10.305
66644W        W31805  26.643  23.504  10.679
66645W        W31806  29.459  15.887  10.874
66646W        W31807  23.912  35.558   0.812
66647W        W31808  40.790  23.011   0.483
66648W        W31809   2.921   9.402  14.028
66649W        W31810  21.520  41.492  11.123
66650W        W31811  26.066   8.349   2.724
66651W        W31812  44.407  39.336  12.998
66652W        W31813  25.552  13.301   3.724
66653W        W31814  15.811  22.809  10.711
66654W        W31815   0.836  38.597  11.647
66655W        W31816  29.862   7.297  12.512
66656W        W31817  34.097  22.730   2.304
66657W        W31818  37.748  44.001   0.004
66658W        W31819  18.509   1.663   2.966
66659W        W31820  31.744  38.283   1.077
66660W        W31821  19.601   8.332   4.626
66661W        W31822  36.668   4.776   4.940
66662W        W31823   1.112  37.310   2.796
66663W        W31824  26.940   6.805  10.741
66664W        W31825  43.097  43.889  14.451
66665W        W31826   7.589  28.659  14.085
66666W        W31827  37.512  30.054   3.237
66667W        W31828  42.998  31.477  13.912
66668W        W31829   1.777  28.070  12.005
66669W        W31830  43.062  19.733   4.393
66670W        W31831  24.458  10.172  13.825
66671W        W31832  21.062   1.282  10.992
66672W        W31833  36.183  23.992  11.530
66673W        W31834  26.225  30.517   1.214
66674W        W31835  23.662  29.659  10.848
66675W        W31836  14.882   6.565   2.844
66676W        W31837  20.346  40.139   0.534
66677W        W31838  31.943   3.389   2.233
66678W        W31839  16.312  31.018  13.007
66679W        W31840  41.623  39.077   3.088
66680W        W31841   6.899   4.307   3.215
66681W        W31842  20.222  14.806  12.708
66682W        W31843  21.640   1.061  14.946
66683W        W31844  40.265  24.877   4.068
66684W        W31845  44.341  12.584  11.846
66685W        W31846  27.164  35.861   0.346
66686W        W31847  16.847  15.889  13.343
66687W        W31848   5.682  22.790   1.677
66688W        W31849  18.222  27.058  14.327
66689W        W31850  43.356  17.323  12.490
66690W        W31851  36.688  29.419   2.742
66691W        W31852  16.684   3.547  13.091
66692W        W31853  35.324  17.537   0.822
66693W        W31854  38.859  41.984  13.681
66694W        W31855  43.900  40.931   2.678
66695W        W31856  36.499  43.378  12.097
66696W        W31857  25.587  12.924  13.532
66697W        W31858  11.286  28.694   0.860
66698W        W31859   6.849  39.531  14.080
66699W        W31860  14.571  22.443   1.094
66700W        W31861  34.649  10.160  13.489
66701W        W31862  35.517  32.795   3.634
66702W        W31863  12.542   7.293  13.345
66703W        W31864  19.560  20.027   1.635
66704W        W31865  18.717   2.852  12.243
66705W        W31866   7.042   0.376   0.422
66706W        W31867  26.966   3.151  13.377
66707W        W31868   9.298   5.925   2.248
66708W        W31869   2.971  33.596   2.850
66709W        W31870  11.246  44.889   0.764
66710W        W31871  38.411  11.766  10.547
66711W        W31872   9.929  44.548  10.743
66712W        W31873  32.330  24.551  11.584
66713W        W31874  35.329   8.271   1.383
66714W        W31875  26.223  40.984  13.409
66715W        W31876  22.130  14.927   2.723
66716W        W31877  24.869  38.991   2.162
66717W        W31878  44.804   9.855   1.457
66718W        W31879  30.085  44.789  12.531
66719W        W31880  34.959   9.343  14.596
66720W        W31881  22.809  36.872  11.262
66721W        W31882  22.585  11.702   5.026
66722W        W31883  38.617  23.223   2.236
66723W        W31884   6.185  21.182  10.362
66724W        W31885  32.945  28.905  12.932
66725W        W31886  23.562  38.978  14.069
66726W        W31887   9.889  35.610   1.428
66727W        W31888  34.803  32.677   2.139
66728W        W31889  10.203  28.821   3.100
66729W        W31890  19.610  19.771  12.640
66730W        W31891   0.908   0.305  13.964
66731W        W31892   5.405   9.337  14.972
66732W        W31893  34.939  18.211   3.801
66733W        W31894  34.320  34.323   4.049
66734W        W31895  10.803  22.761   4.662
66735W        W31896  31.822  25.140  14.047
66736W        W31897  23.163  24.248   2.380
66737W        W31898  16.323  11.782   0.229
66738W        W31899   2.157   3.380   1.351
66739W        W31900   2.323  30.420  11.536
66740W        W31901   2.429  44.027   3.276
66741W        W31902   2.444  25.635   4.248
66742W        W31903  20.378  40.575   5.012
66743W        W31904  22.528  13.378   2.362
66744W        W31905   8.885   9.233  14.420
66745W        W31906  12.680  24.953   3.687
66746W        W31907   4.176  17.300   4.018
66747W        W31908  20.536  23.460  11.953
66748W        W31909  19.009  18.936  14.052
66749W        W31910  12.152  38.353   1.228
66750W        W31911  26.318   9.237  10.575
66751W        W31912  38.938  37.380   2.938
66752W        W31913  20.576   2.229   3.693
66753W        W31914  23.756  33.961  14.303
66754W        W31915  26.141  18.606   3.952
66755W        W31916  23.682  16.246  11.917
66756W        W31917  11.541   6.363   1.838
66757W        W31918  12.702  43.585   2.237
66758W        W31919   5.957  14.564   3.779
66759W        W31920  12.545  17.024  14.347
66760W        W31921  40.414  13.382   0.267
66761W        W31922  34.854  11.723  11.253
66762W        W31923  23.220   6.688   3.694
66763W        W31924   8.355  43.336  12.615
66764W        W31925  19.663   0.760  13.972
66765W        W31926  24.119  35.012   0.134
66766W        W31927  14.293  35.381   4.944
66767W        W31928  14.098  29.234   2.820
66768W        W31929   8.739  23.952  13.963
66769W        W31930  36.074  24.843   1.178
66770W        W31931  44.552  22.704   0.101
66771W        W31932  25.942  34.178   4.824
66772W        W31933  42.437  21.445  10.971
66773W        W31934  13.993  20.576   4.269
66774W        W31935   7.076  20.635  13.486
66775W        W31936  30.867  28.028   3.586
66776W        W31937   9.840  20.976  12.354
66777W        W31938  28.286  28.559  12.988
66778W        W31939  43.067  13.116  10.737
66779W        W31940  27.522  13.269   0.322
66780W        W31941  10.842  32.924  12.418
66781W        W31942  44.045  24.200  12.199
66782W        W31943  15.380  20.287  12.575
66783W        W31944  38.038  37.649  12.429
66784W        W31945  21.857  21.258   3.697
66785W        W31946  41.428  11.342   3.401
66786W        W31947  33.106   9.442   4.528
66787W        W31948  44.940  24.440  11.537
66788W        W31949  30.048  41.969  10.627
66789W        W31950  22.125  33.577   4.230
66790W        W31951   8.088  44.008   2.150
66791W        W31952  10.648   4.262  14.838
66792W        W31953   1.427  13.078  10.714
66793W        W31954   8.849  37.371  11.591
66794W        W31955  10.829  22.658  10.681
66795W        W31956  33.586  44.906   0.841
66796W        W31957  24.878   7.620  14.942
66797W        W31958  15.885   8.559  14.649
66798W        W31959  32.715   4.677  13.782
66799W        W31960  28.963   7.087   0.485
66800W        W31961  11.850  41.900   3.164
66801W        W31962  10.154  14.704   0.503
66802W        W31963  44.605  42.536  14.929
66803W        W31964  25.009  41.558   2.241
66804W        W31965  27.946  41.381   1.776
66805W        W31966  29.327  44.252  14.204
66806W        W31967  39.188  37.398   4.151
66807W        W31968  24.064  15.087  11.446
66808W        W31969  27.703  37.116  12.600
66809W        W31970  21.736  42.150   2.738
66810W        W31971  35.624  37.567   2.781
66811W        W31972   6.327  18.175   3.266
66812W        W31973  26.594  39.986   1.622
66813W        W31974  26.869   0.531  12.856
66814W        W31975  26.020  26.468  14.050
66815W        W31976  26.840  12.449   2.316
66816W        W31977  25.534  15.878  10.270
66817W        W31978   0.708   9.637  10.167
66818W        W31979  15.453  35.086  12.033
66819W        W31980   2.408   9.416  10.509
66820W        W31981   4.498  29.430  14.472
66821W        W31982   4.504   1.325  12.252
66822W        W31983  19.661   3.560  11.485
66823W        W31984   5.008  30.494   1.491
66824W        W31985  37.940   5.442   0.280
66825W        W31986  38.076  40.078  12.300
66826W        W31987  29.235  31.936  14.985
66827W        W31988  13.195  25.882  13.071
66828W        W31989  11.232  21.308   4.692
66829W        W31990  19.528  25.685   2.443
66830W        W31991  18.718  13.933  13.852
66831W        W31992  34.618  14.102   4.305
66832W        W31993  22.692   9.446  12.437
66833W        W31994  28.312  37.916  14.941
66834W        W31995  26.688   6.125  11.957
66835W        W31996   5.752  32.027   2.748
66836W        W31997  24.944   2.123  11.156
66837W        W31998  31.698  11.916  13.613
66838W        W31999   9.821   3.145   4.283
66839W        W32000  31.192  35.140   2.724
66840W        W32001  14.302   7.348   4.432
66841W        W32002  16.833  20.612   0.772
66842W        W32003   6.128   9.376   4.335
66843W        W32004   0.430  37.837   3.969
66844W        W32005  23.487  39.485   0.651
66845W        W32006  36.956  17.871  13.319
66846W        W32007  28.470   5.030  11.190
66847W        W32008  33.387   3.745  14.402
66848W        W32009  17.249  12.668  10.728
66849W        W32010  25.369  28.975   0.855
66850W        W32011  25.155  40.701   1.430
66851W        W32012  14.915  33.405   4.530
66852W        W32013  26.242  13.289  14.363
66853W        W32014   5.516  38.854   4.677
66854W        W32015  35.437  12.092   2.781
66855W        W32016   1.557  35.043   4.068
66856W        W32017  43.222  22.932   1.374
66857W        W32018  16.378  25.154   1.636
66858W        W32019   3.834  28.646  11.530
66859W        W32020  43.379  18.539  13.845
66860W        W32021   3.324   1.361   2.226
66861W        W32022  21.429  11.213   4.615
66862W        W32023  12.712  39.846  12.890
66863W        W32024  19.249  43.706   4.475
66864W        W32025  32.628  24.248   1.143
66865W        W32026  22.729   8.097  14.369
66866W        W32027  18.412  40.292   1.769
66867W        W32028  30.895  28.948   0.831
66868W        W32029   2.431  37.758  11.890
66869W        W32030  12.868  42.868  14.480
66870W        W32031  37.420  18.580   2.822
66871W        W32032  18.738   0.019  10.734
66872W        W32033   8.383  21.968  11.069
66873W        W32034   6.760  17.863  14.377
66874W        W32035  33.558  17.093  14.228
66875W        W32036   4.176  15.087   3.665
66876W        W32037  41.066  26.124   0.811
66877W        W32038  14.662   9.628   2.663
66878W        W32039  27.663  23.611   0.023
66879W        W32040  24.971   3.986   2.835
66880W        W32041  37.944  32.673  14.437
66881W        W32042  19.849  15.108  13.474
66882W        W32043  30.174  41.875   1.908
66883W        W32044  24.287  20.129   3.091
66884W        W32045  14.819  26.484   1.774
66885W        W32046   8.774  42.490   0.553
66886W        W32047   4.353   8.257  14.843
66887W        W32048  16.180  33.431   4.893
66888W        W32049  32.446  18.039   3.850
66889W        W32050  21.307  16.155   3.579
66890W        W32051  39.911  37.545   4.985
66891W        W32052  13.147  28.701   3.694
66892W        W32053  41.115  12.273   0.261
66893W        W32054   8.850  34.419  10.715
66894W        W32055  33.114   0.846   4.091
66895W        W32056   0.875  34.910  12.576
66896W        W32057  10.062  14.078  11.542
66897W        W32058   2.464  24.430  13.280
66898W        W32059  11.206  31.596  10.713
66899W        W32060  35.728  18.293   4.233
66900W        W32061  20.599  24.822   5.008
66901W        W32062   3.921  10.902   4.537
66902W        W32063  44.766  24.016  10.675
66903W        W32064  30.910   7.241  12.549
66904W        W32065   5.607   2.520   4.575
66905W        W32066  44.490   9.867   0.430
66906W        W32067  24.635  16.117   2.800
66907W        W32068  13.127  35.290   1.177
66908W        W32069  10.873   5.352  10.589
66909W        W32070  17.535  10.355   2.334
66910W        W32071  24.832  30.400  11.029
66911W        W32072  32.077  18.327   2.389
66912W        W32073  24.095   5.166   2.634
66913W        W32074   3.925  18.772  12.952
66914W        W32075  10.357  27.708   4.130
66915W        W32076  14.200  43.752   0.022
66916W        W32077  33.163  40.662   0.848
66917W        W32078  28.511   4.630   1.212
66918W        W32079  17.576   3.033  14.470
66919W        W32080  15.542  30.631  10.372
66920W        W32081   5.686  18.024  14.275
66921W        W32082  31.615  27.350  12.491
66922W        W32083  12.146  29.110   1.246
66923W        W32084  37.625  42.452  13.463
66924W        W32085   6.871  34.081  13.639
66925W        W32086  39.791  38.122   3.239
66926W        W32087  33.178  39.007   1.914
66927W        W32088   6.917  30.553   0.167
66928W        W32089   4.978  17.352   2.366
66929W        W32090  41.623   0.547   4.196
66930W        W32091  35.465  31.120  13.647
66931W        W32092  14.362  24.181   3.643
66932W        W32093   3.641  16.566  14.713
66933W        W32094  22.882  43.315  10.531
66934W        W32095  17.657  10.765  12.387
66935W        W32096  16.283  42.912   1.697
66936W        W32097  30.477  13.257  13.409
66937W        W32098  21.205  16.859  11.961
66938W        W32099  35.045  14.623   4.615
66939W        W32100  24.125  40.517   3.507
66940W        W32101  33.373   2.083   4.061
66941W        W32102  13.706   5.930   1.315
66942W        W32103  23.346  20.718  14.473
66943W        W32104  36.058  18.749  14.900
66944W        W32105  42.792  44.783   4.155
66945W        W32106   9.934  32.572   0.742
66946W        W32107  25.870  15.062  13.008
66947W        W32108  28.229  15.307  14.531
66948W        W32109   6.811  38.803   4.135
66949W        W32110  36.889  14.129  11.887
66950W        W32111  22.470  18.996  11.172
66951W        W32112   9.132   6.017   4.436
66952W        W32113   2.209   5.687   3.478
66953W        W32114  17.238  31.483  10.663
66954W        W32115  41.921  41.923   3.394
66955W        W32116   7.572  28.188   1.461
66956W        W32117  31.008   6.175  10.747
66957W        W32118  28.480   8.025   3.240
66958W        W32119  31.878  27.573  13.515
66959W        W32120  17.034  33.135   1.276
66960W        W32121   0.778  12.326  12.264
66961W        W32122  26.721   7.393   2.115
66962W        W32123   3.516  21.464  11.564
66963W        W32124  16.080   8.047  11.524
66964W        W32125  22.315  41.794  12.685
66965W        W32126   8.204  32.574  14.022
66966W        W32127   7.646  43.958  11.571
66967W        W32128  26.255  28.363  11.529
66968W        W32129  30.967  10.136  11.476
66969W        W32130  31.370   7.880  11.282
66970W        W32131   4.116   9.192   2.314
66971W        W32132  25.064  25.709   4.095
66972W        W32133  26.374  30.041  11.166
66973W        W32134  18.037  32.728   4.061
66974W        W32135  40.527   8.760   3.213
66975W        W32136  41.783  16.396   0.075
66976W        W32137  29.668   2.804  12.554
66977W        W32138   4.292  28.490   3.671
66978W        W32139  21.787  10.358   2.833
66979W        W32140  28.763   7.636  10.731
66980W        W32141  34.935  15.107   3.525
66981W        W32142   7.321  27.256  10.646
66982W        W32143   9.208  21.627  13.064
66983W        W32144  35.615  40.844  10.718
66984W        W32145  38.133  24.504   0.334
66985W        W32146   6.675  12.273   2.399
66986W        W32147  40.601  23.008  13.437
66987W        W32148  29.382  37.977  11.053
66988W        W32149  36.402  21.029  14.070
66989W        W32150   2.873  37.336  13.510
66990W        W32151   6.036  31.769   3.111
66991W        W32152  23.087  38.803   0.935
66992W        W32153  17.680  24.071  14.802
66993W        W32154   3.559   7.857   3.372
66994W        W32155   7.891  21.227   4.719
66995W        W32156  17.639   5.838   3.117
66996W        W32157  31.770  15.863   1.157
66997W        W32158   9.092  39.022   0.209
66998W        W32159  42.506   9.829  12.588
66999W        W32160   5.991  27.992  14.082
67000W        W32161   6.926  39.390  12.706
67001W        W32162  37.316  16.742  13.105
67002W        W32163  35.243  37.369   0.270
67003W        W32164  30.209   5.817  14.982
67004W        W32165   1.316   0.991  11.954
67005W        W32166  36.853  27.119   0.918
67006W        W32167  33.890  34.068  10.684
67007W        W32168   2.014  25.137   4.124
67008W        W32169  30.897  35.073   3.233
67009W        W32170  44.347  36.003  13.652
67010W        W32171   4.151   6.753  14.857
67011W        W32172   4.689   6.294  14.339
67012W        W32173  28.193  35.060   4.546
67013W        W32174   6.748  37.430  11.758
67014W        W32175  44.798  43.516  11.656
67015W        W32176  39.385  11.860  12.055
67016W        W32177  10.359  23.269   1.760
67017W        W32178  10.165  41.001   4.659
67018W        W32179   0.266   9.206  14.693
67019W        W32180  17.632   9.946   2.646
67020W        W32181  14.716  37.412  14.317
67021W        W32182  15.176   4.827  13.076
67022W        W32183  21.265  11.779   3.337
67023W        W32184  12.756  41.964   4.245
67024W        W32185  31.168  24.567   5.008
67025W        W32186   7.332  29.890   2.268
67026W        W32187   3.866   4.366  10.795
67027W        W32188  24.730   9.661   3.283
67028W        W32189  15.134  17.620  10.715
67029W        W32190  42.577  20.633   2.494
67030W        W32191  14.667  27.556   2.793
67031W        W32192   8.336  16.262   2.658
67032W        W32193  39.293  43.922  11.068
67033W        W32194  31.554   3.209  11.668
67034W        W32195  14.144  15.163  14.721
67035W        W32196  40.546  16.338   3.690
67036W        W32197  28.663   2.853   1.220
67037W        W32198   8.252  41.252  14.928
67038W        W32199  40.644  26.896  11.588
67039W        W32200   7.857   8.826   1.761
67040W        W32201  39.460   8.708   0.556
67041W        W32202  18.112  35.476   4.128
67042W        W32203  21.205  44.063   2.864
67043W        W32204  31.639   1.687   1.390
67044W        W32205  18.513  39.005  12.384
67045W        W32206  31.817  28.524  14.410
67046W        W32207  37.554  17.089  11.239
67047W        W32208  15.691  23.696   4.343
67048W        W32209   8.090   2.466  11.124
67049W        W32210   8.154  22.693  14.752
67050W        W32211  23.661  31.972   0.432
67051W        W32212  17.554  18.668  11.064
67052W        W32213  31.947  44.202   1.027
67053W        W32214  40.264  11.243   3.711
67054W        W32215  31.922  32.218  12.537
67055W        W32216  36.182  41.203  12.907
67056W        W32217  35.073  27.132   4.690
67057W        W32218  36.501   7.117   2.285
67058W        W32219  39.866  21.948   3.625
67059W        W32220   5.005  26.221  12.520
67060W        W32221  13.553  34.651   4.133
67061W        W32222  29.479  38.777  12.739
67062W        W32223  25.766   5.711  13.353
67063W        W32224  23.647   0.580   4.851
67064W        W32225  38.615  25.687  10.618
67065W        W32226   9.234   9.250   0.845
67066W        W32227  26.525  37.820   0.053
67067W        W32228  12.812  33.571  12.658
67068W        W32229  23.450  31.788   4.423
67069W        W32230  18.979  39.594  14.569
67070W        W32231   2.328  16.359   2.724
67071W        W32232  36.926  29.218   3.351
67072W        W32233  36.537  19.013  14.023
67073W        W32234  34.661  40.985  14.813
67074W        W32235  16.741  39.760  12.080
67075W        W32236   7.846  22.692   0.643
67076W        W32237   6.708  22.093   3.645
67077W        W32238   6.691   6.133   3.299
67078W        W32239  43.513  25.922   3.758
67079W        W32240   7.872  13.885  12.023
67080W        W32241   9.786  26.779  12.033
67081W        W32242   1.062  26.598  12.811
67082W        W32243  33.283  36.238  13.838
67083W        W32244  13.327  31.556   0.353
67084W        W32245  39.815  40.889  14.830
67085W        W32246  23.628  28.439  12.388
67086W        W32247  11.296   1.335  13.562
67087W        W32248   2.906  41.900  13.522
67088W        W32249   4.812  29.163  10.746
67089W        W32250  33.359  22.916   1.943
67090W        W32251  42.517  42.882   1.329
67091W        W32252   7.172  44.933  14.329
67092W        W32253  42.331  14.828   3.688
67093W        W32254  28.672  34.464   2.283
67094W        W32255  43.374  20.507   1.720
67095W        W32256  32.443  30.254  12.079
67096W        W32257  26.726  32.265   4.142
67097W        W32258   8.524  42.543  12.417
67098W        W32259   3.856  28.546  14.513
67099W        W32260   9.412  17.275   3.173
67100W        W32261  39.977   7.777  12.322
67101W        W32262   8.379  40.357   4.875
67102W        W32263  32.031   3.095  11.483
67103W        W32264   2.777   8.671  14.948
67104W        W32265  18.227   2.935   4.493
67105W        W32266  24.547  26.570   2.770
67106W        W32267  13.654  11.284  10.774
67107W        W32268  15.575   4.935   2.210
67108W        W32269  31.088  32.621   2.350
67109W        W32270   7.525  13.194  10.880
67110W        W32271  12.651  15.275  13.514
67111W        W32272  29.875  37.947  10.963
67112W        W32273  36.541   9.694   4.284
67113W        W32274   8.713  30.889  11.519
67114W        W32275  15.782  26.494   1.275
67115W        W32276  34.330  24.086  11.372
67116W        W32277  17.153  26.750   3.223
67117W        W32278  43.511  13.402  12.491
67118W        W32279  21.156  35.910  14.999
67119W        W32280  17.022  36.538   3.697
67120W        W32281  37.884  24.259  12.133
67121W        W32282  11.346  28.391  13.708
67122W        W32283  39.343  24.683   3.379
67123W        W32284  12.305  14.576  12.260
67124W        W32285   4.616  25.010   3.061
67125W        W32286  14.943   4.182  11.518
67126W        W32287  15.680  17.085   2.204
67127W        W32288  44.696  36.118  11.899
67128W        W32289  30.103  24.447  13.487
67129W        W32290  11.176  14.525  14.592
67130W        W32291  28.017  40.708   2.787
67131W        W32292   6.812  30.953  10.619
67132W        W32293  13.626  14.534   0.412
67133W        W32294  36.637  42.972  13.040
67134W        W32295  35.374   1.412   4.360
67135W        W32296   1.663  36.902   0.852
67136W        W32297  23.154  40.076   2.256
67137W        W32298  32.544  21.790  13.572
67138W        W32299   1.345  22.793  12.050
67139W        W32300  25.209  42.245  11.508
67140W        W32301  13.782  43.268   4.104
67141W        W32302  40.759   7.190   3.577
67142W        W32303  37.782  38.897   4.272
67143W        W32304  21.526   9.235   4.528
67144W        W32305  40.946  25.006  14.463
67145W        W32306  37.625  27.618   4.030
67146W        W32307  14.797  26.703   1.311
67147W        W32308   0.713  13.956   2.433
67148W        W32309  19.074   8.061  14.202
67149W        W32310  32.938  15.147  12.939
67150W        W32311  35.100  10.234  11.431
67151W        W32312  24.935  27.594  12.485
67152W        W32313  43.238  38.161  11.555
67153W        W32314  41.832  38.736   1.373
67154W        W32315  34.158  23.136   4.397
67155W        W32316   1.553   1.395   0.505
67156W        W32317  41.919  10.261  13.813
67157W        W32318  32.755  31.396  12.484
67158W        W32319  15.627   4.038  10.592
67159W        W32320  37.056  43.267  10.901
67160W        W32321  17.596  34.699  14.386
67161W        W32322  28.834  44.077  13.811
67162W        W32323  28.128  44.810   0.756
67163W        W32324   6.238  23.921  11.083
67164W        W32325  41.049  16.282   3.715
67165W        W32326  29.876  24.236   2.317
67166W        W32327  22.044   7.732   0.454
67167W        W32328  25.609  30.083  12.999
67168W        W32329  21.681  15.017  13.010
67169W        W32330  40.260   0.105  14.093
67170W        W32331  30.048  37.928   0.446
67171W        W32332   9.866  34.066   4.375
67172W        W32333   9.914  40.406  14.402
67173W        W32334   8.311  41.214  14.054
67174W        W32335  30.093  14.749   4.055
67175W        W32336   4.864  42.923   2.313
67176W        W32337  16.125  41.411  13.369
67177W        W32338  14.108  42.142   2.801
67178W        W32339  33.891  13.574  12.509
67179W        W32340  41.264   2.708   4.071
67180W        W32341  41.230  22.486   4.744
67181W        W32342  21.692  20.586   4.658
67182W        W32343  28.712  39.101  10.739
67183W        W32344   1.426  30.017   3.988
67184W        W32345  26.834   7.387   1.185
67185W        W32346  19.213   3.676  13.229
67186W        W32347  38.095   3.416  14.511
67187W        W32348  35.076   5.409   1.454
67188W        W32349  38.360  23.480   1.234
67189W        W32350  28.948  41.962  12.554
67190W        W32351  32.655   2.595  10.954
67191W        W32352  41.391  39.407  12.017
67192W        W32353  40.560  41.993   1.707
67193W        W32354   0.804  39.351   2.856
67194W        W32355   5.187  23.206   3.313
67195W        W32356  18.317  23.670  12.573
67196W        W32357  16.023  14.149  14.672
67197W        W32358   4.486   9.844   3.544
67198W        W32359  35.391  25.136  12.027
67199W        W32360   7.642  12.113   0.945
67200W        W32361  24.920   0.824   2.623
67201W        W32362  42.951  23.560   2.168
67202W        W32363   2.213  42.806  11.144
67203W        W32364  15.112   3.202   4.610
67204W        W32365  10.354  16.369   2.289
67205W        W32366  26.388  21.170  14.827
67206W        W32367   9.377  42.066  13.920
67207W        W32368  39.814  41.764  11.839
67208W        W32369  37.082  33.510  13.027
67209W        W32370  38.408  39.942   1.642
67210W        W32371  17.159  12.911  11.181
67211W        W32372  21.171   9.211  13.124
67212W        W32373  27.976   1.927   3.738
67213W        W32374   8.744  29.665   2.454
67214W        W32375   5.808  21.492   2.674
67215W        W32376   2.955   1.782  11.385
67216W        W32377  19.380  17.259   4.072
67217W        W32378  12.138  40.993  11.976
67218W        W32379  14.943  36.784   2.723
67219W        W32380  43.766  15.766   1.206
67220W        W32381  19.684  25.193   0.713
67221W        W32382  39.306  10.290   4.786
67222W        W32383  25.892   7.113   4.239
67223W        W32384  21.353  33.897   4.290
67224W        W32385  12.932  25.928  14.527
67225W        W32386  18.077  31.902  11.144
67226W        W32387  39.093  17.489   2.711
67227W        W32388  20.704   8.647  10.722
67228W        W32389   0.486  13.172   1.761
67229W        W32390  14.308   7.666   3.970
67230W        W32391  34.904  14.853   4.151
67231W        W32392  19.374   7.483   4.420
67232W        W32393  39.704  27.512  12.049
67233W        W32394  40.644  37.810   0.212
67234W        W32395   6.903  43.759   3.394
67235W        W32396  38.726  16.729  11.107
67236W        W32397   6.862  23.504   4.550
67237W        W32398  17.396  19.124   1.745
67238W        W32399  15.162  29.503  14.983
67239W        W32400   0.336  26.263   4.070
67240W        W32401  15.845  22.992   1.281
67241W        W32402  17.336  30.417   2.344
67242W        W32403  10.891  26.031   4.288
67243W        W32404  32.396  13.606  11.221
67244W        W32405  11.113   1.713   3.782
67245W        W32406  41.602   5.259  11.996
67246W        W32407  10.711  22.536   2.109
67247W        W32408  28.465  13.226  14.867
67248W        W32409   9.388   2.466  14.503
67249W        W32410   5.216  18.682   0.676
67250W        W32411  26.147  41.399   3.757
67251W        W32412  44.796  26.550  11.653
67252W        W32413  17.197  36.378   4.163
67253W        W32414   1.746  17.919  14.470
67254W        W32415  24.910  35.971  13.565
67255W        W32416   9.684   0.470   1.175
67256W        W32417  18.759  15.746   0.004
67257W        W32418  20.325  23.531   0.922
67258W        W32419  18.108  16.963   2.820
67259W        W32420   3.787  37.975   0.800
67260W        W32421  18.350  37.910   0.429
67261W        W32422  30.641  41.996   3.692
67262W        W32423  10.202  18.488  14.418
67263W        W32424  36.982  36.826  11.572
67264W        W32425   6.094   6.703  11.657
67265W        W32426   7.329   8.752  11.207
67266W        W32427  33.776  33.613   2.654
67267W        W32428  10.341  23.034   3.957
67268W        W32429  29.095   2.390  12.474
67269W        W32430  32.822  30.454  13.319
67270W        W32431  11.242  21.722  14.946
67271W        W32432  31.316  15.191   3.245
67272W        W32433   0.168  15.372  12.993
67273W        W32434  44.790  33.441   4.080
67274W        W32435  40.027  39.537   2.204
67275W        W32436  29.063   8.084   1.760
67276W        W32437  14.655  36.516  11.547
67277W        W32438   1.376   3.300  13.397
67278W        W32439  13.764  35.098   3.304
67279W        W32440   2.915  28.006  13.298
67280W        W32441   9.677  20.499  12.647
67281W        W32442  39.220  26.604   3.736
67282W        W32443  22.050  31.467  12.005
67283W        W32444  23.015  12.906  14.833
67284W        W32445   3.886  13.455  13.053
67285W        W32446  19.002   1.718  13.021
67286W        W32447  22.565   0.413   1.996
67287W        W32448  13.569   2.363  12.957
67288W        W32449  30.758   8.028   3.624
67289W        W32450  15.061  26.097   0.344
67290W        W32451  11.370  32.210   3.717
67291W        W32452   3.212  26.534   4.998
67292W        W32453   1.432   5.393  10.683
67293W        W32454  32.608  29.067   3.584
67294W        W32455  26.739  44.874   3.148
67295W        W32456  38.575  41.963   0.356
67296W        W32457  19.988  23.155   1.048
67297W        W32458  43.514   9.793  10.607
67298W        W32459  41.414  29.925  11.674
67299W        W32460   0.319   9.920  11.068
67300W        W32461  44.307  37.824   2.228
67301W        W32462  40.415  41.444   0.848
67302W        W32463  23.969  41.482  14.439
67303W        W32464  37.312   0.911  10.550
67304W        W32465  31.414  20.079  10.635
67305W        W32466  20.650  33.367  14.901
67306W        W32467  40.810  12.160   0.679
67307W        W32468  22.677  31.110  11.386
67308W        W32469  29.673  24.804  10.844
67309W        W32470   5.723  24.979  12.512
67310W        W32471  44.051  35.372   2.420
67311W        W32472  44.911  31.584  14.532
67312W        W32473  21.176  20.683   4.557
67313W        W32474   7.248  11.305  12.795
67314W        W32475  35.468  43.513  11.986
67315W        W32476  41.776  33.414   2.103
67316W        W32477  29.571   5.670   4.233
67317W        W32478   7.140  39.426   0.984
67318W        W32479   9.885  35.691  11.080
67319W        W32480  26.590  21.713  12.637
67320W        W32481  41.126  18.723   1.690
67321W        W32482  10.941   4.233  13.879
67322W        W32483  22.479   2.930  13.510
67323W        W32484  21.735   6.397  11.498
67324W        W32485  27.667  38.971  14.463
67325W        W32486  10.189   2.954  11.694
67326W        W32487  21.541  15.191   2.692
67327W        W32488  41.953  20.238  10.786
67328W        W32489  28.897   3.909  11.482
67329W        W32490   7.350  39.811   1.326
67330W        W32491  39.826  22.112  11.985
67331W        W32492  33.662  19.849  11.177
67332W        W32493  18.229   6.261  12.878
67333W        W32494  11.854  27.898   2.786
67334W        W32495  29.711   9.881   3.423
67335W        W32496  10.331  30.788  11.868
67336W        W32497  33.599   1.719   4.389
67337W        W32498  27.136  15.183  14.383
67338W        W32499  13.065   6.718   2.933
67339W        W32500  30.446  33.874  12.238
67340W        W32501  43.795  29.956   0.838
67341W        W32502   7.591  41.026   2.791
67342W        W32503   4.920   3.250   3.713
67343W        W32504  34.986  38.082   3.962
67344W        W32505  18.842  12.173   4.653
67345W        W32506   2.842  15.657  12.908
67346W        W32507   7.676  37.005  10.472
67347W        W32508  15.790   0.993   2.901
67348W        W32509  44.217  32.137  13.420
67349W        W32510  41.776  15.060   1.370
67350W        W32511  42.374  42.075   1.655
67351W        W32512   9.732  24.051  14.697
67352W        W32513   7.385  13.571   0.767
67353W        W32514   4.773   4.855   3.544
67354W        W32515  15.713  42.976  10.849
67355W        W32516   4.204  13.871   3.246
67356W        W32517  32.596  12.251  12.914
67357W        W32518   2.140  37.443  14.119
67358W        W32519  31.168  12.116  13.170
67359W        W32520   2.350  28.430  14.464
67360W        W32521   6.327   8.210   0.698
67361W        W32522  21.195  44.273   2.170
67362W        W32523  37.569  24.722   1.667
67363W        W32524  36.000   3.253  14.350
67364W        W32525  44.190  35.034  11.106
67365W        W32526  24.424  33.048   2.352
67366W        W32527   6.000  39.614  14.924
67367W        W32528  40.758  22.148   1.536
67368W        W32529   7.190  31.020   0.845
67369W        W32530  29.730   8.233   0.971
67370W        W32531  41.010  18.272  11.563
67371W        W32532  41.481  22.245   3.479
67372W        W32533   9.251  15.528  13.335
67373W        W32534  36.183   9.781  13.860
67374W        W32535  26.555  25.623  11.106
67375W        W32536  34.274  21.886  10.183
67376W        W32537   2.984  40.479   0.395
67377W        W32538  30.092   9.127  13.072
67378W        W32539   0.727  27.410   1.340
67379W        W32540  19.157  34.376  12.869
67380W        W32541  26.796  34.924  12.432
67381W        W32542  36.370   8.791   0.867
67382W        W32543  23.539  38.606  11.708
67383W        W32544  30.980  44.409  13.324
67384W        W32545  41.826  38.789   0.494
67385W        W32546  28.728   0.838   3.034
67386W        W32547  41.859  20.303   2.385
67387W        W32548  36.540  32.900  12.952
67388W        W32549   4.386   6.700   1.848
67389W        W32550  12.193   3.022   1.679
67390W        W32551  14.319  11.661   3.737
67391W        W32552  18.406  38.019  12.871
67392W        W32553  25.601  44.651  14.956
67393W        W32554  23.626   4.880   2.616
67394W        W32555  11.253  36.351  11.898
67395W        W32556  19.352  44.262   1.740
67396W        W32557   6.792   2.520   0.044
67397W        W32558  20.164  38.728   1.888
67398W        W32559  12.840  34.913  11.566
67399W        W32560  18.153  17.103  13.921
67400W        W32561   9.331  10.010  14.740
67401W        W32562  30.127  30.448  10.569
67402W        W32563   4.704   1.425  13.904
67403W        W32564  22.196  42.474   4.641
67404W        W32565  16.877  18.469   4.538
67405W        W32566  19.825  18.459   0.743
67406W        W32567   8.106  41.061   4.505
67407W        W32568  28.013   2.900   2.324
67408W        W32569  36.436  35.512   2.718
67409W        W32570  43.500  32.590   4.160
67410W        W32571   6.332   8.591   0.288
67411W        W32572  15.149  38.269   3.775
67412W        W32573  19.798  34.679  12.796
67413W        W32574  36.841  17.179   3.998
67414W        W32575   4.536   0.319  13.087
67415W        W32576  24.113  42.638   4.942
67416W        W32577   5.333  16.030  11.093
67417W        W32578  33.137  28.340   2.624
67418W        W32579   4.468  14.954   4.113
67419W        W32580   5.012  24.705  11.998
67420W        W32581  18.568  10.922  10.776
67421W        W32582  40.290  18.649   0.193
67422W        W32583  39.918  38.613   3.200
67423W        W32584  11.218  18.056  11.551
67424W        W32585   4.302   7.281  10.463
67425W        W32586  29.008  18.088  12.865
67426W        W32587  28.664  15.186   4.779
67427W        W32588   0.720   3.374  14.096
67428W        W32589  33.606  22.768  13.014
67429W        W32590  35.531  19.928  12.516
67430W        W32591  31.960  20.983   4.243
67431W        W32592  39.124  24.008  10.629
67432W        W32593  22.000  14.254   1.258
67433W        W32594  41.559  31.815  13.938
67434W        W32595   8.766  35.161  11.221
67435W        W32596  37.261  14.545  13.000
67436W        W32597  26.737   7.319   0.678
67437W        W32598   6.421  19.627   2.641
67438W        W32599  10.783  42.075  14.533
67439W        W32600  42.518  30.585  12.880
67440W        W32601  26.011  12.605   0.199
67441W        W32602   2.375   7.881  12.074
67442W        W32603   1.485  12.795  11.150
67443W        W32604  32.409  24.131  14.420
67444W        W32605  34.888  20.117   2.781
67445W        W32606  32.869  28.679   4.330
67446W        W32607   6.390  19.509   0.844
67447W        W32608  10.981  17.077   3.534
67448W        W32609  11.875  21.129   4.093
67449W        W32610   6.185  11.743  13.846
67450W        W32611  29.528  37.870  10.559
67451W        W32612  30.800  20.177  10.106
67452W        W32613   4.118  20.712  12.003
67453W        W32614  30.063  34.569   4.290
67454W        W32615  27.122   9.500   0.379
67455W        W32616  29.029  28.474   3.147
67456W        W32617  35.991  16.476  12.469
67457W        W32618  28.126  31.768   4.132
67458W        W32619  20.791  12.613   3.841
67459W        W32620  44.017  21.228   9.902
67460W        W32621  11.800  17.808  12.034
67461W        W32622  39.878  39.846  11.545
67462W        W32623  38.372  29.899  10.743
67463W        W32624  29.236  21.044   3.043
67464W        W32625  12.302   0.200  14.849
67465W        W32626  18.587  42.911   4.297
67466W        W32627  36.368   6.863  11.603
67467W        W32628  28.091   7.273  14.905
67468W        W32629  27.977  15.536   3.294
67469W        W32630  36.569  37.436  14.960
67470W        W32631  42.398  32.481   0.716
67471W        W32632  21.801   8.606  13.279
67472W        W32633  31.682   4.441  11.978
67473W        W32634  12.167  13.180   4.572
67474W        W32635  26.032  23.507   3.050
67475W        W32636  20.945   7.776   3.751
67476W        W32637  12.890  15.062   3.688
67477W        W32638  29.928  16.663   4.716
67478W        W32639  14.204  22.202  10.380
67479W        W32640  35.995  40.530  13.605
67480W        W32641  12.916  33.174  13.040
67481W        W32642  16.219   1.388  12.934
67482W        W32643  20.973  15.621   2.377
67483W        W32644  20.003  19.542   1.676
67484W        W32645  24.807  40.501  12.105
67485W        W32646  17.798   0.029  14.179
67486W        W32647  26.586  36.603   3.752
67487W        W32648  44.929  12.553  14.190
67488W        W32649  38.244  33.979   4.261
67489W        W32650  15.304  40.954  13.205
67490W        W32651  18.537  44.121   1.169
67491W        W32652  25.476  18.569  13.920
67492W        W32653  29.936  33.929  13.017
67493W        W32654  10.849  40.059  14.433
67494W        W32655  18.492   9.405  13.638
67495W        W32656   4.918  38.429  12.145
67496W        W32657   2.045  27.796   9.946
67497W        W32658  33.560  14.853   4.119
67498W        W32659   6.508  15.316   1.330
67499W        W32660   0.426  30.671   1.709
67500W        W32661  29.231   8.375   0.824
67501W        W32662  26.246  32.156  14.694
67502W        W32663  35.113  21.062  14.880
67503W        W32664  11.965   6.900  12.166
67504W        W32665  43.754  11.296   2.426
67505W        W32666  22.660   5.712  10.718
67506W        W32667  37.974  24.219   3.652
67507W        W32668   2.374   7.784   3.246
67508W        W32669  12.319   0.409   3.203
67509W        W32670  36.423  25.595   4.872
67510W        W32671  16.592  21.063   3.199
67511W        W32672  23.437  12.215  14.601
67512W        W32673  14.653   5.325   2.355
67513W        W32674   7.153   3.958  12.520
67514W        W32675  23.213  34.728   2.414
67515W        W32676  19.097  18.832   0.382
67516W        W32677  28.120   0.522   2.253
67517W        W32678   7.928  34.365  13.985
67518W        W32679  36.876  43.506   0.040
67519W        W32680  17.620  28.307   2.826
67520W        W32681  29.638   7.654  10.712
67521W        W32682  35.128  23.480   2.774
67522W        W32683  38.849  12.472   1.987
67523W        W32684  25.600  37.252  10.320
67524W        W32685  21.675  18.540   0.739
67525W        W32686   4.510   0.978   0.732
67526W        W32687  25.514  13.273   4.228
67527W        W32688  37.089  38.055  13.568
67528W        W32689  30.809  16.732   3.089
67529W        W32690  28.443   2.945   3.246
67530W        W32691  19.926  17.167   3.204
67531W        W32692  26.785  27.732  12.581
67532W        W32693  17.193  31.200  12.847
67533W        W32694  40.921  32.601   3.995
67534W        W32695   6.419   8.872   0.738
67535W        W32696  30.807  26.341  10.343
67536W        W32697  15.232  10.218   2.772
67537W        W32698   4.330  19.912  11.707
67538W        W32699  24.656  18.519  13.514
67539W        W32700   4.848  30.445   5.041
67540W        W32701   1.737  38.426   1.228
67541W        W32702   6.389  38.429   1.300
67542W        W32703   1.293  37.842   2.799
67543W        W32704  12.747  35.651  13.794
67544W        W32705   7.718   6.239   2.778
67545W        W32706  25.525   5.216  12.625
67546W        W32707  42.384   7.439   1.167
67547W        W32708  17.260   2.794  13.003
67548W        W32709   5.012  37.310  14.943
67549W        W32710  24.766  42.846   2.360
67550W        W32711  28.086  10.414   0.432
67551W        W32712  29.279  13.226  14.787
67552W        W32713  37.077  36.073  11.072
67553W        W32714  37.441  36.072  13.597
67554W        W32715   1.730  38.128   3.405
67555W        W32716  39.358  42.080  10.594
67556W        W32717  37.542  42.022   1.810
67557W        W32718   6.220  27.601   4.606
67558W        W32719   5.079  17.534  12.102
67559W        W32720   5.543  40.092  13.429
67560W        W32721  16.012  22.812  14.060
67561W        W32722  26.947   0.337   2.739
67562W        W32723  23.725  16.229  13.524
67563W        W32724  11.180  14.024   5.063
67564W        W32725   3.677  28.987   0.284
67565W        W32726  26.749   9.198  12.013
67566W        W32727  24.592  34.102   4.509
67567W        W32728   2.718  16.572   0.934
67568W        W32729   4.844  32.873  11.586
67569W        W32730  17.792   6.683   3.477
67570W        W32731  24.288  31.858  13.575
67571W        W32732  10.695  23.654   3.215
67572W        W32733   2.330  31.572   1.022
67573W        W32734   2.852  18.467   3.172
67574W        W32735   2.750  26.974   4.665
67575W        W32736  42.992  28.316  11.114
67576W        W32737   8.510  44.787  10.563
67577W        W32738   5.376   6.465  13.956
67578W        W32739   7.290  36.567   1.026
67579W        W32740  13.680  20.266  10.544
67580W        W32741  20.690  18.265  12.719
67581W        W32742  31.303  35.593  12.216
67582W        W32743  36.514  15.593  11.202
67583W        W32744   0.757  41.852  12.911
67584W        W32745  19.110  34.931  13.386
67585W        W32746  19.370  28.592  11.999
67586W        W32747  18.772  12.401  14.810
67587W        W32748  28.596  37.560  13.444
67588W        W32749  24.750  18.599   3.797
67589W        W32750  24.049  18.679   3.220
67590W        W32751  27.579  28.618   1.255
67591W        W32752  37.673  17.037   2.866
67592W        W32753  35.056  21.201   4.794
67593W        W32754  44.818  41.334  13.205
67594W        W32755   7.591  25.827   3.592
67595W        W32756  29.148  43.008  14.759
67596W        W32757   3.205   1.830   1.892
67597W        W32758  21.569   8.480  14.404
67598W        W32759   7.057  23.182   0.308
67599W        W32760   5.864  10.649   1.884
67600W        W32761   2.589  35.318   4.542
67601W        W32762   9.248  27.374   5.662
67602W        W32763  42.279  32.554  10.590
67603W        W32764  44.252  35.812  11.705
67604W        W32765  11.283  43.236  13.354
67605W        W32766  40.661  32.289  11.859
67606W        W32767  31.215  10.640   4.005
67607W        W32768  44.675  30.630   9.728
67608W        W32769  28.342  29.814   1.235
67609W        W32770  15.995  38.846  12.889
67610W        W32771  10.694  29.008  14.789
67611W        W32772  15.156  32.887  13.462
67612W        W32773   3.401  16.649  13.201
67613W        W32774  27.145  34.332   1.871
67614W        W32775  40.392  29.393   5.055
67615W        W32776  14.998  44.355   0.249
67616W        W32777  10.410  11.781  10.282
67617W        W32778   0.624  15.571  12.970
67618W        W32779  31.575  16.274   2.691
67619W        W32780   2.416  33.419   1.464
67620W        W32781  40.956  29.226  14.535
67621W        W32782  35.501  26.415   1.748
67622W        W32783  29.755  29.837   1.778
67623W        W32784  15.258  14.566  14.873
67624W        W32785   1.742   7.314   2.715
67625W        W32786  11.085  11.581  14.235
67626W        W32787  24.836  37.572  12.951
67627W        W32788  20.638   4.809   4.906
67628W        W32789  38.455  24.712  12.572
67629W        W32790   0.723  30.355  12.884
67630W        W32791  41.547  27.573  13.974
67631W        W32792   0.335  15.814  14.990
67632W        W32793  13.074   2.725  14.337
67633W        W32794  29.957  33.096   2.785
67634W        W32795  29.881  24.601   1.207
67635W        W32796  41.061   1.982  11.544
67636W        W32797  17.821  30.254  12.417
67637W        W32798   4.192  36.178   4.172
67638W        W32799  28.043   7.743   3.194
67639W        W32800   1.356  41.145  12.781
67640W        W32801  10.752   2.005  13.022
67641W        W32802  32.117  22.482   2.267
67642W        W32803  17.447  14.473  11.976
67643W        W32804  36.763  31.341  12.389
67644W        W32805  32.673   9.208   4.430
67645W        W32806  26.298  11.778  11.888
67646W        W32807  18.527  38.901  10.830
67647W        W32808  21.949  18.036   1.244
67648W        W32809  34.472  22.055   3.302
67649W        W32810  20.747  21.608   0.893
67650W        W32811  40.016  26.262  11.815
67651W        W32812  20.013  23.600   2.337
67652W        W32813  25.568  41.369  10.281
67653W        W32814  32.481  34.479   2.912
67654W        W32815  32.066  16.676   2.764
67655W        W32816  36.622  15.827   0.839
67656W        W32817  34.899  31.855   1.197
67657W        W32818  26.709  23.811   0.371
67658W        W32819  40.995  37.091  14.752
67659W        W32820  18.223   8.400  14.781
67660W        W32821   3.257  29.589  13.821
67661W        W32822  34.841  15.733  12.054
67662W        W32823  28.474  22.423   3.242
67663W        W32824   6.116  21.917  11.129
67664W        W32825   1.223   9.229  13.552
67665W        W32826  10.848   8.673  13.004
67666W        W32827  38.461  14.032   1.289
67667W        W32828   0.663  31.917   1.833
67668W        W32829  18.069   4.066   2.314
67669W        W32830  41.325  30.373  14.950
67670W        W32831  29.642  32.575  12.906
67671W        W32832   8.465  31.369  14.262
67672W        W32833  34.695  22.072   5.250
67673W        W32834  32.598   1.822  13.107
67674W        W32835  19.763  35.410  14.060
67675W        W32836   2.752  29.614  13.321
67676W        W32837   2.858  30.146   2.618
67677W        W32838  21.634   3.794  12.429
67678W        W32839  37.917  32.919  13.967
67679W        W32840  22.280  17.698   0.914
67680W        W32841   1.585  34.855  13.395
67681W        W32842   6.397  38.386  13.555
67682W        W32843  38.274   1.208   0.009
67683W        W32844  38.000  25.333   3.175
67684W        W32845   2.771  31.914   0.907
67685W        W32846  14.224  44.228  14.282
67686W        W32847  33.929  29.031   3.289
67687W        W32848  29.672   9.675   0.473
67688W        W32849  40.298  13.120   2.666
67689W        W32850  44.829  13.031  12.596
67690W        W32851  34.028   6.734  11.150
67691W        W32852  38.185   8.121   4.687
67692W        W32853  24.544   6.649  14.935
67693W        W32854  12.232   1.885  12.625
67694W        W32855  25.631  17.789  14.208
67695W        W32856  34.511   8.715  12.873
67696W        W32857  38.947  29.289  13.748
67697W        W32858  25.480   4.321  14.007
67698W        W32859  24.332  18.258  14.477
67699W        W32860  43.281  14.136   4.241
67700W        W32861  39.090  39.055   3.850
67701W        W32862  28.617  13.615  11.235
67702W        W32863  43.399  38.973  14.373
67703W        W32864  41.100  39.359   0.219
67704W        W32865  20.067  41.515  11.247
67705W        W32866  30.064  21.646   9.886
67706W        W32867  24.696  44.725   3.160
67707W        W32868  23.297  19.287   0.782
67708W        W32869   8.903  26.688  12.039
67709W        W32870  27.364  27.109   2.709
67710W        W32871   8.211   3.242  10.662
67711W        W32872  43.518  24.476  11.306
67712W        W32873  24.288  23.003  10.250
67713W        W32874  38.265  23.814   4.453
67714W        W32875  31.720   5.460   2.270
67715W        W32876   2.441   2.951   2.606
67716W        W32877   3.781  11.164  12.879
67717W        W32878  13.293  18.081   1.468
67718W        W32879  38.165   2.476   3.047
67719W        W32880  26.943  42.911   1.410
67720W        W32881   5.514  14.748  12.528
67721W        W32882   1.922  26.428   4.549
67722W        W32883  25.295  32.593   3.891
67723W        W32884  18.487  18.713   3.116
67724W        W32885  42.949  14.642  10.535
67725W        W32886  43.095  43.441   0.276
67726W        W32887  26.088  40.891   5.022
67727W        W32888  26.130  44.961  12.414
67728W        W32889  20.523  39.974  13.603
67729W        W32890  35.939  17.514  13.697
67730W        W32891  14.913  18.355  10.679
67731W        W32892  10.722  19.774  11.960
67732W        W32893  11.120  14.805  11.659
67733W        W32894  40.569  34.804   2.262
67734W        W32895  21.448   7.130  13.457
67735W        W32896   8.101   7.343   3.149
67736W        W32897   6.291  32.418  13.490
67737W        W32898  18.299  35.136  12.917
67738W        W32899  44.083  29.045   3.259
67739W        W32900  28.435  28.187   3.612
67740W        W32901  15.179  36.496  11.553
67741W        W32902  28.642   1.460   4.715
67742W        W32903  29.389   3.561  13.015
67743W        W32904  41.186  15.809  11.198
67744W        W32905  30.667  44.814   0.906
67745W        W32906  26.971  26.095   4.188
67746W        W32907  13.822   4.453  14.238
67747W        W32908  13.701  31.081   4.636
67748W        W32909  19.220   4.241   4.239
67749W        W32910   6.231   5.829   2.184
67750W        W32911  17.605  24.068   0.759
67751W        W32912   4.351   4.359   3.557
67752W        W32913  23.080  36.292   3.144
67753W        W32914  20.052   1.770  11.618
67754W        W32915  27.333  14.259   0.450
67755W        W32916  36.172   9.319   1.833
67756W        W32917  13.248  17.362   0.022
67757W        W32918  25.705   0.323  12.145
67758W        W32919  10.318  19.177  14.882
67759W        W32920  14.687  33.077  14.126
67760W        W32921  16.829  28.473  13.444
67761W        W32922  35.216  13.674   1.826
67762W        W32923   6.240  39.524  13.991
67763W        W32924  35.945  35.648   2.393
67764W        W32925  12.239   6.742   4.487
67765W        W32926   9.909  38.205   3.205
67766W        W32927   9.315  13.255   0.895
67767W        W32928  15.052   9.906  14.867
67768W        W32929  27.984  32.084   0.701
67769W        W32930  23.517   5.005  10.999
67770W        W32931  25.180  41.744  12.385
67771W        W32932   5.828  11.871  14.552
67772W        W32933   9.046   3.973   0.266
67773W        W32934  26.664  20.097   3.637
67774W        W32935   7.434  23.153   2.659
67775W        W32936  32.551  32.130  12.015
67776W        W32937  41.742   0.822   1.338
67777W        W32938  32.919  12.317   0.802
67778W        W32939  12.290  31.036   0.230
67779W        W32940   2.898  43.827  12.472
67780W        W32941  14.616  25.104  12.955
67781W        W32942  21.781  25.467  14.532
67782W        W32943  14.483   5.688  13.397
67783W        W32944  30.691  27.905  14.909
67784W        W32945  26.129  41.999   1.638
67785W        W32946  19.792   3.956   0.339
67786W        W32947  19.159  37.111   2.688
67787W        W32948   4.726  22.910  12.631
67788W        W32949  22.267   2.031   2.894
67789W        W32950   3.160  39.880   2.230
67790W        W32951   1.488  27.679  11.395
67791W        W32952  36.981   1.644   1.642
67792W        W32953  17.722  36.325  11.113
67793W        W32954  25.567  44.288  11.475
67794W        W32955  27.451  37.302  14.867
67795W        W32956  41.317  15.864   1.173
67796W        W32957  13.347   2.029   2.562
67797W        W32958   9.706  12.340  13.091
67798W        W32959  33.998   8.649  11.443
67799W        W32960  10.064   7.874   0.825
67800W        W32961  20.655  13.107   3.774
67801W        W32962  19.281  14.774  13.827
67802W        W32963  10.370  26.698   3.892
67803W        W32964  41.045  11.934   1.344
67804W        W32965  14.890  39.382   5.167
67805W        W32966  14.699  10.144   2.777
67806W        W32967  41.834  33.118  13.652
67807W        W32968  15.851  14.215  14.125
67808W        W32969  21.969  40.511  12.329
67809W        W32970  34.419  11.141  14.903
67810W        W32971  13.143  43.331  14.347
67811W        W32972  39.959   8.620   4.708
67812W        W32973  18.187  41.588  14.497
67813W        W32974  28.616   0.950   4.571
67814W        W32975  13.584  38.760   4.141
67815W        W32976  17.103   8.237  13.034
67816W        W32977   5.600  39.973  14.938
67817W        W32978  13.467  22.540  11.637
67818W        W32979  28.918  44.536  12.601
67819W        W32980   9.158   1.311   0.914
67820W        W32981  22.056  40.520   4.271
67821W        W32982  14.279  37.378   0.017
67822W        W32983  41.795  22.683   4.058
67823W        W32984  30.265   9.453  12.129
67824W        W32985  22.481   6.499   0.390
67825W        W32986   2.548   0.243   0.491
67826W        W32987  19.992  43.171  14.608
67827W        W32988  34.607  10.415   4.137
67828W        W32989  13.893  43.020  14.268
67829W        W32990   0.369   9.284   0.190
67830W        W32991  18.175  39.831   1.717
67831W        W32992  34.580  18.070   4.656
67832W        W32993  35.554  38.889  11.628
67833W        W32994   5.834  43.554  12.824
67834W        W32995  13.696  40.913   5.119
67835W        W32996  15.868  32.076   0.699
67836W        W32997  43.583  41.298   2.801
67837W        W32998  13.166  31.580  10.683
67838W        W32999   9.658  23.240   2.585
67839W        W33000  26.020  41.117  10.347
67840W        W33001  38.007   4.514  11.457
67841W        W33002   4.195  16.323  10.052
67842W        W33003  22.301   4.672   3.212
67843W        W33004  11.409  38.394  11.541
67844W        W33005  12.871   4.285   1.162
67845W        W33006  10.869  44.517   2.617
67846W        W33007  19.571  37.677   0.691
67847W        W33008  14.036  39.570   5.495
67848W        W33009  24.136  24.457   1.374
67849W        W33010  12.337  43.510   2.627
67850W        W33011   8.161  40.000   4.557
67851W        W33012  24.576   0.729   2.026
67852W        W33013  35.498   7.862   3.652
67853W        W33014  19.723  40.298   4.114
67854W        W33015  13.647  36.126   3.376
67855W        W33016  14.306  14.345  14.053
67856W        W33017  34.794   9.673   3.822
67857W        W33018  28.941  33.908   2.360
67858W        W33019  24.582  42.363   1.685
67859W        W33020   1.044  31.819  14.346
67860W        W33021  20.176   9.673  13.787
67861W        W33022  25.114  36.537   5.399
67862W        W33023   8.886   9.139   4.447
67863W        W33024  22.454   7.778  11.937
67864W        W33025   5.860   0.333  14.065
67865W        W33026  21.354  27.718   0.321
67866W        W33027  33.655  17.543  13.317
67867W        W33028  41.898  30.118  10.964
67868W        W33029  29.654   2.196  13.495
67869W        W33030   0.235  21.897   3.798
67870W        W33031   6.997   2.996   1.050
67871W        W33032   4.170  15.649  10.812
67872W        W33033  17.963  15.202  13.828
67873W        W33034  36.299   4.900  12.537
67874W        W33035  37.968   7.205   3.739
67875W        W33036  35.515   9.450   0.331
67876W        W33037  41.786   4.423   0.474
67877W        W33038  31.583  44.350   4.148
67878W        W33039  15.983  18.852   3.780
67879W        W33040  31.111  36.203  13.797
67880W        W33041  17.546  30.109  13.293
67881W        W33042  10.945   9.743  14.034
67882W        W33043   5.677   6.680   3.240
67883W        W33044   8.892   0.506   3.572
67884W        W33045  11.087  31.445   4.163
67885W        W33046  13.322  16.825  12.064
67886W        W33047  31.584  38.344   2.340
67887W        W33048  43.468   7.200   1.963
67888W        W33049  41.516  11.312   0.442
67889W        W33050  19.661  10.578   3.387
67890W        W33051  44.874  19.831  13.066
67891W        W33052   6.791  39.515   0.588
67892W        W33053  17.718  26.651   4.942
67893W        W33054  29.368  28.679   3.761
67894W        W33055   5.324  29.872  11.191
67895W        W33056   7.375  23.420  10.339
67896W        W33057  44.491  19.267  13.507
67897W        W33058   3.958  19.791   5.328
67898W        W33059   3.470  28.501   3.569
67899W        W33060  26.655  38.992  13.025
67900W        W33061  34.540   1.994   0.689
67901W        W33062  30.678  35.389   2.396
67902W        W33063  43.748  37.806  14.538
67903W        W33064   2.764  28.211  12.843
67904W        W33065   6.333   9.034  12.584
67905W        W33066  38.885  43.841   0.600
67906W        W33067  10.329  29.575   3.652
67907W        W33068  30.798  24.662   1.196
67908W        W33069   7.362   1.326   0.396
67909W        W33070  35.976  38.801   5.042
67910W        W33071  36.020  20.978   4.306
67911W        W33072  13.374   4.068   3.103
67912W        W33073  40.881  35.370   9.636
67913W        W33074   9.568  12.171  10.706
67914W        W33075   1.638  30.305  14.992
67915W        W33076  35.918  10.930  13.468
67916W        W33077  26.524  15.985  12.446
67917W        W33078   5.843  43.717   3.148
67918W        W33079   3.707  20.761  11.049
67919W        W33080  26.989   2.573  14.743
67920W        W33081  44.555  28.103  14.340
67921W        W33082  33.379  29.646  11.678
67922W        W33083  19.474  28.047   2.362
67923W        W33084  26.709  32.529   3.486
67924W        W33085  38.072   8.699  11.609
67925W        W33086   2.917  17.515  13.498
67926W        W33087  42.901   6.218  10.575
67927W        W33088  14.123  25.578  14.782
67928W        W33089  29.534  27.233   0.203
67929W        W33090  38.856  41.991   4.439
67930W        W33091  40.964  14.237   1.692
67931W        W33092  25.685  27.977  10.782
67932W        W33093   1.121  16.687  12.069
67933W        W33094  33.308  27.959  14.784
67934W        W33095  39.604  39.914   2.131
67935W        W33096   4.602  30.877  14.374
67936W        W33097  17.762  42.918  13.922
67937W        W33098  12.786  25.551  10.783
67938W        W33099  31.510   8.789   3.281
67939W        W33100  39.532  34.385  14.456
67940W        W33101  29.502  28.047   3.291
67941W        W33102  21.203  43.663  14.397
67942W        W33103   3.762  33.871  13.889
67943W        W33104  37.645  21.445   2.739
67944W        W33105  35.524  17.073   4.560
67945W        W33106   0.557  41.976  13.847
67946W        W33107   7.399  30.895  11.170
67947W        W33108  39.948   1.029   1.778
67948W        W33109   7.876  31.155   3.821
67949W        W33110  30.971  13.777   4.047
67950W        W33111   9.627  13.647   2.145
67951W        W33112  20.721  12.826   0.713
67952W        W33113   3.041  27.337   3.176
67953W        W33114   8.589   2.872   4.787
67954W        W33115  29.504  43.468   0.519
67955W        W33116  32.446   6.502  11.764
67956W        W33117  36.595  21.385  10.304
67957W        W33118  25.556  28.593  13.948
67958W        W33119  23.583   5.858  12.153
67959W        W33120   8.781   2.114  11.578
67960W        W33121  21.283  42.374  12.106
67961W        W33122  18.223  19.418  12.900
67962W        W33123  42.540  34.888  12.184
67963W        W33124  26.486  22.992   2.725
67964W        W33125  10.855  25.085  11.167
67965W        W33126  22.281  14.165  11.004
67966W        W33127   8.897  42.883  12.353
67967W        W33128  35.695   3.512  12.936
67968W        W33129  34.370  44.453   3.625
67969W        W33130   6.963  22.182   3.190
67970W        W33131   6.246   4.251  11.842
67971W        W33132  12.881  26.400  11.213
67972W        W33133   0.343  28.498   0.540
67973W        W33134  19.752  40.749   3.885
67974W        W33135  13.772  43.821   0.310
67975W        W33136  22.491  34.605  12.443
67976W        W33137  25.280   0.882  14.028
67977W        W33138   9.568  20.712  14.984
67978W        W33139  36.787  14.831   3.273
67979W        W33140  20.540  19.628  13.077
67980W        W33141  21.034   3.460   1.909
67981W        W33142   8.148  35.037  14.114
67982W        W33143  41.214  33.057   4.188
67983W        W33144   1.850  11.381  11.106
67984W        W33145  37.169  27.078  11.646
67985W        W33146  23.936   1.846  12.824
67986W        W33147   9.246  13.334   2.879
67987W        W33148  15.542  30.031  12.434
67988W        W33149  32.899  13.825  11.150
67989W        W33150  12.749  30.815  12.437
67990W        W33151  13.499   2.907  10.623
67991W        W33152  25.953  34.052  12.832
67992W        W33153  11.680  42.545   4.593
67993W        W33154  43.418  26.308  12.331
67994W        W33155  31.172   3.215  12.066
67995W        W33156  22.193  27.396   1.188
67996W        W33157  43.521  30.223  11.154
67997W        W33158  32.205  13.798   2.779
67998W        W33159  31.004  24.174   4.676
67999W        W33160  36.071  31.480  13.368
68000W        W33161  20.754  32.045  10.112
68001W        W33162  39.508  32.233   9.936
68002W        W33163  37.123   2.043  14.867
68003W        W33164  38.796  32.804   0.402
68004W        W33165  22.656  41.597   0.905
68005W        W33166  32.039  29.598  12.269
68006W        W33167  29.600   4.603  14.923
68007W        W33168  25.906  27.090   1.952
68008W        W33169  43.483  28.022   1.281
68009W        W33170  32.844  33.768   1.328
68010W        W33171  25.073  20.585   2.357
68011W        W33172  17.764   9.689  13.372
68012W        W33173  20.223  10.278  12.745
68013W        W33174  17.079   5.321  14.788
68014W        W33175  32.501  36.167  14.740
68015W        W33176  41.486  18.261   2.919
68016W        W33177  28.571  30.957   0.032
68017W        W33178  38.586   0.932   1.823
68018W        W33179  33.008   5.136   0.416
68019W        W33180   3.483  36.489  11.134
68020W        W33181  14.414  17.152  13.027
68021W        W33182   0.312   6.310  14.006
68022W        W33183  41.731  12.749  12.490
68023W        W33184  28.095  19.306   3.137
68024W        W33185   8.103  24.059   3.658
68025W        W33186   0.297  32.423   3.596
68026W        W33187  35.307  10.265   2.124
68027W        W33188   9.824  40.904  12.397
68028W        W33189  27.525  28.101   3.268
68029W        W33190  42.085  43.048  14.470
68030W        W33191  43.424   8.521  11.212
68031W        W33192  18.363  31.050  11.568
68032W        W33193   2.460   9.377  11.030
68033W        W33194   5.077  15.304  10.674
68034W        W33195  33.557  43.618  13.407
68035W        W33196  23.543   6.494  14.865
68036W        W33197  28.525  28.641   1.808
68037W        W33198  40.838  20.957   0.577
68038W        W33199   8.597  20.959   3.190
68039W        W33200  16.761  21.126  14.017
68040W        W33201  35.361  36.799   1.261
68041W        W33202  27.346  27.713  12.441
68042W        W33203  33.875  37.254  13.563
68043W        W33204  37.093  24.114   3.289
68044W        W33205  33.604  13.654  13.780
68045W        W33206  19.895   5.217   1.422
68046W        W33207  19.120  19.658  12.601
68047W        W33208  37.910  14.280  11.195
68048W        W33209   8.475  29.216   4.595
68049W        W33210  35.579  31.603  12.046
68050W        W33211  29.379  34.537   1.715
68051W        W33212  44.919   2.677   1.749
68052W        W33213   0.553  17.862   0.858
68053W        W33214  14.865  28.444   0.868
68054W        W33215   3.570  15.787   1.731
68055W        W33216  11.667  21.636  13.526
68056W        W33217  28.251  14.211  12.926
68057W        W33218  23.001  16.304  14.242
68058W        W33219   9.443  18.368   1.640
68059W        W33220   0.806  16.632   1.024
68060W        W33221  11.626  16.198   0.857
68061W        W33222  26.464  36.737  12.477
68062W        W33223   7.171  21.057  12.531
68063W        W33224  41.905   3.413   1.317
68064W        W33225  10.647  22.793  11.154
68065W        W33226  30.149   7.366   1.113
68066W        W33227  44.435   2.552  12.491
68067W        W33228   7.157  18.014   3.764
68068W        W33229  24.680   5.211  11.564
68069W        W33230  35.387  27.436   2.599
68070W        W33231   7.385   0.899  12.912
68071W        W33232  24.455   1.881  12.859
68072W        W33233   4.163  12.739   5.064
68073W        W33234   7.834  38.588  14.513
68074W        W33235   8.991  32.074   2.645
68075W        W33236  16.782  18.537   2.694
68076W        W33237  18.289  44.950   1.009
68077W        W33238  13.073   8.891  12.025
68078W        W33239   0.884  44.784   4.550
68079W        W33240  34.127  22.260   1.707
68080W        W33241   2.317   7.944  13.515
68081W        W33242  16.194   1.266   4.149
68082W        W33243  20.699  15.391  14.922
68083W        W33244  35.728  18.629  11.142
68084W        W33245   9.371  16.756   4.250
68085W        W33246  32.558  24.365   2.816
68086W        W33247  26.471  25.527   4.658
68087W        W33248   4.676  11.955   1.513
68088W        W33249   6.611  21.783  10.984
68089W        W33250  19.806   2.089   2.728
68090W        W33251  25.709  31.088  11.180
68091W        W33252  10.724  41.728   3.421
68092W        W33253  18.640   2.082  14.333
68093W        W33254  22.249  18.020  12.561
68094W        W33255  32.950  36.871   4.450
68095W        W33256  21.008  25.173  13.399
68096W        W33257  24.163   6.271  10.115
68097W        W33258  39.987   6.322  13.491
68098W        W33259  27.131   3.817  12.037
68099W        W33260  40.000  40.945   3.925
68100W        W33261  30.558  27.903   4.638
68101W        W33262  21.468  28.894   3.602
68102W        W33263  40.757   3.472  12.479
68103W        W33264  23.853  12.131  14.883
68104W        W33265  42.403  34.842  11.680
68105W        W33266  41.911   9.112  12.421
68106W        W33267  32.141  14.725   4.443
68107W        W33268  20.531  42.798   1.591
68108W        W33269  26.942   2.925  10.695
68109W        W33270  39.745  35.017   3.094
68110W        W33271  19.621  15.092  12.105
68111W        W33272  40.263   0.933   4.984
68112W        W33273  16.361  39.120  13.443
68113W        W33274  29.342  19.804   1.145
68114W        W33275   9.170  11.198  12.463
68115W        W33276  40.390  44.145  11.730
68116W        W33277   9.819  40.070   3.623
68117W        W33278  21.223   9.256  11.089
68118W        W33279  44.178  13.058   3.396
68119W        W33280   2.863  23.753  13.011
68120W        W33281  26.031  24.656   0.827
68121W        W33282  25.768  26.388   1.237
68122W        W33283  35.121  15.100  13.800
68123W        W33284  19.068   1.575   0.890
68124W        W33285   7.268  31.954   2.577
68125W        W33286   9.367  22.135   0.213
68126W        W33287  30.918  44.412  11.538
68127W        W33288  16.024  40.226   2.903
68128W        W33289  37.843  38.942   0.308
68129W        W33290  36.010   9.365  12.960
68130W        W33291  29.513   9.470  13.691
68131W        W33292  38.560   3.206  10.292
68132W        W33293  44.517   3.068  11.555
68133W        W33294  42.563  36.893   3.299
68134W        W33295  42.439  14.303   0.340
68135W        W33296   0.822  22.735  13.357
68136W        W33297  40.091  35.955  14.507
68137W        W33298  35.589  31.191  14.145
68138W        W33299  34.313  26.277   0.711
68139W        W33300  35.860  19.039   1.353
68140W        W33301  39.532   8.180   0.813
68141W        W33302   4.985   4.820  14.140
68142W        W33303  16.259   0.779   4.328
68143W        W33304  38.411  21.532  14.528
68144W        W33305  24.520   6.312   2.693
68145W        W33306  26.003   2.218  11.821
68146W        W33307  35.121  37.435  11.591
68147W        W33308   1.749  26.732   3.212
68148W        W33309  25.573   3.284  13.052
68149W        W33310  27.504  16.996  10.592
68150W        W33311  14.269  25.431   3.301
68151W        W33312  14.104  36.809  12.872
68152W        W33313  42.275  22.384   2.450
68153W        W33314   9.847  17.016   1.850
68154W        W33315  24.835   6.197  13.359
68155W        W33316  42.294  37.987  11.430
68156W        W33317   3.845  27.299   4.541
68157W        W33318  37.490  24.290  13.489
68158W        W33319   2.597  26.154  14.476
68159W        W33320  11.691  23.563   0.116
68160W        W33321  27.973  33.204  14.281
68161W        W33322  24.377  34.419   1.496
68162W        W33323  42.355  34.090   1.304
68163W        W33324   6.835  20.290   0.444
68164W        W33325  34.011   2.238  14.875
68165W        W33326  41.234  25.653   2.407
68166W        W33327  40.007  29.357  12.055
68167W        W33328  24.496  31.898  14.858
68168W        W33329  17.891  37.506   3.572
68169W        W33330   5.426  20.229   2.339
68170W        W33331   8.302   4.041   4.907
68171W        W33332  35.493   0.828  10.514
68172W        W33333  23.388  13.036  14.478
68173W        W33334  34.514  41.958  14.496
68174W        W33335  42.895  33.631  11.926
68175W        W33336  30.934  28.664   1.364
68176W        W33337  21.844  17.256   4.993
68177W        W33338  25.104  22.313   3.132
68178W        W33339  21.531  35.810   2.867
68179W        W33340  16.735  19.773  10.339
68180W        W33341  29.533  33.626  12.922
68181W        W33342  44.661  27.704   0.557
68182W        W33343  31.252  33.473   2.671
68183W        W33344   9.292   1.778   3.134
68184W        W33345   0.367   7.310  13.505
68185W        W33346  35.181  20.659   3.664
68186W        W33347  20.826   9.760   2.808
68187W        W33348  40.204  30.598  11.609
68188W        W33349  21.953  40.276  12.809
68189W        W33350  39.463  38.627   1.912
68190W        W33351  43.957  38.658   0.245
68191W        W33352  33.815   7.665  12.911
68192W        W33353  19.760  21.456  11.942
68193W        W33354  33.912  43.585  14.031
68194W        W33355  40.707  19.967   5.207
68195W        W33356   4.966  32.458  13.871
68196W        W33357  11.703  21.273  10.628
68197W        W33358  42.850  25.951   1.886
68198W        W33359   3.731  14.532   1.323
68199W        W33360  36.579  42.335   0.259
68200W        W33361  21.537  42.698  11.572
68201W        W33362  13.246  32.999   0.231
68202W        W33363   0.203  32.747  14.035
68203W        W33364  15.020  22.353  10.307
68204W        W33365  30.638  16.910  11.170
68205W        W33366  38.025   3.914   3.838
68206W        W33367  38.928  13.671   0.391
68207W        W33368  29.473  10.409  14.969
68208W        W33369  19.588  18.250   5.087
68209W        W33370  17.568  21.085  12.108
68210W        W33371  28.095  20.167  12.037
68211W        W33372  16.357   5.925   2.026
68212W        W33373  28.626  15.797   1.300
68213W        W33374  13.628  22.669  13.822
68214W        W33375  31.500  32.635  12.531
68215W        W33376  25.624  22.105   2.213
68216W        W33377   9.649  21.299  10.423
68217W        W33378   6.711  23.608   1.452
68218W        W33379  10.151  33.528   4.316
68219W        W33380  10.055   9.463  11.079
68220W        W33381  34.350   4.949  12.508
68221W        W33382  36.464  23.019   2.294
68222W        W33383  32.214   4.538   2.873
68223W        W33384   5.214   5.198   2.217
68224W        W33385   4.470  41.149  13.925
68225W        W33386   0.288  16.254  11.963
68226W        W33387  32.882   0.659  11.234
68227W        W33388  30.955  22.068  13.431
68228W        W33389  37.453   8.543   1.803
68229W        W33390  26.589  20.268   4.173
68230W        W33391  11.595  31.735  11.642
68231W        W33392   6.607  13.289   2.769
68232W        W33393  42.191  10.822   3.219
68233W        W33394   7.216   8.421   3.224
68234W        W33395  17.745   1.386  12.801
68235W        W33396  37.377  24.881  11.167
68236W        W33397  11.450   9.838  14.102
68237W        W33398  42.804  24.554   0.884
68238W        W33399  29.167  42.458   0.452
68239W        W33400  41.046  39.779   1.700
68240W        W33401  16.619  40.412   1.462
68241W        W33402  16.297   0.254   4.396
68242W        W33403  44.350  21.404  14.141
68243W        W33404  29.707  11.641   1.790
68244W        W33405  20.519  38.892  11.954
68245W        W33406  40.441  20.312   4.098
68246W        W33407   2.767  17.030   1.842
68247W        W33408   6.672  13.516  14.413
68248W        W33409  10.872  12.773  14.799
68249W        W33410   3.321  25.664  13.050
68250W        W33411   3.923  18.665  10.730
68251W        W33412  10.592  36.968   4.601
68252W        W33413  39.619  36.867  13.550
68253W        W33414  17.520  25.951  11.594
68254W        W33415  22.655  15.791  10.915
68255W        W33416  19.103  39.408   0.064
68256W        W33417  30.559  17.373   3.617
68257W        W33418  32.607  38.058  11.992
68258W        W33419  20.681  31.318  12.519
68259W        W33420   8.211   3.766  13.834
68260W        W33421  26.623  21.126   1.339
68261W        W33422  39.973  26.933  10.724
68262W        W33423  42.862  20.245  12.507
68263W        W33424   3.231  33.878   3.978
68264W        W33425   6.971  33.934   0.859
68265W        W33426  26.869  21.222  10.973
68266W        W33427  13.763  33.382  13.002
68267W        W33428  33.423  22.183   4.737
68268W        W33429  12.870   7.187   1.116
68269W        W33430  22.711  32.566  11.538
68270W        W33431  38.066  28.678  11.182
68271W        W33432  20.707  20.238  14.943
68272W        W33433  32.587  20.162  13.367
68273W        W33434   3.222  34.601   0.628
68274W        W33435   9.388  13.230  10.765
68275W        W33436  26.484  32.757  10.841
68276W        W33437  19.835  23.066   3.046
68277W        W33438  18.493  15.380  14.772
68278W        W33439  17.362  11.263   0.713
68279W        W33440  28.347   7.469   4.063
68280W        W33441   4.817  33.665   1.529
68281W        W33442  32.194   1.819  12.762
68282W        W33443   6.910  41.716   0.407
68283W        W33444   8.897  12.397  14.783
68284W        W33445  10.361  38.123   0.770
68285W        W33446   1.757  20.185  13.728
68286W        W33447   5.506  35.074   1.370
68287W        W33448   3.059  28.884  12.143
68288W        W33449  11.234  44.081   0.290
68289W        W33450  20.067   6.914  10.736
68290W        W33451  44.434  27.966  11.200
68291W        W33452   0.932  21.240   1.260
68292W        W33453  23.870  39.098  13.370
68293W        W33454  40.174  22.068  11.582
68294W        W33455  24.901  13.883   3.432
68295W        W33456  11.554  30.433  11.910
68296W        W33457  25.372   5.226  14.003
68297W        W33458  19.187  37.368   0.553
68298W        W33459  37.024  44.847  11.375
68299W        W33460  44.984  44.280   4.541
68300W        W33461  33.918  19.797  14.796
68301W        W33462  34.975  35.575   4.265
68302W        W33463  25.613  36.144   1.301
68303W        W33464  35.143  44.494  12.082
68304W        W33465  43.808  34.349   4.199
68305W        W33466   7.905  34.577  12.329
68306W        W33467   2.868  17.791  13.982
68307W        W33468  35.870  41.389   3.877
68308W        W33469  23.326  23.229   3.697
68309W        W33470  28.413  35.536   2.492
68310W        W33471  38.100  14.247   4.637
68311W        W33472  40.376   0.960   2.694
68312W        W33473   5.747  35.036   3.755
68313W        W33474  36.845   0.389   4.528
68314W        W33475  28.067   4.740   0.915
68315W        W33476  43.818   1.050  10.646
68316W        W33477   3.934  19.297   0.823
68317W        W33478   8.432  34.635  11.602
68318W        W33479  39.537  30.886  13.042
68319W        W33480  25.759  23.365  11.860
68320W        W33481  42.856   2.604  12.083
68321W        W33482  20.289  38.161  11.920
68322W        W33483  38.055  19.575  12.464
68323W        W33484  16.044  34.555   1.873
68324W        W33485   9.749  42.546  14.943
68325W        W33486  25.627  29.432   0.773
68326W        W33487   2.232   6.400   1.473
68327W        W33488  41.191   3.409  14.332
68328W        W33489  41.020  12.706   3.075
68329W        W33490   8.217   3.792   1.273
68330W        W33491  36.983  25.736   3.233
68331W        W33492  20.243  28.222   0.925
68332W        W33493   1.334  37.327   0.355
68333W        W33494  12.400  28.475  12.413
68334W        W33495   2.612  32.574   3.226
68335W        W33496  15.834   3.302   0.403
68336W        W33497  16.944  31.191   1.784
68337W        W33498  15.045  44.870   2.291
68338W        W33499   4.571  14.026  11.610
68339W        W33500  29.104   4.441   4.307
68340W        W33501   0.843  24.008   4.192
68341W        W33502  42.952  11.914   3.699
68342W        W33503  15.575  23.144   0.850
68343W        W33504   0.844   9.186   3.747
68344W        W33505   4.778  35.098  10.777
68345W        W33506  15.394  19.566   0.247
68346W        W33507  44.160  35.411  10.748
68347W        W33508  28.476  25.124   1.571
68348W        W33509  10.223   6.667  11.760
68349W        W33510  43.454  39.710  11.458
68350W        W33511  33.916  11.417   4.857
68351W        W33512  43.262   6.061  10.004
68352W        W33513  41.388   9.663   1.972
68353W        W33514  10.848   4.810  10.492
68354W        W33515  34.610   7.204   0.868
68355W        W33516  37.499  31.179   4.236
68356W        W33517  18.206  37.896   2.765
68357W        W33518  27.472   2.869  12.077
68358W        W33519  14.264  10.577  14.374
68359W        W33520   7.427  35.364   1.442
68360W        W33521  44.006  43.141  11.167
68361W        W33522  19.604  32.428  14.357
68362W        W33523  11.408  41.262   3.576
68363W        W33524  21.193  20.566   0.342
68364W        W33525  16.339  23.375  11.204
68365W        W33526  40.616  29.386  11.051
68366W        W33527  16.317   8.749   2.663
68367W        W33528  30.821  29.157  14.937
68368W        W33529  43.887  33.067  13.968
68369W        W33530   3.712  31.080  12.485
68370W        W33531  25.411  27.454  12.490
68371W        W33532  35.241  29.686   2.401
68372W        W33533  34.994   5.021   2.379
68373W        W33534   9.694  43.552  14.777
68374W        W33535  38.661  19.132   0.535
68375W        W33536  28.755   0.575  12.041
68376W        W33537  34.544   3.934   1.694
68377W        W33538  13.865   1.008   2.311
68378W        W33539   1.292  14.129   1.260
68379W        W33540  24.616  42.044  13.938
68380W        W33541  44.461  30.654  13.272
68381W        W33542  30.896  13.572   2.694
68382W        W33543  15.077   0.985   4.794
68383W        W33544  36.402  13.436  12.823
68384W        W33545  35.056  43.240   5.356
68385W        W33546   5.442  41.846  14.397
68386W        W33547  40.401  31.459   0.993
68387W        W33548  20.474  41.118  10.581
68388W        W33549  22.538  20.715  14.933
68389W        W33550  23.598  19.204  11.436
68390W        W33551  42.793  34.336  14.953
68391W        W33552  12.072  37.981  13.300
68392W        W33553  29.660   0.034  14.480
68393W        W33554   3.981  22.125  12.698
68394W        W33555   1.038  23.455  13.776
68395W        W33556  42.619  24.731  11.177
68396W        W33557   5.819  43.497  14.994
68397W        W33558  18.046  18.757   2.356
68398W        W33559  30.596  30.558   0.801
68399W        W33560   2.299   9.724   2.542
68400W        W33561  31.392   4.486   3.636
68401W        W33562  22.761  35.899   3.106
68402W        W33563  22.488  24.249  14.781
68403W        W33564  10.775  37.529  13.063
68404W        W33565  41.432   2.857   0.983
68405W        W33566   6.818   0.715  14.018
68406W        W33567  42.773  29.940   2.268
68407W        W33568  44.786   6.392   1.579
68408W        W33569  35.099  38.074  14.197
68409W        W33570  11.329  33.102  13.333
68410W        W33571  41.983  38.782   2.749
68411W        W33572   9.227   5.445   3.583
68412W        W33573  28.521  44.003  14.533
68413W        W33574  40.710  16.518  11.541
68414W        W33575  41.050   9.174   4.290
68415W        W33576  30.905  13.092   4.794
68416W        W33577  16.538   2.660   1.841
68417W        W33578  31.897  16.354   1.190
68418W        W33579   1.026  27.826   1.429
68419W        W33580  34.393  32.733   1.402
68420W        W33581  18.707  10.244   5.029
68421W        W33582  43.784  19.557   1.600
68422W        W33583   9.791   8.801   3.894
68423W        W33584  44.643  39.000   3.480
68424W        W33585  40.010   6.302   0.441
68425W        W33586  31.144  18.084   0.922
68426W        W33587  30.893   5.359   3.563
68427W        W33588  35.470  11.629   3.372
68428W        W33589  19.156  26.103   0.495
68429W        W33590  25.725  41.261  10.747
68430W        W33591  32.554  24.129  12.417
68431W        W33592  37.286   2.631  10.721
68432W        W33593  44.723  17.248   1.276
68433W        W33594   2.375  35.295   1.596
68434W        W33595   4.249   8.903  11.580
68435W        W33596   3.074   1.910   1.307
68436W        W33597   1.390  15.078  14.328
68437W        W33598  21.143  19.893   2.793
68438W        W33599  26.514  38.034   2.480
68439W        W33600  18.408  41.973  11.734
68440W        W33601  43.105  19.793   4.948
68441W        W33602  37.182  33.146  14.748
68442W        W33603   3.222  27.546  11.620
68443W        W33604  37.334   3.460  12.051
68444W        W33605   9.184  28.456  13.859
68445W        W33606   3.319  26.639  14.517
68446W        W33607  22.619  12.174   4.831
68447W        W33608  32.195  22.123  10.116
68448W        W33609  37.698  36.860   4.556
68449W        W33610  28.234  17.655  10.709
68450W        W33611  10.232  27.029  11.961
68451W        W33612  29.455  11.169   1.734
68452W        W33613   4.611  23.156   5.538
68453W        W33614  37.860  25.633  12.269
68454W        W33615   2.270  22.005  13.238
68455W        W33616  22.680  38.783  12.599
68456W        W33617  14.172   6.487  13.350
68457W        W33618   9.291  40.630  13.788
68458W        W33619  36.076  32.152   4.574
68459W        W33620  29.139   2.316   1.849
68460W        W33621  21.507   1.247   1.705
68461W        W33622   4.962  21.401  11.533
68462W        W33623   9.402  34.015  10.521
68463W        W33624  18.651  25.682  10.666
68464W        W33625  40.455  33.965   0.678
68465W        W33626   6.613  19.998   0.966
68466W        W33627  42.555  22.818  10.698
68467W        W33628   1.538  42.918   0.822
68468W        W33629  24.925  30.923  13.249
68469W        W33630   6.303  36.041  12.005
68470W        W33631  22.068  35.065  10.799
68471W        W33632  26.892  37.032  12.362
68472W        W33633   1.135  16.083  13.669
68473W        W33634  19.587  21.777   3.636
68474W        W33635   8.354  16.390  12.974
68475W        W33636  12.835  15.753   4.397
68476W        W33637  20.534  10.258   3.639
68477W        W33638   6.057   9.934  13.941
68478W        W33639  26.187  16.116   1.447
68479W        W33640   7.264  19.756  13.309
68480W        W33641  24.133  42.978  11.608
68481W        W33642  36.715  32.650   4.140
68482W        W33643  22.735  38.369   1.670
68483W        W33644  40.056   3.677  13.333
68484W        W33645  15.631  28.166   1.289
68485W        W33646   6.195  11.763  14.876
68486W        W33647  40.461  38.838  12.071
68487W        W33648   1.454  17.343  14.838
68488W        W33649  41.240  20.491   1.746
68489W        W33650  28.254  24.418   5.664
68490W        W33651  18.290   3.112   0.367
68491W        W33652  15.820  24.440  12.689
68492W        W33653  38.102  44.986  11.069
68493W        W33654  34.803   0.986   0.069
68494W        W33655   7.818  31.523   0.489
68495W        W33656  22.214   1.950   1.744
68496W        W33657   8.913  34.604  12.608
68497W        W33658  15.383  40.727   1.738
68498W        W33659  23.437   6.801  10.576
68499W        W33660  28.073   7.645   4.667
68500W        W33661  32.898  31.936  13.264
68501W        W33662  22.184  32.076   2.941
68502W        W33663  42.943  10.318  11.006
68503W        W33664  18.498   8.785  12.278
68504W        W33665  34.922  28.913  14.439
68505W        W33666  23.538   3.658  14.395
68506W        W33667  26.085  40.846   4.499
68507W        W33668   2.707   7.657   0.946
68508W        W33669  24.502   0.304   4.654
68509W        W33670  40.074  35.872  10.691
68510W        W33671   3.398  25.569   5.073
68511W        W33672  24.215  25.692   4.523
68512W        W33673  35.439  12.848   2.367
68513W        W33674  35.146  36.048  10.444
68514W        W33675  26.013  13.575   3.081
68515W        W33676  35.406   4.956  12.947
68516W        W33677  29.250  10.747   3.636
68517W        W33678   6.463  22.899   2.888
68518W        W33679  19.348  17.861  12.421
68519W        W33680  26.169  36.859  11.066
68520W        W33681  31.037   4.880   2.678
68521W        W33682   3.757  21.289   1.822
68522W        W33683   2.005  38.072   2.441
68523W        W33684  44.893  43.003  14.912
68524W        W33685  19.132  36.490  11.195
68525W        W33686  21.025  24.129   3.512
68526W        W33687   2.904  13.129   2.003
68527W        W33688  14.655  27.996   3.084
68528W        W33689  30.070  32.975   1.444
68529W        W33690  20.614   2.512   1.803
68530W        W33691  16.885  12.114   0.965
68531W        W33692  31.050  42.801   4.495
68532W        W33693  12.803  23.407  14.526
68533W        W33694  30.963  35.047  11.670
68534W        W33695  31.374  13.090  12.181
68535W        W33696  34.881  29.975   1.731
68536W        W33697  38.028  19.242  13.058
68537W        W33698  43.803  17.682   4.430
68538W        W33699   7.627   3.917   0.255
68539W        W33700  24.052  33.454   2.885
68540W        W33701   5.482  17.742  13.024
68541W        W33702  21.286  15.802  13.371
68542W        W33703  40.005  39.212   0.976
68543W        W33704  42.326  23.431   1.438
68544W        W33705  28.214  26.402  11.228
68545W        W33706  12.227  42.932  10.835
68546W        W33707   3.906  31.471   4.330
68547W        W33708  13.258  39.266   2.663
68548W        W33709  17.196   6.657   0.771
68549W        W33710   8.257  12.339   2.196
68550W        W33711  41.284   0.455   2.809
68551W        W33712   9.638  32.495   1.559
68552W        W33713  20.508  44.331  14.385
68553W        W33714   4.018   7.399   2.257
68554W        W33715  14.836  30.198  11.896
68555W        W33716  13.818  12.110  10.485
68556W        W33717  22.953   3.176  12.281
68557W        W33718  24.598   8.231   3.170
68558W        W33719   4.305  25.588   3.287
68559W        W33720  39.393  37.477   2.697
68560W        W33721  11.901  31.468   2.773
68561W        W33722  11.384  13.283   2.294
68562W        W33723  20.969  44.973  11.441
68563W        W33724  14.758   3.140  13.078
68564W        W33725  13.189  23.788   0.871
68565W        W33726   5.414   9.822  14.223
68566W        W33727   2.495  28.521   3.723
68567W        W33728   5.835  14.056  13.504
68568W        W33729  13.108  26.470  13.851
68569W        W33730  36.902  26.443   1.920
68570W        W33731  13.515  16.010  10.601
68571W        W33732  20.170  25.206  14.070
68572W        W33733  43.095   4.440  13.021
68573W        W33734   6.481  17.691  13.953
68574W        W33735  14.839  29.485  10.769
68575W        W33736  18.011  43.364   0.754
68576W        W33737  20.252  32.026   3.689
68577W        W33738  20.743   9.310   1.897
68578W        W33739  13.639  25.900  12.422
68579W        W33740  14.399  30.417  11.714
68580W        W33741  26.235  28.254  12.328
68581W        W33742  36.143   0.241  12.593
68582W        W33743   1.753  39.533   4.666
68583W        W33744   9.260   9.668  11.628
68584W        W33745  30.034  38.569   9.899
68585W        W33746   1.257  22.021   2.469
68586W        W33747  38.422  16.573  13.254
68587W        W33748  14.829   1.864   1.190
68588W        W33749  28.330   1.914  12.457
68589W        W33750  12.086  27.696   1.322
68590W        W33751  41.885   5.943   3.687
68591W        W33752   1.176  42.723  11.785
68592W        W33753   2.191  24.912   3.666
68593W        W33754  43.517  16.232   1.370
68594W        W33755  30.928  33.476  13.879
68595W        W33756  41.806  29.585  11.631
68596W        W33757   1.710  32.669  13.099
68597W        W33758   4.486   6.364  11.145
68598W        W33759  39.527  24.952   3.804
68599W        W33760  17.109  41.572   0.800
68600W        W33761  22.190  30.878  13.764
68601W        W33762  23.378  19.813   1.389
68602W        W33763  32.418  20.647  13.309
68603W        W33764   5.568  19.486  10.374
68604W        W33765  17.285  13.972   0.467
68605W        W33766  26.008  43.903  12.450
68606W        W33767  14.716  33.303   3.324
68607W        W33768  17.257   2.153   1.671
68608W        W33769  14.204  18.257  14.964
68609W        W33770  22.767  29.620   2.668
68610W        W33771  24.489  33.435   1.687
68611W        W33772  20.276  17.747  11.988
68612W        W33773  26.435   7.753  13.941
68613W        W33774  36.848  24.083   2.498
68614W        W33775   8.383  40.377  13.042
68615W        W33776  27.593  15.025  11.531
68616W        W33777  12.879   8.169  11.975
68617W        W33778   0.497  27.479   3.726
68618W        W33779   4.550  18.006   2.949
68619W        W33780  28.151   1.409  11.991
68620W        W33781  28.643  31.014  13.090
68621W        W33782   8.922  19.230   1.721
68622W        W33783  15.224  20.198   4.446
68623W        W33784  28.474   2.270   2.730
68624W        W33785  28.137  28.467  11.590
68625W        W33786   3.950   5.820   2.721
68626W        W33787  32.516   3.693   2.655
68627W        W33788  22.237  42.916  12.954
68628W        W33789  15.062   9.596   2.322
68629W        W33790  26.175   7.231   3.314
68630W        W33791  25.668  43.957  12.870
68631W        W33792  27.287  24.641   3.238
68632W        W33793  42.737   9.653  13.893
68633W        W33794  10.187  11.891   3.177
68634W        W33795   9.542  32.285   2.800
68635W        W33796   6.223  16.093  12.999
68636W        W33797  31.181   6.637  14.531
68637W        W33798  27.656  32.617   3.110
68638W        W33799  35.319  15.180   2.543
68639W        W33800  33.134   5.683  13.793
68640W        W33801   4.784  35.578  11.124
68641W        W33802   2.099  17.378  11.454
68642W        W33803  11.766  42.778   0.412
68643W        W33804  25.947  35.854  11.105
68644W        W33805  44.803   2.338   4.268
68645W        W33806  10.736  17.624   2.745
68646W        W33807  34.006  20.633  12.082
68647W        W33808   7.606  35.054  14.058
68648W        W33809  27.850  27.370   1.721
68649W        W33810  16.301  29.311   2.694
68650W        W33811   1.252  22.718   1.045
68651W        W33812  23.905   5.684   3.174
68652W        W33813  40.810  40.543   3.916
68653W        W33814   3.491  35.224  13.903
68654W        W33815   3.698  10.306   2.146
68655W        W33816  20.608  40.106  12.494
68656W        W33817  38.120  12.872   3.581
68657W        W33818  21.683  13.547   3.493
68658W        W33819  14.074  18.288  10.968
68659W        W33820  33.907  36.099   3.378
68660W        W33821  27.093  12.599   5.489
68661W        W33822   2.282  26.081   4.442
68662W        W33823   3.500  40.481  12.939
68663W        W33824  12.835  11.367  14.752
68664W        W33825  27.496  39.585  11.472
68665W        W33826  19.053  10.404  12.530
68666W        W33827  35.338   9.444   4.619
68667W        W33828  35.544   2.308  14.859
68668W        W33829  16.224   1.373   1.237
68669W        W33830  24.831   8.410  12.456
68670W        W33831  11.338  11.315   4.207
68671W        W33832  29.992  41.644   2.361
68672W        W33833   6.713   3.575  10.232
68673W        W33834  23.451   4.852  13.518
68674W        W33835  39.253  12.240   3.827
68675W        W33836   5.450  26.819   4.103
68676W        W33837  38.837  10.122  10.833
68677W        W33838  43.096  31.959  14.026
68678W        W33839  39.489  26.399   4.691
68679W        W33840  32.175  31.331  14.902
68680W        W33841  36.066  35.808   3.689
68681W        W33842  27.672  26.477  11.517
68682W        W33843  42.517  13.370   2.331
68683W        W33844  43.658  39.893   4.373
68684W        W33845  22.166   3.754   2.253
68685W        W33846   7.408   6.626   3.562
68686W        W33847   5.987  19.739  14.073
68687W        W33848  33.972  23.348   2.355
68688W        W33849  30.636  25.223   3.102
68689W        W33850  39.032   8.240  14.813
68690W        W33851  31.889  33.460  14.004
68691W        W33852  24.474  11.423   0.788
68692W        W33853  33.642   0.297  13.312
68693W        W33854   2.803  13.103   0.025
68694W        W33855   5.276  43.772  12.811
68695W        W33856  40.991  23.804   0.102
68696W        W33857  24.569  33.353  13.390
68697W        W33858  44.200  44.381   5.115
68698W        W33859  41.880  23.924  14.449
68699W        W33860   3.041  34.409   3.435
68700W        W33861  41.798  25.741   2.274
68701W        W33862   6.393  14.620   1.585
68702W        W33863  32.976   0.465   4.919
68703W        W33864  37.963  20.546  13.473
68704W        W33865  42.517   0.439   4.581
68705W        W33866  37.968   2.705  14.130
68706W        W33867  23.877  11.326  13.117
68707W        W33868  25.484   7.369   4.015
68708W        W33869  17.064  19.219   3.126
68709W        W33870  27.873   7.698   2.695
68710W        W33871  36.461  20.520   0.733
68711W        W33872  29.474  14.245   4.593
68712W        W33873   6.803  37.100  10.958
68713W        W33874  19.481  43.974  11.101
68714W        W33875   0.947  43.911  10.598
68715W        W33876  12.702  27.123  12.972
68716W        W33877  43.688  20.693  14.405
68717W        W33878   1.913  43.862  10.701
68718W        W33879   1.307  38.397  12.566
68719W        W33880  14.771  37.873  12.646
68720W        W33881  23.256  27.652   0.675
68721W        W33882  34.499  36.681  12.176
68722W        W33883  11.509  28.720  11.545
68723W        W33884  15.143  18.316  11.911
68724W        W33885   8.644   1.783   2.460
68725W        W33886  20.287   6.805  13.006
68726W        W33887   5.004  24.884   0.017
68727W        W33888  34.031  41.541   4.641
68728W        W33889   8.247  37.242   1.928
68729W        W33890  12.415  32.098  12.556
68730W        W33891  33.435  18.217   2.388
68731W        W33892   0.939  23.123  10.666
68732W        W33893  15.386  42.257  12.350
68733W        W33894  16.331  41.512   2.768
68734W        W33895  35.317  28.267  13.465
68735W        W33896  39.933  11.788   2.709
68736W        W33897  26.713   0.502  11.110
68737W        W33898  31.475  40.823  14.625
68738W        W33899  27.238  32.573  11.214
68739W        W33900  28.637  42.195   2.268
68740W        W33901  27.063  19.200   4.703
68741W        W33902  40.948  35.797  11.542
68742W        W33903  30.554  39.976  10.797
68743W        W33904  34.102  30.623  10.490
68744W        W33905   6.378  29.277  10.554
68745W        W33906   1.349  40.789  12.364
68746W        W33907  10.862  30.562   0.227
68747W        W33908  22.729   9.745   3.658
68748W        W33909  14.162  41.568   2.777
68749W        W33910  12.898  12.434   4.493
68750W        W33911  22.544  40.190  14.875
68751W        W33912  33.679  18.564  10.790
68752W        W33913  28.029  12.898   0.917
68753W        W33914  40.374  20.311  11.607
68754W        W33915  10.834  28.529   1.251
68755W        W33916  44.951  16.083   3.120
68756W        W33917  23.186  34.520  13.764
68757W        W33918  44.244   3.751  13.911
68758W        W33919  16.279  20.969  10.692
68759W        W33920  12.832  34.490  14.252
68760W        W33921   8.875  36.318   4.110
68761W        W33922   5.227  25.089   3.081
68762W        W33923  13.541  38.079  11.748
68763W        W33924  14.217   3.691  14.875
68764W        W33925  11.274   0.208   3.886
68765W        W33926  37.594   1.227   4.364
68766W        W33927  40.438  28.006  12.157
68767W        W33928  19.378  18.430   0.495
68768W        W33929  44.032   5.972  14.946
68769W        W33930   8.916  31.993   4.059
68770W        W33931  16.816  36.062  14.984
68771W        W33932  19.921  22.422  11.412
68772W        W33933  37.860  11.823   4.323
68773W        W33934   6.847  40.223   4.150
68774W        W33935  29.165  17.789  10.521
68775W        W33936   8.361  41.426   4.206
68776W        W33937  40.939  14.145   4.422
68777W        W33938  44.015  15.769   1.678
68778W        W33939   5.553  22.887  11.991
68779W        W33940   8.937   9.879  13.747
68780W        W33941  12.292  16.208   0.006
68781W        W33942   6.904  32.039  12.419
68782W        W33943  27.643  35.061  13.476
68783W        W33944  25.138  43.764  10.680
68784W        W33945   7.470  40.722   2.294
68785W        W33946   4.989   0.766   4.602
68786W        W33947  41.300  32.772  11.487
68787W        W33948   1.706  38.090  13.482
68788W        W33949   7.344  22.016   4.431
68789W        W33950   0.640  18.297  11.088
68790W        W33951  29.186  10.664  10.292
68791W        W33952  23.472  25.292  12.993
68792W        W33953  28.208   2.008   4.587
68793W        W33954  29.241  44.291  14.708
68794W        W33955   3.995   8.667   4.688
68795W        W33956  23.209   2.730   3.320
68796W        W33957  44.427  42.262   1.931
68797W        W33958  44.599  31.301   2.180
68798W        W33959  14.753  43.800   3.303
68799W        W33960  34.905   0.222  10.792
68800W        W33961  27.107  29.113   0.723
68801W        W33962   7.252  14.638  11.069
68802W        W33963  37.827   6.648  11.630
68803W        W33964  44.709  23.591   4.634
68804W        W33965  40.141  28.986   4.719
68805W        W33966  40.285  10.687   1.942
68806W        W33967  44.320  18.372   3.674
68807W        W33968  12.268  12.844  13.763
68808W        W33969  34.939  18.727   3.826
68809W        W33970  32.529  21.508  14.568
68810W        W33971   2.567   8.210   3.729
68811W        W33972   4.454   7.872   3.298
68812W        W33973  30.039  33.607   2.701
68813W        W33974  32.608  36.805   4.812
68814W        W33975  31.468  29.915   4.463
68815W        W33976  19.481  12.590   5.079
68816W        W33977  42.288   0.312  11.511
68817W        W33978  31.050  14.237   1.556
68818W        W33979  37.502   9.896  10.702
68819W        W33980  28.497   8.609  11.595
68820W        W33981  16.184   4.608   3.281
68821W        W33982  37.622  40.827   2.536
68822W        W33983  11.677  38.588  11.126
68823W        W33984  42.033  17.560   0.286
68824W        W33985  16.982  40.171  13.529
68825W        W33986   5.523  10.857   2.247
68826W        W33987   1.044  33.092  12.537
68827W        W33988  30.600  34.620   3.155
68828W        W33989  35.468   0.388   2.322
68829W        W33990  18.642  41.059   1.263
68830W        W33991  38.059   5.196   2.115
68831W        W33992  39.352  11.709  10.757
68832W        W33993  25.603  20.924   1.132
68833W        W33994  26.474  25.094   3.245
68834W        W33995  25.697  39.497   1.277
68835W        W33996  28.067  37.096  12.963
68836W        W33997  17.220  36.344   3.222
68837W        W33998   3.909  14.163   0.026
68838W        W33999   5.505   5.307   1.795
68839W        W34000  37.736   7.786   2.275
68840W        W34001  39.552  22.322   2.754
68841W        W34002   3.356  41.016  11.528
68842W        W34003  18.271  41.247   2.922
68843W        W34004  36.098  15.584   3.106
68844W        W34005  38.157   6.324   3.039
68845W        W34006  17.168   4.784  11.150
68846W        W34007  19.120  41.850   3.284
68847W        W34008  42.938  15.180   0.349
68848W        W34009  24.417  28.080  13.473
68849W        W34010   3.736   0.945  12.612
68850W        W34011  15.887  21.671  12.571
68851W        W34012  27.024  10.216   3.166
68852W        W34013  43.316  17.716  13.364
68853W        W34014  16.645   8.875  13.423
68854W        W34015   9.302  11.706   4.397
68855W        W34016   6.629  35.618  10.723
68856W        W34017  29.649  28.537   2.272
68857W        W34018   2.960   0.337  10.574
68858W        W34019   1.889   0.991   1.013
68859W        W34020  33.078  33.451   1.674
68860W        W34021  41.821  35.300   2.660
68861W        W34022  13.246   9.111   2.405
68862W        W34023   0.211  33.433  10.596
68863W        W34024  11.251  42.315   1.856
68864W        W34025  34.545   9.538   0.780
68865W        W34026   7.285  40.006  12.978
68866W        W34027  29.501   0.781   2.672
68867W        W34028  35.125  28.161   1.445
68868W        W34029  30.413  19.965   3.385
68869W        W34030  33.175  37.782   3.210
68870W        W34031  40.574  24.016  10.722
68871W        W34032  31.343  15.241   4.679
68872W        W34033  43.179  14.622   0.841
68873W        W34034  32.151  25.295  11.414
68874W        W34035  35.596   3.368   0.707
68875W        W34036  29.007  31.617   1.751
68876W        W34037  44.742   8.658   2.648
68877W        W34038  14.177  16.560  11.655
68878W        W34039  39.426  16.924   4.881
68879W        W34040  26.660  10.455  14.290
68880W        W34041  28.368  39.584   4.306
68881W        W34042  35.848   6.730  13.072
68882W        W34043  28.348  23.418  10.227
68883W        W34044  39.752  29.445  14.344
68884W        W34045  11.342   4.447   2.721
68885W        W34046  15.636  35.189   1.232
68886W        W34047  43.581  13.042   9.441
68887W        W34048  14.710  21.295   0.274
68888W        W34049  39.216   2.812  12.045
68889W        W34050  34.921  36.398  12.202
68890W        W34051  33.449  22.394  13.361
68891W        W34052  31.926  28.656   2.327
68892W        W34053  37.365  11.216  12.976
68893W        W34054   8.301  14.566   4.186
68894W        W34055  12.365  16.716  11.196
68895W        W34056   1.278  11.560   2.326
68896W        W34057  28.449  10.293  13.879
68897W        W34058  43.415  11.474   0.180
68898W        W34059  24.690  28.130  13.016
68899W        W34060  30.441   7.205  10.443
68900W        W34061  39.011  21.680  12.101
68901W        W34062   2.696  41.564  10.893
68902W        W34063  37.630   8.690   4.674
68903W        W34064  15.707   1.726  14.600
68904W        W34065   7.896  26.236  14.850
68905W        W34066  11.413  14.428  11.866
68906W        W34067   0.549  43.390   4.290
68907W        W34068   2.879   3.374  14.771
68908W        W34069  30.678   6.783  13.636
68909W        W34070  16.252  29.045   4.880
68910W        W34071  20.083  27.061   2.931
68911W        W34072  18.095   6.131  11.300
68912W        W34073   9.105  12.701   2.371
68913W        W34074  18.655   2.853   0.072
68914W        W34075  18.157  13.219  12.080
68915W        W34076  16.991  10.871   1.305
68916W        W34077   3.851   6.206   2.381
68917W        W34078  26.833  19.052   4.258
68918W        W34079   6.632  14.674   0.267
68919W        W34080  10.367  23.816   1.698
68920W        W34081   5.487  14.694   3.640
68921W        W34082  29.502  10.787   2.088
68922W        W34083  31.611  34.721  14.896
68923W        W34084  38.601  38.651  13.843
68924W        W34085  30.689  10.877  12.764
68925W        W34086  27.675  24.057  11.989
68926W        W34087  33.750  41.176   4.428
68927W        W34088  33.334   4.199  13.098
68928W        W34089   1.321  40.319   2.262
68929W        W34090  36.143   2.525   0.735
68930W        W34091  36.330  28.055   3.476
68931W        W34092   5.342  32.118  14.064
68932W        W34093  15.581  14.140   4.583
68933W        W34094  22.080  32.192  10.665
68934W        W34095  23.460  16.384  14.498
68935W        W34096  29.587  41.547  14.967
68936W        W34097  13.335   3.529   2.168
68937W        W34098  13.539  41.972  10.995
68938W        W34099  40.549   9.125   4.231
68939W        W34100  25.749  21.559  13.015
68940W        W34101  28.288   9.431   1.257
68941W        W34102   6.486  44.768  11.552
68942W        W34103   7.862  16.074   3.363
68943W        W34104   5.360  28.603   3.627
68944W        W34105  43.817  23.667   3.738
68945W        W34106  15.198  39.025   1.054
68946W        W34107  44.371  41.935   2.792
68947W        W34108   6.368   9.041  10.404
68948W        W34109  30.523  15.498  13.994
68949W        W34110  18.827  17.588  10.387
68950W        W34111  28.045  39.878  14.380
68951W        W34112  38.060  10.729   4.104
68952W        W34113  33.812  42.334   2.159
68953W        W34114  33.650  27.004  10.866
68954W        W34115  32.139  12.076   4.521
68955W        W34116  37.558  29.435   2.525
68956W        W34117  22.426  26.290   2.694
68957W        W34118  33.941  42.509  11.649
68958W        W34119  26.027  19.280   4.549
68959W        W34120  14.137  22.658  13.914
68960W        W34121  33.937  35.410   2.963
68961W        W34122  26.037   5.027  13.163
68962W        W34123  42.773   7.985   3.616
68963W        W34124  14.698   6.683  13.392
68964W        W34125  33.647   7.675   1.828
68965W        W34126  27.880   7.742  14.743
68966W        W34127  31.604   3.592   0.720
68967W        W34128  21.149  38.920   1.481
68968W        W34129   5.364   9.672   2.620
68969W        W34130  43.320  26.125  10.591
68970W        W34131  26.992  21.664  10.676
68971W        W34132  24.653  14.102   1.689
68972W        W34133  25.141  34.743  12.120
68973W        W34134   4.359  42.743   2.232
68974W        W34135  42.269  37.500   0.808
68975W        W34136   1.676  34.968   2.087
68976W        W34137  13.387  37.779   2.787
68977W        W34138  18.657  40.800   3.095
68978W        W34139  15.846  30.966   4.156
68979W        W34140  25.770  17.998   1.890
68980W        W34141  16.704  15.041   2.165
68981W        W34142   8.671  42.339  11.983
68982W        W34143   3.272  10.572   0.276
68983W        W34144   4.509  27.621   1.309
68984W        W34145  11.132  43.581   0.317
68985W        W34146  41.912  12.613   1.463
68986W        W34147  16.601  41.813  11.132
68987W        W34148   2.870   9.602   1.818
68988W        W34149  16.629  42.560   5.422
68989W        W34150  14.612  37.759   1.212
68990W        W34151  19.579   1.206  14.766
68991W        W34152  39.793  42.980  13.934
68992W        W34153  43.319   5.202  12.712
68993W        W34154  41.238  24.793   2.232
68994W        W34155   6.534  18.101  10.769
68995W        W34156  22.724   6.103  14.353
68996W        W34157   9.689  26.202  13.335
68997W        W34158  39.987  27.560  13.359
68998W        W34159  30.527   0.164  14.493
68999W        W34160  20.108   0.477  13.862
69000W        W34161   8.245  21.045  11.144
69001W        W34162   1.159  44.747  11.174
69002W        W34163   7.872   2.025   1.310
69003W        W34164  39.731   3.305  10.904
69004W        W34165   7.392   4.185   3.305
69005W        W34166  37.367  44.720  14.840
69006W        W34167  44.696   5.891  11.313
69007W        W34168  41.090   4.406  11.519
69008W        W34169  39.791  40.227   0.970
69009W        W34170  19.047  34.609  14.383
69010W        W34171  21.911  32.886   3.568
69011W        W34172  42.403  21.838   0.309
69012W        W34173   2.334  11.046  14.368
69013W        W34174   2.027  26.555   5.356
69014W        W34175   5.505  26.600   0.884
69015W        W34176  11.285  35.861  11.080
69016W        W34177  35.964  33.198   1.269
69017W        W34178  17.173  10.159  12.339
69018W        W34179  19.142   3.509   3.707
69019W        W34180  24.793  19.180  13.050
69020W        W34181  32.096  16.189  13.569
69021W        W34182  23.101  38.901  12.878
69022W        W34183  19.068   7.488  14.913
69023W        W34184  43.192   2.218   1.812
69024W        W34185  37.581   3.149  12.978
69025W        W34186  33.072  37.893   5.354
69026W        W34187  36.442   5.966  13.034
69027W        W34188  41.404  25.017  10.706
69028W        W34189   0.065  16.620   1.736
69029W        W34190  23.825  37.407  11.978
69030W        W34191   1.098   2.851  13.412
69031W        W34192   2.756  29.627  11.598
69032W        W34193  24.283  31.341   3.113
69033W        W34194  20.007  28.672   1.788
69034W        W34195  19.130   4.942  14.976
69035W        W34196  12.169  27.194  12.946
69036W        W34197  27.496  24.294  13.285
69037W        W34198  21.300  37.569   3.782
69038W        W34199  32.972  41.564   2.695
69039W        W34200  24.541  16.390  11.612
69040W        W34201  15.337  38.528   1.097
69041W        W34202  40.041  31.397   2.860
69042W        W34203  13.616  30.585   4.510
69043W        W34204  10.188  27.376  10.705
69044W        W34205  22.520  41.993   3.567
69045W        W34206  37.107  38.995   0.937
69046W        W34207  14.092   4.213  14.787
69047W        W34208  12.427  35.950   1.467
69048W        W34209   0.492  32.607  12.382
69049W        W34210  36.949  25.942   1.914
69050W        W34211  34.835  27.063   0.689
69051W        W34212  10.177  20.979   3.726
69052W        W34213  32.173  13.889   4.712
69053W        W34214  26.064  30.858  13.852
69054W        W34215  10.823  22.947   3.794
69055W        W34216  14.324  12.136  13.900
69056W        W34217  10.511  41.553  11.226
69057W        W34218   8.314   0.943  14.494
69058W        W34219  42.860   6.733   4.953
69059W        W34220  10.799  30.105   1.738
69060W        W34221  39.243  34.210   4.174
69061W        W34222   0.249  12.522   1.350
69062W        W34223   6.301   2.818  13.579
69063W        W34224   3.009  28.030  11.582
69064W        W34225  11.997  23.723  11.702
69065W        W34226  10.449  18.014   4.752
69066W        W34227  24.634  12.876   4.514
69067W        W34228  17.574  29.690   3.056
69068W        W34229  12.230  39.076  10.696
69069W        W34230  29.665  14.613   0.754
69070W        W34231  22.561  17.156  13.020
69071W        W34232  34.082   6.235  13.024
69072W        W34233  12.922  17.625  14.705
69073W        W34234  29.523  44.702  14.018
69074W        W34235   6.652  18.667   4.129
69075W        W34236  32.119   4.529   5.169
69076W        W34237  27.540   3.814  13.757
69077W        W34238  30.593   5.814   2.699
69078W        W34239  17.219  11.455   4.185
69079W        W34240  26.807  36.983   1.990
69080W        W34241  29.400   5.697   1.782
69081W        W34242  42.832  22.499  13.049
69082W        W34243  32.443  28.922   4.772
69083W        W34244  24.832  44.274   4.316
69084W        W34245  28.106  37.828  13.404
69085W        W34246  11.778  43.910   4.424
69086W        W34247  10.741  12.026   2.250
69087W        W34248  23.670  33.516   3.225
69088W        W34249   7.789  37.020  14.051
69089W        W34250  35.730   3.770   2.887
69090W        W34251  20.736  28.019   1.763
69091W        W34252  30.949   9.920  14.903
69092W        W34253  40.156  35.909   3.090
69093W        W34254   8.128   9.273  13.035
69094W        W34255  10.156  33.991   3.204
69095W        W34256  37.393   6.622   0.865
69096W        W34257   9.710  43.858   4.570
69097W        W34258   1.229  24.960   3.405
69098W        W34259  12.483  16.079   3.716
69099W        W34260   1.719  36.838  14.959
69100W        W34261  28.491  41.966   1.551
69101W        W34262  25.977  16.889   1.829
69102W        W34263  32.574   4.913  14.217
69103W        W34264  20.074  39.804   2.849
69104W        W34265  20.375  32.541   4.452
69105W        W34266   8.770  11.917   2.732
69106W        W34267   3.525  22.153  11.152
69107W        W34268  34.630  29.271   4.113
69108W        W34269  19.969   3.203  14.982
69109W        W34270  34.451  39.824   0.797
69110W        W34271  44.810  37.645   0.209
69111W        W34272  42.467  44.403  10.705
69112W        W34273  31.439   2.276  14.736
69113W        W34274  39.052  32.364   3.242
69114W        W34275  12.602  10.879   4.629
69115W        W34276   1.266  15.851  10.348
69116W        W34277  28.932  34.972   0.331
69117W        W34278  16.622   8.623   0.338
69118W        W34279  18.429   7.694   4.170
69119W        W34280  31.381  30.865   3.358
69120W        W34281  38.307  29.906  11.520
69121W        W34282  16.293  33.877   0.336
69122W        W34283  33.534  10.693  12.393
69123W        W34284   6.506  29.589   4.945
69124W        W34285  12.195  41.867   0.881
69125W        W34286  26.717   5.100  11.980
69126W        W34287  23.490  11.822   2.724
69127W        W34288   7.219   5.618   0.784
69128W        W34289  10.534  27.249  11.541
69129W        W34290  11.853  36.077   1.390
69130W        W34291  17.080  32.943   2.265
69131W        W34292   3.645  28.145   3.253
69132W        W34293   1.682  39.402   2.782
69133W        W34294  15.060  43.458   2.000
69134W        W34295  19.986   6.968   4.803
69135W        W34296  33.129  37.321   4.310
69136W        W34297  18.101   1.303  10.662
69137W        W34298   9.997  14.864  12.002
69138W        W34299  34.430  12.566  11.595
69139W        W34300   3.803   6.243   2.966
69140W        W34301  11.093  22.042  11.524
69141W        W34302  40.108  35.413   1.783
69142W        W34303  34.130  43.847   3.114
69143W        W34304  31.099   2.894   3.746
69144W        W34305  22.473  30.122  11.228
69145W        W34306  19.608   2.954  13.917
69146W        W34307  40.978  14.588  12.717
69147W        W34308  31.551  40.370   0.652
69148W        W34309  43.858  18.087  11.605
69149W        W34310  39.716  28.178   3.173
69150W        W34311  33.006  29.631  13.413
69151W        W34312   1.447  22.308   4.319
69152W        W34313  26.044  13.526   5.470
69153W        W34314   4.648  39.869  12.353
69154W        W34315  21.456  22.974   1.265
69155W        W34316  17.686   9.511   3.170
69156W        W34317  35.652  30.517   0.345
69157W        W34318   9.269  26.835   5.011
69158W        W34319  33.871  37.044  10.289
69159W        W34320  28.643  12.685   4.202
69160W        W34321  32.053  25.199   2.778
69161W        W34322  19.550  33.943  13.300
69162W        W34323  13.248  10.018   3.698
69163W        W34324   4.523  13.214  13.899
69164W        W34325   1.220  25.720   3.687
69165W        W34326   9.797   1.923   1.726
69166W        W34327   1.532  15.302  11.026
69167W        W34328  37.492  30.989   0.327
69168W        W34329  30.495  31.017   5.129
69169W        W34330   4.090  18.283   2.027
69170W        W34331   0.171  39.849   3.558
69171W        W34332  37.313  10.292   2.305
69172W        W34333  33.848  21.120  12.007
69173W        W34334  18.219  19.765   3.153
69174W        W34335  33.911  27.082   0.233
69175W        W34336   2.451  19.694   5.064
69176W        W34337  34.933  12.158   3.642
69177W        W34338  13.250  42.489   4.965
69178W        W34339   1.572   0.239  11.824
69179W        W34340   7.198  41.456   4.542
69180W        W34341  37.729  27.173   3.812
69181W        W34342  42.355  13.802  10.679
69182W        W34343  24.122  17.280   5.016
69183W        W34344  32.339  21.473   2.929
69184W        W34345  34.461  13.248  12.061
69185W        W34346  33.863  10.242  14.301
69186W        W34347  40.601  38.094  14.782
69187W        W34348  31.961  36.303  12.005
69188W        W34349  27.688   4.135   4.028
69189W        W34350   9.239   6.958  11.478
69190W        W34351   9.629   8.199  10.752
69191W        W34352  36.172   7.883  13.984
69192W        W34353  28.931  35.506   1.723
69193W        W34354  23.036  18.454   3.115
69194W        W34355  35.864  32.550  12.380
69195W        W34356  36.468  26.705   1.911
69196W        W34357  26.219  29.426  12.919
69197W        W34358   5.728  23.028   2.280
69198W        W34359  40.791  20.519  10.780
69199W        W34360   4.449  10.660  10.007
69200W        W34361   5.409  38.685  11.633
69201W        W34362   3.216  30.039  13.090
69202W        W34363  39.887  40.570  10.321
69203W        W34364  31.144  42.473  11.091
69204W        W34365  21.209  43.729   4.608
69205W        W34366  44.361  44.918  13.607
69206W        W34367  16.164  28.626  11.799
69207W        W34368  28.451  44.372  14.034
69208W        W34369  32.674  40.111   0.670
69209W        W34370  24.923  34.785   1.913
69210W        W34371   7.975  30.239   3.315
69211W        W34372  43.693  31.618   3.623
69212W        W34373  16.261  36.299   1.724
69213W        W34374  30.570  12.264   4.814
69214W        W34375   1.448  14.912  11.975
69215W        W34376  31.014  18.691  14.798
69216W        W34377  27.815  41.073  10.972
69217W        W34378  37.838   0.257   3.427
69218W        W34379  20.415  14.232   4.227
69219W        W34380  21.256   5.480  13.460
69220W        W34381  13.728  41.833   2.651
69221W        W34382  35.580  32.491   3.216
69222W        W34383  40.772  31.204   0.379
69223W        W34384  44.888  22.113  14.572
69224W        W34385  33.085  34.340   3.707
69225W        W34386  20.753  43.209  10.160
69226W        W34387  28.952  43.905   4.709
69227W        W34388  23.724   5.303  10.607
69228W        W34389  13.702  18.697   1.327
69229W        W34390  43.082  24.660   2.789
69230W        W34391  32.081  17.479  10.977
69231W        W34392  38.936  16.713   4.953
69232W        W34393  30.709  42.826   1.846
69233W        W34394   3.380  17.055   4.364
69234W        W34395  12.172  19.531  12.509
69235W        W34396   1.808   0.382  13.581
69236W        W34397  16.826  42.615  10.684
69237W        W34398  18.291   2.284  10.707
69238W        W34399  31.543  39.776   1.232
69239W        W34400  22.921  18.018  13.014
69240W        W34401   8.748  14.319   2.046
69241W        W34402  24.272  31.485   1.763
69242W        W34403   4.705  23.386   5.068
69243W        W34404   8.989   2.492   3.788
69244W        W34405  20.125  44.928  13.838
69245W        W34406   4.650   9.567  13.905
69246W        W34407  27.171   0.274   2.156
69247W        W34408   1.530   1.952   4.537
69248W        W34409  36.761  16.040  13.760
69249W        W34410  43.383  30.634   2.654
69250W        W34411  22.600   7.218   4.737
69251W        W34412  11.270   6.856   3.203
69252W        W34413  15.097   1.748   4.233
69253W        W34414   3.816  23.040  13.210
69254W        W34415  17.447   3.897  11.326
69255W        W34416   7.568  25.751   9.790
69256W        W34417  41.081  16.699  13.029
69257W        W34418  39.075  14.829   1.339
69258W        W34419  18.537  21.657  14.128
69259W        W34420   9.099  17.708   4.575
69260W        W34421  35.951  42.340  12.473
69261W        W34422  36.074  10.406  11.310
69262W        W34423  20.670  32.826  11.730
69263W        W34424  28.693  29.292  12.575
69264W        W34425  41.278  31.588   4.696
69265W        W34426  32.430  30.049   3.824
69266W        W34427  34.490  23.993   3.284
69267W        W34428  10.322   7.756  13.012
69268W        W34429  18.543  35.607  11.834
69269W        W34430  29.466  17.733   1.248
69270W        W34431  28.043   0.359   4.917
69271W        W34432  17.234   2.343  10.612
69272W        W34433  44.443   9.653  14.959
69273W        W34434   1.202  25.115  14.954
69274W        W34435  35.281  25.962   4.211
69275W        W34436  40.393  31.499  14.081
69276W        W34437  30.956  12.819  10.568
69277W        W34438  13.853  35.520   2.368
69278W        W34439   2.554  25.643   1.461
69279W        W34440   9.078  40.805   0.413
69280W        W34441  28.146  21.921  13.476
69281W        W34442  17.195   7.936   4.532
69282W        W34443   2.535  36.013   4.702
69283W        W34444  25.024   7.937   0.832
69284W        W34445  23.088  32.514  11.895
69285W        W34446  33.591   7.178  12.919
69286W        W34447  12.851  11.609   1.064
69287W        W34448   2.338   4.687   0.536
69288W        W34449  30.655   5.836  10.848
69289W        W34450  33.438  41.794  11.968
69290W        W34451  40.885  32.553  13.572
69291W        W34452  15.429  27.022   2.767
69292W        W34453   0.167   1.989   3.436
69293W        W34454  40.516  24.173   4.604
69294W        W34455  15.398   7.145   3.207
69295W        W34456  42.949  16.571   0.587
69296W        W34457  32.541  17.773  11.991
69297W        W34458  36.375  38.016  11.526
69298W        W34459  31.583  13.147  12.739
69299W        W34460  21.486  12.049  14.417
69300W        W34461  11.809   2.761  10.687
69301W        W34462  17.478   4.566  14.536
69302W        W34463  19.571  29.078  13.599
69303W        W34464   1.304  42.504   4.643
69304W        W34465  29.462  41.782  11.053
69305W        W34466  31.654  42.183   0.008
69306W        W34467  16.692  28.558  12.439
69307W        W34468  38.090  14.937   4.229
69308W        W34469  40.405  14.577  12.850
69309W        W34470  13.390   2.227  11.180
69310W        W34471  20.448  18.320  13.175
69311W        W34472  29.993   1.423   4.347
69312W        W34473  32.338  15.673   1.261
69313W        W34474   4.602  12.246  10.846
69314W        W34475   1.428   0.304   2.240
69315W        W34476  23.365  14.223   3.176
69316W        W34477   8.999  30.845   0.899
69317W        W34478  17.205   5.395   2.741
69318W        W34479  16.980  15.811  14.373
69319W        W34480  22.443  11.347   3.465
69320W        W34481  28.425  35.476   1.987
69321W        W34482  44.635  39.818  13.024
69322W        W34483   2.223  11.939   4.028
69323W        W34484  15.084  19.830  14.329
69324W        W34485  31.084  26.736  11.971
69325W        W34486  32.732  19.184  14.986
69326W        W34487  21.979   7.965  12.019
69327W        W34488  13.195  42.368  11.187
69328W        W34489   6.748  30.875   1.832
69329W        W34490  10.662  29.618  13.130
69330W        W34491  31.610   4.976  10.291
69331W        W34492  39.954   9.164  14.048
69332W        W34493  17.585  27.961   2.440
69333W        W34494  21.526  30.024  10.752
69334W        W34495  11.669  13.673  10.384
69335W        W34496  32.050  19.777  10.361
69336W        W34497  41.044   7.638   1.071
69337W        W34498  30.621   5.876   0.910
69338W        W34499  21.926   1.685   2.211
69339W        W34500  19.317  39.158   0.947
69340W        W34501  18.673   6.386  14.211
69341W        W34502  44.529  25.948  13.938
69342W        W34503  27.041  43.039  14.489
69343W        W34504   9.826  31.200   2.169
69344W        W34505  15.068   5.386  14.852
69345W        W34506  43.722  29.193   2.900
69346W        W34507   7.974  37.882   2.317
69347W        W34508  29.412   6.436  11.568
69348W        W34509  38.987  41.808  10.323
69349W        W34510  37.021   5.716  12.384
69350W        W34511  41.286   5.929   2.998
69351W        W34512   0.509  11.063   2.488
69352W        W34513  12.454   2.353   0.233
69353W        W34514  32.436  15.682  14.741
69354W        W34515  31.936   5.662   1.753
69355W        W34516  37.932  35.165  12.218
69356W        W34517  14.782   4.726   3.186
69357W        W34518  42.504  24.004  13.862
69358W        W34519  13.796  15.692   2.827
69359W        W34520  33.191  39.833   0.266
69360W        W34521  33.484  40.417  12.651
69361W        W34522  16.754  37.417   1.884
69362W        W34523  30.082  15.687  13.816
69363W        W34524   6.800  16.830   2.342
69364W        W34525  16.173  42.336   2.364
69365W        W34526  30.963   0.337  13.286
69366W        W34527  13.385  18.304  12.056
69367W        W34528  42.964  31.935  14.880
69368W        W34529  21.131  20.606  12.327
69369W        W34530   2.819  20.159  10.694
69370W        W34531   8.122  20.488   1.678
69371W        W34532  27.491  17.652   2.701
69372W        W34533  41.738  36.602   3.733
69373W        W34534  40.353  34.985   4.967
69374W        W34535  19.329  32.770   1.836
69375W        W34536  40.683   6.402   2.571
69376W        W34537  42.508  10.182   2.210
69377W        W34538  16.162  24.760   3.652
69378W        W34539  24.830   9.185  11.968
69379W        W34540  35.938   5.935  13.997
69380W        W34541   1.842  11.498   1.459
69381W        W34542  26.657  26.975   2.182
69382W        W34543  40.433  37.404   4.134
69383W        W34544  40.568  33.992  10.628
69384W        W34545  37.657  42.010   3.711
69385W        W34546   0.999  28.107   0.355
69386W        W34547  16.207  42.589  14.510
69387W        W34548  36.222  14.131  12.377
69388W        W34549  18.230  33.232   4.130
69389W        W34550   2.964   5.244   4.592
69390W        W34551  32.553  31.532   1.339
69391W        W34552   7.481  11.636  10.410
69392W        W34553  38.263  25.491   4.676
69393W        W34554  13.670  41.352   4.382
69394W        W34555  34.949  40.169   9.684
69395W        W34556   0.349  32.584   0.309
69396W        W34557  40.556  32.698   1.438
69397W        W34558  18.272  25.446   4.266
69398W        W34559  39.082  37.270   4.641
69399W        W34560  13.678  40.390   0.930
69400W        W34561  25.988  37.957   1.345
69401W        W34562  15.136   0.850  10.776
69402W        W34563  34.470   8.319   2.247
69403W        W34564  40.873   1.004  12.968
69404W        W34565  24.797  30.905  11.012
69405W        W34566  17.495  15.654  11.713
69406W        W34567   8.371  37.603   2.901
69407W        W34568  26.079   3.314   4.163
69408W        W34569  11.192  21.496  11.055
69409W        W34570  16.129  21.259   1.760
69410W        W34571   3.522   5.944   1.387
69411W        W34572  21.740   2.886  10.768
69412W        W34573  15.603   8.379   4.493
69413W        W34574  23.248  29.647   0.197
69414W        W34575  39.640  31.984  13.739
69415W        W34576  16.325  42.477  12.473
69416W        W34577   7.606  34.130   0.305
69417W        W34578  31.245  35.425   3.285
69418W        W34579  14.242  36.181  11.630
69419W        W34580  39.459   0.835   0.968
69420W        W34581   0.471  33.117  13.098
69421W        W34582  22.653  36.251  12.684
69422W        W34583   8.812  44.715   4.187
69423W        W34584  25.030  38.825   1.677
69424W        W34585  40.268   8.928   3.823
69425W        W34586  26.560   0.759  11.534
69426W        W34587  44.996  44.265   0.474
69427W        W34588  35.658  17.559  12.834
69428W        W34589  34.410  44.070   1.748
69429W        W34590   0.003  12.290  10.214
69430W        W34591  24.583   1.760  14.008
69431W        W34592  19.056   9.059  14.441
69432W        W34593  15.073  22.740  12.662
69433W        W34594  12.212  22.570   4.377
69434W        W34595   2.831   9.276   4.645
69435W        W34596   4.844  19.805  11.691
69436W        W34597   9.357  18.139  12.010
69437W        W34598   3.466  41.287  10.304
69438W        W34599  34.008  12.801   3.196
69439W        W34600  23.540   0.922   4.439
69440W        W34601  19.636  35.466   1.833
69441W        W34602  39.598   8.366  14.881
69442W        W34603  23.146   4.635   3.744
69443W        W34604  34.169  23.536  11.096
69444W        W34605   9.925  42.606  12.930
69445W        W34606  43.286  31.412   3.373
69446W        W34607   8.294   9.911   1.265
69447W        W34608  26.465  34.694   0.449
69448W        W34609  24.877  19.749  12.478
69449W        W34610  34.629  44.251  12.940
69450W        W34611   9.774  29.556  12.555
69451W        W34612  19.284  22.646  13.984
69452W        W34613  16.860  13.163  13.007
69453W        W34614  41.890  19.453  11.289
69454W        W34615  13.378  40.843  13.515
69455W        W34616  21.824   7.426  14.334
69456W        W34617  14.759  28.202   1.299
69457W        W34618  20.938  15.846  14.773
69458W        W34619   3.739  32.652  14.577
69459W        W34620  38.693  18.619  11.138
69460W        W34621   9.783   7.776  12.928
69461W        W34622  44.146  30.439   1.281
69462W        W34623  38.350   4.975   4.665
69463W        W34624  35.615   0.871  13.110
69464W        W34625  22.376   1.410  11.465
69465W        W34626  43.353  35.713  13.096
69466W        W34627   7.473  35.291  12.948
69467W        W34628   9.699   7.364   1.735
69468W        W34629  30.098  37.371  14.926
69469W        W34630  25.104  36.503   3.130
69470W        W34631  30.502  37.129   2.731
69471W        W34632  30.082  13.829   4.138
69472W        W34633  22.297  13.936  10.002
69473W        W34634  17.271  35.087  12.030
69474W        W34635  33.598  34.119  11.118
69475W        W34636  36.833  23.676   0.423
69476W        W34637  29.571  37.347   2.260
69477W        W34638  38.080  20.300  13.005
69478W        W34639  40.003  14.123  14.052
69479W        W34640  15.945  17.174  13.633
69480W        W34641  37.059  36.133  10.519
69481W        W34642  27.867   1.282  10.591
69482W        W34643  19.327  29.590   0.434
69483W        W34644  36.973  37.051   2.770
69484W        W34645  37.714  10.127   3.883
69485W        W34646  40.745  27.107   4.787
69486W        W34647  24.436   9.394  14.380
69487W        W34648  18.232  16.512  12.823
69488W        W34649  19.560   2.491  14.394
69489W        W34650  14.541   7.933  11.398
69490W        W34651  14.092  27.529  12.052
69491W        W34652  41.751  40.144   4.097
69492W        W34653  41.519  30.867  12.443
69493W        W34654   9.096  43.491   5.104
69494W        W34655   5.243  39.829  13.857
69495W        W34656  36.376  29.105  10.277
69496W        W34657  15.774   2.242  14.543
69497W        W34658  18.666  41.457   4.375
69498W        W34659   4.930   3.253   2.282
69499W        W34660  40.981  42.098   1.407
69500W        W34661  20.656  24.480  11.723
69501W        W34662  35.501  13.396  13.573
69502W        W34663  12.798  28.156   3.190
69503W        W34664  25.269  17.396   3.221
69504W        W34665  44.447  22.318   4.078
69505W        W34666  20.782  13.715  12.807
69506W        W34667  44.978   8.775   0.894
69507W        W34668  38.369  35.939   0.908
69508W        W34669  38.530  20.034  13.051
69509W        W34670   4.267   8.923  13.807
69510W        W34671  33.788  37.658   2.662
69511W        W34672  36.859   3.011  10.693
69512W        W34673   2.890  13.197  12.465
69513W        W34674   6.457  21.795  12.190
69514W        W34675  21.578  18.760   1.214
69515W        W34676   4.729  42.289   0.501
69516W        W34677  29.090  43.542   3.629
69517W        W34678  37.899  17.512  11.890
69518W        W34679  20.084  13.754  13.380
69519W        W34680  15.938  42.669   0.260
69520W        W34681  12.104  20.556   3.173
69521W        W34682  22.999  10.922   2.715
69522W        W34683  40.606  26.562   2.442
69523W        W34684  31.996   9.433   2.523
69524W        W34685  23.581  41.826   1.068
69525W        W34686   4.109  14.475  10.457
69526W        W34687  23.304  27.499   4.551
69527W        W34688   0.779  41.183   1.023
69528W        W34689  43.780  26.595   0.847
69529W        W34690  42.882  22.906  14.287
69530W        W34691  14.202  39.834  14.777
69531W        W34692  18.202  44.002  10.410
69532W        W34693  15.701  16.199   2.682
69533W        W34694  35.305  11.615   3.869
69534W        W34695  23.006   3.581  14.550
69535W        W34696  14.250  34.007  13.393
69536W        W34697  15.549   1.993  11.713
69537W        W34698   5.195   0.969   0.562
69538W        W34699   2.242  17.681  12.546
69539W        W34700  44.024  13.333   4.698
69540W        W34701  21.239  26.685  13.375
69541W        W34702   1.990   1.517   0.267
69542W        W34703  16.678   0.535   4.114
69543W        W34704  34.900  40.852  13.823
69544W        W34705  43.655  29.373  11.842
69545W        W34706  37.408   8.613  13.820
69546W        W34707  26.609  40.566   4.515
69547W        W34708  42.572  16.549  10.459
69548W        W34709  33.891  19.088   3.691
69549W        W34710  13.552  41.369  14.102
69550W        W34711  12.664  17.757  13.059
69551W        W34712  20.027  42.136   3.740
69552W        W34713  20.630  31.531   4.160
69553W        W34714  24.253   2.406  13.966
69554W        W34715  16.428  21.549   4.479
69555W        W34716  19.213   5.926   3.670
69556W        W34717  37.425  30.794  14.833
69557W        W34718  11.481  26.805  11.592
69558W        W34719  36.106  37.361   2.690
69559W        W34720  21.669   4.122  13.416
69560W        W34721  32.510  33.565   0.962
69561W        W34722  40.689  40.349  13.184
69562W        W34723  32.599   1.295   0.418
69563W        W34724   7.282  34.066  13.944
69564W        W34725  40.821  31.617  14.342
69565W        W34726  41.579  36.172  13.234
69566W        W34727  18.038  27.625   0.789
69567W        W34728   8.398  14.900  12.902
69568W        W34729  31.583  23.409  13.281
69569W        W34730  11.145  44.790   1.760
69570W        W34731  24.464  36.900  10.582
69571W        W34732   8.191  20.812  14.949
69572W        W34733  33.008  40.865  12.164
69573W        W34734  34.128  36.193   2.903
69574W        W34735  14.696  12.741  13.530
69575W        W34736  43.180   4.673   2.773
69576W        W34737  16.918   0.964  13.248
69577W        W34738  13.034   5.895  14.725
69578W        W34739   2.685  26.450   5.638
69579W        W34740  28.278   2.280  14.427
69580W        W34741  17.342  22.664   4.037
69581W        W34742  35.260  28.002  12.365
69582W        W34743   6.389  41.530   0.007
69583W        W34744  41.777  22.312   2.119
69584W        W34745  26.098  34.980   3.208
69585W        W34746  14.661  18.162  13.927
69586W        W34747  26.549  33.236  11.085
69587W        W34748   0.377  36.975   0.284
69588W        W34749  44.144  27.188  13.296
69589W        W34750  39.814   9.679   0.257
69590W        W34751  27.655  28.182   1.519
69591W        W34752  37.585  17.037   1.280
69592W        W34753  33.519   9.647   2.680
69593W        W34754  37.601  30.217  14.476
69594W        W34755  18.045  29.512   0.100
69595W        W34756   8.925  27.984   2.182
69596W        W34757  38.911  22.166   0.361
69597W        W34758  36.015  12.236   0.743
69598W        W34759  14.795  20.545   3.238
69599W        W34760  21.560  24.298  14.778
69600W        W34761  31.702   5.762  11.377
69601W        W34762   1.790  10.770  10.174
69602W        W34763  24.029  39.467   0.397
69603W        W34764  11.346  37.453  10.584
69604W        W34765  35.495  15.265  10.761
69605W        W34766  17.792   0.880   1.454
69606W        W34767  17.444  13.745  11.722
69607W        W34768   1.343  43.987   0.090
69608W        W34769  32.068  13.818   3.685
69609W        W34770  40.600   8.420  14.730
69610W        W34771  18.053  26.008  11.598
69611W        W34772  15.085  27.909  12.913
69612W        W34773  21.770  31.513  11.588
69613W        W34774  32.641  42.824   3.192
69614W        W34775  38.547   8.393   0.040
69615W        W34776  15.625  14.024   3.681
69616W        W34777   0.726   4.451  11.166
69617W        W34778  20.517  23.965  11.774
69618W        W34779  12.735  23.224   0.162
69619W        W34780  36.685  34.840   4.384
69620W        W34781  31.936  32.482  13.900
69621W        W34782   3.926  41.883  13.402
69622W        W34783  31.578   1.797  14.540
69623W        W34784  36.360  34.450   0.179
69624W        W34785  40.332  33.083   1.704
69625W        W34786  25.656  33.577  12.175
69626W        W34787  21.777  28.183  14.230
69627W        W34788   4.809   3.459   0.227
69628W        W34789  11.842  18.050  13.796
69629W        W34790   7.744  24.486  11.505
69630W        W34791  34.545  31.742  13.548
69631W        W34792  41.792  16.106  10.618
69632W        W34793  36.222  20.147  12.882
69633W        W34794  34.433   3.376   2.897
69634W        W34795  26.369  13.174   2.253
69635W        W34796   9.341  38.989   0.709
69636W        W34797  11.831  13.286  10.678
69637W        W34798  13.625  32.015   0.352
69638W        W34799  31.496   7.903   3.687
69639W        W34800   0.780  27.133  13.620
69640W        W34801  34.490  13.219   1.142
69641W        W34802  25.635   6.176   2.885
69642W        W34803  22.131  34.673   1.179
69643W        W34804  29.943  43.426  12.245
69644W        W34805  22.744  11.113  13.435
69645W        W34806  14.624   3.228  12.581
69646W        W34807  30.007  39.019  10.125
69647W        W34808  26.210  33.108   2.744
69648W        W34809  37.916  27.151   1.183
69649W        W34810  23.132  37.950  13.981
69650W        W34811  17.845  27.170   0.712
69651W        W34812   4.212   9.454   0.757
69652W        W34813   4.464  29.917  11.494
69653W        W34814  39.467  31.224  12.101
69654W        W34815  15.596   5.160   0.799
69655W        W34816  42.830  22.019  13.961
69656W        W34817  41.882  11.718   0.343
69657W        W34818  22.247  43.465  13.723
69658W        W34819  32.965  44.732  13.937
69659W        W34820  22.622  27.931   0.385
69660W        W34821  43.805  14.617   4.198
69661W        W34822  13.804  26.377  13.436
69662W        W34823   4.673  37.504  14.592
69663W        W34824  25.752  12.249   2.824
69664W        W34825  23.730   0.779  14.443
69665W        W34826  17.655  40.416   3.665
69666W        W34827  17.995   2.849   1.741
69667W        W34828  42.918   6.603  13.348
69668W        W34829  41.746  33.160   0.801
69669W        W34830  44.501  22.177   1.357
69670W        W34831  17.300  35.348  10.700
69671W        W34832  35.980  27.692   4.255
69672W        W34833  36.373  37.898   1.852
69673W        W34834  21.290   0.898   9.821
69674W        W34835  20.500  30.169   0.215
69675W        W34836  30.350  23.379  12.007
69676W        W34837  18.866  24.160   0.524
69677W        W34838   6.120   6.112   1.759
69678W        W34839  33.501  30.660  13.733
69679W        W34840  44.902   1.174   1.128
69680W        W34841   9.770  36.056  13.604
69681W        W34842  18.698  42.258   1.788
69682W        W34843  20.826   1.406   0.215
69683W        W34844   3.487  28.854   2.180
69684W        W34845  10.461  15.576   4.141
69685W        W34846  12.532  24.594   0.900
69686W        W34847  44.858   4.500   0.407
69687W        W34848  33.210   2.032   0.382
69688W        W34849  35.981  26.698   4.964
69689W        W34850  40.348  35.971   0.883
69690W        W34851   9.967  42.391   2.738
69691W        W34852   4.187  25.069   4.908
69692W        W34853  24.677  16.218  14.244
69693W        W34854  41.776   9.868   2.408
69694W        W34855  14.081   4.136   2.164
69695W        W34856  10.683  12.390   3.574
69696W        W34857  33.605   8.966   0.054
69697W        W34858  33.897   6.062  12.128
69698W        W34859   5.015  20.658   0.394
69699W        W34860  26.487  42.882   4.792
69700W        W34861  16.364  12.249   0.916
69701W        W34862  17.625  13.086   4.548
69702W        W34863  21.293  28.951   1.190
69703W        W34864  16.031  27.537  10.372
69704W        W34865   3.262  33.332  12.451
69705W        W34866   5.355  38.501   1.231
69706W        W34867  33.157   9.909   0.933
69707W        W34868  36.293  25.473   0.374
69708W        W34869  22.021  27.411  11.140
69709W        W34870  43.996  19.684   4.522
69710W        W34871  26.786   7.268   3.870
69711W        W34872  27.949  44.480   1.178
69712W        W34873  14.721  34.410  11.624
69713W        W34874  35.547   2.450  12.433
69714W        W34875  24.971  20.075   2.182
69715W        W34876  31.738   3.950  12.869
69716W        W34877   4.281   4.697  11.437
69717W        W34878  19.728  43.723  11.867
69718W        W34879  40.826  36.840  11.287
69719W        W34880   7.614   6.202   5.268
69720W        W34881  39.001  12.219  12.557
69721W        W34882  36.437  25.156  13.618
69722W        W34883  19.938  12.310   3.811
69723W        W34884  24.687  38.399   1.386
69724W        W34885  40.995  22.544  11.711
69725W        W34886  43.030  25.608   5.037
69726W        W34887  35.337  34.422  14.698
69727W        W34888  16.160  30.028   4.159
69728W        W34889  11.635   0.300   3.228
69729W        W34890   6.784  15.216  12.556
69730W        W34891  19.885  34.060  12.443
69731W        W34892  42.042  23.945   3.694
69732W        W34893   2.705  40.596  10.804
69733W        W34894  41.803   2.252  11.641
69734W        W34895  12.715  38.563   0.561
69735W        W34896  18.956  13.696   2.625
69736W        W34897  27.176   8.500  14.349
69737W        W34898   9.886  23.591  12.401
69738W        W34899  35.445  14.437   3.807
69739W        W34900  29.922  38.295   1.421
69740W        W34901  42.654  31.851   4.600
69741W        W34902  36.662   3.648  10.738
69742W        W34903   7.889  20.997  10.288
69743W        W34904  30.459  21.794   1.680
69744W        W34905  25.897  37.289   3.969
69745W        W34906  37.360  12.101   1.915
69746W        W34907  14.620   0.210   4.974
69747W        W34908  11.304   5.382   1.392
69748W        W34909  34.515  37.092   3.859
69749W        W34910  41.811   5.619   4.871
69750W        W34911  32.068  23.772  12.850
69751W        W34912  14.791  28.565   0.392
69752W        W34913  39.712   4.435   2.813
69753W        W34914  36.897  23.668   3.087
69754W        W34915  19.768  25.917  10.798
69755W        W34916   6.275  23.303  13.618
69756W        W34917  22.153  19.791   4.565
69757W        W34918  17.234  11.654  10.697
69758W        W34919  12.656  33.533   2.733
69759W        W34920   0.426  10.791   3.349
69760W        W34921  34.250  44.723  13.616
69761W        W34922  38.943  26.595   5.146
69762W        W34923   3.490  29.095  10.664
69763W        W34924  20.014  12.133   0.925
69764W        W34925  34.385  11.430   1.695
69765W        W34926  26.707  34.308   3.285
69766W        W34927  28.410  43.850  14.045
69767W        W34928   7.740  12.409   2.298
69768W        W34929  13.682  24.622   2.615
69769W        W34930  22.147   3.675   3.319
69770W        W34931  23.713  11.134  14.526
69771W        W34932  38.657   7.822  12.178
69772W        W34933   7.757   1.471   3.351
69773W        W34934  17.096  20.288   4.107
69774W        W34935  15.467  43.379  13.983
69775W        W34936  32.858   6.639  11.504
69776W        W34937   4.313  40.872  10.753
69777W        W34938   6.028   2.423  12.793
69778W        W34939  32.435  22.056   2.223
69779W        W34940   2.959  26.016   2.334
69780W        W34941   0.283  22.953  13.407
69781W        W34942  11.391  37.494   4.646
69782W        W34943  28.868  42.327   4.489
69783W        W34944   5.475  39.448   2.377
69784W        W34945   7.195  26.446   2.888
69785W        W34946  41.899  29.219  14.468
69786W        W34947  16.028  20.728  11.081
69787W        W34948  18.789  38.328  13.969
69788W        W34949  30.788  15.768   2.772
69789W        W34950  22.685  36.971  14.793
69790W        W34951  27.997  33.124   2.365
69791W        W34952  26.364  21.474   4.971
69792W        W34953  36.412  43.576   0.911
69793W        W34954  33.907  39.166   0.791
69794W        W34955  18.187  26.479   1.286
69795W        W34956  24.563  29.162   3.609
69796W        W34957   1.825   1.494  11.121
69797W        W34958  13.963  15.247  13.001
69798W        W34959  26.660  28.951   4.328
69799W        W34960   6.190  24.825  10.266
69800W        W34961  15.715  12.101   3.213
69801W        W34962  22.557  31.997  10.831
69802W        W34963   2.425   9.680   4.514
69803W        W34964   4.981  18.792  11.607
69804W        W34965  36.512  30.148  13.494
69805W        W34966  29.520  35.513  14.189
69806W        W34967   2.834  36.013   3.270
69807W        W34968  21.101  24.897   2.936
69808W        W34969  27.609  33.954  11.199
69809W        W34970  24.992  13.685  13.855
69810W        W34971   6.920  15.171  13.888
69811W        W34972  15.333  35.498  13.415
69812W        W34973  34.519  12.719   3.076
69813W        W34974   1.457  30.646  10.567
69814W        W34975  23.700  16.143  10.399
69815W        W34976  23.689  18.616  14.084
69816W        W34977  35.304  40.572   3.789
69817W        W34978   6.763  34.012  14.156
69818W        W34979  14.222   6.938  12.176
69819W        W34980  32.391  38.196  10.827
69820W        W34981  32.027  41.953   2.580
69821W        W34982  26.175  13.194  11.944
69822W        W34983  41.515  30.989  10.790
69823W        W34984  37.999  34.020  12.871
69824W        W34985  32.280  40.862   3.181
69825W        W34986  42.594  33.026  11.381
69826W        W34987  43.992  24.655   2.317
69827W        W34988  20.530   5.847  10.655
69828W        W34989  39.427  10.712  10.608
69829W        W34990  13.287  33.093  13.582
69830W        W34991  35.848   9.094  12.542
69831W        W34992  19.752  44.182   2.903
69832W        W34993  11.634  36.250   1.833
69833W        W34994  17.250  15.155   2.316
69834W        W34995  17.320  27.951  12.574
69835W        W34996  28.537  35.820   3.418
69836W        W34997  13.621  32.343   0.766
69837W        W34998  12.725   6.912   4.502
69838W        W34999  37.934  32.698  10.670
69839W        W35000  29.949  19.080   0.730
69840W        W35001  20.388  43.954  14.068
69841W        W35002  20.885   0.596   2.969
69842W        W35003   0.202  12.052  10.895
69843W        W35004  40.899  38.071   4.589
69844W        W35005   0.454  31.052   0.201
69845W        W35006  38.408  21.361   0.039
69846W        W35007  21.288  38.956  12.627
69847W        W35008  14.083  15.746  12.983
69848W        W35009  12.891   2.343   0.515
69849W        W35010   6.502  20.127   4.017
69850W        W35011  22.429  17.114  10.614
69851W        W35012   5.405  32.952   1.282
69852W        W35013  28.966  30.043   3.859
69853W        W35014  26.350  35.414   5.436
69854W        W35015  36.465  20.133  11.107
69855W        W35016  43.312  22.728   4.215
69856W        W35017  28.586  29.940  13.368
69857W        W35018  41.131  21.179  11.595
69858W        W35019  15.880  11.267  10.711
69859W        W35020  37.349  32.916   3.958
69860W        W35021  26.164  38.817  12.925
69861W        W35022   6.298  10.119   0.316
69862W        W35023   9.650  42.052   2.464
69863W        W35024  22.706  37.640  13.086
69864W        W35025  25.419  23.259   1.405
69865W        W35026   5.509  24.596  11.898
69866W        W35027  22.548  34.917  10.934
69867W        W35028   0.514  23.743   3.249
69868W        W35029  35.429  14.555  10.735
69869W        W35030  34.163  41.390   4.170
69870W        W35031  26.994  36.914  14.239
69871W        W35032  42.044  41.955   1.242
69872W        W35033  39.914  20.217   2.422
69873W        W35034  41.951   8.728   4.986
69874W        W35035  30.126  17.817   1.803
69875W        W35036   3.396  16.935   4.877
69876W        W35037  29.434   0.302   4.554
69877W        W35038  27.218  15.096  11.124
69878W        W35039  24.600  26.730   1.760
69879W        W35040   3.397  22.980  12.916
69880W        W35041  17.007   4.946  10.237
69881W        W35042  19.108  20.263   1.595
69882W        W35043  31.075   5.844   4.699
69883W        W35044  27.127  24.845   4.541
69884W        W35045  23.759   7.355   4.706
69885W        W35046  42.952   7.771   0.949
69886W        W35047  22.047  34.596   4.181
69887W        W35048  26.987  19.713   3.759
69888W        W35049  39.730  11.766  13.605
69889W        W35050  22.084   9.248   2.131
69890W        W35051  40.879  37.328   3.702
69891W        W35052  28.884   1.215   0.912
69892W        W35053  31.211   4.673   0.742
69893W        W35054  38.376  30.850  14.829
69894W        W35055  34.583  24.716   3.698
69895W        W35056  37.959  43.023  14.645
69896W        W35057  26.007   5.687  10.537
69897W        W35058   4.955   3.032  13.570
69898W        W35059  33.659  44.109  14.308
69899W        W35060  19.738  29.124   1.013
69900W        W35061   7.283  43.402   2.341
69901W        W35062  38.876  19.348   3.196
69902W        W35063  17.012   3.375   1.960
69903W        W35064   2.692  22.904  13.563
69904W        W35065  41.022   2.999  13.001
69905W        W35066  28.059  31.330  12.413
69906W        W35067  24.921  23.658  14.489
69907W        W35068  23.465  18.583  13.123
69908W        W35069  12.392  26.264  11.139
69909W        W35070   8.985  36.113   4.565
69910W        W35071  28.187   0.478  13.948
69911W        W35072  29.932   0.778  13.447
69912W        W35073  39.375  36.557   4.051
69913W        W35074  41.890  43.506  13.970
69914W        W35075   7.802  29.765   3.464
69915W        W35076   1.209  34.528  13.903
69916W        W35077  29.453  25.517   1.839
69917W        W35078  33.621   6.859  12.527
69918W        W35079  18.612  41.502  13.410
69919W        W35080  22.217  37.399  14.962
69920W        W35081  19.147  37.365  12.040
69921W        W35082  22.295   2.443  14.219
69922W        W35083   3.213  12.797  13.573
69923W        W35084  11.595  11.746  14.235
69924W        W35085  19.863   0.352   4.630
69925W        W35086   5.851  24.622   3.721
69926W        W35087   5.552  18.554   0.320
69927W        W35088  25.800  23.625   1.253
69928W        W35089  29.948   3.277  10.823
69929W        W35090  23.669  30.148   1.004
69930W        W35091  33.862   5.866   2.625
69931W        W35092  43.795  14.864   3.691
69932W        W35093   3.310  33.648  12.006
69933W        W35094  28.919   9.438  10.483
69934W        W35095  10.694  15.266   1.397
69935W        W35096  10.565  43.521   1.844
69936W        W35097  38.120  20.994  11.165
69937W        W35098  30.050  32.674  14.922
69938W        W35099  10.143  18.644   1.187
69939W        W35100   4.349   5.505   0.112
69940W        W35101  13.905  30.400  11.559
69941W        W35102  21.834  44.936  12.122
69942W        W35103   9.282   8.255  11.731
69943W        W35104  24.974  15.651  14.841
69944W        W35105   2.013   7.236  11.647
69945W        W35106  40.446  32.347  13.752
69946W        W35107  28.861  23.710   1.733
69947W        W35108  33.809  14.609  14.039
69948W        W35109   4.647  26.595   2.236
69949W        W35110  17.044  30.693   9.806
69950W        W35111  26.313  14.823  11.180
69951W        W35112  18.735  22.239   3.719
69952W        W35113  29.394  42.054  13.443
69953W        W35114  20.135   7.182   1.026
69954W        W35115  36.965   6.762  13.877
69955W        W35116   4.480  40.266   1.687
69956W        W35117  44.506  31.085  11.155
69957W        W35118  35.634   2.920   0.434
69958W        W35119   9.963  32.103   2.164
69959W        W35120  41.565   8.626  11.186
69960W        W35121   9.294  21.124  10.053
69961W        W35122  29.034  13.612  12.129
69962W        W35123  34.320  17.956  13.862
69963W        W35124  20.552   7.245  12.814
69964W        W35125   7.730  30.510   4.555
69965W        W35126  30.584  38.835  14.245
69966W        W35127  40.067   5.679   1.705
69967W        W35128  34.568  35.846   4.513
69968W        W35129   9.867  19.783  11.531
69969W        W35130  39.136   9.519  14.643
69970W        W35131  35.126  19.568   1.197
69971W        W35132  44.980  20.482   3.176
69972W        W35133  30.158  41.434   4.612
69973W        W35134  35.358  11.868   5.089
69974W        W35135  34.758  16.641   2.873
69975W        W35136   5.271  22.268   1.011
69976W        W35137  42.708  43.978  13.479
69977W        W35138   4.324  33.394  10.997
69978W        W35139  20.553  36.492  10.742
69979W        W35140  40.109   0.495  12.805
69980W        W35141  28.084  36.510   4.498
69981W        W35142  28.032  30.526   1.709
69982W        W35143  19.868  39.606  14.309
69983W        W35144  39.301  17.353  12.529
69984W        W35145  37.311  15.797  10.733
69985W        W35146  32.612   9.883   0.835
69986W        W35147   4.222  37.231   3.753
69987W        W35148  26.606  42.763   2.832
69988W        W35149  15.730   5.158   0.289
69989W        W35150   4.044   2.813   2.299
69990W        W35151   1.291   2.387  11.375
69991W        W35152   4.783  30.099  13.732
69992W        W35153  33.581  35.599   4.782
69993W        W35154  24.960  15.421   5.053
69994W        W35155  17.558  43.013   2.701
69995W        W35156   1.860  33.924   4.006
69996W        W35157  23.301   3.793  14.920
69997W        W35158   6.218  16.151  11.078
69998W        W35159  41.650  35.020  13.897
69999W        W35160  24.639   2.522  11.104
70000W        W35161   7.361  30.997  10.669
70001W        W35162  42.897  38.557   9.453
70002W        W35163  14.174  12.853  14.406
70003W        W35164   4.704  16.769   3.659
70004W        W35165  31.712  13.116   0.958
70005W        W35166  12.562   4.634   1.406
70006W        W35167   3.794  27.637   3.188
70007W        W35168   0.289  23.652   0.680
70008W        W35169  15.865  15.240  12.134
70009W        W35170   8.087   0.740   0.493
70010W        W35171   0.670   0.413  11.095
70011W        W35172  31.619  35.119   4.002
70012W        W35173  41.406  36.467  13.972
70013W        W35174   2.951  20.180  13.071
70014W        W35175  36.189  39.389   0.918
70015W        W35176  42.125  23.301  11.979
70016W        W35177   5.697  19.101  10.690
70017W        W35178  30.207  19.099  13.370
70018W        W35179   9.297  17.247   4.051
70019W        W35180  22.073  13.088   2.209
70020W        W35181  43.355  40.973   3.151
70021W        W35182  25.530  43.377   0.460
70022W        W35183  40.776   8.716   0.109
70023W        W35184  40.315  16.285   3.228
70024W        W35185  19.038  22.144  10.932
70025W        W35186  17.396   7.594   3.280
70026W        W35187  28.068  17.728  14.224
70027W        W35188  21.486  31.415  13.129
70028W        W35189  43.963   4.237   4.868
70029W        W35190  14.809  15.295  12.798
70030W        W35191  36.455   2.952  12.026
70031W        W35192  28.770  41.014   4.406
70032W        W35193   4.176  37.535   3.299
70033W        W35194  28.506  41.985  12.181
70034W        W35195  32.470   4.402  14.167
70035W        W35196   2.294  32.032   4.036
70036W        W35197   6.939  34.047   4.077
70037W        W35198   6.252  28.669  14.527
70038W        W35199  27.472  29.957   0.924
70039W        W35200  31.085  42.928   3.164
70040W        W35201  14.398  25.556   4.822
70041W        W35202  14.804  16.952   4.455
70042W        W35203  30.051  18.724  14.660
70043W        W35204  33.369  13.465  12.527
70044W        W35205   7.204  10.850  13.066
70045W        W35206  31.095  30.011  11.635
70046W        W35207  39.446   5.600  14.271
70047W        W35208  43.467  11.830   3.556
70048W        W35209  26.814  15.064   4.607
70049W        W35210  44.005  42.048   3.279
70050W        W35211  43.548  31.082   0.371
70051W        W35212  20.106  22.541  12.753
70052W        W35213  27.403  20.630  10.576
70053W        W35214  25.942  26.772   2.350
70054W        W35215  14.581  31.514  14.326
70055W        W35216  36.065  16.079   0.381
70056W        W35217   4.696  12.760   3.645
70057W        W35218  13.185   0.722  10.718
70058W        W35219  15.208  28.411   1.453
70059W        W35220  36.428  33.721  10.181
70060W        W35221  30.601   0.396  11.070
70061W        W35222  25.435  23.215   5.035
70062W        W35223  22.624  34.547   1.238
70063W        W35224  36.991  36.360  13.413
70064W        W35225   4.440   5.738  10.673
70065W        W35226  43.810  35.166   0.233
70066W        W35227  41.777   3.915  13.130
70067W        W35228  23.223  34.319  10.670
70068W        W35229  39.386   9.845  13.262
70069W        W35230  17.835  16.537   1.035
70070W        W35231  41.453  34.107   1.265
70071W        W35232  34.818  37.980  11.135
70072W        W35233  27.724  27.666  11.548
70073W        W35234  11.584  33.070  11.082
70074W        W35235   2.598  38.191   0.717
70075W        W35236   9.207  15.585   4.611
70076W        W35237  36.106  40.039   2.884
70077W        W35238  36.801  18.287   0.168
70078W        W35239  26.382  27.602   4.055
70079W        W35240  32.841  37.806  12.424
70080W        W35241  12.872   1.939   2.756
70081W        W35242   1.837  26.088  13.063
70082W        W35243  29.345  42.273  11.180
70083W        W35244  31.134  16.409   4.373
70084W        W35245  28.000   9.338  14.462
70085W        W35246   4.884   2.237  12.111
70086W        W35247  30.015  20.003  10.173
70087W        W35248  39.401  18.180  11.284
70088W        W35249  24.974  19.269   4.553
70089W        W35250  24.750  17.753  12.059
70090W        W35251  39.389  27.599  11.607
70091W        W35252  30.216  11.530   1.850
70092W        W35253  31.987  37.968   2.752
70093W        W35254  11.255  30.830  12.780
70094W        W35255  20.672  25.756  12.773
70095W        W35256  29.487  27.124  12.357
70096W        W35257  29.938  21.197   1.268
70097W        W35258  17.499  18.014   3.261
70098W        W35259  14.919  23.647  10.741
70099W        W35260  39.748   6.263  10.619
70100W        W35261  10.346  21.168   4.203
70101W        W35262  37.845  41.311  10.400
70102W        W35263  42.544  24.986  14.894
70103W        W35264  20.783  39.596  12.571
70104W        W35265  34.581  30.015  12.555
70105W        W35266   7.779  38.134  12.955
70106W        W35267  14.236  32.505  13.062
70107W        W35268  10.753  11.676   1.831
70108W        W35269   6.103  23.242  12.794
70109W        W35270  29.508  12.515  13.060
70110W        W35271  20.430  16.349   1.570
70111W        W35272  31.668  43.133  11.537
70112W        W35273   5.972  31.976   4.190
70113W        W35274  15.407  29.568  12.180
70114W        W35275  31.612  43.814  13.503
70115W        W35276  20.476  23.529  12.880
70116W        W35277  34.958   9.177   4.422
70117W        W35278  43.037  16.725   1.933
70118W        W35279  31.162   0.853   2.316
70119W        W35280   5.297  29.239  14.588
70120W        W35281  19.340  27.668   2.891
70121W        W35282   7.363   3.776   3.608
70122W        W35283  39.856  29.557  11.578
70123W        W35284  15.315   9.417  11.502
70124W        W35285  39.572  34.843  12.950
70125W        W35286  39.416  34.094   1.252
70126W        W35287   7.207  43.974   1.853
70127W        W35288  42.533  25.959  12.077
70128W        W35289  13.909  29.996  13.920
70129W        W35290  35.855   2.254   4.115
70130W        W35291  19.455  18.172   1.693
70131W        W35292   2.794  14.717   1.756
70132W        W35293   5.150  16.651   3.406
70133W        W35294   3.431  16.355   5.300
70134W        W35295  39.096  31.858   0.454
70135W        W35296   2.602  21.153   2.563
70136W        W35297  21.935  31.655  12.990
70137W        W35298   3.432  10.057   0.967
70138W        W35299  14.532  40.691   5.676
70139W        W35300  34.058  31.099  10.764
70140W        W35301   2.829  11.621  12.054
70141W        W35302  13.246  17.072  12.500
70142W        W35303  24.842   6.454  14.536
70143W        W35304  14.320  33.529   3.598
70144W        W35305   7.901  29.382   2.678
70145W        W35306  24.001  34.529   3.190
70146W        W35307   4.006   7.660  14.560
70147W        W35308  14.937  43.871   0.541
70148W        W35309  34.049  33.004  13.415
70149W        W35310  31.573  31.269  12.509
70150W        W35311  32.157  10.114  12.511
70151W        W35312  27.932  21.402  12.481
70152W        W35313  39.872  41.611  14.779
70153W        W35314  22.154  33.629   2.658
70154W        W35315  40.250  41.541  12.003
70155W        W35316  17.706  29.708  10.630
70156W        W35317  37.409  44.345   1.711
70157W        W35318  37.017  10.298  11.082
70158W        W35319  16.081  21.763   3.530
70159W        W35320  27.541  15.718   2.704
70160W        W35321   6.970   6.744   2.728
70161W        W35322  14.573  39.831  14.409
70162W        W35323  30.714  10.798  10.343
70163W        W35324  17.835  43.415   1.281
70164W        W35325  40.801  35.398  11.207
70165W        W35326  11.234  42.386   4.424
70166W        W35327  37.874  34.916  13.092
70167W        W35328  30.570  28.667  11.083
70168W        W35329  44.275  27.746   3.184
70169W        W35330  18.757  12.903   0.000
70170W        W35331   8.618  17.175   2.756
70171W        W35332  24.956  17.237  13.891
70172W        W35333  32.104   2.837   1.704
70173W        W35334  27.980  44.596  14.155
70174W        W35335  12.167  23.011   0.310
70175W        W35336  30.381  33.069  10.587
70176W        W35337  33.260  15.534   1.802
70177W        W35338   7.723   5.381  13.500
70178W        W35339  18.185  36.083   2.722
70179W        W35340  40.974  37.971  14.449
70180W        W35341   3.063  42.768   1.444
70181W        W35342  14.060  11.255   3.232
70182W        W35343  22.076  15.263   4.170
70183W        W35344  44.844  44.528   3.172
70184W        W35345  36.925  43.494   0.959
70185W        W35346  22.567  36.405  10.686
70186W        W35347  13.240   3.625   0.853
70187W        W35348  42.989  24.681  14.876
70188W        W35349   8.659  39.286  11.970
70189W        W35350   4.043   3.782  11.413
70190W        W35351  11.280   5.158  13.885
70191W        W35352   2.395   0.350   2.729
70192W        W35353   0.602  43.097   3.856
70193W        W35354   4.331  36.063  13.317
70194W        W35355  42.874   1.782   0.718
70195W        W35356  15.682  18.947   1.454
70196W        W35357   5.755   8.694  12.542
70197W        W35358  42.699  41.587  11.447
70198W        W35359   3.797   6.014   1.836
70199W        W35360   8.949  20.567  11.516
70200W        W35361  18.148  24.218   3.421
70201W        W35362  42.919  42.059  13.921
70202W        W35363  43.446  35.409  13.510
70203W        W35364  12.866  38.008  12.565
70204W        W35365  35.341  23.939   2.791
70205W        W35366  30.835  37.579  13.871
70206W        W35367  30.062  37.394   2.970
70207W        W35368   5.771   1.855   1.144
70208W        W35369  14.964   7.303  14.689
70209W        W35370   1.878  25.735   3.111
70210W        W35371  34.649  33.268  13.055
70211W        W35372  21.664  22.533   0.436
70212W        W35373  42.889  36.589   0.409
70213W        W35374  19.945  18.955   0.913
70214W        W35375  15.468   4.567   4.254
70215W        W35376  27.579  24.697   1.429
70216W        W35377  44.963  16.538   3.432
70217W        W35378  33.154  41.053   0.469
70218W        W35379   6.734  38.878  12.606
70219W        W35380  44.023  37.935  12.010
70220W        W35381  42.733  42.910  13.564
70221W        W35382  28.052   1.996  13.719
70222W        W35383   4.986   8.843  10.303
70223W        W35384   1.851   9.295   0.286
70224W        W35385  31.583  10.601  13.959
70225W        W35386  40.579  14.237   2.393
70226W        W35387  27.545   0.656   4.960
70227W        W35388  13.702  26.675   4.240
70228W        W35389  17.536  35.121  14.894
70229W        W35390  42.697  21.682  14.457
70230W        W35391  32.164  40.350  12.456
70231W        W35392  21.379   5.176   1.290
70232W        W35393  21.263   0.626   5.156
70233W        W35394  20.535  36.050   4.617
70234W        W35395  36.363  22.536  14.820
70235W        W35396   0.802  40.590   3.913
70236W        W35397  39.615  35.317   1.896
70237W        W35398  37.320  13.157   1.881
70238W        W35399   0.756   8.299  12.482
70239W        W35400   1.380  10.356  12.782
70240W        W35401   8.660  18.186   4.641
70241W        W35402  32.315  10.489  12.161
70242W        W35403  39.514  44.025  12.514
70243W        W35404  27.527   4.433   1.304
70244W        W35405   5.462  33.983   4.215
70245W        W35406  10.248  29.605   4.148
70246W        W35407  42.776  39.708  11.178
70247W        W35408  39.829  35.039  13.362
70248W        W35409  13.301   1.731   1.070
70249W        W35410  34.325  24.263   3.731
70250W        W35411   0.460  32.032   9.956
70251W        W35412  41.798   6.628  12.320
70252W        W35413  25.147  27.287   2.970
70253W        W35414  35.054  17.961   0.763
70254W        W35415  16.878  35.065  10.586
70255W        W35416   4.685  15.787   2.294
70256W        W35417  21.275   9.663   2.567
70257W        W35418  19.692   0.968  10.994
70258W        W35419  25.994  16.343   0.493
70259W        W35420   6.466   4.421   4.256
70260W        W35421   0.411  39.634   9.873
70261W        W35422  23.945  35.539   1.724
70262W        W35423   5.104  20.509   1.466
70263W        W35424   6.703  35.743  11.370
70264W        W35425  28.920  18.597  10.718
70265W        W35426   3.293  31.430  10.962
70266W        W35427  38.029  29.158  12.455
70267W        W35428  34.946  32.383   4.365
70268W        W35429  35.367   2.418   1.219
70269W        W35430  30.376   1.295   2.192
70270W        W35431   0.908  13.584   0.891
70271W        W35432  37.513  26.034   2.850
70272W        W35433  27.629  30.569   2.958
70273W        W35434  33.594  15.501  14.010
70274W        W35435  44.922   4.983   0.206
70275W        W35436  29.553  25.757  13.756
70276W        W35437  17.815  21.429   1.363
70277W        W35438   5.180  43.354  13.465
70278W        W35439  16.071   4.446   1.354
70279W        W35440  10.279  33.418   0.915
70280W        W35441  42.222  39.068   1.328
70281W        W35442   0.647  37.743  14.855
70282W        W35443  38.284  41.512   2.623
70283W        W35444  33.504  30.917   3.149
70284W        W35445   7.301  13.648  13.503
70285W        W35446   8.862  12.754   0.258
70286W        W35447  10.617  24.239   1.507
70287W        W35448   3.980  17.068  10.676
70288W        W35449  22.499  40.779  13.513
70289W        W35450  10.232  30.133  14.820
70290W        W35451  14.912  17.485   1.746
70291W        W35452  25.122  34.166  10.572
70292W        W35453  42.267  15.201  10.727
70293W        W35454   6.219  40.074  14.867
70294W        W35455  26.204   2.915  14.833
70295W        W35456   2.479  31.483   1.510
70296W        W35457  21.637  36.347   1.725
70297W        W35458  16.083  20.679   3.713
70298W        W35459  31.692  25.637   4.107
70299W        W35460  13.278   5.732   4.564
70300W        W35461  16.011   0.493   4.764
70301W        W35462  31.200  31.224   0.825
70302W        W35463   0.442  39.947  11.864
70303W        W35464  12.401  42.635  14.594
70304W        W35465   3.321  39.340  10.704
70305W        W35466  38.302  10.429  12.811
70306W        W35467  23.719  27.400   0.786
70307W        W35468  35.975   2.393  13.908
70308W        W35469  21.534  18.170  11.583
70309W        W35470  41.093  26.068  14.503
70310W        W35471  27.223  14.180   1.930
70311W        W35472  41.402  10.632  12.025
70312W        W35473  10.221  37.770  12.957
70313W        W35474   3.997   0.931   0.894
70314W        W35475  27.115  21.698  13.431
70315W        W35476  16.181  39.233   2.708
70316W        W35477  10.853  38.810  12.412
70317W        W35478  30.342  24.420   1.087
70318W        W35479  30.003  21.754   2.789
70319W        W35480  25.691   0.872  12.555
70320W        W35481  27.139   8.859  11.987
70321W        W35482  27.376  33.797  12.989
70322W        W35483   3.758   4.284  12.155
70323W        W35484  42.560   8.705   0.722
70324W        W35485  22.511  20.084   2.810
70325W        W35486  42.920  19.718  13.842
70326W        W35487  18.542  20.796  13.897
70327W        W35488   6.008  33.086  13.432
70328W        W35489   3.167   3.573   3.781
70329W        W35490   7.866  35.946   0.450
70330W        W35491  40.029  20.516   2.836
70331W        W35492  40.519  37.542  12.443
70332W        W35493  36.798  22.645   4.467
70333W        W35494  28.916  28.102  12.453
70334W        W35495  41.017  17.315   0.037
70335W        W35496  30.005   1.977   4.371
70336W        W35497  21.340   6.074  11.581
70337W        W35498   8.154  20.810   4.525
70338W        W35499  33.913   8.346  13.000
70339W        W35500  43.581  13.049   5.021
70340W        W35501   7.502   3.935  14.369
70341W        W35502  31.681  21.102  10.729
70342W        W35503  14.565   0.789  12.442
70343W        W35504  20.939  28.586   1.795
70344W        W35505  13.831  10.286  11.188
70345W        W35506  43.744  31.004  10.297
70346W        W35507  27.492  38.974   2.261
70347W        W35508   2.254  22.578   1.748
70348W        W35509  25.726  25.836  12.906
70349W        W35510  39.506  10.745  13.301
70350W        W35511  19.562  16.593  11.574
70351W        W35512  17.630  16.816  12.220
70352W        W35513   0.279  27.928  12.935
70353W        W35514   6.064  31.698   1.919
70354W        W35515  25.700  22.793   0.309
70355W        W35516  26.601  16.595   3.325
70356W        W35517  43.209   4.239  14.310
70357W        W35518  41.749  22.722   1.802
70358W        W35519  20.604  36.900  11.577
70359W        W35520  25.018  10.406  10.562
70360W        W35521  21.592  27.976   3.435
70361W        W35522  18.137  20.609   4.450
70362W        W35523  20.309   6.971  13.998
70363W        W35524  24.137   4.927  14.372
70364W        W35525  25.461  14.406  14.981
70365W        W35526  24.594  31.756   2.947
70366W        W35527  26.424  25.973   4.333
70367W        W35528  10.121   2.295  13.047
70368W        W35529   8.135  29.057  13.254
70369W        W35530  22.657  19.579  12.970
70370W        W35531   0.339  20.447   4.939
70371W        W35532  16.538   0.674   2.560
70372W        W35533  23.533  18.567   0.764
70373W        W35534  16.867  12.325  10.723
70374W        W35535  37.865   5.015   1.539
70375W        W35536  41.075  34.426   2.252
70376W        W35537   6.495  41.069  11.154
70377W        W35538   4.441  38.588   1.239
70378W        W35539  24.506  33.454  10.588
70379W        W35540  29.953   6.826  10.772
70380W        W35541  22.218   5.470  10.602
70381W        W35542  40.322  16.812   1.312
70382W        W35543  32.302  23.233   3.293
70383W        W35544  30.143   3.722  10.703
70384W        W35545  11.309  42.916   3.153
70385W        W35546   4.318   6.353   4.183
70386W        W35547  42.357  27.964   1.336
70387W        W35548   1.810  23.963  13.381
70388W        W35549  33.474  42.484  10.819
70389W        W35550  26.641  35.857   3.277
70390W        W35551  22.527   8.653   0.952
70391W        W35552  31.683  35.804  12.465
70392W        W35553  27.128  23.879  12.823
70393W        W35554  38.618  20.448   2.305
70394W        W35555  24.592  37.010  12.038
70395W        W35556  23.641  43.882  11.619
70396W        W35557  15.109   7.680  12.864
70397W        W35558   8.083  25.779   9.936
70398W        W35559   2.180  27.425  12.549
70399W        W35560  32.974  10.789   1.937
70400W        W35561  28.687  32.378  12.083
70401W        W35562   5.239  43.054   1.025
70402W        W35563  27.089  30.660   0.675
70403W        W35564  40.996  18.626   5.020
70404W        W35565  21.507  18.744   4.112
70405W        W35566  32.971  35.542   2.238
70406W        W35567  30.712  18.391   3.696
70407W        W35568  23.093  36.387  11.921
70408W        W35569   6.320   2.471   3.564
70409W        W35570  14.328  25.119   0.056
70410W        W35571  35.395  21.129  13.524
70411W        W35572  29.508  41.506  11.612
70412W        W35573   1.054  31.370  10.241
70413W        W35574  15.498  23.924  13.196
70414W        W35575   5.496  17.273   0.690
70415W        W35576  34.598  27.972   2.191
70416W        W35577  41.043  25.285  13.796
70417W        W35578  31.999   3.878  13.728
70418W        W35579  12.091  11.458   1.253
70419W        W35580  44.450  25.754   2.209
70420W        W35581  40.753  26.433  14.713
70421W        W35582   0.301  18.237   4.154
70422W        W35583  30.202   9.709   3.604
70423W        W35584  18.830  20.102   4.586
70424W        W35585  27.940   4.540  14.516
70425W        W35586  26.180   3.120  12.128
70426W        W35587  34.323  22.609   1.312
70427W        W35588  31.338  31.732   0.954
70428W        W35589   6.709  13.717   1.225
70429W        W35590  21.018   7.310   1.945
70430W        W35591  31.349  23.947  12.522
70431W        W35592  21.672  33.267  10.357
70432W        W35593  44.005  25.591   3.064
70433W        W35594   3.659  36.357   4.187
70434W        W35595  24.296  26.017  14.951
70435W        W35596  40.992  28.489   3.100
70436W        W35597  18.269  27.927   3.342
70437W        W35598   5.897  16.989  14.373
70438W        W35599  34.628  33.819  14.966
70439W        W35600   7.574  33.157  11.115
70440W        W35601  23.150  38.503   4.312
70441W        W35602  14.636  34.472  13.030
70442W        W35603  31.740  44.498  11.955
70443W        W35604  40.737  42.795  11.916
70444W        W35605  37.490  14.643   1.771
70445W        W35606  18.081  13.652  14.863
70446W        W35607  14.667  36.071  14.308
70447W        W35608  33.109  30.890   1.989
70448W        W35609   8.868   7.459  14.474
70449W        W35610  29.497  19.453  14.864
70450W        W35611  17.213  18.150  14.503
70451W        W35612   7.953  16.699  13.062
70452W        W35613  37.749   0.524  13.257
70453W        W35614  31.258  26.105  10.273
70454W        W35615  34.799  32.007  10.311
70455W        W35616  25.505   5.185   0.309
70456W        W35617  17.139  37.079  10.229
70457W        W35618   0.813   1.936   1.811
70458W        W35619  34.977  13.769   3.218
70459W        W35620  30.427  41.930   2.368
70460W        W35621  29.173  44.706  10.941
70461W        W35622  10.234  43.487   2.251
70462W        W35623  34.554  31.368  14.710
70463W        W35624  32.890  13.332  12.606
70464W        W35625  43.930  36.317  13.580
70465W        W35626   3.009  18.246   1.247
70466W        W35627  44.268  34.940  12.887
70467W        W35628  12.278  21.985   0.319
70468W        W35629   2.838  34.537  10.327
70469W        W35630   7.750  33.964  12.535
70470W        W35631  34.460   8.643   0.569
70471W        W35632  26.601  30.555   2.383
70472W        W35633  39.882  18.277   2.182
70473W        W35634  18.124  42.252  13.787
70474W        W35635  12.206  43.717  11.975
70475W        W35636  24.395  37.418   3.648
70476W        W35637  10.860  30.645   2.952
70477W        W35638  16.087  33.322   1.146
70478W        W35639  20.366  36.095  11.964
70479W        W35640  43.446  44.023   2.637
70480W        W35641   5.699   6.987  11.905
70481W        W35642  13.672  11.048  11.616
70482W        W35643  44.330  21.737  12.120
70483W        W35644   5.889   7.481  11.552
70484W        W35645  14.898  37.567   2.152
70485W        W35646  42.159  32.058  10.705
70486W        W35647   5.198  12.726   2.700
70487W        W35648   5.713   2.277   0.358
70488W        W35649  10.632  36.525   0.764
70489W        W35650  42.262  29.511  14.753
70490W        W35651  36.389  32.594   4.549
70491W        W35652  39.858  22.212   4.069
70492W        W35653  35.678  16.344   2.838
70493W        W35654   3.708  24.562   2.255
70494W        W35655  22.649  30.557   2.107
70495W        W35656  17.796   8.929   1.859
70496W        W35657  26.579  30.376   3.740
70497W        W35658   9.897  14.618   4.738
70498W        W35659  20.178   8.452   1.893
70499W        W35660  34.842  12.758  13.961
70500W        W35661  20.191   3.801  11.525
70501W        W35662  16.604  11.698   4.165
70502W        W35663  37.927  15.867  13.883
70503W        W35664   1.855  13.849   2.385
70504W        W35665  26.953  28.023  13.838
70505W        W35666  28.165  32.854   1.157
70506W        W35667  13.080  21.024   4.128
70507W        W35668  31.989  28.123  11.317
70508W        W35669  44.511  11.673   2.779
70509W        W35670  13.427   2.850  12.824
70510W        W35671   1.860  34.421   0.723
70511W        W35672  42.934  24.184   0.426
70512W        W35673   7.630  12.391  11.350
70513W        W35674  31.471  22.962  13.519
70514W        W35675  17.071  37.652   4.600
70515W        W35676  43.257  35.513   0.751
70516W        W35677   4.174  41.506   4.130
70517W        W35678   7.463   7.942   1.368
70518W        W35679  37.352  39.515  10.276
70519W        W35680  44.791  14.880  14.365
70520W        W35681  22.480  25.511  10.480
70521W        W35682  39.969   7.420   1.883
70522W        W35683  21.506  10.755   1.515
70523W        W35684  41.791  18.813  13.995
70524W        W35685  27.173  15.525  12.979
70525W        W35686  26.209  20.550   4.364
70526W        W35687  15.114   1.694   3.244
70527W        W35688  12.248  41.185  12.965
70528ION    NA+35689   7.151   0.872   0.510
70529ION    NA+35690  10.175  11.332  14.793
70530ION    NA+35691  35.573  24.624   0.121
70531ION    NA+35692  20.728   1.981   0.570
70532ION    NA+35693  14.532  39.427   4.800
70533ION    NA+35694   0.432   8.546   0.055
70534ION    NA+35695  17.762  11.255  14.813
70535ION    NA+35696  43.864   6.112  14.482
70536ION    NA+35697  26.017  26.015  11.033
70537ION    NA+35698  40.321   2.060  12.558
70538ION    NA+35699   7.801  33.376   3.644
70539ION    NA+35700  33.183   5.249   1.812
70540ION    NA+35701  34.896  22.685  10.947
70541ION    NA+35702  41.922  44.567  13.799
70542ION    NA+35703  31.063  39.446   1.737
70543ION    NA+35704  31.478  28.906  13.331
70544ION    NA+35705  13.769  32.504   4.133
70545ION    NA+35706  37.625  11.816   2.246
70546ION    NA+35707  23.314   2.900  13.954
70547ION    NA+35708  27.269   7.131   3.621
70548ION    NA+35709   5.274  11.173   9.895
70549ION    NA+35710   7.054  22.597  11.161
70550ION    NA+35711  20.172  23.444  14.440
70551ION    NA+35712   9.783  44.986   0.059
70552ION    NA+35713  18.993  28.538   1.954
70553ION    NA+35714  39.912   4.272   4.501
70554ION    NA+35715  35.675  11.716  11.689
70555ION    NA+35716  30.916  18.112  14.170
70556ION    NA+35717  11.624   5.924  13.346
70557ION    NA+35718  30.755  27.046  10.731
70558ION    NA+35719  19.978  26.635  13.929
70559ION    NA+35720  30.556  13.800   1.164
70560ION    NA+35721  11.357  10.690   2.561
70561ION    NA+35722  38.035  21.176   4.418
70562ION    NA+35723  34.399  18.986  11.284
70563ION    NA+35724  19.237  29.590   1.834
70564ION    NA+35725  33.145  39.187  13.140
70565ION    NA+35726  39.548  32.625   0.471
70566ION    NA+35727  41.716   2.254  12.676
70567ION    NA+35728  35.283  28.438  12.673
70568ION    NA+35729  18.821  24.718   3.432
70569ION    NA+35730   8.071  38.900   3.221
70570ION    NA+35731   3.145  41.487   5.046
70571ION    NA+35732  14.651  14.341   4.716
70572ION    NA+35733  28.497   7.801   3.697
70573ION    NA+35734  14.163   1.750   3.047
70574ION    NA+35735  21.603   7.861  14.494
70575ION    NA+35736  24.116   2.738  12.654
70576ION    NA+35737  37.268   9.362  14.916
70577ION    NA+35738  41.067  27.254   4.184
70578ION    NA+35739  38.298  37.332  11.491
70579ION    NA+35740  36.129  36.381   2.824
70580ION    NA+35741  18.922  24.819  11.126
70581ION    NA+35742   1.612  10.728  13.883
70582ION    NA+35743  14.154  36.931  12.054
70583ION    NA+35744  41.075  22.159  12.552
70584ION    NA+35745   4.635   8.203  13.562
70585ION    NA+35746  19.010  38.438  11.603
70586ION    NA+35747  40.210  40.511   3.593
70587ION    NA+35748  24.698  24.656  11.170
70588ION    NA+35749  18.425  35.674   1.761
70589ION    NA+35750  20.782   2.868  13.071
70590ION    NA+35751   1.005  42.415  10.836
70591ION    NA+35752  37.910   0.875  13.930
70592ION    NA+35753  14.225  43.989  13.794
70593ION    NA+35754  36.400  32.578   2.788
70594ION    NA+35755  26.758  27.699  11.544
70595ION    NA+35756  39.362   4.495  14.779
70596ION    NA+35757  29.461  22.970  14.256
70597ION    NA+35758  17.176   8.885  11.474
70598ION    NA+35759  37.297  37.418  14.237
70599ION    NA+35760  16.404   5.408   3.690
70600ION    NA+35761   3.011  22.511   1.312
70601ION    NA+35762  40.281  10.403  10.789
70602ION    NA+35763  18.580  21.453   0.155
70603ION    NA+35764  24.820  40.475  12.734
70604ION    NA+35765  17.551  41.998  12.679
70605ION    NA+35766  44.243  18.484   0.291
70606ION    NA+35767  42.314   3.806  11.067
70607ION    NA+35768  26.967  15.987  13.075
70608ION    NA+35769  33.095  12.366  11.107
70609ION    NA+35770  39.032  29.345  11.171
70610ION    NA+35771  17.708  36.848  13.298
70611ION    NA+35772   2.508  27.847   5.367
70612ION    NA+35773  36.466  41.477  14.551
70613ION    NA+35774   4.020   6.218   4.932
70614ION    NA+35775  36.910  40.371  11.120
70615ION    NA+35776  44.789   7.696   2.783
70616ION    NA+35777   6.195  15.155  12.037
70617ION    NA+35778  19.111  34.086  14.490
70618ION    NA+35779  41.878  29.535   2.637
70619ION    NA+35780  22.742  39.170   2.571
70620ION    NA+35781   9.801  29.621   9.936
70621ION    NA+35782  15.220  10.619   3.839
70622ION    NA+35783  18.842  28.366  13.350
70623ION    NA+35784   3.767  13.033   1.875
70624ION    NA+35785  35.503  40.081   3.782
70625ION    NA+35786  43.901  34.072   1.945
70626ION    NA+35787   8.214   4.552  10.700
70627ION    NA+35788  28.796  12.545   2.184
70628ION    NA+35789   2.858   0.340   3.669
70629ION    NA+35790   8.886  25.670   2.324
70630ION    NA+35791  28.523  23.768   2.245
70631ION    NA+35792  44.755  34.254   3.068
70632ION    NA+35793  22.655   1.247   4.311
70633ION    NA+35794  23.513  42.562  12.083
70634ION    NA+35795  14.853  17.728  14.691
70635ION    NA+35796  27.269  27.663   3.136
70636ION    NA+35797  39.985  13.633   0.497
70637ION    NA+35798  41.965  26.593  11.734
70638ION    NA+35799  33.019  14.784  12.589
70639ION    NA+35800  19.596  22.414  11.985
70640ION    NA+35801  25.953   9.858  13.979
70641ION    NA+35802   5.656  38.336   1.904
70642ION    NA+35803  32.007  16.592  13.865
70643ION    NA+35804  13.928  17.632   2.257
70644ION    NA+35805  44.526   0.507   0.839
70645ION    NA+35806   5.992  12.136  13.309
70646ION    NA+35807  15.105  30.397  13.084
70647ION    NA+35808  26.973   0.969  14.392
70648ION    NA+35809  24.066  15.368   0.955
70649ION    NA+35810  41.445  33.600   3.368
70650ION    NA+35811  32.202  36.969   3.907
70651ION    NA+35812   4.672   0.991  10.593
70652ION    NA+35813  38.043  42.960   3.685
70653ION    NA+35814   9.604  30.199   2.306
70654ION    NA+35815   2.237  34.960   2.914
70655ION    NA+35816  20.053   5.430  12.955
70656ION    NA+35817  13.407  18.123  11.561
70657ION    NA+35818  12.888  42.799  12.561
70658ION    NA+35819  40.967  23.157  14.379
70659ION    NA+35820   4.288  13.615  14.277
70660ION    NA+35821  11.328  25.744  12.041
70661ION    NA+35822  12.366   7.219   4.297
70662ION    NA+35823  40.185   3.492   4.751
70663ION    NA+35824  31.596   1.787   3.658
70664ION    NA+35825  39.014  40.373  12.204
70665ION    NA+35826  18.586  13.065  14.144
70666ION    NA+35827   1.506  27.224  14.397
70667ION    NA+35828   4.872  22.197  14.655
70668ION    NA+35829  16.903   4.439  12.761
70669ION    NA+35830   8.661  31.378  11.523
70670ION    NA+35831  19.554  41.982  14.415
70671ION    NA+35832  38.383  36.989   2.034
70672ION    NA+35833  25.245  14.574   2.727
70673ION    NA+35834  29.066  40.369  13.529
70674ION    NA+35835  18.472  42.377  12.554
70675ION    NA+35836  40.348  34.686   1.410
70676ION    NA+35837   0.460  30.217   1.468
70677ION    NA+35838  20.747  10.320  14.442
70678ION    NA+35839   0.739  27.736  11.211
70679ION    NA+35840  39.079  39.810  10.625
70680ION    NA+35841  28.138  20.536  12.908
70681ION    NA+35842  27.559  37.766   0.993
70682ION    NA+35843  27.202  15.795   4.598
70683ION    NA+35844  21.287  27.474   0.761
70684ION    NA+35845  34.193  31.324   0.423
70685ION    NA+35846   0.197  38.849   1.260
70686ION    NA+35847  21.534  25.700   0.311
70687ION    NA+35848  39.394  40.550   4.722
70688ION    NA+35849  27.028  39.455  11.661
70689ION    NA+35850  19.519  33.724  11.663
70690ION    NA+35851  33.197   1.947  10.907
70691ION    NA+35852  40.092  22.672  13.482
70692ION    NA+35853  23.052  29.307  10.995
70693ION    NA+35854  10.947  27.872   2.922
70694ION    NA+35855  33.376  17.589   0.661
70695ION    NA+35856  30.652   9.420   4.436
70696ION    NA+35857  31.714  10.730   4.776
70697ION    NA+35858  15.655   0.413  12.116
70698ION    NA+35859  25.634  19.242   0.300
70699ION    NA+35860   0.178  38.862   3.466
70700ION    NA+35861  14.741  17.093   2.038
70701ION    NA+35862  23.214   8.467   3.810
70702ION    NA+35863   9.758  39.720   2.115
70703ION    NA+35864  14.406  23.201  14.862
70704ION    NA+35865   5.236  42.703   0.638
70705ION    NA+35866  34.445  17.404   1.374
70706ION    NA+35867  28.427  13.235   3.658
70707ION    NA+35868  26.579  27.640   3.586
70708ION    NA+35869  11.250   7.363  12.136
70709ION    NA+35870  20.481  40.776  11.047
70710ION    NA+35871   4.912  15.243   4.119
70711ION    NA+35872  44.276  21.255  13.027
70712ION    NA+35873  32.876  35.325  12.167
70713ION    NA+35874  15.064  22.474   0.159
70714ION    NA+35875  12.020   8.435   0.489
70715ION    NA+35876  40.177  27.097   0.304
70716ION    NA+35877  21.895   5.684   3.247
70717ION    NA+35878  18.962  43.270  14.536
70718ION    NA+35879  17.792  35.501  10.707
70719ION    NA+35880  28.663  37.479  12.069
70720ION    NA+35881  43.798  30.588  13.821
70721ION    NA+35882   2.556  11.885  10.307
70722ION    NA+35883  25.518  36.702   3.337
70723ION    NA+35884  37.078  19.312   2.412
70724ION    NA+35885  15.035  27.174  12.137
70725ION    NA+35886   9.555  22.625  10.470
70726ION    NA+35887   2.960  35.126  14.411
70727ION    NA+35888  25.065  13.515   3.781
70728ION    NA+35889  10.967  28.561  14.852
70729ION    NA+35890   2.843  28.551  11.378
70730ION    NA+35891   5.500  38.702  14.695
70731ION    NA+35892  35.292  35.511  12.477
70732ION    NA+35893   8.013  13.689  14.064
70733ION    NA+35894  28.172  22.319   3.635
70734ION    NA+35895  31.134   9.611  11.976
70735ION    NA+35896  20.864   0.115   3.207
70736ION    NA+35897  22.634  24.269   4.020
70737ION    NA+35898  39.174  12.985   4.737
70738ION    NA+35899  34.870  17.303   0.270
70739ION    NA+35900  44.318   2.356   2.467
70740ION    NA+35901  23.016  34.077  14.002
70741ION    NA+35902  32.570  24.629   2.377
70742ION    NA+35903  44.794   4.891  14.710
70743ION    NA+35904  40.283  18.544  13.092
70744ION    NA+35905  42.952  22.310   1.851
70745ION    NA+35906  32.914  35.998   2.001
70746ION    NA+35907   7.082   0.294   3.617
70747ION    NA+35908  39.422  14.164   1.766
70748ION    NA+35909  21.996  32.783   1.343
70749ION    NA+35910   2.205  19.682   0.733
70750ION    NA+35911  31.069   3.417   3.700
70751ION    NA+35912   8.905  39.294   3.633
70752ION    NA+35913   1.891   2.007   0.164
70753ION    NA+35914  11.587  15.371   4.625
70754ION    NA+35915   7.973  23.945   0.074
70755ION    NA+35916   5.827  38.054   3.849
70756ION    NA+35917  39.948   9.066  10.233
70757ION    NA+35918  15.758  37.858   1.936
70758ION    NA+35919   4.874  18.509  12.054
70759ION    NA+35920  39.272  24.390  13.535
70760ION    NA+35921  37.734   1.997  11.525
70761ION    NA+35922  17.624  21.380  14.500
70762ION    NA+35923  17.301  14.060   2.853
70763ION    NA+35924   2.297  38.716   3.129
70764ION    NA+35925   1.241  44.504  14.992
70765ION    NA+35926   1.676  24.338  11.337
70766ION    NA+35927   3.669   2.995   1.346
70767ION    NA+35928  44.756   3.987   0.338
70768ION    NA+35929  22.088   9.627   3.139
70769ION    NA+35930  20.833  27.882   2.251
70770ION    NA+35931  42.557  37.584  11.611
70771ION    NA+35932  31.885  31.007  11.868
70772ION    NA+35933  20.752  38.911  12.424
70773ION    NA+35934   1.841  18.903   3.066
70774ION    NA+35935   5.957  36.689  10.799
70775ION    NA+35936  43.941  42.721   4.014
70776ION    NA+35937  16.714  19.757  14.868
70777ION    NA+35938   1.184   0.564   2.689
70778ION    NA+35939  43.857   3.642   0.619
70779ION    NA+35940  19.037  35.414   4.590
70780ION    NA+35941   7.258  37.576   4.910
70781ION    NA+35942  42.814  20.446   0.471
70782ION    NA+35943  30.549  12.258   4.288
70783ION    NA+35944  36.398  33.635   3.319
70784ION    NA+35945   8.079   1.906  13.462
70785ION    NA+35946  27.813  44.053   0.423
70786ION    NA+35947   4.935   0.964  13.802
70787ION    NA+35948  29.289   8.976   2.178
70788ION    NA+35949   4.812  28.241  11.637
70789ION    NA+35950  29.657  12.112  10.716
70790ION    NA+35951  25.976  42.863   1.669
70791ION    NA+35952  20.538  20.987  11.979
70792ION    NA+35953   5.986  41.304  12.926
70793ION    NA+35954  25.631  11.878  14.970
70794ION    NA+35955  19.111  19.452  14.837
70795ION    NA+35956  33.944   1.409   1.971
70796ION    NA+35957  20.696  38.976  14.394
70797ION    NA+35958  43.401  24.271  14.741
70798ION    NA+35959   0.346  29.258  13.429
70799ION    NA+35960  17.453  22.474  12.610
70800ION    NA+35961   0.570  40.950  14.759
70801ION    NA+35962  14.481   8.024   4.682
70802ION    NA+35963   9.291  35.005   4.518
70803ION    NA+35964  34.474  22.456   5.517
70804ION    NA+35965  21.626  14.777  11.285
70805ION    NA+35966  35.394  34.931  14.885
70806ION    NA+35967  12.433   9.381  11.946
70807ION    NA+35968   1.527  27.433  13.608
70808ION    NA+35969  15.121  28.352   5.037
70809ION    NA+35970   5.929  33.030   2.176
70810ION    NA+35971  26.687  24.151  12.798
70811ION    NA+35972  10.146  15.916   2.410
70812ION    NA+35973  17.811  33.677  11.288
70813ION    NA+35974  39.601  11.327   0.383
70814ION    NA+35975  41.040  27.438   0.692
70815ION    NA+35976   0.875   1.888   0.309
70816ION    NA+35977  12.961  37.137   0.759
70817ION    NA+35978   9.142   7.193   0.853
70818ION    NA+35979   5.168  30.898  13.101
70819ION    NA+35980   0.522  40.777   1.849
70820ION    NA+35981  37.026  27.956   1.346
70821ION    NA+35982  13.753  37.681  10.823
70822ION    NA+35983  30.946  16.077  14.383
70823ION    NA+35984   7.768   2.985   0.256
70824ION    NA+35985   2.732  20.655  12.988
70825ION    NA+35986  14.065  11.773   3.197
70826ION    NA+35987   0.620  33.050   4.694
70827ION    NA+35988  19.243  10.696   3.067
70828ION    NA+35989   8.649  31.162   0.418
70829ION    NA+35990  44.292   5.265  13.100
70830ION    NA+35991  30.357  39.733  11.684
70831ION    NA+35992  42.113  17.662   3.367
70832ION    NA+35993  27.658  43.377  14.703
70833ION    NA+35994  39.509  34.673   4.199
70834ION    NA+35995  36.658  21.139  13.631
70835ION    NA+35996  18.685  37.079   2.468
70836ION    NA+35997  35.667  20.505   0.965
70837ION    NA+35998   9.387   0.588  14.329
70838ION    NA+35999  42.206  19.103   4.577
70839ION    NA+36000  41.019  40.041   1.212
70840ION    NA+36001  41.575  41.759  11.718
70841ION    NA+36002  35.728  27.735  12.520
70842ION    NA+36003  24.183   5.146   2.106
70843ION    NA+36004  38.253  18.731   0.860
70844ION    NA+36005   6.330  11.685  14.352
70845ION    NA+36006  37.533  19.958   3.321
70846ION    NA+36007  22.087   8.197   4.583
70847ION    NA+36008  26.161  16.328   4.396
70848ION    NA+36009   6.482   7.028  12.516
70849ION    NA+36010  37.022  41.936  11.593
70850ION    NA+36011  13.178  42.296   9.470
70851ION    NA+36012  15.024  40.510  13.271
70852ION    NA+36013  24.181  18.575  11.864
70853ION    NA+36014  10.499  32.259  12.139
70854ION    NA+36015  22.137   8.086   2.878
70855ION    NA+36016  41.424   1.775   1.520
70856ION    NA+36017  15.577  15.085  10.734
70857ION    NA+36018  28.606  10.114   4.193
70858ION    NA+36019   1.957   8.403   3.247
70859ION    NA+36020  19.292  40.097  12.769
70860ION    NA+36021   2.511   8.867   4.065
70861ION    NA+36022  28.510  17.559   2.865
70862ION    NA+36023  21.929   0.326  14.252
70863ION    NA+36024   6.033  32.427  11.600
70864ION    NA+36025  33.488  10.685   2.699
70865ION    NA+36026  32.831  29.607   0.589
70866ION    NA+36027  11.286  34.061   4.566
70867ION    NA+36028  35.299   8.774   0.808
70868ION    NA+36029  11.856  30.187   1.722
70869ION    NA+36030  15.411  40.130   2.114
70870ION    NA+36031  29.935  31.840  10.921
70871ION    NA+36032   8.671  14.143   3.612
70872ION    NA+36033  23.862  26.631   4.744
70873ION    NA+36034   7.649  39.353   0.937
70874ION    NA+36035  32.197  14.543   3.298
70875ION    NA+36036  42.570  16.173  12.513
70876ION    NA+36037  19.398  40.020   5.527
70877ION    NA+36038  20.300  34.002   3.120
70878ION    NA+36039  37.531  18.054   3.601
70879ION    NA+36040  43.822   3.842   2.013
70880ION    NA+36041  23.040  34.858   1.769
70881ION    NA+36042  10.195  14.554  11.625
70882ION    NA+36043  44.411   9.463   1.370
70883ION    NA+36044  34.176  38.108  11.099
70884ION    NA+36045  29.657   3.597   0.858
70885ION    NA+36046   5.376  26.889  13.021
70886ION    NA+36047  27.227  27.136  12.226
70887ION    NA+36048  21.883   5.716  12.290
70888ION    NA+36049  10.635   3.470   3.223
70889ION    NA+36050  10.292  26.333   1.897
70890ION    NA+36051  14.586  34.260   4.199
70891ION    NA+36052  22.935   7.801  13.782
70892ION    NA+36053  16.031  29.363   1.249
70893ION    NA+36054  25.267  16.044  10.705
70894ION    NA+36055  30.593   4.142   0.745
70895ION    NA+36056  35.685  31.576   1.758
70896ION    NA+36057   7.757  10.724   3.211
70897ION    NA+36058   0.385  30.659   4.761
70898ION    NA+36059  41.896  20.990  11.216
70899ION    NA+36060   1.484  21.615  12.867
70900ION    NA+36061  24.577  13.535   0.440
70901ION    NA+36062  43.711  17.880  13.078
70902ION    NA+36063  16.735   4.114   1.894
70903ION    NA+36064  15.878  35.165   4.297
70904ION    NA+36065   8.432  24.917   1.848
70905ION    NA+36066  12.535  28.801  11.626
70906ION    NA+36067  24.066  33.609   0.869
70907ION    NA+36068  26.419  35.333  13.940
70908ION    NA+36069  25.511  38.715   1.905
70909ION    NA+36070  41.250  23.119   0.247
70910ION    NA+36071  10.646   5.643   4.646
70911ION    NA+36072  14.305   2.898  13.330
70912ION    NA+36073   7.941   8.074  11.286
70913ION    NA+36074   3.428  24.638   0.442
70914ION    NA+36075  33.981   4.719   2.386
70915ION    NA+36076  17.377  32.918   1.843
70916ION    NA+36077  32.795  29.391   4.408
70917ION    NA+36078  11.789  24.129  10.930
70918ION    NA+36079  24.537  24.439   0.347
70919ION    NA+36080  15.556   5.243  14.801
70920ION    NA+36081  39.993   9.167  11.234
70921ION    NA+36082  37.146  42.816  11.137
70922ION    NA+36083  27.162  29.755   4.677
70923ION    NA+36084  13.484  13.230  13.927
70924ION    NA+36085  29.824  22.805   0.715
70925ION    NA+36086  39.731  39.491   1.783
70926ION    NA+36087  37.197   0.093  10.900
70927ION    NA+36088  38.747  19.415   1.396
70928ION    NA+36089  43.596   2.759   1.464
70929ION    NA+36090  32.949   8.196   3.692
70930ION    NA+36091   9.223   0.032   4.094
70931ION    NA+36092  30.912   5.800   0.467
70932ION    NA+36093  23.892   3.438   1.206
70933ION    NA+36094  40.556  25.090   5.025
70934ION    NA+36095  20.017  27.895   4.069
70935ION    NA+36096  24.197   6.710   2.803
70936ION    NA+36097  20.286   8.841  12.674
70937ION    NA+36098  40.642  29.550  13.865
70938ION    NA+36099  27.146  42.440   2.162
70939ION    NA+36100  44.081   8.576  14.864
70940ION    NA+36101  16.727  32.006   3.205
70941ION    NA+36102  36.970   3.498  14.343
70942ION    NA+36103  25.639  33.723   0.981
70943ION    NA+36104   3.714   7.424  14.914
70944ION    NA+36105  13.985  40.603  13.559
70945ION    NA+36106  42.455  39.609  13.345
70946ION    NA+36107  32.735  31.625   1.804
70947ION    NA+36108  31.384  29.321   1.714
70948ION    NA+36109   5.468   4.496  13.308
70949ION    NA+36110  18.657  41.898   3.076
70950ION    NA+36111  13.062  33.358   4.553
70951ION    NA+36112  42.286  25.084  14.181
70952ION    NA+36113  37.493  42.305   2.608
70953ION    NA+36114  28.812  36.263   3.294
70954ION    NA+36115  38.559  36.145   2.080
70955ION    NA+36116  15.355   9.724   0.460
70956ION    NA+36117  42.374  42.421  12.357
70957ION    NA+36118   0.899  29.942  14.469
70958ION    NA+36119  22.584  34.961  13.790
70959ION    NA+36120  38.489  12.629   2.732
70960ION    NA+36121  19.998   1.775   0.997
70961ION    NA+36122  30.582   2.436   2.719
70962ION    NA+36123  41.076   3.937   2.735
70963ION    NA+36124  18.682  14.556   2.853
70964ION    NA+36125  33.946  19.316  14.511
70965ION    NA+36126  32.848   5.198  13.805
70966ION    NA+36127  43.408  17.803   5.015
70967ION    NA+36128   5.078   5.192   0.812
70968ION    NA+36129   4.424  43.871   0.209
70969ION    NA+36130  31.294   3.336   1.659
70970ION    NA+36131  27.257  27.178   3.779
70971ION    NA+36132  28.582  32.996   4.618
70972ION    NA+36133  26.298  32.861   0.291
70973ION    NA+36134  43.070  27.988   9.853
70974ION    NA+36135  24.999  10.487   1.722
70975ION    NA+36136  42.881  13.695  10.799
70976ION    NA+36137  43.806  31.413   2.340
70977ION    NA+36138  40.951  18.825  12.402
70978ION    NA+36139  30.719  34.503  13.932
70979ION    NA+36140  24.948  17.783   0.189
70980ION    NA+36141  20.834  31.143   2.789
70981ION    NA+36142  41.282  35.587  11.177
70982ION    NA+36143   7.493  40.386   0.497
70983ION    NA+36144  28.161  26.952  11.559
70984ION    NA+36145   2.657  18.505  12.169
70985ION    NA+36146  20.357  21.868  11.162
70986ION    NA+36147   8.799   4.918  13.951
70987ION    NA+36148  28.404  11.801  10.537
70988ION    NA+36149   2.730   4.127  11.154
70989ION    NA+36150  13.853   2.511  12.053
70990ION    NA+36151  26.770  30.189  12.140
70991ION    NA+36152  39.760  14.101   3.355
70992ION    NA+36153  34.374   7.731  14.352
70993ION    NA+36154   4.930  24.177  14.279
70994ION    NA+36155  18.913  36.006   3.735
70995ION    NA+36156   5.571  22.348  12.056
70996ION    NA+36157  30.519  15.785  13.528
70997ION    NA+36158  20.791  15.241  14.304
70998ION    NA+36159  20.163  27.651  14.502
70999ION    NA+36160  12.758  44.858   2.828
71000ION    NA+36161  31.683  24.198  10.335
71001ION    NA+36162  39.743  26.404   1.618
71002ION    NA+36163  23.173  39.635   1.994
71003ION    NA+36164  17.969  16.781  11.854
71004ION    NA+36165   8.740  36.582   3.234
71005ION    NA+36166  40.719  27.465  13.084
71006ION    NA+36167  19.541  14.390   9.671
71007ION    NA+36168  44.837  24.898  10.845
71008ION    NA+36169   6.923  25.564  13.832
71009ION    NA+36170  43.279  22.046   0.092
71010ION    NA+36171   4.912  27.678  12.619
71011ION    NA+36172  27.563  31.579  13.141
71012ION    NA+36173  43.196   6.890   2.291
71013ION    NA+36174   8.613  21.465   3.243
71014ION    NA+36175  32.419   7.363   2.112
71015ION    NA+36176  14.364   7.986  13.557
71016ION    NA+36177  25.229   2.015  13.927
71017ION    NA+36178  44.257  16.095   0.859
71018ION    NA+36179  36.478  28.551  14.543
71019ION    NA+36180  35.742  39.725   3.120
71020ION    NA+36181  14.397  34.541  14.872
71021ION    NA+36182  22.651   8.612  14.312
71022ION    NA+36183   5.204  24.461   4.589
71023ION    NA+36184  16.273  16.372   2.580
71024ION    NA+36185  14.219   0.972   4.526
71025ION    NA+36186  25.675  44.696   0.797
71026ION    NA+36187  37.518  31.871   9.931
71027ION    NA+36188  29.156  39.559   0.473
71028ION    NA+36189  31.671   5.346   1.423
71029ION    NA+36190  41.975   3.400   3.702
71030ION    NA+36191  12.016  11.397   0.087
71031ION    NA+36192  27.495  27.088  10.826
71032ION    NA+36193  13.479  21.040   1.397
71033ION    NA+36194  35.849  19.287   2.515
71034ION    NA+36195   1.365   1.491   4.692
71035ION    NA+36196  41.133  32.342  14.759
71036ION    NA+36197  29.747  15.178   3.150
71037ION    NA+36198  39.319  35.347  14.123
71038ION    NA+36199  28.008  17.102  11.075
71039ION    NA+36200  10.189   8.118  13.378
71040ION    NA+36201  31.542  32.203   1.105
71041ION    NA+36202  10.648  28.087   1.992
71042ION    NA+36203  25.766  17.518   2.093
71043ION    NA+36204  10.987  42.956   1.812
71044ION    NA+36205  14.604   0.311   0.274
71045ION    NA+36206  39.407  21.050  14.548
71046ION    NA+36207  27.205  41.245  12.038
71047ION    NA+36208  10.124  33.969  13.975
71048ION    NA+36209   1.009  43.872  14.234
71049ION    NA+36210  24.578  11.394   1.727
71050ION    NA+36211  37.575  22.509   0.539
71051ION    NA+36212   3.878  25.429   0.452
71052ION    NA+36213  44.261  12.280  14.468
71053ION    NA+36214  27.643   6.370   0.353
71054ION    NA+36215  17.882  12.061   0.395
71055ION    NA+36216  36.251  39.715   3.776
71056ION    NA+36217  11.744  38.294  13.637
71057ION    NA+36218  23.782  30.699  12.755
71058ION    NA+36219  11.921  11.357  12.452
71059ION    NA+36220   5.254  30.182   0.992
71060ION    NA+36221  44.732  30.628   3.817
71061ION    NA+36222  34.878  20.845   1.478
71062ION    NA+36223  10.175   4.625  13.948
71063ION    NA+36224  16.569  27.591   0.987
71064ION    NA+36225   3.038  42.225   0.625
71065ION    NA+36226  21.276   5.995  13.463
71066ION    NA+36227  15.087  18.635  11.457
71067ION    NA+36228  20.539  20.875   4.327
71068ION    NA+36229  31.517  36.568  12.041
71069ION    NA+36230   1.693  12.643   0.270
71070ION    NA+36231  34.750  10.293   2.109
71071ION    NA+36232   6.409   7.733  10.733
71072ION    NA+36233  41.714   4.989  11.109
71073ION    NA+36234   4.775  30.027  14.262
71074ION    NA+36235  40.282  43.769   0.271
71075ION    NA+36236   0.187  11.733  11.904
71076ION    NA+36237  41.776  37.761  10.303
71077ION    NA+36238  11.327   8.342  11.948
71078ION    NA+36239  23.755  28.482   9.897
71079ION    NA+36240  18.312   6.095  14.448
71080ION    NA+36241  16.769  18.133  12.148
71081ION    NA+36242   9.573  36.726  11.409
71082ION    NA+36243   7.968  10.670  11.761
71083ION    NA+36244  15.878  17.497   0.833
71084ION    NA+36245  43.585   9.437  14.748
71085ION    NA+36246  27.866  25.080  10.915
71086ION    NA+36247  26.996  18.668   3.543
71087ION    NA+36248   5.479   7.971  12.067
71088ION    NA+36249  37.142  35.622   3.077
71089ION    NA+36250  29.139  13.574   9.607
71090ION    NA+36251  23.485  10.960  12.390
71091ION    NA+36252  30.187  27.298  13.583
71092ION    NA+36253  44.680  36.142   0.367
71093ION    NA+36254  13.536  28.763   0.924
71094ION    NA+36255  36.752  42.624   4.624
71095ION    NA+36256  29.120  23.742  12.459
71096ION    NA+36257   0.924  35.411  13.607
71097ION    NA+36258  35.465   3.357   3.806
71098ION    NA+36259  12.614  42.467   1.376
71099ION    NA+36260  27.440   8.231  13.552
71100ION    NA+36261  14.900  42.431   1.187
71101ION    NA+36262  30.259  26.069   2.819
71102ION    NA+36263  16.919  13.833  11.006
71103ION    NA+36264  40.292  28.213   1.800
71104ION    NA+36265  35.586  14.081  10.508
71105ION    NA+36266  28.679   9.748   1.165
71106ION    NA+36267  31.981  15.499   9.976
71107ION    NA+36268   3.502  20.598   2.149
71108ION    NA+36269   4.305  21.278  13.112
71109ION    NA+36270  17.794  12.604   1.728
71110ION    NA+36271  21.201  32.191   1.474
71111ION    NA+36272  41.770  23.474  12.335
71112ION    NA+36273  27.165   1.037   3.137
71113ION    NA+36274  10.357  38.588   2.439
71114ION    NA+36275  22.764   2.436   3.920
71115ION    NA+36276  17.836   9.154   4.099
71116ION    NA+36277  21.586  20.160   2.901
71117ION    NA+36278  29.944   3.199  12.760
71118ION    NA+36279  13.438  23.854  11.591
71119ION    NA+36280  30.442   3.796  12.008
71120ION    NA+36281  27.982  44.135  13.911
71121ION    NA+36282   0.466  18.516   1.960
71122ION    NA+36283   0.295  34.185   4.217
71123ION    NA+36284   6.225  34.849  10.691
71124ION    NA+36285  13.446  40.335  12.760
71125ION    NA+36286   4.706  16.166  12.983
71126ION    NA+36287  29.671  17.600  11.861
71127ION    NA+36288  42.539  32.553   4.406
71128ION    NA+36289  32.454  27.655  10.911
71129ION    NA+36290  17.263   6.695  14.305
71130ION    NA+36291  16.165  18.002  11.351
71131ION    NA+36292  43.521  18.671   1.694
71132ION    NA+36293   4.697   1.798  14.687
71133ION    NA+36294  11.973  37.222  14.460
71134ION    NA+36295  41.498  38.868   2.610
71135ION    NA+36296  17.550  35.881   1.898
71136ION    NA+36297  19.871  43.389   4.447
71137ION    NA+36298  10.452   7.849   2.596
71138ION    NA+36299  14.379  31.443   1.999
71139ION    NA+36300  43.349  21.037  14.866
71140ION    NA+36301  13.950  20.653   4.780
71141ION    NA+36302  29.686  34.142   1.906
71142ION    NA+36303  35.965  30.221   4.991
71143ION    NA+36304  10.060  14.336   3.159
71144ION    NA+36305   1.217   3.190  14.764
71145ION    NA+36306   5.926  44.801   4.049
71146ION    NA+36307   8.005   4.282   0.997
71147ION    NA+36308  28.769  12.483  14.583
71148ION    NA+36309   7.080  23.795   0.806
71149ION    NA+36310  41.810  13.695   1.915
71150ION    NA+36311  44.836  12.361  12.412
71151ION    NA+36312  17.229  39.805   3.248
71152ION    NA+36313  24.955  29.989   3.240
71153ION    NA+36314  44.461  38.707   0.888
71154ION    NA+36315  39.559   8.008  10.229
71155ION    NA+36316  14.760  11.223  12.680
71156ION    NA+36317  20.284   9.562   1.858
71157ION    NA+36318   6.442  14.593   0.743
71158ION    NA+36319  13.332  30.967  14.317
71159ION    NA+36320  27.332  28.446   1.858
71160ION    NA+36321   0.771  38.948   0.573
71161ION    NA+36322  35.117  13.379   2.738
71162ION    NA+36323   1.482  29.279  14.939
71163ION    NA+36324  29.205   8.908   1.302
71164ION    NA+36325  11.547  26.865   4.619
71165ION    NA+36326  24.642  16.103   1.957
71166ION    NA+36327  34.160  41.652  11.752
71167ION    NA+36328  17.486  32.161   4.760
71168ION    NA+36329  39.371  14.605  11.083
71169ION    NA+36330   1.658  33.564   1.009
71170ION    NA+36331  41.223   3.692  12.473
71171ION    NA+36332  32.202  16.610   1.505
71172ION    NA+36333  25.462  40.256   0.005
71173ION    NA+36334  23.183  40.655  11.489
71174ION    NA+36335   4.405  38.114  14.002
71175ION    NA+36336  18.215   6.305   4.670
71176ION    NA+36337  11.017  36.461  13.611
71177ION    NA+36338  34.439   3.781   4.580
71178ION    NA+36339   2.182  23.568   0.895
71179ION    NA+36340  26.342  29.999  13.966
71180ION    NA+36341  44.025  12.755   1.745
71181ION    NA+36342  14.562   1.213  13.641
71182ION    NA+36343   3.810  22.311   2.728
71183ION    NA+36344  18.520  21.287  12.026
71184ION    NA+36345  34.102  16.504   0.422
71185ION    NA+36346   0.787   9.359  14.806
71186ION    NA+36347  29.281  29.451   2.722
71187ION    NA+36348  10.146  38.770   5.113
71188ION    NA+36349  40.994   2.645  12.105
71189ION    NA+36350  12.841   8.219   1.019
71190ION    NA+36351   0.828   5.411   4.292
71191ION    NA+36352   0.437  30.622  13.559
71192ION    NA+36353  13.182  34.189  14.509
71193ION    NA+36354  22.708  16.400   5.405
71194ION    NA+36355   6.039   5.454   0.720
71195ION    NA+36356   9.162  29.147   1.285
71196ION    NA+36357  21.335  37.733   2.718
71197ION    NA+36358  31.060   7.738   2.319
71198ION    NA+36359  21.881  25.806   9.514
71199ION    NA+36360   6.671  19.606   4.099
71200ION    NA+36361  26.955  42.504   3.578
71201ION    NA+36362  36.432   8.674  14.975
71202ION    NA+36363  10.060   0.782   5.413
71203ION    NA+36364  30.444  23.027  14.433
71204ION    NA+36365  30.518  27.407   0.900
71205ION    NA+36366  16.347  18.731  14.206
71206ION    NA+36367   4.521   9.411   0.140
71207ION    NA+36368  29.470  28.111   5.553
71208ION    NA+36369  20.693   3.433   1.263
71209ION    NA+36370  18.567  19.843   5.412
71210ION    NA+36371   1.716  18.999   1.562
71211ION    NA+36372  12.322  33.794  13.629
71212ION    NA+36373  20.213  13.748   4.120
71213ION    NA+36374  21.264  14.326  13.265
71214ION    NA+36375   3.187  43.510  13.727
71215ION    NA+36376  29.043  11.526   2.314
71216ION    NA+36377  33.902   1.889   2.775
71217ION    NA+36378  21.026  11.338   3.570
71218ION    NA+36379  42.438  28.122   3.666
71219ION    NA+36380  19.553  23.417   2.120
71220ION    NA+36381  44.230  11.003  14.211
71221ION    NA+36382   0.256  23.479  13.296
71222ION    NA+36383  33.666  20.641   1.945
71223ION    NA+36384   9.202  20.303   4.124
71224ION    NA+36385  20.378  40.685   1.242
71225ION    NA+36386  15.246  17.692   3.225
71226ION    NA+36387   0.824  25.326  10.728
71227ION    NA+36388   6.881  43.298  14.521
71228ION    NA+36389   8.953  42.866  10.601
71229ION    NA+36390  35.450   1.300  11.865
71230ION    NA+36391   0.824  42.091  14.852
71231ION    NA+36392  31.060  27.553  13.760
71232ION    NA+36393   1.041  41.215  11.579
71233ION    NA+36394   0.819  12.670   0.820
71234ION    NA+36395  11.347  13.107  12.892
71235ION    NA+36396   3.221   8.459   3.846
71236ION    NA+36397  22.773  38.371  14.961
71237ION    NA+36398  10.416   1.920   2.252
71238ION    NA+36399  22.264  13.687   0.561
71239ION    NA+36400  12.652  38.597   2.712
71240ION    NA+36401  40.713  15.019  12.808
71241ION    NA+36402  31.676  37.523   1.064
71242ION    NA+36403  28.714  15.518  12.893
71243ION    NA+36404  29.368  35.572   3.544
71244ION    NA+36405  38.979  19.968  11.564
71245ION    NA+36406  27.950   8.770   3.261
71246ION    NA+36407  37.346  16.093  14.887
71247ION    NA+36408  13.155  20.208   1.871
71248ION    NA+36409  39.117  23.433   5.481
71249ION    NA+36410  37.058  14.134   1.641
71250ION    NA+36411  42.442  15.246   2.473
71251ION    NA+36412  24.229   5.338  14.873
71252ION    NA+36413  29.906  41.004  14.560
71253ION    NA+36414  27.655   6.701   4.271
71254ION    NA+36415  23.566  24.462   2.739
71255ION    NA+36416   3.588  41.657   0.179
71256ION    NA+36417   9.770  14.049   2.441
71257ION    NA+36418  34.793  18.342  12.168
71258ION    NA+36419  41.303  21.829  11.146
71259ION    NA+36420   0.424  22.936   0.377
71260ION    NA+36421  17.063   6.163   4.294
71261ION    NA+36422  24.081   6.637  13.487
71262ION    NA+36423  26.991  37.290   4.042
71263ION    NA+36424  33.564  24.719   2.430
71264ION    NA+36425  40.251  26.406  14.558
71265ION    NA+36426  16.097  16.125   4.309
71266ION    NA+36427   3.221   3.926  13.332
71267ION    NA+36428  32.353   4.693  11.325
71268ION    NA+36429  42.957  37.625  12.619
71269ION    NA+36430  22.273  33.738   1.199
71270ION    NA+36431   2.355  25.687   4.771
71271ION    NA+36432  28.184  32.471  13.829
71272ION    NA+36433  34.923  40.265   0.013
71273ION    NA+36434  39.270  35.278   2.838
71274ION    NA+36435  19.253  42.010  10.689
71275ION    NA+36436  43.256  41.534  10.796
71276ION    NA+36437  20.721  16.109   2.246
71277ION    NA+36438  26.963  20.261  11.658
71278ION    NA+36439  19.610  34.937  14.193
71279ION    NA+36440   7.112  15.933   0.869
71280ION    NA+36441  38.363  16.114  10.324
71281ION    NA+36442  29.804  36.482  10.039
71282ION    NA+36443  17.247  36.359  13.883
71283ION    NA+36444   2.865  34.319  10.782
71284ION    NA+36445  29.024  24.177   4.518
71285ION    NA+36446   3.901   6.508   1.954
71286ION    NA+36447  19.342  38.518  14.755
71287ION    NA+36448   9.344  36.771   1.977
71288ION    NA+36449  29.917  17.567  14.928
71289ION    NA+36450  18.151  37.730  13.534
71290ION    NA+36451   4.380   9.988  14.464
71291ION    NA+36452  16.713  33.611  13.400
71292ION    NA+36453  30.699  14.245  11.089
71293ION    NA+36454  40.136  23.612  13.930
71294ION    NA+36455  22.455   6.898   4.290
71295ION    NA+36456  10.458  42.285   2.831
71296ION    NA+36457  22.664  39.744   0.134
71297ION    NA+36458  41.057  36.296   1.741
71298ION    NA+36459   1.977  21.045   0.267
71299ION    NA+36460  30.048  24.664   2.610
71300ION    NA+36461  27.215   3.812  14.788
71301ION    NA+36462  33.495  10.721   4.034
71302ION    NA+36463   2.818  34.105  14.367
71303ION    NA+36464   1.186  24.697   2.123
71304ION    NA+36465  32.194  10.642  11.174
71305ION    NA+36466  40.293  13.198  13.420
71306ION    NA+36467  42.900  28.631   1.274
71307ION    NA+36468   9.930  42.577   0.867
71308ION    NA+36469  40.939   7.825  12.844
71309ION    NA+36470   9.801   2.681  11.376
71310ION    NA+36471  21.901  24.030   2.434
71311ION    NA+36472  28.984  41.442  10.309
71312ION    NA+36473  19.896  13.581  12.566
71313ION    NA+36474  16.493  32.674   1.089
71314ION    NA+36475  44.787  22.830  14.613
71315ION    NA+36476  33.242   9.064  13.690
71316ION    NA+36477  14.810  23.645   2.816
71317ION    NA+36478  42.829  42.185   5.002
71318ION    NA+36479  33.159  29.614  14.643
71319ION    NA+36480  30.388  37.574  12.054
71320ION    NA+36481   3.683  14.762  14.383
71321ION    NA+36482  43.265  41.621   1.760
71322ION    NA+36483  34.660   0.675   3.131
71323ION    NA+36484  23.723  28.261  14.893
71324ION    NA+36485  21.140  41.716   3.128
71325ION    NA+36486  34.612  28.644  14.067
71326ION    NA+36487  27.752  10.299   1.246
71327ION    NA+36488  27.217  30.136   0.046
71328ION    NA+36489  13.797  24.489   1.235
71329ION    NA+36490  32.242  26.391   3.957
71330ION    NA+36491  23.161   6.428  12.701
71331ION    NA+36492  14.582   9.337   4.345
71332ION    NA+36493  41.936  44.441  11.427
71333ION    NA+36494  12.811   7.116   0.277
71334ION    NA+36495  36.591   9.522  14.033
71335ION    NA+36496  38.422  16.756   0.275
71336ION    NA+36497  14.981   2.245   4.227
71337ION    NA+36498  17.418  25.969   0.965
71338ION    NA+36499  38.367  43.742   0.733
71339ION    NA+36500  39.393  41.345   4.044
71340ION    NA+36501  10.369  15.138   1.822
71341ION    NA+36502  32.158  35.555   2.334
71342ION    NA+36503   6.854   0.961   4.341
71343ION    NA+36504  16.104  10.334  10.819
71344ION    NA+36505  42.713   3.618  13.383
71345ION    NA+36506  32.956  15.632  14.844
71346ION    NA+36507  34.405  12.701   1.359
71347ION    NA+36508  21.282  21.037   3.987
71348ION    NA+36509   0.665  10.997  12.455
71349ION    NA+36510  22.800  19.743   0.119
71350ION    NA+36511  30.914   5.085   0.823
71351ION    NA+36512  36.600  24.301   3.280
71352ION    NA+36513  14.321  16.114   4.987
71353ION    NA+36514  40.936  11.190  11.210
71354ION    NA+36515  23.221  29.881   1.005
71355ION    NA+36516   5.772   6.911  10.854
71356ION    NA+36517  44.978  12.768   2.675
71357ION    NA+36518  18.008  25.940   1.772
71358ION    NA+36519  19.739  39.598  10.147
71359ION    NA+36520  29.641  42.949   3.098
71360ION    NA+36521  29.970  38.814   3.632
71361ION    NA+36522  43.056  35.402   2.200
71362ION    NA+36523   4.368  40.131   2.166
71363ION    NA+36524  29.568   5.127   0.061
71364ION    NA+36525  15.270  41.938  14.022
71365ION    NA+36526  17.591   4.833  11.461
71366ION    NA+36527   4.549   4.237  13.605
71367ION    NA+36528  40.218   2.884  12.083
71368ION    NA+36529  33.880  38.550   2.093
71369ION    NA+36530  23.251  33.657   2.926
71370ION    NA+36531  28.491  14.612  10.387
71371ION    NA+36532  40.912  24.040   1.920
71372ION    NA+36533  36.220  25.768   2.070
71373ION    NA+36534  29.460   0.892  11.196
71374ION    NA+36535  42.724  23.007  12.976
71375ION    NA+36536  32.395  15.406  13.309
71376ION    NA+36537   4.730  30.946  12.321
71377ION    NA+36538  12.846  23.540   3.942
71378ION    NA+36539  36.024  32.037   4.074
71379ION    NA+36540  34.398   7.340  12.434
71380ION    NA+36541   7.262  22.199   2.747
71381ION    NA+36542  15.373  23.413   0.007
71382ION    NA+36543  33.452  16.896   2.438
71383ION    NA+36544  18.156   2.048  11.518
71384ION    NA+36545   4.605  30.916   4.264
71385ION    NA+36546   5.360  27.623  10.782
71386ION    NA+36547   2.254  13.906  11.550
71387ION    NA+36548   4.398  38.693  12.990
71388ION    NA+36549  44.023  27.446  14.840
71389ION    NA+36550  42.179  31.471  10.373
71390ION    NA+36551  28.561  18.249   0.782
71391ION    NA+36552  19.263  19.710  11.614
71392ION    NA+36553  28.799  13.720   4.449
71393ION    NA+36554  13.435   5.875   0.079
71394ION    NA+36555   2.415   1.447  13.885
71395ION    NA+36556  39.071  27.542   1.769
71396ION    NA+36557  34.911  32.754   1.337
71397ION    NA+36558  36.561  19.262   1.139
71398ION    NA+36559  17.091  16.290  12.380
71399ION    NA+36560  11.263  30.941   1.382
71400ION    NA+36561  19.596  34.539   0.498
71401ION    NA+36562   1.759  22.742   4.159
71402ION    NA+36563  12.109  38.631  14.028
71403ION    NA+36564  16.292  10.969   2.568
71404ION    NA+36565  18.168  41.363  12.162
71405ION    NA+36566  21.695   4.027   2.094
71406ION    NA+36567   2.014  23.931  12.074
71407ION    NA+36568  22.513  33.185   3.022
71408ION    NA+36569  11.360  22.385  13.863
71409ION    NA+36570  15.057  18.359   0.678
71410ION    NA+36571  34.220  26.972   4.148
71411ION    NA+36572  34.918  31.212  13.685
71412ION    NA+36573  38.984  33.354  11.057
71413ION    NA+36574   7.891  10.515  12.746
71414ION    NA+36575  12.796  38.483   0.056
71415ION    NA+36576  36.296  36.073  12.231
71416ION    NA+36577  38.018   3.937   4.356
71417ION    NA+36578  35.506  44.064  11.107
71418ION    NA+36579  28.551  42.938   4.076
71419ION    NA+36580  21.525  31.620  11.173
71420ION    NA+36581  32.045  25.219   1.763
71421ION    NA+36582  37.074  26.982   2.731
71422ION    NA+36583   9.141  13.595   1.258
71423ION    NA+36584  26.587  13.794   4.805
71424ION    NA+36585  39.172  35.963   4.608
71425ION    NA+36586   4.227  22.178   0.641
71426ION    NA+36587  35.975  33.546  13.144
71427ION    NA+36588  15.535  40.940  13.870
71428ION    NA+36589   5.392  17.045  12.486
71429ION    NA+36590   4.771   5.289  14.241
71430ION    NA+36591  10.759   0.896  11.229
71431ION    NA+36592  12.038  10.529  14.862
71432ION    NA+36593  29.692  37.005  11.083
71433ION    NA+36594  41.882  42.157  13.019
71434ION    NA+36595   4.789  15.741   0.780
71435ION    NA+36596  13.526  18.780   2.865
71436ION    NA+36597  41.040   9.113  11.902
71437ION    NA+36598  21.016   6.472  14.302
71438ION    NA+36599  41.258  43.010  11.466
71439ION    NA+36600  40.659  17.005  12.256
71440ION    NA+36601  16.214  36.389  14.534
71441ION    NA+36602  20.338  36.477  11.458
71442ION    NA+36603  34.543  33.086  13.550
71443ION    NA+36604  43.776  34.094   2.937
71444ION    NA+36605   0.634  16.188  13.915
71445ION    NA+36606   3.736  21.589   1.382
71446ION    NA+36607   1.927  18.081  13.872
71447ION    NA+36608  24.637  40.886   1.790
71448ION    NA+36609  13.522  18.426   4.948
71449ION    NA+36610   0.221   3.075   1.485
71450ION    NA+36611  41.357  22.526   2.684
71451ION    NA+36612  21.064  37.498   0.705
71452ION    NA+36613  28.932  41.464   4.165
71453ION    NA+36614   1.235   0.206  11.439
71454ION    NA+36615  15.889  24.096   3.619
71455ION    NA+36616  10.520  40.203   4.269
71456ION    NA+36617  44.995  15.209   4.101
71457ION    NA+36618  10.625  12.367   2.618
71458ION    NA+36619  20.546   9.957  13.050
71459ION    NA+36620  17.562  33.569   4.033
71460ION    NA+36621  10.580  33.153   2.691
71461ION    NA+36622  13.585  41.518  13.610
71462ION    NA+36623  29.961  37.384   1.384
71463ION    NA+36624  24.493  40.847   3.050
71464ION    NA+36625   2.168   3.736   0.482
71465ION    NA+36626  36.844  30.994  12.760
71466ION    NA+36627  16.974  33.448  11.277
71467ION    NA+36628   2.747   2.992   2.199
71468ION    NA+36629   1.302  37.777   1.321
71469ION    NA+36630  10.809  28.078  13.069
71470ION    NA+36631  25.770  26.468   4.103
71471ION    NA+36632  38.356  42.888   1.283
71472ION    NA+36633  44.223  38.153   0.162
71473ION    NA+36634  25.455   8.109  13.573
71474ION    NA+36635   5.825  18.247  13.827
71475ION    NA+36636  40.286  33.349  11.351
71476ION    NA+36637  26.897  24.617   4.146
71477ION    NA+36638  36.655  29.129   4.325
71478ION    NA+36639  31.101  32.696   4.074
71479ION    NA+36640  21.401   8.786   4.153
71480ION    NA+36641  31.316  30.847  12.675
71481ION    NA+36642   5.324  44.010   3.939
71482ION    NA+36643  42.318  36.589  12.961
71483ION    NA+36644   9.747  19.672   1.878
71484ION    NA+36645  14.788  14.774  14.746
71485ION    NA+36646  37.123   2.518  14.215
71486ION    NA+36647  40.546   8.211   3.877
71487ION    NA+36648  21.087  15.309   4.110
71488ION    NA+36649   4.546  33.879   3.563
71489ION    NA+36650   4.630  28.097  13.483
71490ION    NA+36651  38.792  30.862  10.795
71491ION    NA+36652   1.859  38.173   4.367
71492ION    NA+36653   7.442  15.280  13.864
71493ION    NA+36654  38.031  13.277   0.274
71494ION    NA+36655  24.175  43.749  13.045
71495ION    NA+36656  28.179  39.297   3.750
71496ION    NA+36657  21.321  44.845  13.556
71497ION    NA+36658  14.112  39.037  12.257
71498ION    NA+36659   2.279   7.452  14.732
71499ION    NA+36660   3.150  11.926   0.754
71500ION    NA+36661  28.470  19.767  10.665
71501ION    NA+36662   4.040  20.839   2.957
71502ION    NA+36663  44.577  26.424  12.633
71503ION    NA+36664  15.788   2.456   0.499
71504ION    NA+36665   6.354  41.861  12.162
71505ION    NA+36666  32.678  11.708  10.665
71506ION    NA+36667  20.713  34.379  12.428
71507ION    NA+36668  40.254  12.017   4.849
71508ION    NA+36669  28.612  36.039   0.889
71509ION    NA+36670  23.432   2.029  12.338
71510ION    NA+36671  15.068  13.525  14.995
71511ION    NA+36672   6.874  19.742   4.907
71512ION    NA+36673  33.184  13.572   4.537
71513ION    NA+36674  17.604   5.094  14.231
71514ION    NA+36675  32.321   6.399  12.249
71515ION    NA+36676  22.889  13.254   2.007
71516ION    NA+36677   5.188   1.604  13.197
71517ION    NA+36678  12.724  35.150  12.936
71518ION    NA+36679  41.801   8.418  12.858
71519ION    NA+36680  28.238  29.620   4.558
71520ION    NA+36681  16.203  43.412   1.874
71521ION    NA+36682   6.974  40.992  12.020
71522ION    NA+36683   6.795  28.331  14.114
71523ION    NA+36684  39.382  34.768   0.276
71524ION    NA+36685   5.467   5.383   3.663
71525ION    NA+36686  31.480  33.845  13.926
71526ION    NA+36687  11.425  22.227  11.883
71527ION    NA+36688  36.535   4.532  11.599
71528ION    NA+36689  42.789  25.978  11.630
71529ION    NA+36690  29.607  16.989  12.769
71530ION    NA+36691  23.052  17.300   3.154
71531ION    NA+36692  15.473  43.970   2.666
71532ION    NA+36693   9.382   1.281  12.486
71533ION    NA+36694  29.428  28.236  11.068
71534ION    NA+36695  27.830  29.222   2.609
71535ION    NA+36696  30.067  34.969   0.919
71536ION    NA+36697  24.202  16.578   0.492
71537ION    NA+36698  44.187  11.145   2.172
71538ION    NA+36699  33.963  23.336  11.561
71539ION    NA+36700  38.328  12.826  11.203
71540ION    NA+36701  42.285  15.296  12.077
71541ION    NA+36702   1.399  19.144  11.422
71542ION    NA+36703  22.225  41.208   2.759
71543ION    NA+36704  26.036  26.079   1.822
71544ION    NA+36705  20.564  21.154  13.858
71545ION    NA+36706  10.722  35.458  11.516
71546ION    NA+36707  44.640  18.075   2.957
71547ION    NA+36708  14.168  23.676   0.710
71548ION    NA+36709  29.912  42.665   2.178
71549ION    NA+36710  44.814  44.422  14.525
71550ION    NA+36711  12.078  39.363  10.092
71551ION    NA+36712  22.194  32.451  13.494
71552ION    NA+36713  21.242  41.883   2.147
71553ION    NA+36714   0.943  22.461  12.928
71554ION    NA+36715  42.308   2.826   2.215
71555ION    NA+36716  28.189   9.325  12.625
71556ION    NA+36717  27.091  30.924  11.056
71557ION    NA+36718  36.737  18.235   2.481
71558ION    NA+36719  31.028  28.119   4.697
71559ION    NA+36720  20.039  20.071  13.960
71560ION    NA+36721  42.197  27.578   2.280
71561ION    NA+36722  27.494  30.820   3.752
71562ION    NA+36723  13.096  12.627  11.940
71563ION    NA+36724  30.635  14.851  12.000
71564ION    NA+36725  34.255  40.854  14.524
71565ION    NA+36726  30.071  44.421  14.205
71566ION    NA+36727  17.237  41.922   3.580
71567ION    NA+36728  12.396  31.053   1.713
71568ION    NA+36729  12.117  44.445  10.756
71569ION    NA+36730   0.589  22.814  14.398
71570ION    NA+36731   0.471  13.508   2.218
71571ION    NA+36732   5.149  16.659  14.253
71572ION    NA+36733   0.828   0.824  12.112
71573ION    NA+36734  14.120  44.196   0.368
71574ION    NA+36735  43.040   9.787  10.810
71575ION    NA+36736  30.801  16.633   1.869
71576ION    NA+36737   9.997  40.600   2.128
71577ION    NA+36738  17.026  34.519   2.912
71578ION    NA+36739  13.776   6.621  10.930
71579ION    NA+36740  40.590   6.063  14.369
71580ION    NA+36741   8.561  20.613  11.856
71581ION    NA+36742  37.369   7.430   2.361
71582ION    NA+36743   2.438  44.001   1.450
71583ION    NA+36744   0.117  28.788   1.581
71584ION    NA+36745  37.164   3.841  13.043
71585ION    NA+36746  32.022  29.781   2.356
71586ION    NA+36747  20.517  11.719   2.182
71587ION    NA+36748  43.783  30.874   1.297
71588ION    NA+36749  23.558  37.838  12.103
71589ION    NA+36750   9.718  27.631  10.780
71590ION    NA+36751  14.332  32.974  12.744
71591ION    NA+36752  13.449  16.026   2.943
71592ION    NA+36753  28.127  17.411   4.629
71593ION    NA+36754  11.200  17.018  14.466
71594ION    NA+36755  19.432  44.032   0.590
71595ION    NA+36756   9.620  41.200  13.811
71596ION    NA+36757   6.556   9.355   4.604
71597ION    NA+36758  42.633   9.157  14.877
71598ION    NA+36759  17.039  43.184   1.166
71599ION    NA+36760  29.471   9.311  12.039
71600ION    NA+36761   7.617  33.959  10.907
71601ION    NA+36762  11.800  25.474   3.737
71602ION    NA+36763  32.654   0.905  13.115
71603ION    NA+36764   5.797  10.118  11.631
71604ION    NA+36765  15.005  43.285  14.243
71605ION    NA+36766  16.777  27.755   1.952
71606ION    NA+36767  31.490  34.821  13.069
71607ION    NA+36768  17.895  16.598   3.134
71608ION    NA+36769   0.514  32.313  12.948
71609ION    NA+36770   7.813  26.658  10.329
71610ION    NA+36771  26.577   7.603   5.014
71611ION    NA+36772  30.372  29.600  10.987
71612ION    NA+36773  30.090  40.564   0.449
71613ION    NA+36774  25.954   6.331  13.004
71614ION    NA+36775  20.018  25.654  11.968
71615ION    NA+36776  34.693  41.652   1.204
71616ION    NA+36777  40.083  26.725   2.502
71617ION    NA+36778  13.422  20.032   0.628
71618ION    NA+36779  26.494  32.041   2.205
71619ION    NA+36780   4.748  38.595  11.687
71620ION    NA+36781   5.275  32.157  12.795
71621ION    NA+36782  37.895  38.863   9.605
71622ION    NA+36783   9.797   2.822   3.242
71623ION    NA+36784  38.668  31.979  14.104
71624ION    NA+36785  14.621   6.596   0.393
71625ION    NA+36786  38.204   7.223   1.835
71626ION    NA+36787  34.886   9.701   4.323
71627ION    NA+36788  31.208   2.595  14.417
71628ION    NA+36789  14.476  39.290   1.429
71629ION    NA+36790   9.408  21.672   1.032
71630ION    NA+36791  21.702   1.615  12.053
71631ION    NA+36792  33.481   6.859   4.737
71632ION    NA+36793   4.227  20.789   0.596
71633ION    NA+36794   9.444   5.538  12.944
71634ION    NA+36795  29.392  40.636  10.738
71635ION    NA+36796  31.086  44.704   5.059
71636ION    NA+36797   5.393  27.576   3.022
71637ION    NA+36798  29.582   1.126   4.167
71638ION    NA+36799  28.026  23.987   5.471
71639ION    NA+36800  26.160  24.945  14.838
71640ION    NA+36801  37.329  10.225  12.818
71641ION    NA+36802  39.431   3.639  11.177
71642ION    NA+36803  36.468  21.114  12.649
71643ION    NA+36804  36.872  32.272  12.481
71644ION    NA+36805   6.580  21.550  13.361
71645ION    NA+36806  39.048  36.034  13.380
71646ION    NA+36807  43.537  40.965   3.956
71647ION    NA+36808  25.539  30.325  14.466
71648ION    NA+36809  25.688  21.706  10.365
71649ION    NA+36810  10.392   5.911   0.081
71650ION    NA+36811  19.743  33.566   0.072
71651ION    NA+36812  32.624   5.557  11.749
71652ION    NA+36813  39.905  36.426  11.713
71653ION    NA+36814   0.118   6.169   1.929
71654ION    NA+36815  21.790  30.597  14.785
71655ION    NA+36816   4.920  26.456   0.406
71656ION    NA+36817  19.833  22.362  13.903
71657ION    NA+36818  18.278  11.986  10.816
71658ION    NA+36819  34.070  26.727  10.706
71659ION    NA+36820  28.182   5.604   4.162
71660ION    NA+36821   6.123   2.145  11.872
71661ION    NA+36822  20.099  36.561  14.750
71662ION    NA+36823  28.562  24.442  12.014
71663ION    NA+36824  10.975  34.378  14.344
71664ION    NA+36825  34.393  27.939  13.393
71665ION    NA+36826  24.302  32.690   3.225
71666ION    NA+36827  32.322  38.801  13.557
71667ION    NA+36828  30.713  35.047   4.106
71668ION    NA+36829   8.164   5.065   3.488
71669ION    NA+36830  23.296   0.394  11.148
71670ION    NA+36831  19.284  24.062   2.836
71671ION    NA+36832   0.754  19.959   1.968
71672ION    NA+36833  39.966   4.920  13.249
71673ION    NA+36834   7.352  15.199   0.233
71674ION    NA+36835  29.424   9.182  10.511
71675ION    NA+36836  27.143  25.142   0.079
71676ION    NA+36837  33.751  43.223  13.094
71677ION    NA+36838   6.452   7.919  11.715
71678ION    NA+36839   8.820  22.196   2.593
71679ION    NA+36840  41.663  37.094   4.683
71680ION    NA+36841   7.294  42.428   0.677
71681ION    NA+36842   8.020  30.346  11.148
71682ION    NA+36843  34.204   6.442  13.891
71683ION    NA+36844  36.046  34.968  11.105
71684ION    NA+36845  26.257   5.966  10.893
71685ION    NA+36846  31.480  24.059  12.030
71686ION    NA+36847   6.828  44.706  11.140
71687ION    NA+36848  35.417  20.087   0.091
71688ION    NA+36849  14.205  20.090   2.068
71689ION    NA+36850  34.105  38.723  11.753
71690ION    NA+36851  37.328  21.478  10.696
71691ION    NA+36852  26.660  24.190  11.094
71692ION    NA+36853   1.935  29.391   2.777
71693ION    NA+36854  39.342  17.913  14.762
71694ION    NA+36855  24.719  42.480   4.611
71695ION    NA+36856   0.421  41.833  11.057
71696ION    NA+36857  43.286   0.395  13.357
71697ION    NA+36858  12.342   0.041  12.303
71698ION    NA+36859   3.751  25.467   9.792
71699ION    NA+36860  43.118   3.694  14.946
71700ION    NA+36861  18.865  30.937  12.455
71701ION    NA+36862  44.764  13.353  13.039
71702ION    NA+36863  32.978  27.148  13.472
71703ION    NA+36864  25.498  44.147   3.520
71704ION    NA+36865  24.836  37.281  13.711
71705ION    NA+36866   7.148  42.468  12.213
71706ION    NA+36867  19.961  43.858  13.802
71707ION    NA+36868  41.720  43.355   1.414
71708ION    NA+36869   4.995  32.819  13.490
71709ION    NA+36870  27.956  39.154  14.865
71710ION    NA+36871  24.059  16.978   3.403
71711ION    NA+36872  35.916  21.671  10.651
71712ION    NA+36873  40.589  28.019  11.664
71713ION    NA+36874   2.794  36.801   2.851
71714ION    NA+36875   7.842  40.342   3.815
71715ION    NA+36876   7.888  42.807   1.387
71716ION    NA+36877  34.478  20.682   4.649
71717ION    NA+36878  18.150  14.988   1.842
71718ION    NA+36879   5.827  37.074   2.566
71719ION    NA+36880   4.227  22.683  12.724
71720ION    NA+36881  40.329  12.053  10.683
71721ION    NA+36882  27.566   3.618  11.786
71722ION    NA+36883  36.605  10.368  11.419
71723ION    NA+36884  39.500  26.345  11.747
71724ION    NA+36885  22.906  31.501   3.638
71725ION    NA+36886   1.363  13.183   1.843
71726ION    NA+36887   5.234   6.887  11.696
71727ION    NA+36888  17.462  23.653  12.940
71728ION    NA+36889  17.566   8.889  14.979
71729ION    NA+36890  17.608  20.611   1.364
71730ION    NA+36891  20.072  10.891   3.208
71731ION    NA+36892  25.390  35.892   2.724
71732ION    NA+36893  25.347  33.202  13.374
71733ION    NA+36894  24.832  42.464   1.200
71734ION    NA+36895  37.023  16.898   0.385
71735ION    NA+36896   9.738  13.566   3.084
71736ION    NA+36897  37.685  25.056  10.582
71737ION    NA+36898  43.881  30.367  12.508
71738ION    NA+36899  40.407  10.098  12.104
71739ION    NA+36900  34.229   1.063   2.316
71740ION    NA+36901   2.495  36.432  12.245
71741ION    NA+36902   2.171  16.368  14.702
71742ION    NA+36903  34.390  39.364   0.581
71743ION    NA+36904  18.801  28.522  14.770
71744ION    NA+36905  30.675  21.044  10.563
71745ION    NA+36906  17.786   0.475  13.895
71746ION    NA+36907  43.005  41.859  12.873
71747ION    NA+36908  41.266  32.470  12.631
71748ION    NA+36909  18.989  16.141  14.711
71749ION    NA+36910  16.524  22.800  12.435
71750ION    NA+36911  26.696  19.365  14.385
71751ION    NA+36912   2.702  11.182  11.077
71752ION    NA+36913  24.882  10.609   0.736
71753ION    NA+36914  10.935  20.304   0.331
71754ION    NA+36915   2.719  33.067  11.582
71755ION    NA+36916   5.702  13.104  12.133
71756ION    NA+36917  14.973  31.892   2.501
71757ION    NA+36918  41.613  25.101  11.693
71758ION    NA+36919   5.237  26.542   3.290
71759ION    NA+36920  10.401  20.270  13.051
71760ION    NA+36921  29.451  21.238   1.457
71761ION    NA+36922  38.586  10.681   0.911
71762ION    NA+36923   3.353   2.667   2.768
71763ION    NA+36924  15.842  15.648  13.308
71764ION    NA+36925   2.085  22.603  11.639
71765ION    NA+36926  37.532  10.505   2.774
71766ION    NA+36927   3.696  23.399  12.771
71767ION    NA+36928   6.678  18.527   3.101
71768ION    NA+36929  16.388  23.682   1.165
71769ION    NA+36930  26.521  23.960   1.884
71770ION    NA+36931  17.509   1.417   5.086
71771ION    NA+36932  42.858   4.447   1.327
71772ION    NA+36933  32.439  14.015   4.002
71773ION    NA+36934   8.809  24.630   3.872
71774ION    NA+36935  30.458  40.436  12.972
71775ION    NA+36936  35.000  34.482   1.419
71776ION    NA+36937   5.812   8.398   0.785
71777ION    NA+36938   2.015  19.195  14.881
71778ION    NA+36939  19.242   5.166   2.164
71779ION    NA+36940  41.030  33.591  10.729
71780ION    NA+36941   6.761  22.750   0.348
71781ION    NA+36942  14.251   3.065   4.458
71782ION    NA+36943  10.818  16.586   0.771
71783ION    NA+36944  11.253   9.782   0.748
71784ION    NA+36945  17.753   8.451   4.901
71785ION    NA+36946  34.877  15.859  13.485
71786ION    NA+36947  28.132  33.380   0.241
71787ION    NA+36948   1.666  18.611  12.261
71788ION    NA+36949  16.108   9.589  13.926
71789ION    NA+36950  35.897  42.108   1.183
71790ION    NA+36951  19.716   8.622   1.772
71791ION    NA+36952  16.855  19.261  13.527
71792ION    NA+36953   1.398  13.268   3.690
71793ION    NA+36954  10.232   1.064   4.529
71794ION    NA+36955  16.651  34.933   2.082
71795ION    NA+36956  39.991  27.589   4.549
71796ION    NA+36957  25.470  37.869   2.232
71797ION    NA+36958  32.631  42.284  14.968
71798ION    NA+36959   5.818  35.622  14.558
71799ION    NA+36960  11.296  36.296   3.306
71800ION    NA+36961  12.268  26.682   2.746
71801ION    NA+36962  12.434   3.454   1.842
71802ION    NA+36963  21.628  16.939   2.042
71803ION    NA+36964  32.559  23.067  11.987
71804ION    NA+36965   5.890  31.080  10.885
71805ION    NA+36966  27.910  24.855   1.876
71806ION    NA+36967  30.240  12.422  14.507
71807ION    NA+36968  23.400   7.748   4.782
71808ION    NA+36969  32.305  14.084  12.563
71809ION    NA+36970  18.830  23.692  14.300
71810ION    NA+36971  44.842   1.254  12.623
71811ION    NA+36972  28.042  41.790  12.500
71812ION    NA+36973  43.103   7.588  11.613
71813ION    NA+36974  35.040  37.846   0.281
71814ION    NA+36975  19.669  23.054  12.800
71815ION    NA+36976  29.541  34.237   3.408
71816ION    NA+36977  37.349   0.888   5.468
71817ION    NA+36978  16.547  40.746  14.264
71818ION    NA+36979  14.363  13.078   1.812
71819ION    NA+36980  39.274   5.349  10.718
71820ION    NA+36981  11.818  35.611   3.063
71821ION    NA+36982  20.599   3.019  12.071
71822ION    NA+36983  25.320   6.879  11.816
71823ION    NA+36984  11.008   0.511   4.227
71824ION    NA+36985  40.198   6.373   2.706
71825ION    NA+36986  26.738  22.567   2.529
71826ION    NA+36987  15.865  21.526   1.403
71827ION    NA+36988  16.074  37.917  11.578
71828ION    NA+36989  14.412  33.539  13.565
71829ION    NA+36990   3.279  15.304   2.829
71830ION    NA+36991  16.620  10.177   0.355
71831ION    NA+36992  24.478   5.412  13.908
71832ION    NA+36993  35.055  16.724  14.385
71833ION    NA+36994  43.283  27.520   3.906
71834ION    NA+36995  41.026  10.913   1.268
71835ION    NA+36996  17.304  26.647  14.442
71836ION    NA+36997   6.176  40.261   2.975
71837ION    NA+36998  15.571  20.639   3.727
71838ION    NA+36999   5.420  35.922   0.827
71839ION    NA+37000  36.387  42.506  13.099
71840ION    NA+37001  19.152  36.701  10.680
71841ION    NA+37002  10.997  31.713   0.749
71842ION    NA+37003  23.514   9.184   4.730
71843ION    NA+37004   5.565  22.736  12.978
71844ION    NA+37005  37.578  32.473   3.202
71845ION    NA+37006  11.345  39.277  14.223
71846ION    NA+37007   2.664  23.447  12.660
71847ION    NA+37008  42.404   0.316  13.143
71848ION    NA+37009  44.446   9.353   0.377
71849ION    NA+37010  29.497  18.067   2.357
71850ION    NA+37011  27.155  16.585   2.616
71851ION    NA+37012  42.447  11.146  14.956
71852ION    NA+37013  41.182   5.373  14.345
71853ION    NA+37014  17.657  24.174  11.078
71854ION    NA+37015   8.250   9.888  10.803
71855ION    NA+37016   3.760  42.190  14.094
71856ION    NA+37017   4.182  44.859  14.896
71857ION    NA+37018  25.890  10.890   0.902
71858ION    NA+37019  27.357  43.842  11.715
71859ION    NA+37020  28.425   8.278  14.116
71860ION    NA+37021   7.167  37.680   2.612
71861ION    NA+37022   8.008  20.805   9.766
71862ION    NA+37023  37.643  23.686  10.680
71863ION    NA+37024   4.040  33.065  13.326
71864ION    NA+37025  44.244  14.082  11.146
71865ION    NA+37026  44.268  39.417   0.212
71866ION    NA+37027  20.550   1.389   2.812
71867ION    NA+37028   7.250  40.220   2.154
71868ION    NA+37029  27.219  36.049   2.189
71869ION    NA+37030  17.754  24.415   3.703
71870ION    NA+37031   1.418  21.583  14.491
71871ION    NA+37032  20.440  37.496  14.278
71872ION    NA+37033   3.982   5.101  11.746
71873ION    NA+37034  25.414   8.141   4.417
71874ION    NA+37035  12.314  32.406  11.196
71875ION    NA+37036  33.943  29.997   1.675
71876ION    NA+37037  39.222  32.127   5.106
71877ION    NA+37038  27.650  14.014   1.661
71878ION    NA+37039   7.106  39.028  11.158
71879ION    NA+37040   1.964  13.782  14.447
71880ION    NA+37041   1.299  18.692   4.229
71881ION    NA+37042  17.764  27.065   3.229
71882ION    NA+37043   2.299  39.372   2.109
71883ION    NA+37044  14.148  32.825  11.172
71884ION    NA+37045   1.975   2.889   1.572
71885ION    NA+37046   7.975  43.981   0.718
71886ION    NA+37047  33.386  43.546   3.382
71887ION    NA+37048   7.876   5.424   4.834
71888ION    NA+37049  25.380  37.874   0.920
71889ION    NA+37050   2.531   6.564  11.175
71890ION    NA+37051  41.395  37.900   1.366
71891ION    NA+37052  32.588  19.717  14.156
71892ION    NA+37053  28.686  38.583  10.759
71893ION    NA+37054  31.747   1.968   1.827
71894ION    NA+37055   3.175   5.740   4.627
71895ION    NA+37056  10.950  23.389   3.576
71896ION    NA+37057  35.359  16.014  10.450
71897ION    NA+37058  15.295  17.718  13.533
71898ION    NA+37059  17.269  40.692   1.993
71899ION    NA+37060  38.042  15.581  14.321
71900ION    NA+37061  31.626   1.926   0.036
71901ION    NA+37062   2.340   2.906   3.597
71902ION    NA+37063  44.501  15.868   3.001
71903ION    NA+37064  19.668  27.463  11.131
71904ION    NA+37065  15.584   8.351  13.119
71905ION    NA+37066  20.861  41.650   0.552
71906ION    NA+37067   3.111  34.262   4.884
71907ION    NA+37068  40.016   6.862   1.025
71908ION    NA+37069  28.584   0.910   0.511
71909ION    NA+37070  37.046  43.868   4.697
71910ION    NA+37071  23.114  26.649  13.445
71911ION    NA+37072  33.890  14.710  14.541
71912ION    NA+37073  29.447  17.578  13.561
71913ION    NA+37074  23.846  43.577  10.823
71914ION    NA+37075  10.807   8.388   3.848
71915ION    NA+37076  34.400  30.163   3.741
71916ION    NA+37077  35.529  37.710   1.073
71917ION    NA+37078  42.929  35.976  12.933
71918ION    NA+37079  21.314  25.632  13.477
71919ION    NA+37080  40.001  32.267  14.654
71920ION    NA+37081  38.995  30.414   2.982
71921ION    NA+37082  26.367  37.873   9.379
71922ION    NA+37083   6.079  12.170  12.124
71923ION    NA+37084  36.264  28.511  12.851
71924ION    NA+37085   5.219  34.025  12.620
71925ION    NA+37086   1.178  44.006  12.737
71926ION    NA+37087   1.713  23.035  13.403
71927ION    NA+37088  34.985  23.780  10.777
71928ION    NA+37089   8.979   7.541   2.417
71929ION    NA+37090  13.302   8.746   4.190
71930ION    NA+37091  36.189  13.251   4.126
71931ION    NA+37092   2.030  17.992   2.701
71932ION    NA+37093   4.466   4.764   2.843
71933ION    NA+37094   5.161  31.597   2.524
71934ION    NA+37095  31.071  11.347  13.798
71935ION    NA+37096  17.596  10.113   4.391
71936ION    NA+37097   8.618   0.772   2.314
71937ION    NA+37098  25.245  32.419   3.421
71938ION    NA+37099  10.782  23.002  12.173
71939ION    NA+37100   0.754  28.689  14.589
71940ION    NA+37101   1.423  18.534  13.137
71941ION    NA+37102   5.850  37.070   4.392
71942ION    NA+37103  10.806  32.860   0.251
71943ION    NA+37104  31.077   6.951   1.320
71944ION    NA+37105  16.232  14.561   0.035
71945ION    NA+37106  29.620  22.164   3.727
71946ION    NA+37107  36.079  31.493  11.584
71947ION    NA+37108   8.674  29.181   2.269
71948ION    NA+37109   3.908  17.375  14.439
71949ION    NA+37110  15.071  16.297   3.538
71950ION    NA+37111  33.107  37.432  12.668
71951ION    NA+37112  25.281  17.153   2.778
71952ION    NA+37113   8.545   0.262  14.760
71953ION    NA+37114  37.470  15.584   3.446
71954ION    NA+37115  33.051  18.734   2.733
71955ION    NA+37116  37.804  41.943   4.483
71956ION    NA+37117  16.301  38.254   0.931
71957ION    NA+37118   3.436   8.366   1.385
71958ION    NA+37119  12.368  23.124   3.123
71959ION    NA+37120  30.857  32.319   0.517
71960ION    NA+37121   5.461  29.363   1.528
71961ION    NA+37122  27.603  23.803   4.795
71962ION    NA+37123   8.011  13.075  10.725
71963ION    NA+37124  31.522  13.542   1.172
71964ION    NA+37125  11.539   7.483  13.344
71965ION    NA+37126  38.782  33.577   3.306
71966ION    NA+37127  20.456  27.766   0.926
71967ION    NA+37128  20.277   8.773  13.568
71968ION    NA+37129  43.700  41.445  12.461
71969ION    NA+37130  10.102   5.193  12.391
71970ION    NA+37131  11.834  16.943   0.098
71971ION    NA+37132  28.243  28.319   2.732
71972ION    NA+37133  25.933  27.661   0.212
71973ION    NA+37134  13.388  38.778   5.310
71974ION    NA+37135  29.252  11.752   9.394
71975ION    NA+37136  28.409  26.157   1.764
71976ION    NA+37137  23.111  41.610   1.197
71977ION    NA+37138  16.161  24.945  12.015
71978ION    NA+37139   2.059  28.008  14.219
71979ION    NA+37140  10.295  31.483   1.563
71980ION    NA+37141  27.899  18.334   4.153
71981ION    NA+37142  19.253  21.696  10.128
71982ION    NA+37143   9.234  19.504  12.294
71983ION    NA+37144  26.763  23.564  14.894
71984ION    NA+37145  15.503  16.905  13.625
71985ION    NA+37146  12.368  13.219   1.185
71986ION    NA+37147   2.307  37.295  11.681
71987ION    NA+37148  36.238  22.040   0.529
71988ION    NA+37149  43.294   6.370  13.701
71989ION    NA+37150  33.357  23.479  14.107
71990ION    NA+37151  34.612  13.424   0.688
71991ION    NA+37152  40.762  13.235   3.229
71992ION    NA+37153  33.773  15.670   1.695
71993ION    NA+37154   4.683  34.834   3.829
71994ION    NA+37155  44.583  24.406  12.215
71995ION    NA+37156  31.609  15.747   0.317
71996ION    NA+37157  36.052  40.045  14.443
71997ION    NA+37158  43.972  31.348  14.447
71998ION    NA+37159  16.884  30.332  14.323
71999ION    NA+37160   3.561  38.329  10.722
72000ION    NA+37161  10.784  18.685   2.932
72001ION    NA+37162  15.036   9.108   1.180
72002ION    NA+37163  35.315  26.841  10.298
72003ION    NA+37164  29.710  27.319  10.742
72004ION    NA+37165   4.538  20.493   1.585
72005ION    NA+37166  43.893  17.020  13.173
72006ION    NA+37167  16.288   0.173  13.893
72007ION    NA+37168   5.321  43.654   3.005
72008ION    NA+37169   6.594   1.687   2.058
72009ION    NA+37170  23.937  42.592   0.771
72010ION    NA+37171  14.136  34.451  13.910
72011ION    NA+37172  39.503  15.211   2.864
72012ION    NA+37173  38.679  29.958   0.869
72013ION    NA+37174  28.873   7.761   2.730
72014ION    NA+37175  31.079  13.594   4.899
72015ION    NA+37176  35.929  12.127  14.782
72016ION    NA+37177  12.555  22.238   3.548
72017ION    NA+37178  24.234  36.626   1.653
72018ION    NA+37179  11.946  23.417   4.552
72019ION    NA+37180  28.557   0.357   3.166
72020ION    NA+37181   0.457  14.221  13.842
72021ION    NA+37182  33.017   3.408  10.701
72022ION    NA+37183  30.509  21.268  14.973
72023ION    NA+37184  22.654   0.259  14.773
72024ION    NA+37185  14.054  16.102   0.343
72025ION    NA+37186  12.321  17.787   0.514
72026ION    NA+37187  20.429  10.175  10.408
72027ION    NA+37188  41.954   7.895   1.262
72028ION    NA+37189   9.349   8.708  12.688
72029ION    NA+37190  34.973  26.688  12.951
72030ION    NA+37191  25.415  15.572   2.808
72031ION    NA+37192  35.851  26.614   1.318
72032ION    NA+37193  31.357   8.657  12.179
72033ION    NA+37194   7.935  37.010   2.823
72034ION    NA+37195  18.577  10.084   3.262
72035ION    NA+37196   2.821  43.699   3.072
72036ION    NA+37197   2.206  36.870  13.424
72037ION    NA+37198  43.340   7.373   4.520
72038ION    NA+37199  36.853   9.923  13.542
72039ION    NA+37200  35.819   5.194  10.668
72040ION    NA+37201  29.752  42.935  14.908
72041ION    NA+37202   6.427  39.551   3.737
72042ION    NA+37203  29.675   5.181   4.036
72043ION    NA+37204  43.938  27.836  13.922
72044ION    NA+37205   6.429  20.299   4.485
72045ION    NA+37206  21.587  15.649   2.051
72046ION    NA+37207  28.503  36.847   0.479
72047ION    NA+37208  14.329  17.469   0.503
72048ION    NA+37209   2.584  17.790   5.476
72049ION    NA+37210  22.449  28.063  11.659
72050ION    NA+37211  43.374  41.498   4.690
72051ION    NA+37212   1.834   8.218   0.196
72052ION    NA+37213   2.610   8.085   4.293
72053ION    NA+37214  44.598   3.834  11.223
72054ION    NA+37215  14.530   2.614   3.391
72055ION    NA+37216  30.452   3.074  13.971
72056ION    NA+37217  27.627  40.539   3.637
72057ION    NA+37218  41.627   5.322   1.660
72058ION    NA+37219  18.941  38.413   0.572
72059ION    NA+37220  44.167  21.813  13.849
72060ION    NA+37221  26.227   8.441   0.466
72061ION    NA+37222  41.145  33.401  14.591
72062ION    NA+37223  25.305  34.486  12.545
72063ION    NA+37224  19.730  35.433   2.733
72064ION    NA+37225  21.073  34.650  13.405
72065ION    NA+37226  10.971  26.801  11.129
72066ION    NA+37227  30.215  11.544   3.671
72067ION    NA+37228  43.314  31.300  13.534
72068ION    NA+37229  36.384   1.659  11.670
72069ION    NA+37230  41.718  13.785   4.279
72070ION    NA+37231   2.185  41.337  13.435
72071ION    NA+37232  44.603  39.793   1.835
72072ION    NA+37233   5.570  34.242  11.819
72073ION    NA+37234  29.993  23.755  11.918
72074ION    NA+37235   2.367  23.910   3.636
72075ION    NA+37236  43.977  24.009   0.400
72076ION    NA+37237   2.045   3.612   4.634
72077ION    NA+37238  32.571  24.052   3.228
72078ION    NA+37239  30.400  44.241   2.571
72079ION    NA+37240   9.773   3.422  12.047
72080ION    NA+37241  26.241  19.275  13.498
72081ION    NA+37242  36.313  44.808  11.999
72082ION    NA+37243  22.895  44.581  11.571
72083ION    NA+37244  25.673  30.282   3.712
72084ION    NA+37245  13.552  41.557   3.941
72085ION    NA+37246  13.153  39.385   3.201
72086ION    NA+37247   0.435   5.826  10.703
72087ION    NA+37248  32.253  17.516   3.402
72088ION    NA+37249  33.023  43.663  11.210
72089ION    NA+37250  41.125  23.132  13.468
72090ION    NA+37251  28.059  38.246   0.273
72091ION    NA+37252  14.862  38.664   0.856
72092ION    NA+37253  24.176   7.350   4.137
72093ION    NA+37254  40.588  19.456   1.311
72094ION    NA+37255  15.321  24.199   2.156
72095ION    NA+37256  32.185   5.107   0.596
72096ION    NA+37257  22.558   1.008  10.755
72097ION    NA+37258   0.992  40.947   4.211
72098ION    NA+37259  24.744  36.628  13.092
72099ION    NA+37260   8.984   8.031   4.487
72100ION    NA+37261  16.073  27.695  14.837
72101ION    NA+37262   2.513  33.597   1.975
72102ION    NA+37263   1.451  17.908  11.129
72103ION    NA+37264  20.873   4.767  12.989
72104ION    NA+37265   2.233   4.160  14.677
72105ION    NA+37266   7.894  22.003  11.266
72106ION    NA+37267  26.069  13.087  13.359
72107ION    NA+37268  18.816  10.173   1.725
72108ION    NA+37269  18.846  35.332   2.602
72109ION    NA+37270  34.933   6.706  12.993
72110ION    NA+37271  33.730   8.760  10.616
72111ION    NA+37272  40.814  10.886   2.737
72112ION    NA+37273  15.595   6.716   3.378
72113ION    NA+37274  40.389  31.993   1.899
72114ION    NA+37275  14.443   9.456   0.061
72115ION    NA+37276  33.143  37.128   4.826
72116ION    NA+37277   2.666  44.268  14.119
72117ION    NA+37278   0.181   0.412   4.178
72118ION    NA+37279   5.830  10.019  14.372
72119ION    NA+37280  42.810  26.056   0.316
72120ION    NA+37281  32.100  27.380   3.957
72121ION    NA+37282   6.470  25.336   3.283
72122ION    NA+37283  30.434  19.770  14.972
72123ION    NA+37284  44.226  25.543  13.940
72124ION    NA+37285   2.868  13.238   1.488
72125ION    NA+37286  14.402   5.896  11.218
72126ION    NA+37287  14.885   3.293   2.963
72127ION    NA+37288   3.413   1.175   2.917
72128ION    NA+37289  36.303  29.816   0.032
72129ION    NA+37290  42.091  14.300  10.700
72130ION    NA+37291  36.438   6.180   4.304
72131ION    NA+37292  38.791  17.528  12.524
72132ION    NA+37293   6.502  34.638  11.629
72133ION    NA+37294  29.924  41.820   3.246
72134ION    NA+37295   9.222  23.277  10.970
72135ION    NA+37296  41.948  31.650   0.750
72136ION    NA+37297  41.303  36.385   3.906
72137ION    NA+37298  43.641  20.446  12.938
72138ION    NA+37299  40.647  11.801  11.946
72139ION    NA+37300  13.677  36.751  14.159
72140ION    NA+37301   8.910  11.905   0.029
72141ION    NA+37302  38.416  43.103  12.487
72142ION    NA+37303  21.035  26.523   3.757
72143ION    NA+37304   6.330   4.713  11.128
72144ION    NA+37305  24.508  34.506   0.831
72145ION    NA+37306  40.754  31.627  11.583
72146ION    NA+37307  17.142   8.392  13.888
72147ION    NA+37308  27.420  39.439  13.393
72148ION    NA+37309   4.787   9.296  14.333
72149ION    NA+37310   5.754  29.187   0.335
72150ION    NA+37311  29.592   7.631  14.396
72151ION    NA+37312  32.050  27.301   2.781
72152ION    NA+37313  25.248  28.517  12.516
72153ION    NA+37314   2.147  20.156   3.630
72154ION    NA+37315  12.171  12.284   4.689
72155ION    NA+37316  41.318  31.254   3.019
72156ION    NA+37317  42.670   1.168  11.789
72157ION    NA+37318  43.213  15.408   1.819
72158ION    NA+37319  12.777  33.022   1.407
72159ION    NA+37320  15.609  15.677   2.858
72160ION    NA+37321  32.384  43.643  13.984
72161ION    NA+37322   3.381   9.509  10.213
72162ION    NA+37323  36.334  39.826   2.175
72163ION    NA+37324   0.885  24.489  13.913
72164ION    NA+37325  39.082  16.325  11.979
72165ION    NA+37326  17.634  12.600   4.711
72166ION    NA+37327  21.483   4.975  14.306
72167ION    NA+37328   0.220   4.113   4.038
72168ION    NA+37329  42.808  19.413   5.092
72169ION    NA+37330   2.722  39.622   4.228
72170ION    NA+37331  38.991   5.889  10.002
72171ION    NA+37332   8.715   3.023   1.232
72172ION    NA+37333  35.793  13.496   1.479
72173ION    NA+37334  10.600   4.537  12.143
72174ION    NA+37335  22.283  15.609   0.768
72175ION    NA+37336  24.469   7.474  12.607
72176ION    NA+37337  25.367  44.752   4.634
72177ION    NA+37338  24.972   4.793   4.273
72178ION    NA+37339  21.154  32.973   1.826
72179ION    NA+37340  18.485   1.592   0.196
72180ION    NA+37341  37.131  34.402  10.703
72181ION    NA+37342  25.134  31.530   4.500
72182ION    NA+37343   3.095  21.586  11.961
72183ION    NA+37344   4.828  16.700  11.024
72184ION    NA+37345  29.103   6.346   4.210
72185ION    NA+37346  38.200   0.784   4.556
72186ION    NA+37347  17.382  44.283  10.602
72187ION    NA+37348  13.437  29.186   1.772
72188ION    NA+37349  24.426  10.144  12.460
72189ION    NA+37350   1.121  11.862   1.922
72190ION    NA+37351  43.562  32.899   0.960
72191ION    NA+37352   5.224  28.470   2.607
72192ION    NA+37353  24.700  39.833   1.825
72193ION    NA+37354  26.448  12.567   0.485
72194ION    NA+37355  11.156  31.429   3.147
72195ION    NA+37356  37.317   7.859  14.293
72196ION    NA+37357  41.693   2.863  11.073
72197ION    NA+37358  32.599   2.089  14.876
72198ION    NA+37359  44.330  23.000   3.039
72199ION    NA+37360  21.186  42.920  10.914
72200ION    NA+37361   9.762  32.481  12.548
72201ION    NA+37362  11.814   2.295   3.353
72202ION    NA+37363  10.683  17.824  11.622
72203ION    NA+37364  31.817  15.695  11.773
72204ION    NA+37365  44.464   0.975   2.453
72205ION    NA+37366  43.485  22.567  13.521
72206ION    NA+37367   4.045   1.332  12.496
72207ION    NA+37368  16.826  42.772  14.081
72208ION    NA+37369   0.985   7.898  13.306
72209ION    NA+37370  12.816  25.046   0.847
72210ION    NA+37371   1.110   4.917   3.470
72211ION    NA+37372  20.256  43.966   0.901
72212ION    NA+37373  40.792  35.063   4.063
72213ION    NA+37374  36.400   1.357  12.853
72214ION    NA+37375  32.360  22.542   0.934
72215ION    NA+37376  14.029  15.906   4.146
72216ION    NA+37377   7.941  36.950   4.534
72217ION    NA+37378  31.077  22.985  12.446
72218ION    NA+37379  15.208  17.047   1.276
72219ION    NA+37380  13.890  31.911  14.323
72220ION    NA+37381   1.399   4.810  11.211
72221ION    NA+37382  16.589  10.535   1.343
72222ION    NA+37383  30.304   8.953  12.048
72223ION    NA+37384   7.342  14.618  11.949
72224ION    NA+37385  23.847  44.880  11.626
72225ION    NA+37386  15.149   2.567  12.366
72226ION    NA+37387  19.486  38.028   1.062
72227ION    NA+37388  14.681   3.282   1.969
72228ION    NA+37389  12.133  17.971  11.660
72229ION    NA+37390  30.409  17.305   3.131
72230ION    NA+37391  26.399   1.402   0.819
72231ION    NA+37392  36.872  15.245   4.775
72232ION    NA+37393  19.733   6.800  13.068
72233ION    NA+37394  44.715  24.292   2.267
72234ION    NA+37395   3.175  21.974   4.603
72235ION    NA+37396  29.023  39.822   3.639
72236ION    NA+37397  35.405  29.324  13.286
72237ION    NA+37398  11.270  34.676  13.436
72238ION    NA+37399   2.528  10.315   1.341
72239ION    NA+37400  34.914  28.724   2.307
72240ION    NA+37401  19.693  37.959  11.199
72241ION    NA+37402  43.056   1.785   0.211
72242ION    NA+37403  34.492   4.711  12.075
72243ION    NA+37404  26.063   5.407   2.741
72244ION    NA+37405  17.616  30.724  11.542
72245ION    NA+37406  40.735  23.702   4.506
72246ION    NA+37407  15.237   7.133  13.892
72247ION    NA+37408   2.167   0.915  11.628
72248ION    NA+37409  34.666  33.145   0.543
72249ION    NA+37410   4.518  26.071  12.601
72250ION    NA+37411  10.350   0.127   3.579
72251ION    NA+37412   0.887  37.015   0.378
72252ION    NA+37413  28.057  11.836  11.954
72253ION    NA+37414  26.322  44.831   2.231
72254ION    NA+37415   2.243  44.630  14.768
72255ION    NA+37416  21.085   1.936  12.871
72256ION    NA+37417  38.122  12.672   9.558
72257ION    NA+37418  39.617  27.616  13.767
72258ION    NA+37419  30.071  18.521   0.556
72259ION    NA+37420  12.205  28.651   3.668
72260ION    NA+37421  33.856  29.324   3.717
72261ION    NA+37422  24.008  24.017  12.612
72262ION    NA+37423  40.541  26.494   1.015
72263ION    NA+37424  10.188  28.497  13.845
72264ION    NA+37425  19.844   0.822   2.387
72265ION    NA+37426  39.343  28.377  10.576
72266ION    NA+37427  39.264  26.374  14.715
72267ION    NA+37428  16.061   4.966   1.426
72268ION    NA+37429  40.684  18.339   0.319
72269ION    NA+37430  44.755  34.125   5.509
72270ION    NA+37431   3.978  26.367   2.587
72271ION    NA+37432  21.650  34.472   0.448
72272ION    NA+37433  25.131  23.666   0.962
72273ION    NA+37434  14.305   0.531  11.591
72274ION    NA+37435  26.842  27.411  13.008
72275ION    NA+37436  32.569  12.027   3.703
72276ION    NA+37437  20.920   4.540   2.654
72277ION    NA+37438  12.858   9.415  12.684
72278ION    NA+37439   0.569   2.812   0.674
72279ION    NA+37440  36.130   1.193  14.898
72280ION    NA+37441  36.792  39.991   1.112
72281ION    NA+37442  24.797  11.058  12.626
72282ION    NA+37443  11.225  16.403  12.398
72283ION    NA+37444  18.512  44.517  14.282
72284ION    NA+37445  34.932   0.305   0.510
72285ION    NA+37446  12.356   2.236   1.213
72286ION    NA+37447  13.290  43.433   1.006
72287ION    NA+37448  24.061  17.909   2.891
72288ION    NA+37449  38.501  29.439  10.078
72289ION    NA+37450  20.557  19.146  11.432
72290ION    NA+37451  10.333  11.376   1.231
72291ION    NA+37452  19.637  35.295   1.346
72292ION    NA+37453  31.715   8.447   2.055
72293ION    NA+37454  22.157  26.024  12.649
72294ION    NA+37455  44.446   1.933   4.139
72295ION    NA+37456  15.135  22.208   3.563
72296ION    NA+37457  36.633   1.855   4.313
72297ION    NA+37458  39.878  30.886   2.990
72298ION    NA+37459  31.639  23.242   0.297
72299ION    NA+37460  11.466  38.195   2.578
72300ION    NA+37461  27.743  23.087   4.111
72301ION    NA+37462  30.563  12.672   2.160
72302ION    NA+37463  33.926   3.406   1.255
72303ION    NA+37464  29.483   7.069   2.205
72304ION    NA+37465  10.070  21.977  10.893
72305ION    NA+37466  43.225  28.415   2.423
72306ION    NA+37467   9.111   7.395  13.094
72307ION    NA+37468  41.586  14.650   4.107
72308ION    NA+37469  12.562  25.018  10.137
72309ION    NA+37470  30.620  25.237   5.466
72310ION    NA+37471  41.473  44.210   3.240
72311ION    NA+37472  19.816   7.629   1.697
72312ION    NA+37473  40.440  31.865   4.112
72313ION    NA+37474  44.793  36.483  13.974
72314ION    NA+37475   0.717   8.478   4.164
72315ION    NA+37476  29.407  44.707  14.967
72316ION    NA+37477  32.656  18.217  14.169
72317ION    NA+37478  19.942  41.374   0.836
72318ION    NA+37479  33.311  34.289   1.997
72319ION    NA+37480  11.663  27.490   1.533
72320ION    NA+37481  13.721   0.589   1.023
72321ION    NA+37482  36.666  26.208  12.573
72322ION    NA+37483  17.748  44.057   9.406
72323ION    NA+37484   1.919  13.439   2.725
72324ION    NA+37485   6.740  13.789   4.470
72325ION    NA+37486  34.738   4.862   1.748
72326ION    NA+37487  21.443   8.670  12.551
72327ION    NA+37488   6.264   5.835  13.822
72328ION    NA+37489  36.469  31.406   4.563
72329ION    NA+37490   0.899  36.890  13.516
72330ION    NA+37491  26.132   7.903  12.819
72331ION    NA+37492  38.715  27.907  11.198
72332ION    NA+37493  13.095   0.353  10.238
72333ION    NA+37494  25.700  28.369   2.283
72334ION    NA+37495  14.634  24.561   0.693
72335ION    NA+37496  11.889  16.475  11.232
72336ION    NA+37497  10.469   0.710  10.289
72337ION    NA+37498  36.700  27.864  11.253
72338ION    NA+37499  31.006  31.042   1.310
72339ION    NA+37500  42.396  30.647   2.635
72340ION    NA+37501  16.009  18.485   0.955
72341ION    NA+37502  16.346  35.106   0.746
72342ION    NA+37503  32.268   0.722  11.723
72343ION    NA+37504  31.064  19.493   2.761
72344ION    NA+37505  17.294  21.414   4.952
72345ION    NA+37506  36.671  16.101   1.828
72346ION    CL-37507   7.098   1.818  13.810
72347ION    CL-37508   7.047  11.286  13.300
72348ION    CL-37509  22.669   4.900  12.201
72349ION    CL-37510  37.413   1.905   1.744
72350ION    CL-37511  18.001  35.764   1.891
72351ION    CL-37512  11.254  29.186   1.794
72352ION    CL-37513   3.879  35.130  13.362
72353ION    CL-37514  25.443  40.601   0.287
72354ION    CL-37515  12.082  29.837   1.883
72355ION    CL-37516  32.064  18.006   4.671
72356ION    CL-37517   0.362   2.913   1.069
72357ION    CL-37518  33.562  39.528  14.437
72358ION    CL-37519  43.226  41.222   1.558
72359ION    CL-37520  15.196  43.358   0.596
72360ION    CL-37521  32.141  24.940   4.056
72361ION    CL-37522   4.987  28.940   9.824
72362ION    CL-37523  17.686  29.452  11.959
72363ION    CL-37524  26.029  39.047  13.806
72364ION    CL-37525  24.906  13.362   3.391
72365ION    CL-37526   4.675  13.405  14.349
72366ION    CL-37527   5.290  20.727   2.281
72367ION    CL-37528  21.754  24.406   2.241
72368ION    CL-37529   6.782   8.132  11.929
72369ION    CL-37530  41.634  37.924   1.744
72370ION    CL-37531  27.495   6.794   3.856
72371ION    CL-37532  16.699  42.776  14.508
72372ION    CL-37533   3.493  12.887  12.285
72373ION    CL-37534  34.875   6.886   1.270
72374ION    CL-37535   3.446  37.282   4.863
72375ION    CL-37536  20.962  22.751   1.169
72376ION    CL-37537  16.058   9.897   3.270
72377ION    CL-37538  36.930  29.900  13.322
72378ION    CL-37539  28.578  27.008  14.856
72379ION    CL-37540  40.047   3.831   4.467
72380ION    CL-37541  25.572  14.498   3.019
72381ION    CL-37542  21.019  42.778  10.518
72382ION    CL-37543   5.399   0.194   1.202
72383ION    CL-37544  27.307  20.033   2.904
72384ION    CL-37545  37.217  30.943  12.518
72385ION    CL-37546  28.895  32.605   1.247
72386ION    CL-37547  27.453  13.119   2.393
72387ION    CL-37548   5.693  22.548  13.375
72388ION    CL-37549   3.256  41.926   0.363
72389ION    CL-37550  10.347  18.783   3.028
72390ION    CL-37551  38.484   1.098   4.726
72391ION    CL-37552  29.896   0.989  11.096
72392ION    CL-37553  15.827  20.255  11.113
72393ION    CL-37554   7.899  37.416  11.636
72394ION    CL-37555  20.612  34.162  12.051
72395ION    CL-37556  41.443  42.080  13.115
72396ION    CL-37557  14.794  40.742  10.035
72397ION    CL-37558  32.033  36.345  11.131
72398ION    CL-37559  34.148  21.036  11.564
72399ION    CL-37560  42.019  28.500  12.169
72400ION    CL-37561  13.196  36.916   2.434
72401ION    CL-37562  21.204  31.155   3.054
72402ION    CL-37563  22.379  18.623  14.096
72403ION    CL-37564   3.796  44.648  14.968
72404ION    CL-37565   3.081   2.917   2.500
72405ION    CL-37566  13.950  18.904   2.926
72406ION    CL-37567  29.158  15.963  14.665
72407ION    CL-37568  41.288  24.240   2.078
72408ION    CL-37569  36.924  30.474   3.997
72409ION    CL-37570  39.966  33.627  12.192
72410ION    CL-37571  19.004  25.920  11.475
72411ION    CL-37572  13.826  29.484  12.422
72412ION    CL-37573   8.463  32.257   4.082
72413ION    CL-37574  40.610   8.763   5.038
72414ION    CL-37575  35.321  41.838  12.063
72415ION    CL-37576  14.213  41.010  11.981
72416ION    CL-37577  21.941  19.012  11.173
72417ION    CL-37578  34.447  31.636   0.213
72418ION    CL-37579  10.457  25.919   1.836
72419ION    CL-37580  27.258  10.536   4.914
72420ION    CL-37581  30.854  24.894   5.286
72421ION    CL-37582  12.131  34.484   3.690
72422ION    CL-37583  24.095  13.850  13.337
72423ION    CL-37584  38.514  37.263   1.687
72424ION    CL-37585  31.499  41.070   0.516
72425ION    CL-37586   9.328   6.522   0.012
72426ION    CL-37587  42.922   5.292  13.102
72427ION    CL-37588  20.056  14.777   0.317
72428ION    CL-37589   0.304   6.790  14.197
72429ION    CL-37590   1.523  11.166  13.905
72430ION    CL-37591  36.242  31.723   4.319
72431ION    CL-37592  35.821   3.884   0.610
72432ION    CL-37593  32.730   7.360   2.447
72433ION    CL-37594  14.261  14.794  11.972
72434ION    CL-37595   1.738  37.745   4.272
72435ION    CL-37596   5.336  26.161   1.796
72436ION    CL-37597  26.130   2.950   4.511
72437ION    CL-37598  26.628  42.721  10.515
72438ION    CL-37599  43.999   2.887   1.326
72439ION    CL-37600  27.856   5.295   4.150
72440ION    CL-37601  20.173  39.991   4.185
72441ION    CL-37602  19.219   6.792   2.645
72442ION    CL-37603  38.860  10.103  12.002
72443ION    CL-37604   5.783  27.230   1.300
72444ION    CL-37605  21.301  11.726   1.391
72445ION    CL-37606  18.734  14.247   4.075
72446ION    CL-37607  32.671  33.779  14.312
72447ION    CL-37608  19.771  29.962  11.089
72448ION    CL-37609  36.909   3.450   2.154
72449ION    CL-37610  17.043  31.094   5.091
72450ION    CL-37611  33.156   8.914  13.276
72451ION    CL-37612  37.074  24.543  14.968
72452ION    CL-37613  35.822  39.801   3.577
72453ION    CL-37614  22.032  15.288   0.951
72454ION    CL-37615  21.829  15.919  10.887
72455ION    CL-37616  24.917  31.830   4.231
72456ION    CL-37617  30.445   5.094   1.849
72457ION    CL-37618   9.771  21.378   2.707
72458ION    CL-37619  27.419  30.563   4.108
72459ION    CL-37620   3.340   8.702   1.666
72460ION    CL-37621   5.761  17.383   2.627
72461ION    CL-37622  10.779  26.399  11.139
72462ION    CL-37623   5.137  35.902   4.960
72463ION    CL-37624  14.211  33.824   1.352
72464ION    CL-37625  14.800  34.644  12.554
72465ION    CL-37626  26.493  27.395  13.299
72466ION    CL-37627  27.035   9.367  14.336
72467ION    CL-37628  32.688  29.406   4.860
72468ION    CL-37629  15.936  35.523   4.021
72469ION    CL-37630   2.986  36.132   4.909
72470ION    CL-37631  44.739  35.380   4.067
72471ION    CL-37632  29.067  35.879   3.384
72472ION    CL-37633  12.554   0.440  12.350
72473ION    CL-37634  19.341  38.172  11.398
72474ION    CL-37635   4.881   8.173   3.331
72475ION    CL-37636  11.916  15.287   0.445
72476ION    CL-37637  34.145  41.224  11.902
72477ION    CL-37638  23.161  29.656  10.724
72478ION    CL-37639  35.952   2.649  14.768
72479ION    CL-37640  43.328  33.788  10.605
72480ION    CL-37641  15.105  11.354  12.931
72481ION    CL-37642  33.317  41.145  12.934
72482ION    CL-37643  34.778  32.968   0.946
72483ION    CL-37644   9.252  36.325   2.003
72484ION    CL-37645  30.018  42.649  12.397
72485ION    CL-37646  40.492   6.476  14.538
72486ION    CL-37647  26.132  32.862   4.090
72487ION    CL-37648  28.472  29.086  13.026
72488ION    CL-37649  15.497  17.012   9.764
72489ION    CL-37650  42.912  32.161   2.253
72490ION    CL-37651  20.790  15.407  13.886
72491ION    CL-37652  25.222  30.702  11.263
72492ION    CL-37653  12.267  19.000   1.382
72493ION    CL-37654  16.509  14.768   1.438
72494ION    CL-37655  28.664  14.558   3.602
72495ION    CL-37656  36.169  17.716  11.364
72496ION    CL-37657  37.084  22.829   3.621
72497ION    CL-37658  30.638  25.137  13.490
72498ION    CL-37659  20.468  34.165   2.736
72499ION    CL-37660  29.874   9.103  12.093
72500ION    CL-37661  41.585  28.648  14.512
72501ION    CL-37662  13.124  14.570   1.724
72502ION    CL-37663  30.972  20.923  10.235
72503ION    CL-37664   7.627   4.282   1.239
72504ION    CL-37665  16.038  22.255  11.159
72505ION    CL-37666  31.670   1.809   2.238
72506ION    CL-37667  40.249  11.849  13.600
72507ION    CL-37668   7.687  34.656  11.851
72508ION    CL-37669  17.725  14.689  12.374
72509ION    CL-37670  18.207  42.936   3.867
72510ION    CL-37671  44.352  13.118   5.501
72511ION    CL-37672  42.374  27.021  13.899
72512ION    CL-37673  42.582  25.879   0.656
72513ION    CL-37674   7.964  41.470   2.655
72514ION    CL-37675  41.596  20.042   1.768
72515ION    CL-37676  23.073  41.579   4.120
72516ION    CL-37677  11.947   7.298  13.336
72517ION    CL-37678   6.656   4.945   4.873
72518ION    CL-37679  15.414  43.436  11.580
72519ION    CL-37680  40.498  23.896   1.790
72520ION    CL-37681  11.871  15.301   2.724
72521ION    CL-37682  25.769  15.781   2.630
72522ION    CL-37683  29.014   1.012  11.208
72523ION    CL-37684  34.950  44.510   1.715
72524ION    CL-37685  28.201  44.805  12.869
72525ION    CL-37686   3.824  22.120   0.456
72526ION    CL-37687  41.268  22.558  12.523
72527ION    CL-37688   3.735  18.151   3.201
72528ION    CL-37689   3.437  24.297   4.337
72529ION    CL-37690  22.941  33.324   2.948
72530ION    CL-37691  29.751  24.988   2.694
72531ION    CL-37692  39.943   9.686   1.344
72532ION    CL-37693  15.561  17.242   1.036
72533ION    CL-37694  16.920   4.046  12.528
72534ION    CL-37695  23.860  12.178  11.624
72535ION    CL-37696  37.973  34.350   2.592
72536ION    CL-37697  44.799  18.862  14.375
72537ION    CL-37698   1.597   4.911  10.822
72538ION    CL-37699  33.511  42.853  13.013
72539ION    CL-37700  16.358   1.751   1.692
72540ION    CL-37701   7.481  29.822   1.403
72541ION    CL-37702  11.274  36.149   4.093
72542ION    CL-37703  21.911  16.598   2.100
72543ION    CL-37704   0.130  12.066  12.229
72544ION    CL-37705  42.006  23.777  12.102
72545ION    CL-37706  15.808  34.788   4.563
72546ION    CL-37707  32.715  18.669  14.142
72547ION    CL-37708  13.141  15.305  11.297
72548ION    CL-37709   3.493  14.832   0.711
72549ION    CL-37710  36.991  30.366   1.237
72550ION    CL-37711  39.359  16.336  11.629
72551ION    CL-37712  38.735  30.737   2.795
72552ION    CL-37713  20.072  15.701   9.284
72553ION    CL-37714   2.265   1.910  12.574
72554ION    CL-37715   7.058  42.969   5.146
72555ION    CL-37716   9.146  17.995  13.326
72556ION    CL-37717  26.481  15.596  14.224
72557ION    CL-37718  29.694  28.468   4.167
72558ION    CL-37719  25.064  44.840   1.795
72559ION    CL-37720  28.473  25.766  12.419
72560ION    CL-37721  30.673  28.005   2.255
72561ION    CL-37722  43.419  41.246   4.296
72562ION    CL-37723  28.517  25.166  13.271
72563ION    CL-37724  22.258  27.632   4.144
72564ION    CL-37725   8.268  30.104  14.709
72565ION    CL-37726   4.220  20.832  11.165
72566ION    CL-37727  31.819   8.797   1.801
72567ION    CL-37728   1.053  11.429   1.851
72568ION    CL-37729   9.840  22.305  10.677
72569ION    CL-37730  26.549  40.862  12.917
72570ION    CL-37731  39.378   3.206  11.268
72571ION    CL-37732  25.413  38.266   2.014
72572ION    CL-37733  23.190  41.738   0.750
72573ION    CL-37734  14.186   9.325  13.798
72574ION    CL-37735   5.074   1.280  13.509
72575ION    CL-37736  42.505  19.368  13.758
72576ION    CL-37737  10.891  36.100  13.854
72577ION    CL-37738   1.995   3.121   3.408
72578ION    CL-37739  18.807  23.830  12.031
72579ION    CL-37740  43.563   0.474  12.976
72580ION    CL-37741  40.810  18.765   0.257
72581ION    CL-37742  21.299  38.653  10.965
72582ION    CL-37743  15.226  39.642  11.785
72583ION    CL-37744  18.638  44.539   3.017
72584ION    CL-37745  20.343   1.355  11.740
72585ION    CL-37746  15.567  29.501  13.523
72586ION    CL-37747  20.272  37.339   1.951
72587ION    CL-37748  38.827   6.250   2.476
72588ION    CL-37749  31.528  19.496   0.864
72589ION    CL-37750  12.055  38.627  13.570
72590ION    CL-37751  15.379  25.188  13.406
72591ION    CL-37752  21.917  22.471   1.298
72592ION    CL-37753  34.474  42.680   1.298
72593ION    CL-37754  38.275  25.775   2.316
72594ION    CL-37755  22.812   0.211   0.196
72595ION    CL-37756   7.695  18.888  13.693
72596ION    CL-37757   0.635  42.234  11.047
72597ION    CL-37758   7.375  41.863   3.449
72598ION    CL-37759  37.696  21.228  10.664
72599ION    CL-37760  25.543  26.630  14.208
72600ION    CL-37761  31.189  25.788  11.174
72601ION    CL-37762  17.581   9.115   0.363
72602ION    CL-37763  36.790  18.741  13.135
72603ION    CL-37764  40.336  29.377   0.850
72604ION    CL-37765  32.502  15.733   4.398
72605ION    CL-37766  15.972  39.523  13.535
72606ION    CL-37767  42.709   3.644   0.119
72607ION    CL-37768  39.204  42.047  11.089
72608ION    CL-37769   0.515  28.853   1.775
72609ION    CL-37770  16.845   7.816   0.035
72610ION    CL-37771  28.313   1.772   1.824
72611ION    CL-37772  33.469  27.874   1.838
72612ION    CL-37773  26.237   7.660   1.788
72613ION    CL-37774   6.638   4.266   0.866
72614ION    CL-37775  25.089  21.075  12.664
72615ION    CL-37776   6.192  12.093   0.621
72616ION    CL-37777  42.830  16.107  10.593
72617ION    CL-37778  32.116  16.209   1.678
72618ION    CL-37779  24.498   9.185   5.377
72619ION    CL-37780  21.479  43.063  11.226
72620ION    CL-37781  43.546   6.009  14.781
72621ION    CL-37782  35.894  44.275  11.166
72622ION    CL-37783   8.575  34.801  10.198
72623ION    CL-37784  37.022   2.161  13.966
72624ION    CL-37785  28.623  41.348  13.534
72625ION    CL-37786  18.525   4.667   4.805
72626ION    CL-37787  38.135  17.875  11.623
72627ION    CL-37788  23.315  13.288   2.146
72628ION    CL-37789  42.206  28.577  10.949
72629ION    CL-37790  28.704  16.801  14.364
72630ION    CL-37791  38.936  24.256  13.797
72631ION    CL-37792  12.175  19.762  14.019
72632ION    CL-37793  41.916   2.481  13.005
72633ION    CL-37794   5.182  17.495   4.197
72634ION    CL-37795  31.824  15.954  11.407
72635ION    CL-37796  37.365   2.869   1.480
72636ION    CL-37797  38.021  21.773   2.213
72637ION    CL-37798  15.948  44.925  13.742
72638ION    CL-37799  32.649   0.752   3.885
72639ION    CL-37800   3.752  39.613  10.626
72640ION    CL-37801  24.129  43.923  10.848
72641ION    CL-37802   2.645  25.716  10.376
72642ION    CL-37803  33.480  31.058  10.758
72643ION    CL-37804  22.632  19.258   3.273
72644ION    CL-37805  40.836   5.665  14.294
72645ION    CL-37806  14.385  15.827   2.233
72646ION    CL-37807  11.126  31.453  13.483
72647ION    CL-37808   8.865  22.371  13.108
72648ION    CL-37809   0.721  14.828   0.871
72649ION    CL-37810  19.683  22.355   0.239
72650ION    CL-37811   0.204  15.604   4.126
72651ION    CL-37812   0.638  28.448  14.234
72652ION    CL-37813   3.281  11.605   0.469
72653ION    CL-37814  24.696  20.800   2.654
72654ION    CL-37815  44.320  44.676  10.853
72655ION    CL-37816  44.729  27.878  14.960
72656ION    CL-37817  25.121  23.278  11.161
72657ION    CL-37818   1.324   8.892  11.136
72658ION    CL-37819  15.169   7.104  11.981
72659ION    CL-37820  36.541  14.937   4.876
72660ION    CL-37821  35.047  32.539   1.714
72661ION    CL-37822   3.298   9.082  10.356
72662ION    CL-37823   6.398   2.901   0.573
72663ION    CL-37824  18.869   5.017   1.970
72664ION    CL-37825  20.168  31.371  14.121
72665ION    CL-37826  11.765  26.588  11.243
72666ION    CL-37827  32.873  19.701  13.810
72667ION    CL-37828   4.754  13.739   3.305
72668ION    CL-37829  13.933  17.515   0.701
72669ION    CL-37830  29.321  23.456   3.502
72670ION    CL-37831  16.661  28.398  10.479
72671ION    CL-37832  40.884  26.886   4.358
72672ION    CL-37833  33.533   3.183   2.570
72673ION    CL-37834   7.497  41.554   1.725
72674ION    CL-37835  14.825  37.284  13.396
72675ION    CL-37836  44.567  26.802  12.877
72676ION    CL-37837  43.997  32.513  13.952
72677ION    CL-37838  30.911  40.894   3.259
72678ION    CL-37839   6.832  42.985   4.172
72679ION    CL-37840   7.894  31.227   2.467
72680ION    CL-37841  42.534  17.741   3.243
72681ION    CL-37842  43.457   0.271  13.777
72682ION    CL-37843  38.322  25.985   3.758
72683ION    CL-37844  34.314   6.226   2.170
72684ION    CL-37845  40.938  15.232  13.142
72685ION    CL-37846  20.470  13.594   3.789
72686ION    CL-37847  43.237  31.723  13.391
72687ION    CL-37848   9.665  21.869  12.423
72688ION    CL-37849   6.940  42.755  11.941
72689ION    CL-37850  11.130  39.424  13.861
72690ION    CL-37851  13.446  16.438   2.776
72691ION    CL-37852  42.339  10.283  12.837
72692ION    CL-37853  44.610  21.754  13.839
72693ION    CL-37854   3.162  36.380   0.588
72694ION    CL-37855  32.571  26.303   4.259
72695ION    CL-37856  38.404  29.592   0.870
72696ION    CL-37857  18.331   7.826   1.881
72697ION    CL-37858   2.907  22.254  14.550
72698ION    CL-37859  17.142  39.108   0.822
72699ION    CL-37860  17.210  15.197   0.868
72700ION    CL-37861   9.261  33.190  13.385
72701ION    CL-37862  31.268  23.156  12.813
72702ION    CL-37863  26.434  20.567   1.190
72703ION    CL-37864   0.027   3.310   1.823
72704ION    CL-37865   7.275   2.858   3.803
72705ION    CL-37866  33.394   4.736  12.977
72706ION    CL-37867  38.418  39.038   2.100
72707ION    CL-37868  40.035   4.892  13.691
72708ION    CL-37869  25.850  31.498   4.367
72709ION    CL-37870  18.910  24.373  11.161
72710ION    CL-37871  13.205   9.252   1.905
72711ION    CL-37872  25.294  32.118   0.284
72712ION    CL-37873  41.465  32.527   1.905
72713ION    CL-37874   3.886   2.842   1.723
72714ION    CL-37875   8.407  16.828  11.838
72715ION    CL-37876  23.995  19.132   3.581
72716ION    CL-37877  40.752  26.153   1.212
72717ION    CL-37878  43.778  17.435  13.020
72718ION    CL-37879  19.552   1.701   0.949
72719ION    CL-37880  14.244   4.663  14.469
72720ION    CL-37881  40.929  20.060   3.394
72721ION    CL-37882  28.561   1.186   0.160
72722ION    CL-37883  19.674  26.265   0.410
72723ION    CL-37884   7.238  18.074   4.697
72724ION    CL-37885  26.938  34.288   3.777
72725ION    CL-37886  41.079  33.798  12.547
72726ION    CL-37887  40.971   5.836  10.666
72727ION    CL-37888  43.542  19.151   2.830
72728ION    CL-37889  13.301  19.070  11.152
72729ION    CL-37890   5.444  34.101  12.234
72730ION    CL-37891  31.317  28.879   1.695
72731ION    CL-37892  24.161   0.353   2.023
72732ION    CL-37893  14.295  34.799   1.146
72733ION    CL-37894  13.449  17.160  10.412
72734ION    CL-37895  30.026   9.340   0.332
72735ION    CL-37896  39.353  19.274  13.515
72736ION    CL-37897  27.741  44.235   9.820
72737ION    CL-37898  28.638  31.846  11.610
72738ION    CL-37899   0.940   6.022  12.931
72739ION    CL-37900  26.002  27.735  14.769
72740ION    CL-37901   8.678  25.175  13.466
72741ION    CL-37902  11.701  44.433   3.643
72742ION    CL-37903   9.700   0.073   1.528
72743ION    CL-37904  13.618  42.490  10.930
72744ION    CL-37905  11.605  36.000   3.161
72745ION    CL-37906  10.674   1.985   3.688
72746ION    CL-37907  15.952  15.614  11.510
72747ION    CL-37908  22.844  39.347   2.154
72748ION    CL-37909  16.824  25.687  10.741
72749ION    CL-37910  38.146  10.729   0.974
72750ION    CL-37911  15.568   8.024  11.599
72751ION    CL-37912  42.442  18.735   3.300
72752ION    CL-37913  39.091  30.130   0.747
72753ION    CL-37914  44.995  36.089  14.019
72754ION    CL-37915   7.476  40.519   0.931
72755ION    CL-37916   7.879   0.360  13.318
72756ION    CL-37917  25.616  30.201   1.425
72757ION    CL-37918  26.183   1.142   0.524
72758ION    CL-37919   1.485  16.238   3.734
72759ION    CL-37920  26.419  24.547  11.204
72760ION    CL-37921  40.468  35.453   0.138
72761ION    CL-37922  22.773   6.789  10.243
72762ION    CL-37923   0.534  38.894   3.729
72763ION    CL-37924  39.183  27.506  13.804
72764ION    CL-37925  41.547   9.363   2.514
72765ION    CL-37926  13.060  25.246  11.659
72766ION    CL-37927  11.706  22.544  13.629
72767ION    CL-37928  26.390  25.546  13.734
72768ION    CL-37929  22.086   8.280   2.478
72769ION    CL-37930  32.344  14.283   3.645
72770ION    CL-37931  26.939   1.255   3.465
72771ION    CL-37932  41.084  34.525   2.740
72772ION    CL-37933  11.297  38.058   2.186
72773ION    CL-37934  34.413  12.665  13.082
72774ION    CL-37935  30.164  38.823   4.049
72775ION    CL-37936  39.258  30.091   3.175
72776ION    CL-37937  13.164  11.409  10.617
72777ION    CL-37938   8.208  32.179  10.723
72778ION    CL-37939  20.349  32.001  11.741
72779ION    CL-37940  10.707  20.718   1.910
72780ION    CL-37941  35.793  37.694   1.452
72781ION    CL-37942  21.892  25.655   0.044
72782ION    CL-37943   1.265  43.620  12.529
72783ION    CL-37944   9.301  23.571  11.302
72784ION    CL-37945  11.674  44.819   4.565
72785ION    CL-37946  35.045  23.332   0.955
72786ION    CL-37947  41.184  32.134   0.153
72787ION    CL-37948  24.832   9.433  11.260
72788ION    CL-37949  37.966  35.707  12.168
72789ION    CL-37950  30.997   3.581   1.890
72790ION    CL-37951  27.305  27.444   1.644
72791ION    CL-37952  36.965  40.360  11.562
72792ION    CL-37953  27.500   3.283   2.875
72793ION    CL-37954  26.402  14.131  13.427
72794ION    CL-37955  25.704  10.645   3.205
72795ION    CL-37956   3.665  37.256  11.689
72796ION    CL-37957   8.956  25.554   9.603
72797ION    CL-37958   3.431  16.264   1.851
72798ION    CL-37959  19.393  36.478  10.351
72799ION    CL-37960  44.897  24.642   2.476
72800ION    CL-37961  37.127  10.166  13.222
72801ION    CL-37962  19.156  19.012  14.892
72802ION    CL-37963  32.750  43.364  13.932
72803ION    CL-37964  44.674  20.225   2.819
72804ION    CL-37965  22.147   7.024   3.041
72805ION    CL-37966  38.728  35.734   1.971
72806ION    CL-37967  25.667  20.581  10.939
72807ION    CL-37968  43.478  24.904   1.475
72808ION    CL-37969  15.102   9.112  11.148
72809ION    CL-37970   8.370  29.189  11.631
72810ION    CL-37971  26.521  15.039   3.709
72811ION    CL-37972  43.280  39.873   2.071
72812ION    CL-37973   3.002   6.751  12.457
72813ION    CL-37974  34.200  42.055  11.553
72814ION    CL-37975  43.144   5.464  11.073
72815ION    CL-37976  39.056   1.750  13.070
72816ION    CL-37977  27.172  22.321   0.301
72817ION    CL-37978  24.054   7.078  13.555
72818ION    CL-37979  20.149  28.922  11.866
72819ION    CL-37980  38.109  34.308  13.408
72820ION    CL-37981  25.212  13.918  14.410
72821ION    CL-37982  36.315  11.772  13.302
72822ION    CL-37983  31.178  41.658   2.671
72823ION    CL-37984  22.100  42.425  12.836
72824ION    CL-37985  25.961   0.928  12.999
72825ION    CL-37986  44.141  26.123   4.718
72826ION    CL-37987   6.549  22.517  12.815
72827ION    CL-37988  18.880  28.338   2.346
72828ION    CL-37989  18.827  14.896   3.111
72829ION    CL-37990  44.957  15.285  13.448
72830ION    CL-37991  42.243   5.887  11.169
72831ION    CL-37992  21.143  27.148  10.852
72832ION    CL-37993   1.545  18.610  12.703
72833ION    CL-37994   3.476   8.345   3.486
72834ION    CL-37995  38.248  32.518  11.916
72835ION    CL-37996  38.933  22.676   0.563
72836ION    CL-37997   4.554   9.576  14.629
72837ION    CL-37998  22.385  41.622   2.815
72838ION    CL-37999  32.294  27.241  10.848
72839ION    CL-38000   2.204   3.945   0.078
72840ION    CL-38001  14.949  14.190   5.029
72841ION    CL-38002   5.871   1.809  12.033
72842ION    CL-38003  42.720  36.403   3.370
72843ION    CL-38004  25.669  25.771  11.171
72844ION    CL-38005  42.895  16.177  12.820
72845ION    CL-38006  37.116   7.913  12.950
72846ION    CL-38007  38.353   9.797  14.310
72847ION    CL-38008   4.241  40.373  14.829
72848ION    CL-38009  13.576  11.135   2.490
72849ION    CL-38010  40.848  16.983  11.839
72850ION    CL-38011  18.549  43.126   9.914
72851ION    CL-38012  37.097  32.571   1.705
72852ION    CL-38013  24.671  20.374  11.354
72853ION    CL-38014   3.982  23.628   3.454
72854ION    CL-38015  23.517   0.069  11.379
72855ION    CL-38016  12.513  37.133   0.775
72856ION    CL-38017  22.875  14.546   9.759
72857ION    CL-38018  25.852  35.908  12.368
72858ION    CL-38019  10.458   8.217   2.338
72859ION    CL-38020  28.953   4.187   1.866
72860ION    CL-38021  38.799  35.887   4.369
72861ION    CL-38022  25.435  16.331   1.156
72862ION    CL-38023  19.996  38.773   5.052
72863ION    CL-38024  15.133  39.354  13.018
72864ION    CL-38025  34.121  17.816   3.681
72865ION    CL-38026  13.817  27.307  14.364
72866ION    CL-38027  14.657   7.375   1.801
72867ION    CL-38028  25.674   0.171  13.587
72868ION    CL-38029  33.964   1.608   2.415
72869ION    CL-38030  19.805  12.795   3.632
72870ION    CL-38031  42.252  40.246   1.451
72871ION    CL-38032  30.226  26.384   0.398
72872ION    CL-38033  37.316  42.049   2.290
72873ION    CL-38034  15.337  40.084  14.499
72874ION    CL-38035  36.901  14.029   2.060
72875ION    CL-38036   6.836  43.960   4.394
72876ION    CL-38037  17.435  33.409  11.204
72877ION    CL-38038   8.424  18.235   3.216
72878ION    CL-38039  25.425   4.595  14.870
72879ION    CL-38040  44.756  38.687   1.266
72880ION    CL-38041  28.947  41.316   1.688
72881ION    CL-38042   0.533   1.003  10.927
72882ION    CL-38043   2.103  10.279   1.475
72883ION    CL-38044   0.419  29.365  13.001
72884ION    CL-38045  14.623  31.555   2.371
72885ION    CL-38046  16.737  30.206  14.725
72886ION    CL-38047  25.157  29.142   0.382
72887ION    CL-38048  20.445  31.071   2.563
72888ION    CL-38049  21.060   3.882   4.091
72889ION    CL-38050  25.550  18.603  12.541
72890ION    CL-38051  22.409  13.662  13.827
72891ION    CL-38052  23.189   6.860  12.816
72892ION    CL-38053  36.429  31.459  11.865
72893ION    CL-38054  11.579  40.195   4.936
72894ION    CL-38055  16.112  15.341  13.483
72895ION    CL-38056  41.790  15.756   3.643
72896ION    CL-38057   1.471  35.133  11.633
72897ION    CL-38058  31.965   8.292   4.967
72898ION    CL-38059  21.570  26.182   1.200
72899ION    CL-38060  35.602   8.928   4.623
72900ION    CL-38061  41.523  33.436  13.370
72901ION    CL-38062  39.752  34.300   4.244
72902ION    CL-38063  28.326  25.564  14.773
72903ION    CL-38064   7.822   8.773   5.073
72904ION    CL-38065   8.981   9.194   3.610
72905ION    CL-38066  28.661  36.691   3.230
72906ION    CL-38067  16.340  12.944  12.177
72907ION    CL-38068  42.225  44.218   5.064
72908ION    CL-38069  21.185   6.019   9.750
72909ION    CL-38070  13.487   5.916  13.401
72910ION    CL-38071  29.749  27.199  13.659
72911ION    CL-38072  42.610  42.712  12.101
72912ION    CL-38073  40.816  34.528  11.811
72913ION    CL-38074   2.975  23.037   2.632
72914ION    CL-38075  23.345   5.367   1.403
72915ION    CL-38076  39.131   5.668  10.423
72916ION    CL-38077  43.853  16.006  10.654
72917ION    CL-38078  29.520   5.157  14.611
72918ION    CL-38079  11.775  40.537  14.396
72919ION    CL-38080  20.359   9.700   0.241
72920ION    CL-38081  36.117   8.923  12.112
72921ION    CL-38082  28.817  37.332   4.968
72922ION    CL-38083  32.372  12.010   1.282
72923ION    CL-38084  44.346   9.023   1.415
72924ION    CL-38085   6.320   5.963   2.674
72925ION    CL-38086   7.995   2.253  13.730
72926ION    CL-38087  36.367   9.152   1.378
72927ION    CL-38088  40.570  14.810  12.428
72928ION    CL-38089  14.518  12.088  11.115
72929ION    CL-38090  43.610  18.482   2.090
72930ION    CL-38091  21.268  20.076  12.441
72931ION    CL-38092  38.709  12.692  11.390
72932ION    CL-38093   3.216  26.044  12.678
72933ION    CL-38094  12.064   7.225   4.635
72934ION    CL-38095  12.606   5.767  14.437
72935ION    CL-38096  33.602  19.375  14.803
72936ION    CL-38097   3.988  12.272  13.561
72937ION    CL-38098  39.153  32.998  11.270
72938ION    CL-38099  24.850   1.598  13.092
72939ION    CL-38100  26.316  14.092   4.584
72940ION    CL-38101  22.545  34.903   4.088
72941ION    CL-38102  22.291  20.636   1.283
72942ION    CL-38103   4.892   0.406   2.886
72943ION    CL-38104  31.392  44.596   2.375
72944ION    CL-38105  16.951  44.196  10.680
72945ION    CL-38106   0.750  16.066  14.693
72946ION    CL-38107  24.909  17.345   0.278
72947ION    CL-38108  39.260   1.486  11.607
72948ION    CL-38109  34.805  37.543   1.459
72949ION    CL-38110  13.532   7.845  10.821
72950ION    CL-38111  41.756  17.282  11.099
72951ION    CL-38112  36.754  35.387   3.114
72952ION    CL-38113  27.415   3.862   4.758
72953ION    CL-38114  29.957  22.406   0.559
72954ION    CL-38115   1.575   8.631   3.213
72955ION    CL-38116  13.009  10.152   4.196
72956ION    CL-38117  43.462  10.054   1.891
72957ION    CL-38118   0.811  11.708  14.475
72958ION    CL-38119  41.830  25.145   9.626
72959ION    CL-38120  11.777  38.323  14.095
72960ION    CL-38121  23.589   4.430   3.312
72961ION    CL-38122  10.427  31.521  14.311
72962ION    CL-38123  28.955  37.909   2.775
72963ION    CL-38124  30.413  39.761  11.243
72964ION    CL-38125  16.258  31.043   4.474
72965ION    CL-38126  40.151  30.725   0.574
72966ION    CL-38127  20.930  39.168   2.785
72967ION    CL-38128  26.350  11.697  11.176
72968ION    CL-38129  31.488  10.109   2.767
72969ION    CL-38130   8.398  32.562   5.032
72970ION    CL-38131  34.782  17.559   1.626
72971ION    CL-38132  35.358  29.190  14.785
72972ION    CL-38133   4.356   6.135   3.651
72973ION    CL-38134  26.486   7.943  12.548
72974ION    CL-38135   4.686  38.156  11.758
72975ION    CL-38136   6.533  36.091   3.033
72976ION    CL-38137  32.292  44.086  13.912
72977ION    CL-38138  40.523  25.546   4.854
72978ION    CL-38139  26.924  20.283   2.015
72979ION    CL-38140  35.904  10.126  12.587
72980ION    CL-38141  21.455  43.213  14.295
72981ION    CL-38142  22.444  43.257  11.402
72982ION    CL-38143  27.101  37.510  13.055
72983ION    CL-38144  30.613  17.071  14.090
72984ION    CL-38145  32.351  26.483  14.279
72985ION    CL-38146  35.742   1.492   1.570
72986ION    CL-38147  38.403   3.949   4.582
72987ION    CL-38148  36.135  38.547   2.619
72988ION    CL-38149  42.910  38.994  11.711
72989ION    CL-38150  35.662  28.169  12.666
72990ION    CL-38151   0.504  14.059  13.427
72991ION    CL-38152  31.021  34.748   4.236
72992ION    CL-38153  21.792   1.176   2.123
72993ION    CL-38154  42.764  44.354   3.845
72994ION    CL-38155  43.242  16.499   5.080
72995ION    CL-38156   8.505   7.867  14.551
72996ION    CL-38157  28.858  12.909  14.717
72997ION    CL-38158  43.699  24.123   0.056
72998ION    CL-38159  13.511  14.169  14.740
72999ION    CL-38160  16.654  14.349   4.095
73000ION    CL-38161   6.269  17.790  11.679
73001ION    CL-38162  42.951  41.784  11.010
73002ION    CL-38163  15.036   0.231   0.346
73003ION    CL-38164   7.782   0.529  11.599
73004ION    CL-38165   5.963  31.062  14.270
73005ION    CL-38166  11.627  29.215  11.550
73006ION    CL-38167  13.020  18.049  10.254
73007ION    CL-38168  25.829  17.383   1.663
73008ION    CL-38169  36.542  28.827  12.689
73009ION    CL-38170   5.025  20.216  10.430
73010ION    CL-38171  44.585  44.776  11.812
73011ION    CL-38172  27.610  23.216  12.420
73012ION    CL-38173  20.277  30.713   4.857
73013ION    CL-38174  14.887  43.173  14.663
73014ION    CL-38175   8.638  37.028  13.475
73015ION    CL-38176   2.776  36.529  12.579
73016ION    CL-38177  30.715   5.859   0.059
73017ION    CL-38178  28.665  22.219   4.770
73018ION    CL-38179  15.293  42.810   3.194
73019ION    CL-38180  40.053  10.012  12.365
73020ION    CL-38181   3.720  43.364  14.562
73021ION    CL-38182   0.984   4.902   3.039
73022ION    CL-38183   0.987   5.778  14.000
73023ION    CL-38184  10.621   4.658  13.943
73024ION    CL-38185   1.521  28.037   2.260
73025ION    CL-38186  42.236   0.873  14.559
73026ION    CL-38187  10.321  41.619   1.338
73027ION    CL-38188   2.770  44.177   1.210
73028ION    CL-38189   9.634   5.611   3.222
73029ION    CL-38190   8.147  11.400  13.884
73030ION    CL-38191  16.118   7.176  11.471
73031ION    CL-38192  17.319  34.878   4.137
73032ION    CL-38193  10.931  12.403   4.512
73033ION    CL-38194   8.596  22.478   3.876
73034ION    CL-38195  30.629  27.435  13.661
73035ION    CL-38196   5.189  31.691  14.341
73036ION    CL-38197  17.828   3.372  12.033
73037ION    CL-38198  22.564  24.036  14.012
73038ION    CL-38199  18.353  32.041  12.874
73039ION    CL-38200   8.286  43.521  12.146
73040ION    CL-38201  22.011  15.001  11.346
73041ION    CL-38202  27.129  28.253   2.206
73042ION    CL-38203  19.829  16.350  12.920
73043ION    CL-38204  23.426  33.871   4.051
73044ION    CL-38205  37.467  39.731  12.858
73045ION    CL-38206  26.358   4.415   3.587
73046ION    CL-38207  22.902  15.798   3.880
73047ION    CL-38208  28.473  10.135   0.225
73048ION    CL-38209   2.500   2.918  12.538
73049ION    CL-38210  36.604  23.884   3.440
73050ION    CL-38211  32.697  17.776  14.274
73051ION    CL-38212  19.685  27.201   1.986
73052ION    CL-38213   0.955  23.652   2.312
73053ION    CL-38214   1.220  41.530  11.840
73054ION    CL-38215  11.254  19.634  10.663
73055ION    CL-38216   9.855  13.985   2.905
73056ION    CL-38217  29.972  43.630  12.731
73057ION    CL-38218  21.075  28.244   2.158
73058ION    CL-38219   6.408  19.215   0.390
73059ION    CL-38220   3.595  33.321   4.535
73060ION    CL-38221  25.802  37.733   0.871
73061ION    CL-38222  32.798   2.106  11.027
73062ION    CL-38223   5.477   8.308  12.357
73063ION    CL-38224  22.060  19.480   5.430
73064ION    CL-38225  39.087   9.103   3.436
73065ION    CL-38226  39.323  19.821  11.803
73066ION    CL-38227   8.241   6.740  11.456
73067ION    CL-38228  36.257  27.928  11.271
73068ION    CL-38229  37.548   3.937  13.278
73069ION    CL-38230   8.942  30.862  12.349
73070ION    CL-38231  38.728   5.314   5.078
73071ION    CL-38232   0.617  17.001  12.863
73072ION    CL-38233  34.380   1.263   1.904
73073ION    CL-38234  20.000  32.885  10.344
73074ION    CL-38235  44.675  34.657   2.895
73075ION    CL-38236  37.648  23.933  10.296
73076ION    CL-38237  12.519   9.467  12.382
73077ION    CL-38238  37.584  21.135   1.236
73078ION    CL-38239  25.072  35.874   0.453
73079ION    CL-38240  40.472   6.108   2.937
73080ION    CL-38241  43.360   1.634  13.340
73081ION    CL-38242  19.652  10.928   3.039
73082ION    CL-38243   9.613  35.304   4.374
73083ION    CL-38244  35.308  43.822   2.347
73084ION    CL-38245  15.245   3.435  14.640
73085ION    CL-38246   9.915  17.884   0.888
73086ION    CL-38247   0.215  38.794   4.954
73087ION    CL-38248  30.443  13.615   0.776
73088ION    CL-38249  28.118  19.493  10.698
73089ION    CL-38250  15.470  17.348  13.729
73090ION    CL-38251  14.435  11.984   3.061
73091ION    CL-38252  44.291  42.447   3.985
73092ION    CL-38253  10.238  24.504   4.105
73093ION    CL-38254   6.122  35.298   3.482
73094ION    CL-38255  10.670  42.340  12.540
73095ION    CL-38256  35.993   8.541   3.463
73096ION    CL-38257   1.073  17.064   4.120
73097ION    CL-38258  13.601  37.164  13.998
73098ION    CL-38259  33.218  19.517   5.345
73099ION    CL-38260  43.597  37.095  13.974
73100ION    CL-38261   3.806  41.294  11.528
73101ION    CL-38262  42.673  44.572   1.568
73102ION    CL-38263   3.704  17.623  12.405
73103ION    CL-38264   0.882   4.636   5.163
73104ION    CL-38265  22.933  10.489  12.548
73105ION    CL-38266  13.765   7.305   2.248
73106ION    CL-38267  21.069  38.606  12.312
73107ION    CL-38268  33.610  31.786  14.687
73108ION    CL-38269  29.029  21.132  13.370
73109ION    CL-38270  18.546  20.173  10.740
73110ION    CL-38271  21.518  16.446  10.096
73111ION    CL-38272  42.195  13.847   0.530
73112ION    CL-38273   6.293  31.280   3.235
73113ION    CL-38274  12.424  14.359  13.038
73114ION    CL-38275  13.404  29.656   1.827
73115ION    CL-38276  22.085   1.575  12.303
73116ION    CL-38277   4.445  13.774  11.148
73117ION    CL-38278  34.006  32.973   2.346
73118ION    CL-38279   8.104  23.757  14.685
73119ION    CL-38280  33.399  21.124   2.575
73120ION    CL-38281   5.320  37.427  14.341
73121ION    CL-38282  22.226  19.289  12.938
73122ION    CL-38283   7.714  18.478  12.781
73123ION    CL-38284  13.333  36.974   4.957
73124ION    CL-38285  29.770   4.826  11.579
73125ION    CL-38286  26.144  36.781   0.839
73126ION    CL-38287   8.147  37.213   4.236
73127ION    CL-38288  32.491  16.670   5.040
73128ION    CL-38289  15.664  43.597  10.294
73129ION    CL-38290  21.445   7.585   2.150
73130ION    CL-38291  20.192  10.128  13.262
73131ION    CL-38292   4.811  31.109   0.328
73132ION    CL-38293  42.361  42.166   5.053
73133ION    CL-38294   4.092   8.298   2.660
73134ION    CL-38295  12.773  42.952  12.157
73135ION    CL-38296  41.303   1.122  14.301
73136ION    CL-38297  44.232  41.156  14.777
73137ION    CL-38298   8.762  37.988  10.729
73138ION    CL-38299  33.342  24.489   3.759
73139ION    CL-38300   8.385  32.632  11.613
73140ION    CL-38301  25.165  29.480  13.553
73141ION    CL-38302  13.569   5.932  14.655
73142ION    CL-38303  35.957  28.144   1.826
73143ION    CL-38304  33.028  34.085   2.280
73144ION    CL-38305   1.368   6.852   3.819
73145ION    CL-38306  39.766  43.295   3.231
73146ION    CL-38307  22.682  35.356  13.603
73147ION    CL-38308  19.656  43.607   4.786
73148ION    CL-38309  21.485  37.561   3.102
73149ION    CL-38310  22.069  10.713  11.937
73150ION    CL-38311  34.516  18.976  12.939
73151ION    CL-38312  13.913  13.133  14.025
73152ION    CL-38313  34.920  15.595  11.555
73153ION    CL-38314  10.269  10.092   1.647
73154ION    CL-38315  22.669  35.759   3.587
73155ION    CL-38316  12.359  23.176   0.768
73156ION    CL-38317  10.017  30.046  14.347
73157ION    CL-38318   2.549  44.384  14.542
73158ION    CL-38319  31.914   1.203   0.862
73159ION    CL-38320  42.855  22.529   1.472
73160ION    CL-38321  22.304  28.460  11.807
73161ION    CL-38322  30.221  43.239   5.023
73162ION    CL-38323  41.731  14.228   4.189
73163ION    CL-38324  21.977   0.804  13.009
73164ION    CL-38325  42.029  12.380  13.077
73165ION    CL-38326   7.436   6.850  13.324
73166ION    CL-38327  44.242   8.904  11.714
73167ION    CL-38328  42.896  23.564   5.083
73168ION    CL-38329   2.779   8.483   4.096
73169ION    CL-38330   1.392  40.545  14.238
73170ION    CL-38331  16.598   3.215  10.748
73171ION    CL-38332  35.293  15.971  13.600
73172ION    CL-38333  24.927   9.333  13.036
73173ION    CL-38334  26.664  44.535   2.175
73174ION    CL-38335  31.199  42.389  12.856
73175ION    CL-38336  40.021  38.238   1.333
73176ION    CL-38337   0.330  35.607   9.976
73177ION    CL-38338   5.756  30.073   4.082
73178ION    CL-38339   1.262  15.702   1.159
73179ION    CL-38340  21.237  44.324   1.127
73180ION    CL-38341  22.978  29.048  11.360
73181ION    CL-38342  28.223  32.663  12.124
73182ION    CL-38343  43.994  33.193  11.056
73183ION    CL-38344  13.413   8.298   2.746
73184ION    CL-38345  33.495  25.702   0.852
73185ION    CL-38346  26.719  34.342   1.587
73186ION    CL-38347   9.376  33.451   3.933
73187ION    CL-38348  16.595  17.553   3.266
73188ION    CL-38349  25.453   3.265   1.821
73189ION    CL-38350  40.754  32.793   0.905
73190ION    CL-38351  37.294  15.933   4.819
73191ION    CL-38352   3.207  28.941   4.260
73192ION    CL-38353   0.214  17.368   3.710
73193ION    CL-38354  41.462  26.028   3.348
73194ION    CL-38355   2.005  38.601   4.466
73195ION    CL-38356  15.204  32.241   2.687
73196ION    CL-38357  43.803  16.829   3.333
73197ION    CL-38358   1.200  29.947  14.125
73198ION    CL-38359  22.739  34.997  11.396
73199ION    CL-38360  23.993  26.409   4.374
73200ION    CL-38361  25.677  24.924   3.679
73201ION    CL-38362  14.217  38.190  13.304
73202ION    CL-38363  19.988   3.176   9.982
73203ION    CL-38364   6.211  36.743   0.414
73204ION    CL-38365  29.684  34.744   0.864
73205ION    CL-38366  26.791  33.271  13.434
73206ION    CL-38367  11.405  38.670   4.882
73207ION    CL-38368   6.959  31.083  14.406
73208ION    CL-38369  40.105  13.310  10.714
73209ION    CL-38370  40.366  18.312  13.466
73210ION    CL-38371  43.974  22.001   2.641
73211ION    CL-38372  43.914  25.229  13.892
73212ION    CL-38373  42.378  32.369  11.076
73213ION    CL-38374  37.785  37.138   3.374
73214ION    CL-38375   8.987  28.036   3.298
73215ION    CL-38376  37.457  28.126   4.844
73216ION    CL-38377  17.713  31.413  13.320
73217ION    CL-38378  43.406   2.473  12.378
73218ION    CL-38379  17.916  20.929   1.431
73219ION    CL-38380  27.957  20.693   4.451
73220ION    CL-38381  39.887  42.696   1.242
73221ION    CL-38382  27.836  26.536  14.358
73222ION    CL-38383   3.761  25.615  11.676
73223ION    CL-38384  13.056  10.857  14.112
73224ION    CL-38385  16.563  19.722   3.706
73225ION    CL-38386  13.670  28.638  12.932
73226ION    CL-38387  39.564  37.432   4.573
73227ION    CL-38388  44.409  27.502   2.739
73228ION    CL-38389   6.784  40.424  13.082
73229ION    CL-38390  20.461   0.391  11.979
73230ION    CL-38391  12.356  18.359  11.659
73231ION    CL-38392  14.350   5.182   1.425
73232ION    CL-38393  29.339   4.427  13.952
73233ION    CL-38394   7.747  26.904  11.558
73234ION    CL-38395  33.419  23.792   0.515
73235ION    CL-38396  22.266   9.605   4.606
73236ION    CL-38397   6.331  42.524   1.265
73237ION    CL-38398  32.065  16.054   3.428
73238ION    CL-38399  32.134  12.855   2.742
73239ION    CL-38400  34.974  25.026   4.214
73240ION    CL-38401   5.591   5.684   3.357
73241ION    CL-38402  37.518  19.294   2.325
73242ION    CL-38403   0.718   5.118  13.298
73243ION    CL-38404  43.169  44.489  10.280
73244ION    CL-38405  20.021  36.588   1.340
73245ION    CL-38406  20.447  39.190  12.617
73246ION    CL-38407   9.027  27.829   5.049
73247ION    CL-38408  25.060  25.176   1.667
73248ION    CL-38409  44.829  42.579  12.551
73249ION    CL-38410  33.805   0.981   2.087
73250ION    CL-38411  22.806  41.264   1.283
73251ION    CL-38412  37.956  11.846  11.626
73252ION    CL-38413  25.309  31.203   4.812
73253ION    CL-38414  19.088   9.909  12.652
73254ION    CL-38415  21.403  24.379   3.773
73255ION    CL-38416   5.902   6.898  13.389
73256ION    CL-38417  27.226  43.464  11.517
73257ION    CL-38418  27.110   7.552   3.559
73258ION    CL-38419  23.292  41.866   1.553
73259ION    CL-38420  36.292   3.985  13.668
73260ION    CL-38421   0.056  11.477  11.551
73261ION    CL-38422  14.912  16.973   1.632
73262ION    CL-38423  34.175  38.380  11.463
73263ION    CL-38424  42.551   3.187   2.316
73264ION    CL-38425  32.390  16.721  13.677
73265ION    CL-38426  34.398  27.072   1.062
73266ION    CL-38427  42.797   0.462  13.310
73267ION    CL-38428   5.308   1.950  12.930
73268ION    CL-38429  28.108  23.872   2.114
73269ION    CL-38430  13.420  28.988   1.302
73270ION    CL-38431  18.797  41.170   5.173
73271ION    CL-38432  17.536   0.921  12.600
73272ION    CL-38433  36.217   6.762  12.100
73273ION    CL-38434  11.495  18.554   0.135
73274ION    CL-38435   6.713  35.661   4.209
73275ION    CL-38436  28.947  12.089  14.441
73276ION    CL-38437  33.978  35.299   2.195
73277ION    CL-38438  12.073  41.272   1.400
73278ION    CL-38439  40.721   8.151  12.628
73279ION    CL-38440  28.708  28.118  12.944
73280ION    CL-38441  17.421  36.575  13.520
73281ION    CL-38442  33.900  17.101  13.399
73282ION    CL-38443   5.724  30.437   3.151
73283ION    CL-38444  36.787  10.136   9.813
73284ION    CL-38445  36.550   1.821   3.874
73285ION    CL-38446  30.630  28.411   3.816
73286ION    CL-38447   5.312  25.081  10.177
73287ION    CL-38448  11.124   0.851   2.897
73288ION    CL-38449   4.889  20.233  12.006
73289ION    CL-38450  30.118  44.112   0.778
73290ION    CL-38451  18.202  23.637   4.253
73291ION    CL-38452  36.688  42.809   1.227
73292ION    CL-38453   5.835   7.191   3.289
73293ION    CL-38454   2.723  10.953  11.459
73294ION    CL-38455  37.353  12.357  14.485
73295ION    CL-38456  21.343  32.618   1.592
73296ION    CL-38457  22.392  39.728   5.449
73297ION    CL-38458  44.377  41.413   2.335
73298ION    CL-38459  17.400  38.329   1.393
73299ION    CL-38460   2.321   7.125   1.838
73300ION    CL-38461  27.291  32.180  14.904
73301ION    CL-38462  25.977  41.338  11.216
73302ION    CL-38463  42.995   9.522   2.683
73303ION    CL-38464  15.034  37.298   2.779
73304ION    CL-38465  36.324  39.396  11.191
73305ION    CL-38466  31.914  26.219   3.697
73306ION    CL-38467  11.591  12.813  12.661
73307ION    CL-38468  44.363  30.626  11.377
73308ION    CL-38469  42.542  41.507  14.513
73309ION    CL-38470  10.950  32.108  12.748
73310ION    CL-38471  35.239  34.129   1.579
73311ION    CL-38472  37.588  35.716   3.051
73312ION    CL-38473  26.382  18.854  13.552
73313ION    CL-38474  29.491  10.484   5.468
73314ION    CL-38475   8.802  16.676  13.598
73315ION    CL-38476  37.534  15.610   0.900
73316ION    CL-38477  43.665  11.212  11.515
73317ION    CL-38478  21.241  28.640  12.574
73318ION    CL-38479   9.743   5.356  12.651
73319ION    CL-38480  32.622  40.416   1.997
73320ION    CL-38481  11.503  10.673   2.985
73321ION    CL-38482  15.408  37.583   1.896
73322ION    CL-38483   7.730  31.409   4.425
73323ION    CL-38484  18.703  14.418   0.077
73324ION    CL-38485  29.445  24.636  10.249
73325ION    CL-38486  33.116  38.379   0.300
73326ION    CL-38487  42.546  32.847   5.162
73327ION    CL-38488   9.322  34.479   2.339
73328ION    CL-38489  32.061  27.502  14.710
73329ION    CL-38490  23.559  28.330  14.483
73330ION    CL-38491  34.958  44.662  12.960
73331ION    CL-38492   1.452   1.897   3.036
73332ION    CL-38493  44.181  37.999  14.735
73333ION    CL-38494  35.318  23.974  11.010
73334ION    CL-38495   8.378   3.943   2.862
73335ION    CL-38496  10.380  26.999  14.098
73336ION    CL-38497  16.028  12.996  13.125
73337ION    CL-38498  21.236  25.284   3.381
73338ION    CL-38499  44.989   5.702   0.802
73339ION    CL-38500  41.047  23.156  14.841
73340ION    CL-38501  40.892  34.575  13.860
73341ION    CL-38502  13.297  21.412  11.178
73342ION    CL-38503   4.177  38.641  12.607
73343ION    CL-38504  11.977  10.976  14.919
73344ION    CL-38505  42.927  10.744   5.046
73345ION    CL-38506  13.670  19.702   0.436
73346ION    CL-38507  14.661  33.158   0.406
73347ION    CL-38508   2.472  18.363   3.918
73348ION    CL-38509  42.467  15.349   4.556
73349ION    CL-38510  10.352  10.465  12.039
73350ION    CL-38511  27.129  13.644  14.303
73351ION    CL-38512  27.049   1.774  13.593
73352ION    CL-38513  34.503  43.478   3.597
73353ION    CL-38514  44.577  27.384  11.925
73354ION    CL-38515  18.102  16.423   3.487
73355ION    CL-38516  22.312  37.095  12.081
73356ION    CL-38517  20.160  41.023   1.025
73357ION    CL-38518   4.011  23.563   2.152
73358ION    CL-38519   6.940  15.228   0.062
73359ION    CL-38520  15.377  26.046   2.252
73360ION    CL-38521  14.206  39.569   1.661
73361ION    CL-38522   1.888   7.704  10.726
73362ION    CL-38523  18.775   4.501   0.954
73363ION    CL-38524  38.782   9.194  11.592
73364ION    CL-38525  12.449  21.917   3.840
73365ION    CL-38526  36.118  19.627  11.651
73366ION    CL-38527  37.584  37.778   0.387
73367ION    CL-38528  41.385  38.260  14.529
73368ION    CL-38529  32.387  17.392   3.811
73369ION    CL-38530  12.392  37.287  14.318
73370ION    CL-38531  15.035   5.463   3.594
73371ION    CL-38532  44.689  21.084  13.031
73372ION    CL-38533  15.600  12.677   1.105
73373ION    CL-38534  27.442  34.521   2.945
73374ION    CL-38535  33.630  30.248   1.479
73375ION    CL-38536  20.080  43.542   9.800
73376ION    CL-38537  33.164  11.933   2.200
73377ION    CL-38538   6.143  10.257   3.204
73378ION    CL-38539  18.785  12.593   0.439
73379ION    CL-38540   8.919  34.811   4.327
73380ION    CL-38541  38.896  44.495   1.879
73381ION    CL-38542   9.518  36.753  11.859
73382ION    CL-38543   0.618  20.859  12.019
73383ION    CL-38544  44.380  14.016  14.393
73384ION    CL-38545  33.003   6.842  14.404
73385ION    CL-38546  10.136   3.193   2.123
73386ION    CL-38547   0.828  31.400   0.093
73387ION    CL-38548  25.998  42.951  10.101
73388ION    CL-38549   8.688   7.300   2.654
73389ION    CL-38550  33.819  20.270  10.318
73390ION    CL-38551  21.396   1.479  11.741
73391ION    CL-38552  23.131   7.898  13.392
73392ION    CL-38553  14.803  19.132   1.968
73393ION    CL-38554  11.125  38.953  12.956
73394ION    CL-38555   3.600  34.481  12.008
73395ION    CL-38556  23.215  23.765  14.816
73396ION    CL-38557  36.404  35.047   3.987
73397ION    CL-38558  42.876  12.294   1.423
73398ION    CL-38559  38.796   9.385   2.522
73399ION    CL-38560  25.668  42.138  11.731
73400ION    CL-38561  30.119  27.684  12.172
73401ION    CL-38562   2.297  23.050  14.981
73402ION    CL-38563  22.576  28.124   1.491
73403ION    CL-38564  23.152  10.338   1.281
73404ION    CL-38565  31.985  27.180   5.093
73405ION    CL-38566  19.417  18.009  11.943
73406ION    CL-38567  18.988   9.014  13.085
73407ION    CL-38568   2.674  39.410   1.862
73408ION    CL-38569  10.828  26.471   0.196
73409ION    CL-38570  34.787  20.166  13.731
73410ION    CL-38571  24.543  44.151  14.472
73411ION    CL-38572  26.209  35.018  11.597
73412ION    CL-38573  16.420   1.936  10.715
73413ION    CL-38574  27.022  17.811  12.476
73414ION    CL-38575  18.574  43.730   2.143
73415ION    CL-38576   3.562   7.373  14.499
73416ION    CL-38577   0.820   9.731  14.543
73417ION    CL-38578   8.309  10.885   0.303
73418ION    CL-38579   3.226  21.582   4.822
73419ION    CL-38580   9.884  36.711  11.079
73420ION    CL-38581  18.834   8.214   0.430
73421ION    CL-38582   4.876  14.667  10.206
73422ION    CL-38583  29.677  19.220   2.618
73423ION    CL-38584  14.546  26.725   2.747
73424ION    CL-38585  40.541   2.567  12.164
73425ION    CL-38586  35.591  17.173  11.990
73426ION    CL-38587   2.632  40.628   2.158
73427ION    CL-38588  36.415  10.648   0.281
73428ION    CL-38589   5.575  23.156  12.786
73429ION    CL-38590  17.155  33.739   4.101
73430ION    CL-38591  16.253  10.527   2.517
73431ION    CL-38592  42.003   4.637   9.569
73432ION    CL-38593  19.463  22.999   3.433
73433ION    CL-38594   1.772  42.462   0.850
73434ION    CL-38595  19.889  22.182   5.153
73435ION    CL-38596   1.332  35.631  14.520
73436ION    CL-38597   4.314  24.671   3.321
73437ION    CL-38598   6.499  33.564   4.860
73438ION    CL-38599  37.845   2.757   3.344
73439ION    CL-38600  40.226  39.347  13.411
73440ION    CL-38601   6.670  19.890   4.469
73441ION    CL-38602   9.420  36.870   3.910
73442ION    CL-38603  32.944  11.999  10.886
73443ION    CL-38604  12.446  26.448   0.636
73444ION    CL-38605  18.360   2.009   0.303
73445ION    CL-38606  28.247  13.841  13.570
73446ION    CL-38607  29.448   0.112  11.172
73447ION    CL-38608  28.298  27.633   1.679
73448ION    CL-38609  33.113  32.681  12.663
73449ION    CL-38610  42.323   5.673  14.799
73450ION    CL-38611   8.389   4.694   3.631
73451ION    CL-38612  20.948  24.430   0.946
73452ION    CL-38613  23.052  44.170  11.643
73453ION    CL-38614  24.129  13.190   2.785
73454ION    CL-38615  30.232  29.394   1.150
73455ION    CL-38616  29.497  31.636   1.642
73456ION    CL-38617  12.669  42.001   3.715
73457ION    CL-38618  32.453   7.892  13.091
73458ION    CL-38619  21.748  33.484  12.547
73459ION    CL-38620   0.613  29.937  14.823
73460ION    CL-38621  17.130  36.054   1.887
73461ION    CL-38622  26.670  36.582  12.044
73462ION    CL-38623  20.177  32.070  12.724
73463ION    CL-38624  43.652  32.283  11.292
73464ION    CL-38625  10.182  29.542   0.460
73465ION    CL-38626   3.305   0.800  14.539
73466ION    CL-38627  10.289  38.208   2.667
73467ION    CL-38628   3.253  29.469  10.183
73468ION    CL-38629  33.203   3.669  12.999
73469ION    CL-38630  25.122  16.893   3.120
73470ION    CL-38631  33.649  15.311   3.384
73471ION    CL-38632  44.368  41.507  13.572
73472ION    CL-38633  13.289  33.506   4.919
73473ION    CL-38634  34.845  30.141   3.742
73474ION    CL-38635  26.318  31.759   1.904
73475ION    CL-38636   1.352  28.533   5.027
73476ION    CL-38637   9.252  22.928  10.670
73477ION    CL-38638   7.435  41.335   4.974
73478ION    CL-38639   3.670  25.024   0.445
73479ION    CL-38640   2.660  35.643   9.720
73480ION    CL-38641  40.082  16.303   1.229
73481ION    CL-38642  19.094  38.463   0.133
73482ION    CL-38643  35.395  22.713   4.848
73483ION    CL-38644   7.389  37.936  13.916
73484ION    CL-38645  19.231  15.807   3.197
73485ION    CL-38646  40.958  27.139  13.269
73486ION    CL-38647  37.150  34.462  13.063
73487ION    CL-38648   2.479   6.120  11.151
73488ION    CL-38649  24.338  33.485   1.200
73489ION    CL-38650  41.334  12.310   3.153
73490ION    CL-38651   2.566  29.941  14.978
73491ION    CL-38652  18.891  41.065   4.100
73492ION    CL-38653  42.279  42.187  12.760
73493ION    CL-38654  14.536  15.309  11.160
73494ION    CL-38655   6.176  36.916  10.472
73495ION    CL-38656  11.528  21.079   3.685
73496ION    CL-38657  36.304  29.430   0.259
73497ION    CL-38658  20.427   1.927   0.907
73498ION    CL-38659  12.583  11.178  11.397
73499ION    CL-38660   5.562  10.076  13.798
73500ION    CL-38661  24.114  38.240   0.036
73501ION    CL-38662   2.931  17.744  13.028
73502ION    CL-38663  37.179  22.848   1.979
73503ION    CL-38664  26.242  28.620   3.212
73504ION    CL-38665   8.402   9.728  11.192
73505ION    CL-38666  29.574  18.018  11.992
73506ION    CL-38667   0.403  42.883  13.983
73507ION    CL-38668   2.535  39.190  11.966
73508ION    CL-38669  36.500   1.731   2.365
73509ION    CL-38670  11.661  27.432   1.091
73510ION    CL-38671  14.762  38.830  11.227
73511ION    CL-38672   7.462  33.847  11.309
73512ION    CL-38673  43.344  41.634  12.667
73513ION    CL-38674  11.574  23.249   4.761
73514ION    CL-38675  28.912  26.487  13.377
73515ION    CL-38676  23.998   5.798  10.245
73516ION    CL-38677  19.761  11.118  11.651
73517ION    CL-38678  28.407   5.522  10.501
73518ION    CL-38679   2.652  12.707  11.775
73519ION    CL-38680  26.598  13.395   5.031
73520ION    CL-38681  16.696  31.123  11.226
73521ION    CL-38682   0.666  10.547  12.430
73522ION    CL-38683  21.974   1.974   0.933
73523ION    CL-38684  38.071  28.800   0.185
73524ION    CL-38685  38.087   0.347  11.873
73525ION    CL-38686  33.352  20.815  12.750
73526ION    CL-38687  24.304  40.602   2.725
73527ION    CL-38688   2.976  41.890   4.886
73528ION    CL-38689  11.339  36.651  13.353
73529ION    CL-38690  17.633  13.991   4.156
73530ION    CL-38691   3.251  30.849   2.669
73531ION    CL-38692   6.183  43.928  12.615
73532ION    CL-38693  32.841  15.568  14.409
73533ION    CL-38694  20.357   8.851  13.127
73534ION    CL-38695  16.035   7.661   1.910
73535ION    CL-38696  12.610  26.393   2.779
73536ION    CL-38697   2.050  23.905   3.313
73537ION    CL-38698  40.579  36.340   9.909
73538ION    CL-38699  16.363  28.599  13.814
73539ION    CL-38700  38.579  39.840   3.320
73540ION    CL-38701  32.157  38.801   2.089
73541ION    CL-38702  11.796  15.666  13.325
73542ION    CL-38703   8.716   8.297   3.257
73543ION    CL-38704  38.402  32.177   4.886
73544ION    CL-38705   2.017  35.639  13.792
73545ION    CL-38706  14.360  28.007   1.548
73546ION    CL-38707   3.730  44.702  11.811
73547ION    CL-38708  12.240  32.131   9.800
73548ION    CL-38709  18.612  28.769  11.549
73549ION    CL-38710  13.687  24.218   4.993
73550ION    CL-38711  14.629   3.020   3.215
73551ION    CL-38712  34.413  18.937   2.975
73552ION    CL-38713  11.030  18.619   2.554
73553ION    CL-38714  33.324  36.112   1.843
73554ION    CL-38715  27.033  27.495   3.509
73555ION    CL-38716  15.518  10.658   1.852
73556ION    CL-38717  28.384   0.278  11.571
73557ION    CL-38718  44.177  31.596   3.821
73558ION    CL-38719  30.582  22.475   5.395
73559ION    CL-38720  12.206  44.610  12.388
73560ION    CL-38721  13.534  18.853   4.731
73561ION    CL-38722   2.626  19.648   0.576
73562ION    CL-38723  18.572  38.036   3.415
73563ION    CL-38724  18.489   1.148  12.397
73564ION    CL-38725  13.053  10.572  13.154
73565ION    CL-38726   5.811  29.201   1.752
73566ION    CL-38727  33.525   3.513  14.863
73567ION    CL-38728  13.852  37.669   2.464
73568ION    CL-38729  37.849  44.179  11.024
73569ION    CL-38730  35.939   6.941   1.016
73570ION    CL-38731  20.953  21.062   4.306
73571ION    CL-38732  42.965  39.174   0.984
73572ION    CL-38733  25.753  20.953   3.891
73573ION    CL-38734  18.558   7.045   3.352
73574ION    CL-38735  24.874  20.080   4.056
73575ION    CL-38736   4.690   3.216  11.657
73576ION    CL-38737  19.442  18.468  10.144
73577ION    CL-38738  30.147  39.932   2.896
73578ION    CL-38739  27.605  39.510  13.793
73579ION    CL-38740  25.529  17.413   2.483
73580ION    CL-38741  33.465  19.336  12.033
73581ION    CL-38742  22.598  36.668   5.262
73582ION    CL-38743  13.354  27.634  12.534
73583ION    CL-38744  43.402  10.893   4.114
73584ION    CL-38745  11.650   6.603   0.495
73585ION    CL-38746  23.516  24.989  14.456
73586ION    CL-38747  43.298  35.991  12.666
73587ION    CL-38748  16.335  13.946  13.189
73588ION    CL-38749   4.489   1.758  14.293
73589ION    CL-38750  12.518  25.173  10.566
73590ION    CL-38751  41.557  13.243  12.565
73591ION    CL-38752  14.680  38.999   1.130
73592ION    CL-38753  31.079   7.684   3.909
73593ION    CL-38754  18.072  20.104   2.626
73594ION    CL-38755  29.977  15.174   2.766
73595ION    CL-38756   5.486  39.045  14.403
73596ION    CL-38757   1.130  35.037  13.742
73597ION    CL-38758  31.556  36.601  14.919
73598ION    CL-38759  27.066  27.291  12.619
73599ION    CL-38760  30.749  32.212   0.084
73600ION    CL-38761  43.009  14.341  14.310
73601ION    CL-38762   9.159  29.021   3.264
73602ION    CL-38763  12.841  27.342   0.258
73603ION    CL-38764  23.580  39.841   2.011
73604ION    CL-38765  32.531  35.798   2.186
73605ION    CL-38766  23.697  27.471  12.627
73606ION    CL-38767  35.630  22.575  13.422
73607ION    CL-38768  33.337  12.417   1.342
73608ION    CL-38769   3.464   5.379   4.639
73609ION    CL-38770  44.405  18.697   4.141
73610ION    CL-38771  26.958  32.744  12.347
73611ION    CL-38772  32.256  26.726  12.529
73612ION    CL-38773  22.352   0.274  14.414
73613ION    CL-38774  27.362   0.985   2.731
73614ION    CL-38775  35.467   0.113  14.414
73615ION    CL-38776   4.286   4.839  11.943
73616ION    CL-38777  28.662  34.961  11.076
73617ION    CL-38778  41.513  26.189   2.363
73618ION    CL-38779  21.789  37.948  12.089
73619ION    CL-38780   9.301   4.400   1.902
73620ION    CL-38781   8.882  31.199  13.336
73621ION    CL-38782   3.967  10.628   3.646
73622ION    CL-38783  40.335  38.517  14.920
73623ION    CL-38784  32.432  12.985   1.496
73624ION    CL-38785  19.850  43.067   2.207
73625ION    CL-38786   9.435   6.869   0.944
73626ION    CL-38787  37.638  34.790   3.426
73627ION    CL-38788  25.503  43.488  14.069
73628ION    CL-38789  31.967   6.138  12.328
73629ION    CL-38790  15.273  40.663  13.621
73630ION    CL-38791  10.101  27.533   3.715
73631ION    CL-38792  30.324  29.447  11.406
73632ION    CL-38793   8.404  15.280   2.951
73633ION    CL-38794   0.605  23.655  13.079
73634ION    CL-38795  34.878  38.205   0.051
73635ION    CL-38796  31.162  32.287   0.871
73636ION    CL-38797  23.725  37.567   4.970
73637ION    CL-38798   4.845   7.187   0.533
73638ION    CL-38799  18.887  10.384   3.107
73639ION    CL-38800  14.333  19.959   1.660
73640ION    CL-38801  34.474   0.814   2.744
73641ION    CL-38802  15.080  38.292   0.709
73642ION    CL-38803  35.563  13.251   1.774
73643ION    CL-38804  15.687   6.605  14.676
73644ION    CL-38805  19.837  40.517   3.126
73645ION    CL-38806   3.943  41.376   0.130
73646ION    CL-38807  19.208  42.013   4.304
73647ION    CL-38808  29.816   1.541   1.032
73648ION    CL-38809  12.161  34.217  13.668
73649ION    CL-38810  27.237  31.845  13.296
73650ION    CL-38811  12.356  33.348  13.727
73651ION    CL-38812  23.657  10.843   4.643
73652ION    CL-38813  44.379  10.887  14.618
73653ION    CL-38814  18.664  38.709  11.734
73654ION    CL-38815  44.709  21.286  12.052
73655ION    CL-38816  11.296  24.205  12.946
73656ION    CL-38817  12.022  20.036  12.160
73657ION    CL-38818  27.624   5.704  11.966
73658ION    CL-38819  38.341  31.054   4.051
73659ION    CL-38820  25.307  30.184   3.455
73660ION    CL-38821  27.734  14.465   3.194
73661ION    CL-38822  38.551  33.194   3.298
73662ION    CL-38823  19.063  11.829  11.565
73663ION    CL-38824  36.834  24.123   1.958
73664ION    CL-38825  39.553  16.129  13.579
73665ION    CL-38826   2.792  23.214   4.749
73666ION    CL-38827  20.884  27.683   0.765
73667ION    CL-38828  11.058  16.229   0.897
73668ION    CL-38829  44.649  44.063   0.955
73669ION    CL-38830  36.142  44.543   2.652
73670ION    CL-38831  17.446  11.760   3.586
73671ION    CL-38832  18.757  19.305   9.799
73672ION    CL-38833  42.367   9.263   1.949
73673ION    CL-38834   1.278  27.256  14.786
73674ION    CL-38835  28.715  26.056  11.097
73675ION    CL-38836  39.958  11.591   0.435
73676ION    CL-38837  20.963  20.865  11.908
73677ION    CL-38838  20.979  41.917   0.214
73678ION    CL-38839   3.484  11.988  11.822
73679ION    CL-38840   1.436   7.128   1.372
73680ION    CL-38841   5.998  14.637   0.740
73681ION    CL-38842  33.491  36.940   5.031
73682ION    CL-38843  26.627  13.850   1.510
73683ION    CL-38844  40.521   9.335   2.181
73684ION    CL-38845  18.902  17.811   3.813
73685ION    CL-38846  28.926  15.314  12.556
73686ION    CL-38847  44.386  29.510   2.309
73687ION    CL-38848  10.722   5.800  14.800
73688ION    CL-38849  33.106  13.770  14.770
73689ION    CL-38850   7.684   6.584   2.370
73690ION    CL-38851  19.279  35.397   2.726
73691ION    CL-38852  18.415  10.162   1.525
73692ION    CL-38853  24.880   0.811  13.720
73693ION    CL-38854  34.103   3.909  13.364
73694ION    CL-38855  22.755   3.766  13.054
73695ION    CL-38856  41.081   1.509   1.406
73696ION    CL-38857  22.465  28.922   3.991
73697ION    CL-38858  16.437  10.166   1.545
73698ION    CL-38859  28.590  36.453   0.699
73699ION    CL-38860  15.218  15.836  14.497
73700ION    CL-38861  31.199  20.927  12.632
73701ION    CL-38862  11.816  38.519   0.415
73702ION    CL-38863  36.397  12.833  12.019
73703ION    CL-38864   5.300   4.293   3.666
73704ION    CL-38865  16.632   4.710   0.545
73705ION    CL-38866  23.879  42.295  12.144
73706ION    CL-38867  20.164  27.802   1.274
73707ION    CL-38868   4.396  21.622  13.380
73708ION    CL-38869  34.662  31.378  10.134
73709ION    CL-38870  33.102  20.535  11.150
73710ION    CL-38871  35.648  24.717  14.688
73711ION    CL-38872  12.331  11.196  12.367
73712ION    CL-38873   7.543   5.532  11.211
73713ION    CL-38874  37.002  43.942  12.560
73714ION    CL-38875   4.533  13.417   0.626
73715ION    CL-38876  16.140   0.819   0.419
73716ION    CL-38877  25.504   0.157  14.907
73717ION    CL-38878  12.871  22.920  12.949
73718ION    CL-38879  11.805  22.403  11.725
73719ION    CL-38880  10.660  39.953   4.625
73720ION    CL-38881  33.918  40.485   0.436
73721ION    CL-38882  38.344  15.222   3.773
73722ION    CL-38883   5.243  16.575   2.908
73723ION    CL-38884   4.474  10.720  12.951
73724ION    CL-38885  24.084  44.674   4.683
73725ION    CL-38886  40.335  15.547  11.166
73726ION    CL-38887   7.993  13.351  14.360
73727ION    CL-38888  39.582  26.269  11.315
73728ION    CL-38889  28.227  44.418   4.593
73729ION    CL-38890  11.530  16.902  14.759
73730ION    CL-38891  37.043  37.119  14.023
73731ION    CL-38892  25.527   5.168  13.122
73732ION    CL-38893  25.938   0.074   2.273
73733ION    CL-38894  18.903  15.973  12.905
73734ION    CL-38895  14.722  39.544  13.924
73735ION    CL-38896  42.825  10.503   2.780
73736ION    CL-38897  30.029  39.691   5.024
73737ION    CL-38898   6.308   1.356   2.158
73738ION    CL-38899  14.212   3.804  10.830
73739ION    CL-38900  21.553  34.784   4.125
73740ION    CL-38901  11.795  28.715  13.625
73741ION    CL-38902  11.666  39.393   0.877
73742ION    CL-38903   3.357   9.270   0.827
73743ION    CL-38904   4.214  23.408  11.463
73744ION    CL-38905  32.399  20.564   4.667
73745ION    CL-38906  22.264   5.757  12.520
73746ION    CL-38907  18.429  11.566  10.811
73747ION    CL-38908  14.478  32.827  10.873
73748ION    CL-38909  40.752  20.549   1.944
73749ION    CL-38910  25.845  27.676   0.658
73750ION    CL-38911  33.944  38.258   3.371
73751ION    CL-38912  11.659  15.853  14.362
73752ION    CL-38913   9.250  24.082  14.886
73753ION    CL-38914  32.563  24.700   4.934
73754ION    CL-38915   9.083  42.892  12.855
73755ION    CL-38916  19.859  44.111   0.730
73756ION    CL-38917  17.767  39.086  11.190
73757ION    CL-38918  36.536   9.570  13.577
73758ION    CL-38919  42.315  12.884   2.421
73759ION    CL-38920  15.335  32.779   1.040
73760ION    CL-38921   0.468  39.013   0.908
73761ION    CL-38922  24.076  17.840   2.449
73762ION    CL-38923  41.492  33.681  14.641
73763ION    CL-38924  21.589  35.816   1.765
73764ION    CL-38925   5.435  22.220  12.466
73765ION    CL-38926  40.522  17.129  12.673
73766ION    CL-38927   0.440  21.300   1.657
73767ION    CL-38928  19.522   0.831  13.074
73768ION    CL-38929  44.506  39.377   0.587
73769ION    CL-38930  11.359  18.518  13.343
73770ION    CL-38931  27.207  34.917   0.927
73771ION    CL-38932   6.356  14.605   3.460
73772ION    CL-38933  11.842   7.699  14.578
73773ION    CL-38934  24.801  36.958  13.395
73774ION    CL-38935  38.000  10.680  10.406
73775ION    CL-38936  11.368  24.163   5.111
73776ION    CL-38937  44.662  37.173   3.583
73777ION    CL-38938  24.709  26.745   0.763
73778ION    CL-38939  26.810  42.312   3.956
73779ION    CL-38940  40.523  33.659   2.961
73780ION    CL-38941  18.126  37.444   0.443
73781ION    CL-38942  26.784  24.240   2.110
73782ION    CL-38943  16.887  40.989  14.097
73783ION    CL-38944  17.554   5.052  14.674
73784ION    CL-38945  34.873  13.259   3.095
73785ION    CL-38946  19.267  32.604   4.892
73786ION    CL-38947   3.168  24.985  11.120
73787ION    CL-38948  22.612  16.083  12.087
73788ION    CL-38949  20.076  17.054   0.294
73789ION    CL-38950  37.365  13.204  11.960
73790ION    CL-38951   8.168   0.481  14.670
73791ION    CL-38952   9.858  41.882  13.632
73792ION    CL-38953  17.495  10.866   2.198
73793ION    CL-38954  34.300  38.652   2.211
73794ION    CL-38955  34.658   3.856   4.194
73795ION    CL-38956  42.480   1.547  11.602
73796ION    CL-38957   1.639  39.172  11.091
73797ION    CL-38958   6.914  42.561   2.629
73798ION    CL-38959   6.847  28.745   0.119
73799ION    CL-38960   3.619  44.304  10.901
73800ION    CL-38961  13.231  20.448   0.621
73801ION    CL-38962  26.515   5.882   1.935
73802ION    CL-38963  17.718   1.925   1.449
73803ION    CL-38964   0.330  40.567  13.545
73804ION    CL-38965   8.430  17.688   1.468
73805ION    CL-38966   5.231   2.799   4.784
73806ION    CL-38967  19.266  42.870   3.605
73807ION    CL-38968  35.475   3.203   4.222
73808ION    CL-38969  43.071   7.619   3.325
73809ION    CL-38970   1.858  24.153  11.709
73810ION    CL-38971   6.890  10.822  10.486
73811ION    CL-38972  33.942  23.780  11.555
73812ION    CL-38973  15.921   2.724  14.284
73813ION    CL-38974   0.241  22.834  14.702
73814ION    CL-38975  14.199  21.625  13.321
73815ION    CL-38976  36.625  13.276   4.023
73816ION    CL-38977  41.046  23.147  13.917
73817ION    CL-38978  20.008  42.054   5.454
73818ION    CL-38979  31.097  20.730   4.144
73819ION    CL-38980  37.299  26.038  11.080
73820ION    CL-38981  20.325  18.613  12.554
73821ION    CL-38982  28.474  28.460  12.033
73822ION    CL-38983  20.907  35.980  12.867
73823ION    CL-38984  13.286   3.939   3.590
73824ION    CL-38985  36.860   9.894  14.015
73825ION    CL-38986   4.299  43.228  12.341
73826ION    CL-38987  16.599   5.451   2.355
73827ION    CL-38988  20.663  24.935   2.406
73828ION    CL-38989  36.251   5.161  10.782
73829ION    CL-38990  41.980  43.647   1.634
73830ION    CL-38991   4.939  30.845  12.711
73831ION    CL-38992   9.870  41.019   1.999
73832ION    CL-38993  31.690  30.637  12.800
73833ION    CL-38994  22.356   2.372   4.095
73834ION    CL-38995   2.532  37.305   0.761
73835ION    CL-38996  42.852   0.805  11.995
73836ION    CL-38997  34.537   7.984   4.947
73837ION    CL-38998   2.273  17.119  13.508
73838ION    CL-38999  32.293   7.449   1.681
73839ION    CL-39000  31.702  40.141   0.207
73840ION    CL-39001  29.748  38.833   3.234
73841ION    CL-39002   4.676  34.136  11.049
73842ION    CL-39003  37.728  27.857  14.952
73843ION    CL-39004  23.979   2.489  14.872
73844ION    CL-39005  12.221  38.399  11.056
73845ION    CL-39006  28.526  27.192   4.202
73846ION    CL-39007  31.045   5.519   0.818
73847ION    CL-39008  43.402  40.804   2.659
73848ION    CL-39009  28.087  17.004   0.920
73849ION    CL-39010  19.785  28.171   3.804
73850ION    CL-39011   4.814  10.845   0.372
73851ION    CL-39012  42.733  33.317   3.559
73852ION    CL-39013  11.725  38.569   1.441
73853ION    CL-39014  13.219  20.589   3.814
73854ION    CL-39015  21.284   5.922   4.134
73855ION    CL-39016  17.267  13.716  10.753
73856ION    CL-39017  17.953   1.842  11.869
73857ION    CL-39018   7.539   0.653   0.479
73858ION    CL-39019   2.324   5.945   4.963
73859ION    CL-39020  38.569  28.005  11.609
73860ION    CL-39021   2.770   8.817  12.565
73861ION    CL-39022   7.211  28.349  14.276
73862ION    CL-39023  12.056   8.351   1.791
73863ION    CL-39024  22.022   8.688   1.437
73864ION    CL-39025  35.660   4.887   3.332
73865ION    CL-39026   1.719  27.445  14.027
73866ION    CL-39027  10.992   7.179  14.665
73867ION    CL-39028  21.023   0.005   1.827
73868ION    CL-39029   7.740  38.127   0.360
73869ION    CL-39030  24.669  25.862   0.295
73870ION    CL-39031   3.995   7.492   3.319
73871ION    CL-39032   8.791  41.357   1.243
73872ION    CL-39033  41.148  35.887   1.901
73873ION    CL-39034  16.892   4.774  13.072
73874ION    CL-39035  23.235  42.848  11.860
73875ION    CL-39036  14.558  41.477   2.406
73876ION    CL-39037   6.360  27.553   3.359
73877ION    CL-39038  40.542   1.715  12.745
73878ION    CL-39039   7.843  33.821   3.618
73879ION    CL-39040  33.743  16.999   4.117
73880ION    CL-39041   4.690  24.137  11.961
73881ION    CL-39042  43.857   0.545  10.677
73882ION    CL-39043  31.065  35.822   0.857
73883ION    CL-39044   9.229  41.108  13.607
73884ION    CL-39045  28.980  14.256   0.535
73885ION    CL-39046   2.427  31.005   0.746
73886ION    CL-39047  19.213  44.497   2.200
73887ION    CL-39048  21.577   2.134   2.318
73888ION    CL-39049  28.826  43.779  11.896
73889ION    CL-39050  25.762  42.898   3.330
73890ION    CL-39051   6.645  34.813   2.781
73891ION    CL-39052  22.289  36.269  13.067
73892ION    CL-39053  30.144  35.527   2.360
73893ION    CL-39054  28.169  15.833  14.595
73894ION    CL-39055   9.254  29.614  12.463
73895ION    CL-39056  19.301  11.796   3.485
73896ION    CL-39057  26.719   0.703  12.387
73897ION    CL-39058  11.239  43.285   0.740
73898ION    CL-39059  10.800  37.048  10.862
73899ION    CL-39060  18.553  37.116   2.893
73900ION    CL-39061   2.688  23.750   3.911
73901ION    CL-39062  18.251  34.160  13.094
73902ION    CL-39063  38.237  31.011  14.307
73903ION    CL-39064   5.269  16.130   2.013
73904ION    CL-39065  35.879  14.743   3.086
73905ION    CL-39066  29.305   9.029   1.727
73906ION    CL-39067  19.025  32.460  10.952
73907ION    CL-39068   7.904   7.708  11.541
73908ION    CL-39069  23.746   4.249   1.787
73909ION    CL-39070  38.406  30.433   1.410
73910ION    CL-39071  23.203  26.030   3.294
73911ION    CL-39072  21.195  22.422   2.683
73912ION    CL-39073  34.036  20.200  12.357
73913ION    CL-39074  43.361  23.720   4.212
73914ION    CL-39075  25.596  37.014   3.645
73915ION    CL-39076  34.122  32.406  11.488
73916ION    CL-39077  20.967  42.963   4.215
73917ION    CL-39078   8.820  14.823  13.467
73918ION    CL-39079   1.997  19.549  13.519
73919ION    CL-39080  34.231  19.207  14.177
73920ION    CL-39081  25.862   8.136   4.379
73921ION    CL-39082  38.113   1.766  11.600
73922ION    CL-39083  16.042  23.949   1.265
73923ION    CL-39084  28.067  32.137  10.793
73924ION    CL-39085  34.805   9.555   4.748
73925ION    CL-39086  34.063  11.624  11.662
73926ION    CL-39087  17.111  40.581   1.590
73927ION    CL-39088  29.630   5.317   0.469
73928ION    CL-39089   7.437  17.820   2.845
73929ION    CL-39090  28.446  18.547  11.609
73930ION    CL-39091   2.211  38.278   3.151
73931ION    CL-39092   2.531  19.367   4.200
73932ION    CL-39093  37.231   5.914   3.153
73933ION    CL-39094   9.148  24.064  12.965
73934ION    CL-39095  36.513  13.252  13.292
73935ION    CL-39096  10.852  41.522   4.264
73936ION    CL-39097  35.102  20.720  12.960
73937ION    CL-39098  29.679  29.278   2.828
73938ION    CL-39099  39.885  17.799   1.180
73939ION    CL-39100  14.219  37.910   0.375
73940ION    CL-39101   7.419  35.975   1.882
73941ION    CL-39102  26.393  20.750  14.098
73942ION    CL-39103  12.364  44.552  13.579
73943ION    CL-39104  44.028  12.318  14.846
73944ION    CL-39105  30.021  17.578   4.972
73945ION    CL-39106  39.218  21.054  14.141
73946ION    CL-39107  42.776   1.845   3.590
73947ION    CL-39108  19.267  24.695  12.404
73948ION    CL-39109  12.669  25.221  13.935
73949ION    CL-39110  10.779  32.459  11.833
73950ION    CL-39111   3.444  28.426   0.247
73951ION    CL-39112  23.607  19.312  10.515
73952ION    CL-39113  23.032   2.087  12.144
73953ION    CL-39114  22.225  15.036  13.813
73954ION    CL-39115  38.397  17.315  12.541
73955ION    CL-39116  27.638  11.450   1.876
73956ION    CL-39117  44.314  38.396   0.555
73957ION    CL-39118  32.171  43.649   4.526
73958ION    CL-39119  37.272  29.606   5.185
73959ION    CL-39120  22.234  20.303  13.383
73960ION    CL-39121   7.680   4.710   2.642
73961ION    CL-39122   6.358   0.396   2.431
73962ION    CL-39123  23.840  11.590  14.316
73963ION    CL-39124  27.706  27.654  14.858
73964ION    CL-39125   6.871  13.055   3.224
73965ION    CL-39126  22.398  17.825   1.415
73966ION    CL-39127  38.157  37.753  11.543
73967ION    CL-39128   2.203  22.253  11.893
73968ION    CL-39129  42.540  36.205  13.075
73969ION    CL-39130   7.626   4.747  13.039
73970ION    CL-39131  30.300  34.081   0.437
73971ION    CL-39132  19.629  26.108   3.840
73972ION    CL-39133  21.718   5.541   0.321
73973ION    CL-39134   3.693  31.081   1.715
73974ION    CL-39135   3.399   3.287   1.120
73975ION    CL-39136   4.571  22.382   4.893
73976ION    CL-39137  39.902  32.485  12.861
73977ION    CL-39138   8.461  17.152   5.074
73978ION    CL-39139  27.622  13.587   1.525
73979ION    CL-39140   7.511  40.257   0.060
73980ION    CL-39141   5.502   2.760  11.104
73981ION    CL-39142   5.953  32.023  10.504
73982ION    CL-39143  22.509  22.105   3.210
73983ION    CL-39144   7.895  26.635   0.836
73984ION    CL-39145  18.253   2.449  11.320
73985ION    CL-39146  30.634   8.994   4.591
73986ION    CL-39147  27.434  29.749  14.968
73987ION    CL-39148  38.949   0.968  14.718
73988ION    CL-39149   3.929  23.022  12.664
73989ION    CL-39150  42.417  42.773  14.015
73990ION    CL-39151  35.592  18.952   2.368
73991ION    CL-39152  23.581  17.650  13.733
73992ION    CL-39153  31.991   0.189  14.903
73993ION    CL-39154  16.750  43.715   0.188
73994ION    CL-39155  32.648  16.473  11.636
73995ION    CL-39156  21.612  44.237   4.152
73996ION    CL-39157  20.747  15.417   3.113
73997ION    CL-39158  44.262  28.266   0.898
73998ION    CL-39159  34.645  34.757   1.367
73999ION    CL-39160  16.754  44.435   0.886
74000ION    CL-39161  13.563  28.875   2.103
74001ION    CL-39162  34.475  31.262  13.696
74002ION    CL-39163  39.411  19.087  10.307
74003ION    CL-39164  13.732  19.542   5.204
74004ION    CL-39165  22.138   6.736   2.083
74005ION    CL-39166  21.082  36.949  13.039
74006ION    CL-39167  42.663   5.299   4.601
74007ION    CL-39168  17.155  40.273  10.677
74008ION    CL-39169  24.053   7.369   1.581
74009ION    CL-39170  37.150  14.506   1.390
74010ION    CL-39171  17.954  33.947  11.628
74011ION    CL-39172  16.717   1.186   2.672
74012ION    CL-39173  22.631  39.127   3.012
74013ION    CL-39174  37.525  21.257  14.447
74014ION    CL-39175   9.389  37.221   1.921
74015ION    CL-39176  14.143  15.923   4.590
74016ION    CL-39177  33.524  38.962  13.067
74017ION    CL-39178  18.040  28.108  12.034
74018ION    CL-39179  18.142   4.148   4.040
74019ION    CL-39180  40.234  19.269  14.453
74020ION    CL-39181  10.128  31.566   1.971
74021ION    CL-39182  37.442  41.255   9.969
74022ION    CL-39183  16.577   3.816   4.189
74023ION    CL-39184  28.472  39.957   5.388
74024ION    CL-39185  25.649  21.629   4.620
74025ION    CL-39186  10.629  12.665   2.285
74026ION    CL-39187  16.608  33.676  11.423
74027ION    CL-39188  37.970   8.519   3.331
74028ION    CL-39189  35.639  19.629  13.391
74029ION    CL-39190  22.918  23.884  11.317
74030ION    CL-39191   6.733  21.192  13.580
74031ION    CL-39192  38.075   3.387  12.400
74032ION    CL-39193  43.532  34.283   1.806
74033ION    CL-39194  36.776   3.710  12.837
74034ION    CL-39195  11.389   2.556   2.101
74035ION    CL-39196  25.493  26.418   0.187
74036ION    CL-39197  31.451  25.794  14.783
74037ION    CL-39198   0.599  19.626  13.879
74038ION    CL-39199   3.806  30.882   0.728
74039ION    CL-39200  34.977  38.214  12.037
74040ION    CL-39201  42.315  38.860   0.292
74041ION    CL-39202  20.241  24.466   4.551
74042ION    CL-39203  15.403  33.462  11.963
74043ION    CL-39204   8.333   2.250  10.701
74044ION    CL-39205  14.303  31.948  14.155
74045ION    CL-39206  44.161  29.572   0.705
74046ION    CL-39207  38.979   2.045   1.781
74047ION    CL-39208   3.093  20.754   2.242
74048ION    CL-39209  31.727  35.444   2.432
74049ION    CL-39210  41.340   9.316   1.423
74050ION    CL-39211  34.590  36.655  14.519
74051ION    CL-39212  25.819   9.198  10.692
74052ION    CL-39213  23.508  30.881  11.634
74053ION    CL-39214  32.620  34.612  14.975
74054ION    CL-39215  18.185  17.741   0.197
74055ION    CL-39216   5.278  19.519  14.261
74056ION    CL-39217   7.396  22.746  12.334
74057ION    CL-39218  23.241  31.867  12.127
74058ION    CL-39219  31.981  17.632   1.196
74059ION    CL-39220  19.003  40.205  13.096
74060ION    CL-39221  35.428   8.145   2.244
74061ION    CL-39222  38.313  36.541   2.162
74062ION    CL-39223  10.131  39.038  10.597
74063ION    CL-39224  40.935  38.976   0.575
74064ION    CL-39225  20.169  21.688   0.807
74065ION    CL-39226  34.321  32.553   5.209
74066ION    CL-39227  19.099  35.036  10.727
74067ION    CL-39228  23.224  17.854   0.853
74068ION    CL-39229  36.625  31.824  10.736
74069ION    CL-39230  34.360  18.662   0.787
74070ION    CL-39231   7.651  17.828   0.857
74071ION    CL-39232  15.030  26.961   1.844
74072ION    CL-39233  15.429   1.819  10.768
74073ION    CL-39234  23.122  42.067  13.814
74074ION    CL-39235  37.961  34.030   5.121
74075ION    CL-39236  22.120  22.138  12.315
74076ION    CL-39237  39.439  31.960  11.470
74077ION    CL-39238   0.511   2.523  11.082
74078ION    CL-39239  24.725  41.770  11.956
74079ION    CL-39240  16.962  35.970  12.218
74080ION    CL-39241  40.203  14.081   3.285
74081ION    CL-39242  30.708   1.486   0.583
74082ION    CL-39243  25.493  22.967  12.090
74083ION    CL-39244  40.803  20.214  12.499
74084ION    CL-39245  25.920  26.050   4.160
74085ION    CL-39246  16.143  15.925   4.713
74086ION    CL-39247  29.905  28.352   3.129
74087ION    CL-39248  44.537  16.289   2.849
74088ION    CL-39249   0.662  40.356   5.501
74089ION    CL-39250   9.692  30.699   3.647
74090ION    CL-39251   0.597   3.875   4.089
74091ION    CL-39252  31.454  27.987   0.370
74092ION    CL-39253  23.893  15.819   3.670
74093ION    CL-39254  35.683   0.403  12.826
74094ION    CL-39255  25.746  33.342  13.230
74095ION    CL-39256  32.047  38.746   4.126
74096ION    CL-39257  20.182   7.481   1.486
74097ION    CL-39258  24.113   7.716  12.485
74098ION    CL-39259  16.088  37.043   3.725
74099ION    CL-39260  27.217  34.488  11.041
74100ION    CL-39261  30.430  42.975  11.250
74101ION    CL-39262   4.569  31.331   1.303
74102ION    CL-39263  10.124  21.644   4.288
74103ION    CL-39264  41.584   5.622   1.990
74104ION    CL-39265   0.648   8.928  14.930
74105ION    CL-39266  26.098  13.308  12.460
74106ION    CL-39267  32.552  13.890   0.594
74107ION    CL-39268  34.384  19.404  11.445
74108ION    CL-39269  43.530  30.899  13.626
74109ION    CL-39270  44.492   8.637   9.781
74110ION    CL-39271   2.888  32.079  10.451
74111ION    CL-39272  33.110  15.870   0.198
74112ION    CL-39273  40.758   0.211  14.060
74113ION    CL-39274  17.649  18.857  14.844
74114ION    CL-39275  40.263  33.836  13.123
74115ION    CL-39276  10.253  14.990  11.556
74116ION    CL-39277  25.809  39.036   2.049
74117ION    CL-39278  20.616   8.777   2.774
74118ION    CL-39279  36.178  25.352   1.908
74119ION    CL-39280  17.312  21.493   4.497
74120ION    CL-39281  10.137  40.253  14.945
74121ION    CL-39282  41.539  16.852  13.966
74122ION    CL-39283   5.661   2.888  12.947
74123ION    CL-39284  29.066  20.839   5.067
74124ION    CL-39285  35.138   1.002  11.982
74125ION    CL-39286  19.187  23.260   0.900
74126ION    CL-39287  27.197   9.223  11.517
74127ION    CL-39288  25.738  33.154   4.962
74128ION    CL-39289  10.468   4.970  12.197
74129ION    CL-39290   5.052  39.873  13.365
74130ION    CL-39291  17.211  31.021  10.375
74131ION    CL-39292  14.759  28.648   2.311
74132ION    CL-39293   3.164  30.003  12.148
74133ION    CL-39294   6.899  30.267   5.463
74134ION    CL-39295  21.159  12.910   0.417
74135ION    CL-39296  32.864  15.986  12.482
74136ION    CL-39297  10.060  32.233  12.310
74137ION    CL-39298  30.644  36.558   0.327
74138ION    CL-39299  17.327   8.263  12.577
74139ION    CL-39300  31.396  39.969   3.809
74140ION    CL-39301  19.109  38.279   0.991
74141ION    CL-39302  14.485  12.892   2.199
74142ION    CL-39303  42.926   7.018  14.789
74143ION    CL-39304  24.149  33.731  11.148
74144ION    CL-39305   2.193  25.045  14.982
74145ION    CL-39306   9.218  19.505  11.844
74146ION    CL-39307  18.003  11.766   2.253
74147ION    CL-39308   9.944  40.134   2.154
74148ION    CL-39309  12.116  18.765  13.949
74149ION    CL-39310  34.572  24.609  14.403
74150ION    CL-39311   9.727  18.398   2.108
74151ION    CL-39312  19.093  29.169   1.905
74152ION    CL-39313   5.366  36.540  13.782
74153ION    CL-39314   2.207  29.864   0.908
74154ION    CL-39315   0.472  40.532  14.633
74155ION    CL-39316   6.374   8.620   2.363
74156ION    CL-39317   0.984  25.795   4.597
74157ION    CL-39318  13.295  24.274  11.649
74158ION    CL-39319  35.343  37.725   0.636
74159ION    CL-39320  18.288  10.627   3.869
74160ION    CL-39321  26.223  12.560  11.666
74161ION    CL-39322  34.107   4.862  13.667
74162ION    CL-39323  38.105   8.717  12.528
74163ION    CL-39324   7.888   5.398   3.338
  45.00000  45.00000  15.00000
